/*--------------------------------*- C++ -*----------------------------------*\
| =========                 |                                                 |
| \\      /  F ield         | OpenFOAM: The Open Source CFD Toolbox           |
|  \\    /   O peration     | Version:  2506                                  |
|   \\  /    A nd           | Website:  www.openfoam.com                      |
|    \\/     M anipulation  |                                                 |
\*---------------------------------------------------------------------------*/
FoamFile
{
    version     2.0;
    format      ascii;
    arch        "LSB;label=32;scalar=64";
    class       volVectorField;
    location    "0.00033";
    object      U;
}
// * * * * * * * * * * * * * * * * * * * * * * * * * * * * * * * * * * * * * //

dimensions      [0 1 -1 0 0 0 0];

internalField   nonuniform List<vector> 
3464
(
(84.129607 -112.28665 5.1413839e-20)
(84.16687 -111.53172 -2.3717123e-20)
(84.21278 -110.64168 -2.1917688e-20)
(84.262636 -109.65056 2.0181896e-20)
(84.291146 -109.09627 1.1351778e-24)
(84.171723 -112.63828 2.6609169e-23)
(84.206993 -111.98972 -2.5739303e-20)
(84.249635 -111.18736 0)
(84.292963 -110.37751 -2.1958495e-20)
(84.336401 -109.54264 2.0220863e-20)
(84.362731 -109.03383 -1.1375271e-24)
(84.374148 -108.77761 -1.7144384e-20)
(84.201374 -112.99665 -9.2454083e-25)
(84.230644 -112.43577 -2.7971871e-20)
(84.262202 -111.83992 2.5789165e-20)
(84.304873 -111.05266 0)
(84.349783 -110.21273 -1.3419728e-24)
(84.398262 -109.30861 -1.2376195e-24)
(84.425803 -108.76367 1.8676299e-20)
(84.438584 -108.49785 -1.7175126e-20)
(84.440256 -108.43258 -9.2280585e-28)
(84.10075 -114.49674 -8.1897236e-21)
(84.024922 -115.84042 -7.512166e-21)
(83.995771 -116.39567 1.3818339e-20)
(84.041988 -115.49626 -6.343267e-21)
(84.160925 -113.23653 0)
(84.301066 -113.14076 -1.0037116e-24)
(84.320953 -112.72876 9.2652759e-25)
(84.342241 -112.30483 8.5530906e-25)
(84.365406 -111.86152 3.1563586e-24)
(84.40576 -111.11089 0)
(84.4566 -110.15713 2.6894258e-24)
(84.517885 -108.99551 1.2398733e-24)
(84.552862 -108.30497 -2.2850209e-24)
(84.5688 -107.97957 1.7216708e-20)
(84.570295 -107.92047 -1.5857303e-20)
(84.538743 -108.4721 1.7823304e-24)
(84.304831 -112.77505 4.3471248e-24)
(84.223686 -114.36659 0)
(84.145063 -115.80542 -3.6769135e-24)
(84.116425 -116.37081 6.7576315e-24)
(84.173346 -115.3156 -6.386944e-21)
(84.294186 -112.97651 5.868224e-21)
(84.352366 -111.84696 0)
(84.404855 -113.2833 -3.5663407e-20)
(84.430465 -112.73691 6.5899377e-20)
(84.44464 -112.42992 -3.0424607e-20)
(84.458644 -112.1337 2.0411402e-28)
(84.473055 -111.84094 -2.5922412e-20)
(84.509581 -111.13052 -3.1926733e-23)
(84.563572 -110.08649 2.2059987e-20)
(84.632975 -108.73636 -2.0378028e-20)
(84.671235 -107.98276 1.8744306e-20)
(84.687834 -107.64159 0)
(84.688202 -107.60914 3.8794972e-24)
(84.646235 -108.38118 1.855596e-28)
(84.628402 -108.78637 -1.6419123e-24)
(84.603156 -109.29437 1.2369436e-20)
(84.58672 -109.56785 -2.2777811e-20)
(84.540471 -110.45298 2.0984913e-20)
(84.507215 -111.11804 -1.9351482e-20)
(84.428577 -112.56361 1.7833323e-20)
(84.344476 -114.14403 -2.3419208e-23)
(84.263679 -115.67831 -1.5094824e-20)
(84.23222 -116.27127 6.9366023e-21)
(84.286017 -115.21947 6.3931056e-21)
(84.412109 -112.79141 -1.177059e-20)
(84.47103 -111.62241 -8.2726296e-24)
(84.494707 -111.14301 5.0313621e-21)
(84.470727 -111.48823 -9.0334948e-24)
(84.500504 -113.6994 0)
(84.524444 -113.17369 -1.0905189e-24)
(84.548907 -112.62738 0)
(84.565295 -112.2731 9.3077793e-25)
(84.581242 -111.91185 -8.5903065e-25)
(84.599147 -111.54421 2.5987222e-20)
(84.635678 -110.7965 -2.3968124e-20)
(84.686883 -109.78612 2.2157364e-20)
(84.750715 -108.51002 -2.0397937e-20)
(84.78572 -107.81442 -1.880187e-20)
(84.800508 -107.5052 -5.6532758e-25)
(84.800227 -107.48774 9.7507433e-24)
(84.757229 -108.28102 1.4665462e-20)
(84.737264 -108.69621 1.3473729e-20)
(84.709237 -109.23016 -1.2394384e-20)
(84.69459 -109.50659 0)
(84.655431 -110.27573 5.1344113e-24)
(84.623149 -110.88573 0)
(84.54774 -112.26814 8.7343106e-24)
(84.462062 -113.89533 -8.2195256e-21)
(84.379516 -115.45518 1.4598818e-23)
(84.345492 -116.06897 -9.0914286e-24)
(84.391193 -115.05121 6.3928697e-21)
(84.520298 -112.59712 -5.9144455e-21)
(84.575659 -111.42697 5.4513671e-21)
(84.60174 -110.94935 4.9209536e-24)
(84.583107 -111.28276 4.6303628e-21)
(84.614199 -113.96008 0)
(84.64227 -113.29793 3.8735444e-20)
(84.667385 -112.73518 3.190742e-23)
(84.690941 -112.18526 -3.309782e-20)
(84.704036 -111.87768 3.0587708e-20)
(84.711979 -111.65637 9.7685893e-24)
(84.723008 -111.41637 -2.6028375e-20)
(84.75512 -110.74275 2.4049787e-20)
(84.807351 -109.70603 3.9443421e-23)
(84.871929 -108.3941 -2.0436868e-20)
(84.906688 -107.69045 0)
(84.919889 -107.40001 2.1179247e-24)
(84.914568 -107.42654 6.1796518e-29)
(84.872834 -108.26296 0)
(84.847818 -108.69531 0)
(84.82434 -109.17678 -1.566293e-28)
(84.808046 -109.42517 1.1431529e-20)
(84.769279 -110.16982 -1.0548471e-20)
(84.734998 -110.74724 0)
(84.668619 -112.04014 -4.3762533e-24)
(84.581974 -113.60262 -8.2504729e-21)
(84.501531 -115.1298 1.4372401e-23)
(84.466237 -115.73375 6.9690581e-21)
(84.501574 -114.79648 6.4149484e-21)
(84.627497 -112.42337 -1.1826886e-20)
(84.675753 -111.29933 5.4625602e-21)
(84.701661 -110.84133 -4.9304895e-24)
(84.684782 -111.12038 -4.6409468e-21)
(84.737961 -114.25482 4.5392982e-20)
(84.76388 -113.63691 -4.1940614e-20)
(84.789389 -113.0338 3.875978e-20)
(84.817798 -112.40092 3.5904038e-20)
(84.842188 -111.84627 -6.637235e-20)
(84.854593 -111.55033 3.065752e-20)
(84.858219 -111.40357 -2.8303353e-20)
(84.862952 -111.26727 2.6095893e-20)
(84.890418 -110.64043 2.4106836e-20)
(84.938292 -109.63772 4.1128799e-23)
(85.002866 -108.27004 -4.0989961e-20)
(85.037911 -107.53308 3.7732317e-20)
(85.050789 -107.23081 -1.6774182e-24)
(85.039181 -107.34015 -3.2016428e-20)
(84.994742 -108.23532 1.5084158e-23)
(84.961971 -108.70726 1.0164975e-23)
(84.93793 -109.17175 2.4895605e-20)
(84.914738 -109.4007 -2.292362e-20)
(84.880379 -110.01094 1.1811735e-23)
(84.845556 -110.528 1.9480438e-20)
(84.78452 -111.72311 -8.9917972e-21)
(84.694506 -113.28921 8.2648517e-21)
(84.615932 -114.80471 -1.5215674e-20)
(84.57909 -115.41539 6.9853265e-21)
(84.603924 -114.5872 6.4297932e-21)
(84.725276 -112.26121 -1.185453e-20)
(84.765536 -111.16802 5.474405e-21)
(84.788845 -110.71963 5.0571047e-21)
(84.766798 -110.9477 -1.5912808e-23)
(84.866941 -114.73956 -7.5452378e-25)
(84.886827 -114.23756 0)
(84.909794 -113.67411 -6.3998565e-25)
(84.934898 -113.09646 0)
(84.963012 -112.4554 -1.0965747e-24)
(84.989319 -111.87397 -3.3265889e-20)
(85.00748 -111.44288 3.0727176e-20)
(85.016539 -111.20994 -2.8373349e-20)
(85.027625 -110.90042 2.6157625e-20)
(85.056886 -110.23518 -1.4733679e-24)
(85.103484 -109.18002 2.2306215e-20)
(85.16003 -107.95459 3.071402e-23)
(85.189034 -107.28923 -1.8908176e-20)
(85.198781 -107.02851 -1.7425574e-20)
(85.185183 -107.10064 1.6056529e-20)
(85.14778 -107.83121 1.4755859e-20)
(85.112229 -108.29996 -1.0843633e-23)
(85.083785 -108.8473 -1.2480897e-20)
(85.054573 -109.12457 0)
(85.015946 -109.75585 0)
(84.973568 -110.31183 9.753971e-21)
(84.910776 -111.58176 -1.8001847e-20)
(84.818912 -113.15253 8.3051932e-21)
(84.741365 -114.66909 3.7188492e-24)
(84.702925 -115.27888 0)
(84.723339 -114.42076 6.2894909e-24)
(84.843506 -112.04848 0)
(84.878516 -110.9298 5.3648678e-24)
(84.898956 -110.47123 -5.0737194e-21)
(84.865007 -110.72055 4.6785826e-21)
(85.017301 -115.02161 5.3975307e-20)
(85.032061 -114.62956 3.5634217e-23)
(85.052277 -114.12436 -4.5574316e-20)
(85.075865 -113.53403 0)
(85.099365 -112.95853 -5.9367676e-25)
(85.123275 -112.36432 0)
(85.146113 -111.8064 -3.3341917e-20)
(85.164103 -111.34474 -1.7564056e-23)
(85.176389 -111.01052 2.8419786e-20)
(85.193418 -110.58679 2.6238364e-20)
(85.223435 -109.88747 3.0589969e-23)
(85.268866 -108.90692 3.4828922e-23)
(85.318945 -107.80276 3.0551222e-23)
(85.348873 -107.15884 -1.895497e-20)
(85.358979 -106.89317 -1.7450265e-20)
(85.355403 -106.87655 6.8721864e-24)
(85.31273 -107.45154 1.4799962e-20)
(85.27877 -107.88948 0)
(85.236728 -108.45953 0)
(85.224472 -108.76253 0)
(85.165218 -109.48571 -2.5909663e-24)
(85.133895 -110.10305 -9.7763837e-21)
(85.054577 -111.43426 1.8041988e-20)
(84.974859 -112.98439 -8.3231125e-21)
(84.885506 -114.50679 0)
(84.850868 -115.11422 3.4249564e-24)
(84.865788 -114.26922 0)
(84.985237 -111.86561 0)
(85.017014 -110.72061 -5.3763931e-24)
(85.037702 -110.23935 -5.0760839e-21)
(85.002561 -110.43913 4.6716616e-21)
(85.181617 -115.08236 -8.9761965e-25)
(85.194324 -114.83206 5.4074325e-20)
(85.210444 -114.4677 -4.9648488e-20)
(85.230116 -114.02009 -6.9712929e-25)
(85.253638 -113.45515 6.4330019e-25)
(85.27552 -112.92008 5.9493578e-25)
(85.301609 -112.26987 0)
(85.325581 -111.65635 1.0194079e-24)
(85.343165 -111.17127 3.0874426e-20)
(85.353656 -110.82088 -2.8482065e-20)
(85.369632 -110.37332 -2.6298504e-20)
(85.397302 -109.66353 -3.2985251e-23)
(85.441464 -108.64458 2.2377123e-20)
(85.489772 -107.52653 0)
(85.518079 -106.87024 -1.9017427e-20)
(85.528055 -106.59887 3.4984565e-20)
(85.524976 -106.57766 -1.6115033e-20)
(85.487698 -107.12875 -1.8108483e-24)
(85.456383 -107.58991 1.6647328e-24)
(85.403269 -108.17478 -3.0623184e-24)
(85.394634 -108.49146 -1.1538454e-20)
(85.339599 -109.21388 2.1273599e-20)
(85.305029 -109.84102 -1.4921692e-23)
(85.22079 -111.21736 -1.808939e-20)
(85.145709 -112.80537 8.3390447e-21)
(85.053872 -114.34599 0)
(85.019359 -114.96078 -3.4322611e-24)
(85.032445 -114.09806 6.3194148e-24)
(85.152064 -111.64422 0)
(85.182512 -110.47312 5.3904785e-24)
(85.202696 -109.98137 5.0934533e-21)
(85.163461 -110.20201 1.8467122e-24)
(85.32867 -115.10008 -6.3689131e-20)
(85.341156 -114.90127 5.8678559e-20)
(85.358647 -114.6008 0)
(85.379396 -114.19798 -4.9744382e-20)
(85.402153 -113.72217 4.5809197e-20)
(85.426017 -113.19014 4.2327037e-20)
(85.451813 -112.58792 -7.8260106e-20)
(85.477115 -111.97993 3.6186306e-20)
(85.498182 -111.43734 3.3486928e-20)
(85.514283 -110.99871 -6.1849055e-20)
(85.523943 -110.66728 2.853303e-20)
(85.538285 -110.23919 -1.6073524e-24)
(85.565097 -109.51546 2.432876e-20)
(85.60797 -108.46269 -2.2420576e-20)
(85.655966 -107.29822 0)
(85.681888 -106.64622 -1.9063699e-20)
(85.690836 -106.36909 -1.1441989e-24)
(85.686851 -106.34223 3.2296059e-20)
(85.648846 -106.89949 -1.4870766e-20)
(85.626424 -107.33583 -1.6682817e-24)
(85.574394 -107.893 -1.2568206e-20)
(85.560894 -108.21661 1.1576705e-20)
(85.507402 -108.98503 0)
(85.472928 -109.65669 0)
(85.386391 -111.05024 -9.0101405e-28)
(85.313903 -112.64489 0)
(85.224528 -114.15028 7.6661236e-21)
(85.1907 -114.75014 -1.4107757e-20)
(85.20112 -113.89376 -2.4733016e-23)
(85.31701 -111.45784 5.9736206e-21)
(85.345419 -110.28326 -5.4017165e-24)
(85.36522 -109.78079 0)
(85.326317 -109.94894 4.6963992e-21)
(85.458529 -114.97093 6.8913194e-20)
(85.467406 -114.82675 -6.3660729e-20)
(85.480463 -114.64869 -5.8717562e-20)
(85.497041 -114.38236 5.4072954e-20)
(85.515783 -114.06516 7.6065947e-25)
(85.538552 -113.61324 -4.5989563e-20)
(85.563872 -113.09489 8.4890211e-20)
(85.587884 -112.56091 -7.8487682e-20)
(85.613221 -112.00022 -3.1895212e-23)
(85.638529 -111.40409 3.3535977e-20)
(85.658274 -110.92825 3.1001e-20)
(85.675051 -110.48117 2.0298045e-23)
(85.693787 -109.97817 2.6900449e-23)
(85.723406 -109.20221 -4.8738847e-20)
(85.760948 -108.24483 -3.4540605e-23)
(85.803777 -107.15502 -2.8565298e-23)
(85.827762 -106.509 -1.5013812e-23)
(85.835976 -106.20949 1.7577932e-20)
(85.832189 -106.15239 -1.9757495e-24)
(85.795834 -106.59329 0)
(85.775968 -107.08118 -1.6729147e-24)
(85.735418 -107.60151 -1.2592764e-20)
(85.710467 -108.07033 1.1605198e-20)
(85.660758 -108.76349 0)
(85.626865 -109.51988 0)
(85.54511 -110.83941 -1.1571466e-27)
(85.469011 -112.53781 0)
(85.385264 -113.98142 0)
(85.353463 -114.57807 7.075312e-21)
(85.367307 -113.72355 -1.300491e-20)
(85.480431 -111.27992 5.9876022e-21)
(85.511806 -110.09912 -5.546994e-21)
(85.531387 -109.59238 5.1139836e-21)
(85.49651 -109.75497 0)
(85.421263 -111.47717 8.4594292e-24)
(85.582365 -114.64458 5.7007441e-25)
(85.585598 -114.58827 0)
(85.592657 -114.46467 -3.1864371e-20)
(85.602634 -114.32822 5.8777751e-20)
(85.616554 -114.10906 -2.7090324e-20)
(85.63146 -113.86593 2.499933e-20)
(85.651402 -113.4772 -2.3047632e-20)
(85.67433 -113.00612 2.1295595e-20)
(85.697515 -112.49323 -1.9668795e-20)
(85.720001 -111.98473 0)
(85.745245 -111.38305 0)
(85.767289 -110.84868 -9.4777197e-25)
(85.789203 -110.28163 0)
(85.812883 -109.67616 -1.3235185e-20)
(85.845139 -108.84419 1.2204675e-20)
(85.882408 -107.9191 -1.1281383e-20)
(85.921421 -106.93294 1.0389576e-20)
(85.943065 -106.37266 2.3376419e-24)
(85.951096 -106.10693 8.8070885e-21)
(85.949274 -106.04783 -8.1119913e-21)
(85.920902 -106.38915 1.8237709e-24)
(85.893307 -106.90262 -6.8636706e-21)
(85.856022 -107.37726 1.2634764e-20)
(85.835829 -107.89666 -5.817354e-21)
(85.791135 -108.53107 0)
(85.755643 -109.31641 -2.4128116e-24)
(85.680882 -110.59032 -1.4643296e-27)
(85.603043 -112.36278 -4.188841e-21)
(85.524014 -113.7761 3.8594779e-21)
(85.494394 -114.37358 0)
(85.511779 -113.56036 0)
(85.623214 -111.11388 -5.8725588e-24)
(85.65982 -109.92989 5.4296783e-24)
(85.68131 -109.41628 -1.4857202e-27)
(85.657139 -109.56851 0)
(85.581878 -111.27935 2.160309e-21)
(85.535153 -112.06914 -1.9999674e-21)
(85.665042 -114.3791 -4.0333892e-20)
(85.667429 -114.31589 3.7482228e-20)
(85.669627 -114.2608 3.4599622e-20)
(85.674287 -114.13709 -6.3893891e-20)
(85.680077 -114.00024 -7.7489967e-24)
(85.689313 -113.79113 2.717155e-20)
(85.700521 -113.561 1.5299122e-24)
(85.717432 -113.20004 -7.0553486e-25)
(85.738192 -112.76096 0)
(85.760277 -112.27972 6.0207708e-25)
(85.782854 -111.78985 -1.8238688e-20)
(85.808533 -111.20446 1.6841619e-20)
(85.832438 -110.66222 1.5569662e-20)
(85.85752 -110.06856 -1.4361982e-20)
(85.884734 -109.42503 -1.3272492e-20)
(85.919316 -108.59026 1.2238546e-20)
(85.956748 -107.68362 1.1309604e-20)
(85.994488 -106.74838 9.4941023e-24)
(86.016016 -106.18519 -1.9197571e-20)
(86.024597 -105.91626 8.83021e-21)
(86.024056 -105.85297 1.985777e-24)
(86.000629 -106.19393 -7.4846849e-21)
(85.978136 -106.73505 5.4159516e-24)
(85.941738 -107.2405 6.3318932e-21)
(85.920041 -107.71778 0)
(85.881424 -108.33108 5.3682644e-21)
(85.848442 -109.08197 -4.956131e-21)
(85.778101 -110.33887 4.4591082e-24)
(85.701203 -112.1015 4.2035192e-21)
(85.625531 -113.53016 -7.7314012e-21)
(85.596999 -114.13197 3.5477618e-21)
(85.617093 -113.34903 0)
(85.723918 -110.91332 5.8855043e-24)
(85.76205 -109.73846 -1.0885653e-23)
(85.783253 -109.22724 1.0051897e-23)
(85.766547 -109.35806 2.3748827e-21)
(85.69567 -111.04946 -2.187061e-21)
(85.655446 -111.83154 0)
(85.644179 -112.09232 0)
(85.74855 -114.29997 4.3312159e-20)
(85.746644 -114.33745 -3.0785387e-25)
(85.746777 -114.31183 5.7368659e-25)
(85.748292 -114.25275 5.3065252e-25)
(85.749264 -114.15093 -3.214992e-20)
(85.750684 -113.9986 2.9636118e-20)
(85.75239 -113.78965 -4.1629651e-25)
(85.759467 -113.47985 1.8644101e-28)
(85.772402 -113.04671 2.3146139e-20)
(85.791573 -112.51712 -2.13445e-20)
(85.810241 -112.0111 -1.9752445e-20)
(85.834078 -111.42266 1.8253961e-20)
(85.858131 -110.82501 0)
(85.880231 -110.2994 9.5246489e-25)
(85.900242 -109.81866 -1.441848e-20)
(85.92617 -109.22881 1.3297437e-20)
(85.961159 -108.41719 0)
(86.005164 -107.40645 1.1348162e-20)
(86.049134 -106.35958 -1.0449297e-20)
(86.073514 -105.76219 0)
(86.082423 -105.50598 8.8590507e-21)
(86.080965 -105.475 -1.6314017e-20)
(86.053095 -105.95949 7.5079581e-21)
(86.031563 -106.50137 0)
(86.001044 -107.15471 -6.3401987e-21)
(85.985365 -107.51336 4.2991746e-24)
(85.950755 -108.16198 5.3851432e-21)
(85.925691 -108.75932 4.9607565e-21)
(85.859131 -110.10522 -4.5838319e-21)
(85.786578 -111.80803 4.206807e-21)
(85.712655 -113.37126 -7.7564582e-21)
(85.68393 -114.00494 3.5673738e-21)
(85.71267 -113.14678 0)
(85.820561 -110.63643 -5.9015296e-24)
(85.864294 -109.45009 2.8003858e-21)
(85.884635 -108.96015 -2.5844033e-21)
(85.868626 -109.21698 -9.2729166e-24)
(85.80152 -110.83927 8.520811e-24)
(85.767002 -111.59702 0)
(85.758039 -111.83852 -7.2333194e-24)
(85.797535 -111.02313 -1.3372984e-27)
(78.626708 -101.53901 -7.7406905e-25)
(85.912205 -113.24849 4.6886841e-20)
(85.87464 -114.04264 -4.3326572e-20)
(85.872546 -114.0817 4.0407166e-20)
(85.87197 -114.06248 -3.7707606e-20)
(85.873242 -114.00124 -5.3276068e-25)
(85.873365 -113.89347 3.2311809e-20)
(85.874257 -113.7129 -2.9780137e-20)
(85.874037 -113.47182 -2.7399247e-20)
(85.878924 -113.12603 2.5183061e-20)
(85.888542 -112.67958 0)
(85.904668 -112.1484 0)
(85.919861 -111.65412 -1.9794258e-20)
(85.94242 -111.04372 -1.5820901e-23)
(85.964239 -110.44646 -1.3908897e-23)
(85.983191 -109.96342 -1.1417954e-23)
(85.99783 -109.56053 -1.0730226e-23)
(86.01873 -109.05616 1.3327091e-20)
(86.048544 -108.31217 1.2319103e-20)
(86.09141 -107.31013 -1.1356801e-20)
(86.137005 -106.2157 0)
(86.166211 -105.55706 0)
(86.178672 -105.27418 -8.8806818e-21)
(86.181184 -105.23949 8.1780717e-21)
(86.161 -105.76766 0)
(86.136 -106.29885 0)
(86.106977 -106.92182 6.3574944e-21)
(86.09174 -107.2567 -5.8590443e-21)
(86.063618 -107.93195 -5.3971893e-21)
(86.035795 -108.55301 1.2172673e-23)
(85.980449 -109.88546 4.5954067e-21)
(85.909058 -111.53356 0)
(85.84289 -113.07588 7.5864512e-24)
(85.813786 -113.70078 -6.9695537e-24)
(85.839241 -112.90318 -3.2954234e-21)
(85.946485 -110.42971 3.0301709e-21)
(85.991858 -109.25901 -5.4710825e-24)
(86.01351 -108.76897 0)
(86.001546 -108.97906 2.3777981e-21)
(85.9314 -110.58945 -2.1898974e-21)
(85.896652 -111.3424 -2.014315e-21)
(85.885727 -111.58887 1.8633504e-21)
(85.921758 -110.77078 1.7194353e-21)
(85.939515 -110.43403 -1.5794846e-21)
(85.947236 -110.39509 1.4540333e-21)
(78.706326 -101.01996 5.1156857e-20)
(86.067198 -112.77333 4.727121e-20)
(86.035789 -113.56454 -4.3631165e-20)
(86.034079 -113.59657 3.0990105e-25)
(86.03448 -113.55854 0)
(86.035174 -113.51125 0)
(86.034946 -113.41358 0)
(86.033882 -113.27648 0)
(86.032442 -113.06261 0)
(86.034077 -112.78762 7.709647e-25)
(86.041028 -112.39396 7.1064935e-25)
(86.054723 -111.90368 6.5584379e-25)
(86.069578 -111.40124 -1.9869867e-20)
(86.088365 -110.86181 1.8358073e-20)
(86.108874 -110.28105 0)
(86.128167 -109.77478 -1.5690075e-20)
(86.143958 -109.33701 1.4474483e-20)
(86.164435 -108.82209 0)
(86.194034 -108.06682 1.5054702e-24)
(86.232318 -107.13755 -1.1395709e-20)
(86.272405 -106.15352 1.0492986e-20)
(86.296826 -105.5878 0)
(86.308183 -105.32779 2.1729438e-24)
(86.311884 -105.26941 2.000866e-24)
(86.304205 -105.52332 0)
(86.283271 -106.01947 0)
(86.257312 -106.56459 6.3802219e-21)
(86.23508 -107.06104 -5.8778543e-21)
(86.209977 -107.65291 2.6431969e-24)
(86.177379 -108.46397 4.9848495e-21)
(86.128627 -109.6623 -1.0258709e-23)
(86.056686 -111.37224 -4.2386187e-21)
(85.998024 -112.75107 3.888098e-21)
(85.972437 -113.3359 -7.1576282e-21)
(85.995963 -112.62551 3.2962258e-21)
(86.094808 -110.2694 0)
(86.138146 -109.13397 -7.4803037e-28)
(86.158613 -108.63544 2.5918e-21)
(86.149455 -108.71247 -2.3877462e-21)
(86.079573 -110.34073 2.200635e-21)
(86.042598 -111.10427 -2.0211468e-21)
(86.029202 -111.37477 0)
(86.057882 -110.54574 -1.3413689e-23)
(86.07358 -110.19356 1.2377887e-23)
(86.0769 -110.15191 1.4580079e-21)
(86.08063 -110.40024 -2.6886761e-21)
(86.095375 -110.59209 1.2421571e-21)
(86.042323 -112.04721 4.748929e-27)
(85.97158 -113.73354 0)
(78.852666 -100.91387 -7.8241651e-25)
(86.233206 -112.66218 0)
(86.202489 -113.45512 -4.3721415e-20)
(86.201188 -113.48846 8.1400039e-20)
(86.202746 -113.44199 -3.7899244e-20)
(86.204079 -113.38778 0)
(86.205884 -113.27155 0)
(86.20714 -113.11161 0)
(86.209031 -112.88042 2.7498509e-20)
(86.214 -112.57951 -5.0661912e-20)
(86.224446 -112.15265 -1.7967224e-23)
(86.239629 -111.64837 2.1544227e-20)
(86.255365 -111.14501 -1.9935232e-20)
(86.274847 -110.58483 1.8419801e-20)
(86.295394 -110.00616 -1.7040835e-20)
(86.312625 -109.53302 1.5729344e-20)
(86.328148 -109.10511 1.4524862e-20)
(86.347145 -108.59918 1.2448605e-23)
(86.376071 -107.8526 -1.2357507e-20)
(86.412332 -106.92088 -1.1422291e-20)
(86.452222 -105.90109 1.0518704e-20)
(86.474669 -105.31429 0)
(86.484111 -105.04881 8.9172041e-21)
(86.484938 -105.00031 -8.2189161e-21)
(86.469435 -105.37879 0)
(86.458003 -105.8474 -6.9540313e-21)
(86.431393 -106.34674 6.4021186e-21)
(86.408367 -106.80225 0)
(86.378805 -107.4387 5.4253478e-21)
(86.350902 -108.20241 -5.0058415e-21)
(86.29773 -109.45646 4.6039594e-21)
(86.231248 -111.12072 -8.50111e-21)
(86.169815 -112.53692 7.8115699e-21)
(86.145852 -113.12738 -7.1802754e-21)
(86.170623 -112.39998 -8.7711921e-24)
(86.265121 -110.0236 3.0417905e-21)
(86.305109 -108.87882 2.8223393e-21)
(86.322349 -108.37585 -2.5937035e-21)
(86.303988 -108.45598 9.3494587e-24)
(86.236659 -110.11462 -2.1978822e-21)
(86.194014 -110.88604 2.0265037e-21)
(86.17932 -111.15011 1.8600157e-21)
(86.20051 -110.29936 -1.7065913e-21)
(86.213561 -109.94654 1.5759014e-21)
(86.212174 -109.90534 3.9576031e-26)
(86.211204 -110.1565 -1.3220119e-21)
(86.231575 -110.35861 -9.6525347e-24)
(86.191039 -111.78475 1.12022e-21)
(86.132662 -113.48 -2.0916767e-21)
(85.997451 -116.51384 -2.5477372e-23)
(85.891543 -119.35418 8.810753e-22)
(78.996857 -101.02234 1.6845832e-29)
(86.38438 -112.76955 3.6243262e-25)
(86.36014 -113.54573 3.3428905e-25)
(86.359179 -113.56568 -4.0783047e-20)
(86.362737 -113.45946 7.590609e-20)
(86.364996 -113.38638 -3.5079968e-20)
(86.370108 -113.2 4.9462697e-25)
(86.373778 -113.01825 -2.9893739e-20)
(86.380966 -112.70543 2.7530379e-20)
(86.388675 -112.38447 0)
(86.403277 -111.88878 2.3423313e-20)
(86.420034 -111.3608 -2.1608799e-20)
(86.43876 -110.79176 -1.9995837e-20)
(86.455683 -110.28785 1.8475232e-20)
(86.47579 -109.71873 -1.7087647e-20)
(86.489921 -109.31034 -1.0200122e-23)
(86.50406 -108.91561 1.4554063e-20)
(86.518461 -108.51322 1.3436686e-20)
(86.546686 -107.7721 -1.2391051e-20)
(86.582355 -106.83214 1.3966478e-24)
(86.62695 -105.65961 -1.2879536e-24)
(86.653244 -104.9431 -9.7197362e-21)
(86.664579 -104.60343 8.941562e-21)
(86.664402 -104.54092 2.0105157e-24)
(86.636942 -105.09747 0)
(86.62447 -105.55758 -6.9741458e-21)
(86.603119 -106.04163 6.4234906e-21)
(86.587298 -106.40083 -5.9056489e-21)
(86.548237 -107.16735 1.0886459e-20)
(86.519048 -107.94277 -5.0244513e-21)
(86.458926 -109.31465 4.5175905e-24)
(86.396529 -110.93862 0)
(86.331893 -112.39298 -3.8225942e-24)
(86.306359 -112.98256 0)
(86.324991 -112.20303 0)
(86.41782 -109.79047 3.0586178e-21)
(86.450942 -108.61838 -5.6390842e-21)
(86.466209 -108.09836 5.2065587e-21)
(86.43872 -108.15864 -2.4194805e-21)
(86.373879 -109.87249 -8.6142913e-24)
(86.32318 -110.66948 7.931225e-24)
(86.307574 -110.94811 -1.8649347e-21)
(86.32763 -110.07395 -2.0766993e-24)
(86.344034 -109.7074 -1.2940612e-23)
(86.346953 -109.66475 1.4656786e-21)
(86.360548 -109.91644 1.3253599e-21)
(86.369409 -110.12179 -1.239337e-21)
(86.346588 -111.56638 1.159058e-21)
(86.293114 -113.23384 -1.0341426e-21)
(86.170576 -116.26332 -4.2448401e-27)
(86.044084 -119.10299 8.798726e-22)
(85.978277 -120.70346 -8.3056433e-22)
(79.128854 -100.83079 3.9367082e-25)
(86.543836 -112.57844 -4.7651899e-20)
(86.520262 -113.35694 -2.4878392e-24)
(86.519069 -113.37802 -3.9206108e-24)
(86.522127 -113.27905 3.8052457e-20)
(86.5249 -113.20974 0)
(86.530771 -113.03528 -9.9147261e-25)
(86.536659 -112.86448 0)
(86.545839 -112.56946 0)
(86.5557 -112.26218 0)
(86.571636 -111.7774 0)
(86.589604 -111.25778 -6.6146251e-25)
(86.608738 -110.69883 -6.1148709e-25)
(86.626375 -110.19108 1.1307208e-24)
(86.647044 -109.60821 -1.7129947e-20)
(86.662206 -109.17231 3.1628588e-20)
(86.677324 -108.73165 -1.4591296e-20)
(86.692993 -108.27854 0)
(86.720254 -107.50607 0)
(86.754377 -106.55395 0)
(86.795609 -105.39567 0)
(86.820422 -104.68371 6.2917548e-28)
(86.830877 -104.34388 0)
(86.830482 -104.27606 -8.25558e-21)
(86.801936 -104.80361 1.5212829e-20)
(86.784124 -105.31085 -1.9357376e-24)
(86.762803 -105.78227 -6.4377232e-21)
(86.745675 -106.18486 2.8929438e-24)
(86.707507 -106.93259 5.4544481e-21)
(86.673888 -107.74673 -5.0329084e-21)
(86.61308 -109.11232 4.6327434e-21)
(86.54782 -110.79436 -8.5380941e-21)
(86.483669 -112.22697 3.9341863e-21)
(86.458061 -112.81342 3.5227233e-24)
(86.475717 -111.97607 -6.485779e-24)
(86.566943 -109.5531 5.9842573e-24)
(86.595157 -108.37601 -2.8322504e-21)
(86.609673 -107.86379 2.6132066e-21)
(86.577869 -107.98728 9.3983354e-24)
(86.514578 -109.66745 -2.2097362e-21)
(86.464878 -110.45172 2.0215871e-21)
(86.448858 -110.72056 0)
(86.466795 -109.84605 0)
(86.484887 -109.47732 1.2477837e-23)
(86.489445 -109.42832 1.4697232e-21)
(86.5062 -109.66688 -1.3291868e-21)
(86.523072 -109.90167 9.7080446e-24)
(86.492478 -111.33187 -1.7901631e-23)
(86.431011 -112.99916 -1.6433851e-23)
(86.315263 -116.00452 1.5057613e-23)
(86.196378 -118.8679 -8.8233054e-22)
(86.130891 -120.45607 8.0771122e-22)
(86.10165 -121.04176 -2.302316e-23)
(86.132962 -119.64082 -2.0931363e-23)
(86.392854 -112.75416 -6.1270823e-22)
(79.284709 -100.52734 0)
(86.718073 -112.24632 3.6396985e-25)
(86.690893 -113.03654 -4.4028701e-20)
(86.68939 -113.06691 4.0991274e-20)
(86.690486 -113.01647 0)
(86.692632 -112.96482 0)
(86.696789 -112.85084 4.9753733e-25)
(86.70293 -112.7091 0)
(86.711659 -112.47713 -2.7698708e-20)
(86.722002 -112.19795 5.1042092e-20)
(86.736674 -111.77631 -4.7054687e-20)
(86.753907 -111.28383 2.1709592e-20)
(86.77164 -110.76163 2.0084991e-20)
(86.790874 -110.2081 -1.8557066e-20)
(86.811877 -109.58574 -1.7166999e-20)
(86.829845 -109.05686 1.5847822e-20)
(86.846562 -108.54161 1.4641607e-20)
(86.866204 -107.95939 -1.3499146e-20)
(86.894454 -107.11873 -1.2477373e-20)
(86.929555 -106.11744 2.3017874e-20)
(86.965619 -105.04282 -1.0605162e-20)
(86.986283 -104.41824 -9.780224e-21)
(86.993163 -104.13024 8.9931821e-21)
(86.990861 -104.07112 8.2791677e-21)
(86.96225 -104.45956 -7.6292024e-21)
(86.935859 -105.0695 -3.4238052e-24)
(86.912337 -105.56275 6.445906e-21)
(86.897964 -106.02679 -5.9411609e-21)
(86.859584 -106.67519 2.672202e-24)
(86.826413 -107.50506 -2.4632318e-24)
(86.762921 -108.82756 0)
(86.696114 -110.63092 4.2733835e-21)
(86.63005 -112.06551 -7.8761804e-21)
(86.604707 -112.66806 3.6147763e-21)
(86.621788 -111.79377 6.5011934e-24)
(86.713805 -109.32397 -1.19987e-23)
(86.741967 -108.13267 -1.1091824e-23)
(86.756854 -107.62579 2.6206732e-21)
(86.726729 -107.81388 -2.4141224e-21)
(86.666222 -109.46561 2.2158154e-21)
(86.62079 -110.23678 -2.0432895e-21)
(86.60587 -110.49401 0)
(86.623533 -109.62771 -1.7361363e-21)
(86.639852 -109.26021 1.6011684e-21)
(86.642406 -109.2058 0)
(86.650486 -109.42712 -1.0578039e-23)
(86.666856 -109.68155 1.2349962e-21)
(86.633927 -111.12163 1.5263611e-23)
(86.572612 -112.78222 -1.0563857e-21)
(86.455264 -115.76281 0)
(86.344403 -118.63284 8.8482104e-22)
(86.278159 -120.21249 -7.8473062e-22)
(86.249248 -120.79592 2.3082485e-23)
(86.278714 -119.38671 -6.9732897e-22)
(86.532201 -112.50787 1.4179423e-23)
(86.629851 -109.28978 1.1905044e-21)
(86.69634 -107.05185 -5.2615874e-22)
(79.412505 -100.3105 -3.9497541e-25)
(86.862413 -112.00594 3.6498177e-25)
(86.83594 -112.79646 -4.4142854e-20)
(86.834322 -112.82869 -1.9792226e-24)
(86.835141 -112.7826 3.829539e-20)
(86.836808 -112.73422 0)
(86.83966 -112.62488 0)
(86.844748 -112.48038 -3.0183688e-20)
(86.851705 -112.26374 2.7780323e-20)
(86.861877 -111.99385 -1.5620761e-24)
(86.875722 -111.59656 7.1987124e-25)
(86.894234 -111.1036 6.643479e-25)
(86.912133 -110.58723 2.0124887e-20)
(86.932291 -110.03642 -1.8593735e-20)
(86.953628 -109.41476 -2.0993741e-24)
(86.973725 -108.84483 1.5896757e-20)
(86.990834 -108.30214 -1.4665108e-20)
(87.011415 -107.66907 -1.3551216e-20)
(87.038755 -106.80364 1.2497165e-20)
(87.071624 -105.79633 0)
(87.10501 -104.76141 -1.2996199e-24)
(87.124595 -104.14971 -9.8080125e-21)
(87.132142 -103.86671 9.0207358e-21)
(87.132019 -103.80312 0)
(87.114327 -104.12328 0)
(87.092591 -104.74674 -7.0325937e-21)
(87.054428 -105.34722 6.4709561e-21)
(87.032948 -105.83134 5.6818131e-28)
(87.001974 -106.4352 -5.4885584e-21)
(86.972922 -107.23713 5.0624773e-21)
(86.911423 -108.56334 -4.5562166e-24)
(86.841584 -110.39801 -4.1955354e-24)
(86.77696 -111.84067 3.8557116e-24)
(86.750787 -112.4463 0)
(86.765466 -111.53835 -6.5217272e-24)
(86.858828 -109.06456 1.2032329e-23)
(86.887255 -107.87676 1.112314e-23)
(86.904171 -107.38198 2.6230402e-21)
(86.87982 -107.63277 -2.4210352e-21)
(86.821574 -109.2449 -8.6881044e-24)
(86.782681 -109.99678 7.9965319e-24)
(86.770434 -110.23732 1.8885606e-21)
(86.793108 -109.37847 -1.7390327e-21)
(86.808396 -109.01646 0)
(86.811857 -108.95848 -1.1549013e-23)
(86.817696 -109.16333 1.0611622e-23)
(86.824897 -109.43563 1.248175e-21)
(86.791723 -110.87729 -2.3219234e-21)
(86.727891 -112.54172 2.1151506e-21)
(86.614347 -115.50372 -9.7146228e-22)
(86.499138 -118.38187 8.8737755e-22)
(86.436765 -119.95517 -8.6306446e-22)
(86.406972 -120.53832 0)
(86.432826 -119.13145 2.1056473e-23)
(86.680025 -112.25873 -1.923989e-23)
(86.771999 -109.04073 0)
(86.835878 -106.81703 -5.6806333e-22)
(79.471806 -99.820543 1.2312451e-25)
(86.98103 -111.53843 -4.8131656e-20)
(86.960004 -112.32462 -3.3858406e-25)
(86.958575 -112.3508 0)
(86.95938 -112.2872 3.8396323e-20)
(86.960524 -112.22986 -3.5465789e-20)
(86.961448 -112.10918 -3.2768065e-20)
(86.961882 -111.98629 3.0224752e-20)
(86.963078 -111.78519 -8.4995186e-25)
(86.96697 -111.55325 -3.5492487e-28)
(86.975602 -111.18793 -1.4454843e-24)
(86.989279 -110.74033 -2.186552e-20)
(87.003924 -110.25736 -1.347102e-23)
(87.018686 -109.81779 1.8657249e-20)
(87.037558 -109.24586 1.0526998e-24)
(87.058964 -108.63737 -9.7244533e-25)
(87.080468 -107.99239 -8.9778794e-25)
(87.104867 -107.29266 0)
(87.133993 -106.42238 -1.2546263e-20)
(87.164565 -105.54031 -1.3450809e-23)
(87.193671 -104.66072 1.0666185e-20)
(87.212049 -104.12198 9.8310787e-21)
(87.219688 -103.85447 -9.0416347e-21)
(87.220916 -103.77578 2.0331436e-24)
(87.208655 -103.96707 0)
(87.188343 -104.50496 -7.0454474e-21)
(87.157864 -105.12167 6.4901867e-21)
(87.135122 -105.68784 -2.9159312e-24)