/*--------------------------------*- C++ -*----------------------------------*\
| =========                 |                                                 |
| \\      /  F ield         | OpenFOAM: The Open Source CFD Toolbox           |
|  \\    /   O peration     | Version:  2506                                  |
|   \\  /    A nd           | Website:  www.openfoam.com                      |
|    \\/     M anipulation  |                                                 |
\*---------------------------------------------------------------------------*/
FoamFile
{
    version     2.0;
    format      ascii;
    arch        "LSB;label=32;scalar=64";
    class       volScalarField;
    location    "2.9";
    object      Co;
}
// * * * * * * * * * * * * * * * * * * * * * * * * * * * * * * * * * * * * * //

dimensions      [0 0 0 0 0 0 0];

internalField   nonuniform List<scalar> 
1375
(
0.15669508
0.15467312
0.14984814
0.14002735
0.14862184
0.14793059
0.14261208
0.1347518
0.13093665
0.12328085
0.1199654
0.11383562
0.1102167
0.10582358
0.10113124
0.096801554
0.14113293
0.14286912
0.13583887
0.12988115
0.12643688
0.11903427
0.11568147
0.11099609
0.10711642
0.10244699
0.098854499
0.095308669
0.091193757
0.087196852
0.083204096
0.079307906
0.075642722
0.072114068
0.06861242
0.065174797
0.061850082
0.05863258
0.1331371
0.13662017
0.12971059
0.12519705
0.12109209
0.11540816
0.11259246
0.10825805
0.10489909
0.10064963
0.09667437
0.092853918
0.089169435
0.085644351
0.082179412
0.078744387
0.075277373
0.071768362
0.0683978
0.065116147
0.061901957
0.058773093
0.055745968
0.052838044
0.050022668
0.047309516
0.044691281
0.042171366
0.039739205
0.037425601
0.035216696
0.033103683
0.031091945
0.029181736
0.12728761
0.13103669
0.12431078
0.120889
0.11676092
0.11195724
0.10962563
0.10514069
0.10209856
0.098049988
0.094654297
0.091022744
0.087415445
0.084063551
0.080837292
0.077513126
0.074311098
0.071153201
0.06800657
0.064916305
0.06186914
0.058903214
0.056001508
0.053170671
0.050429171
0.047787421
0.04523385
0.042767763
0.040391603
0.038110346
0.03591606
0.033816895
0.031816771
0.029909647
0.02808838
0.026354021
0.024708291
0.023151888
0.021677642
0.020281956
0.018962396
0.017717591
0.016548041
0.015447593
0.01441149
0.013436978
0.012525016
0.011667014
0.010870034
0.12147512
0.1259875
0.11959218
0.11670973
0.11282676
0.10863579
0.1058094
0.10149818
0.0986849
0.095000219
0.092235643
0.089077747
0.086043316
0.082888587
0.079657862
0.076396727
0.073399786
0.070380465
0.06742035
0.064521514
0.061654787
0.058850663
0.056114072
0.053419409
0.050777522
0.048202265
0.045711362
0.043312378
0.040994041
0.038751888
0.036591664
0.034516014
0.032528157
0.030626986
0.028806446
0.027068845
0.025416887
0.023848385
0.022358676
0.020944153
0.019603299
0.018337913
0.017146834
0.016020459
0.014959751
0.013960186
0.013023292
0.012140271
0.011319403
0.11495866
0.11947093
0.11379364
0.11213532
0.10835331
0.10500916
0.10183594
0.098656319
0.096015771
0.092558098
0.089794725
0.086505481
0.083867107
0.081058787
0.078255993
0.075479459
0.072639801
0.069708428
0.066886543
0.064121825
0.061405613
0.058703709
0.056061454
0.053479722
0.050970452
0.048516494
0.046112875
0.043773015
0.041508881
0.039319717
0.037203229
0.035163961
0.033198992
0.031310685
0.029497142
0.027764357
0.026113185
0.024537259
0.023037271
0.02160896
0.020251346
0.01896867
0.017757421
0.016607151
0.015523275
0.014499609
0.013538445
0.01263117
0.011787068
0.10976696
0.11398834
0.10878053
0.10806043
0.10470857
0.10248277
0.09890707
0.095474306
0.092926256
0.090083384
0.087537848
0.084386283
0.081859879
0.079049906
0.076502889
0.073843357
0.071263535
0.068705819
0.06614183
0.063579791
0.060994569
0.058461454
0.055970814
0.053503659
0.051090798
0.048727602
0.046420882
0.044171773
0.041978286
0.039842231
0.037769495
0.035770837
0.033835241
0.031968853
0.030172972
0.028452625
0.026804004
0.025223185
0.023717314
0.022277982
0.020906481
0.019608689
0.018379164
0.017207973
0.016102577
0.015056162
0.014071637
0.013141015
0.012273979
0.10546183
0.11172636
0.1051914
0.1042993
0.10031569
0.098499589
0.095725978
0.093040009
0.090506352
0.087588705
0.085167704
0.082592167
0.080183038
0.07758367
0.075195076
0.072759868
0.070248006
0.067622098
0.06523371
0.062886125
0.060525855
0.058169887
0.055823607
0.053497487
0.051192721
0.048923014
0.046711709
0.044543063
0.042422186
0.040351525
0.038332409
0.036374079
0.034468323
0.032626678
0.030850843
0.029142887
0.027499261
0.025919369
0.024409097
0.022960294
0.021578025
0.020266133
0.019017951
0.017826404
0.016700442
0.015632417
0.01462492
0.013670976
0.012780655
0.10147585
0.10699701
0.10120944
0.10037639
0.096639275
0.09531772
0.092544123
0.090289826
0.088073166
0.085664571
0.08335907
0.080891639
0.07848918
0.075962867
0.073668953
0.071390709
0.069003369
0.066824498
0.064703852
0.06237776
0.060118743
0.057844011
0.055614499
0.053416336
0.051231141
0.049084902
0.046964366
0.044866121
0.042824993
0.040819645
0.038856244
0.036945016
0.035079845
0.033269833
0.031516664
0.029824253
0.028191197
0.026616433
0.025104502
0.023650572
0.022260588
0.020935805
0.019670944
0.018461694
0.017317117
0.016227951
0.015197674
0.014220896
0.013307561
0.097697021
0.1040126
0.097097166
0.097075801
0.09357254
0.092528565
0.089925392
0.087895102
0.085531292
0.083420879
0.081215699
0.07900446
0.077021701
0.074728139
0.072492742
0.070300725
0.06812763
0.06598044
0.063841123
0.061706612
0.059596074
0.057489669
0.055399215
0.053307773
0.051224409
0.049181702
0.04715549
0.045161288
0.043199744
0.041253273
0.039349347
0.037489718
0.035668879
0.033895413
0.032170298
0.030498206
0.028879907
0.027312656
0.025801856
0.024346934
0.022951581
0.021615944
0.020337677
0.019113373
0.017951047
0.016841982
0.015790534
0.014791806
0.013855617
0.093477003
0.10031408
0.092834295
0.093279215
0.090352623
0.089679875
0.087317527
0.085701917
0.083506177
0.081561299
0.079482197
0.077374923
0.075383584
0.073255425
0.071221496
0.069129759
0.067153604
0.065188735
0.063161842
0.061175171
0.059176605
0.05717699
0.055187676
0.053204241
0.051237149
0.049289163
0.04735033
0.045439867
0.043548507
0.041677817
0.03983894
0.038029396
0.036253877
0.034517171
0.032820813
0.031172013
0.029569868
0.028013361
0.026508985
0.02505607
0.023654925
0.022309258
0.021020064
0.019782436
0.018603218
0.017475537
0.016404143
0.015384364
0.014425706
0.089707689
0.09441578
0.089494777
0.089573639
0.086960978
0.086570997
0.084337002
0.082872415
0.080792362
0.079165273
0.077322887
0.07544461
0.073615029
0.071655974
0.06983053
0.067956348
0.066083857
0.064214536
0.062340703
0.060475901
0.058584768
0.056718251
0.054858097
0.052996992
0.051149737
0.049299665
0.047456201
0.045637003
0.043826155
0.042033572
0.040261612
0.038507548
0.03678522
0.035093383
0.033433153
0.031814616
0.030235299
0.028695289
0.02720214
0.025756369
0.024356571
0.023007296
0.021710612
0.020463057
0.019270185
0.018125936
0.017036095
0.015997141
0.015018089
0.083361188
0.089764191
0.08572135
0.086460806
0.083509465
0.083104775
0.080951003
0.079794541
0.0778809
0.076531501
0.074929788
0.073279607
0.07156858
0.069909909
0.068225668
0.066460282
0.06478134
0.063074221
0.061314508
0.059589991
0.057853762
0.056117649
0.054382561
0.052643142
0.050917671
0.049178779
0.047438379
0.045713115
0.043992485
0.042286303
0.040590623
0.038903749
0.037244317
0.035605483
0.033990383
0.032411149
0.03086289
0.029347404
0.027873709
0.026441651
0.025049729
0.023702995
0.02240436
0.021151451
0.019949358
0.018792846
0.017688027
0.080317801
0.086160659
0.082293565
0.082655518
0.080197352
0.080261244
0.078584549
0.077779213
0.075992606
0.074650326
0.073052537
0.071617306
0.0700399
0.068514796
0.066945385
0.065370579
0.063815208
0.062214427
0.060586742
0.058987998
0.057378831
0.055751464
0.054113506
0.052474301
0.050848956
0.049203627
0.047553552
0.045909477
0.044266214
0.042631781
0.041000022
0.039373107
0.037768123
0.036174202
0.034599828
0.033054865
0.031533166
0.030039481
0.028582534
0.027161178
0.025775513
0.024429951
0.023128277
0.021868895
0.020656697
0.019487288
0.076792846
0.083556923
0.080780369
0.080788972
0.078626914
0.078277018
0.076525027
0.075677283
0.074000269
0.072868592
0.071405751
0.070150079
0.068644967
0.067215668
0.065718014
0.064282084
0.062851363
0.061349662
0.059854106
0.058376609
0.05687169
0.055346625
0.053806536
0.052274576
0.05074572
0.049190399
0.047632991
0.046071675
0.044505543
0.042942968
0.041377454
0.03981493
0.038266537
0.036720542
0.035191186
0.033683595
0.032193175
0.030725993
0.029289156
0.027882206
0.026506664
0.02516582
0.023864524
0.022601544
0.021382047
0.072704242
0.078945095
0.076541048
0.077094846
0.075741824
0.075118897
0.073438444
0.072905013
0.071639989
0.070832124
0.069435381
0.068199713
0.06686708
0.065657654
0.06430686
0.062988887
0.061634446
0.060265698
0.05892214
0.057550011
0.056146544
0.054738087
0.053318787
0.051903354
0.050466551
0.049010415
0.047555694
0.046085313
0.044606462
0.043124623
0.041636829
0.040149206
0.038665536
0.037180064
0.035706579
0.034245051
0.032796597
0.031366072
0.029958413
0.028575003
0.027218142
0.025889907
0.024596316
0.023336213
0.069323616
0.07596837
0.074304378
0.074233972
0.072447333
0.072121828
0.070757067
0.070310598
0.069153952
0.068250975
0.066879141
0.065908544
0.064705379
0.063593509
0.062403703
0.061241551
0.059990638
0.058789243
0.057576017
0.056315247
0.055039147
0.053770118
0.05248656
0.051184074
0.04985436
0.048521312
0.04718263
0.045820282
0.044447388
0.043064609
0.041673158
0.040277056
0.038876065
0.037470867
0.036070793
0.034672781
0.033283802
0.031906381
0.030543888
0.029199345
0.027875443
0.026573457
0.025300046
0.067385678
0.071998646
0.071008106
0.070734464
0.069328786
0.069600039
0.068497909
0.068046015
0.066777525
0.066146548
0.065130561
0.064307175
0.063184628
0.062189132
0.061173238
0.060091708
0.058953221
0.057859409
0.05671631
0.055560223
0.054383994
0.053221241
0.052028827
0.050809048
0.049580274
0.048343126
0.047085895
0.045809787
0.044519125
0.043215083
0.041899466
0.040573535
0.039238938
0.037898056
0.036555554
0.035208803
0.033867324
0.032531943
0.031205492
0.029891535
0.028593387
0.027311626
0.065560074
0.073480822
0.070683758
0.070362095
0.068217391
0.067783665
0.066450962
0.06602213
0.064975597
0.064477526
0.063563047
0.06279158
0.061733717
0.060820443
0.059901098
0.058895696
0.057867388
0.056879948
0.055839674
0.054793495
0.053716928
0.052642906
0.051533663
0.050408671
0.049278934
0.048121529
0.046946029
0.045754784
0.044545435
0.043322848
0.042083358
0.040828969
0.039564046
0.038289061
0.037007165
0.03571703
0.034427046
0.033138031
0.03185263
0.030574015
0.029306641
0.062906038
0.069867756
0.065685125
0.065601403
0.06417538
0.064482098
0.06364698
0.063498345
0.062632481
0.062161777
0.061260808
0.060642042
0.059841442
0.059054597
0.0581766
0.057298027
0.056413809
0.055515371
0.054585608
0.053635553
0.052666763
0.05169677
0.050690735
0.049679864
0.048647288
0.047583594
0.046507611
0.045414116
0.044301432
0.04317525
0.042027183
0.040862502
0.039684211
0.038490939
0.037287188
0.036071484
0.034849868
0.033624226
0.032396607
0.031169961
0.060572324
0.067121201
0.063742884
0.064060592
0.062595357
0.062627382
0.061789176
0.061518397
0.060624518
0.060057743
0.059236988
0.058663994
0.057877366
0.057133725
0.05636149
0.055652654
0.054876055
0.05404892
0.053221737
0.05238043
0.051531999
0.050647094
0.049748946
0.048844577
0.047902202
0.046941577
0.045965085
0.044967742
0.043953682
0.042923898
0.041871221
0.040801198
0.039712231
0.038605698
0.037486181
0.03635114
0.035205383
0.03405077
0.032888759
0.056039524
0.063013463
0.059839758
0.06031069
0.059671249
0.05972448
0.059098647
0.058994907
0.058404946
0.058076687
0.057481596
0.056999978
0.056317366
0.055722251
0.05507123
0.054439223
0.053720473
0.052957794
0.052227257
0.051469369
0.050694405
0.049886314
0.049080407
0.0482583
0.047394727
0.046523255
0.045629157
0.044712798
0.043780378
0.042829044
0.041858184
0.04086917
0.039855622
0.038824576
0.03777803
0.036712882
0.035634454
0.034542584
0.054221741
0.060253113
0.058559772
0.059112364
0.058319986
0.058293774
0.05770671
0.057546313
0.056983719
0.056605297
0.05599765
0.055504862
0.054844399
0.054301161
0.053705814
0.053110686
0.052483811
0.051854902
0.051214513
0.050519787
0.049813556
0.049096413
0.048368646
0.047611389
0.046827451
0.046037555
0.045223051
0.044387999
0.043535645
0.042663606
0.041775713
0.040867675
0.039932051
0.038979851
0.038009011
0.037017962
0.036012124
0.050605867
0.056792086
0.054512721
0.055026906
0.054744323
0.054890025
0.054514235
0.054528345
0.054167595
0.054005427
0.05360523
0.053334012
0.052926029
0.052508469
0.051963987
0.051434816
0.050907202
0.050372041
0.049791691
0.049175695
0.048557708
0.047936225
0.047288575
0.046614527
0.045924748
0.045223034
0.04450084
0.043757192
0.04299478
0.042214048
0.041419399
0.040604331
0.039762283
0.038903786
0.038023525
0.03712284
0.048469038
0.0544579
0.053367482
0.053932519
0.053421407
0.05354741
0.053087059
0.053021154
0.052630205
0.052406708
0.05194669
0.051566928
0.051102408
0.05070808
0.050255564
0.049822227
0.049368415
0.048898025
0.048387145
0.047863732
0.047321547
0.046762523
0.046188557
0.045590911
0.044979947
0.044357783
0.043722997
0.04306689
0.042391587
0.041700865
0.040996299
0.04027127
0.0395229
0.038758017
0.037969175
0.037160968
0.045111357
0.05100374
0.049826
0.050221814
0.049925312
0.050153631
0.049962865
0.050084108
0.049924806
0.049938408
0.049757366
0.049661983
0.049450979
0.049207143
0.048824782
0.048430952
0.048021041
0.047604284
0.047165508
0.046720802
0.046249961
0.045750583
0.045242094
0.044716793
0.044178332
0.043626848
0.043065005
0.042484194
0.041886505
0.041275026
0.040648478
0.040004066
0.039341208
0.038661027
0.037956215
0.043297912
0.04948381
0.049052674
0.049679083
0.049401285
0.049620568
0.04936918
0.049302351
0.048980286
0.048782765
0.048438027
0.048158834
0.047802857
0.04752044
0.047222402
0.046935166
0.046601557
0.046246044
0.045879953
0.045503029
0.045093623
0.04465297
0.044204231
0.043738484
0.04326321
0.04278153
0.042290393
0.04178371
0.041262164
0.040729949
0.040182128
0.039618203
0.039041797
0.038448616
0.039745656
0.045636814
0.045093164
0.045468294
0.045447898
0.045717097
0.045825632
0.046064492
0.046109336
0.046233207
0.046219065
0.046250835
0.046161231
0.046029464
0.045782092
0.045488962
0.045163699
0.044829335
0.044475608
0.044119969
0.043771556
0.043404987
0.043019768
0.042624178
0.042218093
0.041800302
0.041376947
0.04094316
0.040497762
0.040043126
0.039573912
0.03909297
0.038603954
0.037820914
0.04433248
0.044786455
0.045567367
0.045598066
0.045836635
0.045666908
0.045570405
0.045341518
0.045186408
0.044904104
0.044644358
0.044338426
0.044069427
0.043844934
0.043679419
0.043467913
0.043237317
0.042996158
0.042724858
0.042411187
0.042070129
0.041723463
0.041376981
0.0410287
0.040673386
0.040313259
0.039947767
0.039574856
0.039196444
0.038806102
0.033696702
0.039557327
0.039623574
0.040177907
0.040682233
0.041192787
0.041631211
0.042077763
0.042316484
0.042522106
0.042590796
0.042644089
0.042639366
0.042613012
0.042420777
0.042147289
0.041863438
0.041580821
0.041303304
0.041043012
0.040796422
0.040533279
0.040254453
0.039970653
0.039675
0.039375962
0.039080616
0.038780646
0.038476876
0.038170792
0.031628663
0.039946441
0.04141195
0.042285338
0.042237405
0.042358852
0.042146291
0.041968926
0.041744634
0.041579293
0.04135706
0.041136943
0.040816003
0.040503894
0.040325123
0.040240545
0.040081395
0.039874211
0.039646217
0.039399091
0.039144137
0.038885807
0.038632203
0.03839255
0.038156904
0.03790969
0.037666182
0.037429898
0.037194105
0.025351003
0.032996365
0.034244745
0.03562773
0.036376884
0.037079206
0.03755904
0.037901263
0.038041519
0.038110604
0.03809497
0.038074919
0.038071518
0.038010079
0.037786222
0.037484305
0.037261653
0.037097933
0.03695866
0.036787539
0.036582749
0.03637168
0.036153251
0.035939918
0.035745722
0.035561868
0.035381796
0.026617293
0.027914042
0.029205694
0.029847197
0.031120737
0.033527326
0.035127775
0.03546295
0.038457727
0.03064998
0.031709261
0.034182244
0.035974882
0.036543312
0.039609548
0.030868718
0.031834175
0.034373035
0.036386568
0.037193894
0.040132248
0.031051326
0.032043638
0.034354993
0.036537312
0.037577547
0.040476602
0.031170249
0.032330405
0.034399131
0.03664506
0.037913646
0.040696825
0.031259972
0.032504598
0.034467996
0.03667685
0.038152815
0.040772521
0.031372933
0.032659395
0.034555853
0.036681312
0.038343146
0.040820362
0.032759291
0.034598753
0.036647809
0.038416142
0.040761892
0.032855166
0.034621828
0.036635366
0.03845567
0.040696589
0.032941114
0.034612147
0.036606735
0.038428085
0.040582712
0.033020025
0.034629259
0.036575652
0.038406966
0.0404822
0.033031104
0.034674012
0.036516406
0.038360485
0.04040582
0.03296437
0.034650761
0.036474038
0.038314768
0.040407333
0.032947226
0.034576987
0.036394634
0.038212367
0.040288681
0.034523877
0.036312704
0.038121564
0.040065429
0.034480079
0.036224787
0.038002702
0.039890343
0.034451333
0.036135382
0.037903974
0.039775244
0.03605026
0.037809405
0.039713399
0.035950074
0.037687638
0.03958651
0.035840671
0.037573302
0.039397775
0.037478506
0.039224936
0.037339043
0.039056049
0.037180389
0.038884462
0.038718442
0.038546527
)
;

boundaryField
{
    Side
    {
        type            empty;
    }
    Inlet
    {
        type            zeroGradient;
    }
    Airfoil
    {
        type            zeroGradient;
    }
    Outlet
    {
        type            zeroGradient;
    }
    procBoundary1to0
    {
        type            processor;
        value           nonuniform List<scalar> 
53
(
0.16591733
0.16328175
0.15647385
0.14700606
0.1365762
0.1365762
0.12841354
0.12428547
0.11724819
0.11249553
0.10740586
0.10300212
0.098491955
0.092529567
0.092529567
0.088309482
0.084210548
0.080277122
0.076361008
0.0725435
0.068846483
0.065253658
0.06176925
0.058408168
0.055516209
0.055516209
0.05250617
0.04957847
0.046764465
0.044072987
0.041514212
0.039065043
0.03672546
0.034496997
0.032372948
0.030354226
0.028444742
0.0273653
0.0273653
0.025638982
0.024003296
0.02246265
0.021006314
0.01963063
0.018334619
0.017112585
0.015965199
0.014890445
0.013879887
0.012931121
0.012044039
0.011211161
0.010438238
)
;
    }
    procBoundary1to2
    {
        type            processor;
        value           nonuniform List<scalar> 
75
(
0.016631707
0.015633777
0.016631707
0.018366754
0.018366754
0.020202235
0.020202235
0.022115662
0.022115662
0.024054215
0.024054215
0.026052959
0.026052959
0.028050206
0.028050206
0.029949476
0.029949476
0.031722859
0.031722859
0.033439048
0.033439048
0.034988147
0.034988147
0.036206357
0.036206357
0.036336239
0.037233607
0.037233607
0.037831766
0.037831766
0.038099004
0.03840746
0.038099004
0.038005378
0.03840746
0.037858464
0.037858464
0.036957439
0.035208646
0.036957439
0.035044495
0.035208646
0.038364701
0.02564684
0.028479061
0.029205997
0.029525883
0.029774795
0.029894966
0.029947761
0.029984538
0.03141384
0.03141384
0.031446832
0.031463638
0.031473547
0.031452066
0.031414673
0.031377312
0.032931097
0.032931097
0.03288435
0.032832389
0.034393397
0.034393397
0.034303934
0.034214273
0.035741396
0.035741396
0.03563203
0.03552705
0.037031162
0.037031162
0.036885176
0.038364701
)
;
    }
    procBoundary1to8
    {
        type            processor;
        value           nonuniform List<scalar> 8(0.030467801 0.026805958 0.028333216 0.029838059 0.028369023 0.029838059 0.029794068 0.030467801);
    }
}


// ************************************************************************* //
