/*--------------------------------*- C++ -*----------------------------------*\
| =========                 |                                                 |
| \\      /  F ield         | OpenFOAM: The Open Source CFD Toolbox           |
|  \\    /   O peration     | Version:  2506                                  |
|   \\  /    A nd           | Website:  www.openfoam.com                      |
|    \\/     M anipulation  |                                                 |
\*---------------------------------------------------------------------------*/
FoamFile
{
    version     2.0;
    format      ascii;
    arch        "LSB;label=32;scalar=64";
    class       volScalarField;
    location    "0.015";
    object      rho;
}
// * * * * * * * * * * * * * * * * * * * * * * * * * * * * * * * * * * * * * //

dimensions      [1 -3 0 0 0 0 0];

internalField   nonuniform List<scalar> 
13761
(
0.68061205
0.68060969
0.68059953
0.6805788
0.68054406
0.68049195
0.68041833
0.68032115
0.68020133
0.68006622
0.67992653
0.67979072
0.67966213
0.67954125
0.67942671
0.67931679
0.67920938
0.67910264
0.67899487
0.6788847
0.67877073
0.67865188
0.67852709
0.6783962
0.67825917
0.67811646
0.67796889
0.67781791
0.67766546
0.67751416
0.67736717
0.67722815
0.67710103
0.67698975
0.67689784
0.67682834
0.67678356
0.67676504
0.67677391
0.67680885
0.67687048
0.67695807
0.67707093
0.67720915
0.67737328
0.67756356
0.67777898
0.67801713
0.67827248
0.67853076
0.67878128
0.67894688
0.6791736
0.67926607
0.67918095
0.67897601
0.67903982
0.67927873
0.67937197
0.67905418
0.6768684
0.67135796
0.66589372
0.66393166
0.66389237
0.66400412
0.66348863
0.66193203
0.65984746
0.65841022
0.6594388
0.66276972
0.66638422
0.6690163
0.67051579
0.67054748
0.66979858
0.66820478
0.66662405
0.66597246
0.66580523
0.66571884
0.6655176
0.66516881
0.66488787
0.66462207
0.66422574
0.66371631
0.66315012
0.66254923
0.66202357
0.66166026
0.6613754
0.66113201
0.66095558
0.66084232
0.66066576
0.6604261
0.66015744
0.65988316
0.65959231
0.65933663
0.65918447
0.65907356
0.65896983
0.6589618
0.65905621
0.65905678
0.65897164
0.65896559
0.65912837
0.65938804
0.65960768
0.65973359
0.65983745
0.6599544
0.66006943
0.66018329
0.66033973
0.66057968
0.66088619
0.66121542
0.6616144
0.66189652
0.66224891
0.66305152
0.66290887
0.66277064
0.66480434
0.66424282
0.66258414
0.66488663
0.66910594
0.66623009
0.66033111
0.65745842
0.65799962
0.66031874
0.68132201
0.68132116
0.68131832
0.68131336
0.68130595
0.68129568
0.68128208
0.68126463
0.68124265
0.68121544
0.68118236
0.68114322
0.68109845
0.68104931
0.68099743
0.6809443
0.68089096
0.68083808
0.68078595
0.68073475
0.68068441
0.68063507
0.68058655
0.68053746
0.680487
0.68043475
0.68038042
0.6803239
0.68026518
0.68020447
0.68014216
0.68007888
0.68001551
0.67995318
0.67989326
0.67983731
0.67978714
0.67974411
0.67970966
0.67968504
0.67967116
0.67966857
0.6796773
0.67969687
0.67972613
0.67976317
0.67980481
0.67984634
0.67988194
0.67990964
0.67994499
0.67993879
0.6799502
0.67989099
0.67976622
0.6796648
0.67982157
0.67997112
0.67981193
0.67798076
0.67272575
0.66672012
0.66412835
0.66401548
0.66451545
0.66435385
0.66313862
0.66124163
0.65956294
0.65910665
0.66126869
0.6650806
0.66825968
0.6702179
0.67101175
0.67067621
0.66976632
0.66800258
0.66651496
0.66597629
0.66584555
0.66576753
0.6655526
0.66520419
0.66493261
0.66465015
0.66423816
0.66371489
0.66315327
0.66255437
0.66205123
0.66170276
0.66142513
0.66118568
0.66101237
0.66089256
0.66070626
0.66046187
0.66018772
0.65990649
0.65960936
0.65935325
0.65919999
0.65908667
0.65898257
0.65897622
0.65906867
0.65906584
0.65897908
0.65897227
0.65913501
0.65939395
0.65961022
0.65973344
0.65983549
0.6599505
0.66006341
0.66017675
0.66033372
0.66057344
0.66088113
0.66121015
0.66161024
0.66189336
0.66224355
0.66304783
0.66290567
0.66276497
0.66480479
0.66424055
0.66258402
0.66488897
0.66910897
0.66621486
0.66032294
0.65745497
0.65799882
0.6603209
0.68226177
0.68225912
0.68225278
0.68224251
0.68222785
0.68220835
0.68218358
0.68215321
0.68211706
0.68207532
0.68202873
0.68197885
0.68192803
0.6818789
0.68183339
0.68179258
0.68175663
0.6817251
0.68169737
0.68167277
0.6816506
0.68163013
0.68161076
0.68159259
0.68157546
0.68155907
0.68154302
0.68152692
0.68151033
0.68149286
0.68147409
0.68145362
0.68143107
0.68140611
0.68137845
0.68134789
0.68131432
0.6812778
0.68123862
0.68119696
0.68115282
0.68110631
0.68105729
0.68100539
0.68094991
0.6808898
0.68082373
0.68075218
0.68067783
0.68059828
0.68050947
0.68036732
0.68032631
0.68027357
0.68024659
0.68030827
0.68038169
0.68008742
0.6781168
0.6731692
0.66746646
0.66451419
0.66408845
0.66475322
0.66483171
0.66402495
0.66249241
0.66089485
0.659701
0.66068426
0.66363362
0.66704924
0.66955302
0.67095785
0.67124329
0.67076672
0.66974147
0.66787547
0.66647182
0.66598378
0.66587156
0.66580328
0.66558876
0.66524495
0.66497785
0.66467101
0.66425362
0.6637285
0.66317219
0.66257117
0.66209542
0.66175939
0.66148442
0.66124659
0.66107801
0.66095008
0.66075452
0.66050477
0.66022214
0.65993167
0.65962774
0.65936936
0.65921408
0.65909834
0.65899177
0.65898572
0.65907778
0.65907232
0.65898371
0.65897487
0.65913627
0.65939516
0.65960937
0.6597295
0.65983001
0.65994327
0.66005452
0.66016815
0.66032483
0.66056399
0.66087251
0.66120253
0.66160394
0.66188779
0.66223695
0.66304157
0.66290215
0.662759
0.66480306
0.66423721
0.66258373
0.66489248
0.66911033
0.66619714
0.66031382
0.65745173
0.6579977
0.66032471
0.68236081
0.68235673
0.68234796
0.6823342
0.68231527
0.68229093
0.6822611
0.6822257
0.68218493
0.68213917
0.68208938
0.68203701
0.68198416
0.68193304
0.68188537
0.68184193
0.6818027
0.68176726
0.68173512
0.68170568
0.68167846
0.68165313
0.68162936
0.68160684
0.68158533
0.68156457
0.6815443
0.68152424
0.68150409
0.68148349
0.68146207
0.68143942
0.68141513
0.68138881
0.68136005
0.68132855
0.68129405
0.68125647
0.68121572
0.68117187
0.6811251
0.68107573
0.6810241
0.68097084
0.68091695
0.6808641
0.68081476
0.68076789
0.68071871
0.68067414
0.68063893
0.68064671
0.6807051
0.68076558
0.68076756
0.68068248
0.68001686
0.67754489
0.67292593
0.66795846
0.66542942
0.66485977
0.66529888
0.665418
0.66488857
0.66363601
0.6621939
0.66090526
0.66067615
0.66255627
0.66604381
0.66899452
0.67075189
0.67152333
0.67138475
0.67082647
0.6695687
0.66765163
0.66639733
0.66597926
0.66589728
0.66583384
0.66561535
0.66527653
0.66501615
0.6646845
0.66425852
0.66372724
0.66317354
0.66257568
0.66213647
0.66181652
0.66154753
0.66131154
0.66114491
0.66100447
0.66079826
0.66054444
0.66025348
0.65995306
0.65964486
0.65938598
0.65922832
0.65911053
0.65900428
0.65900021
0.65908975
0.65908099
0.65899119
0.65898144
0.6591413
0.65939906
0.65961054
0.65972793
0.6598264
0.65993763
0.66004682
0.66016031
0.66031791
0.66055734
0.66086665
0.66119698
0.66159942
0.6618842
0.66223097
0.66303703
0.66289723
0.6627538
0.664803
0.6642339
0.66258295
0.6648965
0.66911298
0.66617836
0.66030449
0.65744766
0.65799618
0.68242897
0.68242774
0.68242472
0.68241966
0.68241203
0.68240145
0.68238742
0.68236968
0.68234796
0.68232232
0.682293
0.6822607
0.68222639
0.68219133
0.68215648
0.68212243
0.68208929
0.68205687
0.68202475
0.6819927
0.6819605
0.6819281
0.68189548
0.68186263
0.68182957
0.68179638
0.68176311
0.68172979
0.68169648
0.68166326
0.6816302
0.6815974
0.68156491
0.68153281
0.68150114
0.68146998
0.68143945
0.68140977
0.68138119
0.68135407
0.68132881
0.68130574
0.68128526
0.68126804
0.68125518
0.68124819
0.68124903
0.68125904
0.68128324
0.68132106
0.68136327
0.68140721
0.68136588
0.68126456
0.68074672
0.67924836
0.67621694
0.67199605
0.66816908
0.66610213
0.66562015
0.66596726
0.66592436
0.66521947
0.66405124
0.66310247
0.66195908
0.6610597
0.66211203
0.6648597
0.668122
0.67039024
0.67152942
0.67178273
0.67144302
0.67077837
0.66934944
0.66743306
0.66632738
0.66596341
0.66592599
0.66585979
0.66564284
0.66531099
0.66505558
0.6647014
0.6642656
0.66372119
0.66317387
0.66259047
0.66218839
0.66187917
0.66161399
0.66138241
0.66122012
0.66106624
0.66084887
0.66059027
0.66029219
0.65998069
0.65966455
0.65940367
0.65924373
0.65912309
0.65901393
0.65901089
0.65910003
0.65908785
0.65899614
0.65898507
0.6591437
0.65940097
0.65960943
0.65972369
0.65982052
0.65993008
0.66003739
0.66015173
0.66030922
0.66054812
0.66085831
0.66118897
0.66159283
0.66187843
0.66222348
0.6630304
0.6628928
0.66274645
0.66480167
0.66423085
0.66258102
0.66490114
0.66911543
0.666161
0.6602955
0.65744353
0.65799432
0.68268108
0.68268074
0.68267979
0.68267804
0.68267527
0.68267106
0.682665
0.68265659
0.6826454
0.68263108
0.68261349
0.6825928
0.68256954
0.68254452
0.68251853
0.68249216
0.68246575
0.68243949
0.68241345
0.68238756
0.68236175
0.68233584
0.68230969
0.68228322
0.68225638
0.68222915
0.6822015
0.6821737
0.68214598
0.68211858
0.68209173
0.68206573
0.68204095
0.6820178
0.68199668
0.68197791
0.68196166
0.6819481
0.68193733
0.6819294
0.68192405
0.68191967
0.68191636
0.68191404
0.68191188
0.68190825
0.68190116
0.68189525
0.68189132
0.68188055
0.68184006
0.68168446
0.6812199
0.67999213
0.67753599
0.67405313
0.67039734
0.667907
0.66667028
0.66646431
0.66677049
0.66644237
0.66558159
0.66449782
0.66382885
0.66322554
0.6625297
0.66270752
0.6643315
0.66727853
0.66996837
0.67144593
0.67197263
0.67189633
0.67148024
0.67059644
0.66901148
0.66715114
0.66623638
0.66592482
0.66596388
0.66588356
0.66565943
0.66533664
0.66508468
0.66470921
0.66426467
0.66370001
0.66315767
0.66260238
0.66224397
0.66194345
0.66168073
0.66145133
0.66129093
0.66112039
0.66089208
0.66062745
0.66032251
0.66000253
0.65968301
0.6594196
0.65925642
0.65913519
0.65902674
0.65902477
0.65911121
0.65909583
0.65900318
0.65899115
0.65914843
0.65940444
0.65960974
0.65972091
0.65981521
0.65992297
0.66002923
0.66014379
0.66030258
0.66054167
0.66085271
0.66118375
0.66158819
0.66187447
0.66221728
0.66302542
0.66288668
0.66274145
0.66480186
0.6642274
0.66257982
0.66490633
0.66911768
0.6661415
0.6602857
0.65743855
0.65799233
0.68293994
0.68294008
0.6829399
0.68293922
0.68293761
0.68293483
0.68293048
0.68292435
0.68291613
0.68290578
0.68289331
0.68287906
0.68286354
0.68284739
0.68283114
0.68281513
0.6827995
0.68278427
0.6827694
0.68275481
0.68274042
0.68272616
0.68271199
0.68269784
0.68268366
0.6826694
0.68265501
0.68264026
0.6826249
0.68260876
0.6825917
0.68257362
0.6825544
0.68253392
0.6825114
0.68248613
0.68245843
0.6824287
0.68239723
0.68236417
0.6823299
0.68229769
0.68226645
0.68223399
0.68219753
0.68215364
0.6820967
0.68201208
0.68187394
0.68162497
0.6810973
0.67994475
0.67792591
0.67498713
0.67181029
0.66919585
0.66777052
0.66715041
0.66737024
0.66760612
0.66698142
0.66574828
0.66473596
0.66431659
0.66391001
0.66372341
0.66358086
0.66439755
0.66659933
0.66933331
0.67127017
0.67205756
0.67211634
0.67185371
0.6713497
0.67025937
0.66861392
0.66690145
0.66615999
0.66591334
0.66600748
0.66591177
0.66568269
0.66537109
0.66511707
0.66472146
0.66426154
0.66367703
0.66314473
0.66262434
0.66230206
0.66200942
0.66175152
0.66152749
0.6613699
0.66118327
0.66094515
0.66067292
0.66035889
0.66002836
0.65970329
0.65943839
0.65927119
0.65914604
0.65903584
0.65903569
0.65912151
0.65910253
0.65900781
0.65899436
0.65915037
0.6594059
0.65960805
0.65971596
0.65980823
0.65991444
0.66001881
0.66013476
0.66029374
0.66053251
0.66084432
0.66117576
0.6615814
0.66186854
0.66220945
0.6630187
0.66288137
0.66273418
0.66480087
0.66422424
0.66257678
0.66491177
0.66912018
0.6661237
0.66027601
0.65743373
0.68312189
0.68312157
0.68312082
0.68311959
0.68311792
0.68311576
0.68311318
0.68311018
0.68310688
0.68310336
0.68309981
0.68309638
0.6830932
0.68309031
0.68308765
0.68308506
0.68308239
0.68307942
0.68307597
0.68307184
0.68306682
0.6830607
0.68305327
0.68304431
0.68303356
0.68302074
0.68300529
0.68298657
0.68296439
0.6829385
0.68290867
0.68287466
0.68283629
0.68279373
0.6827486
0.68270216
0.68265381
0.68260272
0.68254769
0.68248697
0.68241831
0.68233662
0.68223688
0.68211246
0.68195431
0.68174866
0.68147387
0.68109461
0.68054289
0.67965033
0.67801849
0.67555714
0.6727846
0.67042223
0.66884475
0.66802079
0.66809748
0.66860723
0.66841596
0.66764802
0.66609401
0.66491103
0.66458453
0.66483369
0.665256
0.66520803
0.66558896
0.66691867
0.66913498
0.6711625
0.67216748
0.6723278
0.67212999
0.67175229
0.67107065
0.66978734
0.6681218
0.66662552
0.66605936
0.66590175
0.6660569
0.66593836
0.66570317
0.66540015
0.66514021
0.66472447
0.66424183
0.66363434
0.66313109
0.66265983
0.66236369
0.66207157
0.66181742
0.66159708
0.66143957
0.66123564
0.66098787
0.66070754
0.6603874
0.66004976
0.65972167
0.65945456
0.65928453
0.65915814
0.65904863
0.65904864
0.65913173
0.65911022
0.65901479
0.65900051
0.65915495
0.65940854
0.65960693
0.65971125
0.65980145
0.65990599
0.66000995
0.66012669
0.66028748
0.6605261
0.66083861
0.66117075
0.6615769
0.6618644
0.66220313
0.66301335
0.66287448
0.66272964
0.66480096
0.66422064
0.66257535
0.66491812
0.6691211
0.66610386
0.66026497
0.65742819
0.68321083
0.68321098
0.68321146
0.68321248
0.68321446
0.68321766
0.68322247
0.68322906
0.68323755
0.68324773
0.68325922
0.68327127
0.68328301
0.68329361
0.68330245
0.6833091
0.6833132
0.68331442
0.68331268
0.68330785
0.68329978
0.68328824
0.68327297
0.68325364
0.68322998
0.68320183
0.68316955
0.68313363
0.68309361
0.68304902
0.68299928
0.68294367
0.68288127
0.68281068
0.6827294
0.68263496
0.68252533
0.68239794
0.68224957
0.6820763
0.68187257
0.68163174
0.68134556
0.68100222
0.68058527
0.68007234
0.67943209
0.67861448
0.67752301
0.67591746
0.67364899
0.67142114
0.66990516
0.66904572
0.6687572
0.66934001
0.66968193
0.66921842
0.66809874
0.66666021
0.66547036
0.6649599
0.66586294
0.66655386
0.66650951
0.66655013
0.66717159
0.66888012
0.67087117
0.67228631
0.672557
0.67232635
0.67194102
0.67142523
0.67060765
0.66920789
0.6676315
0.66639486
0.66597315
0.66595428
0.66613496
0.66598371
0.66574661
0.66545022
0.6651737
0.66473038
0.66421524
0.66358545
0.66312017
0.66270673
0.66243034
0.66213824
0.66189024
0.66167495
0.661516
0.6612982
0.66104273
0.66075032
0.66042057
0.66007367
0.65974173
0.65947454
0.65929946
0.65916745
0.65905791
0.65906008
0.65914165
0.65911613
0.65901872
0.65900336
0.65915693
0.65940996
0.65960435
0.65970526
0.65979292
0.65989594
0.65999837
0.66011696
0.66027805
0.66051696
0.66083032
0.6611626
0.66156988
0.66185825
0.66219509
0.66300662
0.66286849
0.66272277
0.66480017
0.66421745
0.66257188
0.66492477
0.66912233
0.66608552
0.66025397
0.65742264
0.68338499
0.68338538
0.68338636
0.68338806
0.68339072
0.68339444
0.68339937
0.68340541
0.68341233
0.68341958
0.68342628
0.68343137
0.68343402
0.68343366
0.68343005
0.68342316
0.68341324
0.68340061
0.68338506
0.68336631
0.683344
0.68331768
0.68328677
0.68325059
0.68320827
0.68315871
0.68310034
0.68303145
0.68295059
0.68285619
0.6827466
0.68262007
0.68247482
0.68230908
0.68212107
0.68190886
0.6816703
0.68140282
0.68110312
0.68076684
0.68038813
0.67995857
0.67946757
0.67890183
0.67824481
0.67747724
0.67657662
0.6755116
0.67422088
0.67260875
0.67103848
0.67009998
0.66972439
0.67009869
0.67071472
0.67064021
0.66991876
0.66859973
0.66721955
0.66637708
0.66617704
0.66676969
0.66736724
0.66763803
0.66776107
0.66800084
0.66909575
0.67096627
0.67237921
0.67298049
0.67262891
0.67218959
0.67166475
0.67100499
0.66998713
0.66853448
0.66713794
0.66619235
0.66589656
0.66603859
0.66621668
0.6660302
0.66578942
0.66549867
0.66520245
0.66472269
0.66416993
0.66353489
0.6631201
0.66276027
0.66249121
0.66219752
0.6619574
0.66174451
0.66157816
0.66134539
0.66108562
0.66078425
0.66044843
0.66009427
0.65975919
0.65949139
0.65931516
0.65918057
0.65907016
0.65907197
0.65915169
0.65912375
0.65902561
0.65900968
0.6591612
0.65941198
0.65960215
0.65969885
0.65978486
0.65988621
0.65998884
0.66010878
0.66027182
0.66051047
0.66082465
0.66115771
0.66156545
0.66185391
0.66218892
0.66300093
0.66286103
0.66271852
0.66479971
0.66421384
0.66257016
0.66493238
0.66912176
0.66606489
0.66024195
0.68340651
0.68340715
0.68340833
0.68340998
0.68341173
0.68341339
0.68341446
0.68341456
0.68341299
0.68340919
0.68340263
0.68339296
0.68337979
0.68336287
0.68334197
0.68331676
0.68328672
0.68325121
0.68320966
0.68316137
0.68310552
0.68304111
0.68296708
0.68288223
0.68278529
0.6826749
0.68254969
0.68240825
0.68224914
0.68207099
0.68187246
0.68165231
0.68140941
0.68114266
0.68085092
0.68053288
0.68018696
0.67981099
0.67940188
0.67895541
0.67846582
0.6779258
0.67732611
0.67665647
0.67590881
0.67508084
0.67418259
0.67322318
0.67222568
0.67124675
0.67052602
0.67082169
0.67154878
0.67180519
0.6713693
0.67042902
0.66903829
0.66782324
0.66725282
0.66777926
0.6679765
0.66800847
0.66819668
0.66855904
0.66885736
0.6695312
0.67090024
0.67216457
0.67289754
0.67302952
0.67250425
0.67188751
0.67117328
0.67039554
0.66923833
0.66787972
0.66673658
0.66604254
0.66598974
0.66622454
0.66632471
0.66609698
0.66584967
0.66555992
0.66523823
0.66470579
0.66411385
0.66349783
0.66314064
0.66282443
0.66255424
0.66226128
0.66203269
0.66182483
0.66165016
0.66140483
0.66113902
0.66082372
0.66047802
0.66011758
0.6597804
0.65951183
0.65932944
0.65918996
0.65908085
0.65908399
0.65916073
0.65912793
0.6590287
0.65901258
0.65916353
0.65941308
0.65959884
0.65969145
0.65977452
0.65987488
0.65997637
0.66009812
0.6602621
0.66050113
0.66081606
0.66114928
0.66155812
0.6618475
0.66218085
0.66299423
0.66285467
0.66271181
0.66479913
0.66421078
0.66256638
0.66494055
0.66912229
0.66604559
0.66023025
0.68334469
0.68334295
0.68333954
0.68333418
0.68332682
0.68331707
0.68330454
0.68328838
0.68326769
0.68324128
0.68320821
0.68316792
0.68312054
0.68306646
0.68300601
0.6829393
0.68286616
0.68278618
0.68269878
0.6826032
0.68249851
0.68238369
0.68225766
0.68211924
0.68196723
0.68180041
0.68161751
0.68141732
0.68119867
0.68096044
0.68070161
0.68042126
0.68011859
0.67979283
0.67944321
0.67906884
0.67866862
0.67824105
0.67778411
0.67729517
0.67677111
0.67620873
0.67560598
0.67496493
0.67429065
0.67359703
0.67291734
0.67227335
0.67162115
0.67118629
0.67187756
0.67258957
0.67245946
0.67183024
0.67077563
0.66955868
0.66846558
0.66816553
0.668716
0.66903371
0.66885229
0.66862343
0.66906961
0.66975395
0.67036067
0.67125988
0.67229303
0.67288971
0.6731345
0.67293391
0.67233708
0.67156048
0.67058515
0.66963412
0.66843644
0.66729657
0.66641176
0.66594163
0.66614942
0.66642377
0.6664317
0.66615795
0.66590134
0.66560833
0.66525924
0.66466273
0.66404297
0.6634738
0.66317557
0.66288746
0.66260898
0.66231722
0.66209781
0.66189021
0.66170296
0.66144839
0.66118186
0.66085791
0.66050423
0.66013622
0.65979827
0.65953085
0.65934771
0.65920382
0.65909277
0.6590956
0.65917089
0.65913483
0.6590352
0.65901854
0.65916718
0.65941428
0.65959582
0.65968381
0.65976507
0.65986405
0.65996634
0.66009
0.66025537
0.66049431
0.66081042
0.66114448
0.66155378
0.66184308
0.66217467
0.66298821
0.66284721
0.66270776
0.66479826
0.66420731
0.66256448
0.66494931
0.66912144
0.66602418
0.66021767
0.68308424
0.68308237
0.68307805
0.68307045
0.68305821
0.68303999
0.68301392
0.68297826
0.6829311
0.6828713
0.68279865
0.6827145
0.68262103
0.68252052
0.6824145
0.68230367
0.68218801
0.68206703
0.68193998
0.68180591
0.6816637
0.68151216
0.6813501
0.68117623
0.68098931
0.68078806
0.68057124
0.68033764
0.68008609
0.67981555
0.6795251
0.67921399
0.67888169
0.67852786
0.67815234
0.67775515
0.67733646
0.67689658
0.67643605
0.67595595
0.67545847
0.67494623
0.67442427
0.67390746
0.67340516
0.67292194
0.672449
0.67208063
0.67204036
0.67259054
0.67319599
0.67286423
0.67211191
0.67111591
0.67010628
0.66929799
0.669215
0.66943168
0.66948374
0.66962048
0.66952471
0.66960605
0.67020044
0.67086591
0.67151854
0.67227286
0.67285239
0.67299305
0.67290133
0.67252554
0.67190242
0.67105056
0.66992359
0.66890188
0.66775103
0.66684738
0.6661864
0.66606457
0.66645115
0.66666675
0.66655153
0.66622671
0.66595815
0.66565699
0.66527091
0.66460541
0.66397661
0.66348119
0.66322842
0.66295294
0.66266714
0.66238456
0.66217529
0.66196863
0.66176658
0.66150195
0.66122864
0.66089351
0.6605327
0.66016016
0.6598194
0.65954978
0.65936166
0.65921522
0.65910523
0.65910801
0.65917896
0.65913747
0.65903794
0.65902152
0.6591699
0.65941504
0.65959163
0.65967498
0.659753
0.65985133
0.65995318
0.66007876
0.66024554
0.66048482
0.66080148
0.66113587
0.6615462
0.66183616
0.66216646
0.66298143
0.66284029
0.66270118
0.66479785
0.66420437
0.66256037
0.66495848
0.66912169
0.66600436
0.66020483
0.682612
0.68260728
0.68259733
0.68258097
0.68255708
0.68252408
0.68248031
0.68242381
0.68235289
0.68226654
0.68216529
0.68205132
0.68192797
0.68179836
0.68166455
0.6815274
0.68138682
0.68124218
0.68109254
0.68093676
0.68077354
0.68060157
0.68041953
0.68022606
0.68001985
0.67979961
0.67956407
0.6793121
0.67904268
0.67875496
0.67844839
0.67812275
0.67777828
0.67741569
0.6770362
0.67664165
0.67623462
0.67581834
0.67539635
0.67497354
0.67455854
0.67415528
0.67376591
0.67338157
0.6730321
0.67277839
0.67271074
0.67287132
0.67323297
0.6735052
0.67315692
0.67237093
0.67152352
0.67075337
0.67042393
0.67046891
0.67028965
0.66996685
0.66993789
0.67033825
0.67049309
0.67062808
0.67101896
0.67171277
0.67249688
0.67295119
0.67312221
0.67287751
0.67264984
0.67219966
0.67138817
0.67033301
0.66916545
0.66823154
0.66721628
0.66651459
0.66600846
0.66626706
0.66678132
0.66686868
0.6666315
0.66626436
0.66598882
0.66567539
0.66524693
0.66452778
0.66392068
0.6635074
0.6632817
0.66300431
0.66271341
0.66244197
0.66223552
0.6620257
0.66181226
0.66154571
0.66126856
0.66092369
0.66055535
0.66017838
0.65983983
0.65957101
0.65938108
0.6592294
0.65911739
0.65912027
0.65918901
0.65914331
0.65904362
0.65902696
0.65917246
0.65941492
0.65958725
0.6596665
0.65974248
0.65983944
0.65994263
0.66007082
0.66023846
0.6604776
0.66079586
0.66113084
0.66154178
0.66183163
0.66216031
0.66297527
0.66283314
0.66269733
0.66479679
0.664201
0.66255793
0.66496795
0.6691204
0.66598241
0.68191181
0.6819075
0.681898
0.68188193
0.68185739
0.68182242
0.68177459
0.6817116
0.68163133
0.68153289
0.68141712
0.681287
0.68114667
0.68100005
0.68084965
0.68069655
0.68054071
0.68038143
0.68021768
0.68004825
0.67987175
0.67968682
0.67949213
0.67928635
0.67906824
0.67883664
0.67859052
0.67832909
0.67805176
0.67775833
0.67744907
0.67712482
0.67678713
0.67643835
0.67608156
0.67572058
0.67536054
0.67500805
0.67466651
0.67433707
0.67401732
0.67372242
0.67347618
0.67331751
0.6732674
0.67333444
0.6734987
0.67366945
0.67368488
0.67335918
0.67265623
0.67194625
0.67163614
0.6717893
0.671873
0.67138864
0.6706803
0.67035431
0.67050865
0.67089427
0.67115268
0.6713973
0.67192548
0.67252449
0.67289872
0.67294708
0.67282352
0.67249697
0.67210612
0.6714204
0.67054822
0.66958452
0.6685553
0.66771627
0.66683877
0.66628314
0.66610062
0.66662778
0.66712975
0.6670484
0.66670085
0.66629874
0.66601657
0.66567939
0.66520228
0.66445061
0.66390192
0.66356147
0.66334205
0.66305687
0.66277316
0.66251881
0.66231132
0.66209247
0.66186292
0.66159377
0.66130911
0.6609552
0.66058187
0.66020129
0.6598597
0.6595889
0.65939606
0.6592435
0.65913185
0.6591328
0.65919544
0.65914442
0.65904591
0.65903003
0.65917541
0.65941492
0.65958157
0.65965597
0.65972887
0.65982521
0.65992896
0.66005929
0.66022863
0.66046803
0.66078692
0.66112235
0.66153407
0.66182437
0.66215197
0.66296847
0.66282549
0.66269099
0.66479659
0.66419817
0.66255329
0.66497784
0.66911996
0.66596191
0.68107843
0.6810741
0.68106446
0.68104796
0.68102245
0.68098577
0.68093526
0.68086854
0.6807834
0.68067907
0.68055656
0.68041914
0.68027118
0.68011681
0.67995869
0.67979801
0.67963478
0.67946833
0.67929766
0.67912157
0.67893875
0.67874793
0.67854792
0.6783376
0.67811604
0.67788244
0.6776363
0.67737743
0.67710604
0.67682288
0.67652933
0.67622749
0.6759203
0.67561189
0.67530708
0.67500927
0.67472064
0.67444335
0.6741881
0.67396894
0.67380308
0.67370028
0.67366574
0.67369773
0.67378296
0.67388137
0.67392297
0.67382924
0.67350225
0.67292089
0.6725387
0.67272072
0.67305915
0.67321503
0.67266188
0.67171454
0.67103547
0.67083153
0.67080006
0.67118096
0.67173007
0.67225479
0.67271258
0.67288179
0.67289674
0.67268662
0.67234211
0.67196943
0.6716089
0.67081729
0.66996042
0.6690171
0.66808575
0.66729349
0.66651366
0.6661128
0.66638098
0.66701732
0.66735427
0.6671322
0.66670921
0.66629378
0.66600521
0.66563943
0.6651249
0.66437054
0.66389728
0.66360699
0.66338208
0.66308785
0.66281971
0.66257722
0.66236742
0.66214222
0.66190348
0.66163475
0.6613413
0.66097886
0.66060141
0.66022022
0.65988271
0.65961177
0.65941566
0.65925721
0.65914533
0.65914644
0.65920452
0.65914866
0.65905021
0.65903425
0.65917719
0.65941384
0.65957588
0.65964658
0.65971703
0.6598128
0.659918
0.66005128
0.6602214
0.66046057
0.66078087
0.66111688
0.66152949
0.66181978
0.66214568
0.66296215
0.66281842
0.66268735
0.66479553
0.66419495
0.66255041
0.66498818
0.669118
0.66593947
0.68015423
0.68014979
0.68013994
0.68012304
0.68009694
0.68005946
0.68000784
0.67993965
0.67985265
0.67974613
0.67962119
0.67948117
0.67933047
0.67917324
0.6790122
0.67884866
0.6786828
0.67851411
0.67834174
0.67816468
0.67798182
0.67779212
0.6775947
0.6773888
0.67717392
0.67694981
0.67671659
0.67647481
0.67622552
0.67597044
0.67571225
0.67545378
0.67519783
0.6749469
0.67470474
0.67447919
0.67427978
0.67411609
0.6739937
0.67391688
0.67388624
0.67389821
0.67394499
0.67400706
0.67405135
0.67404214
0.67392629
0.67366647
0.6733311
0.67323041
0.67363268
0.67400233
0.67411798
0.67393799
0.67297871
0.67197144
0.67126476
0.67096133
0.67092712
0.67150137
0.67212607
0.67246164
0.67257378
0.67255855
0.67238768
0.6720089
0.6715878
0.67132006
0.67082874
0.67011688
0.66942953
0.66859254
0.66773759
0.66698701
0.66635242
0.66636561
0.666882
0.6674442
0.66752664
0.66718376
0.66669173
0.66628096
0.66597857
0.66558657
0.66505283
0.66433307
0.6639336
0.66366138
0.66343057
0.66313585
0.66289014
0.66264927
0.66242856
0.66219052
0.66194517
0.66167862
0.6613748
0.66100466
0.66062383
0.66024025
0.65990045
0.6596301
0.65943354
0.65927371
0.6591609
0.65915893
0.65920926
0.65914844
0.65905139
0.65903674
0.65917951
0.65941254
0.65956816
0.6596341
0.65970245
0.65979736
0.65990391
0.6600398
0.66021149
0.66045093
0.66077214
0.6611086
0.6615219
0.66181222
0.66213719
0.66295548
0.66281001
0.66268108
0.66479539
0.66419212
0.66254534
0.66499924
0.66911681
0.67912856
0.67912386
0.67911358
0.67909617
0.67906969
0.67903203
0.67898076
0.67891348
0.67882828
0.67872447
0.67860333
0.678468
0.67832263
0.67817097
0.67801563
0.67785789
0.6776981
0.67753594
0.67737085
0.67720205
0.67702874
0.67685023
0.676666
0.67647573
0.67627942
0.67607744
0.67587064
0.67566018
0.67544746
0.67523422
0.67502232
0.67481549
0.67461895
0.67443901
0.67428168
0.67415149
0.6740523
0.67398668
0.67395521
0.67395468
0.6739816
0.67402609
0.67407308
0.67410155
0.67409363
0.67402304
0.67389411
0.67378633
0.67381682
0.67416035
0.67455864
0.67474266
0.6748215
0.67432146
0.67302678
0.671822
0.67111335
0.6708875
0.67104208
0.67138656
0.6717679
0.67195199
0.67199486
0.67199693
0.67182719
0.67140643
0.67101037
0.67079299
0.67021136
0.66966746
0.66900655
0.66816072
0.66730478
0.66661326
0.66632246
0.66676199
0.66731993
0.66769625
0.66756611
0.66714197
0.66660738
0.66621268
0.66590507
0.66549592
0.66496192
0.66429358
0.66395111
0.66367908
0.66345298
0.66317294
0.66295181
0.66270574
0.66247684
0.6622274
0.66197868
0.66171109
0.66139811
0.66102172
0.66063992
0.66026071
0.65992497
0.6596522
0.6594523
0.65928779
0.65917625
0.65917397
0.6592166
0.65915026
0.65905381
0.65903971
0.65918074
0.65941058
0.65956104
0.65962313
0.65968905
0.65978426
0.65989285
0.66003176
0.66020446
0.66044332
0.66076581
0.66110257
0.66151698
0.66180731
0.66213068
0.6629488
0.66280256
0.66267742
0.66479435
0.66418903
0.66254221
0.66501078
0.66911422
0.67800493
0.67800023
0.67799043
0.67797408
0.67794964
0.67791514
0.67786834
0.67780691
0.67772898
0.67763394
0.67752303
0.67739916
0.67726603
0.67712699
0.67698437
0.67683947
0.67669276
0.6765442
0.67639349
0.67624024
0.676084
0.6759245
0.6757616
0.6755953
0.67542592
0.67525399
0.67508031
0.67490649
0.67473494
0.67456877
0.67441182
0.67426768
0.67413999
0.67403228
0.6739476
0.67388825
0.67385551
0.67384751
0.67386343
0.67389843
0.67394557
0.67399559
0.67403746
0.67406082
0.67406195
0.67404809
0.67404998
0.67412913
0.67438027
0.67480972
0.67516623
0.67539683
0.67533835
0.67415842
0.67254169
0.6713293
0.67076463
0.67062763
0.67061561
0.67076004
0.67112842
0.67128449
0.67134261
0.67136421
0.67117142
0.67075367
0.67028536
0.67001037
0.66947654
0.66900317
0.66843921
0.66778255
0.66714065
0.66672625
0.66685778
0.66737746
0.66775523
0.66787013
0.66757982
0.6670659
0.66650384
0.6661264
0.66582625
0.66541651
0.66489579
0.66429201
0.66398063
0.66370364
0.66349087
0.66323171
0.66302158
0.66275993
0.66252185
0.6622649
0.66201901
0.66174603
0.6614223
0.66104085
0.66065453
0.66027529
0.65994184
0.65967283
0.65947295
0.65930554
0.65919211
0.65918641
0.65921999
0.65914795
0.65905265
0.65904178
0.6591823
0.65940787
0.65955167
0.65960837
0.65967321
0.6597678
0.65987841
0.66002045
0.66019464
0.66043353
0.66075723
0.66109449
0.66150937
0.66179972
0.66212201
0.66294229
0.66279375
0.66267116
0.66479422
0.66418595
0.66253721
0.665023
0.66911277
0.67689106
0.67688623
0.67687617
0.67685956
0.67683505
0.6768008
0.67675499
0.67669551
0.67662101
0.67653116
0.67642753
0.67631292
0.67619081
0.67606406
0.67593474
0.67580398
0.67567228
0.6755397
0.67540613
0.67527133
0.67513505
0.67499715
0.67485781
0.67471745
0.67457689
0.67443731
0.67430035
0.67416785
0.674042
0.67392526
0.67382031
0.67372987
0.67365656
0.67360257
0.67356953
0.67355736
0.6735662
0.67359444
0.67363909
0.67369605
0.67376029
0.67382633
0.67388922
0.67394636
0.67400048
0.67406403
0.67416666
0.67437093
0.67477696
0.67534948
0.67577385
0.67595268
0.67523713
0.67343479
0.67175358
0.67066627
0.67021761
0.67003111
0.66988703
0.67013492
0.67056308
0.67067974
0.67064047
0.67065357
0.67046339
0.66993721
0.66947415
0.66927749
0.66885353
0.66842043
0.6679064
0.66740898
0.66702955
0.66695423
0.6672502
0.66772951
0.66794331
0.66786931
0.66747238
0.66690093
0.66634755
0.66600441
0.66571941
0.6653099
0.66480373
0.66425922
0.6639712
0.66371309
0.66352771
0.66329037
0.66307638
0.66279665
0.66255288
0.66229125
0.6620506
0.66176843
0.66143731
0.66105565
0.66066884