/*--------------------------------*- C++ -*----------------------------------*\
| =========                 |                                                 |
| \\      /  F ield         | OpenFOAM: The Open Source CFD Toolbox           |
|  \\    /   O peration     | Version:  2506                                  |
|   \\  /    A nd           | Website:  www.openfoam.com                      |
|    \\/     M anipulation  |                                                 |
\*---------------------------------------------------------------------------*/
FoamFile
{
    version     2.0;
    format      ascii;
    arch        "LSB;label=32;scalar=64";
    class       volScalarField;
    location    "0.0145";
    object      rho;
}
// * * * * * * * * * * * * * * * * * * * * * * * * * * * * * * * * * * * * * //

dimensions      [1 -3 0 0 0 0 0];

internalField   nonuniform List<scalar> 
13761
(
0.66310798
0.6637624
0.66446173
0.66449336
0.66379287
0.6631364
0.66254409
0.66202851
0.66451892
0.66381759
0.66315955
0.66256521
0.66204728
0.66160964
0.66124881
0.6645457
0.66384351
0.66318382
0.66258731
0.66206694
0.66162701
0.66126411
0.66096642
0.66071621
0.66457402
0.66387095
0.66320955
0.66261075
0.6620878
0.66164538
0.66128031
0.66098113
0.66073011
0.66050599
0.66028823
0.66460398
0.66390003
0.66323685
0.66263565
0.66210999
0.66166491
0.66129754
0.66099669
0.66074479
0.66052067
0.66030357
0.66007628
0.65982809
0.66463569
0.66393084
0.66326583
0.66266211
0.6621336
0.6616857
0.66131588
0.66101324
0.66076037
0.66053617
0.66031976
0.6600938
0.65984719
0.65957647
0.6592852
0.66466925
0.66396351
0.66329659
0.66269025
0.66215872
0.66170784
0.6613354
0.66103083
0.66077691
0.66055259
0.6603369
0.6601123
0.65986736
0.65959825
0.65930842
0.65900825
0.65871184
0.65843592
0.66470477
0.66399815
0.66332927
0.66272017
0.66218547
0.66173142
0.66135619
0.66104955
0.66079446
0.66056999
0.66035503
0.66013186
0.65988869
0.65962133
0.65933295
0.65903353
0.65873699
0.65845999
0.65821972
0.65803402
0.66474237
0.66403488
0.66336397
0.662752
0.66221397
0.66175655
0.66137835
0.66106947
0.66081311
0.66058842
0.66037422
0.66015254
0.65991127
0.65964579
0.65935896
0.65906036
0.65876373
0.65848563
0.65824341
0.65805456
0.65793441
0.65789766
0.66478217
0.66407383
0.66340085
0.66278588
0.66224433
0.66178335
0.66140197
0.66109068
0.66083293
0.66060796
0.66039452
0.66017441
0.65993515
0.65967171
0.65938656
0.65908889
0.65879224
0.65851304
0.65826867
0.6580766
0.65795256
0.65791117
0.65796855
0.65814942
0.66482432
0.66411516
0.66344004
0.66282194
0.6622767
0.66181195
0.66142717
0.66111327
0.66085399
0.66062867
0.66041599
0.66019752
0.6599604
0.65969916
0.65941585
0.65911924
0.65882265
0.65854235
0.65829574
0.65810032
0.65797206
0.65792569
0.65797714
0.65814987
0.65848296
0.6590271
0.66486895
0.66415901
0.66348171
0.66286036
0.66231123
0.66184247
0.66145407
0.66113735
0.66087638
0.66065063
0.66043871
0.66022196
0.65998711
0.65972824
0.65944692
0.65915153
0.65885509
0.65857371
0.65832478
0.65812587
0.65799315
0.65794142
0.65798647
0.65815066
0.65847151
0.65899953
0.65976789
0.66074837
0.66188674
0.66491621
0.66420556
0.66352604
0.66290129
0.66234809
0.66187508
0.6614828
0.66116304
0.66090021
0.66067392
0.66046276
0.66024778
0.66001535
0.65975902
0.6594799
0.65918589
0.6588897
0.65860727
0.65835595
0.6581534
0.65801597
0.65795855
0.6579967
0.6581519
0.65846001
0.65897109
0.65972178
0.66068897
0.66181839
0.66304644
0.66440251
0.66496627
0.66425497
0.66357319
0.66294493
0.66238743
0.66190992
0.6615135
0.66119046
0.66092556
0.66069864
0.6604882
0.66027507
0.66004519
0.6597916
0.65951487
0.65922242
0.65892661
0.65864317
0.65838941
0.65818307
0.65804068
0.65797724
0.65800805
0.65815372
0.65844851
0.6589418
0.65967346
0.66062581
0.66174509
0.66296336
0.66430463
0.6658309
0.66820326
0.66809587
0.66501929
0.66430742
0.66362337
0.66299147
0.66242947
0.66194719
0.66154633
0.66121974
0.66095257
0.66072486
0.66051511
0.6603039
0.66007672
0.65982607
0.65955195
0.65926127
0.65896599
0.6586816
0.65842534
0.65821505
0.65806745
0.65799765
0.65802069
0.65815629
0.65843711
0.65891168
0.65962287
0.66055874
0.66166652
0.66287389
0.6641991
0.6656761
0.66777631
0.66836408
0.66127948
0.66045002
0.65971957
0.66507544
0.66436312
0.66367678
0.66304111
0.6624744
0.66198707
0.66158147
0.66125103
0.66098134
0.6607527
0.6605436
0.66033435
0.66011002
0.65986253
0.65959125
0.65930257
0.65900799
0.65872273
0.65846395
0.65824956
0.65809647
0.65801996
0.65803481
0.6581598
0.65842594
0.65888079
0.65956997
0.66048756
0.66158235
0.66277754
0.66408524
0.6655203
0.66740537
0.66836087
0.66132199
0.66045038
0.6597264
0.66513492
0.66442228
0.66373365
0.6630941
0.66252245
0.66202978
0.66161911
0.66128449
0.66101203
0.66078227
0.66057374
0.66036651
0.66014518
0.65990106
0.65963291
0.65934647
0.65905279
0.65876676
0.65850544
0.65828679
0.65812796
0.65804438
0.65805061
0.65816445
0.65841519
0.65884921
0.65951471
0.66041202
0.66149217
0.66267379
0.66396235
0.66535632
0.66711732
0.66791911
0.66136009
0.66045095
0.65973358
0.66519793
0.66448512
0.66379423
0.66315069
0.66257387
0.66207555
0.66165946
0.66132032
0.66104477
0.66081369
0.66060564
0.66040047
0.66018229
0.65994179
0.65967703
0.65939312
0.65910057
0.65881391
0.65855005
0.65832701
0.65816214
0.6580711
0.65806829
0.65817048
0.65840509
0.65881711
0.65945708
0.6603319
0.66139553
0.66256207
0.66382972
0.6651833
0.66684761
0.66728781
0.66138392
0.66045147
0.65974116
0.66526467
0.66455188
0.66385878
0.66321115
0.66262894
0.66212464
0.66170275
0.66135871
0.66107975
0.6608471
0.66063942
0.66043631
0.66022143
0.6599848
0.65972375
0.65944268
0.65915152
0.6588644
0.65859802
0.65837046
0.65819927
0.65810038
0.65808808
0.65817814
0.65839592
0.65878472
0.65939715
0.660247
0.661292
0.66244179
0.66368666
0.66499844
0.66656786
0.66657683
0.66138443
0.66045191
0.65974917
0.66533535
0.6646228
0.66392756
0.66327575
0.66268793
0.66217732
0.66174923
0.66139987
0.66111713
0.66088264
0.66067517
0.66047414
0.6602627
0.6600302
0.65977318
0.65949529
0.65920582
0.65891844
0.65864961
0.65841741
0.65823963
0.65813247
0.65811021
0.65818768
0.65838802
0.6587524
0.6593351
0.66015718
0.66118113
0.6623123
0.6635324
0.66479992
0.66625778
0.66587748
0.66137184
0.66045225
0.65975764
0.6654102
0.66469815
0.66400086
0.66334482
0.66275116
0.6622339
0.66179918
0.66144406
0.66115712
0.66092047
0.66071304
0.66051405
0.66030618
0.66007807
0.65982543
0.65955111
0.65926367
0.65897627
0.65870509
0.65846817
0.65828352
0.65816766
0.65813497
0.65819939
0.65838175
0.65872056
0.6592712
0.66006232
0.66106243
0.66217289
0.66336612
0.66458612
0.6659162
0.66519181
0.66135177
0.66045248
0.65976659
0.66548946
0.66477821
0.66407901
0.66341869
0.66281898
0.66229471
0.66185291
0.66149155
0.66119996
0.66096078
0.66075315
0.66055616
0.66035198
0.66012852
0.65988064
0.6596103
0.65932529
0.65903816
0.65876477
0.65852308
0.65833129
0.65820629
0.65816263
0.65821356
0.6583775
0.65868975
0.65920592
0.65996248
0.66093544
0.66202284
0.66318697
0.66435616
0.6655466
0.66453442
0.66132901
0.66045255
0.65977603
0.66557335
0.66486327
0.66416234
0.66349772
0.66289176
0.66236012
0.66191078
0.66154264
0.66124589
0.66100377
0.66079567
0.66060057
0.66040018
0.66018164
0.65993891
0.659673
0.65939086
0.65910437
0.65882896
0.65858248
0.6583833
0.65824871
0.65819354
0.65823051
0.65837569
0.65866059
0.65913992
0.65985787
0.6607998
0.66186139
0.66299409
0.66410944
0.66515573
0.66389046
0.66130651
0.66045246
0.65978596
0.66566213
0.66495362
0.66425119
0.66358229
0.66296991
0.66243054
0.66197315
0.66159767
0.6612952
0.66104965
0.66084076
0.66064741
0.66045088
0.66023753
0.66000036
0.65973937
0.65946059
0.65917515
0.65889799
0.65864676
0.65843998
0.65829533
0.65822805
0.65825056
0.65837674
0.65863378
0.6590741
0.65974899
0.66065522
0.66168781
0.66278661
0.66384554
0.66474878
0.66326998
0.66128194
0.66045208
0.65979639
0.66575606
0.6650496
0.66434595
0.66367284
0.66305387
0.6625064
0.66204045
0.66165702
0.66134821
0.6610987
0.66088861
0.66069683
0.66050418
0.66029626
0.66006508
0.65980955
0.65953469
0.65925079
0.6589722
0.65871633
0.65850176
0.65834659
0.65826658
0.65827406
0.65838103
0.65861007
0.65900962
0.65963672
0.66050168
0.66150139
0.66256368
0.66356419
0.66433012
0.66267814
0.66125725
0.66045141
0.65980732
0.66585537
0.66515151
0.664447
0.6637698
0.66314411
0.66258819
0.66211314
0.66172112
0.66140529
0.66115119
0.66093943
0.66074895
0.66056018
0.66035792
0.66013316
0.65988366
0.65961334
0.65933155
0.65905195
0.65879161
0.65856914
0.65840302
0.65830957
0.65830139
0.65838895
0.65859018
0.65894785
0.65952244
0.66033955
0.6613016
0.66232452
0.66326523
0.66390199
0.66212952
0.6612309
0.66045033
0.65981872
0.66596034
0.66525971
0.66455475
0.66387363
0.66324115
0.66267644
0.66219175
0.66179044
0.66146684
0.66120746
0.66099348
0.66080396
0.66061898
0.66042258
0.66020467
0.65996182
0.65969673
0.6594177
0.65913761
0.65887307
0.65864265
0.65846516
0.65835757
0.65833296
0.65840084
0.65857475
0.65889034
0.65940818
0.66016978
0.66108817
0.6620685
0.66294879
0.66346671
0.6616456
0.66120433
0.6604488
0.65983057
0.6660712
0.66537453
0.66466963
0.66398486
0.66334554
0.66277174
0.66227684
0.66186551
0.66153334
0.66126788
0.66105102
0.66086204
0.6606807
0.66049032
0.66027969
0.66004411
0.659785
0.65950949
0.65922954
0.6589612
0.65872288
0.65853366
0.65841119
0.65836926
0.65841701
0.65856429
0.65883862
0.65929662
0.65999431
0.66086142
0.66179528
0.66261538
0.66302841
0.66123874
0.66117777
0.66044671
0.65984281
0.6661882
0.66549631
0.6647921
0.66410399
0.66345788
0.66287471
0.66236906
0.66194694
0.66160532
0.6613329
0.6611124
0.66092341
0.66074547
0.66056118
0.66035824
0.66013061
0.6598783
0.65960715
0.6593281
0.65905648
0.65881043
0.65860922
0.65847113
0.65841085
0.6584378
0.65855907
0.65879403
0.65919104
0.65981641
0.66062266
0.66150513
0.6622662
0.66259248
0.66091536
0.66115045
0.66044389
0.65985541
0.66631159
0.66562541
0.66492259
0.66423161
0.66357881
0.66298605
0.6624691
0.66203541
0.66168338
0.66140302
0.66117799
0.66098832
0.66081344
0.66063525
0.66044036
0.66022134
0.65997672
0.6597109
0.65943364
0.65915942
0.65890596
0.6586926
0.6585382
0.65845845
0.65846356
0.65855916
0.65875734
0.65909489
0.65964108
0.66037495
0.66119945
0.66190356
0.66216782
0.66066309
0.66112101
0.6604401
0.65986826
0.66644156
0.66576215
0.66506159
0.66436828
0.66370902
0.6631065
0.66257775
0.66213167
0.66176821
0.66147883
0.66124825
0.66105709
0.66088477
0.66071258
0.66052605
0.66031631
0.66008031
0.65982091
0.65954649
0.65927053
0.65901016
0.65878466
0.65861335
0.65851292
0.65849481
0.65856446
0.65872858
0.65901106
0.65947498
0.66012418
0.66088182
0.66153165
0.66176435
0.66045965
0.66108597
0.66043493
0.65988125
0.66657832
0.66590687
0.66520955
0.66451462
0.66384922
0.66323689
0.66269586
0.66223657
0.66186062
0.661561
0.6613237
0.66113008
0.66095967
0.66079325
0.66061529
0.66041547
0.66018907
0.65993727
0.65966691
0.65939027
0.65912373
0.65888631
0.65869762
0.65857532
0.65853227
0.65857489
0.65870694
0.65894078
0.65932539
0.65987993
0.66055961
0.66115789
0.6613927
0.6602863
0.66104173
0.66042781
0.65989421
0.66672201
0.66605986
0.66536693
0.66467124
0.66400019
0.66337809
0.66282438
0.66235107
0.66196149
0.66165033
0.66140499
0.66120774
0.6610384
0.66087735
0.66070806
0.66051875
0.66030295
0.66006002
0.65979511
0.65951909
0.65924737
0.65899849
0.6587922
0.65864693
0.65857702
0.65859064
0.65869107
0.6588828
0.65919756
0.65965505
0.66024583
0.66079436
0.66106105
0.66013128
0.66098465
0.66041797
0.65990692
0.66687274
0.66622139
0.66553417
0.66483875
0.6641627
0.66353101
0.66296433
0.66247622
0.66207184
0.66174773
0.66149287
0.66129063
0.66112129
0.660965
0.66080431
0.660626
0.66042179
0.66018911
0.65993121
0.65965735
0.65938171
0.65912218
0.65889836
0.65872923
0.65863051
0.65861243
0.65867972
0.65883352
0.65909123
0.65946101
0.65995827
0.66045726
0.66077017
0.65999085
0.66091216
0.66040438
0.65991905
0.66703056
0.66639166
0.66571167
0.66501777
0.66433757
0.66369666
0.66311681
0.6626132
0.66219286
0.66185428
0.66158824
0.66137942
0.66120877
0.66105638
0.66090401
0.66073704
0.66054538
0.66032437
0.66007522
0.65980531
0.65952738
0.65925835
0.65901745
0.65882393
0.65869461
0.65864176
0.65867258
0.65878863
0.65899947
0.65929937
0.65971086
0.66015948
0.66051049
0.65986094
0.66082273
0.66038572
0.65993017
0.66719545
0.66657085
0.66589982
0.66520891
0.66452563
0.66387607
0.66328306
0.66276332
0.66232585
0.66197123
0.66169218
0.66147495
0.6613014
0.66115176
0.66100717
0.66085169
0.66067342
0.66046552
0.660227
0.65996312
0.65968489
0.65940795
0.65915087
0.65893287
0.65877154
0.65868091
0.65867087
0.65874554
0.65891254
0.65915789
0.65949992
0.65989838
0.66026386
0.65973063
0.66071471
0.66036017
0.65993968
0.66736731
0.66675903
0.66609891
0.66541271
0.66472771
0.66407033
0.66346435
0.66292802
0.66247232
0.66210002
0.66180599
0.66157827
0.6613999
0.66125151
0.66111382
0.66096972
0.66080551
0.66061215
0.66038625
0.66013073
0.65985456
0.65957179
0.65929997
0.65905797
0.65886378
0.65873283
0.6586774
0.65870484
0.65882422
0.65901982
0.65930477
0.65965475
0.66001169
0.65958381
0.66058498
0.66032522
0.65994671
0.66754593
0.66695618
0.66630915
0.66562968
0.66494459
0.66428052
0.66366204
0.66310887
0.66263393
0.66224231
0.66193119
0.66169065
0.66150521
0.66135617
0.66122412
0.66109093
0.66094119
0.66076368
0.66055244
0.66030786
0.66003653
0.65975055
0.65946606
0.65920119
0.65897397
0.65880083
0.65869606
0.65867012
0.65873467
0.6588763
0.65910621
0.65940795
0.65974098
0.65940491
0.66042812
0.66027726
0.65995004
0.66773097
0.66716215
0.66653065
0.6658602
0.66517702
0.66450773
0.66387755
0.66330753
0.66281254
0.6624
0.66206958
0.66181367
0.66161853
0.66146653
0.66133836
0.66121516
0.66107997
0.66091937
0.66072483
0.66049394
0.66023062
0.65994461
0.65965023
0.65936441
0.65910481
0.65888842
0.6587312
0.65864645
0.65864864
0.65872834
0.65889786
0.65914747
0.65944522
0.65918524
0.66023692
0.66021116
0.65994784
0.66792195
0.66737664
0.66676335
0.66610455
0.66542564
0.664753
0.66411231
0.6635258
0.66301018
0.66257524
0.66222329
0.66194923
0.66174144
0.66158365
0.66145706
0.66134238
0.66122132
0.66107838
0.66090241
0.66068806
0.66043627
0.66015402
0.6598533
0.65954937
0.65925897
0.65899923
0.65878737
0.65863928
0.6585723
0.65858169
0.65868245
0.65887213
0.65912258
0.65892206
0.66000327
0.66011972
0.65993731
0.66811821
0.66759915
0.66700702
0.66636283
0.66569095
0.66501729
0.66436775
0.66376553
0.66322905
0.66277046
0.66239477
0.66209964
0.66187587
0.66170898
0.66158107
0.66147278
0.66136481
0.66123977
0.66108394
0.66088893
0.66065245
0.66037832
0.66007567
0.65975747
0.659439
0.65913692
0.65886923
0.65865415
0.65851188
0.6584428
0.65846551
0.65858512
0.65877435
0.658615
0.65971895
0.65999299
0.65991403
0.66831893
0.66782902
0.66726121
0.66663493
0.66597327
0.66530143
0.66464524
0.66402861
0.66347151
0.66298833
0.66258685
0.66226766
0.66202432
0.6618445
0.66171168
0.66160688
0.66151017
0.66140258
0.66126796
0.66109489
0.66087762
0.66061644
0.66031711
0.65998968
0.65964721
0.65930517
0.65898173
0.65869695
0.6584738
0.65831818
0.65825301
0.65829102
0.65840431
0.65826544
0.65937633
0.6598176
0.65987085
0.66852304
0.66806529
0.66752521
0.66692046
0.66627267
0.66560601
0.66494597
0.66431689
0.66373998
0.66323176
0.66280273
0.66245655
0.66218981
0.66199277
0.66185076
0.66174568
0.66165748
0.66156598
0.6614529
0.66130386
0.66110959
0.66086654
0.66057659
0.66024617
0.65988533
0.65950747
0.65913003
0.6587742
0.65846537
0.65821515
0.65805162
0.65799536
0.65801815
0.65787852
0.65896978
0.65957689
0.65979598
0.66872925
0.66830677
0.667798
0.66721872
0.66658887
0.66593136
0.66527096
0.66463209
0.66403693
0.66350384
0.66304596
0.66267009
0.66237605
0.6621571
0.66200092
0.66189088
0.66180734
0.66172945
0.66163719
0.66151349
0.6613456
0.66112592
0.66085203
0.66052607
0.66015421
0.65974676
0.6593193
0.65889307
0.65849516
0.65814274
0.6578698
0.65770525
0.65762275
0.65746233
0.65849742
0.6592525
0.65967007
0.66893603
0.66855194
0.66807821
0.66752861
0.66692122
0.66627739
0.66562086
0.66497572
0.66436472
0.66380776
0.66332041
0.66291256
0.66258744
0.66234165
0.66216571
0.66204506
0.66196113
0.66189303
0.66181954
0.66172131
0.66158233
0.66139094
0.6611401
0.6608271
0.66045334
0.66002492
0.65955423
0.65906111
0.65857311
0.65811226
0.65771879
0.65743049
0.65722643
0.65702431
0.65796202
0.658828
0.65946255
0.66914156
0.66879897
0.66836407
0.66784858
0.66726854
0.66664352
0.66599583
0.66534885
0.66472546
0.66414665
0.66363012
0.66318871
0.66282911
0.66255151
0.66234975
0.66221195
0.66212132
0.66205764
0.66199922
0.66192499
0.66181611
0.66165705
0.66143607
0.66114519
0.66078028
0.66034206
0.65983825
0.65928553
0.6587101
0.65813738
0.65761342
0.65718492
0.6568405
0.65657068
0.65737101
0.65829359
0.65913056
0.66934377
0.66904566
0.66865338
0.66817656
0.66762911
0.66702853
0.66639545
0.66575204
0.66512082
0.66452341
0.66397918
0.66350363
0.66310686
0.66279278
0.66255894
0.66239672
0.66229182
0.66222555
0.66217654
0.6621228
0.6620433
0.66191908
0.66173389
0.66147431
0.66113014
0.66069572
0.66017258
0.65957219
0.65891711
0.6582338
0.65757249
0.65698786
0.65648182
0.6561108
0.65673644
0.65764952
0.65862661
0.6695403
0.66928949
0.6689435
0.66850994
0.66800051
0.66743049
0.66681848
0.66618505
0.66555182
0.66494045
0.66437146
0.66386257
0.66342702
0.66307249
0.66280049
0.66260613
0.66247836
0.66240082
0.66235344
0.66231424
0.66226086
0.66217166
0.66202638
0.66180638
0.66149516
0.66107997
0.66055484
0.65992396
0.65920358
0.658418
0.65761855
0.65686533
0.65617574
0.65566363
0.65607631
0.65690749
0.65791882
0.66972854
0.66952755
0.66923133
0.66884553
0.66837962
0.66784659
0.66726274
0.66664665
0.6660185
0.66539937
0.66481026
0.66427055
0.66379622
0.6633985
0.66308292
0.66284875
0.66268877
0.66258983
0.66253411
0.66250076
0.66246717
0.66241003
0.66230591
0.66213159
0.66186454
0.66148472
0.66097773
0.66033873
0.65957494
0.65870476
0.65777617
0.65685011
0.65595884
0.65526345
0.65541875
0.65609063
0.65701678
0.66990564
0.66975663
0.66951331
0.66917951
0.66876256
0.66827309
0.66772495
0.66713439
0.66651965
0.66590057
0.66529792
0.66473202
0.66422094
0.66377908
0.66341589
0.66313492
0.66293326
0.66280173
0.66272577
0.66268677
0.66266314
0.66263116
0.66256547
0.66243929
0.66222495
0.6618955
0.66142791
0.66080719
0.66002936
0.65910317
0.65806798
0.65697923
0.65587986
0.65496463
0.65481115
0.65523541
0.6559667
0.67006856
0.66997322
0.66978547
0.6695075
0.66914464
0.66870523
0.66820057
0.66764437
0.66705246
0.66644284
0.66583528
0.66525017
0.66470693
0.66422247
0.66380973
0.6634765
0.6632244
0.66304879
0.66293924
0.66288055
0.66285344
0.66283527
0.66280024
0.66271956
0.66256175
0.6622941
0.66188568
0.66131123
0.66055437
0.65961136
0.6585079
0.65728697
0.65599476
0.65484243
0.65433512
0.65441262
0.65482463
0.67021408
0.67017357
0.67004349
0.66982461
0.66952047
0.66913725
0.66868378
0.66817106
0.66761225
0.6670229
0.66642105
0.66582627
0.66525839
0.66473596
0.66427475
0.66388632
0.66357682
0.6633464
0.66318945
0.66309515
0.66304789
0.66302759
0.66300975
0.66296542
0.66286123
0.66266056
0.66232616
0.66182364
0.66112452
0.6602113
0.65909251
0.65779284
0.65635303
0.65498194
0.65411145
0.65376632
0.65373498
0.67033894
0.6703538
0.67028279
0.67012552
0.66988399
0.66956246
0.66916745
0.66870728
0.66819222
0.66763504
0.66705129
0.66645891
0.66587706
0.6653249
0.66482005
0.66437715
0.66400636
0.6637126
0.66349538
0.66334899
0.66326258
0.66322015
0.66320028
0.66317588
0.66311397
0.66297648
0.66272231
0.66231024
0.6617016
0.66086588
0.65979343
0.6584876
0.65697642
0.6554496
0.65426469
0.65348789
0.65295265
0.67043982
0.67050993
0.67049863
0.67040461
0.67022865
0.66997337
0.66964325
0.66924412
0.66878338
0.66827075
0.66771884
0.66714311
0.66656106
0.66599129
0.66545212
0.66496013
0.66452869
0.66416693
0.66387935
0.66366567
0.66352057
0.66343331
0.66338722
0.66335915
0.66331893
0.66322984
0.66305006
0.66273481
0.6622386
0.66152063
0.66055485
0.6593238
0.65783895
0.6562585
0.6548653
0.65373044
0.65272958
0.67051345
0.67063803
0.67068626
0.67065618
0.67054762
0.67036196
0.67010195
0.66977126
0.66937464
0.66891873
0.66841296
0.66786969
0.66730389
0.66673241
0.66617296
0.66564275
0.6651571
0.66472836
0.66436532
0.66407287
0.66385147
0.66369639
0.66359698
0.66353581
0.6634879
0.66342076
0.66329524
0.66306695
0.66268792
0.66211144
0.66129922
0.66021684
0.65885946
0.65734752
0.65588999
0.65453993
0.65320651
0.67055671
0.67073428
0.67084104
0.67087457
0.67083405
0.67071993
0.6705337
0.67027727
0.66995311
0.66956505
0.66911931
0.66862489
0.66809353
0.66753937
0.6669782
0.66642642
0.66589973
0.66541226
0.66497587
0.66459974
0.66428959
0.66404681
0.66386739
0.66374089
0.66364942
0.66356732
0.66346144
0.66329187
0.66301303
0.66257758
0.66194088
0.66105789
0.65991096
0.65858321
0.65721478
0.65582985
0.65436075
0.67056664
0.67079512
0.67095859
0.67105441
0.67108132
0.67103918
0.67092859
0.67075023
0.67050478
0.67019374
0.66982042
0.66939048
0.66891216
0.66839619
0.6678554
0.66730392
0.66675629
0.66622659
0.66572806
0.66527258
0.66486996
0.6645269
0.66424582
0.66402367
0.66385076
0.66371014
0.66357745
0.66342096
0.66320218
0.66287874
0.66240633
0.66173703
0.6608462
0.65978527
0.65863639
0.65739381
0.65600404
0.67054055
0.67081724
0.6710349
0.67119075
0.6712833
0.67131206
0.67127713
0.67117839
0.67101534
0.67078774
0.67049656
0.67014454
0.66973652
0.66927961
0.66878298
0.66825749
0.66771492
0.66716759
0.66662807
0.66610894
0.66562211
0.66517795
0.66478404
0.664444
0.66415635
0.66391361
0.66370188
0.66350041
0.66328173
0.66301334
0.66265793
0.66217267
0.66153299
0.66076729
0.65991444
0.65894646
0.65781834
0.67047604
0.67079773
0.6710664
0.67127921
0.67143456
0.67153179
0.67157074
0.67155092
0.67147117
0.67133017
0.67112727
0.67086298
0.67053933
0.67016002
0.66973053
0.66925783
0.66874998
0.66821598
0.66766584
0.66711057
0.66656179
0.66603108
0.66552897
0.66506381
0.66464091
0.66426154
0.66392242
0.663615
0.66332524
0.66303425
0.6627171
0.662343
0.66189449
0.6613869
0.66083157
0.6601907
0.65942604
0.67037102
0.67073407
0.67105002
0.67131605
0.67153048
0.6716926
0.67180215
0.67185852
0.6718603
0.67180568
0.67169314
0.67152181
0.67129171
0.67100394
0.67066075
0.67026538
0.66982185
0.66933498
0.66881079
0.66825678
0.66768187
0.66709606
0.66650983
0.66593335
0.66537586
0.66484498
0.66434628
0.66388262
0.66345374
0.66305601
0.66268039
0.66231301
0.66194911
0.6616008
0.66126662
0.66091
0.66050026
0.6702238
0.67062417
0.67098323
0.67129817
0.6715673
0.67178986
0.67196557
0.67209379
0.67217313
0.67220169
0.67217766
0.67209957
0.67196643
0.67177773
0.67153349
0.67123405
0.67087988
0.67047169
0.67001099
0.66950063
0.66894502
0.66835014
0.6677234
0.66707328
0.66640914
0.66574102
0.66507962
0.66443608
0.66382159
0.66324678
0.66271939
0.66224481
0.66183459
0.6615059
0.66125715
0.66106074
0.6608945
0.67003306
0.67046641
0.67086401
0.67122313
0.67154205
0.67181999
0.67205661
0.6722513
0.67240271
0.67250903
0.67256849
0.67257961
0.67254113
0.67245201
0.67231122
0.67211746
0.67186885
0.67156298
0.67119745
0.67077054
0.6702816
0.66973124
0.66912158
0.66845639
0.66774126
0.66698404
0.6661955
0.66538969
0.66458415
0.66379945
0.66305737
0.6623813
0.66180025
0.66134274
0.66101759
0.66081308
0.66071781
0.66979795
0.67025963
0.67069094
0.67108912
0.67145252
0.6717803
0.67207209
0.67232726
0.67254444
0.67272187
0.67285789
0.6729512
0.67300074
0.67300562
0.67296477
0.67287658
0.6727383
0.67254602
0.67229499
0.67198023
0.67159695
0.67114076
0.67060804
0.66999638
0.66930507
0.66853602
0.66769502
0.66679288
0.66584638
0.66487858
0.66391815
0.66300022
0.66216746
0.66146179
0.6609092
0.66052009
0.66029991
0.66951811
0.67000322
0.67046312
0.67089502
0.67129724
0.67166895
0.67200979
0.67231909
0.67259541
0.67283691
0.6730419
0.67320915
0.6733378
0.67342732
0.67347714
0.67348615
0.67345204
0.67337096
0.67323772
0.6730462
0.67278957
0.67246042
0.672051
0.67155366
0.67096143
0.6702691
0.66947474
0.66858136
0.66759855
0.66654356
0.66544209
0.66432989
0.66325291
0.66225982
0.66139107
0.66067792
0.66014516
0.66919379
0.6696971
0.67018029
0.67064034
0.6710755
0.67148493
0.67186833
0.67222506
0.67255366
0.67285216
0.67311868
0.67335177
0.67355051
0.67371448
0.67384349
0.67393709
0.67399388
0.67401107
0.67398445
0.67390867
0.67377724
0.67358246
0.67331544
0.6729663
0.67252459
0.67198017
0.67132457
0.6705527
0.66966461
0.66866703
0.66757503
0.66641419
0.66522087
0.66403723
0.66290472
0.66186174
0.66094041
0.66882608
0.66934189
0.66984282
0.67032534
0.67078742
0.67122815
0.67164728
0.67204434
0.67241797
0.67276618
0.67308689
0.67337833
0.67363919
0.67386872
0.67406661
0.67423259
0.67436586
0.67446461
0.67452596
0.67454616
0.67452052
0.67444315
0.67430682
0.67410287
0.67382139
0.67345168
0.67298322
0.67240695
0.6717167
0.67091055
0.66999256
0.66897469
0.66787726
0.66672664
0.6655523
0.66438353
0.66324155
0.66841729
0.66893905
0.66945172
0.6699509
0.67043391
0.67089952
0.67134745
0.67177737
0.67218822
0.6725782
0.67294526
0.67328746
0.67360307
0.6738908
0.67414976
0.67437923
0.67457823
0.6747451
0.67487757
0.67497298
0.67502831
0.67503986
0.67500312
0.67491258
0.67476166
0.6745429
0.67424847
0.67387093
0.67340408
0.67284381
0.67218922
0.67144378
0.67061558
0.66971657
0.66876204
0.66776682
0.66673462
0.66797172
0.66849151
0.66900899
0.66951856
0.67001649
0.67050081
0.67097082
0.67142622
0.67186618
0.67228927
0.6726938
0.67307799
0.67344006
0.6737784
0.67409157
0.67437816
0.67463647
0.67486421
0.67505865
0.67521697
0.67533648
0.67541445
0.67544809
0.67543443
0.67537029
0.67525235
0.67507741
0.67484278
0.67454667
0.67418848
0.67376916
0.67329147
0.67275966
0.67217935
0.67155776
0.67090012
0.67019889
0.66749687
0.66800463
0.66851829
0.66903085
0.66953721
0.67003415
0.67052009
0.67099424
0.67145572
0.67190332
0.67233579
0.67275181
0.67315003
0.67352905
0.67388742
0.67422348
0.67453505
0.67481914
0.67507213
0.67529021
0.67546978
0.6756075
0.67570033
0.67574571
0.67574169
0.67568707
0.67558166
0.67542658
0.67522448
0.67497959
0.67469759
0.6743851
0.67404899
0.67369616
0.67333356
0.67296507
0.67258263
0.66700514
0.66748802
0.66798654
0.66849244
0.66899917
0.66950195
0.6699978
0.67048487
0.67096159
0.67142648
0.67187832
0.67231616
0.67273918
0.6731466
0.67353756
0.67391092
0.67426484
0.67459645
0.67490191
0.67517682
0.67541667
0.675617
0.67577355
0.67588253
0.67594098
0.67594701
0.67590023
0.67580208
0.67565618
0.67546833
0.67524642
0.67499974
0.67473821
0.67447206
0.67421149
0.6739641
0.67372805
0.66695789
0.66742652
0.66791263
0.66840852
0.66890793
0.66940632
0.66990032
0.67038706
0.67086403
0.67132932
0.67178167
0.67222027
0.67264471
0.67305477
0.67345014
0.67383004
0.67419266
0.67453512
0.67485368
0.67514422
0.6754023
0.67562331
0.6758027
0.67593636
0.6760209
0.67605412
0.67603535
0.6759659
0.6758492
0.67569077
0.6754978
0.67527867
0.67504284
0.67480058
0.67456069
0.67432484
0.66643937
0.66686012
0.6673092
0.66777853
0.66826093
0.66875059
0.66924271
0.66973291
0.67021715
0.67069213
0.67115536
0.67160514
0.67204048
0.672461
0.67286666
0.67325742
0.67363264
0.67399085
0.67432987
0.67464715
0.67493986
0.67520481
0.67543865
0.67563806
0.67579998
0.67592188
0.67600203
0.67603983
0.676036
0.67599253
0.67591251
0.67579987
0.67565972
0.67549842
0.67532165
0.67512852
0.66596769
0.66632089
0.66671256
0.66713507
0.66758125
0.66804482
0.6685202
0.66900195
0.66948469
0.66996356
0.67043445
0.67089403
0.67133979
0.67177002
0.67218376
0.67258046
0.67295958
0.6733202
0.67366112
0.67398113
0.67427915
0.67455408
0.67480487
0.67503055
0.67523035
0.67540376
0.67555068
0.67567139
0.6757667
0.67583778
0.67588599
0.67591272
0.67591989
0.67591045
0.67588692
0.67584519
0.66558668
0.66585408
0.66616762
0.66652087
0.66690747
0.66732161
0.66775792
0.66821082
0.66867449
0.66914322
0.6696117
0.67007512
0.67052929
0.67097067
0.67139651
0.67180462
0.67219318
0.67256036
0.67290434
0.6732237
0.67351758
0.67378568
0.67402818
0.67424582
0.67443984
0.67461199
0.67476455
0.67490014
0.67502161
0.67513184
0.6752334
0.67532843
0.67541899
0.67550775
0.67559703
0.67568335
0.66534388
0.66551233
0.66573095
0.6659948
0.66629876
0.66663808
0.66700833
0.66740478
0.66782219
0.66825514
0.66869825
0.66914629
0.66959422
0.67003738
0.67047152
0.67089286
0.67129791
0.67168324
0.67204547
0.67238158
0.67268927
0.67296711
0.67321447
0.67343164
0.67361983
0.67378104
0.67391809
0.6740345
0.67413425
0.67422149
0.67430024
0.6743741
0.67444653
0.67452147
0.67460264
0.67468909
0.66528316
0.66534747
0.66546214
0.66562367
0.66582813
0.66607187
0.6663516
0.66666377
0.6670043
0.66736885
0.66775297
0.66815217
0.6685619
0.66897768
0.66939512
0.66981002
0.67021827
0.67061568
0.67099785
0.67136045
0.67169958
0.6720121
0.67229559
0.67254849
0.67277021
0.67296112
0.67312247
0.67325635
0.67336555
0.67345336
0.67352324
0.67357865
0.67362326
0.6736614
0.67369733
0.67373115
0.66543733
0.66540114
0.66541221
0.66546842
0.66556692
0.66570488
0.66587979
0.66608906
0.66632959
0.66659804
0.66689106
0.6672053
0.66753738
0.6678839
0.66824149
0.66860684
0.66897665
0.6693475
0.66971565
0.67007704
0.67042766
0.67076384
0.67108239
0.6713806
0.67165634
0.67190813
0.67213519
0.67233737
0.67251515
0.67266946
0.67280154
0.67291287
0.67300546
0.67308234
0.6731466
0.67319701
0.66582326
0.66569831
0.6656147
0.6655719
0.66556827
0.66560182
0.66567069
0.66577281
0.66590561
0.66606621
0.66625173
0.66645943
0.66668664
0.66693084
0.66718965
0.66746083
0.66774237
0.66803229
0.66832852
0.66862871
0.66893033
0.6692309
0.66952815
0.66982008
0.67010489
0.67038103
0.67064717
0.67090226
0.67114548
0.67137618
0.67159381
0.67179786
0.67198835
0.67216643
0.67233359
0.67248698
0.66643982
0.66624527
0.66608302
0.66595455
0.66585994
0.66579849
0.66576933
0.66577117
0.66580201
0.66585924
0.66594008
0.66604172
0.66616145
0.66629671
0.66644518
0.6666048
0.66677388
0.66695108
0.66713531
0.66732558
0.6675209
0.66772039
0.6679233
0.66812915
0.66833761
0.6685485
0.66876165
0.66897694
0.66919419
0.66941316
0.66963339
0.66985424
0.67007518
0.6702966
0.67051958
0.67074192
0.66726513
0.66702853
0.66681158
0.66661775
0.66644914
0.66630688
0.66619174
0.66610402