/*--------------------------------*- C++ -*----------------------------------*\
| =========                 |                                                 |
| \\      /  F ield         | OpenFOAM: The Open Source CFD Toolbox           |
|  \\    /   O peration     | Version:  2506                                  |
|   \\  /    A nd           | Website:  www.openfoam.com                      |
|    \\/     M anipulation  |                                                 |
\*---------------------------------------------------------------------------*/
FoamFile
{
    version     2.0;
    format      ascii;
    arch        "LSB;label=32;scalar=64";
    class       volVectorField;
    location    "2.6";
    object      wallShearStress;
}
// * * * * * * * * * * * * * * * * * * * * * * * * * * * * * * * * * * * * * //

dimensions      [1 -1 -2 0 0 0 0];

internalField   uniform (0 0 0);

boundaryField
{
    Side
    {
        type            empty;
    }
    Inlet
    {
        type            calculated;
        value           uniform (0 0 0);
    }
    Airfoil
    {
        type            calculated;
        value           nonuniform List<vector> 
33
(
(-5.9297612 1.0908045 -2.2289357e-18)
(-6.9767973 0.20344237 2.7780027e-18)
(-7.2783511 0.98997036 -1.0682893e-34)
(-7.5152221 0.41922649 1.8063017e-18)
(-7.6026216 1.0098138 -1.9116004e-18)
(-7.7415628 0.28854001 3.9490626e-18)
(-7.7623478 1.0231605 -2.4074124e-35)
(-7.885653 0.16925378 3.6111186e-35)
(-7.7749619 1.1599052 1.641469e-18)
(-7.9106647 -0.35140696 -5.6008094e-19)
(-7.7325702 1.4116829 -2.7146264e-20)
(-7.95972 -0.97857572 -1.2116161e-18)
(-8.0160463 1.248459 1.8475073e-18)
(-8.0474373 -0.69395086 6.1488544e-19)
(-8.085434 0.39070649 -5.7883614e-19)
(-7.841401 0.19652194 6.298752e-19)
(-7.6463996 0.38970726 -1.574726e-21)
(-7.724324 -0.97009181 -3.378529e-19)
(-7.6079866 0.81671899 -3.5677405e-19)
(-7.502499 -0.82715044 5.2049743e-19)
(-7.6029913 -0.16996778 -8.670262e-20)
(-7.3948173 -0.41412171 1.3165537e-36)
(-7.3080826 -0.27526233 3.8430782e-19)
(-7.1889833 -0.52595858 -1.9737978e-19)
(-7.0954187 -0.65208634 -4.3227981e-19)
(-6.9491941 -0.66188609 -2.1324087e-19)
(-6.9401232 -0.98655736 -1.0195494e-19)
(-6.8755078 -0.81601847 1.0004072e-19)
(-6.6836728 -0.87407457 -4.1968388e-19)
(-6.4812676 -0.92721122 -4.0751524e-19)
(-6.4081203 -1.377481 -7.2068404e-19)
(-6.4192855 -1.2950261 2.2567428e-19)
(-6.1976796 -1.2185599 6.3072986e-21)
)
;
    }
    Outlet
    {
        type            calculated;
        value           nonuniform List<vector> 0();
    }
    procBoundary8to1
    {
        type            processor;
        value           uniform (0 0 0);
    }
    procBoundary8to7
    {
        type            processor;
        value           uniform (0 0 0);
    }
    procBoundary8to9
    {
        type            processor;
        value           uniform (0 0 0);
    }
}


// ************************************************************************* //
