/*--------------------------------*- C++ -*----------------------------------*\
| =========                 |                                                 |
| \\      /  F ield         | OpenFOAM: The Open Source CFD Toolbox           |
|  \\    /   O peration     | Version:  2506                                  |
|   \\  /    A nd           | Website:  www.openfoam.com                      |
|    \\/     M anipulation  |                                                 |
\*---------------------------------------------------------------------------*/
FoamFile
{
    version     2.0;
    format      ascii;
    arch        "LSB;label=32;scalar=64";
    class       volScalarField;
    location    "0.85";
    object      Cp;
}
// * * * * * * * * * * * * * * * * * * * * * * * * * * * * * * * * * * * * * //

dimensions      [0 0 0 0 0 0 0];

internalField   nonuniform List<scalar> 
1375
(
0.018705523
0.018693993
0.018681377
0.018668889
0.018657434
0.018647732
0.018643121
0.018648859
0.018650413
0.018648806
0.018644514
0.018638291
0.018630829
0.018622052
0.01861275
0.018604414
0.018597879
0.018594245
0.018593874
0.01859632
0.018605905
0.018625139
0.018650591
0.018684012
0.018725896
0.018432672
0.018452195
0.018467803
0.018481478
0.018493266
0.018503049
0.018510708
0.018516203
0.018519319
0.018520266
0.018519985
0.01851893
0.018518245
0.018519533
0.018521156
0.018523294
0.018531767
0.018547997
0.018571936
0.018602533
0.018639297
0.018682707
0.018731636
0.018788351
0.018852769
0.018922781
0.019001021
0.018177333
0.018202719
0.018226578
0.018251179
0.018275315
0.018297774
0.018318273
0.018336797
0.018352416
0.018365177
0.018374097
0.018380049
0.018384458
0.01838862
0.018391915
0.01839463
0.018398016
0.018403775
0.018413446
0.018427818
0.018447211
0.018472607
0.018505546
0.018549035
0.018603224
0.018672008
0.018757007
0.018870183
0.019003692
0.0191591
0.019343048
0.019575605
0.019767193
0.019843502
0.017995821
0.018001386
0.018008409
0.018020664
0.018037813
0.018058599
0.018081668
0.01810655
0.018135456
0.018159686
0.018181318
0.018204437
0.018218074
0.018227901
0.018236664
0.018245034
0.018253403
0.018262765
0.018274339
0.018288782
0.018306249
0.018327067
0.018353119
0.018386073
0.018426008
0.018480289
0.018553488
0.018649509
0.018772564
0.018929856
0.01913874
0.019373562
0.019597642
0.019782542
0.019836857
0.019731909
0.019495859
0.019281918
0.018017807
0.017992258
0.017968863
0.017952147
0.017943611
0.017944029
0.017953174
0.017966544
0.01797919
0.017997006
0.018018641
0.018037026
0.018066273
0.018099044
0.018123023
0.018144418
0.018166285
0.018189658
0.018215777
0.018244885
0.018277153
0.018311582
0.018347475
0.018383563
0.01841697
0.018447231
0.018481701
0.018531459
0.018609848
0.018731894
0.01890955
0.019141919
0.019414454
0.019662617
0.019815196
0.019824958
0.019635772
0.019357396
0.019293269
0.019589177
0.020085271
0.018151805
0.018111794
0.018070698
0.018032435
0.017998669
0.017970519
0.017949542
0.017937277
0.017937604
0.017951446
0.017973702
0.018000198
0.018028939
0.018062846
0.018101218
0.018140355
0.018180466
0.018223724
0.018271492
0.018324813
0.018381724
0.01843846
0.018490892
0.018533763
0.018564461
0.018578827
0.018573173
0.018557429
0.018555397
0.018592947
0.018696637
0.018889642
0.019158823
0.019459288
0.019714797
0.019836256
0.019757303
0.019515
0.019318264
0.019430363
0.019830044
0.020315878
0.02074968
0.021130588
0.018318016
0.018283292
0.018243201
0.018200376
0.018156582
0.0181138
0.018074575
0.018045021
0.018026491
0.0180187
0.018023817
0.018043324
0.018072458
0.018109152
0.018159681
0.018218494
0.018282021
0.0183484
0.018417953
0.018490521
0.018564005
0.01863499
0.018700259
0.018750253
0.018779207
0.018789625
0.018775866
0.018727724
0.01865484
0.018584789
0.018563499
0.018653073
0.018873826
0.019195005
0.019526089
0.019753776
0.019825501
0.019669446
0.019402542
0.019348347
0.019600116
0.019999322
0.0204465
0.020833926
0.02111091
0.021197412
0.018436508
0.018421882
0.018401153
0.018374929
0.018343137
0.018306532
0.018267382
0.018229051
0.018195624
0.018172277
0.018160996
0.018164915
0.01818453
0.01821941
0.018270285
0.018335866
0.01841278
0.018496947
0.018584238
0.018671132
0.018755754
0.018838327
0.018915431
0.018977731
0.019022877
0.019037866
0.019030859
0.018992735
0.018875003
0.018705838
0.018575523
0.018522242
0.018626667
0.018894136
0.019243323
0.019576916
0.01977681
0.019737838
0.019480254
0.019301358
0.019420085
0.019699443
0.020106003
0.020525887
0.02087297
0.021027884
0.021111244
0.021316398
0.018478848
0.0184865
0.018490264
0.018489893
0.018484077
0.018471525
0.018452092
0.01842702
0.018399579
0.018373652
0.018353676
0.018343999
0.018347677
0.018367142
0.018404437
0.018460239
0.018533408
0.018621264
0.018720291
0.018826958
0.018937378
0.019044571
0.019140932
0.019222095
0.019283709
0.019310244
0.019290314
0.019208351
0.019076227
0.018895369
0.018680432
0.018500085
0.018458083
0.018610062
0.018923008
0.019308437
0.019603968
0.01966387
0.019481713
0.019273614
0.019278162
0.019461403
0.019773812
0.020213256
0.020600201
0.020752569
0.020944751
0.021161039
0.021214489
0.01846476
0.01849106
0.018516859
0.01854082
0.018561086
0.018576133
0.018584834
0.018586359
0.018580716
0.018569743
0.01855694
0.018545881
0.018540903
0.018546281
0.018566314
0.018604522
0.018663353
0.018742338
0.018838909
0.018948466
0.019065058
0.019180583
0.019288626
0.019386071
0.019456564
0.019493372
0.019479148
0.019410919
0.019296589
0.01911868
0.018862093
0.018569359
0.018368187
0.018379267
0.018635131
0.019000807
0.019354578
0.019521791
0.019419171
0.019199301
0.019119833
0.019275762
0.019497799
0.019896974
0.020285767
0.020477211
0.020696611
0.020924858
0.020958274
0.018416393
0.018455928
0.018496583
0.01853723
0.018577603
0.018615986
0.018650588
0.018679393
0.018701221
0.018715647
0.018722958
0.018724944
0.018724553
0.018725641
0.018732843
0.018751623
0.018786779
0.018842517
0.018920872
0.019019964
0.01913375
0.019254239
0.019371043
0.019472931
0.019551165
0.019595421
0.019603193
0.019573923
0.01947713
0.019274468
0.019004309
0.018723906
0.018433914
0.018298776
0.018399098
0.018709384
0.01905066
0.019275513
0.019269076
0.019086549
0.018972687
0.019085076
0.01925726
0.019580337
0.019959966
0.020213339
0.020418458
0.020658301
0.020847214
0.01833148
0.018380909
0.018431639
0.018485171
0.018540567
0.018596493
0.018651099
0.018702976
0.018750121
0.018790744
0.018823362
0.018847398
0.018863736
0.018874253
0.018881699
0.018890176
0.018905138
0.01893291
0.018978945
0.019047037
0.019137541
0.019244341
0.01935729
0.019464523
0.019554043
0.019618956
0.019647107
0.019624669
0.019549232
0.019423025
0.019206256
0.018889541
0.018567529
0.018345265
0.018279542
0.018448554
0.018708891
0.018962309
0.019028953
0.018923967
0.01883184
0.018921479
0.019052661
0.019287943
0.01961275
0.01992254
0.020156277
0.020443231
0.020822416
0.018230179
0.018280156
0.018330876
0.018387335
0.018449087
0.0185147
0.018582699
0.018651026
0.018717458
0.018779645
0.018835136
0.018882284
0.018919872
0.018947996
0.018967481
0.018979758
0.018987922
0.01899701
0.019013917
0.019045408
0.019097633
0.019173944
0.019271744
0.019380145
0.019482441
0.019563431
0.019612415
0.019620122
0.019584381
0.019499446
0.019339108
0.019062009
0.018724321
0.018414715
0.018264339
0.018237011
0.018382123
0.018647965
0.018739668
0.018682031
0.018670508
0.018747435
0.018884561
0.019050015
0.019295554
0.019653871
0.019974943
0.020290493
0.020720067
0.018115517
0.018160169
0.018203335
0.018254094
0.018312849
0.018378665
0.018450434
0.018526614
0.018605036
0.018682947
0.018757094
0.018823856
0.018880611
0.018925617
0.018958309
0.018979779
0.018992177
0.018998423
0.019001865
0.019008477
0.019028433
0.019071278
0.019140088
0.01923299
0.019338946
0.019438654
0.01951655
0.019560991
0.019560357
0.019505576
0.019387136
0.019189948
0.018889892
0.018547447
0.018237332
0.018102168
0.018203243
0.018327686
0.018431592
0.018503007
0.018527742
0.018577768
0.018720531
0.018859549
0.019054539
0.019396016
0.019730724
0.020100606
0.020617923
0.01798116
0.018019599
0.018052931
0.018093718
0.018143155
0.018201402
0.018268536
0.018343866
0.018425687
0.018511276
0.018596894
0.018678578
0.018752541
0.018815395
0.018864978
0.018900687
0.018923047
0.018933974
0.018936292
0.018933514
0.018935193
0.018952907
0.018994171
0.019063983
0.019159916
0.01927137
0.019376268
0.019454514
0.019490249
0.019467312
0.019382767
0.019223084
0.018973799
0.018647075
0.018310646
0.018109125
0.018065402
0.018122351
0.018292863
0.0183609
0.018262407
0.01833683
0.018571679
0.018732317
0.018900444
0.019148545
0.019453788
0.019932031
0.020494581
0.017825411
0.017859968
0.017885745
0.017917422
0.017956218
0.018003153
0.018059299
0.018125114
0.01820027
0.01828347
0.018371945
0.018461707
0.018548566
0.01862854
0.018697855
0.018753473
0.018793798
0.018817612
0.018826107
0.018823989
0.018820448
0.01882613
0.018848873
0.018896076
0.018975483
0.019082759
0.01920053
0.019306803
0.019377192
0.01938942
0.019335748
0.019218604
0.019020073
0.018743322
0.018440402
0.018186717
0.01803618
0.018030777
0.018104581
0.018019922
0.01797261
0.018171938
0.018477204
0.018654654
0.018811229
0.019028553
0.019320877
0.019769984
0.020320771
0.017662737
0.017694395
0.017713976
0.017737601
0.017765706
0.017799565
0.017841126
0.017891918
0.017952866
0.01802427
0.018105175
0.018193038
0.018284126
0.018374107
0.018458426
0.018532811
0.018594207
0.018640053
0.01866909
0.018684312
0.018691471
0.018698736
0.018714276
0.018746337
0.018807048
0.018899682
0.01901769
0.019139508
0.019240085
0.019291429
0.019275332
0.019189413
0.019034532
0.018816043
0.01854446
0.018241288
0.0180113
0.017911878
0.017863743
0.017819939
0.017846492
0.01803932
0.018352123
0.018640148
0.018808097
0.018974885
0.019209437
0.019609394
0.020142741
0.017498964
0.017525927
0.017538889
0.017555309
0.017574573
0.017597569
0.017626
0.01766168
0.017706429
0.017761835
0.017828716
0.017906667
0.017993478
0.018085339
0.018177604
0.018265383
0.018344258
0.018412331
0.018466658
0.018504875
0.01853193
0.018557075
0.018582769
0.018616261
0.018669509
0.018749613
0.018859124
0.018988958
0.01911172
0.019199471
0.019225464
0.019176619
0.019047412
0.018857685
0.018616973
0.018335421
0.018078923
0.017896186
0.017809197
0.017750106
0.01765714
0.017840901
0.01823026
0.018626268
0.018802706
0.018933982
0.019145407
0.019513188
0.0199754
0.017361078
0.017376813
0.017379075
0.017385807
0.017395354
0.017408393
0.017426093
0.01744975
0.017481104
0.017522114
0.017574342
0.017638792
0.017715212
0.017801587
0.017894227
0.0179887
0.018079814
0.018163975
0.018238281
0.018298096
0.018346748
0.018391006
0.018435179
0.018485444
0.018547814
0.0186319
0.018740829
0.018874486
0.019013235
0.019130679
0.019194099
0.019180674
0.019078046
0.018895989
0.018669489
0.018422955
0.018161306
0.017949648
0.017808904
0.017647676
0.017522122
0.017672035
0.01813138
0.018582089
0.018781799
0.018935715
0.019095924
0.019453608
0.019829509
0.017309531
0.01730529
0.017288812
0.017277545
0.017270148
0.01726742
0.017270158
0.017279402
0.017296418
0.017322848
0.017360331
0.017410404
0.017473945
0.01755028
0.017636918
0.017730524
0.0178268
0.017920743
0.018009258
0.018088769
0.01815729
0.018218072
0.018278655
0.018347512
0.018429061
0.018525868
0.018645953
0.018790111
0.018945785
0.019086975
0.019179911
0.019196885
0.019115907
0.018941625
0.018719785
0.018474163
0.018210877
0.017981461
0.017819059
0.017670929
0.01756533
0.017621495
0.017941915
0.018458236
0.018776344
0.018965321
0.019057811
0.019425537
0.01970691
0.017390054
0.017363678
0.017326334
0.017293714
0.017263718
0.017237101
0.017215737
0.017201293
0.017195176
0.017199225
0.017215704
0.017245578
0.017290041
0.01734976
0.01742349
0.017508708
0.017602024
0.017699589
0.017795768
0.017885344
0.017968372
0.018046104
0.01812236
0.01820611
0.018305717
0.018424326
0.018561452
0.018718153
0.018889984
0.019047948
0.019165461
0.019210276
0.019153667
0.018990043
0.018754568
0.018490458
0.018223705
0.018004786
0.017881321
0.017795171
0.017628544
0.017540932
0.017760637
0.018385944
0.018808291
0.019052242
0.019104787
0.019391259
0.019574818
0.017575675
0.017535033
0.017483545
0.017433649
0.017384446
0.017336801
0.017291926
0.017251676
0.017218187
0.01719361
0.017179499
0.017178942
0.017193185
0.017224336
0.017274048
0.017341398
0.017423439
0.017515578
0.017612028
0.017708329
0.01780187
0.017890934
0.017980431
0.018076383
0.018185458
0.018314595
0.018464747
0.018637174
0.018822946
0.019000881
0.01914578
0.019218388
0.019188152
0.019036875
0.018793925
0.018522683
0.018273567
0.018073553
0.017963811
0.017909714
0.017741324
0.017604845
0.017713287
0.018292601
0.018799299
0.019169247
0.019104807
0.019313663
0.019454331
0.017808445
0.017763347
0.01770826
0.017652417
0.017594503
0.017533802
0.017471267
0.017407843
0.017346099
0.017290227
0.017243091
0.017208512
0.017192344
0.01719386
0.017212595
0.017250491
0.017308827
0.017386223
0.017474326
0.017567505
0.017665556
0.017763905
0.017861777
0.017969952
0.018092211
0.018224708
0.018375673
0.018550339
0.018741878
0.018936149
0.019100976
0.019206264
0.019213521
0.019092086
0.018857047
0.018578355
0.018334431
0.018150535
0.018050526
0.018029707
0.017972358
0.017761172
0.017660323
0.018083416
0.018802038
0.019245407
0.01913213
0.019184778
0.019345475
0.018044404
0.017997354
0.017942828
0.017888939
0.017830362
0.017767759
0.017701644
0.017630666
0.01755512
0.017476214
0.017402815
0.017337938
0.017282226
0.017244619
0.017228679
0.01723435
0.017262774
0.017315031
0.017388346
0.017474941
0.01757079
0.017677359
0.017786285
0.017896422
0.018027408
0.01817464
0.018329197
0.018495385
0.018680016
0.018875527
0.019049897
0.019181113
0.019231073
0.019166674
0.018972545
0.018706436
0.018445787
0.018261936
0.018158334
0.018145324
0.018153247
0.017902354
0.017744632
0.018035664
0.018755863
0.019261457
0.019205072
0.019054123
0.019268358
0.018067591
0.018004673
0.017937098
0.017864173
0.017787901
0.017709893
0.01762978
0.017550583
0.017475597
0.017405715
0.017351974
0.017322316
0.017314874
0.017331323
0.01737606
0.017447532
0.017536527
0.017638487
0.017756807
0.017884535
0.018010343
0.018154703
0.018313533
0.018478618
0.0186542
0.018840534
0.019023837
0.019177476
0.019269191
0.019259254
0.019118574
0.018888516
0.018638963
0.018448288
0.018317986
0.018281646
0.018303624
0.018106581
0.017934635
0.018060404
0.018615597
0.019240837
0.019273342
0.018988607
0.019205747
0.017972053
0.01789234
0.017809024
0.017726923
0.017652577
0.017587197
0.017529295
0.017486034
0.017466045
0.017471019
0.017503954
0.017564629
0.017651606
0.017763818
0.017897799
0.018035985
0.018179761
0.018338941
0.018507331
0.018677228
0.018854329
0.019033041
0.019198495
0.019321201
0.019364019
0.019277064
0.019082644
0.018859095
0.018675979
0.018539256
0.018493265
0.018477748
0.018334536
0.018117266
0.018093589
0.018495663
0.019160203
0.019313693
0.01898689
0.019097618
0.017807498
0.017747142
0.017699253
0.017670135
0.017664884
0.017691176
0.017750662
0.017830634
0.017936196
0.018078838
0.018234738
0.018395718
0.018569793
0.018750157
0.018922575
0.019094759
0.019257639
0.019390198
0.019465669
0.019439558
0.019300864
0.019106371
0.018932057
0.018807633
0.018736053
0.018676319
0.018570102
0.01830421
0.018174536
0.018447657
0.019036475
0.019272297
0.019034621
0.01899183
0.017952152
0.017939231
0.017947706
0.017988545
0.018059972
0.018170352
0.018322126
0.018487419
0.018667147
0.018859157
0.019043552
0.019217834
0.019379779
0.019520718
0.019610965
0.01962183
0.019515318
0.0193352
0.019175252
0.019073884
0.018994399
0.018923022
0.018808861
0.018504595
0.018252857
0.018366193
0.01885866
0.019190168
0.019158655
0.018923342
0.018294181
0.018355247
0.018460227
0.018610345
0.018797349
0.018992607
0.019187331
0.019372375
0.019537725
0.019678921
0.019773077
0.019799092
0.019709694
0.019542384
0.019386973
0.019290788
0.019217126
0.019164258
0.019018878
0.018698451
0.018325453
0.018284582
0.018673478
0.019101134
0.019254309
0.018865958
0.018940874
0.019115731
0.019310875
0.019505344
0.019678446
0.019822807
0.019925569
0.019960058
0.01988752
0.019729582
0.019568936
0.019456652
0.01939777
0.019354731
0.019226596
0.018909592
0.01843612
0.018254187
0.018513022
0.018965526
0.019282479
0.018815156
0.019581168
0.019754353
0.019918022
0.020041024
0.020090473
0.020040403
0.019897229
0.019726205
0.019610499
0.01955577
0.019528551
0.019414827
0.019103846
0.018596428
0.018313543
0.0184158
0.018797584
0.019228063
0.018855386
0.020075684
0.020159331
0.020158885
0.020058765
0.019894237
0.01975723
0.019722383
0.019678055
0.019574122
0.019280636
0.018757975
0.018380997
0.018389145
0.018660353
0.019137054
0.01907072
0.020221819
0.02018192
0.020056366
0.019925958
0.019867435
0.019851648
0.01976044
0.019399259
0.018908717
0.018461331
0.018416768
0.018548697
0.019023469
0.019258344
0.020097118
0.020039965
0.020016944
0.019916469
0.019571316
0.0190556
0.01854072
0.018444228
0.018464674
0.018855163
0.019238569
0.020165914
0.02008123
0.019760962
0.019230534
0.018644443
0.018479342
0.018471008
0.018708846
0.019176277
0.019937168
0.019435916
0.018842485
0.018559546
0.018530957
0.018637842
0.019136616
0.019650914
0.019085682
0.018665016
0.018545493
0.018612289
0.019054885
0.018798973
0.018609478
0.018623785
0.018907521
0.018741564
0.018654097
0.018782952
0.018639614
0.018636325
)
;

boundaryField
{
    Side
    {
        type            empty;
    }
    Inlet
    {
        type            calculated;
        value           nonuniform List<scalar> 
32
(
0.021468831
0.021459717
0.021466858
0.021455963
0.021429477
0.021397599
0.021354985
0.021302193
0.021245108
0.021172551
0.021068032
0.020921004
0.020745941
0.020574602
0.02042601
0.020299418
0.020168001
0.020018757
0.019871868
0.019732174
0.019566626
0.019374687
0.019300046
0.019284213
0.019226377
0.019096519
0.01903305
0.019010053
0.018964005
0.018905261
0.018872086
0.018907951
)
;
    }
    Airfoil
    {
        type            calculated;
        value           nonuniform List<scalar> 0();
    }
    Outlet
    {
        type            calculated;
        value           nonuniform List<scalar> 0();
    }
    procBoundary4to3
    {
        type            processor;
        value           nonuniform List<scalar> 
57
(
0.018667652
0.018659519
0.018653806
0.018651345
0.018652199
0.018656097
0.018640498
0.018640498
0.018637004
0.018636758
0.018639412
0.018646216
0.018658883
0.018679327
0.018708793
0.01874673
0.018790499
0.018838502
0.018888561
0.018774595
0.018774595
0.018828103
0.018886969
0.018949593
0.019010372
0.019067751
0.019122539
0.019189328
0.019090509
0.019090509
0.019210966
0.019382485
0.01957231
0.019735127
0.019843165
0.019845513
0.019798093
0.019798093
0.019621007
0.019391176
0.019325262
0.019389542
0.019389542
0.019807771
0.020332824
0.020592427
0.020592427
0.021051353
0.021401209
0.021323012
0.021323012
0.021218959
0.021163707
0.021163707
0.021403269
0.021617963
0.021617963
)
;
    }
    procBoundary4to5
    {
        type            processor;
        value           nonuniform List<scalar> 
64
(
0.018244531
0.018186243
0.01812779
0.01812779
0.018326213
0.018257683
0.018187543
0.018117346
0.018045939
0.018045939
0.018250113
0.018175168
0.018099634
0.018023625
0.017949177
0.017876465
0.017876465
0.018131766
0.018075086
0.018023166
0.017981823
0.017981823
0.018301139
0.018274666
0.018259585
0.018263821
0.018263821
0.01860231
0.018634528
0.018696396
0.018799141
0.018799141
0.019118004
0.0192495
0.019409023
0.019409023
0.019628203
0.019776428
0.019936833
0.019936833
0.020063909
0.020173526
0.020173526
0.020250706
0.020261322
0.020193956
0.020193956
0.020259383
0.020195575
0.020195575
0.020295433
0.02020642
0.02020642
0.020084973
0.020084973
0.019827032
0.019268963
0.019268963
0.019004027
0.019004027
0.018806293
0.018806293
0.018688964
0.01870499
)
;
    }
    procBoundary4to11
    {
        type            processor;
        value           nonuniform List<scalar> 
26
(
0.018647553
0.018432583
0.018175522
0.018005406
0.018042803
0.018178652
0.018335707
0.018439207
0.018466142
0.018439883
0.018384502
0.01829863
0.01820482
0.018101497
0.017977551
0.017827335
0.017667492
0.017506677
0.017371827
0.017321803
0.017402968
0.017586532
0.017816316
0.018052035
0.018714136
0.018714136
)
;
    }
    procBoundary4to12
    {
        type            processor;
        value           uniform 0.018300246;
    }
}


// ************************************************************************* //
