/*--------------------------------*- C++ -*----------------------------------*\
| =========                 |                                                 |
| \\      /  F ield         | OpenFOAM: The Open Source CFD Toolbox           |
|  \\    /   O peration     | Version:  2506                                  |
|   \\  /    A nd           | Website:  www.openfoam.com                      |
|    \\/     M anipulation  |                                                 |
\*---------------------------------------------------------------------------*/
FoamFile
{
    version     2.0;
    format      ascii;
    arch        "LSB;label=32;scalar=64";
    class       volScalarField;
    location    "0.024";
    object      Ma;
}
// * * * * * * * * * * * * * * * * * * * * * * * * * * * * * * * * * * * * * //

dimensions      [0 0 0 0 0 0 0];

internalField   nonuniform List<scalar> 
13761
(
0.0094986541
0.029459781
0.051286883
0.074931937
0.099559953
0.12324979
0.14418067
0.16187955
0.17678582
0.18951257
0.20058209
0.21038436
0.2191997
0.0095971106
0.029747035
0.051760215
0.075582264
0.10036092
0.1241546
0.14514278
0.16286789
0.17778153
0.19050308
0.20155792
0.21133767
0.22012391
0.22812593
0.23550355
0.24238095
0.24885736
0.25501342
0.26091494
0.26661933
0.27217951
0.277642
0.28304887
0.2884407
0.2938558
0.29933188
0.0096599832
0.029927279
0.052052393
0.075977396
0.10084253
0.12469764
0.14572109
0.16346042
0.17837218
0.1910793
0.20211005
0.21185877
0.22060952
0.22857397
0.23591411
0.24275603
0.24920057
0.25532971
0.26121021
0.26689996
0.27245176
0.27791205
0.28332322
0.28872616
0.29415934
0.29966048
0.30526702
0.31101675
0.31694889
0.32310339
0.32952156
0.33624731
0.0097059861
0.030060605
0.052270305
0.076273295
0.10119986
0.12508711
0.14611228
0.16383243
0.17871332
0.19138402
0.20237666
0.21208803
0.22080379
0.22873667
0.23604945
0.24286845
0.24929424
0.25540856
0.26127807
0.26696096
0.27251075
0.2779747
0.28339582
0.28881553
0.29427279
0.29980573
0.30545259
0.31125189
0.31724284
0.32346525
0.32996014
0.33677052
0.34394185
0.35152412
0.35957395
0.3681552
0.0030058596
0.0092071872
0.015861989
0.022992018
0.030594426
0.038612252
0.046857716
0.054992075
0.0626399
0.069553941
0.075673174
0.081055984
0.085803464
0.090021388
0.0938037
0.097220082
0.10033303
0.10319161
0.10583883
0.10830483
0.11061498
0.11278969
0.11484572
0.11679742
0.11865653
0.12043299
0.12213508
0.12376951
0.12534175
0.12685601
0.12831531
0.12972166
0.13107614
0.13237936
0.13363186
0.13483437
0.13598824
0.13709335
0.13811189
0.13869925
0.13882334
0.13878335
0.13873763
0.13868719
0.13863434
0.13858164
0.1385302
0.13847723
0.1384197
0.13835751
0.13829224
0.1382229
0.0030333397
0.0092932086
0.016013006
0.023215083
0.030896504
0.038998284
0.047327083
0.055536663
0.063247417
0.070213438
0.076377434
0.081800865
0.0865866
0.090841285
0.094659207
0.098116665
0.10126973
0.10416749
0.10684833
0.10934704
0.11168876
0.11389367
0.11597832
0.11795688
0.119841
0.12164054
0.12336381
0.1250176
0.12660753
0.12813802
0.12961238
0.13103292
0.13240109
0.13371783
0.13498403
0.13620078
0.13736989
0.13849271
0.13954261
0.14019875
0.14035611
0.14031207
0.14026426
0.1402165
0.14016804
0.14011787
0.1400659
0.14001249
0.13995802
0.13990012
0.13983731
0.13976995
0.13969703
0.13961587
0.13952461
0.1394233
0.13931676
0.13921427
0.13912506
0.13905463
0.13900175
0.13896076
0.0030570577
0.0093681605
0.016145638
0.023412554
0.031166014
0.03934516
0.047751286
0.056030837
0.063800142
0.070814631
0.077020656
0.082482649
0.087305194
0.091595809
0.095449242
0.098943191
0.10213483
0.10507142
0.10779054
0.1103249
0.11270142
0.11494011
0.1170573
0.11906697
0.12098058
0.12280784
0.12455695
0.12623466
0.12784665
0.12939747
0.13089063
0.13232873
0.13371355
0.13504637
0.13632843
0.13756113
0.1387466
0.13988707
0.14096394
0.14169192
0.14188689
0.14183997
0.14178354
0.14173009
0.14168037
0.14163523
0.14159217
0.14154614
0.14149443
0.14143725
0.14137397
0.14130133
0.14121785
0.14112337
0.14101749
0.14090285
0.14078733
0.14068313
0.14059908
0.14053419
0.14048021
0.14042787
0.14037317
0.14031956
0.14027329
0.14023778
0.14021519
0.0030762904
0.009429649
0.016255499
0.023577698
0.031393552
0.039640618
0.048115354
0.056457523
0.064279702
0.071338445
0.077583333
0.083081421
0.087938766
0.092263584
0.096150894
0.099678533
0.10290861
0.10588402
0.10864177
0.11121159
0.11362232
0.11589404
0.11804305
0.12008327
0.12202608
0.12388111
0.12565646
0.12735884
0.12899392
0.13056628
0.13207955
0.13353653
0.13493926
0.13628941
0.13758866
0.13883891
0.14004287
0.14120397
0.14231101
0.14312692
0.14338671
0.14336341
0.14331553
0.14326492
0.14321011
0.14315177
0.14309206
0.14303217
0.14297044
0.1429031
0.14283003
0.14275305
0.14267127
0.1425832
0.14248818
0.14238746
0.14228598
0.14218986
0.14210162
0.14201927
0.14193891
0.14186052
0.14178973
0.14173152
0.14168644
0.14164972
0.14161812
0.14159583
0.14158757
0.14160306
0.14166093
0.0030871188
0.0094665111
0.016324642
0.023686407
0.031549663
0.039850864
0.048382283
0.056777525
0.064645495
0.071743534
0.078023967
0.083556101
0.088447236
0.092806166
0.096728185
0.10029118
0.10355726
0.10657307
0.10937431
0.11198992
0.11444424
0.11675743
0.11894589
0.12102358
0.12300188
0.12489045
0.12669745
0.12842964
0.13009272
0.1316914
0.1332294
0.13470966
0.13613443
0.13750558
0.13882508
0.14009518
0.141319
0.14250063
0.14363407
0.14452602
0.14483956
0.14482244
0.14477042
0.14471863
0.14466868
0.14461845
0.14456394
0.14450223
0.14443466
0.14436336
0.14428734
0.1442052
0.14411853
0.14402827
0.14393442
0.14383889
0.14374435
0.14365249
0.14356057
0.14346562
0.14337056
0.14328412
0.14321346
0.14315932
0.14311316
0.14306592
0.14301676
0.14297399
0.14295235
0.14296195
0.14300605
0.14309365
0.14324798
0.14348676
0.0030879755
0.0094741474
0.016345416
0.023727949
0.031620451
0.039958683
0.048531312
0.056966272
0.06486882
0.071996749
0.078304711
0.083863977
0.088782854
0.093170464
0.097122065
0.10071494
0.10401044
0.10705817
0.10989481
0.11254983
0.11504562
0.11740148
0.11963302
0.12175349
0.12377367
0.12570275
0.1275485
0.12931745
0.13101523
0.13264657
0.13421535
0.13572477
0.1371774
0.13857553
0.13992159
0.14121825
0.14246916
0.14367916
0.14484697
0.14583171
0.1462368
0.14625271
0.14620773
0.14616173
0.14611126
0.14605801
0.14600397
0.14594798
0.14588579
0.14581375
0.14573303
0.14564506
0.14555059
0.14545349
0.14535845
0.14526761
0.14517823
0.14508415
0.14498141
0.14487441
0.14477437
0.14469123
0.1446251
0.14456688
0.14451085
0.14445414
0.14439603
0.14434553
0.14432004
0.14432308
0.1443494
0.14441018
0.14454036
0.14476236
0.1450684
0.14544762
0.14590839
0.0030979733
0.0095071619
0.016405964
0.023821278
0.031752111
0.040132974
0.048748384
0.057220475
0.065151404
0.072300434
0.078625634
0.084201113
0.08913686
0.093542821
0.097514367
0.10112881
0.10444763
0.1075183
0.11037736
0.11305346
0.11557253
0.11795567
0.12021796
0.12237215
0.12442844
0.12639535
0.12827998
0.13008817
0.13182494
0.13349445
0.13510017
0.13664505
0.13813152
0.13956192
0.14093887
0.14226539
0.14354552
0.14478484
0.14598577
0.14705482
0.14756496
0.14761812
0.14757614
0.14753284
0.14748809
0.14743869
0.14738204
0.1473186
0.14725177
0.14718223
0.14710795
0.14702931
0.14694938
0.14686979
0.14679016
0.14670702
0.1466146
0.14650902
0.14639333
0.14627918
0.14617824
0.14609262
0.14601741
0.14595274
0.14589779
0.1458447
0.14578509
0.14572772
0.14568939
0.14567735
0.14568809
0.1457367
0.14584563
0.14603534
0.14631147
0.14666831
0.14710508
0.14764133
0.14829712
0.0031221888
0.0095807502
0.016531893
0.024002565
0.031991267
0.040430446
0.049099822
0.057615636
0.06557746
0.072746617
0.079085061
0.084670155
0.089614031
0.094027916
0.098008181
0.10163288
0.10496368
0.1080494
0.11092645
0.11362396
0.11616636
0.11857373
0.12086119
0.12304146
0.12512471
0.12711942
0.12903261
0.13087
0.13263639
0.13433573
0.13597122
0.13754556
0.13906097
0.14051963
0.14192404
0.14327717
0.14458305
0.14584729
0.14707436
0.14821199
0.14882723
0.14892837
0.14889525
0.14885163
0.1488058
0.14876158
0.14871972
0.14867669
0.14862857
0.1485745
0.14851526
0.14844871
0.14837378
0.14829202
0.14820315
0.14810485
0.14799527
0.14787874
0.14776608
0.14766621
0.14757922
0.14749866
0.14742121
0.14734712
0.14727881
0.14721366
0.14715009
0.14708908
0.14703934
0.14701246
0.14702334
0.14706892
0.14715377
0.14730642
0.14755694
0.1478994
0.14831186
0.14881052
0.14942561
0.15016776
0.15105647
0.0031484811
0.0096611241
0.016670118
0.024202483
0.032256138
0.040761261
0.04949251
0.058060048
0.066060683
0.073257427
0.079615581
0.085215294
0.090170561
0.094593878
0.098582496
0.10221518
0.10555422
0.10865096
0.11154242
0.11425827
0.11682321
0.11925453
0.12156743
0.12377462
0.12588609
0.12791009
0.12985333
0.1317212
0.13351817
0.13524784
0.13691309
0.13851628
0.14005938
0.14154433
0.14297343
0.14434949
0.14567632
0.14695935
0.1482043
0.1493813
0.15008137
0.15022206
0.15019775
0.1501724
0.1501464
0.15011673
0.15008279
0.15004668
0.15000895
0.14996532
0.14991151
0.14984703
0.14977146
0.14968361
0.14958356
0.149473
0.14935772
0.14924653
0.1491466
0.14905971
0.14898
0.1488995
0.14881385
0.14872636
0.14864445
0.1485757
0.14851628
0.14845678
0.14839781
0.14835819
0.14834777
0.14837462
0.14844539
0.14858268
0.14880981
0.14912801
0.14951787
0.14998112
0.15055203
0.15126134
0.15211678
0.15313676
0.0031727972
0.0097361281
0.01680012
0.024392006
0.032509253
0.041079921
0.04987379
0.058495162
0.066538179
0.073767336
0.080150889
0.085771382
0.090744396
0.095183485
0.099186638
0.10283333
0.1061869
0.10929752
0.11220297
0.11493323
0.11751295
0.11996043
0.12229095
0.12451728
0.12664945
0.12869569
0.13066267
0.1325557
0.13437911
0.13613635
0.13783009
0.1394625
0.14103531
0.14255022
0.14400936
0.14541538
0.14677205
0.14808496
0.1493614
0.15058699
0.15139651
0.15158644
0.1515566
0.15152267
0.15149069
0.1514595
0.1514253
0.1513835
0.15133495
0.15128428
0.15123316
0.15117789
0.15111504
0.1510412
0.15095239
0.15084969
0.15074051
0.15063577
0.15054159
0.1504547
0.15036813
0.15027763
0.15018368
0.15009057
0.15000628
0.1499345
0.14987084
0.14980675
0.1497414
0.14968631
0.14966635
0.14969319
0.1497643
0.14988235
0.15007177
0.1503543
0.15072085
0.15116169
0.15169881
0.15236168
0.15317179
0.15414836
0.15531278
0.15668898
0.0031968454
0.0098105536
0.016929498
0.024581207
0.032762777
0.041400181
0.050258253
0.058935346
0.067022959
0.074287154
0.080699113
0.086343646
0.09133772
0.095795748
0.099816343
0.10347936
0.10684888
0.10997461
0.11289479
0.11564005
0.11823481
0.12069845
0.12304655
0.12529204
0.12744497
0.12951346
0.13150401
0.13342164
0.13527044
0.13705359
0.13877354
0.14043226
0.14203137
0.14357252
0.14505789
0.14649025
0.14787367
0.14921436
0.15052136
0.15179236
0.15272895
0.15299966
0.15298416
0.15294279
0.15289846
0.15285082
0.15280214
0.15275425
0.1527054
0.15265218
0.15259491
0.15253464
0.1524679
0.15239088
0.15230322
0.15220945
0.15211635
0.1520266
0.15193655
0.15184243
0.15174469
0.15164859
0.15155708
0.15146711
0.15137644
0.15129011
0.15121438
0.15114617
0.15107906
0.15101957
0.15098713
0.15100045
0.15105775
0.1511556
0.15131795
0.15157426
0.15192209
0.15234198
0.15284115
0.1534591
0.154231
0.15516653
0.1562854
0.15761697
0.15913983
0.0032201892
0.0098829939
0.01705571
0.024766184
0.033011189
0.041714642
0.050636534
0.059369455
0.067502414
0.074803036
0.081245322
0.086916197
0.09193385
0.096413358
0.10045373
0.10413518
0.10752129
0.11066188
0.11359513
0.11635152
0.11895688
0.12143123
0.12379054
0.12604815
0.12821451
0.13029809
0.13230563
0.13424226
0.13611202
0.13791791
0.13966209
0.1413462
0.14297144
0.14453914
0.14605114
0.14751
0.14891966
0.15028634
0.1516196
0.15292383
0.15396887
0.15432868
0.15433699
0.15430205
0.15426717
0.15423072
0.15418804
0.15413657
0.15407895
0.15401812
0.1539528
0.15388099
0.1538047
0.15372624
0.15364778
0.15357045
0.15349153
0.15340472
0.15330489
0.15319641
0.15309314
0.15300474
0.15292511
0.15283989
0.15274234
0.15264246
0.15255286
0.15247706
0.15240757
0.15234494
0.15229988
0.15229053
0.15233315
0.15243804
0.15260182
0.15282693
0.15312918
0.15351981
0.15399659
0.15457494
0.15529778
0.15619523
0.15726835
0.15854044
0.16001582
0.16168899
0.0032434594
0.0099552787
0.017181764
0.024951102
0.033259724
0.042029411
0.051015154
0.059803623
0.067981379
0.075317815
0.081789936
0.087486916
0.092528251
0.097029796
0.10109106
0.10479257
0.10819774
0.1113568
0.11430847
0.11708398
0.11970863
0.12220245
0.12458138
0.12685872
0.12904487
0.13114828
0.13317569
0.13513229
0.1370222
0.13884849
0.14061335
0.14231842
0.14396483
0.14555375
0.14708684
0.1485664
0.14999605
0.15138153
0.15273166
0.15405295
0.15517247
0.15560838
0.15563275
0.15559871
0.15556132
0.15552324
0.15548616
0.15544834
0.15540548
0.15535578
0.15530197
0.15524525
0.15518546
0.15512495
0.15506412
0.15499805
0.15491673
0.15481189
0.15468753
0.15455995
0.15444575
0.15435069
0.154268
0.15418446
0.15409386
0.15399542
0.1538959
0.15380583
0.15373722
0.15368111
0.15362658
0.15359001
0.15361452
0.15371014
0.15386061
0.15406285
0.15433539
0.15469143
0.15513894
0.15569037
0.15637268
0.15722032
0.1582491
0.15948225
0.16090729
0.16252479
0.16439204
0.16657396
0.0032667671
0.010027701
0.017308085
0.02513644
0.033508873
0.042345054
0.051394978
0.060239459
0.068462713
0.075835901
0.082338941
0.088063111
0.093129048
0.097653172
0.10173527
0.10545601
0.10887921
0.11205493
0.11502168
0.11781024
0.12044689
0.12295212
0.12534239
0.12763155
0.12983053
0.13194824
0.13399174
0.13596642
0.13787642
0.1397247
0.14151324
0.14324338
0.14491593
0.14653171
0.14809202
0.14959885
0.15105544
0.15246711
0.15384207
0.15518796
0.15638338
0.15691231
0.15695989
0.15693122
0.15690245
0.15687165
0.15683771
0.15680148
0.15676522
0.1567268
0.15668114
0.15662767
0.15656936
0.15650767
0.15644094
0.15636342
0.15626959
0.15615945
0.15603848
0.15591576
0.15579958
0.15569493
0.15560499
0.15552833
0.15544925
0.15535101
0.15523492
0.15512854
0.15504774
0.15498721
0.15493336
0.15489907
0.15490355
0.15496836
0.15510448
0.1553052
0.15555887
0.1558818
0.15629586
0.1568095
0.15744758
0.15825703
0.15924915
0.16043124
0.16179854
0.16336068
0.16516782
0.16728869
0.16969978
0.0032894034
0.010098055
0.017430824
0.025316562
0.033751033
0.042651756
0.051763744
0.060662076
0.068928804
0.07633699
0.082869541
0.088619919
0.093710021
0.098256978
0.10236101
0.10610317
0.10954764
0.11274389
0.11573087
0.11854003
0.12119744
0.1237234
0.12613418
0.12844348
0.13066215
0.1327991
0.1348615
0.13685494
0.13878383
0.14065145
0.14246006
0.1442112
0.14590581
0.14754476
0.14912934
0.15066141
0.15214416
0.15358279
0.15498546
0.1563615
0.15764005
0.15828426
0.15836509
0.1583223
0.15828217
0.15824656
0.15821364
0.15817847
0.15813605
0.15808582
0.15802939
0.15796571
0.1578961
0.15782304
0.15774444
0.15765726
0.15756142
0.15746157
0.15736302
0.15726504
0.15716249
0.15705647
0.15695535
0.15686322
0.1567758
0.15668329
0.15658345
0.15647748
0.15637557
0.15629041
0.15623331
0.15619585
0.1561852
0.15622701
0.15634514
0.15653583
0.15678007
0.15707324
0.15744264
0.15792161
0.15853281
0.15930143
0.16024672
0.16138395
0.16269922
0.1642058
0.16595613
0.16802236
0.17037217
0.1728268
0.0033121816
0.010168876
0.01755444
0.02549809
0.03399524
0.042961222
0.052135907
0.061088493
0.069398859
0.076842065
0.08340404
0.089180381
0.094294142
0.09886303
0.10298757
0.10674882
0.11021106
0.11342396
0.11642612
0.11924845
0.12191723
0.124454
0.1268755
0.12919584
0.13142633
0.13357623
0.13565303
0.13766249
0.13960912
0.14149618
0.14332588
0.14509965
0.1468183
0.14848255
0.15009354
0.15165301
0.15316404
0.1546318
0.15606466
0.15747423
0.15883057
0.15961852
0.15976243
0.15972981
0.15968714
0.1596393
0.15958773
0.15953606
0.15948595
0.1594337
0.15937662
0.15931577
0.15924895
0.15917118
0.15908026
0.15897997
0.15888018
0.1587892
0.15870504
0.15861806
0.15851885
0.15840618
0.15828995
0.15818318
0.15809102
0.15800772
0.1579168
0.15780892
0.1576949
0.1575991
0.15752936
0.15748747
0.15747483
0.15750553
0.15759987
0.15776345
0.15798513
0.15826215
0.15861076
0.15905441
0.15961816
0.16034157
0.16124859
0.162345
0.16361059
0.16505834
0.16675322
0.16876131
0.17105588
0.1734488
0.1757985
0.0033340975
0.01023709
0.017673606
0.025673192
0.0342309
0.043259885
0.05249502
0.061499868
0.069852316
0.077329389
0.083919947
0.089721692
0.094858859
0.099449795
0.10359539
0.10737714
0.11085966
0.11409231
0.11711412
0.11995661
0.12264636
0.12520398
0.12764599
0.12998632
0.13223611
0.13440458
0.13649922
0.13852594
0.14048945
0.1423933
0.14423997
0.14603117
0.1477679
0.14945101
0.15108165
0.15266152
0.15419358
0.15568286
0.15713767
0.15857094
0.15997414
0.16088723
0.16108992
0.16106881
0.16103575
0.16100003
0.16095947
0.16091134
0.16085767
0.16080395
0.16074987
0.16068825
0.16061375
0.16052388
0.16042031
0.16031131
0.16020733
0.16011443
0.16003031
0.1599456
0.15985125
0.15974524
0.15963119
0.15951878
0.15941551
0.15931893
0.15921937
0.15911249
0.15900184
0.15890077
0.15882556
0.15877763
0.15875671
0.15877215
0.15884036
0.15898131
0.159192
0.15945353
0.15977195
0.16017778
0.1607088
0.16139559
0.16226459
0.16331985
0.16453089
0.16592057
0.16755719
0.16951337
0.17175494
0.17408571
0.1763627
0.0033562624
0.010306131
0.017794273
0.025850581
0.034469775
0.043562771
0.052859267
0.061917052
0.070312015
0.077823239
0.084442581
0.090269828
0.095430328
0.10004298
0.10420897
0.10800975
0.11150986
0.11475944
0.11779725
0.12065443
0.12335681
0.12592634
0.12837988
0.13073177
0.13299353
0.1351747
0.13728308
0.13932475
0.14130456
0.14322605
0.14509168
0.14690304
0.14866102
0.15036629
0.15201986
0.15362324
0.15517917
0.15669244
0.15817109
0.15962821
0.16106672
0.16209625
0.16236344
0.16234953
0.16231443
0.16227486
0.16223375
0.16219373
0.1621528
0.16210592
0.16205207
0.16199134
0.16192176
0.16184409
0.16176075
0.16167351
0.16158218
0.16148525
0.16138349
0.16128181
0.16118352
0.16108527
0.16098331
0.16087295
0.16075615
0.16063934
0.16052859
0.16042009
0.16031423
0.16021573
0.16013029
0.1600648
0.16002716
0.16002714
0.16008711
0.1602138
0.16039965
0.16064019
0.16093971
0.1613182
0.1618098
0.16245422
0.16327803
0.16428415
0.16545117
0.16678532
0.16836648
0.17027311
0.1724609
0.17473056
0.17694097
0.17925445
0.0033776296
0.010372709
0.017910652
0.026021676
0.034700155
0.04385482
0.053210414
0.062319253
0.070755401
0.078299956
0.084947634
0.090800237
0.095984261
0.10061924
0.10480671
0.10862852
0.11214956
0.11541956
0.1184777
0.1213556
0.12407988
0.12667108
0.12914588
0.13151839
0.13379994
0.13599999
0.13812629
0.14018503
0.14218123
0.14411871
0.14600024
0.14782773
0.14960232
0.15132489
0.15299656
0.15461882
0.15619433
0.15772768
0.1592266
0.16070386
0.16216864
0.16330205
0.16363452
0.16362216
0.16358304
0.16354781
0.16351078
0.16346956
0.16342663
0.16338358
0.16333728
0.16328718
0.16323778
0.16319058
0.16314123
0.16307954
0.16299488
0.16288447
0.16275591
0.16262396
0.1625025
0.16239532
0.16229062
0.16217873
0.16205933
0.16194237
0.16183191
0.16172679
0.16161661
0.16150324
0.16140106
0.16132755
0.16129455
0.1613077
0.16135527
0.16144519
0.16159827
0.16181683
0.16209744
0.16245083
0.16291108
0.1635135
0.16429346
0.16526342
0.16638412
0.16766481
0.16919302
0.17104733
0.17317757
0.17538247
0.17751794
0.17976597
0.18253103
0.0033992636
0.010440073
0.018028376
0.026194731
0.034933152
0.044150143
0.05356537
0.062725577
0.071203059
0.078781041
0.085457148
0.091335167
0.096542644
0.10119963
0.10540794
0.10924947
0.11278903
0.11607692
0.11915205
0.1220457
0.12478388
0.12738827
0.12987587
0.13226114
0.13455576
0.13676947
0.13891029
0.14098458
0.14299748
0.14495284
0.14685342
0.14870109
0.15049697
0.15224189
0.15393694
0.15558362
0.15718455
0.15874431
0.16027057
0.16177618
0.16327511
0.16452708
0.16496198
0.16496892
0.16492614
0.16488429
0.164848
0.16481447
0.16477681
0.1647317
0.1646812
0.16462617
0.16456845
0.1645122
0.16445595
0.16439168
0.1643083
0.16419874
0.16406832
0.16393359
0.16380983
0.16369983
0.16359691
0.16348837
0.16337048
0.16324759
0.16312934
0.16301678
0.16290948
0.16280158
0.16269725
0.16261458
0.16257142
0.16256413
0.16259572
0.16267545
0.16280891
0.16300147
0.1632589
0.16359033
0.16401939
0.16458637
0.16532877
0.16624765
0.16731854
0.16854892
0.17001877
0.17182016
0.17389906
0.17604219
0.1781141
0.18030266
0.18300816
0.18645852
0.0034198118
0.010504078
0.018140256
0.026359243
0.035154675
0.044430904
0.053902788
0.063111861
0.071628839
0.079238972
0.085942625
0.091845501
0.097076218
0.10175543
0.10598532
0.10984806
0.11340881
0.11671722
0.11981258
0.12272652
0.12548562
0.12811094
0.13061924
0.13302475
0.13533894
0.13757143
0.13973017
0.14182157
0.14385089
0.14582223
0.14773862
0.14960225
0.15141453
0.15317657
0.15488968
0.1565555
0.15817675
0.15975807
0.1613071
0.16283665
0.16436349
0.16572024
0.16626969
0.16630777
0.16627704
0.1662425
0.16620196
0.16615818
0.16611438
0.16606705
0.16601079
0.16594684
0.1658784
0.16580606
0.16572965
0.16564757
0.16555822
0.16546187
0.1653586
0.1652482
0.16513308
0.16501804
0.16490588
0.16479726
0.16468495
0.16456349
0.16443585
0.16431453
0.16420147
0.16409274
0.16398599
0.16388836
0.16381635
0.16379381
0.16382786
0.16390974
0.16403219
0.16419732
0.16442185
0.16472283
0.16512631
0.16566248
0.16635724
0.16722917
0.16825297
0.16943076
0.17085135
0.17260514
0.17462574
0.17670638
0.17870735
0.1808304
0.18348266
0.18686449
0.19059533
0.003440498
0.01056849
0.018252815
0.02652472
0.035377472
0.044713218
0.054241877
0.063499677
0.072055807
0.079697662
0.086428387
0.092355549
0.097608743
0.10230909
0.106559
0.11044078
0.11401949
0.11734577
0.12045818
0.12338807
0.1261616
0.12880027
0.13132162
0.13374021
0.13606779
0.13831425
0.14048776
0.14259488
0.14464095
0.14663009
0.14856533
0.15044883
0.15228199
0.15406593
0.155802
0.15749193
0.15913854
0.16074661
0.16232397
0.16388359
0.16544418
0.16690196
0.1675799
0.16764338
0.16759886
0.16755945
0.1675221
0.16747965
0.16742879
0.16737413
0.16731981
0.16726235
0.16719838
0.16712531
0.1670402
0.16694481
0.16684613
0.16675011
0.16665531
0.16655343
0.16643738
0.16631261
0.16619269
0.1660832
0.16597765
0.16586518
0.16574133
0.16561109
0.16548524
0.1653704
0.1652649
0.16516811
0.16508926
0.16504875
0.16506148
0.16512678
0.16523179
0.16537831
0.16558138
0.16585793
0.16623102
0.16673124
0.167392
0.16822144
0.16919611
0.17032909
0.17170017
0.17339898
0.17536168
0.17737587
0.17931261
0.18137821
0.18397828
0.18728566
0.19095765
0.0034600584
0.010629463
0.018359464
0.026681596
0.035588753
0.044980971
0.054563454
0.063867477
0.072460841
0.080132975
0.086889663
0.092840278
0.098115424
0.10283678
0.10710707
0.11100881
0.11460734
0.11795377
0.12108603
0.12403586
0.12682986
0.12948932
0.13203127
0.13447003
0.13681712
0.13908227
0.14127355
0.14339751
0.1454596
0.1474641
0.1494143
0.15131263
0.15316079
0.15496018
0.15671242
0.15841947
0.16008437
0.16171207
0.16331056
0.16489284
0.16647872
0.16802547
0.16886151
0.16898424
0.16894558
0.16889556
0.16884237
0.16879204
0.16874475
0.16869483
0.16863909
0.16857719
0.16850425
0.16841624
0.16831598
0.16821297
0.16811718
0.16803026
0.16794268
0.1678419
0.16772519
0.16760008
0.16747931
0.16736996
0.16726897
0.16716273
0.16704035
0.16690099
0.16676036
0.16663542
0.166532
0.16643991
0.16635804
0.16630007
0.16628923
0.16633286
0.16642878
0.16656781
0.16675434
0.16700244
0.16734178
0.16781312
0.16843858
0.16922332
0.17014595
0.17122638
0.1725451
0.17419365
0.17610067
0.17805437
0.17993247
0.18193489
0.18447289
0.1877143
0.19131827
0.19475013
0.0034798021
0.010691053
0.018467256
0.026840257
0.035802584
0.045252084
0.054889077
0.064239703
0.07287039
0.08057273
0.087355226
0.093329049
0.098625744
0.10336744
0.10765712
0.11157741
0.11519363
0.11855675
0.12170543
0.12467108
0.12747992
0.13015253
0.13270737
0.13515904
0.13751935
0.13979822
0.14200392
0.14414307
0.14622115
0.14824241
0.15021001
0.15212628
0.1539928
0.15581087
0.15758202
0.15930816
0.16099228
0.16263925
0.16425687
0.16585774
0.16746213
0.16905979
0.17002519
0.17019718
0.17016818
0.17013306
0.17009628
0.17005337
0.17000677
0.16996003
0.16990893
0.16984632
0.16977157
0.1696875
0.1695993
0.16951265
0.16942958
0.16934688
0.16925848
0.16915984
0.16904891
0.16892936
0.16880499
0.16868244
0.16856326
0.16844609
0.16832263
0.16819207
0.16805756
0.16793117
0.16781664
0.16771143
0.1676123
0.16753826
0.16751124
0.16754569
0.1676294
0.16775011
0.1679144
0.16813952
0.16845118
0.16888494
0.1694753
0.17022282
0.17109684
0.17212485
0.17339504
0.17499496
0.17684885
0.17874117
0.18055724
0.18250138
0.18497999
0.18814971
0.1916862
0.1950799
0.1979104
0.0034987954
0.010750294
0.018570914
0.026992808
0.036008111
0.045512539
0.055201747
0.064597005
0.073263488
0.080994867
0.087802263
0.09379862
0.099116473
0.10387851
0.10818803
0.1121279
0.11576368
0.11914664
0.12231514
0.125301
0.12813093
0.13082631
0.13340367
0.13587738
0.13825904
0.14055841
0.14278365
0.14494139
0.14703716
0.14907534
0.15105931
0.1529916
0.15487402
0.15670806
0.1584954
0.16023805
0.16193905
0.16360324
0.16523836
0.16685679
0.16847896
0.1701131
0.17120543
0.17142447
0.17138556
0.17134016
0.17130125
0.17126903
0.17123627
0.1711971
0.17115336
0.17110587
0.17105284
0.17099482
0.17093111
0.17085848
0.17077203
0.17066939
0.17055515
0.17043821
0.1703252
0.17021249
0.17009576
0.16997125
0.16984448
0.16971935
0.16959763
0.16947101
0.1693376
0.16919846
0.16906499
0.16894802
0.16885517
0.16878506
0.16874891
0.16875789
0.16881962
0.16892688
0.16907819
0.16928457
0.16956969
0.16997203
0.17052173
0.17123054
0.1720619
0.17304154
0.17426284
0.17580835
0.17760385
0.17943547
0.18119199
0.18308306
0.18548632
0.18858515
0.19205514
0.19540449
0.1981928
0.0035180116
0.010810234
0.018675805
0.027147215
0.036216242
0.045776379
0.055518424
0.064958604
0.073660842
0.081421025
0.088252986
0.094271454
0.09960989
0.10439144
0.10871965
0.11267751
0.11633055
0.11972991
0.12291463
0.12591619
0.12876089
0.13146936
0.13405962
0.13654635
0.13894142
0.14125485
0.143495
0.14566862
0.14778126
0.14983732
0.15184006
0.15379193
0.1556946
0.15754946
0.15935811
0.16112253
0.16284574
0.16453265
0.16619106
0.16783352
0.16948109
0.17115496
0.17240219
0.17271927
0.17270585
0.17266762
0.17262315
0.17257442
0.17252763
0.17248301
0.17243478
0.17238342
0.17233189
0.172278
0.1722171
0.17214292
0.17205051
0.17194093
0.17182146
0.17170211
0.17158787
0.17147781
0.17136339
0.17124215
0.17111554
0.1709906
0.17086898
0.17074694
0.17061224
0.17046644
0.17032686
0.17021035
0.17011672
0.17003853
0.16997769
0.16996252
0.17000927
0.17010639
0.17024122
0.17042261
0.17068116
0.17105018
0.17156737
0.17224066
0.17303067
0.17396215
0.17512744
0.17662015
0.17836295
0.18014071
0.18184364
0.18367702
0.18601767
0.18904665
0.19244995
0.19575183
0.19849726
0.20135432
0.0035365949
0.010868178
0.018777173
0.027296348
0.036417091
0.046030727
0.055823346
0.065306358
0.074042547
0.081829966
0.088685074
0.09472437
0.1000823
0.10488257
0.10922905
0.11320492
0.11687601
0.12029369
0.12349665
0.12651671
0.12938053
0.13210942
0.13472037
0.1372278
0.13964335
0.14197683
0.14423644
0.14642887
0.1485597
0.15063341
0.15265344
0.15462244
0.15654228
0.15841456
0.16024106
0.16202391
0.16376625
0.16547312
0.1671525
0.16881714
0.17048858
0.17219606
0.17358324
0.17399168
0.17398364
0.17393853
0.17389611
0.17385146
0.17379902
0.17374239
0.17368839
0.17363485
0.17357862
0.17351882
0.17345245
0.17337604
0.17328794
0.17319003
0.1730873
0.17298356
0.1728771
0.17276323
0.17264216
0.17251548
0.17238699
0.17225847
0.17213176
0.172006
0.17187737
0.17173982
0.17159491
0.17146161
0.17135035
0.17126034
0.17119602
0.17117011
0.17119862
0.17128152
0.17140632
0.17157101
0.17179931
0.172142
0.17262755
0.17325828
0.17400298
0.17488201
0.17599907
0.17744074
0.17912789
0.1808534
0.18249751
0.18427868
0.1865508
0.189501
0.19284997
0.19610202
0.1988088
0.20162907
0.20527933
0.0035562852
0.01092937
0.018883945
0.027453055
0.036627638
0.04629673
0.05614146
0.065668236
0.074438761
0.082253429
0.089131462
0.095191157
0.10056791
0.10538589
0.10974923
0.11374126
0.11742777
0.12086009
0.12407742
0.12711138
0.12998836
0.13272915
0.13535114
0.13786977
0.140297
0.14264292
0.14491598
0.14712301
0.1492697
0.15136053
0.15339888
0.15538728
0.15732747
0.15922089
0.1610692
0.16287439
0.16463953
0.16636963
0.16807267
0.16976146
0.17145766
0.17319522
0.1747122
0.17523803
0.17525063
0.1752016
0.17514926
0.17510053
0.17505911
0.17501915
0.17497581
0.17493061
0.17488017
0.17481712
0.17473745
0.17464364
0.17454307
0.17444301
0.17434509
0.17424325
0.17413218
0.17401259
0.1738905
0.17377009
0.17364828
0.17352164
0.17339427
0.1732682
0.17313895
0.17299926
0.17285429
0.17270681
0.17257546
0.17247695
0.17241734
0.17239197
0.17240093
0.17245433
0.17256037
0.17271102
0.17292215
0.17322874
0.17367324
0.1742688
0.17497368
0.17581186
0.17688022
0.17826946
0.1799036
0.18157219
0.18316272
0.18488312
0.18708472
0.18996472
0.19325707
0.19645825
0.19912628
0.20190961
0.20550469
0.0035756131
0.010989397
0.018988597
0.027606504
0.036833596
0.046556626
0.056451922
0.066021136
0.074824978
0.082666074
0.089566284
0.095645672
0.10104062
0.10587585
0.11025583
0.11426413
0.11796685
0.12141558
0.12464924
0.12769961
0.13059348
0.13335216
0.13599315
0.13853083
0.14097692
0.14334131
0.14563229
0.14785661
0.15001996
0.15212687
0.15418091
0.1561848
0.15814052
0.16004977
0.16191439
0.16373654
0.16551939
0.16726797
0.16899027
0.17069907
0.17241601
0.17417735
0.17580387
0.17645776
0.1765058
0.1764778
0.17644813
0.17641001
0.17636322
0.17631533
0.17626687
0.1762107
0.17614358
0.17606395
0.17597281
0.1758751
0.17577672
0.17567984
0.17557945
0.17547024
0.17535243
0.17523578
0.17512708
0.17502317
0.17491518
0.17479845
0.1746682
0.17452669
0.17438073
0.17424257
0.17410333
0.17395999
0.17381759
0.17370281
0.17362804
0.17358739
0.1735821
0.17362386
0.17371363
0.1738502
0.17403727
0.1743175
0.17473493
0.17529012
0.17595378
0.17674085
0.17775676
0.17909392
0.18067039
0.18228869
0.1838285
0.18549295
0.18763786
0.19044186
0.19367573
0.19682435
0.19945682
0.2021981
0.20573474
0.20989046
0.0035954763
0.011051093
0.01909617
0.027764258
0.037045382
0.046823923
0.05677122
0.066383991
0.075221982
0.083090186
0.090013166
0.096112734
0.10152618
0.1063787
0.11077499
0.1147988
0.11851617