/*--------------------------------*- C++ -*----------------------------------*\
| =========                 |                                                 |
| \\      /  F ield         | OpenFOAM: The Open Source CFD Toolbox           |
|  \\    /   O peration     | Version:  2506                                  |
|   \\  /    A nd           | Website:  www.openfoam.com                      |
|    \\/     M anipulation  |                                                 |
\*---------------------------------------------------------------------------*/
FoamFile
{
    version     2.0;
    format      ascii;
    arch        "LSB;label=32;scalar=64";
    class       surfaceScalarField;
    location    "0.0003";
    object      phi;
}
// * * * * * * * * * * * * * * * * * * * * * * * * * * * * * * * * * * * * * //

dimensions      [1 0 -1 0 0 0 0];

oriented        oriented;

internalField   nonuniform List<scalar> 
6785
(
-0.31352281
-0.00086387511
-0.3112807
-0.00093900122
-0.30875964
-0.0010214006
-0.30653383
-0.0011121427
-0.0012098832
-0.31487906
-0.00079566785
-0.31272136
-0.00086451158
-0.31048527
-0.00093966016
-0.30822029
-0.0010219715
-0.3062679
-0.0011124999
-0.30515457
-0.0012102507
-0.001315941
-0.31554211
-0.00073336014
-0.31378109
-0.0007962114
-0.31182592
-0.00086486511
-0.30970813
-0.00093997652
-0.30746471
-0.0010225142
-0.30546136
-0.0011135922
-0.30429735
-0.0012116929
-0.3041861
-0.0013176123
-0.0014323082
-0.32227262
-0.0027013542
-0.32534696
-0.0029185445
-0.32739999
-0.0031694045
-0.32374836
-0.0034626737
-0.0037899196
-0.315994
-0.00067690086
-0.31437775
-0.00073417786
-0.31300656
-0.0007968034
-0.31133544
-0.00086514874
-0.3092251
-0.00094020153
-0.30657149
-0.0010231783
-0.30400939
-0.0011152047
-0.30256501
-0.0012139709
-0.30239185
-0.001320253
-0.30310938
-0.0014350573
-0.0015566679
-0.31861495
-0.0025080532
-0.32161992
-0.0027043585
-0.32480923
-0.0029208351
-0.32680709
-0.0031717367
-0.32279399
-0.0034664876
-0.31620992
-0.0037953139
-0.0041280624
-0.3164862
-0.00062517293
-0.31472396
-0.00067790157
-0.31339452
-0.00073510561
-0.31231139
-0.00079766403
-0.31088208
-0.000865914
-0.30876299
-0.00094098768
-0.30570087
-0.0010241371
-0.30268458
-0.0011165047
-0.30108264
-0.0012155
-0.30088349
-0.0013219568
-0.301922
-0.001436913
-0.30416839
-0.0015581984
-0.3061253
-0.0016918751
-0.30766365
-0.0018356749
-0.30942845
-0.0019912718
-0.31155797
-0.0021539597
-0.3141489
-0.0023290356
-0.31759786
-0.0025115911
-0.32068216
-0.0027074252
-0.32402114
-0.0029238366
-0.32618732
-0.0031751235
-0.32211735
-0.0034704129
-0.31524142
-0.0038004113
-0.31251885
-0.0041326864
-0.31214826
-0.0044859464
-0.0048672601
-0.3178989
-0.00057777063
-0.31568876
-0.00062618279
-0.31386539
-0.00067893519
-0.31235045
-0.00073616384
-0.31109819
-0.00079866849
-0.30951182
-0.00086691884
-0.30735305
-0.00094200364
-0.30446068
-0.0010252154
-0.30167496
-0.0011176334
-0.30024261
-0.001216656
-0.30013309
-0.0013231324
-0.30124056
-0.0014381554
-0.30352138
-0.001559633
-0.30548504
-0.0016933597
-0.30710654
-0.0018375145
-0.30872
-0.0019933788
-0.31062408
-0.0021568011
-0.31304211
-0.0023321554
-0.31642183
-0.0025149707
-0.31952496
-0.0027106795
-0.32294824
-0.0029277892
-0.32528069
-0.0031796972
-0.32128166
-0.0034755143
-0.31430574
-0.0038055617
-0.31160929
-0.0041365249
-0.31124897
-0.0044897685
-0.004872066
-0.31878193
-0.00053429146
-0.31629625
-0.00057916278
-0.31401433
-0.00062762947
-0.31221176
-0.00068038052
-0.31091408
-0.00073758246
-0.31004351
-0.00079992907
-0.30881268
-0.00086801998
-0.30678973
-0.00094307798
-0.30383955
-0.0010263917
-0.30096867
-0.0011190743
-0.29954904
-0.0012183027
-0.29952369
-0.001324765
-0.30069857
-0.0014394324
-0.30311998
-0.001560642
-0.30510467
-0.0016940562
-0.30654759
-0.0018386242
-0.30800866
-0.0019948467
-0.30985881
-0.0021591078
-0.31212713
-0.0023349616
-0.31530473
-0.0025187452
-0.31828431
-0.0027151478
-0.32163118
-0.0029328814
-0.32393474
-0.0031848231
-0.32019473
-0.0034792094
-0.31351734
-0.0038090532
-0.31091441
-0.0041400328
-0.310526
-0.0044931389
-0.0048747088
-0.32057973
-0.00049335213
-0.31780113
-0.00053585933
-0.31525344
-0.00058071359
-0.31269234
-0.00062904605
-0.31073832
-0.00068157028
-0.30951016
-0.00073876134
-0.30889037
-0.00080121997
-0.30801195
-0.00086957868
-0.30608304
-0.00094490236
-0.30320421
-0.0010283907
-0.30026986
-0.0011211524
-0.29871608
-0.0012203822
-0.29878516
-0.0013268529
-0.30021093
-0.0014413094
-0.30274566
-0.0015626156
-0.30477821
-0.0016960229
-0.30612783
-0.0018405238
-0.3073067
-0.0019966745
-0.30886735
-0.0021615007
-0.31096047
-0.0023378297
-0.3140862
-0.0025224094
-0.31705851
-0.0027192367
-0.3203747
-0.0029372839
-0.32267968
-0.0031892453
-0.3191692
-0.0034827312
-0.312692
-0.003812142
-0.31016664
-0.0041438731
-0.30973891
-0.0044975226
-0.0048786538
-0.32236107
-0.00045379076
-0.32062058
-0.0004945234
-0.31809818
-0.00053728336
-0.31529138
-0.00058213931
-0.31248674
-0.00063024633
-0.31022224
-0.00068259664
-0.30865612
-0.00073992188
-0.30766578
-0.00080271647
-0.30658998
-0.00087160574
-0.30441286
-0.00094730066
-0.30157323
-0.0010308701
-0.29891907
-0.0011232581
-0.29752183
-0.0012222891
-0.29773863
-0.0013287577
-0.2989389
-0.0014435732
-0.30119314
-0.0015654163
-0.30324062
-0.0016994287
-0.30493615
-0.0018442454
-0.30630569
-0.0020009251
-0.3078698
-0.0021655255
-0.31011487
-0.0023413908
-0.31335994
-0.0025252988
-0.31632984
-0.0027231123
-0.3195695
-0.0029407158
-0.32181579
-0.0031926871
-0.31823549
-0.0034863837
-0.31166196
-0.0038171919
-0.30905585
-0.0041496636
-0.30861998
-0.0045036704
-0.0048845298
-0.3218282
-0.00041687791
-0.32155436
-0.00045455465
-0.31989302
-0.00049506522
-0.31716788
-0.00053786006
-0.3145064
-0.00058278934
-0.31189358
-0.0006310825
-0.3096879
-0.00068367581
-0.30797393
-0.00074122873
-0.30669072
-0.00080431997
-0.30528367
-0.00087355733
-0.30303437
-0.00094938866
-0.30037885
-0.0010330915
-0.2979715
-0.0011254515
-0.29665499
-0.0012246406
-0.2967979
-0.0013313836
-0.29778461
-0.0014468543
-0.29978475
-0.0015689596
-0.30181001
-0.0017028227
-0.3035491
-0.0018477887
-0.30505297
-0.0020052318
-0.30674339
-0.0021697833
-0.30921392
-0.0023455526
-0.31256249
-0.0025287578
-0.315519
-0.002727927
-0.31873369
-0.00294536
-0.32094123
-0.0031975756
-0.31734986
-0.0034912051
-0.31069587
-0.0038228923
-0.3080231
-0.0041562833
-0.30749179
-0.0045112206
-0.0048928266
-0.32038675
-0.00038403458
-0.32083916
-0.00041816544
-0.32062639
-0.00045565826
-0.31919631
-0.00049622961
-0.31648383
-0.00053895457
-0.31395912
-0.00058396288
-0.31121634
-0.00063243771
-0.30885419
-0.00068511964
-0.30716315
-0.00074277894
-0.30580007
-0.00080593929
-0.30430464
-0.00087529326
-0.30201669
-0.00095119301
-0.29923609
-0.0010350846
-0.29673766
-0.0011277461
-0.2953516
-0.0012272213
-0.29547549
-0.0013342813
-0.29641486
-0.0014501296
-0.29843172
-0.0015728067
-0.3006226
-0.0017065956
-0.30244734
-0.0018514408
-0.30402719
-0.0020092778
-0.30563543
-0.0021743029
-0.30810662
-0.0023506214
-0.31161843
-0.0025333241
-0.31465537
-0.0027322533
-0.3178765
-0.0029505238
-0.32010732
-0.0032032897
-0.3164418
-0.0034976622
-0.3096508
-0.0038302036
-0.30691194
-0.0041640667
-0.30638394
-0.004519552
-0.0049024713
-0.32040333
-0.00035583522
-0.32050142
-0.00038636551
-0.32019834
-0.00042026171
-0.31912045
-0.00045711823
-0.31714462
-0.00049683637
-0.31492542
-0.00053925507
-0.31233661
-0.00058438053
-0.30995673
-0.00063318548
-0.30798738
-0.0006863286
-0.30640448
-0.00074435435
-0.30513822
-0.00080779064
-0.30357897
-0.0008773104
-0.30130957
-0.00095337638
-0.29838035
-0.001037237
-0.29574344
-0.0011299297
-0.29437297
-0.0012295328
-0.29443887
-0.0013368847
-0.29532661
-0.0014531272
-0.29733168
-0.0015765903
-0.29952282
-0.0017106571
-0.30129788
-0.0018552475
-0.30293471
-0.0020125518
-0.30467578
-0.0021779239
-0.30718482
-0.0023550238
-0.31074209
-0.0025383541
-0.31376925
-0.0027366673
-0.31692428
-0.0029559789
-0.31911476
-0.0032094309
-0.31549517
-0.0035041591
-0.30876311
-0.0038372468
-0.30598386
-0.0041721054
-0.30537754
-0.0045281566
-0.0049123943
-0.32065983
-0.00033008135
-0.31991833
-0.00035746666
-0.31949265
-0.00038792016
-0.31882429
-0.00042141462
-0.31783783
-0.00045764629
-0.31612503
-0.0004970703
-0.31372954
-0.00053941959
-0.31162227
-0.00058466573
-0.30936477
-0.00063368281
-0.30732857
-0.00068717825
-0.30560884
-0.00074547536
-0.30414736
-0.0008092624
-0.30238216
-0.0008790231
-0.30015998
-0.00095533865
-0.29752606
-0.0010391406
-0.29506906
-0.0011316079
-0.2936616
-0.0012311878
-0.29358303
-0.0013386922
-0.29422175
-0.0014552409
-0.29593068
-0.0015797262
-0.29824013
-0.001714329
-0.30031323
-0.0018589743
-0.30216276
-0.002015449
-0.3038114
-0.0021811866
-0.30623453
-0.0023587071
-0.30989207
-0.0025432034
-0.31295169
-0.0027406273
-0.31602191
-0.0029607186
-0.31823241
-0.0032149206
-0.31463485
-0.003510413
-0.30787536
-0.003844366
-0.30506424
-0.0041800626
-0.30444173
-0.0045365363
-0.30670135
-0.0049220941
-0.0053193997
-0.32074808
-0.00030576516
-0.31961759
-0.00033116953
-0.3189423
-0.00035864846
-0.31829785
-0.00038899927
-0.31749662
-0.00042221151
-0.31650849
-0.00045807262
-0.31507393
-0.00049724957
-0.31276351
-0.000539557
-0.31075763
-0.00058493521
-0.30867032
-0.00063409794
-0.30661531
-0.0006877819
-0.3046838
-0.00074629097
-0.3029575
-0.00081035723
-0.3009895
-0.00088036831
-0.29877084
-0.00095685877
-0.29635858
-0.0010407092
-0.29423383
-0.0011329339
-0.29310203
-0.001232323
-0.29308099
-0.0013397949
-0.29359699
-0.0014564603
-0.2949662
-0.0015813483
-0.29704007
-0.0017164415
-0.29920038
-0.0018614971
-0.30130581
-0.0020178535
-0.30295594
-0.0021834693
-0.30517386
-0.0023609152
-0.30884119
-0.002546635
-0.31198796
-0.0027443592
-0.31504011
-0.0029649353
-0.31728322
-0.003219737
-0.31374979
-0.003515667
-0.30695155
-0.0038498671
-0.3041405
-0.0041857087
-0.30350391
-0.0045427284
-0.30575512
-0.0049302465
-0.3101428
-0.0053285705
-0.0057637819
-0.31997011
-0.00028263
-0.31903185
-0.00030568671
-0.31816074
-0.00033113148
-0.31749245
-0.00035857213
-0.31680777
-0.00038890081
-0.31605986
-0.00042220791
-0.31513148
-0.00045830251
-0.31383182
-0.0004977611
-0.31164641
-0.00054024342
-0.30974362
-0.00058565299
-0.30770024
-0.00063481397
-0.30563818
-0.0006884583
-0.30365527
-0.00074690334
-0.3017799
-0.00081084217
-0.29971882
-0.00088081133
-0.29748715
-0.00095721653
-0.29518067
-0.0010411927
-0.2932467
-0.0011334955
-0.29219847
-0.0012329336
-0.292195
-0.0013404597
-0.29278506
-0.0014572682
-0.29419255
-0.0015820644
-0.2961061
-0.0017175372
-0.29812879
-0.0018627115
-0.3002624
-0.0020196312
-0.30210184
-0.0021853497
-0.30421351
-0.0023628897
-0.30769928
-0.0025490442
-0.31085386
-0.0027474902
-0.31394853
-0.0029675995
-0.31621371
-0.003222515
-0.31274845
-0.0035193069
-0.305967
-0.0038540619
-0.30319899
-0.0041903363
-0.30255098
-0.0045479634
-0.30474666
-0.0049358659
-0.30907258
-0.0053348509
-0.31044509
-0.0057712375
-0.0062586642
-0.32087105
-0.00026243309
-0.31952077
-0.00028334803
-0.31775684
-0.0003058417
-0.31646186
-0.00033072712
-0.31558097
-0.00035780565
-0.31556738
-0.0003882451
-0.31550678
-0.0004221008
-0.31491737
-0.00045896723
-0.31334271
-0.00049899438
-0.31087667
-0.00054177624
-0.30873274
-0.00058710776
-0.30630604
-0.00063614486
-0.30406654
-0.00068949325
-0.30217986
-0.00074768578
-0.30045952
-0.00081133963
-0.29852889
-0.00088113768
-0.29618336
-0.00095738887
-0.29361668
-0.0010414025
-0.29144378
-0.0011339318
-0.29031372
-0.0012336856
-0.29049589
-0.0013414059
-0.29135374
-0.0014583501
-0.29314596
-0.0015829715
-0.29530747
-0.0017188032
-0.29742485
-0.0018643763
-0.29919491
-0.0020221837
-0.30099819
-0.0021882492
-0.30321859
-0.0023654902
-0.30655213
-0.0025510246
-0.30968148
-0.0027495867
-0.31297671
-0.002969886
-0.31535218
-0.003225192
-0.31168814
-0.0035238886
-0.30468201
-0.0038596579
-0.30192213
-0.0041951261
-0.30144542
-0.0045526211
-0.30380365
-0.0049416119
-0.30800678
-0.0053420473
-0.30928519
-0.0057785063
-0.30886559
-0.0062668587
-0.0068232537
-0.30273019
-0.00020633481
-0.32031228
-0.00024313597
-0.32014764
-0.0002628207
-0.31834397
-0.00028382569
-0.31611046
-0.00030633746
-0.31451247
-0.0003307223
-0.31362087
-0.00035769494
-0.31376528
-0.00038818741
-0.3138904
-0.00042233482
-0.31345512
-0.00045975688
-0.31191621
-0.00050012996
-0.30941098
-0.00054301394
-0.30720591
-0.0005883696
-0.3047029
-0.00063737851
-0.30248252
-0.0006907127
-0.30079593
-0.00074896826
-0.29930131
-0.00081265909
-0.29758033
-0.00088248249
-0.29533094
-0.00095877903
-0.29275623
-0.001042871
-0.29046881
-0.0011355349
-0.28919141
-0.0012354157
-0.28932503
-0.0013432148
-0.29024425
-0.0014601935
-0.29216418
-0.0015850765
-0.29429047
-0.0017206262
-0.29624254
-0.0018666697
-0.29787496
-0.0020249104
-0.2997959
-0.0021918583
-0.30217647
-0.0023681267
-0.30542796
-0.0025541193
-0.30846609
-0.0027538479
-0.31171847
-0.0029751214
-0.31403699
-0.0032307153
-0.31051127
-0.0035290042
-0.30366404
-0.0038643214
-0.30092857
-0.0042004071
-0.30038112
-0.0045587881
-0.30261044
-0.0049494622
-0.30673604
-0.0053498547
-0.30805042
-0.0057868933
-0.30764096
-0.0062756304
-0.30496551
-0.0068317803
-0.30448633
-0.0074151385
-0.0080603553
-0.29920485
-0.00020604675
-0.31697994
-0.00024290053
-0.31726176
-0.0002627852
-0.31596401
-0.00028401482
-0.31447072
-0.00030672254
-0.31317505
-0.00033180972
-0.31255056
-0.00035922195
-0.31245891
-0.00038979043
-0.31222883
-0.00042367703
-0.31157794
-0.0004605206
-0.31019911
-0.00050052647
-0.30786052
-0.00054336472
-0.30576387
-0.00058889207
-0.30359294
-0.00063820256
-0.30153496
-0.00069192723
-0.29977847
-0.00075059939
-0.29833751
-0.00081460492
-0.29665682
-0.0008847387
-0.29444617
-0.00096125895
-0.29195354
-0.0010454558
-0.28984837
-0.0011382034
-0.28874444
-0.001238007
-0.28886954
-0.0013458573
-0.28948409
-0.0014628924
-0.29098154
-0.0015881628
-0.29312336
-0.0017234709
-0.29492713
-0.0018689401
-0.29639122
-0.0020270045
-0.29851423
-0.0021950188
-0.30121931
-0.0023718521
-0.30449637
-0.0025586858
-0.30743904
-0.0027598328
-0.31044732
-0.0029820166
-0.3125414
-0.0032376226
-0.30923161
-0.0035336106
-0.30280301
-0.0038683038
-0.3001375
-0.0042068302
-0.29945628
-0.0045667383
-0.30144374
-0.0049577464
-0.30540531
-0.0053564824
-0.30687775
-0.0057961107
-0.30651722
-0.0062859623
-0.30382823
-0.0068415994
-0.3033101
-0.007425943
-0.30428787
-0.0080695524
-0.30508259
-0.00878667
-0.30777642
-0.0095427874
-0.31019731
-0.010291304
-0.011126136
-0.2985407
-0.00020623362
-0.31641928
-0.00024318505
-0.31684305
-0.00026318077
-0.31566081
-0.00028457746
-0.3140242
-0.00030739432
-0.3128815
-0.00033260213
-0.31211208
-0.00036012716
-0.31181946
-0.00039080506
-0.31137383
-0.00042469852
-0.31052681
-0.00046142339
-0.30881649
-0.00050140128
-0.30644587
-0.00054423428
-0.30435518
-0.00058986141
-0.30211459
-0.00063928333
-0.30007733
-0.00069314242
-0.29842865
-0.00075191116
-0.29702968
-0.00081611046
-0.29539354
-0.00088639516
-0.29332478
-0.00096322773
-0.29087565
-0.0010476653
-0.28868253
-0.0011409713
-0.28755687
-0.0012412883
-0.2876325
-0.0013495224
-0.28832442
-0.0014667011
-0.28992686
-0.0015913696
-0.29201664
-0.0017271969
-0.29392805
-0.0018728166
-0.29540352
-0.0020308756
-0.29716021
-0.0021991897
-0.29990876
-0.0023772683
-0.30339392
-0.0025633565
-0.30634662
-0.0027648358
-0.30936064
-0.0029874368
-0.3114538
-0.0032434972
-0.30809723
-0.003540034
-0.30165458
-0.0038751518
-0.29898963
-0.0042146616
-0.29829935
-0.0045755628
-0.30032369
-0.004967008
-0.30430904
-0.005364845
-0.30580102
-0.0058046897
-0.30536522
-0.0062953613
-0.30267771
-0.0068500121
-0.30221798
-0.0074369189
-0.30315689
-0.0080840946
-0.30388978
-0.0087947945
-0.30659538
-0.0095565401
-0.30900163
-0.010309051
-0.31547658
-0.011147323
-0.32449954
-0.012013165
-0.012933776
-0.29783455
-0.0002063914
-0.31599986
-0.00024344966
-0.31655466
-0.00026356245
-0.3154263
-0.00028506107
-0.31401829
-0.00030820897
-0.31264768
-0.00033350978
-0.31197184
-0.00036118034
-0.31145691
-0.00039195207
-0.31061861
-0.00042582927
-0.30947038
-0.00046241395
-0.30767705
-0.0005022667
-0.30514241
-0.00054510475
-0.30293426
-0.00059087999
-0.30078964
-0.00064044838
-0.29890177
-0.00069452258
-0.29732285
-0.00075346397
-0.29609159
-0.00081784682
-0.29453114
-0.00088817841
-0.29247705
-0.00096527591
-0.28990362
-0.0010499794
-0.28742069
-0.0011437481
-0.28604369
-0.0012445468
-0.28589394
-0.0013531757
-0.28678126
-0.0014705628
-0.28870371
-0.0015948228
-0.29067205
-0.0017308958
-0.29244333
-0.0018771703
-0.29408427
-0.0020352852
-0.29597133
-0.0022034411
-0.29881744
-0.0023822663
-0.30246282
-0.0025682672
-0.30545963
-0.0027696689
-0.30846282
-0.002992612
-0.31050722
-0.0032489441
-0.3070358
-0.0035460511
-0.30053131
-0.003881962
-0.29779704
-0.0042221662
-0.29706758
-0.0045837236
-0.2991299
-0.0049753282
-0.30321804
-0.0053737309
-0.30475621
-0.0058137756
-0.30433211
-0.0063054422
-0.30153145
-0.0068602742
-0.30105518
-0.0074465887
-0.30201714
-0.0080945032
-0.30280568
-0.0088109832
-0.30549632
-0.0095719816
-0.30786261
-0.010325006
-0.31430536
-0.011167861
-0.32329161
-0.012034102
-0.32947364
-0.012956144
-0.014089296
-0.2964476
-0.00020697097
-0.3146483
-0.00024412876
-0.31524808
-0.00026424877
-0.31418818
-0.00028572645
-0.31289944
-0.00030888774
-0.31161304
-0.00033444519
-0.31100662
-0.00036219243
-0.31048623
-0.00039296491
-0.30966644
-0.00042673243
-0.30859379
-0.00046324817
-0.30685896
-0.00050309857
-0.30439783
-0.00054601206
-0.30226024
-0.00059187405
-0.30009442
-0.00064160686
-0.29812352
-0.00069586743
-0.29642297
-0.00075500729
-0.2950428
-0.00081964895
-0.29333823
-0.00089024984
-0.29120239
-0.00096764935
-0.28862898
-0.0010526154
-0.28617743
-0.0011463911
-0.28480964
-0.0012471804
-0.28465025
-0.0013558991
-0.28548405
-0.0014736044
-0.28737844
-0.0015985536
-0.28940495
-0.0017348073
-0.29128312
-0.001881471
-0.29309529
-0.0020391445
-0.29491855
-0.0022075473
-0.29772866
-0.0023871093
-0.30147519
-0.0025735665
-0.30450911
-0.0027743017
-0.30746904
-0.0029973902
-0.30950461
-0.0032541417
-0.30597953
-0.003552236
-0.29944081
-0.0038892077
-0.29668765
-0.0042297293
-0.29598238
-0.0045913729
-0.2980566
-0.0049822612
-0.30219154
-0.0053835631
-0.30365653
-0.0058239388
-0.30322841
-0.0063158235
-0.30044219
-0.0068724714
-0.2999753
-0.0074596968
-0.30092558
-0.0081101791
-0.30167538
-0.0088263727
-0.30438485
-0.00958801
-0.30673258
-0.01034251
-0.31312435
-0.011185387
-0.32209188
-0.012054633
-0.32823481
-0.012979345
-0.33429569
-0.014113791
-0.34068588
-0.015419666
-0.33880022
-0.017081161
-0.019327885
-0.29569829
-0.00020775016
-0.31354048
-0.00024500565
-0.3139723
-0.00026505827
-0.31281518
-0.00028646192
-0.31136737
-0.00030960802
-0.31011369
-0.00033494345
-0.30949394
-0.00036256631
-0.3092742
-0.00039336567
-0.30880884
-0.00042730274
-0.30800712
-0.00046406051
-0.30645364
-0.00050409291
-0.30412592
-0.00054715212
-0.30201608
-0.00059306272
-0.29969485
-0.00064284647
-0.29748014
-0.00069715841
-0.29549467
-0.00075638598
-0.29381483
-0.00082122267
-0.29185485
-0.00089210177
-0.28947472
-0.00096975718
-0.28692
-0.0010550038
-0.28470425
-0.0011487384
-0.28355448
-0.0012494808
-0.28359859
-0.0013582773
-0.28432211
-0.001476379
-0.28599231
-0.0016022914
-0.28806121
-0.0017387141
-0.29015039
-0.0018859215
-0.29225244
-0.0020435248
-0.29390115
-0.0022116105
-0.29645861
-0.0023917091
-0.30032425
-0.0025788589
-0.30350396
-0.0027786188
-0.30649159
-0.0030019717
-0.30860656
-0.0032593944
-0.30499428
-0.0035588061
-0.29828403
-0.0038968876
-0.2955215
-0.0042372555
-0.29489076
-0.0045989204
-0.29704875
-0.0049901791
-0.30117262
-0.0053940296
-0.30252718
-0.0058349538
-0.30212748
-0.0063282792
-0.29938053
-0.0068868179
-0.29888363
-0.0074746348
-0.29982473
-0.0081247554
-0.3005728
-0.0088436769
-0.3033225
-0.0096051559
-0.30565257
-0.010360202
-0.3119589
-0.011204384
-0.32089852
-0.012075877
-0.32701102
-0.013002762
-0.33302553
-0.014139455
-0.33935208
-0.015447533
-0.33739246
-0.017110349
-0.31365277
-0.019355491
-0.29432696
-0.020823039
-0.021588887
-0.29454386
-0.00020787828
-0.31216093
-0.00024527795
-0.31247406
-0.00026540086
-0.31125743
-0.00028697455
-0.3096531
-0.00030999956
-0.30848966
-0.00033533166
-0.30788527
-0.00036295622
-0.30772531
-0.00039380316
-0.30749787
-0.0004279336
-0.3068713
-0.00046502038
-0.30556642
-0.0005051533
-0.30329391
-0.00054823492
-0.30123427
-0.0005942243
-0.29897851
-0.00064391146
-0.29675492
-0.00069823466
-0.29460474
-0.00075752029
-0.29268924
-0.00082249215
-0.29057514
-0.00089360268
-0.28803506
-0.00097132792
-0.28539137
-0.0010566073
-0.28323454
-0.0011502379
-0.28213261
-0.0012510843
-0.28221813
-0.0013600315
-0.28297045
-0.0014783755
-0.28469147
-0.0016049624
-0.28681077
-0.0017413349
-0.28884516
-0.0018890466
-0.29111208
-0.002047623
-0.29290637
-0.0022154498
-0.29524777
-0.0023951768
-0.29908697
-0.0025834931
-0.30235856
-0.0027832033
-0.30535456
-0.0030070671
-0.30747516
-0.0032649399
-0.30383295
-0.0035648608
-0.29711508
-0.0039034961
-0.29436892
-0.0042435233
-0.29381353
-0.004605386
-0.29600658
-0.0049977227
-0.30003671
-0.0054033482
-0.30132975
-0.0058454716
-0.30092748
-0.0063393134
-0.29825184
-0.0069006854
-0.29774018
-0.0074897577
-0.29865163
-0.008139866
-0.29937693
-0.0088596638
-0.30218229
-0.009623647
-0.30453562
-0.010380198
-0.3107095
-0.011224012
-0.31963396
-0.012097524
-0.32573352
-0.01302636
-0.33169832
-0.014165207
-0.3379759
-0.015475577
-0.33598394
-0.017139551
-0.31234467
-0.019380801
-0.293135
-0.020854624
-0.021624516
-0.29126694
-0.00020783573
-0.308994
-0.00024533344
-0.30961545
-0.00026560854
-0.30877011
-0.00028737108
-0.3078362
-0.00031093298
-0.30659442
-0.00033668918
-0.30597109
-0.00036460363
-0.30547544
-0.000395296
-0.30510832
-0.0004290053
-0.30434062
-0.00046553024
-0.30329655
-0.00050547707
-0.30131211
-0.00054854563
-0.29951987
-0.00059472048
-0.29769956
-0.00064454579
-0.2957016
-0.00069896601
-0.29352716
-0.00075841918
-0.29150675
-0.00082348053
-0.28932842
-0.00089471817
-0.28689331
-0.00097249802
-0.28450916
-0.0010577912
-0.28261153
-0.0011512957
-0.28158664
-0.0012522107
-0.28156584
-0.0013612492
-0.28214377
-0.0014797101
-0.28367861
-0.00160701
-0.28581238
-0.0017432595
-0.2876025
-0.0018902487
-0.2896631
-0.0020495572
-0.29175526
-0.002217951
-0.29406946
-0.0023972678
-0.29770375
-0.0025869518
-0.30092894
-0.0027880622
-0.30385985
-0.0030125193
-0.30591862
-0.0032706154
-0.3025281
-0.0035696238
-0.29611467
-0.0039073183
-0.29346428
-0.0042481955
-0.29284386
-0.0046108953
-0.29487499
-0.0050041656
-0.29874961
-0.0054105088
-0.30005155
-0.0058539575
-0.29965767
-0.006349011
-0.29704859
-0.0069110762
-0.29654191
-0.0075020801
-0.29742855
-0.0081536783
-0.29813337
-0.0088739599
-0.30095958
-0.0096370579
-0.30332665
-0.010397378
-0.30939042
-0.011242819
-0.31830546
-0.012118008
-0.32439293
-0.013048782
-0.33031541
-0.014188622
-0.33655586
-0.015500644
-0.33457035
-0.017164162
-0.31102996
-0.019407268
-0.29196332
-0.020886518
-0.26899896
-0.021658528
-0.26657426
-0.023540926
-0.27220246
-0.026683457
-0.029292164
-0.29036267
-0.00020796082
-0.30795536
-0.00024549263
-0.30846187
-0.00026581533
-0.30742
-0.00028759713
-0.30626911
-0.00031113641
-0.304964
-0.00033673789
-0.30436189
-0.00036468803
-0.30392074
-0.00039554383
-0.30351106
-0.00042952283
-0.30268194
-0.0004662559
-0.30147035
-0.00050636668
-0.29936386
-0.00054958858
-0.29742693
-0.00059585886
-0.29562727
-0.00064578418
-0.29372819
-0.0007002602
-0.29179714
-0.00075978473
-0.29011365
-0.00082477656
-0.28823995
-0.00089593106
-0.28602936
-0.00097359513
-0.28373123
-0.0010589112
-0.28177565
-0.0011524812
-0.28065894
-0.0012535012
-0.28061533
-0.0013626827
-0.28097698
-0.0014811902
-0.28214929
-0.0016086624
-0.2843792
-0.0017460392
-0.2864388
-0.001892388
-0.28815813
-0.0020519464
-0.29036446
-0.0022212455
-0.29292396
-0.0024000997
-0.29639096
-0.0025898817
-0.29954701
-0.0027924354
-0.30251104
-0.0030172391
-0.30453433
-0.0032756142
-0.30122051
-0.0035745622
-0.29495485
-0.0039121183
-0.29235812
-0.0042535314
-0.29175977
-0.0046167848
-0.29375844
-0.0050103516
-0.29748824
-0.0054176082
-0.29880979
-0.0058620712
-0.29838826
-0.0063578854
-0.29577727
-0.0069201573
-0.29527868
-0.007512642
-0.29616275
-0.0081664174
-0.2968548
-0.0088855013
-0.29974339
-0.0096489304
-0.30210326
-0.010412139
-0.30805642
-0.011259125
-0.31693999
-0.012135913
-0.32303036
-0.013070096
-0.3289172
-0.01420998
-0.3351277
-0.015522997
-0.33316598
-0.017187834
-0.3097157
-0.019434105
-0.2908089
-0.020917984
-0.26788831
-0.021690662
-0.2654156
-0.02357145
-0.27094032
-0.026714029
-0.029329995
-0.2900372
-0.00020774468
-0.30781927
-0.00024538141
-0.30848203
-0.00026578197
-0.30759755
-0.00028767537
-0.30648402
-0.00031148141
-0.30515729
-0.00033721868
-0.30431315
-0.00036528155
-0.30347744
-0.0003962311
-0.30260728
-0.00043014272
-0.30132339
-0.00046679211
-0.2997485
-0.00050682053
-0.29749365
-0.00055008405
-0.29553082
-0.00059648738
-0.29368736
-0.0006467865
-0.29183333
-0.00070156549
-0.29004551
-0.0007613089
-0.28851772
-0.00082646313
-0.28683005
-0.00089764638
-0.2848277
-0.00097523963
-0.28265393
-0.0010606359
-0.28076029
-0.0011545659
-0.27968153
-0.0012557497
-0.27958892
-0.0013650494
-0.2800804
-0.0014834464
-0.2812314
-0.0016099458
-0.28292246
-0.0017484772
-0.28496612
-0.001895683
-0.2866908
-0.0020549518
-0.28891386
-0.0022247003
-0.29172912
-0.0024035809
-0.29516882
-0.0025931732
-0.29822281
-0.0027969772
-0.30117387
-0.0030225108
-0.30314201
-0.0032811605
-0.29991768
-0.003579889
-0.2938188
-0.0039170704
-0.29126194
-0.0042594288
-0.29062588
-0.0046236794
-0.2925581
-0.0050176169
-0.29617492
-0.0054243953
-0.29754386
-0.0058693262
-0.29716629
-0.0063666575
-0.29455397
-0.006929675
-0.29400706
-0.0075227582
-0.29492538
-0.0081744962
-0.29563917
-0.0088983468
-0.29856033
-0.009660194
-0.30087995
-0.01042526
-0.30677217
-0.011275232
-0.31561492
-0.012154208
-0.32168772
-0.013090462
-0.3275485
-0.014231099
-0.33372125
-0.015545645
-0.33176757
-0.01721203
-0.30840276
-0.01946089
-0.28963499
-0.020949078
-0.26676978
-0.021722827
-0.26425869
-0.023602586
-0.26969596
-0.026746308
-0.029370575
-0.28745902
-0.00020749501
-0.30569572
-0.00024524839
-0.30656828
-0.00026584624
-0.30588953
-0.00028800304
-0.30507697
-0.0003119763
-0.30416806
-0.00033808146
-0.30359545
-0.00036638181
-0.30292445
-0.00039741669
-0.3020635
-0.00043119012
-0.30095938
-0.00046761482
-0.29927665
-0.00050741756
-0.2968782
-0.0005505578
-0.2946925
-0.00059692359
-0.29249986
-0.00064741471
-0.29050734
-0.00070247825
-0.28884112
-0.00076253749
-0.28735288
-0.00082806204
-0.28576484
-0.00089959756
-0.28385606
-0.00097741928
-0.28146189
-0.0010629822
-0.27932971
-0.0011572113
-0.27820549
-0.0012585945
-0.27806028
-0.0013680004
-0.27881024
-0.0014863413
-0.28034316
-0.0016119657
-0.28182618
-0.001750507
-0.28345292
-0.0018993132
-0.28519185
-0.0020586245
-0.28752478
-0.0022284081
-0.29055729
-0.0024075851
-0.29407926
-0.0025969808
-0.29705872
-0.0028013095
-0.29992212
-0.0030277635
-0.3018008
-0.0032866626
-0.29858471
-0.0035850629
-0.29261539
-0.0039223564
-0.29004565
-0.0042658082
-0.28937934
-0.0046309876
-0.29137498
-0.0050247601
-0.2949767
-0.0054306994
-0.29649644
-0.0058760661
-0.29598087
-0.0063742589
-0.29328318
-0.0069350678
-0.29285659
-0.0075294912
-0.29372762
-0.0081868894
-0.29438335
-0.008905168
-0.29733021
-0.0096712851
-0.29963014
-0.010438659
-0.30553281
-0.011293032
-0.31430728
-0.01217618
-0.32036621
-0.013111206
-0.32619805
-0.014254082
-0.33232916
-0.015570614
-0.33037808
-0.01723885
-0.30709883
-0.019490804
-0.28845253
-0.020982519
-0.2656567
-0.021757549
-0.26312133
-0.023636325
-0.26849007
-0.026781648
-0.029414481
-0.28569651
-0.0002078576
-0.3036038
-0.00024560139
-0.30439641
-0.00026619191
-0.30379551
-0.000288323
-0.30325206
-0.00031235293
-0.30247551
-0.00033871232
-0.30187615
-0.00036720401
-0.30119302
-0.00039834245
-0.30032238
-0.0004320644
-0.29933452
-0.00046849508
-0.29804357
-0.00050833944
-0.2961883
-0.0005515762
-0.29445665
-0.00059806689
-0.29249458
-0.00064855106
-0.29038077
-0.0007035827
-0.28840042
-0.00076365853
-0.2864997
-0.00082932718
-0.28449695
-0.00090121679
-0.28243811
-0.00097969514
-0.28009426
-0.0010657693
-0.27801103
-0.0011603564
-0.27693581
-0.0012621114
-0.27680275
-0.0013717676
-0.27751766
-0.0014903233
-0.27909843
-0.0016155354
-0.28062039
-0.0017531623
-0.28211182
-0.0019027207
-0.28390445
-0.0020622782
-0.28611673
-0.0022321959
-0.28916607
-0.002412387
-0.2928622
-0.0026018356
-0.29589168
-0.002806335
-0.29868162
-0.0030332165
-0.30052569
-0.0032922996
-0.29737062
-0.0035904672
-0.29150791
-0.0039280167
-0.28894376
-0.0042720526
-0.28821942
-0.0046381717
-0.29017692
-0.0050315891
-0.29379721
-0.005437589
-0.29529437
-0.0058825207
-0.29482638
-0.0063814059
-0.29213567
-0.0069424883
-0.29162329
-0.0075383213
-0.29247501
-0.0081924838
-0.29315045
-0.0089164624
-0.29611877
-0.0096875903
-0.29840326
-0.010453257
-0.30428523
-0.011312822
-0.31301138
-0.01220008
-0.31903893
-0.013132649
-0.32483872
-0.014279327
-0.33091987
-0.015598076
-0.32894846
-0.017268224
-0.30576614
-0.019522831
-0.28723245
-0.021018329
-0.26452496
-0.02179564
-0.26197906
-0.023674215
-0.2673037
-0.02682247
-0.28702948
-0.00020922631
-0.30519902
-0.00024700986
-0.30607017
-0.00026721336
-0.30533648
-0.00028915745
-0.30411497
-0.00031281398
-0.30262005
-0.00033885695
-0.30141362
-0.00036720755
-0.30038645
-0.00039855682
-0.29930949
-0.00043274291
-0.29816647
-0.00046961326
-0.29657673
-0.00050982998
-0.29443969
-0.0005532764
-0.29269912
-0.00059988453
-0.29107169
-0.00065040105
-0.28942288
-0.00070525036
-0.28773693
-0.00076504459
-0.28596256
-0.00083043063
-0.28375743
-0.00090216007
-0.28133412
-0.00098090683
-0.27871802
-0.0010676127
-0.27630621
-0.001162784
-0.27485938
-0.0012651963
-0.27462124
-0.0013753957
-0.27551053
-0.0014944133
-0.27761253
-0.0016196915
-0.27958243
-0.0017565446
-0.28106406
-0.0019065473
-0.28279938
-0.002067162
-0.28489527
-0.0022372393
-0.28788796
-0.0024185088
-0.29174398
-0.0026077407
-0.29484194
-0.0028114071
-0.29766456