/*--------------------------------*- C++ -*----------------------------------*\
| =========                 |                                                 |
| \\      /  F ield         | OpenFOAM: The Open Source CFD Toolbox           |
|  \\    /   O peration     | Version:  2506                                  |
|   \\  /    A nd           | Website:  www.openfoam.com                      |
|    \\/     M anipulation  |                                                 |
\*---------------------------------------------------------------------------*/
FoamFile
{
    version     2.0;
    format      ascii;
    arch        "LSB;label=32;scalar=64";
    class       volScalarField;
    location    "2.65";
    object      nut;
}
// * * * * * * * * * * * * * * * * * * * * * * * * * * * * * * * * * * * * * //

dimensions      [0 2 -1 0 0 0 0];

internalField   nonuniform List<scalar> 
1376
(
0.19791111
0.19639376
0.1953663
0.19462602
0.19405786
0.19360817
0.19324509
0.19294641
0.19269584
0.19248287
0.19230266
0.1921465
0.19201017
0.19189342
0.19179077
0.19170028
0.19161959
0.19155091
0.19148892
0.19143433
0.19138741
0.19134502
0.19131285
0.19128446
0.19126328
0.19125745
0.19127219
0.19129931
0.19133873
0.19142339
0.19152258
0.1917109
0.18208522
0.14228558
0.1394762
0.098146572
0.11017685
0.038692268
0.031294143
0.044631791
0.014567421
0.022052472
0.031232704
0.015847153
0.014110132
0.011279894
0.0086997652
0.0074319733
0.00073116501
0.19788401
0.19644417
0.19545607
0.1947252
0.19415884
0.19370687
0.19334002
0.19303704
0.1927819
0.19256393
0.19237909
0.19221869
0.19207786
0.19195687
0.19185076
0.1917569
0.1916726
0.19160055
0.19153536
0.19147815
0.19142935
0.19138607
0.1913504
0.19131798
0.19129773
0.19128844
0.19129681
0.19131528
0.1913536
0.19142816
0.1915307
0.19170268
0.18937911
0.15283243
0.11588426
0.091389867
0.071411091
0.04393932
0.056598206
0.034578691
0.047254887
0.021137495
0.016578073
0.014821774
0.010345275
0.0084020613
0.0083664416
0.0052195407
0.00071985247
0.19799067
0.19659911
0.19560589
0.19486933
0.1942967
0.19383666
0.19346097
0.19315024
0.19288767
0.19266237
0.1924709
0.19230417
0.19215833
0.192031
0.19192046
0.19182129
0.19173284
0.1916565
0.19158791
0.19152736
0.19147543
0.19142932
0.19139031
0.19135435
0.19133088
0.19131722
0.19132066
0.1913378
0.19137168
0.19142936
0.1915406
0.1916815
0.1855229
0.15588895
0.12681025
0.11040074
0.06514937
0.045936706
0.051519285
0.04999751
0.024473183
0.016974433
0.02348982
0.014961097
0.015536836
0.0058190739
0.0054903588
0.0035787478
0.00075189899
0.19805024
0.19671201
0.19574
0.19500809
0.19443276
0.19396724
0.1935845
0.19326658
0.19299686
0.19276502
0.19256641
0.19239364
0.1922423
0.192109
0.19199286
0.19188836
0.19179608
0.19171508
0.19164288
0.19157771
0.19152297
0.19147386
0.19143092
0.19139347
0.19136678
0.19135077
0.19134728
0.19135858
0.19138788
0.19143618
0.19154855
0.19166352
0.19188213
0.15695849
0.12857469
0.089653032
0.10902871
0.08431069
0.045834105
0.035380434
0.037889134
0.024333646
0.015832185
0.013030704
0.0067502074
0.0082025099
0.0087719819
0.0043600254
0.00073812872
0.19811654
0.1968353
0.19588225
0.19515379
0.19457605
0.19410558
0.19371579
0.1933902
0.19311357
0.19287443
0.19266789
0.19248868
0.19233121
0.19219145
0.19206944
0.19196022
0.19186335
0.19177736
0.19170082
0.19163109
0.19157291
0.19152071
0.19147436
0.19143374
0.19140391
0.19138538
0.19137722
0.19138219
0.19140815
0.19145024
0.19154635
0.19165939
0.19185419
0.15816796
0.12586474
0.11644903
0.062726674
0.055663686
0.06071713
0.046438556
0.029990206
0.02551657
0.024992727
0.01533876
0.014397607
0.0081287081
0.006236651
0.0021253208
0.00081029874
0.19817397
0.19695367
0.19602306
0.19530141
0.19472329
0.19424894
0.19385256
0.19351927
0.19323558
0.19298915
0.19277476
0.19258835
0.19242437
0.19227848
0.19215048
0.19203622
0.19193412
0.19184249
0.19176152
0.19168832
0.19162517
0.19157023
0.19152029
0.19147635
0.19144362
0.19142317
0.19140922
0.19140794
0.19142647
0.19146713
0.19153978
0.19166586
0.19182739
0.16213229
0.13455864
0.096908964
0.11338376
0.062662125
0.048205998
0.039430055
0.033889307
0.025010335
0.01728853
0.016611159
0.0075028117
0.0077764709
0.003838525
0.0038463972
0.00079070783
0.19822895
0.19706774
0.19616259
0.19545055
0.19487349
0.19439631
0.19399394
0.19365312
0.19336206
0.19310839
0.19288637
0.19269264
0.19252227
0.19237013
0.19223554
0.19211553
0.19200812
0.19191095
0.19182486
0.19174839
0.19168089
0.19162129
0.1915684
0.19152115
0.19148447
0.19145929
0.19144291
0.19143748
0.19145137
0.19148356
0.191539
0.19167193
0.19180557
0.16586787
0.13018379
0.11305744
0.074522879
0.063753659
0.058598581
0.047674009
0.033290498
0.028450129
0.020771273
0.01273362
0.012609088
0.0066271172
0.0062966107
0.0030600374
0.00084561414
0.19828223
0.19717734
0.19629966
0.19559845
0.19502467
0.1945457
0.19413827
0.1937904
0.19349187
0.19323123
0.19300185
0.1928004
0.19262339
0.19246532
0.19232364
0.19219774
0.19208517
0.19198264
0.1918915
0.1918112
0.19173911
0.19167408
0.19161721
0.19156681
0.1915274
0.19149876
0.19147719
0.19146708
0.19147475
0.19149999
0.19155144
0.19166645
0.19178447
0.16811332
0.13883282
0.10656655
0.09297642
0.067531065
0.050719442
0.040402958
0.033183863
0.023182154
0.02064783
0.016950953
0.0087038745
0.0080109533
0.0038756863
0.003181089
0.00088188492
0.1983255
0.19727901
0.19643232
0.19574365
0.19517458
0.19469429
0.19428319
0.19392927
0.19362333
0.19335618
0.19311989
0.19291087
0.19272644
0.19256217
0.1924143
0.1922825
0.19216413
0.19205657
0.19196024
0.19187495
0.19179899
0.19173092
0.19166862
0.19161409
0.19157003
0.19153759
0.19151377
0.19149854
0.19150052
0.19151876
0.1915719
0.19164124
0.19178659
0.17047173
0.13700511
0.1128282
0.087187606
0.069554442
0.060454118
0.045649512
0.036212033
0.029157703
0.019038885
0.013896066
0.012022504
0.0064412827
0.0060374515
0.0027251219
0.00088358591
0.19836351
0.19737338
0.19655692
0.19588368
0.19531972
0.19483982
0.19442642
0.19406775
0.19375526
0.19348144
0.19323873
0.19302256
0.19283062
0.19265996
0.19250621
0.19236825
0.19224383
0.19213136
0.19203019
0.19193983
0.19185921
0.19178774
0.19172241
0.19166329
0.19161474
0.19157733
0.19154958
0.19153134
0.19152714
0.19154003
0.19158679
0.19162278
0.19180243
0.17545841
0.14046904
0.11328299
0.090607489
0.071834461
0.054994397
0.043081427
0.032959977
0.025441323
0.020260677
0.014593669
0.0094055365
0.0078887359
0.0040613364
0.0028950524
0.00093920572
0.19840189
0.19746221
0.19667459
0.19601703
0.19545915
0.19498108
0.19456638
0.19420394
0.19388554
0.19360519
0.19335649
0.1931334
0.19293476
0.19275733
0.19259761
0.19245432
0.19232409
0.1922057
0.19209989
0.1920052
0.19191999
0.19184397
0.19177469
0.19171219
0.19165973
0.1916185
0.19158697
0.19156409
0.19155485
0.19156326
0.19160018
0.1916204
0.19181421
0.17909527
0.14335646
0.11449433
0.093330913
0.073180107
0.056904427
0.04823324
0.035443146
0.027145142
0.020138598
0.014336983
0.012234487
0.0068440194
0.0056738055
0.0024531044
0.00086324948
0.198439
0.19754559
0.1967854
0.19614285
0.19559228
0.19511635
0.19470083
0.19433494
0.19401162
0.19372567
0.19347099
0.19324156
0.19303647
0.19285281
0.19268723
0.1925382
0.19240292
0.19227933
0.1921683
0.19206889
0.19197937
0.1918999
0.19182692
0.19175954
0.19170254
0.19165715
0.19162283
0.19159728
0.19158261
0.19158614
0.19161124
0.19163313
0.19181005
0.18266336
0.14752217
0.11811341
0.092566464
0.075639276
0.059584389
0.043202455
0.036519031
0.026822217
0.020707641
0.014884137
0.0096105345
0.007470294
0.0041295914
0.0029541068
0.00096381384
0.19847495
0.19762254
0.1968876
0.19625953
0.19571713
0.19524395
0.19482754
0.19445836
0.19413111
0.19384022
0.19358014
0.19334526
0.19313411
0.19294464
0.19277342
0.19261871
0.19247828
0.19234982
0.19223416
0.19213043
0.19203633
0.19195277
0.19187677
0.19180617
0.19174493
0.19169482
0.191656
0.19162709
0.19160897
0.19160878
0.19162294
0.19166839
0.19176851
0.18629341
0.14998454
0.12004034
0.096741657
0.074264969
0.059952803
0.048064872
0.034540266
0.027656643
0.019374159
0.014936306
0.010766587
0.0072103085
0.0047097494
0.0023626302
0.0008942863
0.19851047
0.1976933
0.19697992
0.1963654
0.19583087
0.19536059
0.19494344
0.19457232
0.19424151
0.19394613
0.19368119
0.19344171
0.1932255
0.19303077
0.19285445
0.19269476
0.19254964
0.19241672
0.19229648
0.19218839
0.19209009
0.19200261
0.19192348
0.19184971
0.19178471
0.19173092
0.19168872
0.19165655
0.19163462
0.19163016
0.19163774
0.19168666
0.19173864
0.18964249
0.15233655
0.12235853
0.09681433
0.077657408
0.059345652
0.046881181
0.036587811
0.027385672
0.020906181
0.014913199
0.010390092
0.0070961691
0.0043489865
0.0028747514
0.00094967836
0.19854553
0.19775755
0.19706252
0.19645918
0.19593097
0.19546335
0.19504653
0.19467428
0.19434039
0.19404092
0.19377179
0.19352827
0.19330773
0.19310835
0.19292746
0.19276345
0.19261426
0.19247754
0.19235342
0.19224148
0.19213941
0.19204842
0.19196646
0.19189012
0.19182168
0.19176448
0.1917194
0.1916849
0.19166029
0.19165224
0.19165399
0.19170218
0.1917191
0.19175357
0.15391698
0.12344208
0.098664026
0.077201002
0.06129896
0.046669332
0.03652531
0.027161352
0.020548918
0.014338738
0.010725078
0.0068000129
0.0043855052
0.0023649723
0.00089595819
0.19857918
0.19781383
0.19713347
0.19653895
0.19601633
0.19555087
0.1951342
0.19476074
0.19442502
0.19412275
0.19385007
0.1936029
0.1933787
0.19317561
0.1929908
0.19282288
0.19266985
0.19252969
0.19240236
0.19228725
0.19218199
0.19208785
0.19200331
0.19192488
0.19185379
0.1917934
0.1917452
0.19170793
0.19168041
0.19166888
0.19166558
0.19171172
0.19169983
0.19194366
0.15551965
0.12523992
0.099522994
0.078994417
0.06118782
0.048053024
0.036243492
0.027971688
0.020375338
0.015168252
0.010152373
0.0071311057
0.0042287228
0.0026646698
0.00092637219
0.19860855
0.19786024
0.1971908
0.19660289
0.19608417
0.19562036
0.19520394
0.19482969
0.19449311
0.19418907
0.19391367
0.19366357
0.19343639
0.19323027
0.1930423
0.19287138
0.19271539
0.19257215
0.19244182
0.19232379
0.19221588
0.19211929
0.19203263
0.19195251
0.19187952
0.1918167
0.19176589
0.19172606
0.19169565
0.19168078
0.19167311
0.19171676
0.19168286
0.1919421
0.15904875
0.12801549
0.10243927
0.080571408
0.063126485
0.048713394
0.037598329
0.028116812
0.021019522
0.015091876
0.010589183
0.0070027388
0.004361859
0.0025119691
0.00090498026
0.19863135
0.19789491
0.19723341
0.19665014
0.19613377
0.19567092
0.19525653
0.19488168
0.19454333
0.19423767
0.19396004
0.19370768
0.1934783
0.19326995
0.19307975
0.19290664
0.19274845
0.19260295
0.1924704
0.19235012
0.19224015
0.19214161
0.19205312
0.19197172
0.19189757
0.19183312
0.19178062
0.1917394
0.19170762
0.19169131
0.19168165
0.19172348
0.1916777
0.19194621
0.16251761
0.13103047
0.1047263
0.082688571
0.064478028
0.049903465
0.03815932
0.02887646
0.021327467
0.015377832
0.0107801
0.0071402103
0.0043938445
0.0026897727
0.0009450371
0.19864559
0.19791594
0.19725882
0.19667903
0.19616377
0.19570181
0.19528791
0.19491322
0.19457338
0.19426572
0.19398673
0.19373366
0.1935032
0.19329355
0.193102
0.19292758
0.19276804
0.19262099
0.19248689
0.19236516
0.19225405
0.19215468
0.19206534
0.19198356
0.19190934
0.19184456
0.1917919
0.19175103
0.1917201
0.19170536
0.19169753
0.19174113
0.1916993
0.19197066
0.15956701
0.12844468
0.10268025
0.081024557
0.063180507
0.048803438
0.037297853
0.028076087
0.020757027
0.014992732
0.010398069
0.0069355124
0.0042661272
0.0025165976
0.00090391651
0.19865012
0.19792262
0.19726673
0.19668743
0.19617227
0.195711
0.19529524
0.19491963
0.19457949
0.19427154
0.19399304
0.19373994
0.19350909
0.19329901
0.19310733
0.19293307
0.19277365
0.19262622
0.19249161
0.19236943
0.19225809
0.19215878
0.19206934
0.19116053
0.19121644
0.19127924
0.19135317
0.19144305
0.19155133
0.19168288
0.1918424
0.19203938
0.19228384
0.19259187
0.19299366
0.19353493
0.19431269
0.19548001
0.19122393
0.19114128
0.19106694
0.19103248
0.19099266
0.19099454
0.19100997
0.19104104
0.19103962
0.19105691
0.19108684
0.19112444
0.19116642
0.19121485
0.1912736
0.19134151
0.19142043
0.19151517
0.19162887
0.19176666
0.19193322
0.19213813
0.1923915
0.19270973
0.1931241
0.19368038
0.19447786
0.19567488
0.036915993
0.059675124
0.07124176
0.09915252
0.10474715
0.14818274
0.19128434
0.19178249
0.19150881
0.19131726
0.19123585
0.19116409
0.19109734
0.19104649
0.19102608
0.19103109
0.19104524
0.19106958
0.19107353
0.19109767
0.19113116
0.19117288
0.19121831
0.19127131
0.19133236
0.19140568
0.19149012
0.19159025
0.1917096
0.191854
0.19202796
0.19224129
0.19250398
0.19283321
0.19326101
0.19383338
0.19465152
0.19587925
0.0179156
0.013963325
0.012714308
0.016302553
0.026903353
0.025052758
0.023687436
0.058917656
0.057744627
0.052472084
0.067542836
0.10733289
0.12053029
0.14466227
0.14471254
0.16471255
0.19172527
0.19149013
0.19131628
0.19123855
0.19115933
0.19110301
0.19107182
0.19106063
0.19105902
0.19107719
0.19110029
0.19111428
0.19114159
0.19117841
0.19122235
0.19127058
0.19132924
0.19139393
0.19147217
0.19156213
0.19166804
0.191794
0.19194511
0.19212699
0.19234898
0.19262143
0.19296269
0.19340484
0.19399445
0.19483407
0.19609339
0.00073821239
0.016452512
0.017387008
0.023379734
0.020849946
0.015327483
0.021646444
0.019684928
0.039673729
0.042572059
0.038249545
0.059503866
0.066330722
0.098255949
0.10602334
0.13437186
0.17262919
0.19199419
0.19168243
0.19148164
0.19131982
0.19123354
0.19116546
0.1911125
0.19108389
0.19108276
0.19109334
0.19111372
0.19113824
0.19115753
0.19118858
0.191227
0.19127349
0.19132506
0.19138857
0.19145903
0.19154163
0.19163682
0.1917486
0.19188166
0.19204004
0.19223033
0.1924615
0.19274444
0.19309872
0.19355606
0.19416384
0.19502619
0.19631707
0.00074990136
0.020065552
0.014431152
0.014000529
0.032187578
0.022140337
0.025436763
0.029985988
0.028938845
0.030708779
0.051971195
0.06950753
0.054757501
0.066410376
0.11046134
0.11457847
0.14690092
0.19014374
0.19164836
0.19145306
0.19131888
0.19124029
0.19118501
0.19114
0.19111581
0.19111255
0.19112611
0.19115048
0.19117379
0.19120169
0.19123575
0.19127831
0.19132713
0.19138284
0.19144929
0.19152606
0.19161371
0.19171448
0.19183278
0.19197271
0.19213902
0.19233827
0.19257907
0.19287347
0.19324156
0.19371516
0.19434218
0.1952293
0.19655211
0.00075727542
0.010231313
0.012331099
0.014601939
0.022483196
0.023363998
0.036914015
0.019775748
0.036053346
0.042641363
0.037961998
0.041228277
0.069924707
0.083270467
0.10339954
0.13978703
0.16344777
0.19190498
0.19161985
0.19144007
0.19132183
0.19124201
0.19119488
0.19115424
0.19114065
0.19114836
0.19116098
0.19118434
0.19121018
0.19124366
0.19128402
0.19133102
0.19138288
0.19144287
0.19151316
0.19159452
0.19168795
0.19179509
0.19192043
0.19206766
0.19224244
0.19245109
0.19270232
0.19300861
0.19339146
0.19388256
0.19452999
0.19544369
0.19680205
0.0007215183
0.0096581199
0.011855718
0.013218849
0.016077336
0.017983556
0.026526105
0.029375837
0.022367708
0.056709909
0.071522208
0.050478203
0.037697245
0.10853736
0.10778198
0.13725593
0.1769306
0.19184665
0.19158788
0.19142968
0.19133283
0.19125878
0.19120806
0.19117567
0.19116912
0.19117963
0.19119875
0.19122118
0.19125297
0.19129002
0.19133258
0.19138325
0.19143984
0.19150499
0.19158054
0.19166552
0.19176449
0.19187906
0.19201149
0.19216647
0.19235003
0.19256907
0.19283114
0.1931504
0.19354889
0.19405859
0.19472757
0.19566962
0.19706727
0.00073580229
0.0064707633
0.01103412
0.0053026041
0.01462667
0.011454114
0.019374447
0.015571395
0.035033711
0.031860639
0.028869122
0.073760149
0.082076537
0.070909513
0.1170539
0.13195726
0.16832717
0.19179911
0.19156801
0.19142366
0.19132675
0.19127078
0.19123061
0.19120461
0.19119931
0.19121556
0.19123518
0.19126228
0.19129604
0.19133695
0.19138396
0.19143808
0.19149765
0.19156887
0.19164928
0.19174023
0.19184427
0.19196569
0.19210624
0.19226941
0.19246255
0.19269218
0.19296569
0.19329901
0.19371413
0.19424342
0.19493539
0.19590815
0.19734804
0.00074421974
0.0066853058
0.012217266
0.0065373802
0.010829437
0.010159731
0.011790759
0.01011054
0.028383946
0.041083022
0.059760184
0.042736064
0.039868371
0.1059652
0.11148793
0.15304075
0.18375369
0.19175234
0.19154628
0.19142619
0.1913304
0.19128305
0.191246
0.19122978
0.19123129
0.19124951
0.19127316
0.19130122
0.19134195
0.19138533
0.19143617
0.1914946
0.19155839
0.19163445
0.19171996
0.19181733
0.19192773
0.19205628
0.1922047
0.1923763
0.1925796
0.19281983
0.19310599
0.19345438
0.19388702
0.19443642
0.19515293
0.19615643
0.19764086
)
;

boundaryField
{
    Side
    {
        type            empty;
    }
    Inlet
    {
        type            calculated;
        value           nonuniform List<scalar> 
30
(
0.19893905
0.19892635
0.19891081
0.19890831
0.1989152
0.19891495
0.19891505
0.19891823
0.19891885
0.19891961
0.19891956
0.19892155
0.19892721
0.1989372
0.19895091
0.19896704
0.1989834
0.19899751
0.19900702
0.19901035
0.19921364
0.19920658
0.19920346
0.19919888
0.19919016
0.19918836
0.19919053
0.19913288
0.19905433
0.19896433
)
;
    }
    Airfoil
    {
        type            nutkWallFunction;
        blending        stepwise;
        value           nonuniform List<scalar> 
25
(
0.00085775069
0.00084815741
0.00084100375
0.00083591056
0.00083307314
0.00083194785
0.00083253895
0.00083472725
0.00083809695
0.00084261757
0.00084788514
0.00085381783
0.000859975
0.00086617888
0.00087203675
0.00087747427
0.00088224538
0.00088600385
0.00088848174
0.0009001257
0.00088946186
0.00088076286
0.00087401111
0.00086976376
0.00086724697
)
;
    }
    Outlet
    {
        type            calculated;
        value           nonuniform List<scalar> 0();
    }
    procBoundary7to0
    {
        type            processor;
        value           nonuniform List<scalar> 
50
(
0.19198788
0.19191443
0.19185025
0.19179819
0.19175803
0.19172805
0.19171459
0.19170791
0.19175368
0.19172031
0.19199212
0.1557269
0.12526329
0.10007578
0.078917765
0.061527309
0.047504864
0.036249987
0.027311747
0.020148816
0.014535859
0.010051052
0.0066552548
0.0040216563
0.0023440051
0.00088831614
0.1986452
0.19791589
0.19725912
0.19667867
0.19616357
0.19570264
0.19528755
0.19491166
0.19457113
0.19426391
0.19398609
0.19373343
0.19350253
0.19329248
0.19310065
0.19292657
0.1927679
0.19262134
0.19248772
0.19236625
0.19225536
0.19215615
0.19198788
0.19206611
)
;
    }
    procBoundary7to8
    {
        type            processor;
        value           nonuniform List<scalar> 
53
(
0.19110876
0.19116059
0.1912188
0.19128846
0.19137378
0.19147656
0.19160221
0.1917553
0.1919447
0.19218083
0.19247919
0.19286928
0.19339655
0.1941554
0.19529419
0.19123447
0.19112527
0.19105189
0.19101644
0.19098997
0.19096669
0.19097561
0.19099903
0.19100188
0.19101632
0.19104337
0.19107618
0.19111482
0.19111482
0.083715056
0.046626373
0.076702888
0.093704906
0.16111654
0.16731463
0.17728964
0.19183003
0.19155598
0.19133601
0.19133601
0.01339463
0.010198145
0.031647963
0.020187962
0.046930885
0.023034634
0.02355485
0.022180663
0.034717868
0.034717868
0.00081182031
0.015764741
0.015764741
)
;
    }
}


// ************************************************************************* //
