/*--------------------------------*- C++ -*----------------------------------*\
| =========                 |                                                 |
| \\      /  F ield         | OpenFOAM: The Open Source CFD Toolbox           |
|  \\    /   O peration     | Version:  2506                                  |
|   \\  /    A nd           | Website:  www.openfoam.com                      |
|    \\/     M anipulation  |                                                 |
\*---------------------------------------------------------------------------*/
FoamFile
{
    version     2.0;
    format      ascii;
    arch        "LSB;label=32;scalar=64";
    class       volScalarField;
    location    "0.0235";
    object      Ma;
}
// * * * * * * * * * * * * * * * * * * * * * * * * * * * * * * * * * * * * * //

dimensions      [0 0 0 0 0 0 0];

internalField   nonuniform List<scalar> 
13761
(
0.0038908946
0.0086272153
0.012860771
0.022506529
0.035320958
0.044486117
0.049370255
0.051848217
0.053264962
0.05424206
0.055038399
0.055759124
0.056448193
0.057126347
0.057803293
0.058484808
0.059175569
0.059880697
0.060605244
0.061352103
0.062125333
0.062931296
0.063776273
0.064666527
0.065607558
0.066603289
0.067655642
0.068764284
0.069927741
0.071145308
0.072416616
0.073742705
0.075126116
0.076582404
0.078135287
0.079819199
0.081686742
0.083814102
0.086267927
0.089054625
0.092106794
0.095284568
0.098464148
0.10165538
0.10492597
0.10828431
0.1117152
0.11522775
0.11885662
0.12266146
0.12671713
0.13105726
0.13571852
0.14106859
0.14624776
0.1558281
0.16449669
0.17118813
0.18715788
0.20603424
0.21867971
0.22605048
0.23078467
0.23341733
0.2355394
0.23819826
0.24048327
0.24165535
0.24320936
0.24464188
0.24618775
0.2472925
0.24876519
0.25053407
0.25227899
0.25431803
0.25616734
0.25807763
0.26022388
0.26226609
0.26424251
0.26614661
0.26808708
0.27020069
0.27213811
0.27383707
0.27556171
0.27729669
0.2787655
0.28013025
0.28160699
0.28289288
0.28406653
0.2852863
0.28629562
0.28740662
0.28845009
0.28931764
0.29018957
0.29120988
0.29222036
0.29310319
0.29386711
0.29474174
0.29564419
0.29639616
0.29711263
0.2978015
0.29844109
0.29901855
0.29955928
0.30011804
0.30052443
0.30082576
0.30112087
0.30140342
0.30165754
0.30186638
0.30201101
0.30217842
0.30219482
0.30210649
0.30202957
0.30189724
0.3019558
0.30173834
0.3016944
0.30154651
0.30129248
0.30131758
0.30105753
0.30084793
0.30093368
0.30066633
0.3005479
0.3006223
0.30037798
0.30025386
0.0017570428
0.00536071
0.0092130591
0.013324905
0.017690679
0.022279573
0.026986131
0.031616124
0.035956924
0.039880392
0.043371781
0.046485531
0.049279665
0.051801707
0.054097677
0.056206058
0.058156583
0.059970906
0.061665088
0.063268227
0.064803001
0.06628743
0.067736614
0.069163556
0.070579247
0.071993408
0.07341548
0.074855033
0.076322488
0.077829628
0.07939002
0.081020179
0.08273395
0.084535616
0.086437093
0.088449248
0.090582804
0.092847921
0.095253794
0.097806134
0.10050865
0.10335812
0.1063346
0.10939984
0.11251933
0.11567833
0.11888465
0.12216671
0.12557187
0.12916297
0.13301095
0.13718481
0.14175832
0.14703037
0.15340125
0.16271878
0.1698491
0.17978376
0.19849379
0.21367733
0.22250765
0.22800459
0.23162119
0.23358283
0.23608509
0.2389161
0.24065325
0.24151099
0.24297084
0.24463049
0.24572487
0.24687035
0.24845261
0.25039364
0.25233466
0.25413656
0.25596188
0.25803507
0.26013223
0.26225586
0.26423858
0.26612746
0.26811299
0.27023096
0.27217338
0.27388069
0.27560618
0.27733077
0.27879762
0.28018983
0.28169603
0.28300736
0.28416276
0.28532764
0.2863002
0.28744902
0.28854147
0.28938603
0.29022308
0.2912614
0.29229162
0.29315152
0.29390864
0.29479227
0.29568993
0.29644335
0.29716385
0.29785194
0.29848648
0.2990585
0.29957693
0.30015114
0.30055445
0.3008509
0.30114492
0.30143082
0.30168525
0.30189179
0.30203412
0.3021959
0.30219962
0.30211063
0.3020331
0.30190089
0.30195915
0.3017418
0.30169589
0.30154906
0.30129427
0.30131824
0.30105826
0.30084985
0.30093402
0.30066628
0.30054828
0.30062457
0.30037611
0.30025648
0.0012268741
0.0038238816
0.0066891093
0.0098520134
0.013335384
0.017143606
0.021223879
0.02543567
0.029576877
0.033470309
0.037029567
0.040249903
0.043166563
0.045828534
0.048283658
0.050572692
0.052729604
0.054782017
0.056751856
0.058657276
0.060514162
0.062335728
0.064133423
0.065917902
0.067699047
0.069486329
0.071289096
0.073116727
0.074979174
0.076887315
0.078853428
0.08089211
0.083021414
0.085247933
0.087572684
0.089997462
0.092523865
0.09515235
0.097881416
0.10070771
0.10362873
0.10663144
0.10969891
0.11281634
0.11597335
0.11916667
0.12240459
0.12571143
0.12912984
0.13271824
0.13654458
0.1406822
0.14529194
0.15028306
0.15714755
0.16597976
0.17240536
0.18488655
0.20384434
0.21652387
0.22323658
0.22747085
0.23012503
0.23253307
0.23556916
0.23800752
0.239444
0.24123418
0.24322167
0.24418549
0.24537521
0.24667558
0.24819717
0.25012929
0.25205287
0.25390087
0.25573223
0.25772574
0.25993541
0.26210829
0.26413738
0.26604965
0.26804301
0.27019057
0.27215782
0.27388485
0.27560771
0.2773506
0.2788312
0.28020353
0.28171293
0.28303634
0.28422095
0.28541492
0.28639167
0.28748587
0.28853665
0.28941891
0.29030912
0.29133482
0.29234776
0.29319024
0.29395371
0.29486191
0.29574266
0.29648411
0.29720404
0.29788795
0.29852005
0.29909299
0.29960607
0.3001828
0.30058057
0.30087795
0.30117278
0.30145839
0.30170869
0.30191346
0.30205546
0.30221159
0.30220519
0.3021131
0.30204087
0.30190957
0.30196591
0.30174798
0.3016966
0.30155404
0.3012963
0.30131903
0.30106055
0.3008505
0.30093461
0.30066666
0.30054912
0.30062698
0.30037508
0.30025757
0.0012901815
0.0040145153
0.0070124254
0.010313131
0.013939634
0.017897744
0.022137114
0.026519929
0.03084496
0.034930951
0.038685372
0.042097714
0.04519997
0.048039281
0.050663112
0.053114022
0.055427578
0.057632758
0.059752601
0.06180633
0.063810814
0.065780091
0.067726233
0.069660349
0.071592381
0.073531855
0.075487913
0.07746927
0.079484627
0.081542656
0.083652105
0.085821879
0.088060876
0.090377802
0.092781448
0.09527999
0.097880747
0.10058926
0.10340772
0.10633255
0.10935101
0.1124526
0.11562395
0.11884823
0.12210928
0.12539849
0.12872191
0.13210484
0.13559256
0.13924599
0.14313243
0.14731417
0.15194009
0.15682904
0.16448147
0.1716636
0.17932382
0.1971983
0.21219803
0.22045877
0.22484329
0.22815162
0.23095601
0.23358439
0.23653836
0.23883607
0.24012742
0.24125097
0.24308696
0.2438687
0.2450959
0.2463003
0.24813374
0.25009633
0.2520744
0.2539341
0.25566725
0.25775027
0.25994692
0.26213763
0.26422046
0.26613058
0.26812781
0.27027425
0.27223725
0.27397387
0.27571125
0.27744863
0.27893417
0.28032212
0.28181645
0.28310815
0.28424186
0.28542661
0.28646353
0.28760166
0.28861505
0.28944127
0.29034558
0.2914074
0.29240731
0.29324172
0.29399173
0.29490181
0.2957922
0.29652639
0.29725172
0.29793376
0.29855973
0.29912636
0.29963771
0.3002105
0.30060661
0.30090288
0.30119581
0.30148195
0.3017337
0.30193561
0.30207478
0.30222858
0.30221331
0.3021195
0.30204777
0.3019171
0.30197299
0.30175364
0.30170048
0.30155841
0.30129913
0.30132225
0.30106162
0.3008523
0.30093663
0.300666
0.30055068
0.30062851
0.30037497
0.0013296125
0.0041375109
0.0072275546
0.010629636
0.01436677
0.018442826
0.022801192
0.027293601
0.031710313
0.035869672
0.039684759
0.043151157
0.046305022
0.049196005
0.051872967
0.054378478
0.05674807
0.059010659
0.061189253
0.063303125
0.065369269
0.067401902
0.069413313
0.071414881
0.07341683
0.075428826
0.077460172
0.079519818
0.081616724
0.083759815
0.085958022
0.088220349
0.090555673
0.092972824
0.09548065
0.098087009
0.10079833
0.10361918
0.10655141
0.10959243
0.11273392
0.11596085
0.11925235
0.12258512
0.12593879
0.12930278
0.13268252
0.13610274
0.13960692
0.14325191
0.14709915
0.15120853
0.15570902
0.16065031
0.16815977
0.17436731
0.18657904
0.20489476
0.21579006
0.22154183
0.22447693
0.22764005
0.23025631
0.2328084
0.23607001
0.23814134
0.2395954
0.2414054
0.242659
0.24328438
0.24470287
0.24646953
0.24801135
0.24994803
0.25176104
0.25369935
0.25551873
0.2576056
0.25980533
0.26205186
0.26419384
0.26614172
0.26814129
0.27029607
0.2722772
0.27401634
0.27573931
0.27749472
0.27900844
0.28040162
0.28191836
0.28321839
0.28433717
0.28547426
0.28648327
0.28762506
0.28866663
0.28951907
0.29043614
0.29148446
0.2924515
0.29327456
0.2940701
0.29496994
0.29583983
0.29657045
0.2972917
0.29796915
0.29859463
0.2991622
0.2996783
0.30024086
0.30063108
0.30092754
0.30122276
0.30150838
0.30175635
0.30195672
0.30209595
0.30224438
0.3022268
0.30212955
0.30206048
0.30192926
0.30198401
0.30176193
0.30170575
0.30156446
0.30130285
0.30132615
0.30106463
0.30085444
0.30093897
0.30066639
0.30055222
0.30062984
0.30037469
0.0013918777
0.0043315379
0.0075670199
0.011129838
0.015043913
0.019311519
0.023868832
0.028555137
0.033150257
0.037470265
0.04143193
0.045035044
0.048318607
0.051333882
0.05413083
0.056752763
0.059235871
0.061609694
0.063897793
0.066120006
0.068293897
0.070434184
0.072553569
0.074663819
0.076775503
0.078898658
0.081042991
0.083217914
0.085432918
0.08769746
0.090020932
0.092412693
0.09488179
0.097437193
0.10008778
0.10284121
0.10570332
0.10867727
0.11176222
0.11495211
0.11823486
0.12159222
0.12500108
0.12843706
0.13187969
0.13531914
0.13876211
0.14223471
0.14578133
0.14945854
0.15332544
0.15743399
0.161863
0.16744634
0.17359666
0.1809606
0.19809603
0.21186247
0.21945104
0.22309566
0.22568324
0.22896633
0.23138
0.23444757
0.2372682
0.23879138
0.2400936
0.24163307
0.24234139
0.24325034
0.24470943
0.24637893
0.24806344
0.25011838
0.25185846
0.25364225
0.25559888
0.25770718
0.25998544
0.26222839
0.26433847
0.2663133
0.26832628
0.27045338
0.27242067
0.27417365
0.27589842
0.27764771
0.27913473
0.28052903
0.28202436
0.28331723
0.2844262
0.28558212
0.28660829
0.28770967
0.28868434
0.28954313
0.29051446
0.29158555
0.29253154
0.29330047
0.29410479
0.29503763
0.29588624
0.29661864
0.29734486
0.2980184
0.2986363
0.29919853
0.29971854
0.3002707
0.30065883
0.300954
0.3012469
0.30153348
0.30178298
0.30197817
0.30211614
0.30226134
0.30224056
0.30214097
0.30207042
0.30193935
0.30199305
0.30176957
0.30171297
0.30156971
0.30130702
0.30133043
0.30106574
0.30085728
0.30094202
0.30066543
0.30055458
0.30063143
0.30037471
0.0014689813
0.0045670925
0.0079721165
0.01171625
0.015823133
0.020292231
0.025051586
0.029927988
0.03469158
0.039157008
0.043245312
0.046961139
0.05034712
0.053457004
0.056342516
0.059048337
0.06161168
0.06406294
0.066426353
0.068722341
0.070969051
0.07318177
0.075373813
0.077557536
0.07974396
0.081943513
0.084166254
0.086421883
0.088720043
0.091070245
0.093481816
0.095963969
0.098525483
0.10117475
0.10391974
0.10676694
0.10972082
0.1127829
0.11595043
0.11921521
0.12256282
0.12597251
0.12941869
0.13287483
0.13631889
0.13974013
0.14314469
0.14655788
0.15002257
0.15359309
0.15732697
0.16128045
0.16557501
0.17121065
0.17671813
0.18856685
0.20598116
0.21524288
0.22052279
0.22268936
0.22558998
0.22920094
0.23160124
0.23423078
0.2367772
0.23845138
0.23989606
0.24123136
0.24198415
0.24287659
0.24505206
0.24628831
0.24774284
0.24979305
0.25168736
0.25359314
0.25551448
0.25772352
0.25991254
0.26224644
0.26443833
0.2663984
0.26842734
0.27055259
0.27253196
0.27428951
0.27599708
0.27776069
0.27927567
0.28065529
0.2821315
0.28339713
0.28448143
0.28562521
0.28668586
0.28781254
0.28877827
0.28961676
0.29058705
0.29165147
0.29259048
0.29337533
0.29417554
0.29510337
0.29594547
0.29666221
0.29738891
0.29805658
0.29867601
0.29923826
0.29976472
0.30030402
0.3006845
0.30098003
0.30127565
0.3015614
0.30180662
0.30200105
0.30213755
0.30227757
0.30225794
0.3021538
0.30208491
0.30195385
0.30200537
0.30177904
0.30171992
0.30157648
0.3013121
0.30133561
0.30106922
0.30086043
0.30094529
0.30066625
0.30055645
0.30063361
0.0015391922
0.0047835602
0.0083476211
0.012265081
0.016560315
0.021230973
0.026197622
0.031274703
0.036222665
0.04085434
0.045094325
0.04895145
0.052471342
0.055709807
0.058719976
0.061547608
0.064230781
0.066800535
0.069281616
0.071694866
0.07405881
0.076389027
0.078699043
0.081001468
0.083307587
0.085628053
0.087973001
0.090352077
0.09277491
0.095250912
0.097789241
0.1003988
0.1030879
0.10586417
0.10873461
0.11170453
0.11477688
0.11795127
0.12122256
0.12457987
0.12800597
0.13147743
0.13496658
0.13844583
0.14189334
0.14529974
0.14867345
0.1520425
0.15545265
0.15896155
0.1626323
0.16653427
0.17087401
0.17599607
0.18314326
0.19987979
0.21167658
0.21820514
0.22167385
0.2239852
0.22742541
0.23097268
0.23318554
0.23597032
0.23806675
0.23888435
0.24011789
0.24151594
0.24229369
0.24330938
0.24500843
0.24643436
0.24800358
0.25028101
0.25185589
0.25376231
0.25583149
0.25790222
0.26023909
0.26250989
0.26470489
0.26672035
0.26872725
0.27080609
0.27277897
0.27453756
0.27623551
0.27797241
0.27946261
0.28084166
0.28229259
0.28354555
0.28459904
0.28572761
0.28676324
0.28785771
0.28882157
0.28970846
0.29070542
0.29175264
0.29263285
0.29340513
0.29424652
0.2951646
0.29599821
0.29671815
0.29744734
0.29810975
0.29871993
0.29927705
0.29981016
0.30033737
0.30071315
0.30100812
0.30130276
0.3015896
0.30183505
0.30202332
0.30215735
0.30229653
0.30227419
0.30216699
0.30209581
0.30196574
0.30201557
0.30178805
0.30172806
0.30158218
0.30131704
0.30134031
0.3010703
0.30086385
0.30094852
0.3006649
0.30055962
0.30063601
0.0016342056
0.0050746512
0.0088497123
0.012994387
0.017533249
0.022460853
0.027687813
0.033013167
0.038185265
0.043014432
0.047429241
0.051443639
0.055107213
0.058478657
0.061613253
0.064558362
0.067353325
0.070030172
0.072614409
0.075127483
0.077588454
0.080013302
0.082415875
0.084809043
0.087204268
0.089612273
0.092043265
0.094506887
0.097012574
0.099569401
0.10218601
0.1048706
0.10763059
0.11047257
0.11340216
0.11642289
0.11953554
0.1227373
0.12602053
0.12937184
0.13277175
0.13619516
0.13961367
0.14300013
0.14633433
0.1496094
0.15283661
0.15604693
0.15928939
0.16262672
0.16613259
0.16990251
0.17423744
0.17904084
0.1902856
0.20674894
0.21435141
0.21891327
0.22136308
0.224393
0.22821532
0.23142527
0.23354789
0.235833
0.23720161
0.23829078
0.23977064
0.2412181
0.24241078
0.24345135
0.2450496
0.24613037
0.24760142
0.25015416
0.25207545
0.25386819
0.25591214
0.25804484
0.260366
0.26267607
0.26490384
0.26691535
0.2689307
0.2710128
0.27299335
0.27474491
0.27641952
0.2781502
0.2796421
0.28100006
0.28241413
0.28364266
0.28470196
0.28585346
0.28690622
0.28795914
0.28887842
0.28977429
0.2907941
0.29185015
0.29271585
0.29346264
0.29432512
0.29524669
0.29604834
0.29676992
0.2974935
0.29815221
0.29876469
0.29931997
0.29986034
0.30037272
0.30074109
0.3010377
0.30133327
0.30161777
0.30185984
0.30204848
0.30217916
0.3023148
0.30229224
0.30218129
0.30211249
0.30198175
0.30202825
0.30179766
0.30173617
0.30158925
0.30132267
0.3013454
0.30107403
0.30086745
0.3009516
0.3006663
0.3005619
0.30063883
0.001725916
0.005356613
0.0093376659
0.013705725
0.018485917
0.023670087
0.02915909
0.034736452
0.040138004
0.045170996
0.049767614
0.053946849
0.057762453
0.061276189
0.064545626
0.067619792
0.07053929
0.073337093
0.076039396
0.078668194
0.081243029
0.083780232
0.086293844
0.088796791
0.091300441
0.093815355
0.096351388
0.098917681
0.10152309
0.10417601
0.10688425
0.109655
0.11249441
0.11540762
0.11839855
0.12146878
0.12461709
0.12783862
0.13112376
0.13445738
0.13781888
0.141183
0.1445225
0.14781283
0.15103782
0.15419583
0.1573043
0.16040142
0.16354537
0.1668119
0.17029469
0.17411925
0.17854552
0.18485455
0.20010333
0.21060336
0.21620613
0.21979905
0.22270336
0.22597774
0.22998624
0.23270631
0.23466851
0.23685106
0.23831415
0.23951882
0.24109746
0.24204761
0.2429689
0.24390429
0.24517272
0.24634873
0.24797363
0.250616
0.25237203
0.25435832
0.25640758
0.25847639
0.26080923
0.26310231
0.26534842
0.26737763
0.26936491
0.27139538
0.27335605
0.27508448
0.27673712
0.2784424
0.27989441
0.28121916
0.28259083
0.28378375
0.28481105
0.28596159
0.28702164
0.28806251
0.2889778
0.28989647
0.29091056
0.2919236
0.2927621
0.29352244
0.29439442
0.29531758
0.29610876
0.29682894
0.29755987
0.29820588
0.29881153
0.29936264
0.29990868
0.30040948
0.30077089
0.3010672
0.30136341
0.30165015
0.30189024
0.30207192
0.30220041
0.30233681
0.30230937
0.30219461
0.30212359
0.30199436
0.30203997
0.30180715
0.30174427
0.30159544
0.30132829
0.30135081
0.30107511
0.30087099
0.300955
0.30066518
0.30056486
0.001837278
0.005698677
0.0099288915
0.014566235
0.019636003
0.025126222
0.030925838
0.036800214
0.042471066
0.047742155
0.052549485
0.056917346
0.060903864
0.064574157
0.06798832
0.071197302
0.074243158
0.077159945
0.079974622
0.082709727
0.085385189
0.088017515
0.090620761
0.093207777
0.095789726
0.09837684
0.10097857
0.10360354
0.1062599
0.10895516
0.11169608
0.11448861
0.11733749
0.12024632
0.12321735
0.12625049
0.12934281
0.13248789
0.13567487
0.13888814
0.14210761
0.14530988
0.14847112
0.15157167
0.15460142
0.15756549
0.16048865
0.16341739
0.16642082
0.16959107
0.1730492
0.1769644
0.18161679
0.19081751
0.20553019
0.21281253
0.21658076
0.21984548
0.22332304
0.22649254
0.23013947
0.2326313
0.23419791
0.23616348
0.23774565
0.23918227
0.24117877
0.24260665
0.24329576
0.2440563
0.24512576
0.24634
0.24819218
0.25082875
0.25251352
0.25460738
0.25674316
0.25876798
0.26115022
0.2634278
0.26569976
0.26773979
0.26971776
0.27172346
0.27369742
0.27539204
0.27701488
0.27868279
0.28013257
0.28142525
0.28275085
0.28391978
0.28494712
0.28610488
0.28714573
0.2881332
0.28905237
0.29001001
0.29104437
0.29203408
0.29283202
0.2935953
0.29448985
0.2953937
0.29616914
0.29688257
0.29760973
0.29825468
0.29885979
0.29940864
0.29996118
0.30044765
0.30080137
0.30110039
0.30139703
0.3016786
0.30191664
0.30209854
0.30222396
0.30235595
0.30232801
0.30221026
0.30214085
0.30201091
0.30205226
0.30181767
0.30175261
0.3016029
0.30133424
0.30135559
0.30107938
0.30087447
0.30095814
0.30066683
0.30056694
0.001945681
0.0060325643
0.01050709
0.015409082
0.020764013
0.026556114
0.032662722
0.038831311
0.044769236
0.050276027
0.055290879
0.059843224
0.063995681
0.067816919
0.071369771
0.074707217
0.077872855
0.080901818
0.083821804
0.08665584
0.089424094
0.092143179
0.094827087
0.097488519
0.10013837
0.10278649
0.10544181
0.10811223
0.11080507
0.11352678
0.11628293
0.11907824
0.1219162
0.1247991
0.12772785
0.13070114
0.13371512
0.13676287
0.13983365
0.14291295
0.14598325
0.14902546
0.15202183
0.15496006
0.15783798
0.16066936
0.16348866
0.16635431
0.16935173
0.17259815
0.17625435
0.18057005
0.18610478
0.1979735
0.20814453
0.21411824
0.2175533
0.22111436
0.22426824
0.22757832
0.23116725
0.2330854
0.23471383
0.23731368
0.23914041
0.24111181
0.2427276
0.24329445
0.2435286
0.24407407
0.24570806
0.24734584
0.24901296
0.2514428
0.25309118
0.25532817
0.25734936
0.25947408
0.26178967
0.26408245
0.2663591
0.26834218
0.27033239
0.27225909
0.27417688
0.27584517
0.27741863
0.27904148
0.28043533
0.28167155
0.28294677
0.284091
0.28510783
0.28627053
0.28731262
0.28825812
0.28916111
0.29012773
0.29115726
0.29211316
0.29289461
0.29366709
0.29457828
0.29547039
0.29623141
0.29695782
0.29767755
0.29831084
0.29890866
0.29945495
0.30001373
0.30048649
0.300832
0.3011324
0.30143001
0.30171486
0.3019496
0.3021237
0.30224573
0.30238082
0.30234652
0.30222378
0.30215244
0.30202479
0.30206505
0.30182687
0.30176111
0.3016089
0.30134002
0.30136177
0.30108008
0.30087812
0.30096171
0.30066512
0.30056995
0.0020622033
0.0063922219
0.011130817
0.016319147
0.021982343
0.028099882
0.034535569
0.041017174
0.047236941
0.052990532
0.058220884
0.062962938
0.067284083
0.071256592
0.074945929
0.078406965
0.081684598
0.084814866
0.087825951
0.090741194
0.093580934
0.096361731
0.099097422
0.1018004
0.10448113
0.10714898
0.10981231
0.11247847
0.11515411
0.11784494
0.12055565
0.12328991
0.12605003
0.12883712
0.13165118
0.13449061
0.13735337
0.14023401
0.14312024
0.14599909
0.1488576
0.1516844
0.15447195
0.15722011
0.15993298
0.1626305
0.16535514
0.16817607
0.17119409
0.17455124
0.17845315
0.18324821
0.18987673
0.20177054
0.210082
0.21444276
0.21811109
0.22141209
0.22368165
0.22753456
0.23086739
0.23277423
0.23412952
0.23698486
0.23945406
0.24121231
0.24255084
0.24326327
0.24368252
0.24472585
0.2461223
0.24754728
0.24937995
0.25214349
0.25336646
0.25582472
0.25793827
0.25992236
0.26241305
0.26461347
0.26694125
0.2688938
0.27084101
0.27274432
0.27464079
0.27626481
0.2777936
0.27935602
0.28071353
0.28190401
0.28313222
0.28425183
0.28526468
0.28642402
0.28744832
0.28836292
0.28930414
0.29028043
0.29129965
0.29221174
0.2929678
0.29376045
0.29468072
0.2955574
0.29629287
0.29701377
0.29773764
0.29836473
0.29896203
0.2995041
0.30006714
0.30052608
0.30086576
0.30116931
0.30146562
0.30174445
0.30197668
0.3021515
0.30227032
0.3024018
0.30236506
0.30223991
0.3021707
0.30204137
0.30207719
0.30183747
0.30176945
0.3016168
0.30134618
0.30136596
0.30108446
0.3008819
0.30096455
0.30066647
0.30057207
0.0021748725
0.0067405749
0.011735577
0.017202214
0.023165028
0.029598473
0.03635265
0.043135492
0.049623852
0.055609123
0.061037772
0.065950124
0.070418284
0.074518271
0.078318415
0.081875681
0.085236523
0.088438096
0.091509398
0.094474286
0.097353415
0.10016345
0.10291816
0.10562976
0.10830851
0.11096364
0.11360371
0.11623713
0.11887246
0.12151228
0.1241584
0.12681197
0.12947339
0.13214256
0.13481926
0.13750227
0.1401884
0.14287509
0.14556357
0.14825272
0.15093912
0.15361651
0.15627981
0.15892903
0.16157481
0.16424522
0.16699025
0.16988902
0.17305788
0.1766622
0.18094346
0.18631214
0.19383147
0.20409935
0.21135659
0.21456944
0.21833456
0.22144982
0.22401158
0.22822012
0.23115907
0.2334051
0.23569845
0.23846562
0.24036467
0.24205532
0.24321197
0.24385252
0.24455978
0.24618169
0.24759556
0.24862834
0.25003013
0.25286166
0.25433877
0.25671183
0.25905506
0.26097746
0.26340297
0.26556186
0.26778001
0.26971567
0.27163151
0.2734651
0.27526014
0.27681338
0.27827603
0.279772
0.28107343
0.28218945
0.28336119
0.28447352
0.28547997
0.28661451
0.28761163
0.28847091
0.2894329
0.29042661
0.29142459
0.29230151
0.29304578
0.29385218
0.29477737
0.29563555
0.29637632
0.29709655
0.29780788
0.2984247
0.29901432
0.29955434
0.30012207
0.30056708
0.30089683
0.30120157
0.30150167
0.30178349
0.30201159
0.30217895
0.30229403
0.30242824
0.30238393
0.30225315
0.3021819
0.30205578
0.30209069
0.30184718
0.3017782
0.30162287
0.30135225
0.30137259
0.3010852
0.30088599
0.30096823
0.30066507
0.0022892659
0.0070926412
0.012344664
0.018088711
0.024348221
0.031091135
0.038151888
0.045217357
0.051950282
0.05814032
0.063739337
0.068794076
0.073381743
0.077582193
0.081466597
0.085094134
0.088513056
0.091762211
0.094872406
0.097867267
0.10076617
0.10358435
0.10633401
0.10902563
0.11166756
0.11426689
0.11682933
0.11935887
0.12185823
0.12433482
0.12679567
0.12924776
0.13169792
0.13415316
0.13661963
0.13910238
0.14160531
0.14413084
0.1466797
0.1492512
0.15184071
0.15443967
0.15704062
0.15964218
0.16226166
0.16493333
0.16771494
0.17069485
0.17400119
0.17781443
0.18239268
0.18815516
0.19604662
0.20586633
0.21125462
0.21465805
0.21730572
0.22043312
0.22381986
0.22795872
0.23050411
0.2330987
0.23547959
0.23815109
0.24025039
0.24195369
0.2428761
0.24408204
0.24557179
0.24683415
0.24790838
0.24914926
0.25102963
0.25367493
0.25500631
0.257563
0.25990819
0.26197176
0.26424219
0.26645573
0.26863138
0.27047154
0.27234368
0.27410649
0.27585329
0.2773318
0.27871454
0.28014589
0.28138295
0.28244588
0.28357752
0.28468448
0.28567595
0.28680203
0.28778662
0.28860945
0.28959797
0.29058697
0.29155434
0.29239195
0.29313666
0.29396969
0.29489552
0.29571716
0.29643706
0.29716771
0.29787515
0.29848606
0.29907267
0.29960857
0.30017668
0.30060813
0.30093398
0.30124199
0.3015389
0.30181455
0.30204088
0.30220756
0.30232049
0.3024496
0.30240343
0.30227101
0.30220093
0.30207247
0.30210262
0.30185768
0.3017868
0.30163059
0.30135832
0.3013767
0.30108937
0.30088991
0.30097103
0.30066682
0.0024018401
0.0074379945
0.012940219
0.018952263
0.025495719
0.03253173
0.039879606
0.047206328
0.054161224
0.060532286
0.066276643
0.071447522
0.076127554
0.080398726
0.084332729
0.08798855
0.091413561
0.094644848
0.097710403
0.10063468
0.10343962
0.10614312
0.10875994
0.11130274
0.11378286
0.11621157
0.11859918
0.12095508
0.12328815
0.12560675
0.12791871
0.1302315
0.1325531
0.13489163
0.13725278
0.13964129
0.14206027
0.14451041
0.14698933
0.14949125
0.15201098
0.15454769
0.15710371
0.15968817
0.16232122
0.16504082
0.16791022
0.17102603
0.17452724
0.17860522
0.1835198
0.18965556
0.19774841
0.20684088
0.21034534
0.21341833
0.21592289
0.21981075
0.22402306
0.22818505
0.23079892
0.23307686
0.23613991
0.23878313
0.24060756
0.2429663
0.24483612
0.2462229
0.24750364
0.24867217
0.24867836
0.24984554
0.25178104
0.25526319
0.25644919
0.25898715
0.26135293
0.26329788
0.26567232
0.26768589
0.26977247
0.27155504
0.27331921
0.2749852
0.2766085
0.27798492
0.27927795
0.28059683
0.28177623
0.28276872
0.28384656
0.28493731
0.28591594
0.28698703
0.28795084
0.2887648
0.28977286
0.29075641
0.29167884
0.29247902
0.29322469
0.294074
0.29500488
0.29581246
0.29653034
0.29725348
0.29795129
0.29854896
0.29912971
0.29966399
0.30023352
0.30064929
0.30096791
0.30127567
0.3015769
0.30185459
0.30207627
0.30223658
0.30234596
0.30247787
0.30242363
0.30228333
0.30221233
0.30208758
0.30211634
0.3018675
0.30179541
0.30163655
0.30136469
0.30138346
0.30109013
0.30089408
0.30097448
0.30066544
0.0024978964
0.0077335508
0.013449972
0.019689574
0.026469924
0.03374248
0.041308434
0.0488145
0.055899644
0.062354201
0.06814285
0.073323845
0.077981387
0.082201774
0.086063508
0.089630954
0.092956022
0.096079976
0.099035011
0.10184768
0.10454105
0.10713423
0.10964408
0.11208596
0.11447252
0.11681418
0.11912036
0.12139953
0.1236596
0.12590786
0.12815091
0.13039465
0.13264292
0.13489815
0.13716488
0.13944691
0.14174739
0.14406905
0.14641426
0.1487852
0.15118442
0.15361569
0.15608628
0.15861076
0.16121592
0.16394725
0.16687657
0.17011006
0.17379644
0.1781323
0.18336542
0.18981588
0.19791181
0.20539537
0.20875486
0.21130753
0.21446878
0.21871473
0.22265536
0.22680207
0.22984237
0.23193504
0.23486072
0.23843824
0.24108595
0.24395766
0.24568745
0.2471093
0.24800045
0.24907157
0.24992155
0.2514193
0.25291173
0.25603721
0.25769971
0.26029542
0.26279226
0.26466297
0.26690561
0.26887118
0.27086827
0.27257032
0.27421759
0.27579319
0.27732411
0.27859716
0.27977903
0.28102919
0.2821216
0.28306301
0.28412248
0.28521991
0.2861483
0.28717849
0.28811786
0.28892684
0.28995909
0.29092312
0.29180435
0.29258396
0.29334156
0.29420605
0.2951172
0.29588823
0.29660543
0.29733413
0.29802409
0.29861853
0.29919271
0.29972237
0.30028983
0.30069175
0.30101071
0.3013178
0.30161539
0.30188819
0.30210764
0.30226661
0.30237256
0.30250101
0.30244287
0.30230222
0.30223203
0.3021049
0.30212779
0.30187838
0.30180454
0.30164468
0.30137092
0.3013877
0.30109406
0.30089804
0.30097709
0.002550229
0.0078965576
0.013732381
0.020097369
0.027003918
0.034394001
0.042054176
0.049617256
0.056717744
0.06315154
0.068892314
0.074009575
0.078599335
0.082754836
0.086554549
0.090062604
0.093330492
0.096399
0.099299771
0.10205863
0.10469759
0.10723417
0.10968243
0.11205523
0.11436352
0.11661705
0.11882456
0.12099387
0.12313233
0.12524685
0.12734399
0.12943029
0.13151229
0.13359683
0.1356912
0.13780291
0.13993975
0.1421098
0.14432114
0.1465817
0.14889968
0.15128429
0.1537477
0.1563087
0.15899772
0.16186391
0.16498328
0.16846671
0.17246512
0.17716546
0.18276893
0.18944322
0.19709532
0.20300004
0.20614415
0.20873258
0.2128073
0.21750386
0.22113693
0.22521561
0.22858958
0.23165855
0.23554658
0.23963836
0.24256479
0.24557054
0.24750915
0.24913798
0.25024757
0.250944
0.25108468
0.25331757
0.25521998
0.25819159
0.2595595
0.26232613
0.26470872
0.26654259
0.26855223
0.27047527
0.27233303
0.27389289
0.27536964
0.27680645
0.27817879
0.27932136
0.28038395
0.28149417
0.2825416
0.28343048
0.284438
0.28550517
0.28642248
0.2873877
0.28829782
0.28911616
0.29015664
0.29108648
0.29190782
0.29267425
0.29345031
0.2943343
0.29524163
0.29598562
0.29670411
0.29742927
0.2981018
0.29868553
0.2992554
0.29978391
0.30034962
0.30073473
0.30104538
0.30135328
0.30165728
0.30193052
0.30214383
0.30229714
0.30240126
0.30252933
0.30246317
0.30231468
0.3022437
0.30212047
0.30214125
0.30188825
0.30181339
0.30165015
0.30137725
0.30139422
0.30109491
0.30090225
0.30098056
0.0025536042
0.0079108374
0.013761375
0.020143304
0.027065965
0.034465327
0.042118844
0.049652564
0.056703119
0.06307463
0.068748278
0.073795921
0.078312056
0.082387734
0.086101321
0.089516567
0.092684489
0.095645422
0.098430652
0.10106576
0.10357265
0.10596909
0.1082699
0.11048827
0.1126355
0.11472184
0.11675676
0.11874909
0.12070749
0.12264049
0.12455667
0.12646491
0.12837437
0.13029474
0.13223659
0.13421099
0.13622951
0.13830401
0.1404463
0.14266788
0.14498018
0.14739517
0.14992735
0.15259747
0.1554379
0.15849991
0.16186156
0.16563379
0.16996004
0.17499848
0.18087224
0.1875703
0.1946553
0.19979792
0.20267686
0.20630355
0.20974133
0.21453249
0.21898644
0.22281519
0.22657865
0.23066625
0.23468418
0.23978002
0.24303616
0.24589981
0.24777885
0.24977427
0.25161899
0.25325162
0.25360186
0.25549588
0.25665268
0.2600227
0.26172846
0.26420077
0.26664299
0.26837086
0.27020037
0.27199033
0.27373836
0.2751439
0.27643226
0.27772096
0.27897019
0.27999059
0.28093208
0.28196904
0.28293369
0.28376647
0.28476321
0.28581757
0.28665616
0.28758324
0.28849172
0.28931614
0.29035711
0.29125704
0.29203452
0.29279482
0.29358492
0.29446632
0.29535082
0.29606787
0.29678679
0.29751673
0.29818214
0.29876051
0.29932295
0.29984605
0.30040549
0.30077938
0.30109262
0.30139743
0.30169426
0.3019635
0.302176
0.30232778
0.30242824
0.30255326
0.30248311
0.30233492
0.30226277
0.30213813
0.30215336
0.30189962
0.30182204
0.30165823
0.30138372
0.30139879
0.30109853
0.30090598
0.30098338
0.0025062882
0.007770371
0.013524059
0.019803579
0.026615162
0.033890282
0.041401779
0.048774823
0.055651311
0.061843047
0.067336496
0.072205772
0.076545815
0.080447219
0.08398757
0.087229808
0.090224277
0.093010816
0.095620434
0.098078618
0.10040728
0.10262438
0.10474514
0.10678329
0.10875089
0.11065911
0.11251855
0.11433935
0.11613167
0.11790576
0.11967215
0.12144185
0.12322644
0.1250383
0.12689086
0.12879813
0.13077463
0.13283501
0.13499364
0.13726416
0.13965952
0.14219251
0.14487773
0.14773557