/*--------------------------------*- C++ -*----------------------------------*\
| =========                 |                                                 |
| \\      /  F ield         | OpenFOAM: The Open Source CFD Toolbox           |
|  \\    /   O peration     | Version:  2506                                  |
|   \\  /    A nd           | Website:  www.openfoam.com                      |
|    \\/     M anipulation  |                                                 |
\*---------------------------------------------------------------------------*/
FoamFile
{
    version     2.0;
    format      ascii;
    arch        "LSB;label=32;scalar=64";
    class       volScalarField;
    location    "0.0055";
    object      nut;
}
// * * * * * * * * * * * * * * * * * * * * * * * * * * * * * * * * * * * * * //

dimensions      [0 2 -1 0 0 0 0];

internalField   nonuniform List<scalar> 
13761
(
6.7237096e-12
8.5912187e-11
3.0261682e-09
4.0642147e-08
2.9383963e-07
1.3795227e-06
4.7005456e-06
1.2170112e-05
2.4753618e-05
4.1474482e-05
6.0531087e-05
8.0244644e-05
9.93753e-05
0.00011712288
0.00013303563
0.00014697586
0.0001588344
0.00016891093
0.0001776579
0.00018568306
0.00019371568
0.00020248206
0.00021234616
0.00022384592
0.00023707727
0.00025198873
0.00026851916
0.00028657675
0.00030608962
0.00032819739
0.00035436078
0.00038514588
0.00042127318
0.00046335362
0.00051202138
0.00056775371
0.00063042829
0.00069849433
0.00076973731
0.00084254979
0.00091002091
0.00096397227
0.00099740064
0.001005567
0.00098534791
0.00093815782
0.00086679662
0.000774873
0.00066225364
0.00051537739
0.00030969867
0.00011213131
2.3600676e-05
6.0609254e-06
4.2604468e-06
4.2137424e-06
4.3276375e-06
4.4534253e-06
4.4934026e-06
4.4630229e-06
4.3710746e-06
4.2107774e-06
4.0145283e-06
3.8366145e-06
3.777742e-06
3.8008085e-06
3.8794944e-06
3.927912e-06
3.9513085e-06
4.0109254e-06
4.1658635e-06
4.2723237e-06
4.2670446e-06
4.2097594e-06
4.1034522e-06
4.0008341e-06
3.9484471e-06
3.9365932e-06
3.9368468e-06
3.9387734e-06
3.9420161e-06
3.9471659e-06
3.954618e-06
3.9615112e-06
3.9687506e-06
3.98027e-06
3.9859133e-06
3.9901915e-06
4.0121227e-06
4.0459864e-06
4.0408401e-06
4.0264822e-06
4.0526398e-06
4.1109692e-06
4.1305931e-06
4.1084681e-06
4.0466866e-06
3.9723037e-06
3.9187923e-06
3.8900929e-06
3.8743801e-06
3.8653002e-06
3.8486705e-06
3.8327825e-06
3.8375603e-06
3.8151671e-06
3.7896083e-06
3.8064519e-06
3.8249032e-06
3.7736729e-06
3.713519e-06
3.6956993e-06
3.7203411e-06
3.7672869e-06
3.8113101e-06
3.8420457e-06
3.8602966e-06
3.8681018e-06
3.8687196e-06
3.8676631e-06
3.8669437e-06
3.8668915e-06
3.86726e-06
3.867658e-06
3.8679599e-06
3.8681381e-06
3.8682441e-06
3.8682766e-06
3.8682922e-06
3.8683134e-06
3.8683305e-06
3.8683374e-06
3.868301e-06
3.8680976e-06
3.8680353e-06
3.8681358e-06
3.8682292e-06
3.8682049e-06
5.6835771e-12
1.0481228e-11
1.447505e-10
1.3158358e-09
7.2411985e-09
2.8984641e-08
9.3705163e-08
2.5980392e-07
6.3947485e-07
1.4231541e-06
2.8892124e-06
5.3728645e-06
9.1855215e-06
1.4522778e-05
2.142996e-05
2.9837396e-05
3.9626911e-05
5.0686778e-05
6.2938425e-05
7.635021e-05
9.0937674e-05
0.00010674581
0.00012383918
0.00014230027
0.0001622235
0.00018372371
0.00020694447
0.00023207698
0.00025943
0.00028934585
0.0003222381
0.00035861424
0.00039869589
0.00044341136
0.00049393065
0.00055129238
0.00061603129
0.00068809364
0.00076474753
0.00083958019
0.00090421718
0.00095127251
0.00097465234
0.00097075862
0.00093917287
0.00088191421
0.00080155869
0.00069922003
0.00057212867
0.00040061684
0.00018520638
4.0394392e-05
6.8435203e-06
4.3198159e-06
4.1809845e-06
4.2334595e-06
4.3784945e-06
4.4797024e-06
4.4885444e-06
4.44118e-06
4.3311711e-06
4.1587883e-06
3.9642322e-06
3.8093726e-06
3.7763096e-06
3.8131524e-06
3.8958269e-06
3.9342648e-06
3.9569696e-06
4.0274996e-06
4.1897165e-06
4.2773544e-06
4.2650607e-06
4.19992e-06
4.0916965e-06
3.9937529e-06
3.9474055e-06
3.9380996e-06
3.9384285e-06
3.9403122e-06
3.9435794e-06
3.9488325e-06
3.9563435e-06
3.9632407e-06
3.970597e-06
3.9820321e-06
3.9876592e-06
3.9925166e-06
4.0149071e-06
4.0474274e-06
4.0416853e-06
4.0283821e-06
4.0557302e-06
4.1131351e-06
4.1309464e-06
4.1077377e-06
4.0453599e-06
3.9712724e-06
3.9182132e-06
3.8898489e-06
3.8742297e-06
3.8649865e-06
3.8483379e-06
3.8326049e-06
3.8372012e-06
3.8147439e-06
3.7894309e-06
3.8065873e-06
3.8244008e-06
3.7727461e-06
3.7128637e-06
3.6951609e-06
3.7202337e-06
3.7674205e-06
3.8114473e-06
3.8421152e-06
3.8603444e-06
3.8681107e-06
3.8687352e-06
3.8676581e-06
3.8669252e-06
3.8668657e-06
3.8672507e-06
3.8676569e-06
3.86797e-06
3.8681487e-06
3.8682522e-06
3.8682839e-06
3.8682988e-06
3.8683193e-06
3.8683362e-06
3.868342e-06
3.8682361e-06
3.8680554e-06
3.8680493e-06
3.8681695e-06
3.8682436e-06
3.8681747e-06
9.3259515e-13
9.2451293e-12
2.1373868e-10
2.0241113e-09
1.142412e-08
4.7095153e-08
1.5723709e-07
4.4916428e-07
1.1294617e-06
2.5308231e-06
5.0766581e-06
9.1525897e-06
1.4951621e-05
2.243408e-05
3.14184e-05
4.1695553e-05
5.3104535e-05
6.555692e-05
7.9026217e-05
9.3535615e-05
0.00010914544
0.00012593307
0.00014397772
0.00016336128
0.00018417514
0.00020652856
0.00023055549
0.00025641027
0.00028421654
0.00031439561
0.0003475218
0.00038429202
0.00042572768
0.00047254419
0.00052546512
0.00058522634
0.00065136862
0.00072219102
0.00079407644
0.00086032962
0.0009150336
0.00095186027
0.00096521452
0.00095203574
0.00091237805
0.0008484556
0.00076257746
0.00065519091
0.00052143719
0.0003384932
0.00013169386
2.3456982e-05
5.3629579e-06
4.255528e-06
4.1804461e-06
4.2544732e-06
4.4036191e-06
4.4793637e-06
4.4797518e-06
4.4278499e-06
4.3093443e-06
4.1325359e-06
3.9402913e-06
3.7988508e-06
3.7775203e-06
3.8215929e-06
3.9041916e-06
3.9368901e-06
3.9595446e-06
4.036493e-06
4.2029022e-06
4.2797692e-06
4.2642238e-06
4.195053e-06
4.0862793e-06
3.9910424e-06
3.9479753e-06
3.9396873e-06
3.9400237e-06
3.941802e-06
3.9450373e-06
3.9503209e-06
3.9578786e-06
3.9648462e-06
3.9722289e-06
3.9836063e-06
3.9895068e-06
3.9947678e-06
4.016876e-06
4.0485947e-06
4.0430455e-06
4.0304066e-06
4.0579053e-06
4.1144656e-06
4.1313464e-06
4.107892e-06
4.0452424e-06
3.9712867e-06
3.9183007e-06
3.8899081e-06
3.8742242e-06
3.8648446e-06
3.8482228e-06
3.8325006e-06
3.8369006e-06
3.8145515e-06
3.7892871e-06
3.8065419e-06
3.8239775e-06
3.772247e-06
3.7123954e-06
3.6944659e-06
3.7196936e-06
3.767028e-06
3.8112098e-06
3.8419625e-06
3.8603338e-06
3.8681096e-06
3.8687305e-06
3.8676583e-06
3.8669181e-06
3.8668572e-06
3.8672515e-06
3.8676684e-06
3.8679804e-06
3.8681582e-06
3.8682582e-06
3.8682884e-06
3.8683027e-06
3.8683226e-06
3.8683394e-06
3.8683345e-06
3.8681595e-06
3.8680343e-06
3.8680716e-06
3.8682028e-06
3.8682359e-06
3.8681778e-06
2.23353e-12
1.0049613e-11
2.0692388e-10
1.9501082e-09
1.0994251e-08
4.5241477e-08
1.505007e-07
4.2718371e-07
1.0639815e-06
2.3556873e-06
4.6670384e-06
8.3287428e-06
1.352506e-05
2.0268771e-05
2.8464935e-05
3.7992387e-05
4.8756863e-05
6.0707291e-05
7.3829663e-05
8.8140768e-05
0.00010368111
0.00012049915
0.00013865156
0.00015819949
0.00017920956
0.00020176275
0.0002259909
0.00025212792
0.00028050352
0.00031137976
0.00034511771
0.00038238267
0.00042396141
0.00047069998
0.00052335693
0.00058227857
0.00064695574
0.00071605411
0.00078578612
0.00085050801
0.00090327432
0.00093696467
0.00094609537
0.00092821517
0.0008840286
0.0008160145
0.00072625198
0.00061465188
0.00047368186
0.00028065772
9.0518448e-05
1.4106926e-05
4.7361511e-06
4.2115952e-06
4.1837884e-06
4.2768041e-06
4.4235103e-06
4.4791739e-06
4.4697699e-06
4.4130681e-06
4.2838129e-06
4.1031943e-06
3.915136e-06
3.7900792e-06
3.7800871e-06
3.8330274e-06
3.9131627e-06
3.9395097e-06
3.962628e-06
4.0479746e-06
4.2174044e-06
4.2818283e-06
4.2623279e-06
4.1888432e-06
4.0797903e-06
3.9879465e-06
3.9481896e-06
3.9411377e-06
3.9415909e-06
3.9433227e-06
3.9465301e-06
3.9518609e-06
3.9594847e-06
3.9665537e-06
3.9739671e-06
3.9852754e-06
3.9915168e-06
3.9973043e-06
4.0191948e-06
4.0499411e-06
4.0445283e-06
4.0326203e-06
4.0604963e-06
4.115958e-06
4.1317511e-06
4.107856e-06
4.0449864e-06
3.9711744e-06
3.9182992e-06
3.8899322e-06
3.8741717e-06
3.8646463e-06
3.8480493e-06
3.8323526e-06
3.8365479e-06
3.8142851e-06
3.7891168e-06
3.8065187e-06
3.8234736e-06
3.7716347e-06
3.7118378e-06
3.6937472e-06
3.7192721e-06
3.7667858e-06
3.8110802e-06
3.8418713e-06
3.8602962e-06
3.8680674e-06
3.8687306e-06
3.8676666e-06
3.8669188e-06
3.8668652e-06
3.8672713e-06
3.8676851e-06
3.8679944e-06
3.8681695e-06
3.8682663e-06
3.8682953e-06
3.8683091e-06
3.8683288e-06
3.8683433e-06
3.8682998e-06
3.8680941e-06
3.8680354e-06
3.8681015e-06
3.8682314e-06
3.8682048e-06
3.4842303e-12
1.4158235e-11
2.8464136e-10
2.6790948e-09
1.5087861e-08
6.1942506e-08
2.0509276e-07
5.7719682e-07
1.4179247e-06
3.0784317e-06
5.9531887e-06
1.0351866e-05
1.6402759e-05
2.4066943e-05
3.3220463e-05
4.3728714e-05
5.5487523e-05
6.8432966e-05
8.2532587e-05
9.7781164e-05
0.00011419749
0.00013181287
0.00015066266
0.00017080016
0.00019229545
0.00021525225
0.0002398029
0.00026617103
0.00029467206
0.00032574651
0.00035996873
0.00039803778
0.00044078232
0.000488879
0.00054281024
0.00060236242
0.0006669834
0.00073465367
0.00080110679
0.00086051369
0.0009059882
0.00093103427
0.00093118581
0.00090501552
0.00085385135
0.00078017493
0.00068552743
0.00056893763
0.00041935614
0.00021917019
5.5791138e-05
8.5352185e-06
4.442204e-06
4.1887288e-06
4.1923249e-06
4.3017444e-06
4.4382706e-06
4.478076e-06
4.4614222e-06
4.3981554e-06
4.2586685e-06
4.0751852e-06
3.8920968e-06
3.7837762e-06
3.7830132e-06
3.8449529e-06
3.9207472e-06
3.9417636e-06
3.9661656e-06
4.0604471e-06
4.2310684e-06
4.2834394e-06
4.2604187e-06
4.1828014e-06
4.0736559e-06
3.985163e-06
3.948537e-06
3.9425068e-06
3.9431366e-06
3.944895e-06
3.9480894e-06
3.9534367e-06
3.961096e-06
3.9682402e-06
3.9756509e-06
3.9868776e-06
3.9936043e-06
3.9998272e-06
4.0213523e-06
4.0513284e-06
4.0462557e-06
4.034947e-06
4.0631177e-06
4.1173993e-06
4.1321499e-06
4.1078306e-06
4.0447475e-06
3.9710453e-06
3.9183076e-06
3.8899574e-06
3.8741174e-06
3.8644519e-06
3.847867e-06
3.832179e-06
3.8361807e-06
3.813991e-06
3.7889309e-06
3.8064805e-06
3.8229253e-06
3.7710061e-06
3.7112253e-06
3.6929709e-06
3.7188435e-06
3.7665169e-06
3.8109225e-06
3.8417769e-06
3.8602672e-06
3.8680516e-06
3.8687269e-06
3.867673e-06
3.8669091e-06
3.8668701e-06
3.8672843e-06
3.8676987e-06
3.8680058e-06
3.8681792e-06
3.8682734e-06
3.8683014e-06
3.8683148e-06
3.8683343e-06
3.8683321e-06
3.8682311e-06
3.8680515e-06
3.8680503e-06
3.8681346e-06
3.8682456e-06
3.8681739e-06
4.6850856e-12
1.7810934e-11
3.5169026e-10
3.3058937e-09
1.8594402e-08
7.6142008e-08
2.5083439e-07
6.9965719e-07
1.6950623e-06
3.6113071e-06
6.8308097e-06
1.1613132e-05
1.8029145e-05
2.6006156e-05
3.5414379e-05
4.6128977e-05
5.8059487e-05
7.1153314e-05
8.5384801e-05
0.00010075082
0.0001172668
0.00013495252
0.00015385445
0.0001740293
0.00019555047
0.00021852418
0.00024310785
0.00026949698
0.00029799285
0.00032903791
0.00036321894
0.00040113894
0.00044349675
0.00049112898
0.00054461309
0.0006039142
0.00066820751
0.00073485623
0.00079941004
0.00085590925
0.00089757303
0.0009182454
0.0009139432
0.00088369177
0.00082905365
0.0007524145
0.00065494588
0.00053513144
0.00037894151
0.00017749298
3.8186299e-05
6.6201676e-06
4.3463381e-06
4.1749058e-06
4.2021224e-06
4.3225676e-06
4.447205e-06
4.4760622e-06
4.453531e-06
4.3831043e-06
4.2335835e-06
4.0481757e-06
3.8715384e-06
3.779734e-06
3.786045e-06
3.8572126e-06
3.9269913e-06
3.9437426e-06
3.9699857e-06
4.0735879e-06
4.2434277e-06
4.2845171e-06
4.258022e-06
4.176689e-06
4.0678814e-06
3.9828303e-06
3.9491656e-06
3.9439273e-06
3.9447543e-06
3.9466347e-06
3.9498624e-06
3.9551981e-06
3.9628804e-06
3.9700304e-06
3.9773995e-06
3.9885306e-06
3.9958563e-06
4.0023868e-06
4.0232774e-06
4.0528063e-06
4.0484533e-06
4.0374875e-06
4.0657314e-06
4.1187912e-06
4.1325294e-06
4.1077958e-06
4.0444918e-06
3.9708911e-06
3.9183026e-06
3.8899709e-06
3.874061e-06
3.8642416e-06
3.8476504e-06
3.831971e-06
3.8357882e-06
3.8136469e-06
3.7887357e-06
3.8064433e-06
3.8223229e-06
3.7703403e-06
3.7105466e-06
3.6921456e-06
3.7184432e-06
3.7662638e-06
3.8107781e-06
3.8416924e-06
3.8602354e-06
3.8680388e-06
3.8687271e-06
3.867681e-06
3.8669021e-06
3.8668845e-06
3.8672979e-06
3.8677116e-06
3.8680163e-06
3.8681882e-06
3.8682801e-06
3.8683074e-06
3.8683206e-06
3.8683399e-06
3.868288e-06
3.8681521e-06
3.8680339e-06
3.8680748e-06
3.8681694e-06
3.8682356e-06
3.868178e-06
6.8185431e-12
2.2597697e-11
4.2802301e-10
4.0136269e-09
2.2538456e-08
9.1997764e-08
3.0122765e-07
8.3165228e-07
1.9847263e-06
4.1486389e-06
7.6860059e-06
1.2811837e-05
1.9558556e-05
2.7839211e-05
3.752889e-05
4.8514722e-05
6.0717025e-05
7.4089977e-05
8.8610658e-05
0.00010427623
0.0001211018
0.00013910621
0.00015830714
0.00017876376
0.00020056645
0.0002238225
0.00024867841
0.00027535276
0.00030415632
0.00033551156
0.000369973
0.00040822839
0.00045108247
0.0004992749
0.00055324037
0.00061270484
0.00067664075
0.00074191379
0.00080396031
0.00085670638
0.00089352202
0.00090868458
0.00089880462
0.00086343901
0.00080439587
0.00072391437
0.000622698
0.00049844525
0.00033391235
0.00013528239
2.4028947e-05
5.4042048e-06
4.2773208e-06
4.1669992e-06
4.2149253e-06
4.3442591e-06
4.4543444e-06
4.4723625e-06
4.4460912e-06
4.3682457e-06
4.2094857e-06
4.023232e-06
3.854038e-06
3.7774967e-06
3.7892552e-06
3.869026e-06
3.9316627e-06
3.9453813e-06
3.9740763e-06
4.087174e-06
4.2543397e-06
4.2853078e-06
4.255199e-06
4.170491e-06
4.0623963e-06
3.980858e-06
3.9499966e-06
3.9453888e-06
3.9463939e-06
3.9484824e-06
3.9518067e-06
3.9571084e-06
3.9647923e-06
3.9719016e-06
3.9792173e-06
3.9902956e-06
3.9983538e-06
4.0049956e-06
4.0249517e-06
4.0543191e-06
4.0509312e-06
4.0402635e-06
4.0682632e-06
4.1200911e-06
4.132887e-06
4.1077696e-06
4.044212e-06
3.9707133e-06
3.9182838e-06
3.8899703e-06
3.873997e-06
3.8640177e-06
3.8474031e-06
3.8317395e-06
3.8353747e-06
3.8132576e-06
3.7885277e-06
3.8063975e-06
3.8216934e-06
3.7696482e-06
3.7098093e-06
3.6912731e-06
3.7180672e-06
3.7660182e-06
3.8106317e-06
3.8416138e-06
3.860205e-06
3.8680324e-06
3.8687313e-06
3.8676869e-06
3.8668984e-06
3.866899e-06
3.8673099e-06
3.8677227e-06
3.8680258e-06
3.8681964e-06
3.8682864e-06
3.8683132e-06
3.8683263e-06
3.8683434e-06
3.8682151e-06
3.8680869e-06
3.8680362e-06
3.868105e-06
3.8682035e-06
3.8682043e-06
8.379731e-12
2.676941e-11
5.0076973e-10
4.6912498e-09
2.6314268e-08
1.0715275e-07
3.4920991e-07
9.5645625e-07
2.2560195e-06
4.6468229e-06
8.4726859e-06
1.3910551e-05
2.0960469e-05
2.9521422e-05
3.946822e-05
5.0693198e-05
6.312146e-05
7.6709159e-05
9.1432527e-05
0.00010728613
0.00012428221
0.00014243893
0.00016178285
0.00018235907
0.00020423656
0.00022752748
0.0002524005
0.00027908463
0.0003079087
0.00033931815
0.000373876
0.00041223547
0.00045517418
0.0005034744
0.00055743825
0.0006167488
0.00068000025
0.00074401513
0.00080406882
0.00085405295
0.0008874764
0.00089891934
0.00088537463
0.00084671968
0.00078488213
0.00070195976
0.00059830772
0.00047102567
0.00030056819
0.00010846545
1.7442622e-05
4.9843249e-06
4.252039e-06
4.167043e-06
4.2275239e-06
4.3604984e-06
4.4566807e-06
4.4677922e-06
4.4394607e-06
4.3543142e-06
4.1865104e-06
4.0006362e-06
3.8395724e-06
3.7761918e-06
3.7937344e-06
3.8803172e-06
3.9353677e-06
3.9468087e-06
3.9785393e-06
4.1012036e-06
4.2638667e-06
4.2859546e-06
4.2522019e-06
4.1644628e-06
4.0573781e-06
3.9792658e-06
3.9510257e-06
3.9468889e-06
3.9480022e-06
3.9503313e-06
3.9538338e-06
3.9591428e-06
3.966786e-06
3.9737931e-06
3.9810386e-06
3.992202e-06
4.0010835e-06
4.0075941e-06
4.0264576e-06
4.0559219e-06
4.0536407e-06
4.043207e-06
4.0706909e-06
4.1212848e-06
4.1332297e-06
4.1077402e-06
4.043918e-06
3.9705193e-06
3.9182382e-06
3.889944e-06
3.8739137e-06
3.8637783e-06
3.8471342e-06
3.8314949e-06
3.834932e-06
3.8128157e-06
3.7883112e-06
3.8063271e-06
3.8210326e-06
3.7689244e-06
3.7090108e-06
3.69036e-06
3.7177109e-06
3.7657854e-06
3.8104901e-06
3.8415395e-06
3.8601812e-06
3.8680231e-06
3.8687432e-06
3.8676972e-06
3.866901e-06
3.8669121e-06
3.8673207e-06
3.8677328e-06
3.8680346e-06
3.8682038e-06
3.8682925e-06
3.8683189e-06
3.8683321e-06
3.8683324e-06
3.8681385e-06
3.8680467e-06
3.8680525e-06
3.8681383e-06
3.8682321e-06
3.8681738e-06
1.1008156e-11
3.2446403e-11
5.8931189e-10
5.5100283e-09
3.0857471e-08
1.252413e-07
4.056309e-07
1.0997485e-06
2.5572129e-06
5.1778745e-06
9.2761806e-06
1.4988772e-05
2.2289776e-05
3.1072723e-05
4.1218825e-05
5.2629319e-05
6.5235983e-05
7.8997919e-05
9.389101e-05
0.00010990751
0.00012705663
0.0001453536
0.00016482272
0.00018550655
0.00020746694
0.00023083229
0.00025577636
0.00028253488
0.00031145829
0.0003430183
0.00037781399
0.00041655809
0.00045991915
0.00050851899
0.00056263122
0.00062191529
0.00068463146
0.00074750264
0.00080563811
0.00085288591
0.00088288883
0.00089053222
0.00087319468
0.00083106792
0.00076617501
0.00068043887
0.00057382392
0.00044262392
0.00026537784
8.2889613e-05
1.2250281e-05
4.6787387e-06
4.2184417e-06
4.1661004e-06
4.2409185e-06
4.3763598e-06
4.4582253e-06
4.463913e-06
4.4333774e-06
4.3407963e-06
4.1645755e-06
3.9799511e-06
3.82754e-06
3.7756602e-06
3.7988897e-06
3.8908158e-06
3.9382644e-06
3.9480662e-06
3.9834904e-06
4.1154552e-06
4.2720607e-06
4.2867398e-06
4.2491871e-06
4.1587572e-06
4.0528636e-06
3.9780131e-06
3.9522719e-06
3.9484893e-06
3.9496085e-06
3.952121e-06
3.9558668e-06
3.9613385e-06
3.9689566e-06
3.9757495e-06
3.9828944e-06
3.9943783e-06
4.00403e-06
4.0101032e-06
4.0279487e-06
4.0577226e-06
4.0566472e-06
4.0462349e-06
4.0729862e-06
4.1223808e-06
4.1335627e-06
4.107685e-06
4.0436089e-06
3.9703054e-06
3.9181681e-06
3.8898864e-06
3.8738029e-06
3.8635206e-06
3.8468474e-06
3.8312337e-06
3.8344563e-06
3.8123253e-06
3.7880886e-06
3.806229e-06
3.8203435e-06
3.7681656e-06
3.7081488e-06
3.689438e-06
3.7173507e-06
3.7655656e-06
3.8103508e-06
3.8414676e-06
3.8601643e-06
3.868015e-06
3.868758e-06
3.8677143e-06
3.8669076e-06
3.8669228e-06
3.8673306e-06
3.8677417e-06
3.8680429e-06
3.8682105e-06
3.8682984e-06
3.8683245e-06
3.8683377e-06
3.8682879e-06
3.8680789e-06
3.8680316e-06
3.8680776e-06
3.8681729e-06
3.8682461e-06
3.8681787e-06
1.2887651e-11
3.7000139e-11
6.6514929e-10
6.2139487e-09
3.4763145e-08
1.4077071e-07
4.5393211e-07
1.2218986e-06
2.8128979e-06
5.6278233e-06
9.9598092e-06
1.591771e-05
2.3458255e-05
3.2470185e-05
4.2837052e-05
5.4463742e-05
6.7284142e-05
8.1256994e-05
9.6355681e-05
0.00011256867
0.00012990107
0.0001483645
0.00016798124
0.00018879519
0.00021087439
0.00023432585
0.00025934398
0.00028617505
0.00031517179
0.00034680966
0.00038169047
0.00042050832
0.0004639696
0.00051260542
0.00056669191
0.0006258129
0.00068796152
0.00074978488
0.00080628295
0.00085129339
0.00087858354
0.00088328423
0.00086306638
0.00081834836
0.00075121335
0.00066345488
0.0005547453
0.00042069573
0.00023902301
6.6887574e-05
9.8078535e-06
4.556279e-06
4.2069418e-06
4.1715384e-06
4.2540378e-06
4.3869078e-06
4.4595011e-06
4.4614391e-06
4.4283236e-06
4.3279047e-06
4.1440293e-06
3.9613962e-06
3.8176226e-06
3.7757155e-06
3.8046538e-06
3.9007712e-06
3.9409052e-06
3.9496565e-06
3.9888018e-06
4.1295148e-06
4.2789387e-06
4.2874201e-06
4.2459226e-06
4.1531742e-06
4.0486918e-06
3.9769974e-06
3.9536037e-06
3.950236e-06
3.9513226e-06
3.9539063e-06
3.95786e-06
3.9636362e-06
3.9713418e-06
3.9778156e-06
3.9848505e-06
3.9968457e-06
4.0071548e-06
4.0124053e-06
4.0293373e-06
4.059745e-06
4.0599673e-06
4.0492716e-06
4.075096e-06
4.1233922e-06
4.1339001e-06
4.1076126e-06
4.0432939e-06
3.9700742e-06
3.9180856e-06
3.889803e-06
3.8736703e-06
3.8632431e-06
3.8465365e-06
3.8309517e-06
3.8339577e-06
3.8117981e-06
3.7878638e-06
3.8061091e-06
3.8196199e-06
3.7673721e-06
3.7072307e-06
3.6885396e-06
3.716979e-06
3.7653593e-06
3.8102173e-06
3.8413997e-06
3.8601564e-06
3.8680104e-06
3.8687726e-06
3.8677373e-06
3.8669139e-06
3.8669326e-06
3.8673396e-06
3.8677499e-06
3.8680506e-06
3.8682167e-06
3.8683041e-06
3.8683302e-06
3.8683414e-06
3.8682145e-06
3.8680441e-06
3.8680361e-06
3.868108e-06
3.8682066e-06
3.8682356e-06
1.5743719e-11
4.32378e-11
7.6302899e-10
7.1181594e-09
3.9760917e-08
1.60492e-07
5.1443654e-07
1.3716744e-06
3.1176707e-06
6.1477405e-06
1.0725933e-05
1.6928757e-05
2.4693891e-05
3.3906312e-05
4.4452917e-05
5.6242979e-05
6.9213132e-05
8.3322599e-05
9.8543552e-05
0.0001148624
0.0001322823
0.0001508135
0.00017047803
0.00019132129
0.00021341549
0.00023687714
0.00026187962
0.00028870554
0.00031770529
0.00034936677
0.0003843193
0.00042330627
0.00046703803
0.00051597092
0.00057022891
0.00062920778
0.00069092204
0.00075188825
0.0008069993
0.00085007924
0.00087500225
0.00087711058
0.00085432259
0.00080723863
0.00073797079
0.00064816994
0.00053719035
0.00039983749
0.00021400837
5.3148307e-05
7.997509e-06
4.4561273e-06
4.1882375e-06
4.1728876e-06
4.2663886e-06
4.396968e-06
4.4609332e-06
4.459122e-06
4.4227145e-06
4.3143454e-06
4.123627e-06
3.94413e-06
3.8095139e-06
3.7762135e-06
3.8109613e-06
3.9100818e-06
3.9429772e-06
3.9508763e-06
3.9943481e-06
4.1433606e-06
4.2847366e-06
4.2881774e-06
4.24261e-06
4.1479159e-06
4.0448992e-06
3.9761767e-06
3.9548776e-06
3.9519847e-06
3.9531102e-06
3.9557435e-06
3.9598367e-06
3.9659622e-06
3.9738445e-06
3.9799557e-06
3.9869384e-06
3.999591e-06
4.0103822e-06
4.014382e-06
4.0302745e-06
4.0619572e-06
4.06362e-06
4.0522975e-06
4.0769861e-06
4.1243112e-06
4.1342307e-06
4.107532e-06
4.0429575e-06
3.9698319e-06
3.9179883e-06
3.8896851e-06
3.8735106e-06
3.8629475e-06
3.8462001e-06
3.830653e-06
3.8334512e-06
3.8112414e-06
3.7876415e-06
3.8059726e-06
3.8188608e-06
3.766551e-06
3.7062642e-06
3.6876748e-06
3.7165885e-06
3.7651577e-06
3.8100931e-06
3.8413379e-06
3.8601391e-06
3.8680094e-06
3.8687913e-06
3.8677591e-06
3.866918e-06
3.8669415e-06
3.8673477e-06
3.8677572e-06
3.8680578e-06
3.8682227e-06
3.8683099e-06
3.8683359e-06
3.8683306e-06
3.8681377e-06
3.8680328e-06
3.8680539e-06
3.8681414e-06
3.8682344e-06
3.8682041e-06
1.7663374e-11
4.7773227e-11
8.3745675e-10
7.8072603e-09
4.3568466e-08
1.754945e-07
5.6033597e-07
1.4848804e-06
3.3473082e-06
6.5392918e-06
1.1304857e-05
1.7698802e-05
2.5647549e-05
3.5033592e-05
4.5745558e-05
5.7695084e-05
7.0820228e-05
8.5080191e-05
0.00010044605
0.0001169026
0.00013445113
0.00015310043
0.00017287165
0.00019381031
0.00021599009
0.00023953081
0.00026461421
0.00029149662
0.0003205722
0.00035233893
0.00038740985
0.00042649418
0.00047029225
0.00051930963
0.00057362146
0.00063246456
0.00069383782
0.00075411774
0.00080810077
0.00084961184
0.00087261554
0.00087262087
0.0008477383
0.00079871072
0.00072768144
0.00063620314
0.00052337223
0.00038330384
0.00019496717
4.4319538e-05
7.0721116e-06
4.408732e-06
4.1825009e-06
4.1806296e-06
4.277127e-06
4.4036871e-06
4.4610338e-06
4.4571018e-06
4.4180877e-06
4.3021794e-06
4.105238e-06
3.9295238e-06
3.8034252e-06
3.7772104e-06
3.8176204e-06
3.918179e-06
3.9447621e-06
3.952434e-06
4.0004776e-06
4.1567275e-06
4.2897025e-06
4.2888377e-06
4.2394667e-06
4.1431456e-06
4.041636e-06
3.9757169e-06
3.9562673e-06
3.9537475e-06
3.95496e-06
3.9576629e-06
3.9618391e-06
3.9682699e-06
3.9763454e-06
3.9821508e-06
3.9892078e-06
4.0026927e-06
4.0136058e-06
4.0160366e-06
4.0311887e-06
4.0645549e-06
4.0675218e-06
4.055277e-06
4.0786609e-06
4.1251268e-06
4.1345276e-06
4.1074358e-06
4.0426076e-06
3.9695846e-06
3.9178549e-06
3.8895349e-06
3.8733229e-06
3.8626338e-06
3.8458464e-06
3.8303377e-06
3.8329414e-06
3.8106625e-06
3.787422e-06
3.8058211e-06
3.8180674e-06
3.7657068e-06
3.70525e-06
3.6868303e-06
3.7162057e-06
3.7649554e-06
3.8099842e-06
3.8412842e-06
3.8601176e-06
3.8680132e-06
3.8688141e-06
3.8677796e-06
3.8669204e-06
3.8669499e-06
3.8673552e-06
3.8677637e-06
3.8680647e-06
3.8682284e-06
3.8683155e-06
3.8683386e-06
3.8682855e-06
3.8680784e-06
3.8680396e-06
3.8680799e-06
3.8681759e-06
3.868247e-06
3.8681737e-06
2.0472047e-11
5.389587e-11
9.3344212e-10
8.6931177e-09
4.8448129e-08
1.945972e-07
6.1806478e-07
1.6244957e-06
3.6230434e-06
6.9943784e-06
1.1954951e-05
1.8535321e-05
2.6650697e-05
3.6182931e-05
4.7024295e-05
5.9090353e-05
7.2321727e-05
8.6678529e-05
0.00010213133
0.00011866386
0.00013627609
0.00015497564
0.00017478312
0.00019574428
0.0002179342
0.00024147581
0.00026655681
0.00029344904
0.00032253112
0.00035431847
0.00038942476
0.00042857497
0.00047249131
0.00052172629
0.00057632103
0.00063529359
0.00069647175
0.00075618397
0.00080923808
0.0008494517
0.0008708476
0.00086906522
0.00084236737
0.00079160602
0.00071893642
0.00062580162
0.00051102049
0.0003680016
0.00017726543
3.6757319e-05
6.3553929e-06
4.3625015e-06
4.1722484e-06
4.1843087e-06
4.2874638e-06
4.4101778e-06
4.4608946e-06
4.455715e-06
4.4136355e-06
4.2899704e-06
4.0873901e-06
3.916485e-06
3.798683e-06
3.778568e-06
3.8243336e-06
3.9252595e-06
3.946442e-06
3.9539514e-06
4.0067129e-06
4.1697198e-06
4.2941024e-06
4.2897131e-06
4.2365813e-06
4.1388637e-06
4.0388608e-06
3.9755553e-06
3.9578427e-06
3.9555989e-06
3.9569278e-06
3.9596789e-06
3.9638604e-06
3.9705229e-06
3.9787685e-06
3.9844097e-06
3.9917452e-06
4.0062279e-06
4.0166015e-06
4.0175136e-06
4.0323499e-06
4.0676983e-06
4.0715493e-06
4.0580601e-06
4.0801166e-06
4.12587e-06
4.1347812e-06
4.1072852e-06
4.0422377e-06
3.969332e-06
3.9176771e-06
3.8893522e-06
3.8731111e-06
3.8623043e-06
3.84548e-06
3.8300082e-06
3.8324214e-06
3.8100573e-06
3.7872059e-06
3.8056518e-06
3.8172431e-06
3.7648357e-06
3.704179e-06
3.6860074e-06
3.7158243e-06
3.7647524e-06
3.8098847e-06
3.8412411e-06
3.8600926e-06
3.8680227e-06
3.8688377e-06
3.8678017e-06
3.8669193e-06
3.8669585e-06
3.8673622e-06
3.8677698e-06
3.8680711e-06
3.8682341e-06
3.8683212e-06
3.8683238e-06
3.8682105e-06
3.8680441e-06
3.8680585e-06
3.8681106e-06
3.8682092e-06
3.8682354e-06
3.8681787e-06
2.2454028e-11
5.83667e-11
1.0050876e-09
9.3550464e-09
5.2091912e-08
2.0883719e-07
6.6097055e-07
1.7278545e-06
3.8263497e-06
7.3298881e-06
1.2437389e-05
1.9164608e-05
2.742011e-05
3.7085449e-05
4.8055199e-05
6.0247331e-05
7.3603933e-05
8.8085629e-05
0.00010366256
0.00012031742
0.0001380491
0.00015686407
0.00017678222
0.00019784926
0.00022014127
0.00024378363
0.00026896829
0.00029597354
0.00032518726
0.00035711439
0.00039240028
0.00043174667
0.00047584078
0.00052514935
0.00057974409
0.00063862001
0.00069953733
0.00075873584
0.00081098345
0.00085004781
0.00087000778
0.00086662676
0.00083830027
0.00078597791
0.00071183544
0.00061723296
0.00050074368
0.00035518004
0.00016312421
3.1555154e-05
5.9410071e-06
4.3381129e-06
4.169919e-06
4.1921031e-06
4.2976159e-06
4.4142561e-06
4.4613116e-06
4.4553111e-06
4.4101849e-06
4.2793502e-06
4.0716907e-06
3.9056707e-06
3.7949984e-06
3.7800017e-06
3.8311956e-06
3.9318127e-06
3.9481262e-06
3.9557915e-06
4.0135492e-06
4.1822797e-06
4.2979721e-06
4.2905248e-06
4.2338515e-06
4.1350419e-06
4.0365188e-06
3.9758954e-06
3.9595696e-06
3.9575132e-06
3.9590387e-06
3.9618549e-06
3.9659349e-06
3.9727177e-06
3.9810839e-06
3.9867418e-06
3.9946312e-06
4.0101299e-06
4.019084e-06
4.0186339e-06
4.0338679e-06
4.0713624e-06
4.075689e-06
4.0605352e-06
4.0813355e-06
4.1265442e-06
4.1349969e-06
4.1070825e-06
4.0418387e-06
3.9690632e-06
3.9174799e-06
3.8891388e-06
3.8728708e-06
3.861961e-06
3.8451018e-06
3.8296693e-06
3.8318782e-06
3.8094205e-06
3.7870022e-06
3.8054673e-06
3.8163858e-06
3.7639405e-06
3.703053e-06
3.6852156e-06
3.7154363e-06
3.7645599e-06
3.8097847e-06
3.8412033e-06
3.8600683e-06
3.8680333e-06
3.8688607e-06
3.8678245e-06
3.8669142e-06
3.8669673e-06
3.8673685e-06
3.8677755e-06
3.8680775e-06
3.8682398e-06
3.8683231e-06
3.8682733e-06
3.8681323e-06
3.8680332e-06
3.8680849e-06
3.868144e-06
3.8682363e-06
3.8682034e-06
2.5460089e-11
6.492631e-11
1.1082108e-09
1.0306094e-08
5.7315273e-08
2.2914202e-07
7.2157143e-07
1.8718225e-06
4.105031e-06
7.7822656e-06
1.307749e-05
1.9985809e-05
2.8407118e-05
3.8222694e-05
4.9330125e-05
6.1650539e-05
7.5128049e-05
8.9723804e-05
0.00010540723
0.00012215964
0.00013997819
0.00015886772
0.000178847
0.00019996138
0.00022228798
0.00024595465
0.0002711576
0.00029818142
0.00032742239
0.00035940199
0.00039476629
0.00043420296
0.0004784008
0.00052782894
0.00058247941
0.0006413998
0.0007022987
0.00076125164
0.00081280333
0.00085082878
0.00086953036
0.00086475829
0.00083501138
0.00078132217
0.00070587584
0.000609934
0.00049181766
0.00034371293
0.00015043584
2.7107955e-05
5.5991645e-06
4.3104562e-06
4.1648616e-06
4.1968958e-06
4.3073876e-06
4.419245e-06
4.4621427e-06
4.455008e-06
4.4060898e-06
4.2675601e-06
4.055864e-06
3.8956055e-06
3.7921208e-06
3.7820714e-06
3.8383749e-06
3.9380106e-06
3.9497526e-06
3.9578321e-06
4.0203952e-06
4.193971e-06
4.3013313e-06
4.2911346e-06
4.2311967e-06
4.1315234e-06
4.0345283e-06
3.9763156e-06
3.9613832e-06
3.9594969e-06
3.9612502e-06
3.9642387e-06
3.9681693e-06
3.9749616e-06
3.9834256e-06
3.9892889e-06
3.9979818e-06
4.0141191e-06
4.0209869e-06
4.0189645e-06
4.0357375e-06
4.0756029e-06
4.0798334e-06
4.0626855e-06
4.0823405e-06
4.1271548e-06
4.1351512e-06
4.1068361e-06
4.0414159e-06
3.9687805e-06
3.9172696e-06
3.8888956e-06
3.8726022e-06
3.8615994e-06
3.8447196e-06
3.8293292e-06
3.8313075e-06
3.8087489e-06
3.7868199e-06
3.8052629e-06
3.8154921e-06
3.7630104e-06
3.7018743e-06
3.6844505e-06
3.7150509e-06
3.7643848e-06
3.809682e-06
3.8411642e-06
3.8600468e-06
3.8680415e-06
3.8688819e-06
3.8678456e-06
3.8669106e-06
3.8669744e-06
3.8673743e-06
3.8677811e-06
3.8680836e-06
3.8682455e-06
3.8683053e-06
3.868196e-06
3.8680726e-06
3.8680403e-06
3.8681157e-06
3.8681782e-06
3.8682478e-06
3.8681734e-06
2.7524798e-11
6.9544939e-11
1.1819781e-09
1.0986787e-08
6.1049369e-08
2.4362134e-07
7.6462565e-07
1.9736587e-06
4.3014118e-06
8.1006573e-06
1.352894e-05
2.0568756e-05
2.9115374e-05
3.9050793e-05
5.027536e-05
6.2713207e-05
7.6310604e-05
9.102797e-05
0.00010683309
0.0001237052
0.00014163937
0.00016063858
0.00018072035
0.00020192996
0.0002243457
0.00024809832
0.00027338888
0.0003005085
0.00032986078
0.00036197162
0.00039748169
0.00043712026
0.00048155235
0.00053123164
0.00058606266
0.00064499705
0.00070569104
0.00076421837
0.00081515433
0.00085231417
0.00086995966
0.00086396989
0.00083295002
0.00077801843
0.00070137746
0.00060420424
0.00048461894
0.00033432283
0.00014054947
2.4087844e-05
5.3992702e-06
4.2963721e-06
4.1652887e-06
4.204384e-06
4.3150257e-06
4.4223726e-06