/*--------------------------------*- C++ -*----------------------------------*\
| =========                 |                                                 |
| \\      /  F ield         | OpenFOAM: The Open Source CFD Toolbox           |
|  \\    /   O peration     | Version:  2506                                  |
|   \\  /    A nd           | Website:  www.openfoam.com                      |
|    \\/     M anipulation  |                                                 |
\*---------------------------------------------------------------------------*/
FoamFile
{
    version     2.0;
    format      ascii;
    arch        "LSB;label=32;scalar=64";
    class       volVectorField;
    location    "0.017";
    object      wallShearStress;
}
// * * * * * * * * * * * * * * * * * * * * * * * * * * * * * * * * * * * * * //

dimensions      [1 -1 -2 0 0 0 0];

internalField   uniform (0 0 0);

boundaryField
{
    Side
    {
        type            empty;
    }
    Inlet
    {
        type            calculated;
        value           uniform (0 0 0);
    }
    Airfoil
    {
        type            calculated;
        value           nonuniform List<vector> 
109
(
(-3.6358685 -0.079551573 -3.326104e-17)
(-3.7709884 -0.087657007 -5.1008489e-22)
(-3.907975 -0.096239703 -3.3585377e-17)
(-4.0466865 -0.10531393 -3.3749352e-17)
(-4.1870048 -0.1148937 -5.1741691e-22)
(-4.3287874 -0.12498968 5.2024199e-22)
(-4.4717484 -0.13561506 -3.425893e-17)
(-4.6147182 -0.14666652 -4.7019774e-38)
(-4.7583777 -0.15796218 -5.2799719e-22)
(-4.9037086 -0.16975609 5.3101288e-22)
(-5.0501815 -0.18205801 3.4975356e-17)
(-5.1977893 -0.19488357 -2.8007932e-25)
(-5.3463931 -0.20823814 -2.8647758e-25)
(-5.4959198 -0.22213318 -5.4244721e-22)
(-5.6462763 -0.23657431 7.1469757e-17)
(-5.7973797 -0.25157232 -7.1864325e-17)
(-5.9491404 -0.26713401 5.4801938e-22)
(-6.1014677 -0.283274 -5.5459426e-22)
(-6.2542783 -0.29999366 -3.7615819e-37)
(-6.4074404 -0.31730188 -7.3504542e-17)
(-6.5609372 -0.33521202 2.9387359e-39)
(-6.7137991 -0.35366968 -7.4364642e-17)
(-6.8659367 -0.37248064 -1.1754944e-38)
(-7.0183397 -0.3917614 -7.5253822e-17)
(-7.1709628 -0.41160222 -5.7743403e-22)
(-7.3237003 -0.43199487 7.6171908e-17)
(-7.47655 -0.45295067 -5.8454014e-22)
(-7.6294689 -0.47447828 7.7118361e-17)
(-7.7824589 -0.49658044 1.5520786e-16)
(-7.9354762 -0.51926987 0)
(-8.0885218 -0.54255445 7.8597882e-17)
(-8.2415399 -0.56643642 6.0334251e-22)
(-8.394526 -0.59093204 -6.0769183e-22)
(-8.547411 -0.61603587 0)
(-8.7001673 -0.64177094 8.068749e-17)
(-8.8527384 -0.66813256 1.6246439e-16)
(-9.0047143 -0.69509705 8.1785622e-17)
(-9.1558632 -0.72256095 8.2350648e-17)
(-9.30652 -0.75055533 4.361812e-24)
(-9.456677 -0.77910455 1.5523472e-38)
(-9.6063821 -0.80820634 -1.9556409e-33)
(-9.7556174 -0.83787524 6.4599063e-22)
(-9.9044434 -0.8681231 -1.3017893e-21)
(-10.052853 -0.89894907 -8.5937426e-17)
(-10.200906 -0.93036237 1.5046328e-36)
(-10.348581 -0.96238601 9.2534915e-34)
(-10.495947 -0.99501465 -1.7574941e-16)
(-10.643031 -1.0282742 -8.8543729e-17)
(-10.789865 -1.0621647 6.8097067e-22)
(-10.936492 -1.0967106 8.9916589e-17)
(-11.08291 -1.1319113 -6.9164066e-22)
(-11.229332 -1.1678132 6.9659171e-22)
(-11.376082 -1.2045093 -5.3550368e-25)
(-11.522194 -1.2419406 9.2812445e-17)
(-11.667207 -1.2798704 -7.1360492e-22)
(-11.81158 -1.3183586 1.439515e-21)
(-11.95532 -1.3574028 9.512409e-17)
(-12.098507 -1.3970194 9.592407e-17)
(-12.241165 -1.4372145 -7.3833377e-22)
(-12.383298 -1.4779897 9.756433e-17)
(-12.524911 -1.5193615 -7.5047906e-22)
(-12.665982 -1.5613354 -9.926577e-17)
(-12.806521 -1.6038991 7.6432255e-22)
(-12.946558 -1.6470846 7.7048163e-22)
(-13.086105 -1.6908939 -1.0193941e-16)
(-13.22507 -1.7353098 -1.0286398e-16)
(-13.36369 -1.7803903 -5.6843474e-24)
(-13.501547 -1.8260753 -1.0476455e-16)
(-13.64082 -1.8726932 1.0574386e-16)
(-13.780818 -1.9205686 -1.0674095e-16)
(-13.918846 -1.969028 -1.0775661e-16)
(-14.05513 -2.0178806 8.2965031e-22)
(-14.190361 -2.0672196 -8.3843187e-22)
(-14.324492 -2.1170247 -3.0092655e-36)
(-14.457943 -2.1673889 -1.1201834e-16)
(-14.590599 -2.2182621 -1.5046328e-36)
(-14.722844 -2.2697381 8.7145106e-22)
(-14.854528 -2.3217703 -8.8109957e-22)
(-14.985999 -2.3744369 8.8932887e-22)
(-15.117029 -2.427706 -8.2139628e-25)
(-15.247906 -2.4816213 -9.0876289e-22)
(-15.378708 -2.5362067 1.2031543e-16)
(-15.509476 -2.5914731 9.2727474e-22)
(-15.640287 -2.647443 -1.2290596e-16)
(-15.771325 -2.7041631 1.8957092e-21)
(-15.90218 -2.7615671 -1.9164786e-21)
(-16.03638 -2.8203108 1.2698935e-16)
(-16.173469 -2.8810341 -1.2840455e-16)
(-16.308414 -2.9424467 2.5970088e-16)
(-16.4417 -3.004213 -1.0014497e-21)
(-16.574138 -3.0664795 2.6566444e-16)
(-16.705937 -3.1292715 1.343682e-16)
(-16.837397 -3.1926594 0)
(-16.968641 -3.2566581 1.3753636e-16)
(-17.099894 -3.3213317 -1.3916873e-16)
(-17.231437 -3.3867317 1.4083675e-16)
(-17.363303 -3.4528465 0)
(-17.495854 -3.5197977 -3.0092655e-36)
(-17.629103 -3.587579 -1.4605275e-16)
(-17.763498 -3.6562851 -1.4786408e-16)
(-17.899106 -3.7259386 -1.1428414e-21)
(-18.036462 -3.7966817 2.2958874e-41)
(-18.175828 -3.8685672 0)
(-18.317647 -3.9417182 2.165179e-33)
(-18.464375 -4.0166835 -1.2010507e-21)
(-18.609772 -4.0921074 1.481896e-24)
(-18.809755 -4.1805695 1.2341942e-21)
(-19.17486 -4.3221311 1.2491334e-21)
(-19.526463 -4.490629 8.2999183e-17)
)
;
    }
    Outlet
    {
        type            calculated;
        value           nonuniform List<vector> 0();
    }
    procBoundary9to2
    {
        type            processor;
        value           uniform (0 0 0);
    }
    procBoundary9to8
    {
        type            processor;
        value           uniform (0 0 0);
    }
    procBoundary9to10
    {
        type            processor;
        value           uniform (0 0 0);
    }
}


// ************************************************************************* //
