/*--------------------------------*- C++ -*----------------------------------*\
| =========                 |                                                 |
| \\      /  F ield         | OpenFOAM: The Open Source CFD Toolbox           |
|  \\    /   O peration     | Version:  2506                                  |
|   \\  /    A nd           | Website:  www.openfoam.com                      |
|    \\/     M anipulation  |                                                 |
\*---------------------------------------------------------------------------*/
FoamFile
{
    version     2.0;
    format      ascii;
    arch        "LSB;label=32;scalar=64";
    class       volScalarField;
    location    "0.0065";
    object      nut;
}
// * * * * * * * * * * * * * * * * * * * * * * * * * * * * * * * * * * * * * //

dimensions      [0 2 -1 0 0 0 0];

internalField   nonuniform List<scalar> 
192657
(
7.8240028e-06
3.8684185e-06
3.8692912e-06
3.8692795e-06
3.8692764e-06
3.8692762e-06
3.8692762e-06
3.8692762e-06
3.8692762e-06
3.8692762e-06
3.8692762e-06
3.8692762e-06
3.8692762e-06
3.8692762e-06
3.8692762e-06
3.8692762e-06
3.8692762e-06
3.8692762e-06
3.8692762e-06
3.8692763e-06
3.8692769e-06
3.8692789e-06
3.8692838e-06
3.869291e-06
3.8692957e-06
3.8692909e-06
3.869332e-06
3.8694592e-06
3.8696228e-06
3.8695445e-06
3.8689779e-06
3.8684828e-06
3.8687936e-06
3.8707288e-06
3.8760337e-06
3.8883533e-06
3.9105215e-06
3.9310081e-06
3.9274464e-06
3.8980846e-06
3.8762752e-06
3.8817136e-06
3.8896703e-06
3.8754759e-06
3.8679073e-06
3.8724719e-06
3.8650095e-06
3.8545528e-06
3.8497465e-06
3.845018e-06
3.8449795e-06
3.8424977e-06
3.8229336e-06
3.7841652e-06
3.7328385e-06
3.7009476e-06
3.7084734e-06
3.7197985e-06
3.7025133e-06
3.6882682e-06
3.7194386e-06
3.7387982e-06
3.7315463e-06
3.7490092e-06
3.7714677e-06
3.7798449e-06
3.7992276e-06
3.8174708e-06
3.8345709e-06
3.855666e-06
3.8782995e-06
3.9040493e-06
3.9309049e-06
3.9578282e-06
3.9840769e-06
4.0145042e-06
4.0349225e-06
4.000255e-06
3.9243423e-06
3.9157049e-06
4.0646007e-06
4.2248733e-06
4.3096749e-06
4.3538635e-06
4.4968279e-06
4.6644524e-06
4.7826665e-06
4.8747397e-06
4.9540576e-06
4.947682e-06
4.9702142e-06
5.0779666e-06
5.2046146e-06
5.308477e-06
5.4257254e-06
5.6181892e-06
5.9220896e-06
6.2407963e-06
6.4976277e-06
6.6959712e-06
6.8789136e-06
7.0887639e-06
7.3226763e-06
7.6204228e-06
8.9499617e-06
0.00011191384
0.00047493342
0.00083262303
0.0011040408
0.0012946644
0.0014186243
0.0014892502
0.0015187029
0.0015172895
0.0014931346
0.0014519068
0.001396776
0.0013330569
0.0012641034
0.0011923333
0.0011191207
0.0010452504
0.00097151115
0.00089860695
0.00082714103
0.00075761098
0.00069041952
0.00062589192
0.00056425162
0.00050565826
0.00045022658
0.00039803895
0.00034914083
0.00030354654
0.00026110104
0.00022167452
0.0001851667
0.00015152814
0.00012077264
9.2953197e-05
6.8189317e-05
4.6726298e-05
2.8923724e-05
1.5203818e-05
6.0411656e-06
1.5096067e-06
1.8977547e-07
1.0563271e-08
3.2809457e-09
7.806214e-06
3.8683923e-06
3.8692911e-06
3.8692796e-06
3.8692764e-06
3.8692762e-06
3.8692762e-06
3.8692762e-06
3.8692762e-06
3.8692762e-06
3.8692762e-06
3.8692762e-06
3.8692762e-06
3.8692762e-06
3.8692762e-06
3.8692762e-06
3.8692762e-06
3.8692762e-06
3.8692762e-06
3.8692763e-06
3.8692769e-06
3.8692789e-06
3.8692837e-06
3.869291e-06
3.8692959e-06
3.869291e-06
3.8693321e-06
3.869459e-06
3.8696231e-06
3.8695472e-06
3.8689816e-06
3.8684865e-06
3.8687849e-06
3.8707053e-06
3.8759828e-06
3.888263e-06
3.9104479e-06
3.931232e-06
3.9278012e-06
3.8985752e-06
3.8765762e-06
3.8818815e-06
3.889967e-06
3.8759001e-06
3.8681162e-06
3.8727172e-06
3.8654193e-06
3.8549761e-06
3.8500501e-06
3.8453644e-06
3.8452349e-06
3.842831e-06
3.8234756e-06
3.784844e-06
3.7337576e-06
3.701875e-06
3.7095853e-06
3.7200844e-06
3.7025881e-06
3.688066e-06
3.7188807e-06
3.7377364e-06
3.7303229e-06
3.748248e-06
3.7707573e-06
3.778995e-06
3.7985859e-06
3.816652e-06
3.833598e-06
3.854874e-06
3.8775632e-06
3.9034808e-06
3.930246e-06
3.9570898e-06
3.9833136e-06
4.0138575e-06
4.0348769e-06
4.0012486e-06
3.9242298e-06
3.915223e-06
4.064996e-06
4.2257198e-06
4.3129924e-06
4.3567894e-06
4.4983258e-06
4.666486e-06
4.7878169e-06
4.8786907e-06
4.9551395e-06
4.9514499e-06
4.9836368e-06
5.0959814e-06
5.2188859e-06
5.3177713e-06
5.4417059e-06
5.6481126e-06
5.9685076e-06
6.2809451e-06
6.5293754e-06
6.7200239e-06
6.9077281e-06
7.12996e-06
7.3790726e-06
7.7786801e-06
1.5563396e-05
0.00015029857
0.00053545031
0.00088074978
0.0011324483
0.0013058821
0.0014156417
0.0014750629
0.0014959108
0.0014878667
0.0014584831
0.0014135876
0.0013577896
0.0012942198
0.0012253498
0.0011530903
0.0010789475
0.0010041442
0.00092964086
0.00085619904
0.00078443883
0.00071486528
0.00064788869
0.0005838566
0.00052302998
0.00046558344
0.00041158965
0.0003610864
0.00031406958
0.00027049859
0.00023040912
0.00019375641
0.00016047425
0.00013043188
0.00010350023
7.9573212e-05
5.8552044e-05
4.0345961e-05
2.5028677e-05
1.2981785e-05
4.9491492e-06
1.1675094e-06
1.4011566e-07
7.1698036e-09
1.7680744e-09
7.8868039e-06
3.8683604e-06
3.8692912e-06
3.8692795e-06
3.8692764e-06
3.8692762e-06
3.8692761e-06
3.8692762e-06
3.8692762e-06
3.8692762e-06
3.8692762e-06
3.8692762e-06
3.8692762e-06
3.8692762e-06
3.8692762e-06
3.8692762e-06
3.8692762e-06
3.8692762e-06
3.8692762e-06
3.8692763e-06
3.8692769e-06
3.8692789e-06
3.8692837e-06
3.8692909e-06
3.8692958e-06
3.8692906e-06
3.8693313e-06
3.8694568e-06
3.8696227e-06
3.8695504e-06
3.8689827e-06
3.8684912e-06
3.8687723e-06
3.8706767e-06
3.8759172e-06
3.8881473e-06
3.9103409e-06
3.9314414e-06
3.9281658e-06
3.8991172e-06
3.8768932e-06
3.8820332e-06
3.8902642e-06
3.8763459e-06
3.8681139e-06
3.8729631e-06
3.8658447e-06
3.8554158e-06
3.8503701e-06
3.8457105e-06
3.8454901e-06
3.843175e-06
3.8241013e-06
3.7857008e-06
3.7348393e-06
3.7028714e-06
3.7106041e-06
3.7203496e-06
3.7027872e-06
3.687756e-06
3.7181328e-06
3.7366641e-06
3.7290616e-06
3.7472835e-06
3.7699125e-06
3.7780447e-06
3.7977837e-06
3.8156595e-06
3.8323649e-06
3.8537318e-06
3.8763574e-06
3.9022762e-06
3.9289135e-06
3.9556521e-06
3.9819119e-06
4.0127922e-06
4.0349376e-06
4.0036361e-06
3.9252188e-06
3.9129047e-06
4.0586406e-06
4.2234307e-06
4.314639e-06
4.3565342e-06
4.4924154e-06
4.663061e-06
4.7889379e-06
4.8787715e-06
4.9550098e-06
4.9549061e-06
4.9906494e-06
5.1033419e-06
5.2213715e-06
5.3154451e-06
5.4418395e-06
5.6523242e-06
5.9725396e-06
6.2863546e-06
6.5345544e-06
6.7216939e-06
6.9126515e-06
7.1403082e-06
7.3936846e-06
7.7581084e-06
1.4439533e-05
0.00013891175
0.00053013254
0.00087081079
0.0011165626
0.0012858161
0.001392576
0.001450385
0.001470648
0.0014627184
0.0014340518
0.0013904052
0.0013358591
0.0012733957
0.0012054987
0.0011341619
0.0010610212
0.00098729327
0.00091390849
0.00084159745
0.00077095798
0.00070247879
0.00063656101
0.00057354911
0.00051369959
0.00045722717
0.00040427131
0.000354836
0.00030889812
0.0002663822
0.00022719558
0.00019122174
0.00015833026
0.00012845977
0.00010157426
7.7639799e-05
5.6623679e-05
3.8553492e-05
2.3569543e-05
1.2037256e-05
4.5355179e-06
1.0649065e-06
1.2804739e-07
6.7732278e-09
1.8788323e-09
7.9266068e-06
3.8683293e-06
3.8692913e-06
3.8692794e-06
3.8692764e-06
3.8692762e-06
3.8692761e-06
3.8692762e-06
3.8692762e-06
3.8692762e-06
3.8692762e-06
3.8692762e-06
3.8692762e-06
3.8692762e-06
3.8692762e-06
3.8692762e-06
3.8692762e-06
3.8692762e-06
3.8692762e-06
3.8692763e-06
3.8692769e-06
3.8692788e-06
3.8692836e-06
3.8692909e-06
3.869296e-06
3.8692904e-06
3.8693311e-06
3.8694562e-06
3.869624e-06
3.8695557e-06
3.868988e-06
3.8684969e-06
3.8687624e-06
3.8706502e-06
3.8758566e-06
3.8880353e-06
3.9102389e-06
3.9316482e-06
3.9285232e-06
3.8996768e-06
3.8772218e-06
3.8821912e-06
3.890566e-06
3.8767889e-06
3.8685954e-06
3.8732165e-06
3.866269e-06
3.8558537e-06
3.8507038e-06
3.8460549e-06
3.8457482e-06
3.8435222e-06
3.824734e-06
3.7865458e-06
3.7359054e-06
3.7038858e-06
3.7116096e-06
3.7205972e-06
3.7030196e-06
3.6874638e-06
3.7174113e-06
3.7356206e-06
3.7278204e-06
3.7463106e-06
3.7690687e-06
3.7771376e-06
3.7970499e-06
3.8147295e-06
3.8311775e-06
3.8526463e-06
3.8752658e-06
3.9012746e-06
3.9278269e-06
3.9545113e-06
3.9806722e-06
4.0116671e-06
4.0349437e-06
4.006208e-06
3.9266327e-06
3.9112301e-06
4.0523998e-06
4.2211112e-06
4.3161992e-06
4.3566968e-06
4.4864774e-06
4.6596176e-06
4.7898084e-06
4.8787981e-06
4.9543921e-06
4.9588277e-06
4.9983005e-06
5.1115478e-06
5.2245434e-06
5.3135888e-06
5.4427725e-06
5.657959e-06
5.9812729e-06
6.2930804e-06
6.5391286e-06
6.7226748e-06
6.9163086e-06
7.1487431e-06
7.4055158e-06
7.7767922e-06
1.3184733e-05
0.0001230186
0.00049622051
0.00083593957
0.0010785245
0.0012470265
0.0013555439
0.0014162783
0.0014400263
0.0014357985
0.0014107218
0.0013700776
0.0013176431
0.0012570889
0.0011911211
0.0011218633
0.001050859
0.00097908834
0.00090742135
0.00083662027
0.00076731372
0.00070000899
0.00063510878
0.00057293244
0.00051373129
0.00045767995
0.00040491276
0.00035550617
0.00030951813
0.00026697859
0.00022780906
0.00019192934
0.00015922962
0.00012956613
0.00010281947
7.889564e-05
5.7718398e-05
3.934571e-05
2.4015431e-05
1.2197196e-05
4.5498789e-06
1.0563108e-06
1.2596989e-07
6.5016849e-09
1.664963e-09
7.9831444e-06
3.8682962e-06
3.8692913e-06
3.8692794e-06
3.8692764e-06
3.8692762e-06
3.8692761e-06
3.8692762e-06
3.8692762e-06
3.8692762e-06
3.8692762e-06
3.8692762e-06
3.8692762e-06
3.8692762e-06
3.8692762e-06
3.8692762e-06
3.8692762e-06
3.8692762e-06
3.8692762e-06
3.8692763e-06
3.8692769e-06
3.8692788e-06
3.8692836e-06
3.8692909e-06
3.8692962e-06
3.8692903e-06
3.8693309e-06
3.8694555e-06
3.8696252e-06
3.8695606e-06
3.868993e-06
3.8685021e-06
3.8687514e-06
3.8706225e-06
3.875793e-06
3.887917e-06
3.9101305e-06
3.9318484e-06
3.9288796e-06
3.9002588e-06
3.877553e-06
3.8823454e-06
3.8908693e-06
3.877241e-06
3.8688802e-06
3.8734848e-06
3.8666972e-06
3.8562905e-06
3.8510507e-06
3.8464008e-06
3.8460073e-06
3.8438704e-06
3.8253823e-06
3.7874191e-06
3.7370014e-06
3.7049248e-06
3.7125771e-06
3.7208666e-06
3.7033039e-06
3.6871643e-06
3.7166656e-06
3.7346202e-06
3.726592e-06
3.7452619e-06
3.7681713e-06
3.776212e-06
3.7963148e-06
3.8138033e-06
3.8299681e-06
3.8515138e-06
3.8741038e-06
3.9001972e-06
3.926689e-06
3.9533403e-06
3.979364e-06
4.0104925e-06
4.0349392e-06
4.0091425e-06
3.9286225e-06
3.9097876e-06
4.0446799e-06
4.2180568e-06
4.3174061e-06
4.3566376e-06
4.4790759e-06
4.6554395e-06
4.7898267e-06
4.8784563e-06
4.9533243e-06
4.9625704e-06
5.0053554e-06
5.118888e-06
5.2267802e-06
5.3103205e-06
5.4416806e-06
5.6602267e-06
5.9830196e-06
6.294376e-06
6.5397682e-06
6.720705e-06
6.9160231e-06
7.15168e-06
7.4111852e-06
7.7618758e-06
1.2057479e-05
0.00010645164
0.00046566184
0.00080498512
0.001045144
0.0012126385
0.0013214413
0.0013834225
0.0014089903
0.001406776
0.0013837204
0.0013452478
0.0012955301
0.0012377006
0.0011741686
0.0011068617
0.00103741
0.00096710901
0.00089675448
0.00082717736
0.00075901997
0.00069280453
0.00062894104
0.00056774679
0.00050946867
0.0004542833
0.00040231368
0.00035361441
0.00030821017
0.00026609095
0.00022720681
0.00019144955
0.0001587229
0.00012895702
0.00010210051
7.8112189e-05
5.698309e-05
3.8756464e-05
2.3611258e-05
1.1970784e-05
4.4567239e-06
1.032852e-06
1.2304681e-07
6.3491299e-09
1.625888e-09
8.0347654e-06
3.868262e-06
3.8692912e-06
3.8692794e-06
3.8692764e-06
3.8692762e-06
3.8692761e-06
3.8692762e-06
3.8692762e-06
3.8692762e-06
3.8692762e-06
3.8692762e-06
3.8692762e-06
3.8692762e-06
3.8692762e-06
3.8692762e-06
3.8692762e-06
3.8692762e-06
3.8692762e-06
3.8692763e-06
3.8692769e-06
3.8692788e-06
3.8692836e-06
3.8692909e-06
3.8692964e-06
3.8692902e-06
3.8693306e-06
3.8694549e-06
3.8696265e-06
3.8695661e-06
3.8689983e-06
3.8685075e-06
3.8687398e-06
3.8705946e-06
3.8757283e-06
3.8877949e-06
3.9100175e-06
3.932043e-06
3.9292421e-06
3.9008552e-06
3.877886e-06
3.882502e-06
3.8911721e-06
3.8776986e-06
3.8692091e-06
3.8737619e-06
3.8671257e-06
3.8567238e-06
3.8514053e-06
3.8467533e-06
3.8462674e-06
3.8442211e-06
3.8260516e-06
3.7883143e-06
3.7381178e-06
3.70598e-06
3.713515e-06
3.7212128e-06
3.703626e-06
3.6868542e-06
3.7159181e-06
3.7336731e-06
3.7253936e-06
3.7441415e-06
3.7672118e-06
3.7752543e-06
3.7955704e-06
3.8128874e-06
3.8287692e-06
3.8503757e-06
3.8729215e-06
3.8991013e-06
3.9255497e-06
3.9522116e-06
3.9780463e-06
4.0092853e-06
4.034926e-06
4.0124708e-06
3.931151e-06
3.908744e-06
4.0361693e-06
4.2142863e-06
4.3184595e-06
4.3564109e-06
4.4709444e-06
4.6506476e-06
4.7890534e-06
4.8779885e-06
4.9518616e-06
4.9660804e-06
5.0121355e-06
5.125963e-06
5.2289525e-06
5.3062121e-06
5.4393038e-06
5.6607738e-06
5.9814583e-06
6.2929912e-06
6.5383129e-06
6.7175149e-06
6.9134569e-06
7.1510092e-06
7.4118931e-06
7.7569251e-06
1.1079813e-05
8.8992259e-05
0.00042449405
0.00076682137
0.0010059028
0.0011744142
0.0012852582
0.0013499463
0.001378586
0.0013795708
0.0013596027
0.0013239716
0.0012768123
0.0012213358
0.0011600322
0.0010948113
0.0010270754
0.00095820572
0.0008893309
0.00082109757
0.0007541214
0.0006889328
0.00062594808
0.00056548902
0.00050780807
0.00045309829
0.0004014957
0.00035307491
0.00030788258
0.00026592786
0.00022716927
0.00019153783
0.00015895156
0.00012932455
0.00010256092
7.8592464e-05
5.7390796e-05
3.9025109e-05
2.3733898e-05
1.1987382e-05
4.4384892e-06
1.0229916e-06
1.2142428e-07
6.2062507e-09
1.5379171e-09
8.0908221e-06
3.8682261e-06
3.8692909e-06
3.8692794e-06
3.8692764e-06
3.8692762e-06
3.8692761e-06
3.8692762e-06
3.8692762e-06
3.8692762e-06
3.8692762e-06
3.8692762e-06
3.8692762e-06
3.8692762e-06
3.8692762e-06
3.8692762e-06
3.8692762e-06
3.8692762e-06
3.8692762e-06
3.8692763e-06
3.8692768e-06
3.8692788e-06
3.8692835e-06
3.8692909e-06
3.8692966e-06
3.86929e-06
3.8693305e-06
3.8694543e-06
3.8696277e-06
3.8695717e-06
3.8690039e-06
3.8685132e-06
3.8687274e-06
3.8705665e-06
3.8756617e-06
3.8876686e-06
3.909899e-06
3.9322326e-06
3.9296193e-06
3.9014559e-06
3.8782218e-06
3.8826622e-06
3.8914719e-06
3.8781618e-06
3.8695371e-06
3.8739468e-06
3.8675534e-06
3.8571582e-06
3.8517632e-06
3.8471151e-06
3.84653e-06
3.8445761e-06
3.8267248e-06
3.7892378e-06
3.739256e-06
3.7070481e-06
3.7144218e-06
3.7217067e-06
3.7039771e-06
3.6865407e-06
3.7151737e-06
3.7327793e-06
3.7242429e-06
3.7429503e-06
3.7661792e-06
3.7742377e-06
3.7947911e-06
3.8119739e-06
3.827591e-06
3.8492429e-06
3.8717164e-06
3.8979767e-06
3.924393e-06
3.9511149e-06
3.976727e-06
4.0080614e-06
4.0348076e-06
4.0161068e-06
3.9340757e-06
3.9082685e-06
4.0268823e-06
4.2095787e-06
4.3195018e-06
4.3558761e-06
4.4622735e-06
4.6451386e-06
4.7875892e-06
4.877397e-06
4.9502458e-06
4.9692834e-06
5.0185313e-06
5.1328147e-06
5.2313791e-06
5.301323e-06
5.4355155e-06
5.6597428e-06
5.9767929e-06
6.2891429e-06
6.5352974e-06
6.7136134e-06
6.9092045e-06
7.1475435e-06
7.4099186e-06
7.743919e-06
1.0276596e-05
7.3207803e-05
0.00038251854
0.00072726488
0.00096537754
0.0011354227
0.0012483525
0.00131602
0.0013479789
0.0013522939
0.0013355027
0.0013027814
0.0012581928
0.0012049258
0.0011455076
0.0010819516
0.0010158536
0.00094848374
0.00088094276
0.00081390729
0.00074802891
0.00068383541
0.0006217406
0.00056209573
0.00050516119
0.00045113226
0.0004001366
0.00035224195
0.00030748601
0.00026586594
0.00022733205
0.00019181518
0.00015924446
0.00012955592
0.00010270329
7.865927e-05
5.7416846e-05
3.9041554e-05
2.3748076e-05
1.1997387e-05
4.4419943e-06
1.0234635e-06
1.2142731e-07
6.1885203e-09
1.5165736e-09
8.1475723e-06
3.8681886e-06
3.8692905e-06
3.8692793e-06
3.8692764e-06
3.8692762e-06
3.8692761e-06
3.8692762e-06
3.8692762e-06
3.8692762e-06
3.8692762e-06
3.8692762e-06
3.8692762e-06
3.8692762e-06
3.8692762e-06
3.8692762e-06
3.8692762e-06
3.8692762e-06
3.8692762e-06
3.8692763e-06
3.8692768e-06
3.8692787e-06
3.8692835e-06
3.8692909e-06
3.8692969e-06
3.8692899e-06
3.8693303e-06
3.8694538e-06
3.869629e-06
3.8695773e-06
3.8690099e-06
3.8685191e-06
3.8687145e-06
3.8705382e-06
3.8755932e-06
3.8875384e-06
3.9097749e-06
3.9324169e-06
3.9300142e-06
3.9020549e-06
3.8785651e-06
3.8828258e-06
3.8917673e-06
3.8786295e-06
3.8698771e-06
3.8739006e-06
3.8679857e-06
3.8576011e-06
3.8521207e-06
3.8474841e-06
3.8467972e-06
3.8449355e-06
3.8273989e-06
3.790188e-06
3.7404105e-06
3.7081249e-06
3.7152985e-06
3.7224087e-06
3.7043488e-06
3.6862431e-06
3.7144347e-06
3.7319344e-06
3.7231547e-06
3.7417051e-06
3.7650668e-06
3.7731429e-06
3.7939516e-06
3.8110574e-06
3.8264446e-06
3.8481305e-06
3.8704965e-06
3.8968274e-06
3.9232156e-06
3.9500537e-06
3.9754323e-06
4.0068364e-06
4.0346964e-06
4.0200127e-06
3.9383615e-06
3.9084769e-06
4.0170081e-06
4.2037659e-06
4.3205276e-06
4.3551145e-06
4.4535399e-06
4.6386561e-06
4.7854233e-06
4.8767675e-06
4.9486474e-06
4.9723118e-06
5.0245088e-06
5.1394982e-06
5.234514e-06
5.2959194e-06
5.4302656e-06
5.6574529e-06
5.9699573e-06
6.2834688e-06
6.5313541e-06
6.7095583e-06
6.9039633e-06
7.1421172e-06
7.4054481e-06
7.7307682e-06
9.5891539e-06
5.8215338e-05
0.00033818135
0.00068574093
0.00092507533
0.0010964695
0.0012116296
0.0012820804
0.0013172125
0.0013248232
0.0013112568
0.0012815842
0.0012398256
0.0011891571
0.0011320984
0.0010706521
0.0010063938
0.00094052054
0.00087406598
0.00080807865
0.00074319198
0.00067989623
0.00061861854
0.00055970763
0.00050342025
0.00044995101
0.000399426
0.00035190597
0.00030743002
0.00026601257
0.00022762361
0.00019220877
0.00015970398
0.00013004488
0.00010317967
7.9080376e-05
5.7749189e-05
3.9267129e-05
2.3870907e-05
1.2044398e-05
4.4506821e-06
1.023229e-06
1.2120534e-07
6.1447075e-09
1.4765667e-09
8.2066825e-06
3.8681489e-06
3.8692904e-06
3.8692793e-06
3.8692764e-06
3.8692762e-06
3.8692761e-06
3.8692762e-06
3.8692762e-06
3.8692761e-06
3.8692762e-06
3.8692762e-06
3.8692762e-06
3.8692762e-06
3.8692762e-06
3.8692762e-06
3.8692762e-06
3.8692762e-06
3.8692762e-06
3.8692763e-06
3.8692768e-06
3.8692787e-06
3.8692835e-06
3.869291e-06
3.8692971e-06
3.8692897e-06
3.8693301e-06
3.8694532e-06
3.8696303e-06
3.869583e-06
3.8690163e-06
3.8685251e-06
3.8687014e-06
3.8705098e-06
3.8755226e-06
3.8874044e-06
3.9096452e-06
3.9325946e-06
3.9304253e-06
3.9026525e-06
3.8789185e-06
3.8829912e-06
3.8920588e-06
3.8791017e-06
3.8702264e-06
3.8743065e-06
3.8684296e-06
3.8580583e-06
3.8524766e-06
3.8478547e-06
3.8470721e-06
3.8452985e-06
3.828073e-06
3.7911586e-06
3.7415759e-06
3.7092085e-06
3.716144e-06
3.7233406e-06
3.7047399e-06
3.6859872e-06
3.7137017e-06
3.7311285e-06
3.7221422e-06
3.7404307e-06
3.7638702e-06
3.7719634e-06
3.7930282e-06
3.8101315e-06
3.8253344e-06
3.8470468e-06
3.869266e-06
3.8956539e-06
3.9220131e-06
3.949024e-06
3.9741865e-06
4.0056266e-06
4.0345074e-06
4.0240782e-06
3.9442229e-06
3.9093828e-06
4.0067439e-06
4.1967403e-06
4.3215139e-06
4.3541944e-06
4.4452147e-06
4.6310961e-06
4.7824481e-06
4.8762485e-06
4.9472588e-06
4.975292e-06
5.0300985e-06
5.1459929e-06
5.2387008e-06
5.2904895e-06
5.4235362e-06
5.6541427e-06
5.9615344e-06
6.2761164e-06
6.5266033e-06
6.7058304e-06
6.8983183e-06
7.1354711e-06
7.3994847e-06
7.7180713e-06
9.0825107e-06
4.5687998e-05
0.00029466466
0.0006433603
0.00088433282
0.0010568117
0.0011754441
0.001249041
0.0012876119
0.0012986265
0.0012882515
0.0012614566
0.0012222223
0.0011737322
0.0011185463
0.0010587284
0.00099593538
0.00093149821
0.000866477
0.0008017184
0.00073794587
0.00067564423
0.00061525436
0.00055711513
0.00050147995
0.00044854489
0.00039844724
0.00035126558
0.00030705538
0.00026584076
0.00022759995
0.00019228622
0.00015984278
0.00013021113
0.00010334839
7.9236235e-05
5.7882421e-05
3.9370973e-05
2.3941569e-05
1.2082062e-05
4.4645111e-06
1.0261856e-06
1.2151254e-07
6.1436954e-09
1.4603716e-09
8.267513e-06
3.8681074e-06
3.8692904e-06
3.8692792e-06
3.8692764e-06
3.8692762e-06
3.8692761e-06
3.8692762e-06
3.8692762e-06
3.8692761e-06
3.8692762e-06
3.8692762e-06
3.8692762e-06
3.8692762e-06
3.8692762e-06
3.8692762e-06
3.8692762e-06
3.8692762e-06
3.8692762e-06
3.8692763e-06
3.8692768e-06
3.8692787e-06
3.8692834e-06
3.8692909e-06
3.8692974e-06
3.8692896e-06
3.8693299e-06
3.8694526e-06
3.8696316e-06
3.8695886e-06
3.8690233e-06
3.868531e-06
3.8686882e-06
3.8704812e-06
3.8754503e-06
3.8872661e-06
3.9095099e-06
3.9327643e-06
3.9308511e-06
3.9032513e-06
3.8792815e-06
3.8831574e-06
3.892348e-06
3.8795796e-06
3.8705842e-06
3.8745412e-06
3.8688733e-06
3.8585313e-06
3.8528318e-06
3.8482204e-06
3.8473575e-06
3.8456653e-06
3.828743e-06
3.7921408e-06
3.7427471e-06
3.7103009e-06
3.7169566e-06
3.7244761e-06
3.7051625e-06
3.6858057e-06
3.7129753e-06
3.7303508e-06
3.7212136e-06
3.7391527e-06
3.7625919e-06
3.7707066e-06
3.7920025e-06
3.8091928e-06
3.8242604e-06
3.845993e-06
3.8680278e-06
3.8944581e-06
3.920784e-06
3.948018e-06
3.9730081e-06
4.004446e-06
4.034252e-06
4.0281927e-06
3.9502574e-06
3.9108982e-06
3.9963366e-06
4.1883641e-06
4.3223204e-06
4.3533172e-06
4.4376571e-06
4.6224507e-06
4.7784856e-06
4.8759473e-06
4.9463147e-06
4.978241e-06
5.0352549e-06
5.1522478e-06
5.2442584e-06
5.285591e-06
5.4152336e-06
5.6496978e-06
5.9520348e-06
6.2671311e-06
6.5209763e-06
6.7026299e-06
6.8926433e-06
7.1279626e-06
7.3919868e-06
7.7044633e-06
8.7061198e-06
3.5157327e-05
0.00025150513
0.00059959415
0.00084393492
0.0010184334
0.001139407
0.0012161987
0.0012580698
0.0012724486
0.0012653381
0.0012415882
0.0012051159
0.0011590765
0.001106027
0.0010480491
0.00098683129
0.00092374364
0.00085988899
0.00079614028
0.0007332184
0.00067175112
0.00061212896
0.00055469605
0.00049970605
0.00044735227
0.00039776592
0.00035101963
0.00030716373
0.00026621942
0.00022816575
0.00019296183
0.00016056063
0.00013091884
0.00010400444
7.9804661e-05
5.8338665e-05
3.970483e-05
2.4159696e-05
1.220146e-05
4.5120171e-06
1.0375383e-06
1.2285261e-07
6.1916903e-09
1.4521557e-09
8.3304439e-06
3.8680639e-06
3.8692905e-06
3.869279e-06
3.8692764e-06
3.8692762e-06
3.8692761e-06
3.8692762e-06
3.8692762e-06
3.8692761e-06
3.8692762e-06
3.8692762e-06
3.8692762e-06
3.8692762e-06
3.8692762e-06
3.8692762e-06
3.8692762e-06
3.8692762e-06
3.8692762e-06
3.8692763e-06
3.8692768e-06
3.8692787e-06
3.8692834e-06
3.869291e-06
3.8692976e-06
3.8692895e-06
3.8693297e-06
3.8694519e-06
3.8696328e-06
3.8695945e-06
3.8690309e-06
3.8685366e-06
3.8686751e-06
3.8704522e-06
3.8753763e-06
3.8871237e-06
3.9093687e-06
3.9329239e-06
3.9312915e-06
3.9038529e-06
3.8796533e-06
3.8833242e-06
3.892636e-06
3.8800644e-06
3.8709485e-06
3.8748125e-06
3.8691765e-06
3.8590153e-06
3.8531893e-06
3.8485764e-06
3.8476538e-06
3.8460376e-06
3.8294076e-06
3.7931342e-06
3.7439234e-06
3.7114061e-06
3.7177344e-06
3.7257571e-06
3.7056414e-06
3.6857345e-06
3.7122587e-06
3.7295953e-06
3.7203708e-06
3.7378898e-06
3.7612439e-06
3.7693906e-06
3.7908649e-06
3.8082386e-06
3.8232153e-06
3.8449649e-06
3.866784e-06
3.893243e-06
3.9195319e-06
3.9470256e-06
3.9719084e-06
4.0033081e-06
4.0339273e-06
4.0322951e-06
3.9566946e-06
3.912873e-06
3.9861318e-06
4.1785119e-06
4.3224825e-06
4.3529155e-06
4.4310427e-06
4.6128118e-06
4.7734341e-06
4.8759089e-06
4.9459453e-06
4.9811011e-06
5.0399379e-06
5.1582307e-06
5.2512984e-06
5.2818055e-06
5.4054146e-06
5.6438169e-06
5.9419619e-06
6.2566431e-06
6.5143722e-06
6.7000632e-06
6.8873031e-06
7.1200469e-06
7.383776e-06
7.6913186e-06
8.4505234e-06
2.7073611e-05
0.00021084349
0.00055499923
0.00080423443
0.00098048608
0.0011033285
0.0011843876
0.001229682
0.0012473969
0.0012434544
0.0012225954
0.001188704
0.0011449319
0.0010938535
0.0010375818
0.00097784318
0.00091604588
0.00085332881
0.00079060548
0.00072859768
0.00066793472
0.00060904328
0.00055226664
0.00049786428
0.0004460331
0.00039690211
0.00035054531
0.00030701496
0.0002663349
0.00022848584
0.00019343061
0.00016112099
0.00013150336
0.00010455635
8.0291886e-05
5.8743087e-05
4.0016993e-05
2.4375563e-05
1.2325832e-05
4.5637606e-06
1.0502959e-06
1.243831e-07
6.2505979e-09
1.4475236e-09
8.3953707e-06
3.8680185e-06
3.8692903e-06
3.8692789e-06
3.8692764e-06
3.8692762e-06
3.8692761e-06
3.8692762e-06
3.8692762e-06
3.8692761e-06
3.8692762e-06
3.8692762e-06
3.8692762e-06
3.8692762e-06
3.8692762e-06
3.8692762e-06
3.8692762e-06
3.8692762e-06
3.8692762e-06
3.8692763e-06
3.8692768e-06
3.8692786e-06
3.8692834e-06
3.869291e-06
3.8692977e-06
3.8692895e-06
3.8693295e-06
3.8694513e-06
3.8696341e-06
3.8696003e-06
3.8690391e-06
3.8685421e-06
3.8686621e-06
3.8704228e-06
3.8753005e-06
3.8869771e-06
3.9092221e-06
3.9330703e-06
3.931748e-06
3.9044583e-06
3.8800339e-06
3.8834921e-06
3.8929237e-06
3.8805568e-06
3.8713178e-06
3.8750825e-06
3.8693274e-06
3.8595091e-06
3.8535536e-06
3.8489231e-06
3.8479569e-06
3.8464194e-06
3.8300681e-06
3.7941629e-06
3.7451051e-06
3.7125275e-06
3.7184765e-06
3.7271161e-06
3.7062089e-06
3.6858017e-06
3.7115602e-06
3.7288612e-06
3.7196124e-06
3.7366477e-06
3.7598477e-06
3.7680395e-06
3.7896176e-06
3.8072673e-06
3.8221866e-06
3.8439547e-06
3.8655353e-06
3.89201e-06
3.9182626e-06
3.9460342e-06
3.9708885e-06
4.0022196e-06
4.0335309e-06
4.0363472e-06
3.9639197e-06
3.9151281e-06
3.9765218e-06
4.1671234e-06
4.3208587e-06
4.3532917e-06
4.4254001e-06
4.602331e-06
4.7672364e-06
4.876037e-06
4.946096e-06
4.9838027e-06
5.0440599e-06
5.1638545e-06
5.2595008e-06
5.2795971e-06
5.3943327e-06
5.6358304e-06
5.9316049e-06
6.2447815e-06
6.5066165e-06
6.6980439e-06
6.8825407e-06
7.1119788e-06
7.3747864e-06
7.6776878e-06
8.2728153e-06
2.0897058e-05
0.00017258911
0.00050907689
0.00076510832
0.00094345366
0.0010687833
0.0011522787
0.0012014961
0.0012226097
0.0012218649
0.0012039475
0.0011727052
0.0011312719
0.0010822241
0.0010276934
0.00096943762
0.00090890434
0.00084727397
0.00078549901
0.00072433975
0.00066437185
0.00060617349
0.00055002051
0.00049618524
0.0004448672
0.00039618861
0.00035021954
0.00030700974
0.0002665858
0.00022892484
0.00019397503
0.00016169849
0.00013207583
0.00010509866
8.0779935e-05
5.9157316e-05
4.034389e-05
2.4608225e-05
1.2465115e-05
4.6243123e-06
1.0658085e-06
1.2629211e-07
6.3326213e-09
1.451613e-09
8.4624422e-06
3.8679712e-06
3.8692898e-06
3.8692789e-06
3.8692764e-06
3.8692762e-06
3.8692761e-06
3.8692762e-06
3.8692762e-06
3.8692762e-06
3.8692762e-06
3.8692762e-06
3.8692762e-06
3.8692762e-06
3.8692762e-06
3.8692762e-06
3.8692762e-06
3.8692762e-06
3.8692762e-06
3.8692763e-06
3.8692768e-06
3.8692786e-06
3.8692834e-06
3.869291e-06
3.8692979e-06
3.8692895e-06
3.8693293e-06
3.8694506e-06
3.8696352e-06
3.8696063e-06
3.8690477e-06
3.8685476e-06
3.868649e-06
3.8703931e-06
3.8752229e-06
3.8868265e-06
3.9090704e-06
3.9331987e-06
3.9322234e-06
3.9050685e-06
3.8804242e-06
3.883662e-06
3.8932117e-06
3.8810562e-06
3.8716927e-06
3.8753605e-06
3.8700498e-06
3.8600153e-06
3.8539274e-06
3.8492651e-06
3.848258e-06
3.8468123e-06
3.8307289e-06
3.7952318e-06
3.7462941e-06
3.7136672e-06
3.7191857e-06
3.728495e-06
3.7068981e-06
3.6860203e-06
3.7108901e-06
3.7281544e-06
3.7189324e-06
3.7354243e-06
3.7584271e-06
3.766678e-06
3.7882744e-06
3.8062748e-06
3.8211604e-06
3.8429507e-06
3.8642828e-06
3.8907611e-06
3.9169847e-06
3.9450335e-06
3.9699433e-06
4.0011834e-06
4.0330724e-06
4.0402683e-06
3.9719773e-06
3.9175197e-06
3.967928e-06
4.1543321e-06
4.3166791e-06
4.3543618e-06
4.4208285e-06
4.590893e-06
4.7595624e-06
4.876175e-06
4.9465765e-06
4.9863368e-06
5.0475724e-06
5.1690394e-06
5.2682371e-06
5.2793952e-06
5.3826272e-06
5.6248988e-06
5.9211727e-06
6.231827e-06
6.4975939e-06
6.6963485e-06
6.8785072e-06
7.1042002e-06
7.3658762e-06
7.6646252e-06
8.1565275e-06
1.651926e-05
0.00013819119
0.00046214539
0.00072665414
0.00090745342
0.001034976
0.001120831
0.001173837
0.0011987242
0.0012011792
0.0011861321
0.0011574347
0.0011182257
0.001071101
0.0010182206
0.00096137644
0.00090205283
0.00084146657
0.00078060317
0.00072025371
0.00066103678
0.00060339846
0.00054783509
0.00049452293
0.00044367607
0.00039542053
0.00034981961
0.00030691398
0.00026671363
0.00022920277
0.00019436144
0.00016216119
0.00013257663
0.00010559991
8.1248308e-05
5.9565942e-05
4.0673367e-05
2.4846993e-05
1.2610435e-05
4.6884634e-06
1.0824367e-06
1.2835243e-07
6.4232719e-09
1.4584655e-09
8.5316621e-06
3.8679211e-06
3.8692895e-06
3.8692789e-06
3.8692764e-06
3.8692762e-06
3.8692761e-06
3.8692762e-06
3.8692762e-06
3.8692762e-06
3.8692762e-06
3.8692762e-06
3.8692762e-06
3.8692762e-06
3.8692762e-06
3.8692762e-06
3.8692762e-06
3.8692762e-06
3.8692762e-06
3.8692763e-06
3.8692768e-06
3.8692786e-06
3.8692833e-06
3.869291e-06
3.8692981e-06
3.8692895e-06
3.869329e-06
3.86945e-06
3.8696363e-06
3.8696123e-06
3.8690565e-06
3.8685531e-06
3.8686359e-06
3.870363e-06
3.8751433e-06
3.8866723e-06
3.9089134e-06
3.9333019e-06
3.9327234e-06
3.9056846e-06
3.8808249e-06
3.8838341e-06
3.8935002e-06
3.8815611e-06
3.8720744e-06
3.8756416e-06
3.8704699e-06
3.8605336e-06
3.8543113e-06
3.8496104e-06
3.8485492e-06
3.8472097e-06
3.8313986e-06
3.7963262e-06
3.7474943e-06
3.7148261e-06
3.7198715e-06
3.7298537e-06
3.7077324e-06
3.6863875e-06
3.7102588e-06
3.7274828e-06
3.7183243e-06
3.7342158e-06
3.7570048e-06
3.7653257e-06
3.7868558e-06
3.8052542e-06
3.820125e-06
3.8419398e-06
3.8630264e-06
3.8894946e-06
3.9157057e-06
3.9440157e-06
3.969062e-06
4.0001956e-06
4.0325559e-06
4.0439669e-06
3.9808746e-06
3.919989e-06
3.9606929e-06
4.1404466e-06
4.3105233e-06
4.3558088e-06
4.4173523e-06
4.5789565e-06
4.7513934e-06
4.8762361e-06
4.9471864e-06
4.9887292e-06
5.050448e-06
5.1736407e-06
5.2808165e-06
5.2815982e-06
5.3711759e-06
5.6099906e-06
5.9105936e-06
6.2180998e-06
6.487263e-06
6.6946168e-06
6.8752199e-06
7.0970421e-06
7.3568753e-06
7.6514852e-06
8.0770272e-06
1.3455394e-05
0.00010775467
0.00041411968
0.00068842294
0.00087217273
0.0010022098
0.0010908645
0.0011462172
0.001174675
0.001180543
0.0011684855
0.0011423504
0.0011053203
0.001060046
0.0010087448
0.00095326177
0.00089512597
0.00083558729
0.00077565422
0.00071613356
0.00065765684
0.00060070463
0.00054564917
0.00049284008
0.00044241781
0.00039452924
0.00034923979
0.00030660026
0.00026663367
0.00022932459
0.00019464175
0.00016255325
0.00013303444
0.00010608086
8.1714968e-05
5.9987106e-05
4.1024492e-05
2.5110365e-05
1.2776466e-05
4.7642002e-06
1.1025567e-06
1.3088165e-07
6.5400155e-09
1.4731355e-09
8.6031575e-06
3.8678689e-06
3.8692893e-06
3.8692788e-06
3.8692764e-06
3.8692762e-06
3.8692761e-06
3.8692762e-06
3.8692762e-06
3.8692762e-06
3.8692762e-06
3.8692762e-06
3.8692762e-06
3.8692762e-06
3.8692762e-06
3.8692762e-06
3.8692762e-06
3.8692762e-06