/*--------------------------------*- C++ -*----------------------------------*\
| =========                 |                                                 |
| \\      /  F ield         | OpenFOAM: The Open Source CFD Toolbox           |
|  \\    /   O peration     | Version:  2506                                  |
|   \\  /    A nd           | Website:  www.openfoam.com                      |
|    \\/     M anipulation  |                                                 |
\*---------------------------------------------------------------------------*/
FoamFile
{
    version     2.0;
    format      ascii;
    arch        "LSB;label=32;scalar=64";
    class       volScalarField;
    location    "0.0105";
    object      alphat;
}
// * * * * * * * * * * * * * * * * * * * * * * * * * * * * * * * * * * * * * //

dimensions      [1 -1 -1 0 0 0 0];

internalField   nonuniform List<scalar> 
13761
(
2.4230222e-06
2.4255499e-06
2.4143619e-06
2.4055048e-06
2.398925e-06
2.381243e-06
2.369385e-06
2.3660719e-06
2.3567823e-06
2.3491731e-06
2.3485626e-06
2.3481137e-06
2.3364525e-06
2.3076691e-06
2.2662639e-06
2.2245254e-06
2.2081138e-06
2.2203273e-06
2.2369649e-06
2.2422607e-06
2.2350353e-06
2.2341383e-06
2.2465925e-06
2.2695888e-06
2.2862567e-06
2.3060697e-06
2.3470375e-06
2.3833832e-06
2.4105992e-06
2.4359731e-06
2.4383652e-06
2.424421e-06
2.3672968e-06
2.2173863e-06
2.0908462e-06
2.0618919e-06
2.1748451e-06
2.2831761e-06
2.2769684e-06
2.2087468e-06
2.2278426e-06
2.2906024e-06
2.3324339e-06
2.3494924e-06
2.371368e-06
2.3758214e-06
2.3603586e-06
2.3578755e-06
2.3748582e-06
2.3980857e-06
2.4146492e-06
2.4291323e-06
2.4599243e-06
2.5119781e-06
2.5851085e-06
2.6552482e-06
2.7130616e-06
2.7455917e-06
2.8345433e-06
4.6597926e-06
0.00013936507
0.00041867582
0.00063133852
0.00079064982
0.00090785968
0.00099162982
0.0010475778
0.0010802782
0.0010932187
0.0010888162
0.0010716611
0.0010446532
0.0010092299
0.00096735713
0.0009210226
0.00087156909
0.00081993882
0.00076715834
0.00071393351
0.00066096531
0.00060882897
0.00055798852
0.00050881472
0.000461595
0.00041653024
0.0003737141
0.00033324112
0.00029512897
0.00025935512
0.00022583325
0.00019441988
0.00016495909
0.00013734057
0.00011155508
8.7734522e-05
6.614314e-05
4.7137304e-05
3.1108834e-05
1.837995e-05
9.1262645e-06
3.3908012e-06
7.9592836e-07
9.6189837e-08
5.1393556e-09
1.4630075e-09
2.4227612e-06
2.4254557e-06
2.4143867e-06
2.4054985e-06
2.3990214e-06
2.3813624e-06
2.3692889e-06
2.3660285e-06
2.3567168e-06
2.3492465e-06
2.3485261e-06
2.3478241e-06
2.3356842e-06
2.3054027e-06
2.2616258e-06
2.216646e-06
2.1961811e-06
2.2040257e-06
2.2147578e-06
2.2148123e-06
2.2022088e-06
2.1954396e-06
2.2010029e-06
2.2158935e-06
2.2240645e-06
2.2347049e-06
2.2646981e-06
2.2890258e-06
2.3014177e-06
2.317727e-06
2.3373455e-06
2.3538371e-06
2.3392944e-06
2.2405643e-06
2.1281358e-06
2.0981729e-06
2.2044325e-06
2.3140539e-06
2.3047751e-06
2.227279e-06
2.2443468e-06
2.3073968e-06
2.3507488e-06
2.36792e-06
2.3884384e-06
2.3924193e-06
2.3773038e-06
2.3743655e-06
2.3904111e-06
2.4133183e-06
2.4301939e-06
2.4446399e-06
2.4757599e-06
2.528262e-06
2.6005631e-06
2.66833e-06
2.7213294e-06
2.7526231e-06
2.9687333e-06
1.6051465e-05
0.00016892583
0.00044625348
0.0006541627
0.0008055593
0.00091586636
0.00099303876
0.0010426739
0.0010693098
0.0010770906
0.0010693606
0.0010491462
0.0010190171
0.00098113941
0.00093735175
0.00088920916
0.00083801853
0.00078497721
0.00073104921
0.00067698948
0.00062347229
0.0005710517
0.00052017362
0.00047119636
0.0004244031
0.00038001162
0.00033823136
0.00029912803
0.00026270499
0.00022891937
0.00019768752
0.00016887514
0.00014232618
0.00011789186
9.5485444e-05
7.509766e-05
5.6819628e-05
4.0782952e-05
2.7153668e-05
1.6117846e-05
7.9167377e-06
2.8407348e-06
6.3683821e-07
7.4288965e-08
3.6560821e-09
7.8814557e-10
2.4253586e-06
2.4143973e-06
2.4054675e-06
2.3991024e-06
2.3814853e-06
2.3692168e-06
2.3660062e-06
2.3569029e-06
2.3493576e-06
2.3486398e-06
2.3480454e-06
2.3361736e-06
2.3057982e-06
2.261728e-06
2.2162005e-06
2.1949447e-06
2.2021976e-06
2.2110392e-06
2.209967e-06
2.1960136e-06
2.1877846e-06
2.1913619e-06
2.2039749e-06
2.2099321e-06
2.2181145e-06
2.2448156e-06
2.2648937e-06
2.2717424e-06
2.2809954e-06
2.2922556e-06
2.3016535e-06
2.2846304e-06
2.186809e-06
2.0788024e-06
2.0557936e-06
2.1601505e-06
2.2903591e-06
2.3046384e-06
2.2392996e-06
2.2550267e-06
2.3183237e-06
2.3647006e-06
2.3816887e-06
2.3981411e-06
2.4018802e-06
2.3867565e-06
2.3814074e-06
2.3970571e-06
2.4212574e-06
2.4398917e-06
2.4547522e-06
2.4847864e-06
2.5353987e-06
2.6053742e-06
2.6719142e-06
2.723237e-06
2.7516798e-06
2.9136352e-06
1.3767242e-05
0.00015236178
0.00044098978
0.00064853645
0.00079803849
0.0009070038
0.00098318242
0.0010322458
0.0010589287
0.0010666393
0.0010587922
0.0010384253
0.0010082127
0.00097030498
0.00092652341
0.00087851637
0.00082764392
0.00077504317
0.00072164207
0.00066819791
0.00061535599
0.00056364698
0.00051349649
0.00046525016
0.00041918011
0.00037548658
0.00033431228
0.0002957416
0.00025979309
0.00022644344
0.00019561022
0.00016717129
0.00014098047
0.00011689601
9.4793971e-05
7.4629748e-05
5.6456645e-05
4.0442552e-05
2.6818796e-05
1.5824107e-05
7.7250966e-06
2.7635012e-06
6.2024255e-07
7.2626351e-08
3.6495124e-09
8.5643216e-10
2.4252984e-06
2.4144119e-06
2.4054425e-06
2.3991654e-06
2.3816311e-06
2.36919e-06
2.3660829e-06
2.357178e-06
2.3496967e-06
2.3488621e-06
2.3483341e-06
2.3367149e-06
2.3065551e-06
2.2627402e-06
2.2171785e-06
2.1954471e-06
2.2022241e-06
2.2101467e-06
2.2086431e-06
2.1941138e-06
2.1854001e-06
2.1881315e-06
2.1998718e-06
2.2052904e-06
2.2131408e-06
2.2395649e-06
2.2593295e-06
2.2654106e-06
2.2732633e-06
2.2821394e-06
2.2890783e-06
2.2715264e-06
2.1757378e-06
2.06187e-06
2.0319686e-06
2.1225876e-06
2.2530314e-06
2.2739301e-06
2.2152507e-06
2.2293471e-06
2.2956799e-06
2.351279e-06
2.3759332e-06
2.3938996e-06
2.4029909e-06
2.3934422e-06
2.3870899e-06
2.3999333e-06
2.4236438e-06
2.4438312e-06
2.4593313e-06
2.4884684e-06
2.537945e-06
2.6057457e-06
2.6715234e-06
2.7220304e-06
2.7483712e-06
2.8765731e-06
1.1102351e-05
0.0001336835
0.00040787457
0.00062325059
0.00077493093
0.00088646997
0.00096545277
0.0010168633
0.0010445497
0.0010527873
0.0010455802
0.0010260661
0.0009967643
0.00095982994
0.00091708935
0.00087018264
0.00082042907
0.00076891458
0.00071657067
0.00066410574
0.00061215143
0.0005612297
0.00051175942
0.00046407981
0.0004184574
0.0003750914
0.00033413028
0.00029566905
0.00025974557
0.00022636909
0.00019551409
0.00016708454
0.00014094465
0.00011695582
9.5002379e-05
7.5021423e-05
5.7023885e-05
4.1088241e-05
2.7388722e-05
1.6212955e-05
7.91744e-06
2.8236193e-06
6.3064524e-07
7.3549445e-08
3.5981816e-09
7.4839358e-10
2.4253009e-06
2.4144381e-06
2.4054378e-06
2.3992448e-06
2.3818146e-06
2.3692281e-06
2.3662424e-06
2.3575607e-06
2.3500361e-06
2.3492796e-06
2.348793e-06
2.3375013e-06
2.3074457e-06
2.2637626e-06
2.2181644e-06
2.1960291e-06
2.2027664e-06
2.2096941e-06
2.207811e-06
2.1928211e-06
2.1838189e-06
2.1858589e-06
2.196898e-06
2.2019971e-06
2.2098024e-06
2.2364034e-06
2.2566263e-06
2.263032e-06
2.2711051e-06
2.279728e-06
2.286577e-06
2.2706848e-06
2.178152e-06
2.0606285e-06
2.0263508e-06
2.1049586e-06
2.2364173e-06
2.2598887e-06
2.2051789e-06
2.2132733e-06
2.27795e-06
2.3373164e-06
2.3658873e-06
2.383706e-06
2.3959478e-06
2.3904089e-06
2.3848217e-06
2.3965079e-06
2.4215387e-06
2.4445335e-06
2.4613742e-06
2.4892125e-06
2.5372634e-06
2.6025881e-06
2.6677189e-06
2.7179975e-06
2.7431898e-06
2.8368825e-06
8.6972033e-06
0.00011331919
0.00038117744
0.00060215895
0.00075496217
0.00086689254
0.00094613399
0.00099818627
0.0010276058
0.0010380366
0.0010326052
0.0010142015
0.00098556672
0.00094923386
0.00090726699
0.0008610745
0.00081201591
0.00076123308
0.0007096482
0.00065796043
0.0006067758
0.0005565962
0.00050782703
0.00046079629
0.00041575877
0.00037290505
0.00033237865
0.0002942733
0.00025862844
0.00022545568
0.00019472725
0.00016636619
0.00014026694
0.0001163114
9.4398665e-05
7.4471361e-05
5.6540693e-05
4.0699291e-05
2.7121985e-05
1.606079e-05
7.8487489e-06
2.8014686e-06
6.2615424e-07
7.3066014e-08
3.5692796e-09
7.3546951e-10
2.4253696e-06
2.4145001e-06
2.405468e-06
2.3993607e-06
2.3820672e-06
2.3693476e-06
2.3664897e-06
2.3580105e-06
2.3504684e-06
2.3497383e-06
2.349374e-06
2.3383915e-06
2.3085146e-06
2.2649496e-06
2.219266e-06
2.1966661e-06
2.2032718e-06
2.2095095e-06
2.2071263e-06
2.191706e-06
2.1824133e-06
2.183762e-06
2.1940918e-06
2.1987645e-06
2.2061899e-06
2.2326981e-06
2.2536183e-06
2.2606179e-06
2.2695211e-06
2.2782493e-06
2.2859296e-06
2.2729674e-06
2.1874999e-06
2.0668317e-06
2.0258785e-06
2.0886308e-06
2.2240805e-06
2.2551264e-06
2.2037059e-06
2.2067122e-06
2.2689603e-06
2.330562e-06
2.3610196e-06
2.3783959e-06
2.3927999e-06
2.3897693e-06
2.3838361e-06
2.3943608e-06
2.4195095e-06
2.444337e-06
2.4629942e-06
2.4897609e-06
2.5356594e-06
2.5979173e-06
2.662137e-06
2.7127495e-06
2.7377294e-06
2.8031922e-06
6.6154184e-06
8.995261e-05
0.0003431787
0.00057219134
0.00072653937
0.00084113951
0.00092278235
0.00097692356
0.001008046
0.0010200529
0.0010163417
0.00099990008
0.00097329402
0.00093873052
0.00089810909
0.00085321283
0.00080530927
0.00075553044
0.00070482264
0.00065393843
0.00060349478
0.0005539933
0.00050584078
0.00045936059
0.00041479561
0.00037232935
0.00033210351
0.00029421281
0.00025870336
0.00022560052
0.00019489695
0.0001665428
0.00014046104
0.0001165534
9.4713764e-05
7.4867564e-05
5.6997237e-05
4.1159915e-05
2.7512915e-05
1.6334389e-05
7.9977926e-06
2.8575352e-06
6.3871105e-07
7.4504831e-08
3.5958122e-09
6.942324e-10
2.4254322e-06
2.4146083e-06
2.4055644e-06
2.3995311e-06
2.3823963e-06
2.36956e-06
2.3668165e-06
2.3584896e-06
2.3509683e-06
2.3502788e-06
2.3500103e-06
2.339287e-06
2.3095938e-06
2.266212e-06
2.2205266e-06
2.1975026e-06
2.2039458e-06
2.2097355e-06
2.2065418e-06
2.190715e-06
2.1812155e-06
2.1819299e-06
2.1915639e-06
2.1957906e-06
2.2027455e-06
2.2290756e-06
2.2505563e-06
2.2582074e-06
2.267647e-06
2.2765384e-06
2.2850759e-06
2.2752583e-06
2.1970137e-06
2.0742459e-06
2.0272474e-06
2.0767966e-06
2.2119024e-06
2.2502435e-06
2.2078541e-06
2.2021137e-06
2.2606955e-06
2.3251716e-06
2.3590841e-06
2.3759517e-06
2.3919865e-06
2.3927138e-06
2.3875369e-06
2.3959895e-06
2.4200287e-06
2.4469963e-06
2.4672357e-06
2.4919854e-06
2.5359077e-06
2.5952373e-06
2.6581197e-06
2.7086307e-06
2.732967e-06
2.7816493e-06
5.2501079e-06
7.1014721e-05
0.0003074672
0.00054291593
0.00069971658
0.00081649643
0.00089989734
0.00095582402
0.00098876233
0.0010025332
0.0010004964
0.0009856091
0.00096045876
0.00092729288
0.00088803651
0.00084427368
0.0007974506
0.00074867091
0.00069887751
0.00064883086
0.00059915235
0.00055035629
0.00050283926
0.00045691855
0.00041285308
0.0003708325
0.00033099501
0.00029343073
0.00025818408
0.00022527949
0.00019470956
0.00016642562
0.00014035538
0.00011641854
9.4540306e-05
7.4672584e-05
5.6812064e-05
4.1010473e-05
2.7414293e-05
1.6283464e-05
7.9776961e-06
2.8516359e-06
6.3748853e-07
7.4361313e-08
3.5784985e-09
6.7959548e-10
2.4147855e-06
2.4057478e-06
2.3997792e-06
2.3828114e-06
2.3698599e-06
2.3672005e-06
2.3590121e-06
2.3515224e-06
2.3508596e-06
2.3506871e-06
2.3402038e-06
2.3107346e-06
2.2675426e-06
2.2218497e-06
2.1983781e-06
2.2046605e-06
2.2101502e-06
2.2061607e-06
2.1899822e-06
2.1802377e-06
2.1804319e-06
2.1893999e-06
2.1931379e-06
2.1995e-06
2.2254704e-06
2.2475319e-06
2.2558666e-06
2.2660275e-06
2.2753174e-06
2.2845621e-06
2.2775414e-06
2.2069949e-06
2.0829201e-06
2.029372e-06
2.0658025e-06
2.199808e-06
2.2469194e-06
2.2135465e-06
2.2000964e-06
2.2551706e-06
2.3206873e-06
2.3591531e-06
2.3764725e-06
2.394905e-06
2.398915e-06
2.3938689e-06
2.3996902e-06
2.422232e-06
2.4499782e-06
2.4723206e-06
2.4967837e-06
2.538397e-06
2.5949769e-06
2.656323e-06
2.7072451e-06
2.7325954e-06
2.7670518e-06
4.2306217e-06
5.2765447e-05
0.0002684937
0.00051015044
0.00067085071
0.0007899208
0.00087567958
0.00093388262
0.00096899339
0.00098482428
0.00098471502
0.00097160703
0.00094808252
0.00091638667
0.00087845467
0.0008359435
0.00079024358
0.00074250482
0.0006936764
0.00064452854
0.00059567989
0.00054763445
0.00050079161
0.00045547018
0.00041192021
0.00037032658
0.00033083136
0.00029353195
0.00025847789
0.00022569927
0.00019520015
0.00016694652
0.00014088003
0.0001169305
9.5026607e-05
7.5119258e-05
5.7204358e-05
4.1338377e-05
2.766859e-05
1.6454061e-05
8.0700131e-06
2.8870641e-06
6.4566252e-07
7.5314581e-08
3.6039663e-09
6.6240891e-10
2.415043e-06
2.4060213e-06
2.4001201e-06
2.3833196e-06
2.3702377e-06
2.3676115e-06
2.3595831e-06
2.3521331e-06
2.3514782e-06
2.3513803e-06
2.3411092e-06
2.3118922e-06
2.2688818e-06
2.2232025e-06
2.1992711e-06
2.2053655e-06
2.2106301e-06
2.205804e-06
2.1894029e-06
2.1794449e-06
2.1790922e-06
2.1874129e-06
2.1906455e-06
2.1963319e-06
2.2218003e-06
2.2443796e-06
2.2533808e-06
2.264162e-06
2.2740604e-06
2.2840409e-06
2.2796578e-06
2.2172052e-06
2.0931174e-06
2.0321521e-06
2.0559186e-06
2.1858982e-06
2.2425624e-06
2.2192652e-06
2.1989528e-06
2.2504805e-06
2.3162879e-06
2.3579548e-06
2.3777464e-06
2.3979145e-06
2.4055272e-06
2.4016257e-06
2.4058976e-06
2.4265658e-06
2.4546269e-06
2.4790087e-06
2.5033914e-06
2.5425875e-06
2.5966418e-06
2.656182e-06
2.7071211e-06
2.7333913e-06
2.7609349e-06
3.6425274e-06
3.893208e-05
0.00023200175
0.00047719893
0.00064243474
0.00076404937
0.0008519935
0.00091224863
0.00094935832
0.00096712923
0.00096887517
0.00095751033
0.00093559704
0.00090536894
0.00086875726
0.000827418
0.00078278998
0.00073600475
0.00068805147
0.00063970995
0.00059161167
0.00054426598
0.00049807377
0.00045334962
0.00041033678
0.00036921353
0.00033011537
0.0002931344
0.0002583205
0.00022570874
0.0001953111
0.00016710471
0.00014104473
0.00011707571
9.5142498e-05
7.5209271e-05
5.7277705e-05
4.1400405e-05
2.7719429e-05
1.6492714e-05
8.0933581e-06
2.896398e-06
6.4772765e-07
7.5538818e-08
3.6044402e-09
6.5191467e-10
2.4154078e-06
2.4063753e-06
2.4005435e-06
2.383916e-06
2.3706778e-06
2.3680486e-06
2.3602181e-06
2.3527962e-06
2.3521199e-06
2.3520686e-06
2.3419839e-06
2.3130483e-06
2.2702302e-06
2.2245669e-06
2.2001524e-06
2.2060419e-06
2.211175e-06
2.2054736e-06
2.1889245e-06
2.1787382e-06
2.1778749e-06
2.1855719e-06
2.1882893e-06
2.1932416e-06
2.218047e-06
2.241053e-06
2.2507042e-06
2.2621751e-06
2.2727603e-06
2.283463e-06
2.2816442e-06
2.2274024e-06
2.1051255e-06
2.0357518e-06
2.0479216e-06
2.1712173e-06
2.2374146e-06
2.2246557e-06
2.1988993e-06
2.246409e-06
2.3112281e-06
2.3564468e-06
2.3795163e-06
2.4016298e-06
2.4128418e-06
2.4103848e-06
2.4132887e-06
2.4318964e-06
2.4596481e-06
2.4858993e-06
2.510904e-06
2.5479206e-06
2.5996412e-06
2.6572818e-06
2.7082055e-06
2.7357742e-06
2.7580705e-06
3.2583487e-06
2.737485e-05
0.00019558959
0.00044210705
0.00061345943
0.00073781008
0.00082826704
0.00089083587
0.00093013187
0.00094995038
0.0009535964
0.00094397843
0.00092365742
0.00089487217
0.00085956352
0.00081940146
0.00077579704
0.00072994938
0.00068284896
0.000635291
0.00058791307
0.00054123121
0.00049564993
0.00045148474
0.00040897782
0.00036830547
0.00032960113
0.00029295564
0.00025841849
0.00022602555
0.00019579022
0.00016769255
0.00014169277
0.00011774196
9.5791479e-05
7.5811563e-05
5.7811122e-05
4.1844927e-05
2.8060735e-05
1.6725968e-05
8.2263222e-06
2.9513339e-06
6.6125761e-07
7.7176287e-08
3.670057e-09
6.4945986e-10
2.4158637e-06
2.4067873e-06
2.4010301e-06
2.3845776e-06
2.3711574e-06
2.3685343e-06
2.3609234e-06
2.3535164e-06
2.3527871e-06
2.3527459e-06
2.3428248e-06
2.3141882e-06
2.2715775e-06
2.225938e-06
2.2010172e-06
2.2066809e-06
2.2117748e-06
2.2051535e-06
2.1885215e-06
2.1781128e-06
2.1767532e-06
2.1838526e-06
2.1860562e-06
2.1902226e-06
2.2142105e-06
2.2375444e-06
2.2478403e-06
2.2598101e-06
2.271268e-06
2.2827166e-06
2.2834484e-06
2.2371783e-06
2.1186949e-06
2.0401066e-06
2.04236e-06
2.1555385e-06
2.2311025e-06
2.2293726e-06
2.2000127e-06
2.2427295e-06
2.3055893e-06
2.3537312e-06
2.3811517e-06
2.405367e-06
2.4204919e-06
2.419863e-06
2.4220137e-06
2.4383472e-06
2.4650667e-06
2.49275e-06
2.518977e-06
2.5543951e-06
2.603779e-06
2.6595122e-06
2.7100549e-06
2.7391707e-06
2.759313e-06
3.0484762e-06
1.9064308e-05
0.00016193969
0.00040620174
0.00058467564
0.00071160761
0.00080465246
0.00086947796
0.00091092427
0.00093278315
0.0009383465
0.0009305039
0.00091180247
0.00088447546
0.00085046351
0.00081144022
0.00076884547
0.00072390866
0.00067761715
0.0006307967
0.00058409443
0.000538037
0.00049303342
0.00044940018
0.00040737893
0.00036714386
0.00032882582
0.00029251306
0.00025825384
0.00022608381
0.00019601875
0.0001680425
0.00014212078
0.000118211
9.6271657e-05
7.6271164e-05
5.8217127e-05
4.2180061e-05
2.8317503e-05
1.6902902e-05
8.328008e-06
2.9934215e-06
6.7155017e-07
7.8408631e-08
3.7189736e-09
6.4750258e-10
2.4072245e-06
2.4015614e-06
2.3852827e-06
2.3716627e-06
2.3690711e-06
2.3616878e-06
2.3542879e-06
2.3534708e-06
2.3534017e-06
2.3436411e-06
2.3153034e-06
2.2729225e-06
2.2273157e-06
2.2018524e-06
2.2072711e-06
2.2124345e-06
2.204882e-06
2.1881857e-06
2.1775543e-06
2.1757039e-06
2.1822416e-06
2.1839316e-06
2.187292e-06
2.2103386e-06
2.2338847e-06
2.2448013e-06
2.2573143e-06
2.2695719e-06
2.281745e-06
2.2850252e-06
2.2461843e-06
2.1335135e-06
2.0452286e-06
2.0390625e-06
2.1391782e-06
2.2236584e-06
2.2336727e-06
2.2027301e-06
2.2396966e-06
2.2997159e-06
2.3501407e-06
2.3823575e-06
2.4088924e-06
2.4279981e-06
2.4307146e-06
2.431317e-06
2.4456785e-06
2.4708598e-06
2.4992144e-06
2.5269574e-06
2.5614631e-06
2.6086148e-06
2.6624605e-06
2.7124078e-06
2.7430344e-06
2.7614029e-06
2.9249682e-06
1.2931104e-05
0.00013033883
0.00036881221
0.00055552633
0.00068543969
0.00078127293
0.00084855958
0.00089225683
0.00091619776
0.00092368468
0.00091760207
0.00090049206
0.00087458912
0.00084184307
0.00080394099
0.00076232255
0.00071825546
0.00067272038
0.00062658687
0.00058051194
0.00053503323
0.00049056587
0.00044742947
0.00040586583
0.00036604735
0.00032810259
0.00029211718
0.0002581377
0.0002261989
0.00019631656
0.00016847632
0.00014264666
0.00011878961
9.6852119e-05
7.6816203e-05
5.8706419e-05
4.259676e-05
2.8648641e-05
1.7140394e-05
8.4709388e-06
3.0554541e-06
6.8730551e-07
8.0342069e-08
3.8028726e-09
6.5232949e-10
2.4076423e-06
2.4021189e-06
2.3860168e-06
2.3722282e-06
2.3696708e-06
2.3625123e-06
2.3551074e-06
2.354158e-06
2.3540318e-06
2.344424e-06
2.3164066e-06
2.2742683e-06
2.2287054e-06
2.202664e-06
2.2077958e-06
2.2131494e-06
2.2047176e-06
2.1879213e-06
2.1770415e-06
2.1747191e-06
2.1807345e-06
2.1819311e-06
2.1844814e-06
2.2064587e-06
2.2300912e-06
2.2415476e-06
2.2544648e-06
2.2674877e-06
2.2805068e-06
2.2862872e-06
2.2541601e-06
2.1493652e-06
2.0524305e-06
2.0376811e-06
2.1228437e-06
2.2148806e-06
2.235776e-06
2.2066442e-06
2.2372631e-06
2.2937604e-06
2.3457635e-06
2.3827281e-06
2.4120968e-06
2.4357606e-06
2.4425888e-06
2.4414359e-06
2.4538544e-06
2.4771301e-06
2.5053607e-06
2.5346486e-06
2.5689392e-06
2.6141608e-06
2.6662669e-06
2.715386e-06
2.7475366e-06
2.7654848e-06
2.8610154e-06
8.8908196e-06
0.00010224619
0.00033081294
0.00052603835
0.00065910029
0.00075776586
0.00082763271
0.000873628
0.00089970425
0.00090916536
0.00090488763
0.00088940543
0.0008649524
0.00083348488
0.00079670398
0.00075607547
0.00071282938
0.00066803265
0.00062255237
0.00057706869
0.00053212712
0.0004881538
0.00044547485
0.00040433547
0.00036490828
0.0003273201
0.00029165343
0.00025795224
0.00022624873
0.00019655789
0.00016886431
0.0001431332
0.00011931186
9.7374254e-05
7.7312162e-05
5.9153843e-05
4.2977842e-05
2.8950647e-05
1.7356302e-05
8.6006754e-06
3.111837e-06
7.016476e-07
8.2100433e-08
3.8797065e-09
6.5762073e-10
2.4080635e-06
2.4026775e-06
2.3867965e-06
2.3728701e-06
2.370328e-06
2.3633774e-06
2.3559525e-06
2.3548337e-06
2.3546273e-06
2.3451801e-06
2.3174859e-06
2.2756227e-06
2.2301029e-06
2.2034573e-06
2.2082419e-06
2.2139239e-06
2.2047697e-06
2.187789e-06
2.1765698e-06
2.1737952e-06
2.1793295e-06
2.180059e-06
2.181804e-06
2.2025844e-06
2.2261436e-06
2.2380898e-06
2.2513888e-06
2.2652102e-06
2.2790123e-06
2.2871874e-06
2.261162e-06
2.1660793e-06
2.0628134e-06
2.0381263e-06
2.1073733e-06
2.2046819e-06
2.2342469e-06
2.2116403e-06
2.2355739e-06
2.2880871e-06
2.340736e-06
2.3818662e-06
2.4145669e-06
2.442454e-06
2.4539127e-06
2.453864e-06
2.4627474e-06
2.4840676e-06
2.5113428e-06
2.541735e-06
2.5763753e-06
2.6201492e-06
2.6705864e-06
2.7188773e-06
2.7522966e-06
2.7702302e-06
2.8282782e-06
6.2572315e-06
7.7510527e-05
0.00029238593
0.00049610206
0.00063297301
0.0007345073
0.00080724091
0.00085556843
0.00088380452
0.00089524848
0.00089277583
0.00087891367
0.00085589393
0.00082567975
0.00078998636
0.00075029814
0.00070787618
0.00066379827
0.00061893588
0.00057399867
0.00052954065
0.00048600327
0.00044372375
0.00040295387
0.00036386967
0.00032659826
0.00029121991
0.00025777494
0.00022629244
0.00019678659
0.00016922541
0.00014357296
0.00011980258
9.7887459e-05
7.7819706e-05
5.9629552e-05
4.3398664e-05
2.9297403e-05
1.7614392e-05
8.7621449e-06
3.1845597e-06
7.2062691e-07
8.4462027e-08
3.9866883e-09
6.6879263e-10
2.4085715e-06
2.4032583e-06
2.3876279e-06
2.3736117e-06
2.3710429e-06
2.3642969e-06
2.3568115e-06
2.3554778e-06
2.3551941e-06
2.345903e-06
2.3185452e-06
2.2769802e-06
2.2315128e-06
2.2042497e-06
2.2086179e-06
2.2147042e-06
2.2050808e-06
2.1877962e-06
2.1761221e-06
2.1729284e-06
2.1780269e-06
2.17833e-06
2.179268e-06
2.1987367e-06
2.2221056e-06
2.2345046e-06
2.2481775e-06
2.2627748e-06
2.2773157e-06
2.2874901e-06
2.2672746e-06
2.1831024e-06
2.0744779e-06
2.0403034e-06
2.0937443e-06
2.1927743e-06
2.2306459e-06
2.2182778e-06
2.2348724e-06
2.2830933e-06
2.335363e-06
2.3798248e-06
2.4164131e-06
2.4484611e-06
2.4649332e-06
2.467124e-06
2.4720055e-06
2.4916828e-06
2.5174813e-06
2.5482173e-06
2.5835405e-06
2.6264372e-06
2.6755283e-06
2.723025e-06
2.7576736e-06
2.7764411e-06
2.8148465e-06
4.7022782e-06
5.686954e-05
0.00025430992
0.00046541997
0.00060681073
0.00071148426
0.0007869404
0.00083766581
0.00086812556
0.00088161059
0.00088099483
0.00086879458
0.00084723806
0.00081829416
0.00078369372
0.0007449422
0.00070332449
0.00065993926
0.00061567491
0.00057125754
0.00052724428
0.00048409304
0.00044215702
0.00040170135
0.00036290864
0.00032590916
0.00029078213
0.00025756249
0.00022626942
0.00019690292
0.00016945345
0.00014389355
0.00012018937
9.8311177e-05
7.8251077e-05
6.0041437e-05
4.3767579e-05
2.9604262e-05
1.7844897e-05
8.9079104e-06
3.251003e-06
7.3812778e-07
8.6647482e-08
4.0864985e-09
6.8019795e-10
2.4091995e-06
2.4038752e-06
2.3885496e-06
2.3744423e-06
2.3718024e-06
2.3652493e-06
2.3576631e-06
2.3560913e-06
2.3557347e-06
2.3465977e-06
2.3195907e-06
2.2783211e-06
2.232918e-06
2.2050477e-06
2.2089253e-06
2.2154465e-06
2.2056117e-06
2.1879024e-06
2.1757003e-06
2.1721147e-06
2.1768148e-06
2.1767289e-06
2.1768747e-06
2.1949541e-06
2.2180631e-06
2.2308502e-06
2.2448236e-06
2.2600822e-06
2.2750625e-06
2.287301e-06
2.272519e-06
2.1998452e-06
2.0878967e-06
2.0436773e-06
2.0825732e-06
2.1796443e-06
2.2260644e-06
2.224629e-06
2.2353453e-06
2.2788091e-06
2.3297562e-06
2.376532e-06
2.4171924e-06
2.4535003e-06
2.4749511e-06
2.4805113e-06
2.4833703e-06
2.5000855e-06
2.5241947e-06
2.5542498e-06
2.5901155e-06
2.6326245e-06
2.680664e-06
2.7276535e-06
2.7633402e-06
2.7831724e-06
2.8112111e-06
3.805645e-06
4.0194054e-05
0.00021721733
0.00043405213
0.00058105109
0.00068893049
0.00076711108
0.00082041785
0.00085310982
0.00086864538
0.00086989488
0.00085936074
0.00083926431
0.00081157548
0.00077803757
0.00074017885
0.00069931743
0.00065656887
0.00061284878
0.00056888484
0.00052524589
0.00048240916
0.0004407441
0.00040052752
0.0003619533
0.00032515547
0.00029021584
0.00025717181
0.00022604654
0.00019684515
0.00016954506
0.00014411068
0.00012050331
9.8690605e-05
7.8663904e-05
6.0456612e-05
4.4156297e-05
2.9940864e-05
1.8107314e-05
9.0796123e-06
3.3315825e-06
7.5979628e-07
8.9385206e-08
4.214183e-09
6.9711914e-10
2.4045457e-06
2.3895443e-06
2.375348e-06
2.3726138e-06
2.3662149e-06
2.3584988e-06
2.3566695e-06
2.3562529e-06
2.3472561e-06
2.3206297e-06
2.2796602e-06
2.2343186e-06
2.2058517e-06
2.2091841e-06
2.2161311e-06
2.2063013e-06
2.1880512e-06
2.175294e-06
2.1713453e-06
2.175677e-06
2.1752603e-06
2.1746514e-06
2.1913223e-06
2.2140784e-06
2.2271837e-06
2.2413771e-06
2.2572271e-06
2.2727297e-06
2.2866866e-06
2.2769073e-06
2.2158592e-06
2.103693e-06
2.0480305e-06
2.0742268e-06
2.1647208e-06
2.2205231e-06
2.2301919e-06
2.2371219e-06
2.2756304e-06
2.3245218e-06
2.372591e-06
2.4171257e-06
2.4576052e-06
2.4839739e-06
2.4938688e-06
2.4967507e-06
2.5088265e-06
2.5315597e-06
2.5600927e-06
2.5960244e-06
2.6384576e-06
2.6859058e-06
2.7326308e-06
2.7695773e-06
2.7910568e-06
2.8134461e-06
3.329085e-06
2.7472636e-05
0.00018177741
0.00040174171
0.0005554905
0.00066669743
0.00074755011
0.00080343078
0.00083840231
0.00085604758
0.00085921498
0.00085039592
0.00083180294
0.00080540157
0.00077293967
0.00073595717
0.00069580506
0.00065364432
0.00061033693
0.00056666478
0.00052326777
0.00048065016
0.00043919349
0.00039918303
0.00036081268
0.00032421855
0.0002894806
0.00025663378
0.00022569658
0.00019666927
0.00016952426
0.00014422129
0.00012071821
9.8979991e-05
7.8997484e-05
6.0804478e-05
4.4490911e-05
3.0237242e-05
1.834357e-05
9.2377761e-06
3.407455e-06
7.8050742e-07
9.2020671e-08
4.3387504e-09
7.1528992e-10
2.4053126e-06
2.3906153e-06
2.3763255e-06
2.3734581e-06
2.3671694e-06
2.359298e-06
2.357212e-06
2.3567535e-06
2.3478836e-06
2.3216828e-06
2.281063e-06
2.2357139e-06
2.2066574e-06
2.2094097e-06
2.2167531e-06
2.2071437e-06
2.1882715e-06
2.1749178e-06
2.1706051e-06
2.1745927e-06
2.1739108e-06
2.1726087e-06
2.1878353e-06
2.2101607e-06
2.2234948e-06
2.2378034e-06
2.2541747e-06
2.2702661e-06
2.2855656e-06
2.2803823e-06
2.2305378e-06
2.1214695e-06
2.0541336e-06
2.0684544e-06
2.1489044e-06
2.21373e-06
2.2349079e-06
2.2397298e-06
2.2734151e-06
2.3196059e-06
2.3680359e-06
2.4157526e-06
2.4600702e-06
2.4916609e-06
2.5067306e-06
2.5108905e-06
2.5183914e-06
2.5397251e-06
2.566256e-06
2.6012029e-06
2.643517e-06
2.6907655e-06
2.7376586e-06
2.7758265e-06
2.7991464e-06
2.8189123e-06
3.0816002e-06
1.8238804e-05
0.00014863304
0.00036863877
0.00053027752
0.00064483468
0.0007284401
0.00078710399
0.00082433423
0.00084410412
0.00084920587
0.00084212196
0.00082505704
0.00079997715
0.00076857972
0.00073246236
0.00069297558
0.00065130348
0.00060835496
0.00056496245
0.00052178237
0.00047933511
0.00043802081
0.0003981397
0.00035989697
0.00032343518
0.00028883708
0.00025613679
0.00022534945
0.00019647026
0.00016946579
0.00014428994
0.00012089504
9.9241549e-05
7.9316729e-05
6.1152356e-05
4.4837672e-05
3.0553587e-05
1.8601752e-05
9.4139454e-06
3.493466e-06
8.0436404e-07
9.5077907e-08
4.4844913e-09
7.3796145e-10
2.4061868e-06
2.3917508e-06
2.3773616e-06
2.3743148e-06
2.3680929e-06
2.3600642e-06
2.3577223e-06
2.3572371e-06
2.3484797e-06
2.3227186e-06
2.2824868e-06
2.237097e-06
2.2074955e-06
2.209607e-06
2.2173037e-06
2.2081157e-06
2.1885836e-06
2.1745607e-06
2.1698764e-06
2.1735509e-06
2.1727058e-06
2.1707437e-06
2.1845357e-06
2.2063478e-06
2.2198369e-06
2.2341515e-06
2.2509694e-06
2.2675923e-06
2.2840136e-06
2.2831748e-06
2.2436511e-06
2.1408249e-06
2.0642522e-06
2.0648466e-06
2.1339464e-06
2.2055326e-06
2.2371747e-06
2.2436566e-06
2.2726092e-06
2.3155879e-06
2.3636007e-06
2.4136045e-06
2.4614636e-06
2.4980822e-06
2.5183224e-06
2.525407e-06
2.5308381e-06
2.548323e-06
2.5731552e-06
2.6060428e-06
2.6477728e-06
2.6950309e-06
2.7424376e-06
2.7823146e-06
2.8079033e-06
2.8259763e-06
2.9625418e-06
1.1968333e-05
0.00011833561
0.00033472993
0.00050515902
0.00062328562
0.00070991972
0.00077096687
0.00081055243
0.00083247373
0.00083954215
0.00083423912
0.00081876685
0.00079503192
0.00076478707
0.00072958318
0.00069079754
0.00064962448
0.00060704897
0.0005639195
0.0005209146
0.00047857812
0.00043733321
0.00039749989
0.00035929969
0.0003228865
0.00028834981
0.00025572589
0.00022502865
0.00019624935
0.00016934906
0.00014427534
0.00012097419
9.9400111e-05
7.9535759e-05
6.1409523e-05
4.5108697e-05
3.081306e-05
1.8823445e-05
9.5721637e-06
3.5737512e-06
8.2718617e-07
9.8041241e-08
4.6291163e-09
7.6324973e-10
2.4072028e-06
2.3929235e-06
2.3784366e-06
2.3751702e-06
2.3689876e-06
2.3607965e-06
2.3582129e-06
2.3577063e-06
2.3490558e-06
2.3237359e-06
2.2839397e-06
2.238476e-06
2.2083417e-06
2.2097805e-06
2.217799e-06
2.2092065e-06
2.1890267e-06
2.17425e-06
2.1691639e-06
2.1725499e-06
2.171644e-06
2.1690331e-06
2.1814301e-06
2.2026462e-06
2.2162252e-06
2.2304303e-06
2.2475863e-06
2.2646484e-06
2.2820895e-06
2.2853983e-06
2.2549937e-06
2.1610332e-06
2.0767285e-06
2.0640827e-06
2.1206816e-06
2.1951152e-06
2.2349776e-06
2.2482629e-06
2.2728481e-06
2.3122846e-06
2.3591848e-06
2.4105281e-06
2.4615203e-06
2.5034524e-06
2.5288477e-06
2.5403142e-06
2.5454191e-06
2.5574179e-06
2.5810758e-06
2.610976e-06
2.6512924e-06
2.6984123e-06
2.7465685e-06
2.7881904e-06
2.8164379e-06
2.8346197e-06
2.9083464e-06
7.9763486e-06
9.1485768e-05
0.00030046108
0.00048017376
0.0006020825
0.00069177134
0.00075541646
0.00079735411
0.00082140112
0.00083042977
0.00082693117
0.00081311633
0.00079071767
0.00076164733
0.00072740775
0.00068935916
0.00064871526
0.00060652416
0.00056364862
0.00052078699
0.00047850968
0.00043726599
0.00039740021
0.00035915557
0.0003227027
0.00028814303
0.00025551882
0.00022484557
0.00019611212
0.00016927479
0.00014427439
0.00012104979
9.9547847e-05
7.9744082e-05
6.1660542e-05
4.5379927e-05
3.1078499e-05
1.9054609e-05
9.7399425e-06
3.660472e-06
8.5220209e-07
1.0132136e-07
4.7910386e-09
7.9259711e-10
2.3941359e-06
2.3795271e-06
2.3760011e-06
2.369838e-06
2.3615038e-06
2.3586915e-06
2.3581499e-06
2.3496244e-06
2.3247448e-06
2.2854039e-06
2.239881e-06
2.2092103e-06
2.2099489e-06
2.2182191e-06
2.2103775e-06
2.1896105e-06
2.1740309e-06
2.1684812e-06
2.1716096e-06
2.1707356e-06
2.1674676e-06
2.1785567e-06
2.1991049e-06
2.2127225e-06
2.2267179e-06
2.2441091e-06
2.2615534e-06
2.2795349e-06
2.2870383e-06
2.2647254e-06
2.181593e-06
2.0913065e-06
2.0654491e-06
2.1101216e-06
2.1829272e-06
2.2309324e-06
2.2529796e-06
2.2744942e-06
2.3102816e-06
2.3554449e-06
2.4072212e-06