/*--------------------------------*- C++ -*----------------------------------*\
| =========                 |                                                 |
| \\      /  F ield         | OpenFOAM: The Open Source CFD Toolbox           |
|  \\    /   O peration     | Version:  2506                                  |
|   \\  /    A nd           | Website:  www.openfoam.com                      |
|    \\/     M anipulation  |                                                 |
\*---------------------------------------------------------------------------*/
FoamFile
{
    version     2.0;
    format      ascii;
    arch        "LSB;label=32;scalar=64";
    class       surfaceScalarField;
    location    "0.032";
    object      phi;
}
// * * * * * * * * * * * * * * * * * * * * * * * * * * * * * * * * * * * * * //

dimensions      [1 0 -1 0 0 0 0];

oriented        oriented;

internalField   nonuniform List<scalar> 
27023
(
0.0010996317
-0.012219614
0.00098892844
-0.01128627
0.00088766333
-0.01042219
0.00079500064
-0.0096232673
0.00071018973
-0.0088838199
0.00063253369
-0.0082009963
0.00056140431
-0.0075700849
0.00049624246
-0.006985914
0.00043652799
-0.0064462865
0.00038178923
-0.0059477104
0.00033159573
-0.0054873116
0.00028555564
-0.0050623584
0.00024331802
-0.0046700626
0.00020458718
-0.0043072825
0.00016916921
-0.003972687
0.00013727843
-0.0036619417
0.00011014115
-0.0033719204
8.9142118e-05
-0.0030957561
7.3627229e-05
-0.0028293245
6.2031838e-05
-0.0025759674
5.3055891e-05
-0.0023371554
4.5783814e-05
-0.0021131325
3.9628301e-05
-0.0019057132
3.4244265e-05
-0.001715022
2.944228e-05
-0.0015400291
2.5121484e-05
-0.0013794197
2.1226277e-05
-0.0012318083
1.7721967e-05
-0.0010952629
1.4577484e-05
-0.00096900198
1.1758283e-05
-0.00085214628
9.2297364e-06
-0.00074194857
6.9539564e-06
-0.00063657939
4.8963996e-06
-0.00053388652
3.0537208e-06
-0.00043054816
1.5251792e-06
-0.00032453421
5.2613434e-07
-0.00021796042
8.4630927e-08
-0.00012010455
-3.7170739e-05
0.0024699596
-0.02093887
0.002246212
-0.019373414
0.0020413387
-0.017918551
0.0018537143
-0.01656928
0.0016818567
-0.015318201
0.0015244194
-0.014157856
0.0013801594
-0.013083267
0.0012479528
-0.012087296
0.0011267706
-0.011164984
0.0010156738
-0.010310997
0.00091379689
-0.0095213015
0.00082036013
-0.008790301
0.00073463702
-0.0081151972
0.00065597044
-0.0074913481
0.00058377486
-0.0069136534
0.00051750269
-0.0063799543
0.00045665614
-0.0058868083
0.00040077879
-0.005431383
0.00034945367
-0.0050109859
0.00030230407
-0.0046228693
0.00025900461
-0.0042639427
0.00021930014
-0.0039329452
0.00018321152
-0.0036258186
0.00015153749
-0.0033402145
0.00012577259
-0.0030699616
0.00010597554
-0.0028094999
9.0740025e-05
-0.0025607061
7.8641642e-05
-0.002325033
6.8619016e-05
-0.0021030874
5.9970309e-05
-0.0018970436
5.227702e-05
-0.0017073091
4.5308992e-05
-0.0015330429
3.8946386e-05
-0.0013730402
3.3126762e-05
-0.0012259729
2.7816076e-05
-0.0010899376
2.2985442e-05
-0.00096415774
1.8602424e-05
-0.00084775061
1.4636401e-05
-0.00073797076
1.1053871e-05
-0.00063298594
7.8263004e-06
-0.0005306485
4.9634149e-06
-0.00042767587
2.5976831e-06
-0.00032215859
9.9341401e-07
-0.00021634686
2.0025668e-07
-0.00011930277
-3.6963891e-05
0.0027108615
-0.02067814
0.0024717634
-0.019134146
0.0022523464
-0.017698976
0.0020509616
-0.016367748
0.0018661008
-0.015133204
0.0016963918
-0.013988021
0.0015405628
-0.012927321
0.0013974637
-0.011944088
0.0012660351
-0.011033455
0.001145309
-0.010190179
0.0010343902
-0.0094102967
0.00093247079
-0.0086883021
0.00083879535
-0.0080214482
0.00075267911
-0.0074051639
0.000673511
-0.0068344225
0.00060071761
-0.0063071029
0.00053377643
-0.0058198134
0.0004722071
-0.0053697641
0.00041556937
-0.0049543024
0.00036346348
-0.0045707211
0.00031553899
-0.0042159791
0.00027149665
-0.0038888668
0.0002312283
-0.0035855169
0.00019517403
-0.0033041295
0.0001646522
-0.0030394112
0.00014034111
-0.0027851623
0.00012121271
-0.0025415529
0.00010579432
-0.0023095915
9.288022e-05
-0.0020901517
8.1637205e-05
-0.0018857804
7.1555972e-05
-0.0016972091
6.23528e-05
-0.0015238222
5.3880394e-05
-0.0013645514
4.6064409e-05
-0.0012181418
3.8868399e-05
-0.0010827275
3.2264125e-05
-0.00095754043
2.6220386e-05
-0.00084169473
2.0710468e-05
-0.00073244967
1.5706122e-05
-0.00062797118
1.1185867e-05
-0.00052611894
7.1791697e-06
-0.00042366024
3.8571123e-06
-0.00031882951
1.5497592e-06
-0.0002140331
3.3900615e-07
-0.00011808617
-3.6618412e-05
0.0029343738
-0.020401973
0.0026806331
-0.01888024
0.0024473585
-0.017465548
0.0022328795
-0.016153127
0.0020356651
-0.014935858
0.001854319
-0.013806553
0.0016875429
-0.012760432
0.0015341604
-0.011790601
0.0013930843
-0.010892282
0.001263319
-0.010060324
0.0011439405
-0.0092908352
0.0010341132
-0.008578398
0.00093305243
-0.0079203164
0.00084004546
-0.0073120912
0.000754455
-0.0067487713
0.00067568088
-0.0062282727
0.00060317471
-0.0057472554
0.00053643093
-0.0053029725
0.00047498463
-0.0048928119
0.00041841201
-0.0045141077
0.0003663377
-0.004163867
0.00031842609
-0.0038409205
0.00027448117
-0.0035415398
0.00023467558
-0.0032642942
0.0002000043
-0.0030047123
0.00017150954
-0.0027566421
0.0001486985
-0.002518718
0.00013017717
-0.002291048
0.0001146201
-0.0020745738
0.00010105213
-0.0018721931
8.8856747e-05
-0.0016849955
7.7684055e-05
-0.0015126327
6.7351367e-05
-0.001354203
5.7768448e-05
-0.0012085442
4.8894577e-05
-0.0010738399
4.0701951e-05
-0.00094933508
3.3161045e-05
-0.00083414195
2.6250014e-05
-0.00072552754
1.994643e-05
-0.00062165728
1.4238766e-05
-0.00052040136
9.1762812e-06
-0.00041858883
4.9791766e-06
-0.00031462291
2.0379254e-06
-0.00021108296
4.5938224e-07
-0.00011649937
-3.6152679e-05
0.0031417564
-0.020111236
0.00287421
-0.018612535
0.0026278839
-0.017219074
0.0024010867
-0.015926193
0.0021922648
-0.014726909
0.0019999981
-0.013614168
0.0018229619
-0.012583287
0.0016599535
-0.011627491
0.0015098584
-0.010742093
0.0013716532
-0.0099220317
0.0012443852
-0.009163487
0.0011271911
-0.0084611298
0.0010192578
-0.0078123146
0.0009198452
-0.0072126153
0.00082829028
-0.0066571578
0.00074396686
-0.0061438952
0.00066630165
-0.0056695402
0.00059476487
-0.0052313896
0.00052886817
-0.0048268725
0.00046816505
-0.0044533652
0.00041225745
-0.004107923
0.00036078013
-0.0037894095
0.00031347692
-0.0034942055
0.00027033599
-0.0032211246
0.0002320129
-0.0029663627
0.0001996383
-0.0027242429
0.0001732852
-0.002492342
0.00015179833
-0.0022695397
0.00013378596
-0.0020565414
0.00011812515
-0.0018565136
0.00010407137
-0.0016709243
9.1189774e-05
-0.0014997348
7.9249607e-05
-0.0013422476
6.8137197e-05
-0.0011974177
5.7803781e-05
-0.0010634933
4.8220481e-05
-0.00093973958
3.935968e-05
-0.00082526975
3.1204626e-05
-0.00071736197
2.3740143e-05
-0.00061418297
1.6964743e-05
-0.00051361717
1.09527e-05
-0.00041256829
5.9696489e-06
-0.0003096333
2.4660627e-06
-0.00020757339
5.6314751e-07
-0.00011459101
-3.55833e-05
0.003638592
-0.021394103
0.0033343754
-0.019806854
0.0030539107
-0.018331917
0.0027953818
-0.016960403
0.0025570774
-0.015687756
0.0023374209
-0.01450713
0.0021349689
-0.013411603
0.0019483717
-0.012396584
0.0017764
-0.011455422
0.001617913
-0.010583516
0.0014718603
-0.0097758955
0.0013372616
-0.0090288109
0.0012132269
-0.0083370237
0.0010989159
-0.0076979374
0.00099356185
-0.0071072001
0.00089647736
-0.0065600168
0.00080701157
-0.0060543772
0.00072456737
-0.0055870478
0.00064859221
-0.0051553698
0.00057857545
-0.0047568146
0.00051404948
-0.0043888012
0.00045459522
-0.0040484337
0.00039982246
-0.0037346043
0.0003494315
-0.0034437846
0.00030328529
-0.0031749507
0.00026174599
-0.0029247978
0.00022581871
-0.0026882919
0.00019603057
-0.0024625319
0.00017162019
-0.0022451088
0.00015122953
-0.0020361316
0.00013360498
-0.0018388711
0.00011785767
-0.0016551602
0.00010344765
-0.0014853091
9.0080304e-05
-0.0013288657
7.7609009e-05
-0.0011849328
6.5971337e-05
-0.001051843
5.5135258e-05
-0.00092889166
4.5074378e-05
-0.00081519785
3.5777982e-05
-0.00070805528
2.7239115e-05
-0.00060563451
1.9469942e-05
-0.00050583905
1.2571572e-05
-0.00040566161
6.8641264e-06
-0.00030391815
2.8500955e-06
-0.00020355224
6.5669721e-07
-0.00011239105
-3.4920494e-05
0.0038300749
-0.02105056
0.0035131483
-0.019489768
0.0032206614
-0.018039282
0.0029507818
-0.016690386
0.0027017783
-0.015438626
0.0024720533
-0.014277287
0.0022601406
-0.013199581
0.0020646652
-0.012201008
0.0018843743
-0.011275037
0.0017181011
-0.010417156
0.0015647695
-0.0096224834
0.001423373
-0.00888734
0.0012929968
-0.0082065786
0.0011727744
-0.0075776514
0.0010619147
-0.0069962815
0.000959707
-0.0064577547
0.00086547747
-0.0059600973
0.00077860675
-0.0055001306
0.00069852096
-0.0050752411
0.00062468893
-0.0046829429
0.0005566232
-0.0043206988
0.00049388567
-0.0039856624
0.00043606427
-0.0036767517
0.00038282668
-0.0033905183
0.00033395032
-0.0031260477
0.00028957123
-0.0028803942
0.00025045612
-0.002649154
0.00021738104
-0.0024294357
0.00019005942
-0.0022177674
0.00016730517
-0.0020133589
0.00014778451
-0.0018193332
0.00013045992
-0.0016378196
0.00011466574
-0.0014694999
0.00010002485
-0.0013142108
8.6344239e-05
-0.001171239
7.3540106e-05
-0.0010390266
6.1572876e-05
-0.000916913
5.0416017e-05
-0.00080403034
4.0064644e-05
-0.00069769394
3.0521532e-05
-0.0005960821
2.1814774e-05
-0.00049712359
1.4078335e-05
-0.00039791707
7.6904959e-06
-0.00029752281
3.2032635e-06
-0.00019905806
7.4215522e-07
-0.00010992354
-3.4172351e-05
0.0043632356
-0.02234342
0.0040074359
-0.020694595
0.0036787348
-0.019160914
0.003375113
-0.017735518
0.0030947235
-0.016409865
0.0028358162
-0.015179596
0.0025967735
-0.01403813
0.0023761073
-0.012978809
0.0021724202
-0.011997223
0.0019844356
-0.011086962
0.001810963
-0.010243599
0.0016509023
-0.0094623452
0.0015032227
-0.0087395887
0.0013669855
-0.0080702751
0.0012413007
-0.0074519051
0.0011253536
-0.0068802777
0.0010184126
-0.0063507612
0.00091978194
-0.0058614183
0.00082882205
-0.0054091259
0.00074493901
-0.0049913168
0.00066758269
-0.0046055484
0.00059624728
-0.0042493282
0.00053047738
-0.0039198599
0.00046984132
-0.0036160856
0.00041398151
-0.0033346307
0.00036261568
-0.0030746563
0.00031571667
-0.0028334714
0.00027378906
-0.0026072045
0.00023764449
-0.0023932708
0.00020743552
-0.0021875396
0.0001822875
-0.0019881933
0.00016087876
-0.001797908
0.00014204124
-0.0016189667
0.00012496849
-0.0014524128
0.00010918048
-0.0012984093
9.4421278e-05
-0.0011564673
8.0574589e-05
-0.0010251682
6.7586888e-05
-0.00090391434
5.5428369e-05
-0.00079186155
4.4098956e-05
-0.00068635489
3.361198e-05
-0.00058558613
2.4015117e-05
-0.00048751801
1.5480635e-05
-0.00038937479
8.4527789e-06
-0.00029048653
3.52737e-06
-0.00019412484
8.2060559e-07
-0.00010720952
-3.3345881e-05
0.0045384988
-0.021946113
0.0041712395
-0.020327177
0.0038316821
-0.018821209
0.0035177948
-0.017421493
0.003227717
-0.01611966
0.0029596815
-0.014911442
0.0027120514
-0.013790391
0.0024833197
-0.012749976
0.0022720667
-0.011785876
0.0020769945
-0.010891803
0.0018968906
-0.010063415
0.0017306325
-0.0092960125
0.0015771667
-0.0085860539
0.001435533
-0.0079285776
0.0013048187
-0.0073211318
0.0011841883
-0.0067595927
0.00107289
-0.0062394126
0.00097020846
-0.0057586902
0.0008754849
-0.0053143593
0.00078810724
-0.0049038994
0.0007075077
-0.0045249121
0.00063316365
-0.0041749503
0.00056460367
-0.0038512686
0.00050137883
-0.0035528319
0.00044311067
-0.0032763358
0.00038947444
-0.0030209954
0.00034032871
-0.0027843029
0.00029594577
-0.0025628005
0.00025701844
-0.0023543239
0.00022400079
-0.0021545039
0.00019641537
-0.0019605909
0.00017307672
-0.0017745537
0.00015273789
-0.0015986131
0.00013445071
-0.0014341119
0.00011761341
-0.0012815592
0.00010188816
-0.00114073
8.7111935e-05
-0.0010103808
7.3207895e-05
-0.00088999987
6.0137765e-05
-0.00077878163
4.7903719e-05
-0.00067411178
3.6530159e-05
-0.00057420407
2.6086522e-05
-0.00047706679
1.679279e-05
-0.00038007363
9.1605901e-06
-0.00028284887
3.8273586e-06
-0.00018878666
8.9217842e-07
-0.00010426985
-3.2447964e-05
0.0051079909
-0.023243373
0.0046997836
-0.021537741
0.0043220125
-0.019949253
0.0039724946
-0.018471549
0.0036491882
-0.017098055
0.0033502204
-0.01582057
0.0030738086
-0.014634917
0.002818299
-0.013534776
0.0025821662
-0.012513746
0.0023639713
-0.011567591
0.0021623966
-0.010690145
0.0019762091
-0.0098771496
0.0018042659
-0.0091239976
0.0016454926
-0.0084272144
0.0014989091
-0.0077819328
0.0013635823
-0.0071857483
0.0012386569
-0.0066346148
0.0011233629
-0.0061240702
0.0010169669
-0.0056522493
0.00091879246
-0.0052161436
0.00082821075
-0.0048132794
0.00074463779
-0.0044413039
0.00066753559
-0.0040978155
0.00059641799
-0.003780121
0.00053082068
-0.0034872068
0.00047034746
-0.003215837
0.00041464249
-0.0029652667
0.00036348463
-0.0027331232
0.00031696332
-0.002516259
0.00027557896
-0.0023129208
0.00023990969
-0.0021188172
0.00020986653
-0.0019305316
0.00018452244
-0.0017491944
0.00016263993
-0.0015767164
0.00014315267
-0.0014146113
0.00012532657
-0.0012637207
0.00010872328
-0.0011241151
9.3115892e-05
-0.00099476248
7.839217e-05
-0.00087526591
6.4497387e-05
-0.00076487725
5.1432062e-05
-0.00066103741
3.9230491e-05
-0.00056199401
2.798831e-05
-0.00046581662
1.7978976e-05
-0.00037005683
9.7918581e-06
-0.00027465483
4.0930954e-06
-0.00018308147
9.5638528e-07
-0.00010112719
-3.1485965e-05
0.0057175497
-0.024586247
0.0052659822
-0.022791636
0.0048476806
-0.021119282
0.0044603199
-0.019561746
0.0041017117
-0.018112805
0.0037698059
-0.016766023
0.0034627195
-0.015513366
0.0031786564
-0.014350745
0.002915948
-0.013271966
0.002673053
-0.012270757
0.0024485147
-0.011342965
0.0022409978
-0.010482547
0.0020492509
-0.0096853283
0.0018721126
-0.0089467905
0.0017084897
-0.0082635277
0.0015573834
-0.0076307676
0.0014178422
-0.0070461526
0.0012889928
-0.0065057151
0.0011700488
-0.0060050796
0.0010602596
-0.0055424171
0.00095893311
-0.0051147773
0.00086542497
-0.0047197346
0.00077913646
-0.0043549815
0.00069951538
-0.0040181631
0.00062606232
-0.003706639
0.00055829875
-0.0034194165
0.00049581381
-0.0031533274
0.00043822706
-0.0029076572
0.00038526236
-0.0026801374
0.00033687332
-0.0024678504
0.00029335945
-0.0022693888
0.00025527146
-0.0020807124
0.00022281124
-0.0018980557
0.00019538296
-0.0017217515
0.00017186983
-0.0015531895
0.00015114254
-0.0013938711
0.0001323416
-0.0012449076
0.00011491421
-0.0011066762
9.8552483e-05
-0.0009783899
8.3094092e-05
-0.00085979724
6.8457529e-05
-0.00075023092
5.463526e-05
-0.00064720578
4.1669422e-05
-0.00054901932
2.9685263e-05
-0.00045382336
1.9017047e-05
-0.00035938066
1.0335289e-05
-0.00026596316
4.3203616e-06
-0.00017705699
1.0116674e-06
-9.7809521e-05
-3.046881e-05
0.0063688371
-0.0259741
0.0058714741
-0.024088709
0.0054103105
-0.02233031
0.0049828618
-0.020691682
0.0045868039
-0.019165547
0.0042199456
-0.017745816
0.0038802304
-0.016426186
0.0035657673
-0.01519879
0.0032747489
-0.014059622
0.0030054936
-0.013002614
0.0027564461
-0.01202162
0.0025261345
-0.011112571
0.0023132078
-0.010269544
0.0021163983
-0.0094884474
0.0019345283
-0.0087648544
0.0017664875
-0.0080954258
0.001611261
-0.0074754846
0.0014678802
-0.0069027195
0.0013354559
-0.0063732425
0.0012131865
-0.0058827655
0.0011003063
-0.0054294957
0.00099610862
-0.0050105415
0.00089993511
-0.0046235259
0.00081117345
-0.0042661874
0.00072925867
-0.0039362183
0.00065367906
-0.0036310317
0.00058394356
-0.0033496555
0.00051962796
-0.0030889882
0.00046033294
-0.0028483404
0.00040574223
-0.0026255265
0.00035571294
-0.0024178025
0.00031036864
-0.0022240273
0.00027014252
-0.0020404702
0.00023538668
-0.0018632849
0.00020583046
-0.0016921813
0.00018057699
-0.001527923
0.00015851874
-0.0013718006
0.00013870225
-0.0012250795
0.00012045902
-0.0010884221
0.00010338632
-0.00096130691
8.7257019e-05
-0.00084365818
7.195109e-05
-0.00073491573
5.7444668e-05
-0.00063269057
4.3784975e-05
-0.00053535108
3.1127483e-05
-0.00044115797
1.9878576e-05
-0.00034812256
1.0775997e-05
-0.00025685372
4.5037291e-06
-0.00017077583
1.0554954e-06
-9.4352917e-05
-2.9407962e-05
0.0065179826
-0.025428336
0.0060116128
-0.023582172
0.0055418227
-0.021860364
0.0051061365
-0.02025585
0.004702235
-0.018761511
0.0043279276
-0.017371383
0.0039811546
-0.016079297
0.0036600195
-0.014877547
0.003362706
-0.013762208
0.0030875217
-0.012727337
0.0028328997
-0.011766912
0.002597354
-0.010876945
0.0023795202
-0.010051636
0.002178116
-0.0092869747
0.001991949
-0.008578624
0.0018198939
-0.0079233121
0.0016609214
-0.0073164579
0.0015140481
-0.0067557961
0.0013783703
-0.0062375184
0.0012530732
-0.0057574256
0.0011373776
-0.0053137605
0.001030564
-0.0049036914
0.00093196139
-0.0045248896
0.00084094549
-0.0041751403
0.0007569398
-0.0038521838
0.00067942151
-0.0035534869
0.00060788836
-0.0032780977
0.0005419044
-0.0030229816
0.00048105464
-0.0027874696
0.00042499343
-0.002569446
0.00037350925
-0.0023663003
0.00032658652
-0.002177088
0.00028450839
-0.0019983766
0.0002476494
-0.0018264116
0.00021598651
-0.001660505
0.00018889387
-0.0015008178
0.00016537798
-0.0013482729
0.00014445074
-0.0012041413
0.00012534482
-0.0010693058
0.00010755904
-0.00094351132
9.0790035e-05
-0.00082687988
7.4867666e-05
-0.00071898457
5.9744188e-05
-0.00061755864
4.5467193e-05
-0.00052106636
3.2226881e-05
-0.00042791009
2.049718e-05
-0.00033638752
1.1083077e-05
-0.0002474329
4.6300713e-06
-0.00016431874
1.0845973e-06
-9.0803726e-05
-2.831815e-05
0.0072073154
-0.026809582
0.0066534565
-0.024874305
0.0061391012
-0.023067656
0.0056616313
-0.021382744
0.0052185846
-0.019812665
0.0048076513
-0.018350448
0.0044266463
-0.016990258
0.0040735122
-0.015726051
0.003746352
-0.014550283
0.0034433453
-0.013459105
0.0031627932
-0.012446696
0.0029031203
-0.011507156
0.0026628303
-0.010636579
0.0024405471
-0.009829282
0.002234976
-0.009081338
0.0020449113
-0.0083884987
0.0018692142
-0.0077475588
0.0017068418
-0.0071540336
0.001556797
-0.0066057033
0.001418163
-0.00609884
0.0012901126
-0.0056293343
0.0011718545
-0.0051954646
0.0010626573
-0.0047944592
0.00096183904
-0.0044240391
0.00086876471
-0.0040820361
0.00078284732
-0.0037662389
0.00070355482
-0.003474169
0.00063037439
-0.0032048939
0.00056286057
-0.0029554461
0.00050058494
-0.002725174
0.00044318018
-0.0025120227
0.00039038517
-0.0023134882
0.00034208007
-0.002128767
0.00029840349
-0.0019546854
0.00025966849
-0.0017876629
0.00022599029
-0.0016268141
0.00019700023
-0.0014718158
0.00017189017
-0.0013231518
0.00014971042
-0.0011819511
0.00012963521
-0.0010492208
0.00011107461
-0.0009249415
9.3645803e-05
-0.00080944248
7.7122422e-05
-0.00070245301
6.1426391e-05
-0.00060185505
4.6605609e-05
-0.00050623839
3.2884522e-05
-0.00041418289
2.0809252e-05
-0.00032430589
1.1211082e-05
-0.00023783117
4.6786371e-06
-0.00015778306
1.0956713e-06
-8.7217854e-05
-2.7217401e-05
0.007941188
-0.028232623
0.0073377383
-0.026205955
0.0067767557
-0.024313157
0.0062554826
-0.022546229
0.0057713173
-0.020898436
0.0053218113
-0.019363025
0.0049046662
-0.017933179
0.0045177059
-0.016603182
0.0041588795
-0.015367118
0.0038262948
-0.014217599
0.0035181339
-0.013150853
0.003232698
-0.012161175
0.0029684102
-0.011242789
0.0027237708
-0.010391866
0.0024973982
-0.0096028418
0.0022879909
-0.0088718681
0.002094335
-0.0081947849
0.0019152817
-0.0075684519
0.0017497781
-0.0069884803
0.0015968151
-0.0064526945
0.0014554645
-0.0059574471
0.0013248876
-0.0054987182
0.0012042812
-0.005074822
0.0010929026
-0.0046830473
0.00099005848
-0.004321164
0.0008951029
-0.0039870521
0.00080743861
-0.0036785483
0.0007265239
-0.00339323
0.00065183633
-0.0031301838
0.00058292091
-0.00288651
0.00051933755
-0.0026615715
0.00046070111
-0.0024533686
0.00040671505
-0.0022594857
0.00035718151
-0.0020792182
0.0003121166
-0.0019096063
0.0002717336
-0.0017472668
0.00023618724
-0.0015912554
0.00020530189
-0.001440919
0.00017848049
-0.0012963196
0.00015488095
-0.0011583415
0.00013367337
-0.0010280037
0.00011420727
-0.00090546648
9.6028947e-05
-0.00079125569
7.8855751e-05
-0.0006852718
6.2580165e-05
-0.00058557182
4.7252052e-05
-0.00049090303
3.3135856e-05
-0.00040005979
2.0835286e-05
-0.00031199887
1.1179156e-05
-0.000228169
4.6577495e-06
-0.00015125598
1.0903484e-06
-8.3645151e-05
-2.6122115e-05
0.0087207984
-0.029695104
0.0080658689
-0.027577513
0.0074564547
-0.025596371
0.006889625
-0.02374617
0.0063626377
-0.022019094
0.0058729051
-0.020408567
0.0054179901
-0.018907983
0.0049956026
-0.017510673
0.0046035736
-0.016211044
0.0042398568
-0.015003299
0.0039025645
-0.013880212
0.0035898815
-0.012838082
0.0033001111
-0.011871323
0.0030316781
-0.010974281
0.0027830836
-0.010143202
0.0025529472
-0.0093726407
0.0023399667
-0.0086588277
0.0021429281
-0.007997691
0.0019606805
-0.0073861531
0.0017921689
-0.0068199214
0.001636381
-0.0062968629
0.0014923839
-0.0058134096
0.0013593343
-0.0053656312
0.001236423
-0.0049518762
0.0011229012
-0.0045694935
0.0010180676
-0.0042163011
0.00092126829
-0.0038902256
0.00083189858
-0.0035891535
0.0007494071
-0.0033107153
0.00067326203
-0.0030540174
0.0006029991
-0.0028162273
0.00053816691
-0.0025967211
0.00047836405
-0.0023935489
0.0004232646
-0.0022043707
0.00037261198
-0.0020285512
0.00032632169
-0.0018633026
0.00028449827
-0.0017054309
0.00024726639
-0.0015540119
0.0002145593
-0.0014082011
0.00018596849
-0.0012677186
0.0001607991
-0.0011331625
0.00013827328
-0.0010054688
0.00011771952
-0.00088490409
9.8633588e-05
-0.00077216153
8.0685056e-05
-0.00066731542
6.3742334e-05
-0.00056862151
4.7862687e-05
-0.00047501621
3.335299e-05
-0.00038554248
2.0857671e-05
-0.00029949716
1.1165745e-05
-0.00021846811
4.6536275e-06
-0.00014473532
1.0911347e-06
-8.0074558e-05
-2.5026188e-05
0.0095436102
-0.031196913
0.008835488
-0.028986796
0.0081759844
-0.026917836
0.0075620487
-0.024982274
0.006990769
-0.023174739
0.0064594203
-0.021487605
0.0059654292
-0.019914445
0.0055063672
-0.0184488
0.005079953
-0.017084146
0.0046840207
-0.015815006
0.0043165277
-0.014635709
0.0039755874
-0.013539181
0.0036593834
-0.012521794
0.0033662175
-0.011578079
0.0030945121
-0.010702504
0.0028427646
-0.0098913876
0.0026095908
-0.0091394053
0.0023936855
-0.0084428654
0.0021938306
-0.0077977832
0.002008872
-0.0072011458
0.0018377519
-0.0066487561
0.0016794551
-0.0061385244
0.0015330462
-0.0056669621
0.001397681
-0.0052302305
0.0012725501
-0.0048267123
0.0011569016
-0.0044538146
0.0010500354
-0.0041094068
0.00095129712
-0.0037914614
0.00086008022
-0.0034979127
0.0007758341
-0.0032264471
0.00069802521
-0.0029761882
0.00062618676
-0.00274437
0.00055986211
-0.002530379
0.00049864188
-0.0023323125
0.00044218089
-0.0021478948
0.00039018277
-0.0019765392
0.00034249189
-0.0018155989
0.00029912105
-0.0016620481
0.00026013762
-0.0015150173
0.00022551823
-0.0013735712
0.0001949955
-0.001237186
0.00016802789
-0.0011061857
0.00014392813
-0.00098136037
0.00012204313
-0.0008630109
0.00010184064
-0.00075195122
8.2953189e-05
-0.00064842055
6.5226512e-05
-0.00055088781
4.872632e-05
-0.00045850899
3.379078e-05
-0.00037060068
2.1083624e-05
-0.0002867815
1.1307762e-05
-0.00020868653
4.7405086e-06
-0.00013815905
1.1220289e-06
-7.644751e-05
-2.3899521e-05
0.01037638
-0.032735035
0.0096130688
-0.030433412
0.008901623
-0.028275173
0.0082388104
-0.026254857
0.0076216048
-0.024364914
0.0070471154
-0.022600106
0.0065126345
-0.02095299
0.0060156017
-0.019417287
0.0055536009
-0.017986683
0.0051243586
-0.016654796
0.0047257176
-0.015416265
0.004355639
-0.014265537
0.0040122395
-0.013195696
0.0036937048
-0.01220318
0.0033983379
-0.011282638
0.0031245602
-0.010428658
0.0028708685
-0.0096376325
0.0026358768
-0.0089043548
0.0024182766
-0.0082252108
0.0022168462
-0.0075963025
0.0020304278
-0.0070146809
0.0018579578
-0.0064762432
0.0016984165
-0.0059789433
0.0015508638
-0.0055193727
0.0014144493
-0.005093782
0.0012883557
-0.0047005874
0.0011718285
-0.0043372585
0.0010641588
-0.0040017104
0.000964687
-0.0036919649
0.00087280006
-0.003406003
0.00078794215
-0.0031415682
0.00070957275
-0.0028977994
0.00063721941
-0.0026719988
0.00057041851
-0.0024635616
0.00050875003
-0.0022706288
0.00045185406
-0.0020909848
0.00039940153
-0.0019240736
0.00035118056
-0.0017673658
0.00030712632
-0.0016179826
0.00026723932
-0.0014751198
0.00023149352
-0.0013378156
0.00019970949
-0.0012053928
0.00017148405
-0.0010779515
0.00014624749
-0.0009561156
0.0001234063
-0.00084016195
0.00010244175
-0.00073097925
8.2975065e-05
-0.00062894678
6.4846273e-05
-0.00053275209
4.8128671e-05
-0.00044178498
3.3180778e-05
-0.00035564459
2.0627952e-05
-0.00027422367
1.1067636e-05
-0.00019911732
4.6499644e-06
-0.00013173599
1.1025791e-06
-7.2895044e-05
-2.2792458e-05
0.011231949
-0.034307361
0.010411543
-0.031914436
0.0096463362
-0.029668024
0.0089329622
-0.027561629
0.0082682175
-0.025589955
0.007649099
-0.023745648
0.0070727357
-0.022023605
0.0065364363
-0.020416563
0.006037653
-0.018918385
0.00557398
-0.017522899
0.0051431518
-0.016223865
0.0047430146
-0.015016033
0.004371534
-0.013893968
0.0040268289
-0.012850909
0.0037070855
-0.01188336
0.0034106043
-0.010986087
0.0031358058
-0.010153794
0.0028811836
-0.0093829497
0.0026453475
-0.0086684628
0.0024269848
-0.0080067963
0.0022248702
-0.0073941401
0.0020378394
-0.0068276058
0.0018648259
-0.0063031887
0.0017048033
-0.005818883
0.0015568253
-0.0053713597
0.0014200381
-0.0049569626
0.0012936201
-0.0045741396
0.0011768093
-0.0042204202
0.0010688952
-0.0038937708
0.00096921217
-0.0035922585
0.00087714484
-0.0033139141
0.00079213159
-0.003056535
0.00071362977
-0.0028192791
0.00064116209
-0.0025995141
0.00057426049
-0.0023966443
0.00051249903
-0.0022088528
0.00045550732
-0.0020339795
0.00040293632
-0.0018714901
0.000354537
-0.0017189548
0.00031018864
-0.0015736234
0.0002698328
-0.0014347538
0.00023342298
-0.0013013964
0.00020082557
-0.0011727865
0.00017173857
-0.0010488562
0.00014570448
-0.00093007363
0.00012221157
-0.00081666161
0.00010077937
-0.00070953998
8.1044215e-05
-0.00060920484
6.2852204e-05
-0.0005145537
4.6285837e-05
-0.00042521123
3.1687841e-05
-0.00034104153
1.9618002e-05
-0.00026214582
1.0510832e-05
-0.0001900068
4.419285e-06
-0.00012563874
1.0492793e-06
-6.9519646e-05
-2.1738849e-05
0.011239282
-0.033427758
0.010418524
-0.031093494
0.0096528746
-0.028902202
0.0089389993
-0.026847593
0.0082737196
-0.024924525
0.007654055
-0.023125843
0.0070771514
-0.021446571
0.0065403303
-0.01987962
0.006041055
-0.018418997
0.0055769262
-0.017058665
0.0051456828
-0.015792524
0.0047451759
-0.014615435
0.0043733707
-0.013522079
0.0040283861
-0.012505846
0.0037084062
-0.011563308
0.0034117305
-0.010689344
0.0031367771
-0.0098787783
0.0028820342
-0.0091281494
0.0026461097
-0.0084324851
0.0024276875
-0.0077883249
0.0022255372
-0.0071919443
0.0020384929
-0.0066405194
0.0018654826
-0.0061301395
0.0017054783
-0.0056588428
0.0015575315
-0.0052233796
0.0014207838
-0.0048201843
0.0012944132
-0.0044477406
0.0011776557
-0.0041036366
0.0010697986
-0.0037858896
0.00097017483
-0.0034926125
0.00087816756
-0.0032218862
0.00079321501
-0.0029715635
0.00071477275
-0.0027408193
0.00064236154
-0.0025270868
0.00057551269
-0.0023297805
0.00051379603
-0.0021471224
0.00045683474
-0.0019770055
0.00040426788
-0.0018189115
0.00035581981
-0.0016704959
0.00031133124
-0.0015291247
0.00027069979
-0.001394113
0.00023385132
-0.0012645391
0.00020066962
-0.0011395966
0.00017092472
-0.0010191036
0.00014425455
-0.00090339619
0.00012023478
-0.00079263493
9.8445581e-05
-0.00068774419
7.8555439e-05
-0.00058930859
6.0430445e-05
-0.00049642274
4.4154202e-05
-0.0004089308
3.004037e-05
-0.00032692185
1.8532673e-05
-0.00025063636
9.9302555e-06
-0.00018139869
4.1808789e-06
-0.00011988737
9.9376904e-07
-6.6330738e-05
-2.0740902e-05
0.01209756
-0.034970839
0.011219381
-0.032549391
0.010399697
-0.030273634
0.0096350014
-0.028137342
0.0089219884
-0.026134426
0.0082575032
-0.024259896
0.0076385825
-0.022506789
0.0070623871
-0.020870251
0.006526249
-0.019343366
0.0060276391
-0.017920279
0.005564163
-0.016595089
0.0051335637
-0.015361831
0.0047336928
-0.014215478
0.0043625166
-0.013150823
0.0040181528
-0.012161408
0.0036987853
-0.011243872
0.0034027118
-0.010393207
0.0031283469
-0.0096043543
0.0028741795
-0.0088739273
0.0026388147
-0.0081970698
0.0024209346
-0.0075703979
0.0022193074
-0.0069902739
0.0020327664
-0.0064539384
0.0018602394
-0.0059575755
0.001700696
-0.0054992653
0.0015531894
-0.0050758415
0.0014168604
-0.0046838261
0.0012908858
-0.0043217391
0.0011745038
-0.0039872297
0.0010669999
-0.0036783628
0.00096770978
-0.0033933011
0.00087601566
-0.0031301726
0.0007913566
-0.0028868864
0.00071318821
-0.0026626343
0.00064103223
-0.0024549154
0.00057441831
-0.0022631524
0.00051291578
-0.0020856067
0.00045614315
-0.0019202208
0.0004037304
-0.0017664875
0.00035538652
-0.0016221415
0.00031092274
-0.0014846512
0.00027020293
-0.0013533841
0.00023312624
-0.0012274539
0.00019958354
-0.001106046
0.00016938987
-0.00098890247
0.0001422612
-0.00087626065
0.00011785636
-0.0007682236
9.5823607e-05
-0.00066570546
7.5880092e-05
-0.00056935945
5.79159e-05
-0.00047845353
4.2013198e-05
-0.0003930231
2.8428575e-05
-0.00031333473
1.7497891e-05
-0.00023970099
9.3733852e-06
-0.0001732739
3.9517652e-06
-0.0001144633
9.4113578e-07
-6.3317844e-05
-1.9795739e-05
0.012987784
-0.036538669
0.012050223
-0.034033088
0.011174665
-0.031673654
0.010357414
-0.029456216
0.0095949968
-0.027374769
0.0088841328
-0.025423417
0.0082216871
-0.023597314
0.0076047128
-0.021889688
0.0070303814
-0.020295801
0.0064960346
-0.018808909
0.0059991481
-0.01742329
0.005537333
-0.016133179
0.0051083337
-0.014932744
0.0047100032
-0.013817065
0.0043403094
-0.012781053
0.0039973703
-0.011818398
0.0036793687
-0.010925805
0.0033846025
-0.01009838
0.0031114873
-0.009331183
0.0028585115
-0.0086208997
0.0026242803
-0.0079627905
0.0024074763
-0.0073535496
0.0022068702
-0.0067896267
0.0020212943
-0.0062683245
0.0018496783
-0.0057859244
0.0016909951
-0.0053405497
0.0015442962
-0.0049291125
0.0014087273
-0.0045482296
0.0012834656
-0.0041964519
0.001167751
-0.0038714915
0.0010608726
-0.0035714627
0.00096216621
-0.0032945746
0.00087101772
-0.0030390055
0.00078686701
-0.0028027186
0.00070917126
-0.0025849228
0.00063745418
-0.0023831838
0.00057124538
-0.0021969301
0.0005101144
-0.0020244633
0.00045367755
-0.0018637724
0.00040156041
-0.0017143597