/*--------------------------------*- C++ -*----------------------------------*\
| =========                 |                                                 |
| \\      /  F ield         | OpenFOAM: The Open Source CFD Toolbox           |
|  \\    /   O peration     | Version:  2506                                  |
|   \\  /    A nd           | Website:  www.openfoam.com                      |
|    \\/     M anipulation  |                                                 |
\*---------------------------------------------------------------------------*/
FoamFile
{
    version     2.0;
    format      ascii;
    arch        "LSB;label=32;scalar=64";
    class       volScalarField;
    location    "0.0185";
    object      Co;
}
// * * * * * * * * * * * * * * * * * * * * * * * * * * * * * * * * * * * * * //

dimensions      [0 0 0 0 0 0 0];

internalField   nonuniform List<scalar> 
13761
(
0.00039848895
0.001237472
0.0021586757
0.0031549286
0.0041769326
0.0051317694
0.0059534075
0.0066395777
0.007216969
0.00771253
0.0081466296
0.0085339948
0.0088848753
0.00040769134
0.0012645536
0.0022030255
0.0032156357
0.0042517295
0.0052166283
0.0060440935
0.0067329493
0.0073108996
0.0078056162
0.0082380456
0.008623232
0.0089716843
0.0092908946
0.0095864949
0.0098627837
0.010123218
0.010370719
0.010607777
0.010836288
0.011058069
0.011274932
0.011488284
0.011699532
0.011910102
0.012121174
0.00041615423
0.001289552
0.0022440885
0.0032720632
0.0043216405
0.0052965233
0.0061301292
0.0068221353
0.0074011921
0.0078956543
0.008326962
0.0087104805
0.009056879
0.0093737992
0.0096670918
0.009941256
0.010199902
0.010446021
0.010682099
0.010910129
0.011132004
0.011349528
0.011564178
0.011777398
0.011990607
0.012205034
0.012421995
0.012642692
0.012868344
0.013100169
0.01333938
0.013587191
0.00042393629
0.0013126342
0.0022821906
0.0033247371
0.0043874155
0.0053724125
0.0062126585
0.0069085356
0.0074895133
0.007984567
0.0084156677
0.0087984282
0.0091437156
0.0094594036
0.0097514861
0.010024609
0.010282497
0.010528213
0.010764282
0.010992812
0.011215767
0.011434935
0.011651863
0.011868033
0.012084845
0.012303586
0.01252554
0.012751913
0.012983904
0.013222705
0.013469492
0.013725434
0.013991737
0.014269609
0.01456038
0.014865514
0.00012995009
0.00039929805
0.00069064277
0.0010050201
0.0013422982
0.0016997318
0.0020687003
0.0024343208
0.0027810708
0.0030991994
0.003386198
0.0036441455
0.0038766262
0.0040872982
0.004279509
0.0044560733
0.0046192923
0.0047710895
0.004913078
0.0050463634
0.0051719463
0.0052908407
0.0054036682
0.0055109979
0.0056134136
0.005711184
0.0058047149
0.0058942029
0.0059798342
0.0060617539
0.0061400674
0.0062148116
0.0062860663
0.0063537256
0.0064177076
0.0064779711
0.0065342098
0.0065858306
0.0066309879
0.0066647921
0.0066840404
0.0066960241
0.0067056888
0.006713901
0.0067208614
0.0067265732
0.006731098
0.0067345048
0.0067368318
0.0067381187
0.0067383964
0.0067376695
0.00012912125
0.00039668112
0.00068591378
0.00099788037
0.001332454
0.0016868503
0.002052347
0.0024140065
0.0027564218
0.0030701289
0.0033528808
0.0036068848
0.0038357741
0.0040432144
0.0042325433
0.0044065361
0.004567472
0.0047172439
0.0048574257
0.0049891171
0.0051133003
0.0052309614
0.0053427106
0.0054491028
0.0055507037
0.0056477834
0.0057407309
0.0058297365
0.0059149831
0.0059966151
0.0060747315
0.0061493715
0.0062206117
0.0062883572
0.0063525387
0.0064131248
0.0064698503
0.0065222184
0.0065686657
0.0066047014
0.0066258221
0.0066385045
0.0066485619
0.0066571222
0.00666441
0.0066704371
0.0066752668
0.0066789699
0.0066815872
0.0066831617
0.0066837271
0.0066832903
0.0066819105
0.0066795882
0.0066763655
0.0066722524
0.0066672513
0.0066613923
0.0066546909
0.0066471505
0.0066388048
0.0066296467
0.00012812495
0.00039352661
0.00068019676
0.0009892303
0.0013205301
0.0016712911
0.002032709
0.0023898219
0.0027273813
0.0030361941
0.0033142717
0.0035639479
0.0037888862
0.0039927634
0.0041788944
0.0043500333
0.0045084381
0.004655969
0.0047941528
0.0049240881
0.0050467412
0.005163058
0.0052736454
0.0053790443
0.0054797903
0.0055761555
0.0056685131
0.0057570495
0.0058419407
0.0059233248
0.0060012971
0.0060758953
0.0061471949
0.0062151094
0.0062795777
0.0063405811
0.0063978928
0.0064510992
0.0064988898
0.0065372543
0.0065606422
0.0065743124
0.0065849603
0.0065940554
0.0066018555
0.0066083821
0.0066137028
0.0066178922
0.0066209955
0.0066230565
0.0066241138
0.0066241782
0.0066233086
0.0066215099
0.0066188228
0.0066152572
0.0066108168
0.0066055296
0.0065994095
0.0065924588
0.0065847078
0.0065761466
0.0065667906
0.0065566728
0.0065458012
0.0065342001
0.0065218995
0.00012691649
0.00038970611
0.00067328332
0.00097877558
0.001306116
0.001652501
0.0020090886
0.002360946
0.0026930028
0.0029963455
0.0032692319
0.0035141055
0.0037346637
0.0039345939
0.0041171857
0.0042851746
0.004440784
0.0045858374
0.0047218288
0.0048498401
0.0049708257
0.0050856922
0.005195035
0.0052993804
0.0053992396
0.0054948785
0.0055866485
0.005674736
0.0057593029
0.0058404808
0.0059183584
0.0059929713
0.006064385
0.0061325259
0.0061973423
0.0062588211
0.0063167726
0.0063708571
0.0064199941
0.0064607097
0.0064867315
0.0065017117
0.0065131812
0.0065230469
0.0065316104
0.0065389017
0.0065449927
0.0065499592
0.006553847
0.0065567032
0.0065585664
0.00655945
0.0065594118
0.006558456
0.0065566227
0.0065539212
0.0065503527
0.0065459417
0.0065406988
0.0065346228
0.0065277391
0.0065200347
0.0065115216
0.0065022272
0.0064921553
0.0064813266
0.0064697662
0.006457512
0.0064446064
0.0064311091
0.0064170854
0.00012532029
0.00038456071
0.00066379214
0.00096423268
0.0012859216
0.0016261446
0.0019761168
0.0023210117
0.002645978
0.0029424026
0.0032087849
0.003447663
0.0036627581
0.0038577564
0.0040359339
0.0042000012
0.0043521575
0.0044941847
0.0046275092
0.0047532254
0.0048722775
0.0049855046
0.005093499
0.0051967729
0.0052957925
0.0053908355
0.0054822179
0.0055701158
0.005654686
0.005736045
0.0058142723
0.0058894
0.005961478
0.0060304462
0.006096261
0.006158908
0.0062182298
0.0062739567
0.006325212
0.0063690586
0.006398823
0.0064161448
0.0064292403
0.006440595
0.006450586
0.0064592699
0.0064667278
0.0064730432
0.0064782723
0.0064824648
0.0064856631
0.0064878823
0.0064891769
0.006489551
0.0064890399
0.0064876503
0.0064853804
0.0064822493
0.0064782634
0.0064734182
0.0064677349
0.0064611976
0.0064538146
0.0064456094
0.0064365829
0.0064267533
0.0064161434
0.0064047868
0.0063927229
0.0063800086
0.0063667057
0.0063528942
0.0063386722
0.006324168
0.00012364898
0.00037956318
0.00065508328
0.00095099954
0.0012668914
0.0016002773
0.0019436106
0.0022822057
0.0026007322
0.0028907831
0.0031510517
0.0033841553
0.0035938335
0.0037838015
0.0039573384
0.004117143
0.0042654023
0.0044038812
0.0045339821
0.0046568057
0.0047732957
0.0048842494
0.0049902557
0.0050918178
0.0051893703
0.0052832005
0.0053735904
0.0054607111
0.0055447074
0.0056256828
0.0057037035
0.005778796
0.0058509922
0.0059202383
0.0059864912
0.0060497305
0.0061098232
0.0061665389
0.006219176
0.0062653447
0.0062984368
0.0063179709
0.0063326555
0.0063456828
0.0063574857
0.0063680954
0.006377562
0.0063859385
0.0063932549
0.0063995408
0.0064048199
0.0064090959
0.0064124101
0.0064147599
0.006416172
0.006416648
0.0064161844
0.006414797
0.0064124909
0.0064092607
0.0064051249
0.0064000689
0.0063940999
0.0063872407
0.0063794933
0.0063708743
0.0063614056
0.0063511213
0.0063400595
0.0063282744
0.0063158268
0.0063027949
0.0062892732
0.0062753861
0.0062612637
0.0062470732
0.0062330019
0.00012210742
0.00037520564
0.00064843652
0.00094294783
0.0012587002
0.001592836
0.0019363457
0.0022742362
0.0025917308
0.0028804781
0.0031392362
0.0033706766
0.0035785709
0.0037666438
0.0039381778
0.0040958888
0.0042419931
0.004378286
0.0045062042
0.0046268595
0.0047412149
0.0048501058
0.0049541371
0.0050538259
0.0051496217
0.0052418118
0.0053306919
0.0054164386
0.0054991951
0.005579065
0.0056561142
0.0057303675
0.0058018583
0.0058705344
0.0059363578
0.0059993179
0.0060593046
0.0061161441
0.0061692758
0.0062167543
0.0062522446
0.0062729752
0.0062877075
0.0063005411
0.0063120765
0.0063223851
0.0063315421
0.0063396218
0.00634667
0.0063527274
0.0063578267
0.0063619765
0.0063652185
0.0063675493
0.0063689939
0.0063695509
0.0063692125
0.0063679901
0.0063658832
0.006362882
0.0063590005
0.0063542198
0.0063485423
0.0063419857
0.0063345469
0.0063262388
0.0063170791
0.0063070963
0.0062963239
0.0062848118
0.0062726148
0.0062598048
0.0062464715
0.0062327328
0.0062187114
0.0062045674
0.0061904805
0.0061766522
0.0061633155
0.00012134566
0.0003732998
0.0006460876
0.0009407406
0.0012570549
0.0015919607
0.0019362324
0.002274689
0.0025925429
0.0028815363
0.0031404643
0.0033720367
0.0035800161
0.0037680644
0.003939425
0.0040967864
0.0042423499
0.0043779196
0.0045049618
0.0046245849
0.0047377657
0.0048453773
0.0049480406
0.0050462944
0.0051406221
0.0052313193
0.0053187057
0.0054029702
0.0054842667
0.0055627103
0.0056383757
0.0057112943
0.0057815097
0.0058489711
0.0059136533
0.0059755651
0.0060346189
0.006090695
0.0061433629
0.0061910601
0.0062279913
0.0062493345
0.0062634198
0.0062753896
0.006286044
0.0062954657
0.0063037325
0.0063109209
0.0063170831
0.0063222683
0.006326516
0.0063298423
0.0063322972
0.0063338849
0.0063346353
0.0063345509
0.0063336269
0.0063318761
0.0063292978
0.0063258811
0.0063216372
0.0063165444
0.0063106022
0.006303823
0.0062961999
0.0062877407
0.0062784578
0.0062683745
0.006257518
0.0062459315
0.0062336644
0.0062207823
0.0062073666
0.0061935279
0.0061793813
0.0061650783
0.0061507901
0.0061367091
0.0061230591
0.0061100917
0.0060980803
0.00012065752
0.00037120362
0.00064255319
0.00093574468
0.0012505719
0.0015839207
0.001926496
0.0022631124
0.0025790995
0.0028663813
0.0031238714
0.0033543117
0.0035614399
0.0037488465
0.003919713
0.0040766728
0.0042218693
0.0043570703
0.0044837257
0.0046029094
0.0047155799
0.0048226278
0.0049246644
0.0050222296
0.0051158292
0.005205764
0.0052923677
0.0053758373
0.0054563383
0.0055339959
0.005608895
0.0056810723
0.0057505798
0.0058173719
0.0058814253
0.0059427623
0.0060013128
0.0060569921
0.0061094599
0.0061574657
0.0061959174
0.0062183419
0.0062321158
0.0062435376
0.0062536795
0.0062626376
0.00627048
0.0062772761
0.0062830688
0.0062878981
0.0062918011
0.0062947912
0.0062969165
0.0062981811
0.0062986164
0.0062982284
0.0062970148
0.0062949903
0.0062921579
0.0062885094
0.0062840571
0.0062787805
0.0062726785
0.006265764
0.006258028
0.0062494761
0.0062401178
0.0062299727
0.0062190648
0.0062074331
0.0061951205
0.0061821873
0.0061687097
0.0061547904
0.0061405379
0.0061260957
0.0061116271
0.0060973157
0.006083377
0.006070054
0.0060576109
0.0060463305
0.00011992568
0.00036891327
0.00063851108
0.00092977581
0.0012425048
0.0015735717
0.0019136395
0.0022475291
0.0025607207
0.0028453461
0.0031004612
0.0033288591
0.003534272
0.0037202683
0.0038899887
0.0040460109
0.0041904342
0.0043249837
0.0044510758
0.0045697587
0.0046819615
0.0047885548
0.0048901397
0.0049872555
0.0050804023
0.0051698785
0.0052560266
0.0053390448
0.0054191091
0.005496352
0.0055708609
0.0056426809
0.0057118695
0.0057783866
0.0058422184
0.0059033934
0.0059618579
0.0060175564
0.0060702234
0.0061188648
0.0061591285
0.0061833366
0.0061973169
0.0062085362
0.0062184444
0.0062271741
0.0062347984
0.0062413861
0.006246982
0.0062516279
0.0062553581
0.0062581854
0.0062601565
0.0062612752
0.0062615718
0.0062610506
0.0062597094
0.006257565
0.00625462
0.0062508664
0.0062463184
0.0062409573
0.006234782
0.0062278056
0.0062200195
0.0062114281
0.0062020397
0.0061918719
0.006180945
0.006169295
0.0061569616
0.0061439997
0.00613048
0.0061165001
0.0061021615
0.0060876004
0.0060729725
0.0060584532
0.0060442499
0.0060305969
0.0060177505
0.0060059858
0.005995598
0.0059868965
0.00011919291
0.00036664544
0.00063455221
0.0009239704
0.0012346939
0.0015635512
0.0019011465
0.0022323136
0.0025426614
0.0028245141
0.0030770635
0.003303166
0.0035065747
0.0036908347
0.003859057
0.0040137942
0.004157116
0.0042907193
0.0044159896
0.0045339475
0.0046455045
0.0047515146
0.0048525638
0.004949174
0.0050418369
0.0051308485
0.0052165529
0.0052991497
0.0053788115
0.0054556752
0.0055298362
0.0056013436
0.0056702608
0.0057365511
0.0058002084
0.0058612727
0.0059197018
0.0059754697
0.0060283771
0.0060776415
0.0061196373
0.0061459866
0.0061604849
0.0061716902
0.0061815331
0.0061901935
0.0061977474
0.0062042652
0.0062097911
0.0062143666
0.0062180282
0.0062207902
0.0062226996
0.0062237604
0.0062240035
0.0062234335
0.0062220491
0.0062198656
0.0062168864
0.006213105
0.0062085338
0.0062031546
0.0061969678
0.0061899852
0.006182198
0.0061736105
0.0061642301
0.0061540725
0.0061431564
0.0061315147
0.006119184
0.006106215
0.0060926738
0.0060786524
0.0060642469
0.0060495864
0.0060348194
0.0060201145
0.0060056704
0.0059917133
0.0059784917
0.0059662728
0.0059553452
0.0059460125
0.0059385734
0.00011844416
0.00036434191
0.00063055334
0.00091813564
0.0012268731
0.0015535541
0.0018887173
0.0022171879
0.002524707
0.0028037815
0.0030537456
0.0032775097
0.0034788239
0.0036612306
0.0038278193
0.0039811223
0.004123184
0.0042556794
0.0043799752
0.0044970719
0.0046078623
0.0047131858
0.0048136134
0.0049096567
0.0050018007
0.0050903338
0.0051755909
0.0052577698
0.0053370489
0.0054135638
0.0054874094
0.0055586366
0.0056273152
0.0056934153
0.0057569336
0.0058179176
0.00587634
0.0059321979
0.0059853465
0.0060351775
0.0060787246
0.0061074078
0.0061226485
0.0061339122
0.0061437462
0.0061523962
0.006159942
0.0061664534
0.0061719734
0.006176544
0.0061802021
0.0061829614
0.0061848694
0.0061859303
0.0061861753
0.0061856106
0.0061842339
0.0061820616
0.0061790971
0.0061753335
0.0061707845
0.0061654311
0.0061592736
0.0061523236
0.0061445722
0.0061360222
0.0061266801
0.006116561
0.0061056813
0.0060940711
0.006081764
0.0060688082
0.0060552649
0.0060412211
0.0060267674
0.0060120271
0.0059971415
0.0059822723
0.0059676104
0.0059533742
0.0059398041
0.00592716
0.0059157239
0.0059057941
0.0058976642
0.0058916329
0.0001177071
0.00036207746
0.0006266293
0.00091241742
0.0012192113
0.0015437523
0.0018765202
0.0022023367
0.0025070624
0.0027833944
0.0030307908
0.0032522162
0.0034514264
0.0036319539
0.00379687
0.0039486729
0.0040893967
0.0042206989
0.0043439272
0.0044600747
0.0045700146
0.0046745701
0.0047743079
0.0048697268
0.0049613026
0.0050493168
0.0051341001
0.0052158505
0.0052947391
0.005370901
0.0054444349
0.0055153939
0.0055838469
0.0056497676
0.0057131581
0.005774073
0.0058324967
0.0058884444
0.0059418191
0.0059921558
0.0060370631
0.0060681848
0.0060843931
0.0060957649
0.0061056113
0.0061142715
0.0061218315
0.0061283594
0.0061338995
0.0061384932
0.0061421763
0.006144964
0.0061469028
0.0061479976
0.0061482784
0.0061477513
0.0061464154
0.0061442863
0.0061413681
0.0061376539
0.0061331568
0.0061278584
0.0061217586
0.0061148685
0.0061071782
0.006098691
0.0060894118
0.006079353
0.0060685302
0.0060569716
0.0060447077
0.0060317826
0.0060182549
0.0060042067
0.0059897228
0.0059749212
0.0059599368
0.0059449239
0.0059300666
0.0059155753
0.0059016833
0.0058886429
0.0058767289
0.0058662338
0.0058574477
0.0058506669
0.0058461651
0.0058441915
0.00011695967
0.00035979071
0.00062267952
0.00090667618
0.0012115386
0.0015339705
0.0018643735
0.0021875633
0.0024895367
0.0027631655
0.0030080316
0.0032271484
0.0034242809
0.0036029376
0.0037661677
0.0039164611
0.0040558289
0.0041859097
0.0043080361
0.0044231828
0.0045322231
0.0046359686
0.0047349679
0.0048297194
0.0049206884
0.0050081529
0.0050924408
0.0051737421
0.0052522263
0.0053280315
0.0054012536
0.0054719448
0.0055401755
0.0056059222
0.0056691934
0.0057300465
0.0057884745
0.0058445109
0.0058980963
0.0059488834
0.00599497
0.0060285559
0.0060459791
0.0060575136
0.0060673896
0.0060760729
0.006083658
0.0060902153
0.0060957883
0.0061004184
0.0061041412
0.0061069717
0.0061089566
0.0061101004
0.0061104339
0.006109963
0.0061086866
0.0061066204
0.0061037679
0.0061001226
0.0060956975
0.0060904742
0.0060844516
0.0060776401
0.0060700304
0.0060616241
0.0060524247
0.0060424443
0.006031696
0.0060202053
0.0060080007
0.0059951234
0.0059816275
0.0059675905
0.0059530936
0.0059382485
0.0059231841
0.0059080481
0.0058930173
0.0058782949
0.0058641061
0.0058506967
0.0058383346
0.0058273063
0.005817898
0.005810403
0.005805095
0.0058022257
0.0058020031
0.0001162292
0.00035755031
0.00061880425
0.00090104071
0.0012040015
0.0015243378
0.0018523942
0.0021729923
0.0024722445
0.0027432013
0.0029855705
0.0032024044
0.0033974727
0.0035742765
0.003735837
0.0038846208
0.004022623
0.0041514649
0.0042724654
0.004386594
0.0044947043
0.004597602
0.0046958344
0.0047898845
0.0048802158
0.0049671039
0.0050508688
0.0051316998
0.0052097658
0.0052852002
0.0053581002
0.0054285184
0.0054965226
0.0055620952
0.0056252455
0.0056860346
0.0057444649
0.0058005828
0.0058543632
0.0059055546
0.0059526567
0.005988654
0.006007556
0.006019317
0.0060292329
0.0060379483
0.0060455688
0.0060521634
0.0060577768
0.0060624505
0.0060662206
0.0060691021
0.0060711414
0.0060723438
0.0060727395
0.0060723346
0.0060711282
0.0060691357
0.0060663604
0.0060627961
0.0060584549
0.0060533185
0.006047386
0.0060406673
0.0060331513
0.0060248389
0.0060157337
0.006005845
0.0059951843
0.0059837756
0.0059716444
0.0059588287
0.0059453792
0.0059313698
0.0059168759
0.0059020041
0.0058868777
0.0058716379
0.0058564543
0.005841523
0.0058270627
0.005813311
0.0058005294
0.0057889992
0.0057790012
0.0057708261
0.0057647474
0.0057610189
0.0057598539
0.0057614118
0.00011549261
0.00035529721
0.00061491635
0.00089539284
0.0011964551
0.0015147179
0.0018404544
0.002158477
0.0024550351
0.0027233568
0.002963262
0.0031778531
0.0033708956
0.003545865
0.0037057723
0.0038530668
0.0039897138
0.0041173226
0.0042371994
0.0043502984
0.0044574728
0.0045595115
0.0046569533
0.0047502869
0.0048399652
0.0049262562
0.0050094789
0.0050898231
0.0051674558
0.005242507
0.0053150735
0.0053852096
0.0054529844
0.0055183784
0.0055814046
0.0056421271
0.0057005556
0.0057567491
0.005810709
0.0058622649
0.0059102458
0.0059485402
0.0059691883
0.0059812554
0.0059912255
0.0059999778
0.0060076367
0.0060142747
0.0060199344
0.0060246566
0.0060284792
0.0060314175
0.0060335169
0.0060347829
0.006035246
0.0060349127
0.0060337822
0.0060318695
0.0060291783
0.0060257024
0.0060214531
0.0060164123
0.0060105788
0.0060039609
0.0059965483
0.0059883404
0.0059793387
0.0059695522
0.0059589909
0.0059476755
0.0059356296
0.0059228883
0.0059094986
0.0058955297
0.0058810534
0.0058661709
0.0058509993
0.0058356741
0.0058203583
0.0058052406
0.0057905323
0.0057764646
0.0057632922
0.0057512896
0.0057407339
0.0057319124
0.0057250975
0.0057205454
0.0057184741
0.0057190508
0.0057223751
0.00011476907
0.00035308051
0.00061108424
0.00088982166
0.0011890071
0.0015052023
0.001828623
0.002144096
0.0024379928
0.0027037091
0.0029411832
0.0031535573
0.0033445941
0.0035177585
0.0036760372
0.0038218486
0.0039571509
0.0040835359
0.0042022877
0.0043143617
0.0044205953
0.004521768
0.0046184184
0.0047110203
0.0048000252
0.0048857054
0.0049683748
0.005048217
0.0051253993
0.0052000549
0.0052722761
0.0053421183
0.0054096514
0.0054748582
0.0055377547
0.0055984057
0.005656826
0.0057130862
0.0057672109
0.0058190956
0.0058678383
0.0059082638
0.0059309185
0.0059433902
0.0059534246
0.005962219
0.0059699227
0.0059766061
0.0059823148
0.00598709
0.0059909677
0.0059939648
0.0059961274
0.0059974612
0.0059979958
0.0059977375
0.0059966867
0.0059948584
0.0059922557
0.0059888722
0.0059847197
0.0059797801
0.0059740511
0.0059675407
0.0059602376
0.0059521408
0.0059432511
0.0059335755
0.0059231217
0.0059119094
0.0058999589
0.0058873026
0.005873984
0.0058600687
0.005845624
0.0058307457
0.0058155454
0.0058001525
0.0057847236
0.0057694409
0.0057545079
0.0057401492
0.0057266126
0.005714167
0.0057030845
0.0056936492
0.0056861326
0.0056807918
0.0056778488
0.0056774788
0.0056797927
0.00011403152
0.00035082923
0.0006072044
0.00088419129
0.0011814943
0.0014956373
0.0018167657
0.0021297078
0.002420969
0.0026841158
0.0029191973
0.003129387
0.0033184532
0.003489844
0.0036465155
0.0037908734
0.0039248538
0.0040500268
0.0041676724
0.0042787268
0.004384021
0.0044843312
0.0045801863
0.0046720576
0.0047603894
0.0048454528
0.004927557
0.0050068875
0.0050836114
0.0051578589
0.0052297257
0.0052992665
0.0053665513
0.005431565
0.0054943226
0.0055548947
0.0056133006
0.0056696185
0.0057238937
0.0057760767
0.0058254835
0.0058678428
0.0058927418
0.0059057429
0.0059158579
0.0059246977
0.0059324469
0.0059391797
0.0059449398
0.0059497695
0.0059537061
0.0059567653
0.005958993
0.005960396
0.0059610038
0.0059608235
0.0059598551
0.0059581133
0.0059556018
0.0059523145
0.0059482623
0.0059434269
0.0059378062
0.0059314079
0.0059242198
0.0059162402
0.0059074679
0.0058979094
0.005887571
0.0058764694
0.005864623
0.0058520613
0.0058388249
0.0058249751
0.0058105742
0.0057957138
0.0057805004
0.0057650568
0.0057495334
0.0057341056
0.0057189701
0.0057043445
0.0056904703
0.0056776103
0.0056660315
0.0056560147
0.0056478294
0.0056417337
0.0056379538
0.0056366715
0.0056380078
0.005642008
0.0001133128
0.0003486274
0.00060340007
0.00087866392
0.0011741058
0.0014862009
0.0018050471
0.0021154795
0.0024041248
0.0026647252
0.00289744
0.0031054781
0.0032925968
0.003462229
0.003617314
0.0037602323
0.0038929008
0.0040168771
0.0041334186
0.0042434598
0.0043478254
0.0044472739
0.0045423282
0.0046334628
0.0047211175
0.0048055551
0.0048870856
0.0049658954
0.0050421508
0.0051159811
0.005187481
0.0052567087
0.005323732
0.0053885393
0.0054511498
0.0055116334
0.0055700145
0.0056263772
0.0056807878
0.0057332423
0.0057832317
0.00582731
0.0058546493
0.0058683314
0.005878545
0.0058874336
0.0058952309
0.0059020141
0.0059078282
0.0059127143
0.0059167103
0.0059198332
0.0059221278
0.0059236017
0.0059242847
0.0059241838
0.0059232996
0.0059216469
0.0059192288
0.0059160395
0.00591209
0.0059073625
0.0059018537
0.0058955707
0.0058885013
0.0058806425
0.0058719934
0.0058625576
0.0058523401
0.0058413563
0.005829622
0.0058171638
0.0058040187
0.0057902444
0.0057758995
0.0057610703
0.0057458579
0.0057303797
0.0057147797
0.0056992263
0.00568391
0.0056690413
0.0056548552
0.0056416081
0.0056295621
0.0056189944
0.0056101729
0.0056033559
0.0055987728
0.0055966117
0.0055970032
0.0056000056
0.00560559
0.00011259687
0.00034643513
0.00059961302
0.00087315771
0.0011667421
0.0014768051
0.0017933768
0.0021013083
0.0023873687
0.0026454563
0.0028758305
0.0030817373
0.0032669336
0.0034348316
0.0035883475
0.0037298439
0.0038612151
0.0039840031
0.0040994579
0.0042084982
0.0043119353
0.0044105239
0.0045047897
0.0045951907
0.004682164
0.0047659762
0.0048469304
0.0049252155
0.0050009945
0.0050743988
0.0051455255
0.0052144308
0.0052811852
0.0053457786
0.0054082321
0.0054686164
0.0055269615
0.0055833605
0.0056378913
0.0056905908
0.0057410943
0.0057866778
0.0058166003
0.0058311468
0.0058414829
0.0058504238
0.005858272
0.0058651077
0.0058709769
0.0058759217
0.0058799792
0.0058831669
0.0058855301
0.0058870769
0.0058878368
0.0058878168
0.005887018
0.0058854557
0.0058831332
0.0058800444
0.0058761999
0.0058715816
0.0058661874
0.0058600232
0.0058530761
0.0058453427
0.00583682
0.0058275121
0.0058174217
0.0058065616
0.0057949459
0.0057825988
0.0057695539
0.0057558649
0.0057415871
0.0057268014
0.0057116037
0.0056961063
0.0056804463
0.0056647864
0.0056493098
0.0056342206
0.0056197471
0.0056061397
0.0055936555
0.0055825673
0.0055731412
0.0055656356
0.0055602826
0.0055572757
0.0055567548
0.0055587907
0.0055633693
0.0055703815
0.00011187974
0.00034423835
0.00059581482
0.00086763762
0.0011593651
0.0014673879
0.0017816951
0.0020871472
0.0023706382
0.0026262357
0.0028542995
0.0030581089
0.0032414116
0.0034075975
0.0035595683
0.0036996622
0.0038297544
0.0039513741
0.0040657506
0.0041737949
0.0042763169
0.0043740592
0.0044675366
0.0045572084
0.0046435041
0.0047266911
0.0048070716
0.0048848292
0.0049601299
0.0050331049
0.0051038514
0.0051724265
0.0052389036
0.0053032753
0.0053655628
0.0054258403
0.0054841415
0.0055405651
0.0055952017
0.0056481221
0.0056990798
0.0057459681
0.0057785547
0.0057941795
0.0058046693
0.0058136676
0.0058215691
0.0058284604
0.0058343873
0.0058393916
0.0058435119
0.0058467666
0.0058492005
0.0058508218
0.0058516598
0.0058517228
0.0058510119
0.005849542
0.0058473168
0.0058443303
0.0058405932
0.005836088
0.0058308109
0.0058247682
0.0058179466
0.0058103418
0.0058019506
0.0057927748
0.0057828161
0.0057720857
0.0057605955
0.0057483664
0.0057354297
0.0057218356
0.0057076347
0.005692904
0.0056777341
0.0056622315
0.0056465283
0.0056307796
0.0056151626
0.0055998749
0.0055851378
0.005571196
0.0055583014
0.0055467223
0.0055367225
0.0055285601
0.0055224695
0.0055186497
0.0055172484
0.005518348
0.0055219497
0.0055279618
0.0055361907
0.00011116756
0.00034205769
0.00059204808
0.00086215744
0.0011520312
0.0014580275
0.0017700733
0.002073055
0.0023540026
0.0026071384
0.002832919
0.0030346458
0.0032160697
0.0033805671
0.0035310071
0.0036697101
0.0037985369
0.0039189948
0.0040323038
0.0041393655
0.0042409781
0.004337876
0.004430569
0.0045195141
0.0046051364
0.0046876981
0.0047675009
0.0048447281
0.0049195458
0.0049920865
0.0050624468
0.0051306886
0.0051968813
0.0052610212
0.0053231336
0.0053832943
0.0054415409
0.0054979749
0.0055527023
0.005605821
0.0056571834
0.0057051953
0.0057404537
0.0057573995
0.0057680852
0.0057771457
0.005785103
0.0057920519
0.0057980383
0.0058031056
0.0058072916
0.0058106156
0.0058131219
0.0058148197
0.0058157389
0.0058158872
0.0058152663
0.0058138913
0.0058117662
0.0058088854
0.0058052588
0.0058008689
0.0057957126
0.0057897952
0.0057831028
0.0057756307
0.0057673748
0.0057583358
0.0057485139
0.0057379186
0.0057265596
0.0057144559
0.0057016352
0.0056881441
0.00567403
0.0056593652
0.0056442357
0.005628742
0.0056130103
0.0055971905
0.0055814525
0.0055659871
0.0055510099
0.0055367587
0.0055234801
0.0055114388
0.0055008955
0.0054921077
0.0054853115
0.0054807105
0.0054784603
0.005478654
0.005481307
0.005486345
0.0054935933
0.00011045173
0.00033986415
0.00058825556
0.00085664178
0.0011446566
0.0014486154
0.0017584021
0.0020589273
0.0023373468
0.0025880395
0.0028115577
0.0030112341
0.0031908082
0.003353635
0.0035025606
0.0036398861
0.0037674605
0.0038867721
0.0039990252
0.0041051142
0.0042058267
0.004301889
0.0043938086
0.0044820338
0.0045669843
0.0046489253
0.0047281513
0.0048048492
0.0048791839
0.0049512883
0.0050212612
0.0050891627
0.0051550649
0.005218968
0.0052809003
0.0053409359
0.0053991167
0.0054555528
0.0055103583
0.0055636554
0.0056153792
0.0056643569
0.0057022305
0.0057207628
0.0057316996
0.0057408316
0.0057488494
0.0057558591
0.0057619094
0.0057670433
0.0057712988
0.0057746956
0.0057772785
0.0057790568
0.0057800602
0.0057802974
0.0057797708
0.005778495
0.0057764737
0.0057737018
0.0057701895
0.0057659197
0.0057608885
0.0057551001
0.0057485412
0.0057412065
0.0057330906
0.0057241931
0.0057145134
0.005704059
0.0056928371
0.0056808647
0.0056681675
0.0056547881
0.0056407699
0.0056261812
0.0056111033
0.0055956318
0.005579887
0.0055640122
0.0055481714
0.0055325487
0.0055173533
0.0055028171
0.005489181
0.0054767053
0.0054656481
0.0054562656
0.005448795
0.0054434442
0.0054403758
0.0054396935
0.0054414264
0.0054455157
0.0054518064
0.0054600402
0.00010974045
0.00033768425
0.00058448411
0.00085115147
0.0011373056
0.0014392286
0.0017467584
0.0020448274
0.0023207311
0.0025690005
0.0027902789
0.0029879197
0.003165653
0.0033268177
0.0034742451
0.0036102121
0.0037365413
0.0038547126
0.0039659125
0.0040710309
0.0041708485
0.0042660787
0.0043572223
0.0044447291
0.0045290123
0.004610332
0.0046889849
0.0047651548
0.004839006
0.0049106721
0.0049802512
0.0050478074
0.0051134149
0.005177075
0.0052388172
0.0052987191
0.0053568268
0.0054132525
0.0054681203
0.0055215764
0.0055736248
0.005623435
0.0056638045
0.0056842019
0.0056954617
0.0057046738
0.0057127571
0.0057198349
0.0057259552
0.005731161
0.0057354917
0.0057389671
0.0057416322
0.0057434969
0.0057445912
0.005744924
0.0057444971
0.0057433262
0.0057414154
0.0057387591
0.0057353671
0.0057312223
0.0057263211
0.0057206679
0.0057142482
0.0057070559
0.0056990852
0.0056903349
0.0056808024
0.005670494
0.0056594158
0.0056475818
0.0056350147
0.0056217546
0.0056078413
0.0055933389
0.0055783238
0.0055628869
0.0055471431
0.0055312293
0.0055153034
0.0054995433
0.0054841512
0.0054693533
0.0054553852
0.0054425022
0.0054309593
0.0054210116
0.0054128973
0.0054068277
0.0054029721
0.0054014436
0.0054022838
0.0054054506
0.0054108065
0.0054181136
0.005427029
0.0001090221
0.00033547929
0.00058066414
0.00084558754
0.0011298562
0.0014297148
0.0017349675
0.0020305765
0.002303966
0.0025498158
0.0027688574
0.0029644712
0.0031403725
0.0032998874
0.0034458181
0.0035804226
0.0037055136
0.0038225493
0.0039327057
0.0040368598
0.0041357859
0.004230191
0.004320569
0.0044073603
0.0044909777
0.0045716829
0.0046497643
0.0047254081
0.0047987801
0.0048700108
0.0049392007
0.0050064156
0.0050717286
0.0051351449
0.005196698
0.0052564663
0.0053144982
0.0053709112
0.0054258382
0.0054794435
0.0055317931
0.0055823317
0.0056250369
0.0056475893
0.0056592723
0.0056685874
0.0056767511
0.005683908
0.0056901095
0.0056953993
0.0056998163
0.0057033819
0.0057061404
0.0057081023
0.0057092975
0.0057097356
0.0057094191
0.0057083626
0.0057065706
0.0057040384
0.0057007752
0.005696764
0.0056920006
0.0056864891
0.0056802148
0.0056731716
0.0056653525
0.0056567549
0.005647376
0.00563722
0.0056262911
0.005614602
0.0056021722
0.0055890389
0.0055752391
0.0055608325
0.0055458911
0.005530501
0.0055147713
0.0054988336
0.0054828395
0.0054669605
0.0054513928
0.0054363561
0.0054220805
0.0054088168
0.0053968165
0.0053863327
0.0053776045
0.0053708463
0.0053662333
0.0053638878
0.0053638633
0.0053661326
0.0053705765
0.0053769767
0.0053850109
0.00010830252
0.00033327151
0.00057683761
0.00084000715
0.0011223823
0.0014201724
0.0017231405
0.002016288
0.0022871693
0.0025306126
0.002747428
0.0029410153
0.0031150909
0.0032729565
0.0034173927
0.0035506368
0.0036744843
0.00379038
0.0038994822
0.0040026642
0.0041006952
0.0041942646
0.0042838664
0.0043699412
0.0044528895
0.0045329727
0.0046104814
0.0046855975
0.004758483
0.004829274
0.0048980711
0.0049649394
0.0050299543
0.0050931243
0.0051544825
0.0052141105
0.0052720613
0.0053284538