/*--------------------------------*- C++ -*----------------------------------*\
| =========                 |                                                 |
| \\      /  F ield         | OpenFOAM: The Open Source CFD Toolbox           |
|  \\    /   O peration     | Version:  2506                                  |
|   \\  /    A nd           | Website:  www.openfoam.com                      |
|    \\/     M anipulation  |                                                 |
\*---------------------------------------------------------------------------*/
FoamFile
{
    version     2.0;
    format      ascii;
    arch        "LSB;label=32;scalar=64";
    class       volScalarField;
    location    "0.0185";
    object      Ma;
}
// * * * * * * * * * * * * * * * * * * * * * * * * * * * * * * * * * * * * * //

dimensions      [0 0 0 0 0 0 0];

internalField   nonuniform List<scalar> 
13761
(
0.010424201
0.032276722
0.056097347
0.081713551
0.10786275
0.13215782
0.15291892
0.17013005
0.18451392
0.19679009
0.20750656
0.21704893
0.22568396
0.010530947
0.032592644
0.056624188
0.082444207
0.10876566
0.13317841
0.15400925
0.17126091
0.18566802
0.19795628
0.20867747
0.21822021
0.22685367
0.23477269
0.24212342
0.24901774
0.25554381
0.26177209
0.26775867
0.27355153
0.27919425
0.28472429
0.29017495
0.29557786
0.30096196
0.30635488
0.010606748
0.032817774
0.057000833
0.082968088
0.10941392
0.1339101
0.15478784
0.17206392
0.186482
0.19877234
0.20948925
0.21902304
0.2276442
0.23554868
0.24288367
0.24976199
0.25627272
0.26248716
0.26846224
0.27424672
0.27988487
0.28541476
0.29087021
0.2962833
0.30168335
0.30709853
0.31255625
0.31808313
0.32370605
0.32945205
0.3353486
0.34142399
0.01066091
0.032978371
0.057269181
0.083340675
0.10987304
0.13442385
0.15532772
0.1726127
0.18702979
0.19931284
0.21001812
0.21953733
0.22814203
0.23602925
0.24334713
0.25020941
0.25670603
0.26290913
0.2688764
0.27465727
0.28029667
0.2858332
0.29130118
0.29673307
0.3021585
0.30760587
0.3131027
0.31867566
0.32435151
0.33015709
0.33611947
0.34226651
0.3486268
0.35523079
0.36211204
0.36930687
0.0032075257
0.0098286287
0.016938047
0.024559226
0.032687173
0.04125406
0.0500497
0.058716868
0.06688588
0.074329948
0.081000048
0.086951824
0.092275172
0.097063296
0.10139971
0.10535433
0.10898467
0.11233737
0.11544969
0.11835287
0.121074
0.1236352
0.12605483
0.12834863
0.13052943
0.13260782
0.13459237
0.13648967
0.1383047
0.14004085
0.14169995
0.14328253
0.14478774
0.14621364
0.14755709
0.14881296
0.149972
0.15101407
0.15188448
0.15244417
0.15261454
0.15260876
0.1525725
0.15253012
0.15248359
0.15243294
0.15237811
0.1523191
0.15225603
0.152189
0.15211794
0.15204283
0.0032363748
0.0099188339
0.017096263
0.024792687
0.033002828
0.041656199
0.05053598
0.059276814
0.067505291
0.074996826
0.081706782
0.087694316
0.093051422
0.097872384
0.10224119
0.10622792
0.10989002
0.11327396
0.11641679
0.1193495
0.12209896
0.12468709
0.12713207
0.12944957
0.13165234
0.13375104
0.13575433
0.13766897
0.13950021
0.14125174
0.14292577
0.14452322
0.1460437
0.14748571
0.14884667
0.15012209
0.15130386
0.15237439
0.15328603
0.15390783
0.15412196
0.15412253
0.15408326
0.15403684
0.15398599
0.15393081
0.15387121
0.1538072
0.15373891
0.1536664
0.15358961
0.15350852
0.15342322
0.15333387
0.15324067
0.15314393
0.15304406
0.15294158
0.15283715
0.15273162
0.15262599
0.15252156
0.0032610815
0.0099967009
0.017233759
0.02499696
0.033280879
0.042012596
0.050969054
0.059777203
0.068060119
0.075595322
0.082342297
0.088363485
0.09375282
0.098605579
0.10300619
0.10702484
0.11071891
0.11413472
0.11730907
0.12027268
0.12305218
0.12566926
0.12814189
0.13048558
0.132713
0.13483476
0.13685955
0.13879426
0.14064431
0.14241363
0.14410475
0.14571897
0.14725629
0.14871571
0.15009517
0.15139087
0.15259582
0.15369482
0.15464677
0.1553315
0.15559765
0.1556085
0.15556713
0.15551729
0.1554628
0.1554038
0.15534023
0.15527209
0.15519949
0.15512249
0.15504103
0.15495508
0.15486474
0.15477013
0.15467147
0.15456906
0.15446327
0.15435462
0.15424374
0.15413143
0.1540187
0.15390675
0.15379707
0.15369147
0.15359209
0.15350153
0.15342286
0.0032800119
0.010057447
0.017342634
0.0251611
0.033507503
0.042306834
0.051330341
0.060197819
0.068529015
0.076103289
0.082883875
0.088936193
0.094355924
0.099239227
0.10367089
0.10772119
0.11144742
0.11489571
0.11810258
0.12109851
0.12390984
0.12655798
0.12906067
0.13143324
0.13368818
0.13583601
0.13788542
0.13984331
0.14171522
0.14350527
0.14521624
0.14684976
0.14840622
0.14988505
0.15128474
0.15260221
0.15383153
0.15495976
0.15595193
0.15670051
0.15702807
0.15705484
0.15701295
0.15696082
0.15690385
0.15684226
0.15677601
0.15670512
0.15662966
0.15654968
0.15646512
0.15637595
0.15628224
0.1561841
0.15608173
0.15597538
0.15586542
0.1557523
0.15563663
0.15551916
0.15540084
0.15528284
0.15516658
0.15505378
0.15494654
0.15484735
0.15475921
0.15468563
0.15463081
0.15459966
0.15459793
0.0032928366
0.010099677
0.017419929
0.025280026
0.03367497
0.042528248
0.051606422
0.060523112
0.068895043
0.076503015
0.083313375
0.089394062
0.094842227
0.099754746
0.10421669
0.10829836
0.11205694
0.11553834
0.11877883
0.12180856
0.12465357
0.127335
0.12987031
0.13227458
0.1345601
0.13673725
0.1388146
0.14079906
0.14269619
0.14451025
0.1462442
0.14789993
0.14947819
0.15097883
0.15240085
0.15374187
0.15499704
0.15615558
0.15718826
0.15800146
0.1584005
0.15845054
0.15841015
0.15835714
0.15829921
0.15823673
0.15816965
0.15809796
0.15802172
0.15794093
0.1578555
0.15776538
0.15767058
0.15757119
0.15746735
0.15735928
0.15724727
0.15713175
0.15701326
0.15689251
0.15677037
0.15664797
0.15652667
0.15640811
0.15629431
0.1561877
0.15609116
0.15600813
0.15594265
0.15589951
0.15588428
0.15590347
0.15596457
0.15607619
0.0032885501
0.010092581
0.017416873
0.025289356
0.033706092
0.042589934
0.051703657
0.060655009
0.069057217
0.076691609
0.083526785
0.089632619
0.095107346
0.1000483
0.10454067
0.10865465
0.11244722
0.11596403
0.119241
0.12230794
0.12519057
0.12790969
0.13048243
0.13292361
0.13524526
0.13745756
0.13956895
0.14158623
0.14351497
0.14535946
0.14712281
0.14880711
0.15041339
0.15194188
0.15339209
0.15476228
0.15604864
0.15724247
0.15831989
0.15920199
0.15968692
0.15977345
0.15974018
0.1596905
0.15963562
0.15957612
0.15951194
0.15944305
0.15936949
0.1592912
0.15920808
0.15912004
0.15902705
0.15892916
0.15882647
0.15871914
0.15860743
0.15849172
0.15837249
0.1582504
0.15812627
0.15800117
0.15787639
0.15775353
0.15763452
0.15752172
0.15741792
0.15732646
0.15725128
0.15719703
0.15716913
0.15717391
0.15721867
0.15731181
0.15746285
0.15768255
0.15798293
0.003286438
0.01009098
0.017421522
0.025307207
0.03374479
0.042655942
0.051799031
0.060775866
0.069196687
0.076844409
0.08369095
0.089808862
0.09529795
0.1002563
0.10476935
0.10890726
0.11272679
0.11627328
0.11958227
0.12268316
0.12560125
0.12835691
0.13096688
0.13344558
0.13580471
0.13805415
0.14020208
0.14225511
0.1442187
0.14609709
0.14789343
0.14960994
0.15124786
0.15280772
0.15428948
0.15569199
0.15701243
0.15824391
0.1593672
0.16031708
0.16089598
0.16103215
0.16101135
0.16096851
0.16091999
0.16086672
0.1608086
0.16074557
0.16067762
0.16060467
0.16052655
0.16044316
0.16035443
0.16026036
0.16016102
0.16005653
0.15994711
0.15983308
0.15971489
0.15959315
0.15946862
0.15934232
0.15921549
0.15908966
0.1589667
0.15884888
0.15873893
0.15864007
0.15855615
0.15849168
0.15845196
0.15844314
0.15847235
0.15854776
0.1586787
0.15887568
0.15915046
0.15951605
0.15998662
0.0033080075
0.010156253
0.01753281
0.02546682
0.033954439
0.042915027
0.052101849
0.061111032
0.06955112
0.077207998
0.08405805
0.090177453
0.095668414
0.1006305
0.10515001
0.10929754
0.11313007
0.11669292
0.12002147
0.12314486
0.12608804
0.12887099
0.13151003
0.13401912
0.13640957
0.13869082
0.14087069
0.14295549
0.14495041
0.14685951
0.14868586
0.15043166
0.15209827
0.15368644
0.15519648
0.15662778
0.15797838
0.15924302
0.16040631
0.16141488
0.16208462
0.16227752
0.16226948
0.16223173
0.16218793
0.16213952
0.16208642
0.16202851
0.16196571
0.16189788
0.16182481
0.16174632
0.16166228
0.16157262
0.16147735
0.16137652
0.16127029
0.16115891
0.16104278
0.16092243
0.16079858
0.16067216
0.16054435
0.16041661
0.16029074
0.16016893
0.1600538
0.15994851
0.15985677
0.15978297
0.15973229
0.1597107
0.15972517
0.15978367
0.1598953
0.16007035
0.16032036
0.16065809
0.16109749
0.16165361
0.16234236
0.0033353504
0.010239063
0.017674045
0.025669298
0.034220092
0.043243025
0.052485828
0.061538697
0.070008242
0.077682882
0.084542956
0.090667941
0.096162373
0.10112743
0.10565054
0.10980314
0.11364276
0.11721513
0.12055583
0.12369407
0.12665476
0.12945773
0.13211903
0.13465234
0.1370686
0.13937687
0.14158461
0.14369773
0.14572109
0.1476585
0.14951279
0.15128606
0.15297965
0.15459442
0.1561309
0.15758895
0.15896732
0.16026211
0.16146117
0.16252114
0.16327687
0.16353377
0.16353933
0.16350449
0.16346292
0.16341691
0.16336643
0.16331136
0.16325159
0.16318696
0.16311722
0.16304214
0.16296155
0.16287532
0.16278338
0.16268572
0.1625824
0.16247361
0.16235965
0.16224097
0.1621182
0.16199218
0.161864
0.16173504
0.161607
0.16148196
0.16136247
0.16125156
0.16115282
0.16107053
0.16100969
0.16097616
0.16097669
0.16101908
0.16111222
0.16126619
0.16149226
0.16180299
0.1622121
0.16273445
0.16338579
0.16418256
0.0033606124
0.010316642
0.017807989
0.025863754
0.034478504
0.043566181
0.052868919
0.061970812
0.070476275
0.078175808
0.085053117
0.091190411
0.096694104
0.10166668
0.10619656
0.11035594
0.11420299
0.11778393
0.12113477
0.12428501
0.12725975
0.1300789
0.1327585
0.13531214
0.13775057
0.14008261
0.14231541
0.14445458
0.14650464
0.14846908
0.15035047
0.15215071
0.15387101
0.15551223
0.15707504
0.15855961
0.15996529
0.16128935
0.16252234
0.16362924
0.16446644
0.16479601
0.16481869
0.1647863
0.16474599
0.16470128
0.1646522
0.16459866
0.16454056
0.16447772
0.16440989
0.16433683
0.16425837
0.16417433
0.1640846
0.16398913
0.16388792
0.16378108
0.16366884
0.16355154
0.16342974
0.16330417
0.16317583
0.16304596
0.16291617
0.16278843
0.16266516
0.16254926
0.16244421
0.16235413
0.16228389
0.16223916
0.16222654
0.16225361
0.16232907
0.16246276
0.16266575
0.16295033
0.16333004
0.16381951
0.16443435
0.16519089
0.16610585
0.16719584
0.0033852157
0.010392489
0.01793938
0.026055173
0.034733814
0.043886646
0.053250238
0.062402647
0.070946195
0.078673477
0.085571423
0.091724732
0.09724143
0.10222505
0.10676474
0.11093332
0.11478944
0.11837979
0.12174076
0.1249022
0.12788949
0.13072276
0.13341821
0.13598947
0.13844727
0.14080036
0.14305572
0.14521873
0.14729366
0.14928371
0.15119119
0.15301773
0.15476438
0.15643188
0.15802097
0.15953199
0.16096479
0.16231759
0.16358321
0.16473361
0.16564694
0.16605725
0.16610207
0.16607233
0.16603288
0.16598899
0.16594081
0.16588825
0.16583121
0.1657695
0.16570287
0.16563109
0.16555396
0.1654713
0.165383
0.16528894
0.16518912
0.16508358
0.16497249
0.16485614
0.16473499
0.16460967
0.16448109
0.16435037
0.16421901
0.16408886
0.16396219
0.16384178
0.16373096
0.1636337
0.16355469
0.16349946
0.1634744
0.1634869
0.16354545
0.16365967
0.1638404
0.1640997
0.16445088
0.16490837
0.16548762
0.16620485
0.16707674
0.16811996
0.16935068
0.003409206
0.010466651
0.018068166
0.026243259
0.034985321
0.044203086
0.053627544
0.062830755
0.071413055
0.079169213
0.086089378
0.092260658
0.097792563
0.10278952
0.1073413
0.11152113
0.11538807
0.11898912
0.12236102
0.1255339
0.12853344
0.13138
0.13408999
0.13667722
0.13915251
0.14152463
0.14380053
0.14598548
0.1480836
0.15009787
0.15203035
0.15388246
0.15565501
0.15734863
0.15896397
0.16050152
0.16196145
0.16334278
0.16464021
0.16583149
0.16681533
0.1673131
0.16738645
0.16735995
0.16732111
0.16727773
0.16723012
0.16717819
0.16712183
0.16706087
0.16699504
0.1669241
0.16684786
0.16676613
0.16667875
0.16658563
0.1664867
0.16638199
0.16627162
0.16615582
0.16603498
0.16590967
0.16578068
0.16564906
0.16551617
0.16538375
0.16525392
0.16512933
0.16501315
0.16490919
0.16482198
0.16475685
0.16472001
0.16471866
0.16476104
0.16485657
0.16501585
0.16525071
0.16557423
0.16600064
0.16654522
0.16722406
0.16805378
0.1690511
0.17023234
0.17161281
0.0034328196
0.010539744
0.01819525
0.026429099
0.03523413
0.044516455
0.054001468
0.063255248
0.071876257
0.079661547
0.086604517
0.092794666
0.098342924
0.10335456
0.10791984
0.11211237
0.11599147
0.11960441
0.12298815
0.12617305
0.12918503
0.1320447
0.13476867
0.13737094
0.1398625
0.14225221
0.1445471
0.14675242
0.14887222
0.15090936
0.15286574
0.15474256
0.15654044
0.15825985
0.15990135
0.16146545
0.16295257
0.16436237
0.16569109
0.16692127
0.16797003
0.1685602
0.16866983
0.1686476
0.16860929
0.16856622
0.16851896
0.16846743
0.1684115
0.16835101
0.16828568
0.16821529
0.16813962
0.16805848
0.1679717
0.16787916
0.16778079
0.16767657
0.16756659
0.16745103
0.16733023
0.1672047
0.16707515
0.16694252
0.16680808
0.16667344
0.16654062
0.16641208
0.16629086
0.16618061
0.16608567
0.16601118
0.16596317
0.1659486
0.16597553
0.16605312
0.16619174
0.16640299
0.16669972
0.16709594
0.16760676
0.16824813
0.1690366
0.16998893
0.17112154
0.17244999
0.17398825
0.17574804
0.0034561039
0.010611903
0.018320829
0.026612896
0.035480398
0.044826826
0.054371931
0.063675839
0.07233525
0.080149583
0.087115505
0.093324897
0.098890089
0.10391715
0.10849681
0.11270298
0.1165952
0.12022093
0.12361729
0.12681483
0.12983965
0.13271255
0.13545033
0.13806718
0.14057426
0.14298061
0.14529335
0.14751779
0.14965801
0.15171681
0.15369599
0.15559662
0.15741917
0.15916391
0.16083134
0.16242194
0.16393628
0.16537451
0.16673417
0.16800172
0.16911022
0.16979554
0.16995045
0.16993404
0.16989628
0.16985343
0.16980639
0.16975511
0.16969946
0.16963925
0.16957424
0.16950419
0.16942886
0.16934807
0.16926164
0.16916943
0.16907135
0.16896736
0.16885752
0.16874197
0.168621
0.16849506
0.16836479
0.16823106
0.16809503
0.1679582
0.16782246
0.16769015
0.16756414
0.16744793
0.16734566
0.1672623
0.16720366
0.1671765
0.16718864
0.16724901
0.16736774
0.1675562
0.16782698
0.16819391
0.16867187
0.1692767
0.17002485
0.17093309
0.17201793
0.17329517
0.17477912
0.17648198
0.17841309
0.0034791232
0.010683286
0.01844512
0.02679491
0.035724404
0.045134436
0.054739085
0.064092568
0.072789923
0.080633003
0.087621769
0.093850466
0.099432818
0.10447567
0.10907019
0.11329057
0.11719654
0.1208357
0.12424529
0.127456
0.13049405
0.1333804
0.13613202
0.13876326
0.14128546
0.14370782
0.14603759
0.14828021
0.1504398
0.15251921
0.15452019
0.15644375
0.15829022
0.16005977
0.16175278
0.16336969
0.16491119
0.16637781
0.16776812
0.16907186
0.17023548
0.17101646
0.17122661
0.17121819
0.17118109
0.1711384
0.17109151
0.1710404
0.17098493
0.17092491
0.1708601
0.17079024
0.17071511
0.17063452
0.17054826
0.1704562
0.17035823
0.17025429
0.17014439
0.17002867
0.16990736
0.16978086
0.16964975
0.16951482
0.16937716
0.16923814
0.16909956
0.16896361
0.16883303
0.16871112
0.16860189
0.16851008
0.16844131
0.16840212
0.16840009
0.16844393
0.16854352
0.16870998
0.16895567
0.16929417
0.16974019
0.1703094
0.17101816
0.17188322
0.17292119
0.17414804
0.17557842
0.17722499
0.17909767
0.18120296
0.0035018805
0.010753879
0.018568091
0.026975078
0.035966028
0.045439104
0.055102694
0.064505143
0.073239919
0.081111378
0.08812277
0.094370696
0.099970253
0.10502905
0.10963869
0.11387361
0.11779372
0.12144673
0.12486999
0.12809425
0.13114588
0.13404592
0.13681148
0.13945708
0.14199418
0.14443214
0.14677837
0.14903845
0.1512166
0.15331573
0.15533763
0.15728326
0.15915292
0.16094667
0.16266482
0.16430778
0.16587629
0.16737118
0.16879191
0.17013089
0.1713457
0.17222069
0.17249663
0.17249912
0.1724629
0.17242034
0.17237357
0.17232257
0.17226722
0.17220733
0.17214263
0.17207289
0.17199788
0.17191737
0.17183119
0.17173916
0.17164117
0.17153714
0.17142706
0.17131104
0.17118926
0.17106209
0.17093005
0.17079386
0.17065452
0.17051333
0.17037196
0.17023249
0.1700975
0.16997015
0.16985426
0.16975439
0.16967594
0.16962525
0.16960966
0.16963763
0.1697188
0.16986403
0.17008544
0.17039638
0.17081136
0.17134587
0.17201618
0.17283898
0.17383096
0.17500827
0.17638585
0.1779768
0.17979159
0.1818374
0.1841175
0.0035243855
0.010823721
0.018689799
0.027153455
0.03620531
0.045740836
0.055462711
0.064913464
0.073685094
0.081584502
0.088618224
0.094885202
0.10050188
0.10557663
0.11020147
0.1144511
0.11838557
0.12205269
0.12548989
0.128728
0.13179345
0.13470739
0.13748702
0.14014697
0.14269886
0.14515217
0.14751448
0.14979148
0.15198755
0.15410567
0.1561477
0.15811465
0.16000677
0.1618241
0.16356689
0.16523553
0.16683081
0.16835382
0.16980472
0.17117818
0.17244088
0.17340645
0.17375881
0.17377604
0.17374102
0.1736986
0.17365191
0.173601
0.17354573
0.17348592
0.17342131
0.17335164
0.17327667
0.1731962
0.17311001
0.17301794
0.17291985
0.17281565
0.1727053
0.17258889
0.17246657
0.17233865
0.17220561
0.17206812
0.17192709
0.17178375
0.17163964
0.17149675
0.17135752
0.17122494
0.17110268
0.1709951
0.1709074
0.17084569
0.1708171
0.17082982
0.17089326
0.17101801
0.17121595
0.1715002
0.17188502
0.17238575
0.17301854
0.17380002
0.17474692
0.17587555
0.17720112
0.17873713
0.1804946
0.18248138
0.18470148
0.0035466101
0.010892734
0.018810102
0.027329816
0.036441957
0.046039277
0.055818732
0.065317113
0.074125031
0.082051962
0.089107714
0.095393536
0.10102721
0.10611785
0.1107579
0.11502228
0.11897121
0.12265259
0.12610391
0.12935605
0.13243551
0.13536349
0.1381573
0.14083164
0.14339825
0.14586676
0.14824485
0.15053838
0.15275185
0.15488837
0.15694987
0.15893744
0.16085135
0.16269164
0.16445855
0.16615245
0.16777419
0.16932507
0.17080588
0.17221316
0.17352103
0.17457242
0.17501133
0.17504823
0.17501489
0.17497262
0.17492599
0.17487515
0.17481995
0.1747602
0.17469563
0.174626
0.17455105
0.17447057
0.17438434
0.17429218
0.17419394
0.17408951
0.17397885
0.17386199
0.17373908
0.17361038
0.17347631
0.1733375
0.17319479
0.17304932
0.17290255
0.17275634
0.17261301
0.17247541
0.17234703
0.17223207
0.17213551
0.17206325
0.17202218
0.17202026
0.17206663
0.17217164
0.1723469
0.17260527
0.17296083
0.17342869
0.17402488
0.17476598
0.17566872
0.17674954
0.17802391
0.17950571
0.18120647
0.18313468
0.18529509
0.18768822
0.0035685815
0.010960975
0.01892908
0.027504266
0.036676064
0.046334497
0.056170808
0.065716093
0.074559669
0.08251364
0.089591067
0.095895468
0.10154595
0.10665234
0.11130751
0.11558663
0.11955003
0.12324572
0.12671123
0.12997751
0.13307107
0.13601321
0.13882125
0.14151001
0.14409132
0.14657489
0.14896857
0.15127833
0.1535088
0.15566321
0.15774364
0.15975121
0.16168629
0.16354895
0.16533943
0.16705812
0.16870596
0.17028442
0.17179484
0.17323534
0.17458615
0.17571775
0.17625225
0.17631497
0.17628397
0.17624189
0.17619532
0.17614454
0.17608939
0.17602969
0.17596516
0.17589554
0.17582059
0.17574008
0.17565379
0.17556152
0.17546311
0.17535843
0.17524742
0.1751301
0.17500657
0.17487707
0.17474197
0.17460185
0.17445747
0.17430992
0.17416056
0.17401114
0.17386386
0.17372144
0.17358719
0.17346515
0.17336011
0.17327774
0.17322469
0.17320871
0.17323865
0.17332462
0.17347796
0.17371129
0.17403844
0.17447435
0.17503487
0.17573651
0.17659602
0.17762993
0.17885392
0.18028225
0.18192693
0.18379707
0.18589815
0.1882315
0.19079387
0.0035902602
0.011028326
0.019046553
0.02767658
0.036907358
0.046626167
0.056518553
0.066109994
0.074988606
0.082969142
0.090067884
0.09639059
0.10205766
0.10717965
0.11184982
0.11614358
0.12012142
0.1238314
0.12731113
0.13059158
0.13369931
0.13665564
0.13947797
0.14218116
0.14477713
0.1472757
0.1496848
0.15201055
0.15425769
0.15642961
0.15852847
0.16055552
0.16251121
0.16439567
0.16620918
0.1679522
0.16962571
0.17123141
0.1727711
0.17424425
0.17563612
0.176842
0.17747949
0.17757552
0.17754778
0.17750594
0.17745944
0.17740871
0.17735362
0.17729396
0.17722946
0.17715986
0.1770849
0.17700436
0.17691799
0.1768256
0.17672701
0.17662208
0.17651073
0.17639294
0.17626879
0.1761385
0.17600239
0.17586098
0.17571499
0.17556541
0.17541354
0.17526103
0.17510995
0.17496289
0.17482303
0.1746942
0.17458102
0.17448895
0.17442442
0.17439492
0.17440905
0.17447666
0.17460883
0.17481792
0.17511752
0.17552237
0.17604816
0.17671128
0.17752848
0.17851637
0.17969085
0.18106647
0.18265574
0.18446834
0.18651048
0.18878427
0.19128733
0.19401258
0.0036116358
0.011094743
0.01916241
0.027846565
0.037135571
0.046913954
0.056861591
0.066498411
0.075411428
0.083418053
0.090537749
0.096878483
0.10256192
0.10769932
0.11238436
0.11669265
0.12068483
0.12440906
0.12790298
0.13119759
0.13431949
0.13729004
0.14012666
0.14284429
0.14545488
0.14796837
0.15039278
0.15273433
0.15499789
0.15718697
0.15930386
0.16134994
0.16332574
0.16523147
0.1670675
0.16883435
0.17053311
0.17216565
0.17373422
0.17523945
0.17667079
0.17794513
0.1786909
0.17882908
0.17880585
0.17876435
0.17871792
0.17866725
0.17861221
0.17855259
0.17848813
0.17841855
0.17834359
0.17826302
0.17817659
0.17808409
0.17798533
0.17788015
0.17776846
0.17765023
0.17752549
0.17739443
0.17725734
0.17711469
0.17696714
0.17681562
0.17666134
0.17650586
0.17635113
0.17619963
0.17605438
0.17591906
0.17579808
0.17569671
0.17562116
0.17557866
0.17557758
0.1756275
0.17573922
0.17592486
0.17619776
0.17657243
0.1770644
0.17768994
0.17846577
0.17940855
0.18053436
0.18185808
0.18339262
0.18514826
0.18713187
0.18934637
0.19179021
0.1944572
0.19733641
0.0036326976
0.011160199
0.019276609
0.028014144
0.037360576
0.047197682
0.057199694
0.066881083
0.07582784
0.08386005
0.091000315
0.097358768
0.10305832
0.10821093
0.11291064
0.11723333
0.12123974
0.12497813
0.12848616
0.13179489
0.13493094
0.13791568
0.14076659
0.14349862
0.14612381
0.14865215
0.15109176
0.15344895
0.15572872
0.15793469
0.16006928
0.16213398
0.16412944
0.16605597
0.16791404
0.16970424
0.17142779
0.17308675
0.17468377
0.17622052
0.17768993
0.17902728
0.17988428
0.18007474
0.1800577
0.18001666
0.17997032
0.17991972
0.17986475
0.17980519
0.17974077
0.17967122
0.17959628
0.17951569
0.17942921
0.17933662
0.17923772
0.17913233
0.17902034
0.17890168
0.1787764
0.17864462
0.1785066
0.17836277
0.17821374
0.17806037
0.17790379
0.17774546
0.17758726
0.17743151
0.1772811
0.17713955
0.17701111
0.17690083
0.1768147
0.17675972
0.176744
0.17677687
0.17686886
0.17703181
0.17727883
0.1776242
0.17808326
0.17867216
0.17940754
0.18030613
0.18138417
0.18265678
0.18413731
0.18583658
0.18776213
0.18991763
0.1923024
0.19491109
0.19773364
0.0036533874
0.011224536
0.019388918
0.028178998
0.037581969
0.047476878
0.057532332
0.067257454
0.076237285
0.084294578
0.091455032
0.0978309
0.10354632
0.10871391
0.11342813
0.11776504
0.12178555
0.12553797
0.12906003
0.1323828
0.13553294
0.13853184
0.14139698
0.14414339
0.14678313
0.14932626
0.15178098
0.15415369
0.15644949
0.15867212
0.16082412
0.1629071
0.16492183
0.16686873
0.16874838
0.17056147
0.17230936
0.17399429
0.17561932
0.17718701
0.17869329
0.18008875
0.18105748
0.18131143
0.18130283
0.18126244
0.18121621
0.1811657
0.18111081
0.18105132
0.18098697
0.18091748
0.18084258
0.18076201
0.18067552
0.18058287
0.18048386
0.1803783
0.18026605
0.18014703
0.18002125
0.17988881
0.17974994
0.17960502
0.17945459
0.17929947
0.1791407
0.17897968
0.17881816
0.17865836
0.17850302
0.17835553
0.17821993
0.17810111
0.17800483
0.17793786
0.17790807
0.17792451
0.17799745
0.17813848
0.17836043
0.17867736
0.17910441
0.17965759
0.18035347
0.1812088
0.18223993
0.18346227
0.18488954
0.18653306
0.18840103
0.19049789
0.19282376
0.19537416
0.19813989
0.20110715
0.0036736828
0.011287677
0.019499177
0.028340903
0.037799464
0.047751181
0.057859091
0.067627057
0.076639248
0.084721084
0.091901316
0.098294271
0.10402528
0.10920762
0.11393612
0.11828708
0.12232152
0.12608784
0.12962381
0.13296053
0.13612467
0.13913766
0.14201699
0.14477772
0.14743196
0.14998982
0.15245956
0.15484768
0.15715937
0.15939847
0.16156764
0.16366862
0.16570228
0.16766917
0.16956998
0.17140554
0.17317731
0.17488778
0.17654034
0.17813841
0.17968047
0.1811298
0.18220844
0.18253788
0.18254068
0.18250119
0.18245512
0.18240471
0.18234994
0.18229056
0.18222632
0.18215692
0.1820821
0.1820016
0.18191514
0.1818225
0.18172343
0.18161776
0.18150531
0.181386
0.1812598
0.18112678
0.18098714
0.18084121
0.18068949
0.18053273
0.18037191
0.18020834
0.18004367
0.17988002
0.17971999
0.17956681
0.17942438
0.17929738
0.17919137
0.17911289
0.17906956
0.17907017
0.17912474
0.17924458
0.17944226
0.17973159
0.18012753
0.18064591
0.18130322
0.18211622
0.18310135
0.18427426
0.18564902
0.18723745
0.18904837
0.19108696
0.19335414
0.19584631
0.19855511
0.20146756
0.20456642
0.0036935438
0.011349482
0.019607128
0.028499479
0.038012551
0.048019958
0.058179246
0.067989107
0.077032919
0.085138747
0.092338343
0.098748056
0.10449437
0.10969122
0.11443379
0.1187986
0.12284681
0.12662688
0.13017664
0.13352719
0.13670524
0.13973224
0.14262569
0.14540068
0.14806936
0.15064188
0.15312657
0.15553001
0.15785746
0.16011287
0.16229902
0.16441775
0.16647005
0.16845661
0.17037822
0.17223584
0.17403109
0.17576664
0.17744628
0.17907417
0.18065106
0.18215061
0.18333532
0.1837526
0.18377065
0.18373242
0.18368655
0.1836363
0.18358169
0.18352247
0.18345839
0.18338915
0.18331448
0.1832341
0.18314775
0.18305518
0.18295614
0.18285043
0.18273787
0.18261835
0.18249181
0.18235831
0.182218
0.18207116
0.18191827
0.18175999
0.18159726
0.18143129
0.18126365
0.18109633
0.18093184
0.18077324
0.18062428
0.18048946
0.18037411
0.18028458
0.18022824
0.18021361
0.18025047
0.18034983
0.18052401
0.1807866
0.18115229
0.18163679
0.18225647
0.18302806
0.18396811
0.18509244
0.18641547
0.1879495
0.18970393
0.19168465
0.1938934
0.19632741
0.19897921
0.20183663
0.20488318
0.0037127932
0.011409456
0.019711977
0.028653636
0.038219899
0.048281671
0.058491079
0.068341763
0.077416357
0.085545555
0.092764039
0.099190136
0.10495146
0.11016256
0.11491899
0.11929746
0.12335927
0.12715295
0.13071637
0.13408066
0.13727255
0.14031349
0.14322103
0.14601024
0.14869333
0.15128048
0.15378009
0.15619879
0.15854195
0.16081359
0.16301659
0.1651529
0.16722365
0.16922963
0.17117175
0.17305112
0.1748695
0.17662978
0.17833608
0.17999331
0.1816042
0.18315093
0.18443633
0.18495367
0.18499192
0.18495547
0.18490993
0.18485994
0.18480557
0.18474662
0.18468279
0.1846138
0.18453937
0.18445922
0.18437308
0.18428067
0.18418175
0.1840761
0.18396352
0.18384389
0.18371712
0.18358323
0.18344235
0.18329472
0.18314077
0.1829811
0.18281659
0.18264838
0.18247793
0.18230716
0.18213842
0.18197467
0.18181947
0.18167716
0.18155288
0.18145274
0.18138389
0.18135461
0.18137437
0.18145396
0.18160542
0.18184207
0.1821784
0.18262992
0.1832129
0.18394402
0.18483989
0.18591652
0.18718863
0.18866894
0.19036747
0.19229076
0.19444137
0.19681736
0.19941211
0.2022143
0.20520822
0.20837426
0.0037314328
0.011467626
0.019813818
0.028803552
0.038421743
0.048536627
0.058794941
0.068685347
0.077789801
0.085941623
0.093178383
0.099620344
0.10539622
0.11062117
0.11539111
0.11978294
0.12385807
0.12766513
0.13124201
0.13461987
0.13782546
0.14088024
0.14380175
0.14660513
0.14930257
0.15190432
0.15441881
0.15685274
0.15921154
0.16149935
0.16371912
0.16587291
0.16796196
0.16998718
0.17194961
0.17385048
0.17569173
0.17747643
0.17920907
0.18089523
0.1825394
0.18413075
0.18551031
0.18613912
0.18620385
0.18616993
0.1861249
0.18607531
0.18602134
0.18596278
0.18589933
0.18583072
0.18575665
0.18567684
0.185591
0.18549886
0.18540017
0.18529467
0.18518217
0.18506252
0.18493561
0.18480143
0.18466008
0.18451177
0.18435687
0.18419594
0.18402978
0.18385947
0.1836864
0.18351235
0.18333959
0.18317093
0.18300979
0.18286032
0.18272748
0.18261718
0.18253631
0.18249292
0.18249622
0.18255672
0.1826862
0.18289772
0.18320554
0.18362499
0.18417219
0.18486377
0.18571639
0.18674619
0.18796819
0.18939554
0.19103876
0.19290512
0.1949979
0.19731602
0.19985373
0.20260054
0.20554151
0.20865774
0.21192702
0.0037504542
0.011526796
0.019917142
0.028955272
0.038625479
0.048793304
0.059100095
0.069029629
0.078163299
0.086337094
0.09359148
0.10004865
0.10583843
0.11107659
0.11585939
0.12026396
0.12435183
0.12817171
0.13176152
0.13515246
0.13837129
0.14143948
0.14437459
0.14719176
0.14990323
0.15251927
0.15504835
0.15749722
0.1598714
0.16217508
0.16441132
0.16658228
0.16868929
0.17073337
0.1727157
0.17463763
0.17650126
0.17830989
0.18006832
0.18178278
0.18345934
0.18509286
0.18655898
0.18730882
0.18740745
0.18737686
0.18733241
0.18728323
0.18722967
0.18717153
0.1871085
0.1870403
0.18696663
0.1868872
0.18680172
0.1867099
0.18661148
0.1865062
0.18639384
0.18627423
0.18614725
0.18601287
0.18587113
0.18572222
0.18556647
0.18540439
0.18523672
0.18506445
0.1848889
0.18471177
0.1845352
0.18436187
0.18419507
0.18403876
0.18389775
0.18377769
0.18368529
0.18362833
0.18361577
0.18365785
0.18376608
0.18395326
0.18423343
0.18462169
0.18513403
0.18578701
0.1865973
0.18758117
0.1887539
0.19012902
0.19171759
0.19352751
0.19556283
0.19782329
0.20030398
0.20299528
0.20588305
0.20894907
0.21217171
0.0037698033
0.011586862
0.020021827
0.029108695
0.038831135
0.049051944
0.059407093
0.069375569
0.078538277
0.086733874
0.094005695
0.10047785
0.10628123
0.11153225
0.11632752
0.12074439
0.12484452
0.12867672
0.13227896
0.13568246
0.13891402
0.14199513
0.14494336
0.14777387
0.15049893
0.15312882
0.15567208
0.15813551
0.16052466
0.16284383
0.16509614
0.16728384
0.16940837
0.17147086
0.17347261
0.17541509
0.17730056
0.17913252
0.18091611
0.18265816
0.18436612
0.18603953
0.18758444
0.18846262
0.18860393
0.1885776
0.18853367
0.1884848
0.18843156
0.18837373
0.18831104
0.18824318
0.18816985
0.18809076
0.1880056
0.18791408
0.18781592
0.18771085
0.18759865
0.18747911
0.18735209
0.18721753
0.18707547
0.18692604
0.18676951
0.18660637
0.18643729
0.1862632
0.18608534
0.18590529
0.18572511
0.18554735
0.18537515
0.18521232
0.18506348
0.18493409
0.18483061
0.18476061
0.18473278
0.18475709
0.18484479
0.18500842
0.18526176
0.18561972
0.18609812
0.18671343
0.18748231
0.18842116
0.18954547
0.19086913
0.19240372
0.19415774
0.19613598
0.19833901
0.20076277
0.20339847
0.2062328
0.20924825
0.21242378
0.21573561
0.0037888198
0.011645975
0.020124959
0.02925999
0.03903412
0.049307394
0.059710433
0.069717477
0.078908991
0.087126292
0.094415522
0.10090265
0.10671963
0.11198347
0.11679112
0.12122016
0.12533239
0.12917669
0.13279111
0.13620691