/*--------------------------------*- C++ -*----------------------------------*\
| =========                 |                                                 |
| \\      /  F ield         | OpenFOAM: The Open Source CFD Toolbox           |
|  \\    /   O peration     | Version:  2506                                  |
|   \\  /    A nd           | Website:  www.openfoam.com                      |
|    \\/     M anipulation  |                                                 |
\*---------------------------------------------------------------------------*/
FoamFile
{
    version     2.0;
    format      ascii;
    arch        "LSB;label=32;scalar=64";
    class       volScalarField;
    location    "0.022";
    object      rho;
}
// * * * * * * * * * * * * * * * * * * * * * * * * * * * * * * * * * * * * * //

dimensions      [1 -3 0 0 0 0 0];

internalField   nonuniform List<scalar> 
13763
(
0.67184791
0.66767151
0.66283839
0.66354311
0.66730517
0.66591894
0.66240172
0.66259671
0.6642128
0.66204963
0.66076745
0.66182025
0.66194938
0.6608233
0.65605819
0.65131518
0.65101453
0.65304131
0.65723619
0.66181496
0.66535741
0.6675201
0.66843804
0.66852799
0.66859379
0.66913594
0.6697548
0.66978803
0.66981946
0.67019817
0.67031343
0.66992542
0.6695059
0.6699697
0.67267559
0.67642417
0.67755547
0.67693276
0.67441856
0.67089132
0.6682848
0.66694138
0.66626246
0.66583411
0.66549008
0.66520451
0.66503343
0.66498118
0.67188958
0.66769162
0.66282428
0.66351175
0.66728004
0.66590276
0.66240736
0.66262179
0.66423868
0.66204488
0.66074137
0.66179782
0.66193885
0.66082691
0.65607649
0.65130699
0.65099486
0.65302475
0.65725368
0.66187941
0.66541606
0.66756541
0.66852548
0.668611
0.66865377
0.66919112
0.66982404
0.66983376
0.66984292
0.67022911
0.67038548
0.66999138
0.66953181
0.66997752
0.67269628
0.67646992
0.67757593
0.67692122
0.67436406
0.67084269
0.66826575
0.66693797
0.66626277
0.66583457
0.66549027
0.66520461
0.66503349
0.66498121
0.66499203
0.66505396
0.67193313
0.6677137
0.66280921
0.66347872
0.66725388
0.66588559
0.66241335
0.6626485
0.66426596
0.66204041
0.66071381
0.66177448
0.66192782
0.66083037
0.65609627
0.65130044
0.65097567
0.65300841
0.65727143
0.66194323
0.6654745
0.6676108
0.66861066
0.668691
0.66871244
0.66924348
0.66988481
0.66987489
0.66986706
0.67025925
0.67045
0.67004877
0.66955459
0.66998736
0.67271747
0.67649561
0.67756476
0.67687565
0.67428059
0.67077875
0.66824207
0.66693393
0.66626322
0.66583517
0.66549052
0.66520475
0.66503355
0.66498125
0.66499207
0.66505397
0.66512675
0.6719786
0.66773632
0.66279291
0.66344426
0.66722662
0.66586736
0.66241975
0.66267689
0.66429488
0.66203576
0.66068472
0.66175007
0.66191629
0.66083372
0.65611792
0.65129573
0.65095723
0.65299238
0.65728932
0.66200581
0.66553188
0.66765596
0.668693
0.66876753
0.66876945
0.66929299
0.66993748
0.66991136
0.66989094
0.67028881
0.67050687
0.67009733
0.6695742
0.66999948
0.67273853
0.67649874
0.67751632
0.67679028
0.67416287
0.67069654
0.66821274
0.66692902
0.66626381
0.66583592
0.66549083
0.6652049
0.66503363
0.6649813
0.66499212
0.66505399
0.66512676
0.66519701
0.66525347
0.67202639
0.66775975
0.66277546
0.66340816
0.66719816
0.66584801
0.66242658
0.66270707
0.66432557
0.66203101
0.66065404
0.66172447
0.66190421
0.66083695
0.65614174
0.65129318
0.65093982
0.65297674
0.65730725
0.66206642
0.66558713
0.66770056
0.66877191
0.66884009
0.66882443
0.66933984
0.66998279
0.66994301
0.6699136
0.67031797
0.67055618
0.67013669
0.66959048
0.67001413
0.67275839
0.67647329
0.67742413
0.67665778
0.67400457
0.67059275
0.66817665
0.66692303
0.66626453
0.66583684
0.66549121
0.66520508
0.66503372
0.66498135
0.66499217
0.66505403
0.66512678
0.66519703
0.66525348
0.66529974
0.66531351
0.67207654
0.66778417
0.66275691
0.66337024
0.66716831
0.66582746
0.66243389
0.66273921
0.66435813
0.66202631
0.66062165
0.66169756
0.66189153
0.6608401
0.65616811
0.65129316
0.65092368
0.65296158
0.65732518
0.66212427
0.66563896
0.66774419
0.66884676
0.66890809
0.66887693
0.66938448
0.67002141
0.66996945
0.66993409
0.67034698
0.67059821
0.6701665
0.66960324
0.67003135
0.67277488
0.67641266
0.67727996
0.67646921
0.6737985
0.6704638
0.66813263
0.66691572
0.66626538
0.66583792
0.66549164
0.66520527
0.66503382
0.66498141
0.66499224
0.66505407
0.6651268
0.66519705
0.6652535
0.66529975
0.66531352
0.66538229
0.66537374
0.67212921
0.66780974
0.66273727
0.66333034
0.66713698
0.66580563
0.6624417
0.66277357
0.6643927
0.66202182
0.66058741
0.66166922
0.6618782
0.6608432
0.65619741
0.6512961
0.65090911
0.65294698
0.65734306
0.66217849
0.66568582
0.66778649
0.66891688
0.66897077
0.66892654
0.66942767
0.67005391
0.66998987
0.66995134
0.67037622
0.67063325
0.67018641
0.66961239
0.67005075
0.67278434
0.67630728
0.67707363
0.67621405
0.67353696
0.67030623
0.66807959
0.6669069
0.66626638
0.6658392
0.66549211
0.66520545
0.66503391
0.66498147
0.6649923
0.66505412
0.66512683
0.66519706
0.66525351
0.66529976
0.66531353
0.66538229
0.66537373
0.66519435
0.66526377
0.66602535
0.67218456
0.66783663
0.66271656
0.6632883
0.66710398
0.66578242
0.66245008
0.66281033
0.66442937
0.66201763
0.66055115
0.66163933
0.66186413
0.66084631
0.65623009
0.65130253
0.65089643
0.65293311
0.65736086
0.66222813
0.66572592
0.66782704
0.66898158
0.66902723
0.66897274
0.66947039
0.67008049
0.67000321
0.66996418
0.67040594
0.67066155
0.67019623
0.66961802
0.67007101
0.67277963
0.6761441
0.67679327
0.67588073
0.67321255
0.67011711
0.66801669
0.66689643
0.6662676
0.6658407
0.66549263
0.66520561
0.66503398
0.66498152
0.66499236
0.66505417
0.66512685
0.66519707
0.66525352
0.66529976
0.66531353
0.6653823
0.66537372
0.66519435
0.66526382
0.6660254
0.66655415
0.66560702
0.67224276
0.667865
0.66269479
0.66324398
0.6670692
0.66575775
0.66245906
0.66284987
0.66446827
0.66201371
0.66051276
0.66160777
0.66184924
0.66084948
0.65626664
0.65131301
0.65088596
0.65292019
0.65737858
0.66227211
0.66575729
0.6678654
0.66904042
0.66907661
0.6690149
0.66951346
0.67010103
0.67000832
0.66997116
0.67043614
0.67068323
0.67019607
0.66962037
0.67008945
0.67274915
0.67590655
0.67642584
0.6754576
0.67281949
0.66989483
0.6679435
0.66688433
0.66626911
0.66584245
0.66549317
0.66520574
0.66503404
0.66498156
0.66499242
0.66505422
0.66512688
0.66519709
0.66525354
0.66529977
0.66531353
0.6653823
0.6653737
0.66519435
0.66526386
0.66602545
0.66655413
0.66560684
0.67230399
0.66789501
0.66267195
0.66319721
0.66703243
0.66573154
0.66246866
0.66289293
0.66450954
0.66200998
0.66047215
0.66157438
0.66183344
0.66085278
0.65630763
0.65132819
0.65087808
0.65290837
0.65739624
0.66230919
0.66577784
0.66790098
0.66909324
0.66911829
0.66905226
0.66955734
0.67011531
0.67000373
0.66997094
0.67046583
0.67069822
0.67018668
0.66961991
0.67010127
0.6726761
0.67557439
0.6759578
0.67493444
0.67235521
0.66963981
0.66786024
0.66687073
0.66627108
0.66584451
0.66549373
0.66520582
0.66503407
0.6649816
0.66499247
0.66505426
0.6651269
0.6651971
0.66525355
0.66529978
0.66531354
0.66538231
0.66537369
0.66519434
0.66526391
0.66602549
0.66655413
0.66560666
0.67236846
0.66792679
0.66264805
0.66314781
0.66699353
0.66570365
0.6624789
0.66294068
0.66455339
0.66200638
0.66042928
0.66153906
0.66181665
0.66085625
0.65635371
0.65134876
0.65087331
0.65289795
0.65741374
0.66233795
0.66578543
0.66793309
0.66913993
0.66915185
0.66908405
0.66960197
0.67012314
0.66998776
0.66996089
0.67049253
0.67070655
0.67017014
0.66961658
0.67009989
0.67253621
0.67512452
0.67537588
0.67430434
0.67182226
0.66935536
0.66776798
0.666856
0.6662737
0.66584695
0.66549433
0.66520585
0.66503408
0.66498162
0.66499251
0.6650543
0.66512692
0.66519711
0.66525357
0.66529978
0.66531355
0.66538231
0.66537368
0.66519434
0.66526396
0.66602555
0.66655412
0.66560649
0.67243634
0.66796051
0.66262312
0.66309561
0.66695228
0.66567385
0.66248989
0.6629938
0.66460003
0.66200295
0.66038415
0.66150168
0.66179878
0.66085998
0.65640562
0.65137552
0.65087182
0.6528893
0.65743099
0.66235669
0.66577844
0.66796091
0.66918015
0.66917708
0.66910958
0.66964659
0.67012438
0.66995896
0.66993776
0.67051088
0.67070868
0.67015069
0.66961038
0.67007225
0.67229818
0.67453318
0.67466777
0.67356583
0.67122965
0.66904804
0.66766876
0.66684067
0.66627722
0.66584984
0.66549494
0.66520582
0.66503406
0.66498163
0.66499255
0.66505434
0.66512694
0.66519713
0.66525358
0.66529979
0.66531356
0.66538232
0.66537367
0.66519433
0.66526402
0.66602561
0.66655412
0.66560631
0.67250783
0.66799627
0.66259717
0.66304041
0.66690852
0.66564186
0.66250178
0.66305166
0.66464967
0.66199981
0.6603367
0.66146216
0.66177975
0.66086404
0.6564642
0.65140944
0.65087402
0.65288273
0.65744817
0.66236441
0.66575525
0.66798309
0.66921315
0.66919386
0.66912822
0.66968948
0.67011891
0.66991596
0.66989675
0.6705134
0.67070526
0.67013652
0.6696009
0.67000449
0.67192829
0.67377964
0.67382328
0.67272491
0.67059327
0.66872751
0.66756545
0.66682546
0.66628193
0.66585327
0.66549559
0.66520573
0.66503401
0.66498164
0.66499259
0.66505438
0.66512696
0.66519714
0.66525359
0.6652998
0.66531357
0.66538233
0.66537366
0.66519433
0.66526407
0.66602567
0.66655412
0.66560614
0.67258309
0.6680342
0.66257025
0.66298204
0.66686202
0.6656075
0.66251468
0.66311267
0.66470257
0.66199714
0.66028691
0.66142042
0.66175947
0.66086852
0.65653042
0.65145167
0.65088073
0.65287885
0.6574648
0.66235929
0.66571434
0.66799727
0.66923777
0.66920216
0.66913927
0.66972764
0.67010656
0.66985603
0.66983028
0.6704876
0.67069681
0.67013751
0.66958548
0.66988123
0.67139828
0.67285232
0.67283757
0.6717968
0.66993447
0.66840543
0.66746148
0.66681115
0.6662881
0.66585733
0.66549628
0.66520558
0.66503394
0.66498163
0.66499262
0.66505442
0.66512698
0.66519714
0.6652536
0.6652998
0.66531357
0.66538233
0.66537364
0.66519432
0.66526413
0.66602574
0.66655411
0.66560597
0.67266232
0.66807442
0.66254236
0.66292031
0.66681258
0.66557074
0.66252861
0.66317569
0.66475914
0.6619951
0.66023477
0.66137637
0.66173786
0.66087354
0.65660535
0.65150356
0.65089278
0.65287808
0.65748024
0.66233996
0.66565498
0.66799953
0.66925268
0.66920213
0.66914203
0.66975639
0.67008629
0.66977483
0.66972807
0.67041411
0.67068125
0.67016901
0.66956059
0.66968951
0.67069845
0.67175742
0.6717176
0.67080709
0.66927731
0.66809367
0.66736031
0.66679855
0.66629599
0.66586208
0.66549703
0.66520536
0.66503385
0.66498163
0.66499265
0.66505446
0.665127
0.66519715
0.66525361
0.66529981
0.66531358
0.66538234
0.66537363
0.66519432
0.6652642
0.6660258
0.6665541
0.66560579
0.67274569
0.66811702
0.66251346
0.66285511
0.66675977
0.66553162
0.66254369
0.66324081
0.66481986
0.66199381
0.66018028
0.66132996
0.66171486
0.66087922
0.65669017
0.6515667
0.65091124
0.65288189
0.65749378
0.66230633
0.66557645
0.66798391
0.66925654
0.6691938
0.66913555
0.66977046
0.67005481
0.66966586
0.66957392
0.6702682
0.67065105
0.67023688
0.66954338
0.66941077
0.6698535
0.67052767
0.67049425
0.66979045
0.6686458
0.66780251
0.66726499
0.66678839
0.66630574
0.66586754
0.66549783
0.66520508
0.66503373
0.66498161
0.66499268
0.6650545
0.66512703
0.66519716
0.66525362
0.66529981
0.66531358
0.66538234
0.66537361
0.66519431
0.66526426
0.66602587
0.66655409
0.66560562
0.67283335
0.66816205
0.66248343
0.6627862
0.66670342
0.66549016
0.66255995
0.66330914
0.6648853
0.66199338
0.66012342
0.66128118
0.66169038
0.66088565
0.65678612
0.65164301
0.6509374
0.65289133
0.65750461
0.66225882
0.66547748
0.66794229
0.66924773
0.66917708
0.66911853
0.66976377
0.67000509
0.66952021
0.66934233
0.67001967
0.67058714
0.67031237
0.66959524
0.66898627
0.66893892
0.66923084
0.66923127
0.66879055
0.66806258
0.6675396
0.66717795
0.66678139
0.66631737
0.66587365
0.66549869
0.66520476
0.66503359
0.66498159
0.66499271
0.66505454
0.66512705
0.66519718
0.66525364
0.66529982
0.66531359
0.66538234
0.66537359
0.6651943
0.66526433
0.66602595
0.66655408
0.66560544
0.67292548
0.66820958
0.66245221
0.66271328
0.66664336
0.66544628
0.66257758
0.66338194
0.664956
0.6619938
0.66006413
0.66123003
0.66166429
0.66089289
0.65689427
0.65173478
0.65097291
0.65290763
0.65751184
0.66219867
0.66535601
0.66786489
0.66922326
0.66915071
0.66908881
0.66972732
0.66992432
0.66932471
0.66900391
0.66963298
0.67044893
0.67033645
0.66965614
0.66856063
0.66795382
0.66797762
0.66802364
0.66785756
0.66754967
0.66731065
0.66710135
0.66677809
0.66633053
0.6658801
0.66549956
0.66520442
0.66503344
0.66498157
0.66499274
0.66505458
0.66512707
0.66519719
0.66525365
0.66529982
0.66531359
0.66538235
0.66537357
0.66519429
0.6652644
0.66602603
0.66655406
0.66560526
0.67302221
0.66825957
0.66241966
0.66263607
0.66657941
0.66539979
0.6625969
0.66346011
0.66503253
0.661995
0.66000222
0.66117655
0.66163649
0.66090087
0.65701522
0.65184446
0.65101987
0.65293239
0.65751522
0.66212668
0.66520915
0.66774158
0.66917734
0.66911149
0.66904434
0.66965209
0.66979294
0.66906076
0.66852986
0.66907396
0.67015293
0.67025379
0.66964007
0.66817528
0.66703118
0.66686197
0.66694393
0.66705282
0.66713159
0.6671235
0.66703674
0.66677726
0.66634368
0.66588628
0.66550039
0.66520411
0.6650333
0.66498155
0.66499276
0.66505462
0.66512709
0.6651972
0.66525367
0.66529983
0.6653136
0.66538236
0.66537355
0.66519428
0.66526448
0.66602611
0.66655405
0.66560507
0.67312366
0.66831196
0.66238565
0.66255425
0.66651132
0.66535068
0.66261819
0.66354416
0.66511542
0.66199693
0.65993743
0.66112076
0.66160677
0.66090928
0.65714849
0.65197423
0.65108057
0.65296749
0.65751423
0.6620424
0.66503374
0.66756375
0.66910044
0.66905306
0.66898254
0.66952797
0.66958683
0.66870288
0.66789962
0.66831975
0.66959394
0.66995383
0.66940322
0.66776258
0.66627851
0.66596213
0.66606857
0.66641379
0.66682257
0.66700495
0.66697641
0.66677201
0.66635352
0.66589127
0.6655011
0.66520386
0.66503317
0.66498152
0.66499279
0.66505467
0.66512712
0.66519722
0.66525369
0.66529984
0.66531361
0.66538236
0.66537353
0.66519427
0.66526456
0.6660262
0.66655403
0.66560488
0.67322996
0.66836662
0.66234995
0.66246742
0.66643885
0.66529887
0.66264147
0.66363444
0.66520526
0.66199959
0.6598694
0.66106262
0.66157487
0.66091748
0.6572921
0.65212498
0.65115711
0.65301488
0.65751038
0.66194395
0.66482718
0.66732625
0.66897969
0.66896699
0.66890131
0.66934376
0.66928771
0.6682188
0.6671112
0.66737188
0.66870661
0.66928871
0.66881985
0.66722967
0.66568847
0.66532556
0.66545467
0.66596112
0.66660877
0.6669383
0.66693924
0.66676352
0.66635772
0.66589419
0.66550156
0.6652037
0.66503307
0.6649815
0.66499282
0.66505472
0.66512715
0.66519723
0.6652537
0.66529985
0.66531362
0.66538237
0.6653735
0.66519426
0.66526464
0.66602629
0.66655401
0.66560469
0.67334121
0.66842329
0.66231225
0.66237515
0.66636167
0.66524428
0.66266734
0.66373135
0.66530263
0.66200314
0.6597978
0.66100192
0.6615405
0.66092467
0.65744237
0.65229537
0.65125085
0.65307651
0.65750671
0.66182879
0.66458839
0.66703047
0.6688021
0.66884817
0.66880545
0.66909851
0.66888207
0.66758471
0.66619276
0.66627607
0.66749624
0.66820667
0.66784733
0.66652345
0.66521366
0.66492045
0.66508385
0.66569744
0.6664863
0.66690401
0.66692371
0.66675889
0.66635904
0.66589516
0.66550167
0.66520359
0.665033
0.66498147
0.66499285
0.66505476
0.66512717
0.66519725
0.66525372
0.66529985
0.66531363
0.66538238
0.66537348
0.66519425
0.66526473
0.66602639
0.666554
0.6656045
0.67345752
0.66848162
0.66227216
0.6622769
0.66627938
0.66518684
0.66269664
0.66383517
0.66540814
0.66200802
0.65972237
0.66093835
0.66150364
0.66093028
0.65759481
0.65248202
0.6513626
0.65315443
0.65750801
0.6616964
0.66431992
0.66668936
0.66856106
0.66871104
0.66872308
0.66882502
0.66835655
0.66680264
0.66521453
0.66513692
0.66609113
0.66683055
0.66660428
0.66569324
0.66481231
0.6646684
0.66489505
0.6655863
0.66643705
0.66689214
0.66691979
0.66675794
0.66635935
0.66589516
0.6655015
0.6652035
0.66503295
0.66498145
0.66499289
0.66505482
0.6651272
0.66519726
0.66525374
0.66529986
0.66531364
0.66538238
0.66537346
0.66519424
0.66526483
0.66602649
0.66655397
0.6656043
0.67357895
0.66854111
0.66222913
0.66217202
0.66619147
0.66512648
0.66272905
0.6639465
0.66552246
0.662015
0.65964272
0.66087196
0.66146531
0.6609349
0.65774609
0.65268142
0.65149357
0.65325155
0.65752119
0.66155256
0.66403426
0.66633578
0.66827353
0.66860997
0.66870151
0.66857943
0.6677216
0.66591851
0.66429992
0.66409824
0.66473742
0.66543439
0.66535617
0.66488908
0.66448077
0.66448904
0.66482061
0.66556309
0.66642759
0.66689089
0.66692125
0.66675939
0.66635937
0.66589445
0.6655011
0.66520339
0.6650329
0.66498143
0.66499292
0.66505487
0.66512723
0.66519728
0.66525376
0.66529987
0.66531365
0.66538239
0.66537343
0.66519423
0.66526493
0.6660266
0.66655395
0.6656041
0.6737056
0.6686011
0.66218247
0.66205977
0.66609722
0.66506368
0.66276375
0.66406642
0.66564628
0.66202516
0.65955802
0.66080372
0.66142875
0.66094173
0.65789562
0.65289179
0.6516465
0.6533728
0.65755563
0.6614145
0.66376621
0.66603629
0.66802482
0.66859356
0.66874244
0.66837934
0.6670436
0.66507006
0.66358347
0.66332383
0.66369862
0.66428419
0.66439369
0.66426867
0.66422679
0.66437088
0.66480868
0.66557572
0.66643278
0.66689499
0.66692498
0.66676146
0.66635914
0.6658936
0.66550068
0.66520329
0.66503285
0.6649814
0.66499296
0.66505493
0.66512726
0.6651973
0.66525378
0.66529988
0.66531367
0.6653824
0.6653734
0.66519422
0.66526503
0.66602672
0.66655393
0.66560389
0.67383755
0.66866081
0.6621314
0.66193917
0.66599586
0.664998
0.6628007
0.66419633
0.66578015
0.66203962
0.65946716
0.6607349
0.66139999
0.66095582
0.65804561
0.65311497
0.65182608
0.65352613
0.6576234
0.66131617
0.66358557
0.66588835
0.66792689
0.66876054
0.66888221
0.66823338
0.66644357
0.66439695
0.66314308
0.66290335
0.66311717
0.66355741
0.6638114
0.66391019
0.6640436
0.66433362
0.66484104
0.66560714
0.66644395
0.66689838
0.66692731
0.6667626
0.66635876
0.66589289
0.66550032
0.66520318
0.66503279
0.66498138
0.664993
0.66505498
0.6651273
0.66519731
0.6652538
0.66529989
0.66531368
0.66538241
0.66537337
0.66519421
0.66526514
0.66602684
0.6665539
0.66560368
0.67397488
0.66871928
0.66207503
0.66180877
0.66588645
0.66492874
0.66284273
0.6643376
0.66592454
0.66205944
0.65936931
0.66066551
0.66138372
0.66098074
0.65820003
0.65335624
0.65203902
0.65372214
0.65774578
0.66128965
0.66354981
0.66595185
0.66817292
0.66920975
0.6692104
0.66820394
0.66600049
0.66395669
0.66295316
0.66277941
0.66291616
0.66324429
0.66353051
0.66373401
0.66396911
0.66433452
0.66487208
0.66563039
0.66645138
0.66690006
0.66692829
0.66676298
0.66635834
0.66589233
0.66550003
0.66520307
0.66503272
0.66498135
0.66499304
0.66505505
0.66512733
0.66519733
0.66525383
0.6652999
0.66531369
0.66538242
0.66537334
0.66519419
0.66526526
0.66602697
0.66655387
0.66560346
0.67411759
0.66877553
0.6620126
0.66166605
0.66576826
0.66485436
0.66289218
0.66449091
0.66607981
0.66208566
0.6592645
0.66059364
0.66137896
0.66101691
0.65836339
0.65362246
0.65229411
0.65397236
0.65795643
0.66137025
0.66374541
0.66652868
0.66903857
0.67004184
0.66984621
0.66832482
0.6657266
0.6637155
0.66289854
0.6627656
0.66287839
0.6631635
0.66344075
0.66367222
0.66394465
0.66434005
0.66488965
0.66564262
0.66645469
0.66690044
0.66692842
0.66676287
0.66635789
0.66589187
0.66549977
0.66520296
0.66503265
0.66498131
0.66499308
0.66505511
0.66512737
0.66519735
0.66525385
0.66529991
0.6653137
0.66538243
0.66537331
0.66519418
0.66526538
0.6660271
0.66655384
0.66560324
0.67426557
0.66882858
0.66194359
0.66150812
0.66564088
0.66477573
0.66294905
0.66465671
0.66624646
0.66211947
0.65915368
0.66051626
0.66138404
0.66106479
0.65853943
0.6539207
0.65260205
0.65428984
0.65827344
0.66164878
0.66431778
0.66771734
0.67045171
0.67119289
0.67070047
0.66855614
0.66556197
0.66355042
0.66285799
0.66277349
0.66289621
0.66316414
0.66342814
0.66366013
0.66393986
0.6643442
0.66489816
0.66564789
0.66645552
0.66689993
0.66692782
0.66676231
0.66635739
0.66589148
0.66549954
0.66520284
0.66503256
0.66498128
0.66499312
0.66505518
0.6651274
0.66519737
0.66525388
0.66529992
0.66531372
0.66538244
0.66537327
0.66519417
0.66526551
0.66602725
0.6665538
0.66560301
0.67441846
0.66887763
0.66186794
0.66133402
0.66550402
0.66469388
0.6630097
0.66483529
0.66642513
0.66216219
0.6590385
0.66043069
0.66139782
0.66112455
0.65873097
0.65425835
0.65297402
0.65468538
0.65871174
0.6621885
0.66531912
0.66929215
0.67188165
0.67224284
0.67141222
0.66871967
0.66536204
0.66338619
0.6628225
0.66277513
0.6629372
0.66320854
0.66344882
0.66366516
0.66394163
0.66434695
0.66490178
0.66564948
0.66645436
0.6668982
0.66692637
0.6667613
0.66635684
0.66589113
0.66549932
0.66520271
0.66503247
0.66498124
0.66499317
0.66505526
0.66512744
0.6651974
0.6652539
0.66529993
0.66531373
0.66538245
0.66537324
0.66519415
0.66526565
0.6660274
0.66655377
0.66560277
0.6745755
0.66892208
0.66178615
0.66114337
0.66535826
0.66460933
0.66307081
0.66502794
0.66661651
0.66221486
0.6589214
0.66033517
0.6614179
0.66119666
0.6589408
0.65464386
0.65341975
0.65516137
0.65927466
0.66302763
0.66667099
0.67069506
0.672617
0.67269607
0.67166726
0.66861853
0.66510201
0.66323719
0.66277876
0.66276125
0.66296404
0.66324593
0.66347523
0.66367952
0.66394761
0.66434904
0.66490284
0.66564899
0.66645205
0.6668959
0.66692447
0.66676002
0.66635625
0.66589081
0.66549911
0.66520257
0.66503237
0.6649812
0.66499322
0.66505533
0.66512749
0.66519742
0.66525393
0.66529994
0.66531375
0.66538246
0.6653732
0.66519414
0.66526579
0.66602756
0.66655373
0.66560252
0.67473534
0.66896162
0.66169895
0.66093656
0.66520163
0.66452504
0.6631337
0.66523664
0.666821
0.66227718
0.65880591
0.6602296
0.66144445
0.66128271
0.6591722
0.65508734
0.65394565
0.65570726
0.65995251
0.66413121
0.66811399
0.67138402
0.67258884
0.67249661
0.67127953
0.66815574
0.66478124
0.6631032
0.66273407
0.66274282
0.66297996
0.66326947
0.66349179
0.66368941
0.66395259
0.66435069
0.66490298
0.66564762
0.66644948
0.66689341
0.66692237
0.66675858
0.6663556
0.66589048
0.66549889
0.66520243
0.66503226
0.66498116
0.66499327
0.66505541
0.66512753
0.66519744
0.66525396
0.66529996
0.66531376
0.66538248
0.66537316
0.66519412
0.66526595
0.66602773
0.66655369
0.66560226
0.67489584
0.66899591
0.66160631
0.66071414
0.6650306
0.66443783
0.66319869
0.66546333
0.66703851
0.66234735
0.65869662
0.66011647
0.66147939
0.66138492
0.65942918
0.65560016
0.65455427
0.65631045
0.6607191
0.66540251
0.66937942
0.67130127
0.67121598
0.67092507
0.6697877
0.66721058
0.66439056
0.66298548
0.66269584
0.66272771
0.66299119
0.66328454
0.66350212
0.66369611
0.66395638
0.66435182
0.66490219
0.66564578
0.66644694
0.6668909
0.66692017
0.66675704
0.6663549
0.66589013
0.66549866
0.66520227
0.66503215
0.66498111
0.66499333
0.6650555
0.66512758
0.66519747
0.66525399
0.66529997
0.66531378
0.66538249
0.66537311
0.6651941
0.66526611
0.66602791
0.66655364
0.66560199
0.67505403
0.66902426
0.66150596
0.66047558
0.66484172
0.66434623
0.66326811
0.66570988
0.66726953
0.66242347
0.65859917
0.66000232
0.66152424
0.66150996
0.6597154
0.65619082
0.65524887
0.65697288
0.66154236
0.66671261
0.67028936
0.67042909
0.66950083
0.66871891
0.66773985
0.66597087
0.66394529
0.6628787
0.66266424
0.66271701
0.66299984
0.66329391
0.66350847
0.66370109
0.66395977
0.66435262
0.66490079
0.66564351
0.66644431
0.66688835
0.66691788
0.66675542
0.66635414
0.66588976
0.66549842
0.66520211
0.66503202
0.66498106
0.66499339
0.66505559
0.66512763
0.6651975
0.66525402
0.66529998
0.6653138
0.6653825
0.66537307
0.66519408
0.66526628
0.6660281
0.66655359
0.66560171
0.67520625
0.66904443
0.66139219
0.66021877
0.66462712
0.66424633
0.66334163
0.66597696
0.66751677
0.66250119
0.65851996
0.65989834
0.66158465
0.66166514
0.66003662
0.65686066
0.65603715
0.65771502
0.66240767
0.66791105
0.67057242
0.67019809
0.66827507
0.66685341
0.66591648
0.66477498
0.66349232
0.66277672
0.66263513
0.66270924
0.66300668
0.66329927
0.66351195
0.66370449
0.66396261
0.66435345
0.66489945
0.66564114
0.66644153
0.66688566
0.66691548
0.66675369
0.66635331
0.66588935
0.66549816
0.66520193
0.66503189
0.66498101
0.66499345
0.66505568
0.66512768
0.66519752
0.66525406
0.66529999
0.66531381
0.66538252
0.66537302
0.66519406
0.66526646
0.66602831
0.66655354
0.66560142
0.67534844
0.66905191
0.661257
0.65993957
0.66438658
0.66413427
0.66341828
0.66626456
0.66778461
0.66257595
0.6584656
0.65982035
0.66167201
0.6618607
0.66039926
0.65760235
0.65692247
0.65856505
0.66331213
0.66887401
0.67122387
0.67048036
0.66781841
0.66565212
0.66461012
0.66383436
0.66309301
0.66268077
0.66260314
0.66270302
0.66301246
0.66330204
0.66351336
0.66370641
0.66396446
0.66435406
0.66489842
0.66563904
0.66643873
0.66688284
0.66691294
0.66675185
0.66635243
0.66588891
0.66549788
0.66520175
0.66503175
0.66498096
0.66499351
0.66505578
0.66512774
0.66519755
0.66525409
0.66530001
0.66531383
0.66538254
0.66537296
0.66519404
0.66526665
0.66602852
0.66655349
0.66560113
0.67547779
0.66904669
0.66109682
0.65963078
0.66411924
0.66401289
0.66349819
0.66657116
0.66807582
0.66265692
0.65843991
0.6597843
0.66180687
0.66211865
0.66080934
0.65839857
0.65789313
0.65953641
0.66427097
0.67004911
0.67240742
0.67137916
0.66793484
0.66505502
0.66380103
0.66320065
0.66279301
0.66259707
0.66256377
0.66269951
0.66301822
0.66330359
0.66351387
0.66370759
0.66396554
0.6643541
0.66489729
0.6656372
0.66643615
0.66688002
0.66691032
0.66674993
0.66635148
0.66588843
0.66549758
0.66520155
0.6650316
0.6649809
0.66499358
0.66505589
0.66512779
0.66519759
0.66525413
0.66530002
0.66531385
0.66538255
0.66537291
0.66519402
0.66526685
0.66602875
0.66655343
0.66560083
0.67559673
0.66901608
0.66091724
0.65928322
0.66381628
0.66387777
0.66357095
0.66689231
0.66838499
0.66275528
0.65843421
0.65978806
0.66200996
0.66246153
0.66127801
0.65924491
0.65892611
0.66062945
0.66546066
0.67153992
0.67380961
0.67249609
0.66840961
0.66487397
0.66336854
0.66283113
0.66260457
0.6625248
0.66252651
0.6626986
0.66302357
0.66330458
0.66351445
0.66370897
0.66396644
0.66435339
0.66489566
0.66563556
0.66643403
0.66687737
0.66690775
0.66674797
0.66635046
0.66588791
0.66549726
0.66520133
0.66503143
0.66498083
0.66499366
0.665056
0.66512785
0.66519762
0.66525417
0.66530004
0.66531387
0.66538257
0.66537285
0.66519399
0.66526706
0.66602899
0.66655336
0.66560051
0.67571599
0.66896475
0.66071525
0.65889093
0.66346591
0.6637246
0.66362249
0.6672272
0.66870115
0.66288339
0.65844608
0.65984651
0.66229781
0.66288641
0.661815
0.66014913
0.66000355
0.66186516
0.66692412
0.67310042
0.67494559
0.67330937
0.66879462
0.66486628
0.66318186
0.66265685
0.66251045
0.66246582
0.66250114
0.6627009
0.66302766
0.66330513
0.66351553
0.66371101
0.66396762
0.66435265
0.66489399
0.66563434
0.66643252
0.66687506
0.66690534
0.66674605
0.66634937
0.66588732
0.66549691
0.6652011
0.66503126
0.66498077
0.66499373
0.66505612
0.66512792
0.66519765
0.66525421
0.66530005
0.66531389
0.66538259
0.66537279
0.66519397
0.66526728
0.66602925
0.66655329
0.66560017
0.67585195
0.66888822
0.6604743
0.65843036
0.66304532
0.66354958
0.66361153
0.66758216
0.66902304
0.66303067
0.65853224
0.65997127
0.66266591
0.66338818
0.66241617
0.6610979
0.66113217
0.66323025
0.66853003
0.67430513
0.67544027
0.67357619
0.66889945
0.66486432
0.66311356
0.6625958
0.66246947
0.66243404
0.66248941
0.66270309
0.66302983
0.66330529
0.66351668
0.66371325
0.66396932
0.66435259
0.66489313
0.66563385
0.6664318
0.66687315
0.66690314
0.66674418
0.66634821
0.66588665
0.66549652
0.66520086
0.66503108
0.6649807
0.66499382
0.66505624
0.66512799
0.66519769
0.66525425
0.66530007
0.66531392
0.66538261
0.66537272
0.66519394
0.66526752
0.66602952
0.66655322
0.66559983
0.67601129
0.66878061
0.66018446
0.65787947
0.66252896
0.66332177
0.6635659
0.66795039
0.66936239
0.66318581
0.65868828
0.66017834
0.66311812
0.66397757
0.66309145
0.66208216
0.66230578
0.66469303
0.67002842
0.67485413
0.67542845
0.67339659
0.66875886
0.66479688
0.66307465
0.66257196
0.66245269
0.66242147
0.66248568
0.66270494
0.66303086
0.66330528
0.66351742
0.66371484
0.6639709
0.66435323
0.66489312
0.66563432
0.66643183
0.66687169
0.66690119
0.66674239
0.66634696
0.6658859
0.66549609
0.66520059
0.66503088
0.66498062
0.66499391
0.66505637
0.66512806
0.66519773
0.6652543
0.66530009
0.66531394
0.66538263
0.66537265
0.66519391
0.66526777
0.66602981
0.66655314
0.66559949
0.67618513
0.66863932
0.65986049
0.65723312
0.66189754
0.66300461
0.66345756
0.6683156
0.66972819
0.66336421
0.65891167
0.66047885
0.6636676
0.66466751
0.6638483
0.66310693
0.66354072
0.66626145
0.6713035
0.67479157
0.67460791
0.67236132
0.66811222
0.66459095
0.66302342
0.66255517
0.66244402
0.66241596
0.66248528
0.66270741
0.66303224
0.66330555
0.66351774
0.66371542
0.66397147
0.66435385
0.66489468
0.66563711
0.66643342
0.66687072
0.66689945
0.66674063
0.66634561
0.66588505
0.66549561
0.66520031
0.66503067
0.66498054
0.664994
0.66505651
0.66512813
0.66519777
0.66525434
0.66530011
0.66531397
0.66538265
0.66537257
0.66519388
0.66526803
0.66603012
0.66655306
0.66559911
0.67636826
0.66846117
0.65955011
0.65649394
0.66112729
0.66255033
0.66326128
0.66869158
0.67012017
0.6635991
0.65919709
0.66089616
0.66436774
0.66545744
0.66469833
0.66418993
0.66491187
0.66801907
0.67249866
0.67415274
0.67333152
0.6707884
0.66711497
0.66425396
0.66294544
0.66253564
0.66243584
0.66241144
0.6624866
0.6627116
0.66303455
0.66330586
0.66351773
0.66371549
0.6639715
0.6643543
0.6648971
0.6656415
0.66643626
0.66687011
0.6668978
0.66673884
0.66634415
0.66588411
0.6654951
0.66520001
0.66503044
0.66498046
0.6649941
0.66505666
0.66512821
0.66519781
0.66525439
0.66530012
0.66531399
0.66538268
0.66537249
0.66519385
0.66526831
0.66603045
0.66655296
0.66559871
0.67654785
0.66824471
0.65930187
0.65568985
0.66017944
0.66190572
0.66295489
0.66909842
0.6705165
0.66391387
0.65953973
0.66148006
0.66528118
0.6663475
0.66563517
0.66533054
0.66647427
0.67008261
0.67359067
0.67391352
0.67244825
0.66949243
0.66619878
0.66389898
0.66285062
0.66250979
0.66242388
0.66240541
0.66248897
0.66271705
0.66303706
0.66330582
0.66351736
0.66371536
0.66397138
0.6643547
0.6648995
0.66564584
0.66643895
0.66686937
0.66689601
0.6667369
0.66634256
0.66588309
0.66549454
0.66519969
0.6650302
0.66498037
0.66499421
0.66505681
0.66512829
0.66519786
0.66525445
0.66530014
0.66531402
0.6653827
0.6653724
0.66519381
0.6652686
0.66603081
0.66655287
0.66559831
0.67671183
0.66797478