/*--------------------------------*- C++ -*----------------------------------*\
| =========                 |                                                 |
| \\      /  F ield         | OpenFOAM: The Open Source CFD Toolbox           |
|  \\    /   O peration     | Version:  2506                                  |
|   \\  /    A nd           | Website:  www.openfoam.com                      |
|    \\/     M anipulation  |                                                 |
\*---------------------------------------------------------------------------*/
FoamFile
{
    version     2.0;
    format      ascii;
    arch        "LSB;label=32;scalar=64";
    class       volVectorField;
    location    "0.022";
    object      U;
}
// * * * * * * * * * * * * * * * * * * * * * * * * * * * * * * * * * * * * * //

dimensions      [0 1 -1 0 0 0 0];

internalField   nonuniform List<vector> 
13763
(
(81.768826 -2.5029322 0)
(83.727628 -8.3576986 3.379753e-22)
(84.773797 -9.6055829 -3.4065061e-22)
(85.225467 -6.7343638 -2.1792112e-20)
(86.887552 1.4819137 -3.3280469e-22)
(86.485672 7.7998157 3.1267655e-22)
(85.170324 9.0254535 0)
(83.581412 6.4198722 2.5836725e-22)
(82.155943 -0.42424318 -7.0093791e-22)
(82.125238 -2.9855586 4.2346454e-22)
(82.137074 -2.6752161 2.4114835e-20)
(82.965794 -0.6791583 2.2083279e-20)
(83.386759 0.82509941 3.1134085e-22)
(83.204425 0.95674686 0)
(82.106516 0.47732672 3.2749478e-20)
(78.000428 -0.077857906 0)
(72.994701 -0.40645889 0)
(69.588477 -0.42286532 0)
(67.959637 -0.30482753 0)
(67.517794 -0.12137216 0)
(67.54702 0.10126589 0)
(67.869481 0.16596147 3.1139043e-20)
(69.217788 0.19344851 4.4187783e-22)
(70.524979 0.1457746 -1.993369e-22)
(71.298922 0.11485384 2.2835679e-20)
(72.54758 0.14688924 -2.0583852e-20)
(74.133927 0.13172306 0)
(75.247379 0.058679994 0)
(76.079746 -0.001233141 0)
(77.487763 0.027702385 0)
(79.356906 0.088013665 0)
(80.769131 0.066294994 0)
(81.453312 0.020846996 -1.57297e-22)
(82.199779 -0.010057745 3.6569729e-20)
(83.711903 -0.034710064 3.2587431e-20)
(85.948973 -0.013825266 -3.2804184e-27)
(88.427172 -0.011087186 2.6197557e-20)
(90.603257 -0.040141786 0)
(92.1527 -0.060878852 0)
(93.075727 -0.059363221 0)
(93.554275 -0.04646413 1.3753549e-22)
(93.777118 -0.035327978 -1.2420991e-22)
(93.875326 -0.025909715 0)
(93.928553 -0.020606542 -2.5866752e-20)
(93.963459 -0.017959175 0)
(93.99613 -0.013755138 2.1021872e-20)
(94.03309 -0.010746734 0)
(94.065662 -0.01138373 -6.6677834e-23)
(81.766065 -2.5161172 0)
(83.740765 -8.3646072 3.3504522e-22)
(84.794978 -9.6071299 -3.3346472e-22)
(85.235996 -6.7320927 2.1060886e-20)
(86.877145 1.4862659 -3.1856687e-22)
(86.472138 7.8046443 2.9818996e-22)
(85.159228 9.0278993 6.9975314e-20)
(83.575241 6.4208593 2.4596152e-22)
(82.151129 -0.42509098 -4.4383618e-22)
(82.11334 -2.9822636 0)
(82.122471 -2.6729818 2.3259204e-20)
(82.947041 -0.67919435 2.0653274e-20)
(83.367577 0.82591857 2.9594254e-22)
(83.185093 0.95906158 -6.8481956e-20)
(82.094954 0.48397508 3.1129657e-20)
(78.011516 -0.067770013 0)
(72.999837 -0.39644699 0)
(69.570318 -0.41579395 -4.6361405e-20)
(67.917526 -0.3007856 4.1571312e-20)
(67.464501 -0.11927525 0)
(67.490534 0.1017774 -6.6353806e-20)
(67.808619 0.16503728 -3.0075553e-20)
(69.159655 0.19148748 -5.3571326e-20)
(70.500507 0.14460022 0)
(71.25885 0.11400615 -2.188841e-20)
(72.49078 0.1450527 1.9731453e-20)
(74.104494 0.12968412 -2.7786409e-22)
(75.244626 0.057625408 2.5067799e-22)
(76.061927 -0.0023891812 0)
(77.4407 0.025573942 2.0382764e-22)
(79.324017 0.085990984 -3.6760281e-22)
(80.774173 0.06569854 1.8875345e-26)
(81.467906 0.020650074 -3.8166551e-20)
(82.197196 -0.011015053 -1.0358584e-19)
(83.698829 -0.037058863 -9.3025741e-20)
(85.938635 -0.017558607 5.5393464e-20)
(88.426485 -0.015116222 -2.4833851e-20)
(90.608016 -0.042563498 1.7645457e-22)
(92.156951 -0.062128645 -3.193553e-22)
(93.077804 -0.059789969 1.4469552e-22)
(93.554954 -0.046340209 0)
(93.777261 -0.034911107 0)
(93.875345 -0.025550009 0)
(93.928556 -0.020325681 2.4720442e-20)
(93.96347 -0.017713179 -8.6724547e-23)
(93.996145 -0.013591946 -1.9857084e-20)
(94.033103 -0.01068111 -1.4091535e-22)
(94.065674 -0.011314807 -1.2696561e-22)
(94.090072 -0.010107187 5.8790971e-20)
(94.102099 -0.0073826241 5.2541772e-20)
(81.762687 -2.5289269 0)
(83.754754 -8.3713286 3.2621294e-22)
(84.817179 -9.6088951 -3.2237292e-22)
(85.247324 -6.7308624 -3.1563121e-22)
(86.866379 1.4900153 3.0344151e-22)
(86.457857 7.809709 0)
(85.14749 9.0304483 5.1654886e-22)
(83.568737 6.4221514 5.9280233e-20)
(82.146569 -0.42571676 -4.2130921e-22)
(82.101765 -2.9843875 9.8102151e-20)
(82.106896 -2.6739252 -4.3822673e-20)
(82.927455 -0.67982268 3.9535599e-20)
(83.347174 0.82698609 7.1939661e-20)
(83.164571 0.96155514 6.5043379e-20)
(82.08263 0.49065101 -5.913848e-20)
(78.024352 -0.059099086 0)
(73.007435 -0.38788879 0)
(69.554161 -0.410062 1.3113792e-19)
(67.876753 -0.29790122 -3.9198107e-20)
(67.412406 -0.11837324 0)
(67.435059 0.10169767 6.3062883e-20)
(67.749437 0.16351302 0)
(69.103662 0.18855672 5.1121506e-20)
(70.475334 0.14245048 0)
(71.22122 0.11216845 -3.2514345e-22)
(72.438881 0.14238097 2.931606e-22)
(74.076442 0.1267224 0)
(75.239735 0.055632331 6.102614e-20)
(76.045015 -0.0046090865 -2.1504585e-22)
(77.399854 0.022207719 9.9458555e-20)
(79.295341 0.082363749 8.9510718e-20)
(80.777199 0.063371972 0)
(81.480201 0.01924491 3.6451741e-20)
(82.197962 -0.012867233 1.314059e-19)
(83.694837 -0.039986449 2.304942e-22)
(85.93886 -0.022096587 -5.312098e-20)
(88.435148 -0.020104308 9.5458398e-20)
(90.619216 -0.046155384 -3.3587491e-22)
(92.164735 -0.064413109 1.5198657e-22)
(93.081424 -0.060965168 -7.051283e-20)
(93.556178 -0.046918417 0)
(93.777568 -0.035296604 0)
(93.875399 -0.025797163 0)
(93.928566 -0.020510939 0)
(93.963483 -0.017873864 -1.6511e-22)
(93.996162 -0.013709926 1.4884826e-22)
(94.033118 -0.010756605 -1.3415205e-22)
(94.065686 -0.011411073 1.2087589e-22)
(94.090085 -0.010338894 -5.586386e-20)
(94.102109 -0.0076931572 5.02209e-20)
(94.105963 -0.0060391012 8.8340623e-23)
(81.758818 -2.5423573 -3.2144188e-22)
(83.769673 -8.3783975 8.1423265e-20)
(84.840529 -9.610773 -7.9689458e-20)
(85.259551 -6.7296669 -7.7430348e-20)
(86.85521 1.4936849 7.3960274e-20)
(86.442781 7.8148838 0)
(85.135057 9.0332297 -6.2776425e-20)
(83.56187 6.4236396 -5.6703707e-20)
(82.141971 -0.4267673 1.0238623e-19)
(82.08939 -2.9844359 -9.3129377e-20)
(82.09055 -2.6735907 9.1523915e-26)
(82.906836 -0.68048189 2.9557425e-22)
(83.325512 0.82756382 -2.0496405e-19)
(83.142698 0.96386072 1.2355592e-19)
(82.069575 0.49716969 0)
(78.039206 -0.049975661 0)
(73.017713 -0.37897205 -9.2317831e-20)
(69.540317 -0.40405582 -8.3399931e-20)
(67.837737 -0.29491139 2.9104105e-22)
(67.361819 -0.1173822 1.3353067e-19)
(67.3809 0.10154681 1.1987244e-19)
(67.692169 0.1617761 0)
(69.050097 0.18526764 0)
(70.449214 0.14008286 3.425775e-22)
(71.185666 0.1102386 -7.9451549e-20)
(72.392036 0.13949433 0)
(74.050116 0.12347783 1.2864504e-19)
(75.232532 0.053645735 -1.7411031e-19)
(76.028495 -0.006510946 0)
(77.365151 0.019106652 -1.8883334e-19)
(79.271448 0.078699293 1.66279e-22)
(80.778196 0.061271231 -1.500896e-22)
(81.489108 0.018336895 -2.7091544e-22)
(82.202696 -0.014532212 6.2511697e-20)
(83.701171 -0.043113447 5.6365123e-20)
(85.952064 -0.026636828 1.9667877e-22)
(88.455249 -0.025037972 -7.5336926e-27)
(90.638409 -0.049591868 -1.598436e-22)
(92.176972 -0.066555259 -1.4466177e-22)
(93.087032 -0.062017012 2.0148687e-19)
(93.558128 -0.047330427 -1.1861053e-22)
(93.778092 -0.03544379 4.995444e-27)
(93.875509 -0.025861783 9.6649122e-23)
(93.928589 -0.020542765 0)
(93.963499 -0.017900148 0)
(93.996182 -0.01373807 -1.4495931e-19)
(94.033135 -0.010785027 -2.5543163e-22)
(94.0657 -0.011404054 1.1795784e-19)
(94.090099 -0.010244524 0)
(94.10212 -0.0075868775 -9.5632576e-20)
(94.105971 -0.0061294687 8.4106961e-23)
(94.119152 -0.0055782391 1.7107947e-27)
(94.150577 -0.0047199484 -2.0965154e-19)
(81.754587 -2.5565255 -3.1372561e-22)
(83.785589 -8.3858877 -7.8634943e-20)
(84.865151 -9.6127555 1.5326456e-19)
(85.272764 -6.7283792 2.2203793e-19)
(86.843597 1.4975489 7.0929832e-20)
(86.426863 7.8202594 -1.3063893e-19)
(85.121896 9.0361781 -4.6520765e-22)
(83.554575 6.4252156 4.2044439e-22)
(82.137297 -0.42784557 -9.7159273e-20)
(82.07648 -2.9856328 -8.8391554e-20)
(82.073262 -2.6738681 3.1115215e-22)
(82.885078 -0.68120063 -7.1849966e-20)
(83.302504 0.82795158 1.2974819e-19)
(83.119375 0.96616465 -1.1733425e-19)
(82.055814 0.50391409 -4.1676404e-22)
(78.056388 -0.040342925 1.0599334e-25)
(73.030989 -0.36955904 8.8388703e-20)
(69.529134 -0.39766176 -3.0836232e-22)
(67.800937 -0.29168913 -1.4129864e-19)
(67.313066 -0.11623964 -1.2713081e-19)
(67.328377 0.10142292 -2.2783359e-19)
(67.637076 0.15997325 4.0036886e-22)
(68.999318 0.18178424 9.2013997e-20)
(70.421944 0.13762503 0)
(71.1517 0.1082901 7.5239028e-20)
(72.350341 0.13648969 -1.3568764e-19)
(74.025983 0.12007225 -1.2232258e-19)
(75.222968 0.051594991 2.1558328e-22)
(76.011817 -0.008543482 -1.9452946e-22)
(77.336449 0.015724248 8.9623864e-20)
(79.253005 0.074856433 -2.4310088e-19)
(80.777268 0.059052588 5.7103658e-22)
(81.493591 0.017063588 -5.1547413e-22)
(82.212495 -0.016311111 -1.1894364e-19)
(83.721027 -0.046273111 -1.0662802e-19)
(85.981371 -0.031453919 9.5821323e-20)
(88.489578 -0.030293056 -8.6119289e-20)
(90.667583 -0.053252675 -1.5593772e-19)
(92.194806 -0.068819087 -1.4114743e-19)
(93.095178 -0.063107723 -1.2764955e-19)
(93.561028 -0.047769283 0)
(93.778915 -0.035630376 -1.0440626e-19)
(93.8757 -0.025952716 9.4199665e-20)
(93.928631 -0.020601563 0)
(93.963521 -0.017951659 1.5321276e-19)
(93.996205 -0.013781457 1.3812968e-19)
(94.033153 -0.010830356 0)
(94.065714 -0.01146182 -1.1230013e-19)
(94.090113 -0.01032035 9.8709512e-23)
(94.102131 -0.0076343 -8.891374e-23)
(94.105977 -0.0060963273 8.0084941e-23)
(94.119157 -0.0054889924 7.2126541e-23)
(94.150583 -0.0046268028 1.3297536e-19)
(94.182311 -0.0039813414 1.1982117e-19)
(94.215602 -0.0036482861 0)
(81.750114 -2.5715383 3.0513884e-22)
(83.802567 -8.3938353 -2.9732798e-22)
(84.891173 -9.6148433 -7.3854464e-20)
(85.287051 -6.7269646 -1.4169313e-19)
(86.831496 1.5016998 -1.3333525e-19)
(86.410057 7.8259314 1.2297642e-19)
(85.107961 9.0392323 4.4131756e-22)
(83.546807 6.4268642 1.0207145e-19)
(82.13256 -0.42902276 -3.599939e-22)
(82.062957 -2.9863066 -8.2893297e-20)
(82.055048 -2.6738099 -2.9530145e-22)
(82.862056 -0.68195901 5.327407e-22)
(83.278036 0.82839075 -4.81216e-22)
(83.094524 0.96859342 4.3511653e-22)
(82.041382 0.51102902 -1.0131643e-19)
(78.076249 -0.030234085 -1.0066162e-25)
(73.047627 -0.35960875 -9.7612595e-26)
(69.520989 -0.3908497 -2.9292935e-22)
(67.766834 -0.28822185 1.3449872e-19)
(67.266512 -0.11498986 -1.2054755e-19)
(67.277828 0.10131727 1.0866398e-19)
(67.584419 0.15810178 -3.8050027e-22)
(68.95174 0.17808671 -8.7788386e-20)
(70.393359 0.13503806 3.0950947e-22)
(71.118707 0.10627013 1.4276008e-19)
(72.313834 0.13333665 2.5773536e-19)
(74.004646 0.11644872 -1.1607215e-19)
(75.21111 0.049442285 2.1011622e-19)
(75.994429 -0.010652598 1.8496014e-22)
(77.31368 0.012229675 -3.3360642e-22)
(79.240779 0.070764492 1.5403574e-19)
(80.774366 0.056683003 2.7155498e-22)
(81.493274 0.015866462 -1.2577164e-19)
(82.229294 -0.018195835 0)
(83.758138 -0.049646961 1.0164029e-19)
(86.03103 -0.036562352 -9.1176797e-20)
(88.541759 -0.035783347 0)
(90.709207 -0.057052957 1.4842485e-19)
(92.219613 -0.071154282 -1.310816e-22)
(93.106506 -0.064234061 1.2162107e-19)
(93.56514 -0.048227167 0)
(93.780132 -0.035824453 9.9564384e-20)
(93.876002 -0.026047434 -8.9834265e-20)
(93.928701 -0.020661771 0)
(93.963549 -0.018002861 -1.4584076e-19)
(93.99623 -0.01382626 1.3148894e-19)
(94.033173 -0.010871885 1.157433e-22)
(94.06573 -0.011497491 -2.0860404e-22)
(94.090127 -0.01034463 1.8794911e-22)
(94.102143 -0.0076617486 -4.6055539e-27)
(94.105984 -0.0061426899 -4.4940803e-27)
(94.119162 -0.0055413021 -6.8672918e-23)
(94.150588 -0.0046688763 0)
(94.182316 -0.0040384641 -1.1398052e-19)
(94.215607 -0.0036771278 -1.003404e-22)
(94.259989 -0.0032470826 9.0363266e-23)
(94.259891 -0.0032588666 -8.1362001e-23)
(81.745516 -2.5874347 1.5176804e-19)
(83.820665 -8.4022606 1.4664332e-19)
(84.918719 -9.6170418 0)
(85.3025 -6.7254238 5.2862097e-22)
(86.818867 1.5061466 1.2674716e-19)
(86.392313 7.831928 0)
(85.093195 9.0424178 -4.1845824e-22)
(83.538599 6.4286027 -2.9005692e-19)
(82.127771 -0.43025122 -1.7486772e-19)
(82.048815 -2.987275 1.5915507e-19)
(82.035826 -2.6738906 -5.6047792e-22)
(82.837674 -0.68277495 -5.0564561e-22)
(83.251998 0.82891666 -1.1646752e-19)
(83.068059 0.97117348 2.1193799e-19)
(82.026325 0.51849463 -9.6573252e-20)
(78.09918 -0.019647281 0)
(73.068019 -0.34911102 0)
(69.516285 -0.38361543 0)
(67.735935 -0.28451326 1.27771e-19)
(67.222576 -0.11363671 3.4357485e-19)
(67.22962 0.1012167 0)
(67.534452 0.15613439 0)
(68.907828 0.17414239 3.2587463e-22)
(70.363345 0.1322986 1.5003548e-19)
(71.085969 0.1041534 2.0908157e-26)
(72.282512 0.13000357 -1.223881e-19)
(73.986878 0.11259339 1.1057159e-19)
(75.197148 0.047171346 -1.0018691e-19)
(75.975838 -0.012855826 7.0361587e-22)
(77.297035 0.0084959175 -2.4488684e-26)
(79.235644 0.066398871 -2.8613722e-22)
(80.769012 0.054199951 0)
(81.48868 0.014567736 2.3881091e-19)
(82.256158 -0.020227038 2.152783e-19)
(83.817602 -0.053210903 1.8885932e-22)
(86.10659 -0.041948667 -1.6946067e-22)
(88.616302 -0.041501769 1.5265472e-22)
(90.766213 -0.06099337 1.4073623e-19)
(92.252975 -0.073555441 1.2803084e-19)
(93.121747 -0.065387947 -1.15543e-19)
(93.570761 -0.0487 -2.0454472e-22)
(93.78185 -0.036027222 -1.8934005e-19)
(93.876449 -0.026146343 1.666797e-22)
(93.928808 -0.020724603 -1.539434e-19)
(93.963586 -0.0180563 0)
(93.996257 -0.013871815 -2.5033628e-19)
(94.033193 -0.010914265 0)
(94.065744 -0.011536695 0)
(94.090141 -0.010371894 1.8331985e-19)
(94.102154 -0.0076765728 -1.6119413e-22)
(94.105992 -0.0061568853 7.2598079e-23)
(94.119168 -0.0055536249 0)
(94.150594 -0.0046765411 0)
(94.182321 -0.0040364112 1.0609582e-22)
(94.215612 -0.0036779021 1.1560532e-26)
(94.259993 -0.0031920014 1.7613742e-19)
(94.25989 -0.0029806308 -1.5867917e-19)
(94.181501 -0.0023831342 -6.9751118e-23)
(94.255399 -0.0010542663 1.2865967e-19)
(94.727844 0.0015727722 2.3170749e-19)
(81.740894 -2.6042667 -2.9407406e-19)
(83.839928 -8.4111893 -2.8325841e-19)
(84.947914 -9.6193577 -1.3608532e-19)
(85.319204 -6.7237526 5.044322e-22)
(86.805673 1.510895 -1.213721e-19)
(86.373564 7.8382526 4.3559143e-22)
(85.077568 9.0457592 -3.9684614e-22)
(83.529865 6.4304608 1.8361031e-19)
(82.122949 -0.43156619 1.6584845e-19)
(82.034041 -2.9881053 0)
(82.015564 -2.6738557 0)
(82.811826 -0.68365856 2.4572003e-19)
(83.224273 0.82950095 1.1097641e-19)
(83.039884 0.97388999 -2.0079028e-19)
(82.010686 0.52629172 1.8229289e-19)
(78.125626 -0.0085599104 9.0767367e-26)
(73.092576 -0.3380398 8.8053779e-22)
(69.515466 -0.37593495 1.3477209e-19)
(67.708764 -0.28054712 -1.2184094e-19)
(67.181715 -0.11217002 -2.1716088e-19)
(67.184139 0.10112233 1.9542117e-19)
(67.487434 0.15406088 0)
(68.868077 0.1699404 -1.5824592e-19)
(70.331856 0.12940655 -1.4370728e-19)
(71.052701 0.10192959 -1.289806e-19)
(72.25631 0.12647363 0)
(73.973653 0.10850871 0)
(75.181427 0.04478462 0)
(75.955729 -0.015176719 0)
(77.287702 0.0046494607 1.5445689e-19)
(79.238412 0.061855509 0)
(80.760268 0.051580026 0)
(81.481925 0.013178089 -1.1379638e-19)
(82.297703 -0.022434786 -2.0458158e-19)
(83.906113 -0.057009764 1.8416373e-19)
(86.214941 -0.047632393 -1.6126355e-22)
(88.718515 -0.047426802 2.9060976e-22)
(90.841884 -0.065052895 -1.3463511e-19)
(92.296602 -0.076005583 2.3759487e-22)
(93.141677 -0.06656016 -9.31328e-27)
(93.578201 -0.049185322 -1.9467914e-22)
(93.784177 -0.036238343 1.8002724e-19)
(93.877077 -0.026249565 0)
(93.928963 -0.020790404 1.466693e-19)
(93.963634 -0.018112329 -1.2904611e-22)
(93.996286 -0.013919687 3.573286e-19)
(94.033212 -0.010959405 6.3339034e-28)
(94.065757 -0.01157869 -1.9359397e-19)
(94.090153 -0.010402925 -1.7418378e-19)
(94.102164 -0.007698891 1.5699825e-19)
(94.105999 -0.0061799158 0)
(94.119174 -0.0055783724 2.5499732e-19)
(94.1506 -0.0046988086 -2.2969461e-19)
(94.182327 -0.0040559088 -1.0102385e-22)
(94.215618 -0.0036967177 -1.8624028e-19)
(94.259995 -0.0032694266 -1.6780675e-19)
(94.259887 -0.0032747354 3.0220917e-19)
(94.181503 -0.0031538863 1.3603108e-19)
(94.255427 -0.0019683022 2.4492931e-19)
(94.727877 0.0024557979 -2.2066369e-19)
(94.967765 0.0018322515 0)
(94.622568 0.0010452849 -1.7880846e-19)
(81.736338 -2.6221016 1.4160907e-19)
(83.860398 -8.4206555 1.3629151e-19)
(84.978883 -9.6217969 1.0173996e-21)
(85.337264 -6.7219362 -4.813967e-22)
(86.791874 1.51597 0)
(86.353732 7.8449178 0)
(85.061045 9.0492151 0)
(83.520199 6.4324804 0)
(82.118118 -0.43294955 0)
(82.018624 -2.9890314 0)
(81.994205 -2.6738436 0)
(82.784414 -0.68461916 4.931267e-26)
(83.194737 0.83012993 -4.1137835e-22)
(83.009896 0.97673195 1.9095387e-19)
(81.994501 0.5344278 3.3860333e-22)
(78.156066 0.0030559351 -3.0837847e-22)
(73.121713 -0.32636192 -1.4214676e-19)
(69.519016 -0.36777906 1.2799668e-19)
(67.68586 -0.27631219 0)
(67.144409 -0.11057904 0)
(67.141795 0.10103944 -1.8565363e-19)
(67.443641 0.15187563 0)
(68.832977 0.1654747 3.0132095e-19)
(70.298949 0.12636532 -2.7207412e-19)
(71.018135 0.099585164 2.4565498e-19)
(72.235053 0.12272667 -2.2160107e-19)
(73.966161 0.10420183 0)
(75.164563 0.042296061 0)
(75.934357 -0.017602209 1.6254153e-19)
(77.286687 0.00045129684 -1.4687491e-19)
(79.24958 0.057021569 2.4383886e-26)
(80.747211 0.048813088 2.3367692e-22)
(81.477049 0.011685872 2.162677e-19)
(82.360629 -0.024866221 -1.9498112e-19)
(84.032204 -0.06108807 -1.7503317e-19)
(86.364193 -0.053622117 3.0694206e-22)
(88.854224 -0.053523812 -2.7665814e-22)
(90.939616 -0.0692065 2.498638e-22)
(92.352197 -0.078483482 2.3142472e-19)
(93.167055 -0.067740104 2.0488341e-22)
(93.58776 -0.049680338 -1.852884e-22)
(93.787222 -0.036457214 -1.7133675e-19)
(93.877917 -0.026356902 0)
(93.929173 -0.020859076 -1.3619378e-22)
(93.963695 -0.01817084 1.2283239e-22)
(93.996317 -0.013969619 -4.536655e-19)
(94.033231 -0.011006238 -1.9969502e-22)
(94.065769 -0.011622171 1.7998279e-22)
(94.090165 -0.010434171 0)
(94.102174 -0.00771952 2.5417258e-27)
(94.106005 -0.006201805 2.6953657e-19)
(94.11918 -0.0056015719 -2.4278686e-19)
(94.150607 -0.0047166347 4.3751299e-19)
(94.182333 -0.0040673779 -9.6184966e-23)
(94.215624 -0.0036857534 1.7742557e-19)
(94.259999 -0.0031793819 -1.5979117e-19)
(94.259885 -0.0030433649 -4.3160246e-19)
(94.181503 -0.0026482014 -3.8868483e-19)
(94.255449 -0.001529733 -4.665027e-19)
(94.727906 0.0016230623 0)
(94.967763 0.00045654788 -4.617221e-23)
(94.622579 9.6012576e-05 -1.7025186e-19)
(81.731925 -2.6410115 5.3563876e-22)
(83.882108 -8.4306943 1.2992787e-19)
(85.011755 -9.6243663 1.2473714e-19)
(85.356788 -6.71996 4.5866178e-22)
(86.777431 1.5214058 2.1761523e-19)
(86.332778 7.8519418 3.9151061e-22)
(85.043554 9.0527279 0)
(83.50919 6.4346871 -1.650447e-19)
(82.11332 -0.43441668 1.4912356e-19)
(82.002555 -2.9899202 2.7111451e-19)
(81.971709 -2.6737724 -1.341886e-25)
(82.755333 -0.68564194 -2.2165867e-19)
(83.16326 0.83080315 0)
(82.977979 0.97969761 -3.6210549e-19)
(81.977791 0.54290771 1.655316e-19)
(78.191034 0.015220506 -1.6362382e-25)
(73.15585 -0.31404891 1.3497094e-19)
(69.527466 -0.3591159 -2.4405973e-19)
(67.667746 -0.2718076 0)
(67.111163 -0.10886007 -3.8340543e-22)
(67.103023 0.10097053 6.8895097e-22)
(67.403382 0.14956934 -3.1012619e-22)
(68.802945 0.16073527 1.4343188e-19)
(70.264859 0.12317812 2.5829639e-19)
(70.981678 0.097106642 -1.9896101e-26)
(72.218378 0.11873389 2.1104037e-19)
(73.965738 0.099642039 1.896233e-19)
(75.147692 0.039754996 1.7154219e-19)
(75.913007 -0.020203019 -3.1000105e-19)
(77.297107 -0.0039713629 2.7959156e-19)
(79.268672 0.051977476 0)
(80.730043 0.045960784 -2.2222059e-22)
(81.479712 0.009999754 -2.0550644e-19)
(82.454373 -0.027555434 3.7075067e-19)
(84.206468 -0.065476884 1.6652448e-19)
(86.563291 -0.059941011 -2.9215329e-22)
(89.029239 -0.0597261 2.6997925e-19)
(91.06251 -0.073418689 0)
(92.421227 -0.080962375 -2.2079166e-19)
(93.198527 -0.068915387 -1.9952845e-19)
(93.599699 -0.050182054 0)
(93.791075 -0.036683437 1.630642e-19)
(93.878999 -0.026468561 0)
(93.929446 -0.020931038 1.2962829e-22)
(93.96377 -0.018232268 -2.3955988e-19)
(93.996351 -0.014021774 2.1612973e-19)
(94.03325 -0.011055031 -1.9009644e-22)
(94.06578 -0.011667806 1.7544422e-19)
(94.090175 -0.010467542 0)
(94.102182 -0.0077419755 -1.4244095e-19)
(94.106011 -0.0062250789 -5.1336612e-19)
(94.119186 -0.0056269951 2.3127371e-19)
(94.150614 -0.0047388784 3.0976449e-27)
(94.182339 -0.0040885839 9.1592592e-23)
(94.215631 -0.0037144105 -8.2490597e-23)
(94.260003 -0.0032554072 -1.5215881e-19)
(94.259883 -0.003220441 2.7404398e-19)
(94.181507 -0.0029873586 2.4672017e-19)
(94.255479 -0.0016359135 2.2207435e-19)
(94.727941 0.0024317335 4.8811774e-23)
(94.967758 0.0016206141 1.8028547e-19)
(94.622581 0.00064427196 1.6218498e-19)
(81.727717 -2.66107 -1.3213014e-19)
(83.905087 -8.4413415 -3.7684277e-19)
(85.046663 -9.627073 0)
(85.377895 -6.7178072 4.3621921e-22)
(86.7623 1.5272326 -2.0731071e-19)
(86.310683 7.8593374 -1.9073244e-19)
(85.024985 9.0562977 6.7589431e-22)
(83.496974 6.4370726 4.6925748e-19)
(82.108609 -0.43596055 -1.4190779e-19)
(81.985825 -2.9908353 5.0134039e-22)
(81.948025 -2.6736838 2.3231144e-19)
(82.724486 -0.6867364 -2.0984978e-19)
(83.129701 0.83152658 1.8963719e-19)
(82.943997 0.98279015 1.7229631e-19)
(81.960561 0.55173752 1.555569e-19)
(78.231142 0.027963705 5.5558452e-22)
(73.195443 -0.30106167 -5.025759e-22)
(69.541341 -0.34991433 -2.3172961e-19)
(67.654981 -0.26681348 0)
(67.082518 -0.10699984 0)
(67.068301 0.10092108 3.2718361e-22)
(67.367012 0.14713387 -2.9459785e-22)
(68.778235 0.15571446 -2.7199935e-19)
(70.230095 0.11985471 -2.4518502e-19)
(70.943127 0.094466366 -2.2229503e-19)
(72.205701 0.11445904 0)
(73.973365 0.094902332 -3.6118723e-19)
(75.132958 0.037060107 -1.630717e-19)
(75.895773 -0.023035584 1.4721093e-19)
(77.32229 -0.0087292802 -2.6556909e-19)
(79.294075 0.046753798 0)
(80.710973 0.042930692 -2.1641558e-19)
(81.498335 0.0081139708 0)
(82.591602 -0.030566737 -1.7623178e-19)
(84.44126 -0.070211983 -1.5812345e-19)
(86.821214 -0.066635104 -2.7811325e-22)
(89.248562 -0.065915685 4.0114645e-27)
(91.212822 -0.077643568 2.2657562e-22)
(92.504636 -0.083409237 -2.0512464e-22)
(93.236496 -0.070070666 1.9012504e-19)
(93.614185 -0.050685683 -1.7186319e-19)
(93.795799 -0.036915447 -3.1051838e-19)
(93.880343 -0.026584062 -1.3675028e-22)
(93.929789 -0.021006072 2.4675342e-22)
(93.963861 -0.018296453 2.1327093e-27)
(93.996388 -0.014076157 0)
(94.033268 -0.011105776 0)
(94.065791 -0.011715486 0)
(94.090185 -0.010502331 3.0101155e-19)
(94.10219 -0.0077652102 2.7134476e-19)
(94.106017 -0.0062492899 2.4419732e-19)
(94.119191 -0.0056529303 -2.1997863e-19)
(94.150621 -0.0047590903 -1.9836504e-19)
(94.182346 -0.0041002327 -1.7860254e-19)
(94.215638 -0.0037041537 -7.8556359e-23)
(94.260007 -0.0031968339 2.8984782e-19)
(94.259881 -0.0031331529 6.3697506e-23)
(94.181508 -0.0029105814 -2.3500634e-19)
(94.255506 -0.0018068286 -5.1690808e-23)
(94.727976 0.0018754469 -1.9058981e-19)
(94.967759 0.0010019866 1.7177935e-19)
(94.622573 0.00040736572 -3.7749438e-23)
(81.723764 -2.6823657 -1.2703272e-19)
(83.929354 -8.4526389 2.4064689e-19)
(85.083743 -9.6299249 -2.2757785e-19)
(85.400715 -6.7154551 2.1329909e-19)
(86.746437 1.5334911 -7.6670697e-22)
(86.287346 7.8671121 1.8001562e-19)
(85.00528 9.0599704 -6.4025707e-22)
(83.484339 6.4396349 -2.9585442e-19)
(82.104043 -0.43758731 0)
(81.968421 -2.9917241 -2.4321972e-19)
(81.923111 -2.6735449 -2.2072167e-19)
(82.691777 -0.68790492 3.9844775e-19)
(83.093902 0.83231017 1.6493913e-26)
(82.907795 0.98601388 -3.2565425e-19)
(81.942819 0.56092379 -2.9635138e-19)
(78.277088 0.041316902 2.6948e-19)
(73.241029 -0.28735822 -2.4324916e-19)
(69.561019 -0.34013599 2.1956828e-19)
(67.649426 -0.26172965 -3.8551409e-22)
(67.059127 -0.10500075 3.4582319e-22)
(67.038186 0.10090018 0)
(67.334951 0.14456238 0)
(68.758869 0.1504048 0)
(70.195577 0.11640514 2.334073e-19)
(70.90292 0.091694787 -2.1122857e-19)
(72.196349 0.10985489 1.9059763e-19)
(73.989501 0.089868785 5.1494846e-19)
(75.125946 0.034435615 3.0973307e-19)
(75.888429 -0.025779916 2.7335885e-22)
(77.364905 -0.013819686 0)
(79.323653 0.041380292 -4.4497364e-22)
(80.69529 0.039777065 2.0660061e-19)
(81.545263 0.005959925 -3.6306442e-22)
(82.788448 -0.033996224 -3.2737543e-22)
(84.749946 -0.075325079 3.0179489e-19)
(87.145852 -0.07369627 -2.7087239e-19)
(89.515418 -0.071985912 -4.8937565e-19)
(91.391337 -0.081825584 2.1579631e-22)
(92.602501 -0.085786446 -1.2575961e-26)
(93.28097 -0.071189125 -1.7675187e-22)
(93.631237 -0.051185228 4.9069165e-19)
(93.80141 -0.03715082 -9.1372945e-28)
(93.881956 -0.026702443 0)
(93.930203 -0.021083743 -2.4024049e-19)
(93.963968 -0.018363214 2.1670133e-19)
(93.996428 -0.014132607 1.9103683e-22)
(94.033287 -0.011158341 3.5258165e-19)
(94.065801 -0.011765023 3.17809e-19)
(94.090195 -0.010538513 -2.8655235e-19)
(94.102199 -0.0077892325 -2.5806955e-19)
(94.106022 -0.0062747998 0)
(94.119196 -0.0056813 0)
(94.150627 -0.0047838562 0)
(94.182351 -0.0041230764 1.7005682e-19)
(94.215644 -0.0037270852 0)
(94.260011 -0.0032295332 6.7366601e-23)
(94.259878 -0.0031912963 -6.0668062e-23)
(94.181511 -0.0029549998 2.2368114e-19)
(94.255536 -0.0016092814 2.0149139e-19)
(94.728013 0.0024025978 1.8154844e-19)
(94.967757 0.0015444568 -1.2490673e-26)
(94.622571 0.00054447533 -7.1830554e-23)
(81.720108 -2.7049921 2.4340678e-19)
(83.954919 -8.4646291 0)
(85.123131 -9.6329305 2.1619905e-19)
(85.425387 -6.712884 -2.0121323e-19)
(86.729794 1.5402255 -7.2712798e-22)
(86.262518 7.8752814 -9.7787151e-26)
(84.984481 9.0637861 -3.1061284e-19)
(83.47218 6.4423891 1.3685601e-26)
(82.099672 -0.43929096 4.958144e-22)
(81.950325 -2.9926234 -2.3100466e-19)
(81.896927 -2.6733765 4.0814496e-22)
(82.65712 -0.68914467 -1.8801595e-19)
(83.055702 0.83315475 1.6996188e-19)
(82.869216 0.98936463 6.1787422e-19)
(81.924589 0.57046129 -5.4910014e-22)
(78.329674 0.05530669 -2.5572314e-19)
(73.293243 -0.27290606 2.3178611e-19)
(69.5869 -0.32973975 -4.0786918e-22)
(67.650707 -0.25614158 -1.8743408e-19)
(67.041485 -0.1028154 9.849793e-22)
(67.013339 0.10093024 -5.9031792e-22)
(67.30774 0.14184573 0)
(68.744608 0.14479541 -4.7937736e-22)
(70.162802 0.11285056 4.3313787e-22)
(70.862493 0.08868622 2.0031616e-19)
(72.189663 0.10493214 -1.8041257e-19)
(74.014415 0.08456879 -6.3730973e-22)
(75.130098 0.031696612 -2.9415277e-19)
(75.899073 -0.029066659 2.6586601e-19)
(77.426528 -0.019261462 0)
(79.356182 0.035871894 0)
(80.689241 0.036431347 -3.8220471e-22)
(81.637786 0.0034309154 3.4527698e-22)
(83.064442 -0.037931544 3.1887092e-19)
(85.145967 -0.080830748 -5.7358123e-19)
(87.542813 -0.081006661 2.579492e-19)
(89.830306 -0.077897485 -5.6477037e-27)
(91.596791 -0.085901943 0)
(92.713729 -0.088053971 1.9067025e-19)
(93.331422 -0.072254199 -3.4475346e-19)
(93.650669 -0.051675262 -6.2265757e-19)
(93.807855 -0.037387836 2.810752e-19)
(93.883825 -0.026823674 -2.5366058e-19)
(93.930686 -0.021164446 6.3862443e-27)
(93.964091 -0.018432901 -2.0645245e-19)
(93.996471 -0.01419142 1.8183362e-22)
(94.033306 -0.011212986 -3.3594052e-19)
(94.065811 -0.011816855 -3.0252785e-19)
(94.090206 -0.01057638 -1.6637434e-27)
(94.102209 -0.0078142666 -2.4003793e-22)
(94.106029 -0.0063012986 2.2155337e-19)
(94.119201 -0.0057105253 -1.9949888e-19)
(94.150632 -0.0048073059 0)
(94.182355 -0.0041387614 1.5812929e-22)
(94.215648 -0.0037284941 -2.8488506e-22)
(94.260012 -0.0032134124 -2.6274944e-19)
(94.259873 -0.0031891106 1.1554368e-22)
(94.181511 -0.0030244485 2.1295157e-19)
(94.255566 -0.0018218541 -5.7550323e-19)
(94.728051 0.0021097637 8.4317386e-23)
(94.967756 0.0014270699 -3.1148918e-19)
(94.622559 0.00054799024 6.8410907e-23)
(81.716782 -2.7290489 0)
(83.981776 -8.4773568 -8.5967889e-22)
(85.16496 -9.6360994 2.0842414e-19)
(85.452059 -6.7100713 -1.9268214e-19)
(86.712309 1.5474816 -6.8932129e-22)
(86.235937 7.8838599 -9.2025805e-26)
(84.962597 9.0677425 5.8896805e-19)
(83.460944 6.4453427 -2.6605721e-19)
(82.09554 -0.44106175 -2.4057669e-19)
(81.931506 -2.9935057 2.1851194e-19)
(81.869436 -2.6731565 0)
(82.620431 -0.6904676 -6.9904733e-22)
(83.014939 0.83405845 -6.4602272e-19)
(82.828103 0.99283655 -5.8607357e-19)
(81.905918 0.58034195 -5.2098989e-22)
(78.38982 0.069962963 -2.431095e-19)
(73.352741 -0.25766691 -2.1954225e-19)
(69.619613 -0.31870732 -1.9862584e-19)
(67.659393 -0.25013662 1.772404e-19)
(67.030954 -0.10037621 6.2345011e-22)
(66.994598 0.10100098 -2.8701441e-19)
(67.286164 0.13897119 2.5898097e-19)
(68.735011 0.13886912 -9.1073878e-22)
(70.133942 0.10920099 4.114836e-22)
(70.825058 0.085496749 0)
(72.185132 0.099539445 -3.3546157e-22)
(74.048623 0.079005637 -3.0979304e-19)
(75.153977 0.028832251 0)
(75.940734 -0.032317452 -5.0599348e-19)
(77.50823 -0.024955581 -4.4570984e-22)
(79.392278 0.030202528 4.0230461e-22)
(80.70616 0.032679643 3.6343094e-22)
(81.799138 0.00041764394 -3.3653461e-19)
(83.44159 -0.042451597 -3.0360621e-19)
(85.641417 -0.086708309 5.4676685e-19)
(88.014377 -0.088398951 -2.4017386e-22)
(90.19041 -0.083600772 2.2191883e-19)
(91.825563 -0.089800729 0)
(92.835884 -0.090172375 -1.8140399e-19)
(93.386691 -0.073250167 -3.2031666e-22)
(93.672049 -0.052149705 2.9657211e-19)
(93.814999 -0.037624065 0)
(93.885915 -0.026947307 4.8301905e-19)
(93.93123 -0.02124818 2.1780875e-19)
(93.964229 -0.018505587 1.9629899e-19)
(93.996517 -0.014252705 0)
(94.033325 -0.011269927 -3.1960879e-19)
(94.065821 -0.011871116 0)
(94.090217 -0.010616134 2.5954994e-19)
(94.10222 -0.0078405259 1.1425927e-22)
(94.106037 -0.0063291967 -2.1082148e-19)
(94.119208 -0.0057412308 -1.9012136e-19)
(94.150638 -0.0048328449 1.6710948e-22)
(94.18236 -0.0041596065 -1.5056107e-22)
(94.215653 -0.0037425371 -1.6412547e-26)
(94.260013 -0.0032164503 2.5031339e-19)
(94.259866 -0.003188982 0)
(94.181511 -0.0029906876 -6.0855908e-19)
(94.255597 -0.0016731155 3.6518827e-19)