/*--------------------------------*- C++ -*----------------------------------*\
| =========                 |                                                 |
| \\      /  F ield         | OpenFOAM: The Open Source CFD Toolbox           |
|  \\    /   O peration     | Version:  2506                                  |
|   \\  /    A nd           | Website:  www.openfoam.com                      |
|    \\/     M anipulation  |                                                 |
\*---------------------------------------------------------------------------*/
FoamFile
{
    version     2.0;
    format      ascii;
    arch        "LSB;label=32;scalar=64";
    class       surfaceScalarField;
    location    "0.00025";
    object      phi;
}
// * * * * * * * * * * * * * * * * * * * * * * * * * * * * * * * * * * * * * //

dimensions      [1 0 -1 0 0 0 0];

oriented        oriented;

internalField   nonuniform List<scalar> 
6666
(
0.11709
0.000270251
0.12017998
0.00030677056
0.11519801
0.00032696899
0.10081155
0.0003382755
0.092428402
0.00031229109
0.093857556
0.00034651358
0.099355187
0.00038938751
0.10459374
0.00045879885
0.10608638
0.00051480403
0.10742963
0.00056994591
0.10713255
0.00063373889
0.10515927
0.0006892443
0.10299178
0.00076010459
0.00067761558
0.11623624
0.00026403555
0.11925583
0.0003003519
0.1142521
0.00031996212
0.099618324
0.0003264625
0.090800416
0.00029985552
0.092287837
0.00033114723
0.097913341
0.0003732565
0.10336413
0.00044291965
0.10493868
0.00049781144
0.10634601
0.00055167251
0.1061333
0.00061451405
0.10418656
0.00066710549
0.10176498
0.00081546127
0.093407989
0.00057134881
0.08465618
0.0012010368
0.06562842
4.6314423e-05
0.054643286
0.00076954003
0.057934292
0.0088815307
0.0192799
0.11691458
0.00027736209
0.11973291
0.00031475098
0.11448613
0.00033632879
0.099454078
0.0003393901
0.091079329
0.00031917902
0.092618926
0.0003508069
0.098411209
0.00039404276
0.10389894
0.00046581599
0.10544099
0.00052211512
0.10687495
0.00057712695
0.10668711
0.00064163677
0.10470805
0.00069534871
0.1022503
0.00085828465
0.093718568
0.00059886268
0.084820525
0.0012234523
0.066226641
0.0002594306
0.056780128
0.000462588
0.059897349
0.0062953804
0.086446649
0.017363907
0.1002961
0.021375275
0.12463559
0.026385124
0.13152506
0.034511044
0.040262602
0.043845709
-0.10214699
0.040187614
-0.063328173
0.034222983
-0.0088020029
0.036911509
0.06032912
0.044837525
0.1410626
0.051360275
0.16100529
0.055191252
0.059389714
0.12014717
0.00032688377
0.12267384
0.0003672284
0.11743945
0.00039071548
0.10239947
0.00040564773
0.094301388
0.00039435426
0.09575683
0.00042948646
0.10153884
0.00047521635
0.10697948
0.00055856618
0.10844785
0.0006209463
0.10987614
0.00068216019
0.10966714
0.00075591853
0.1076755
0.00081747084
0.10529347
0.0010013311
0.096845838
0.00074707802
0.088136467
0.0013417776
0.07094974
0.00061818518
0.062497647
0.00049206971
0.063668853
0.0044005727
0.088577038
0.015368717
0.10198247
0.020163992
0.126221
0.02569843
0.132975
0.033893357
0.040418287
0.043332526
-0.1035521
0.039857342
-0.064248155
0.033955599
-0.0093998932
0.036601731
0.060604653
0.044408039
0.14242214
0.050915396
0.16268761
0.054750539
0.058940882
0.12110149
0.0003506094
0.1242392
0.00039607259
0.11899253
0.00042727405
0.10355895
0.00044238586
0.095319732
0.00042458063
0.096549525
0.00046338586
0.10273352
0.00051879144
0.10797312
0.00060245803
0.10947056
0.00066896507
0.11101807
0.00073678829
0.11083016
0.00081169697
0.10881251
0.0008800792
0.10645699
0.00096107332
0.098149103
0.0010055217
0.089103492
0.0010766759
0.072568765
0.0006106131
0.066152116
0.0044956647
0.066761222
0.0089079891
0.09055401
0.016514932
0.10352991
0.020157431
0.12758249
0.025594448
0.13417449
0.033681675
0.040412422
0.04300681
-0.10502115
0.03954074
-0.065152532
0.033691713
-0.0099777687
0.03631245
0.060872917
0.044157915
0.14375441
0.050660556
0.16435528
0.054467488
0.058633019
0.10566069
0.0004802268
0.11006353
0.00053513233
0.10373874
0.00058457836
0.085570542
0.00061507794
0.074653243
0.00059652893
0.076117779
0.00064250959
0.084035789
0.00071581666
0.090728927
0.00082485641
0.092979226
0.00091532088
0.095098742
0.00099932941
0.095563455
0.0010974912
0.09341193
0.0011921391
0.090598075
0.0011517161
0.081403216
0.0016487323
0.059657479
0.0071536443
0.026172189
0.0097465916
0.033188977
0.01271119
0.055616113
0.016912309
0.088483598
0.02059793
0.10398688
0.021965963
0.12883612
0.026150168
0.13558392
0.033895135
0.040597223
0.04303108
-0.10633776
0.039313091
-0.06604321
0.033486018
-0.010546645
0.036109592
0.061132585
0.044052263
0.14506829
0.050604422
0.1660125
0.054397837
0.17046346
0.058531795
0.063570176
0.097795717
0.00049740561
0.10327046
0.00055828297
0.096511294
0.00060097802
0.076822203
0.00062951794
0.063360622
0.00060574703
0.063966464
0.00065766763
0.073085418
0.00073780091
0.080862754
0.00085951817
0.083515311
0.00096085172
0.085769058
0.0010532939
0.086282854
0.0011624748
0.084199062
0.0012992623
0.076489972
0.0058302283
0.0078284893
0.0087251573
-0.051262302
0.015447486
-0.01292933
0.019029534
0.031954941
0.017903027
0.054418517
0.020347484
0.088595065
0.022695862
0.1047567
0.02322736
0.13021973
0.026605271
0.13714831
0.034108091
0.041022067
0.043073672
-0.10752476
0.039142092
-0.066942696
0.033306766
-0.01112743
0.035948998
0.061377575
0.043973967
0.1463723
0.050595306
0.16766398
0.054422623
0.17221786
0.058525867
0.17323221
0.063513041
0.068812185
0.097245302
0.0003164686
0.10268304
0.00036963229
0.095921371
0.00039622015
0.075973351
0.0004051279
0.061949455
0.00035932121
0.062390692
0.00039109048
0.071744429
0.00045014411
0.079865664
0.00055885331
0.082617677
0.00060827344
0.084934303
0.00071632816
0.084208425
0.0040075697
0.026891251
0.0068031371
-0.053208454
0.012206168
-0.076989704
0.015726264
-0.064048026
0.01727047
-0.012171355
0.018909296
0.031210045
0.018820967
0.054051864
0.021130826
0.088820349
0.023248486
0.10548077
0.02365566
0.13117316
0.026762475
0.13815606
0.034158264
0.041208511
0.043056678
-0.10878592
0.039019283
-0.067847103
0.03316284
-0.011714164
0.035812061
0.061613297
0.043981491
0.14766836
0.050645736
0.1693134
0.054502348
0.17397031
0.058584743
0.17500285
0.063541864
0.06881768
0.094988619
0.0002498818
0.10108508
0.00029634527
0.094321939
0.00031643812
0.074002116
0.00031815053
0.058805974
0.00026556514
0.058467608
0.00028139911
0.06834661
0.00034145536
0.07692143
0.00038107344
0.080297803
0.00049990223
0.034916217
0.0045169033
-0.046186585
0.009593523
-0.082669625
0.012748632
-0.08599212
0.014218189
-0.078949174
0.015940003
-0.062006096
0.016974953
-0.013664224
0.018534477
0.026859085
0.018920428
0.052453268
0.021390801
0.088322647
0.023437983
0.10589658
0.023841432
0.13188705
0.026862571
0.13894593
0.034214122
0.041218533
0.043089713
-0.11014231
0.039012277
-0.068761167
0.033120244
-0.012294966
0.035796557
0.061850852
0.044087177
0.148962
0.050826634
0.17096608
0.054717737
0.17572498
0.058803487
0.17678449
0.063758694
0.17762505
0.06903616
0.17836537
0.074374345
0.17872314
0.080292214
0.086783178
0.1004932
0.00025486931
0.1068335
0.00030201533
0.10065004
0.00032413263
0.081844556
0.00032756688
0.067718189
0.00027798046
0.06695578
0.00029118998
0.076882191
0.00034642957
0.084578413
0.00039017904
0.024976243
0.001730966
-0.064609533
0.0098432315
-0.089024242
0.012150964
-0.090264377
0.013048469
-0.087005444
0.014184651
-0.07715499
0.015593441
-0.059039558
0.016670587
-0.018511678
0.018385163
0.019140805
0.019199039
0.052250874
0.021720675
0.08872231
0.023658007
0.1067723
0.024059327
0.13291872
0.027017458
0.13999406
0.034340354
0.041385761
0.043206889
-0.11139281
0.039101855
-0.06965832
0.033218022
-0.01286527
0.035974911
0.062083054
0.044310366
0.15024053
0.051137687
0.17261177
0.055075381
0.17747621
0.059192612
0.17856915
0.064177421
0.17943343
0.069478419
0.18017296
0.074821712
0.18052568
0.080755609
0.18064556
0.087259785
0.094232128
0.10350295
0.00027332347
0.11020503
0.00032466313
0.10432241
0.0003489712
0.086423016
0.00035355645
0.072940942
0.00030562155
0.07168991
0.0003200197
0.081774182
0.00036502794
0.068581714
0.00046951278
-0.016744277
0.0025810767
-0.089129116
0.011288869
-0.090918344
0.012177846
-0.090891152
0.013029206
-0.087223307
0.014116402
-0.07717588
0.015435329
-0.059122899
0.016609804
-0.022371358
0.018435586
0.015440589
0.019587894
0.053018558
0.022024638
0.089599102
0.023880178
0.10785519
0.0242881
0.13411699
0.02717083
0.1411918
0.034459895
0.041637593
0.043327697
-0.11259289
0.039239109
-0.07054954
0.033386097
-0.013422088
0.036214332
0.06230997
0.044586754
0.15150385
0.051509757
0.17425068
0.055501178
0.17922357
0.059664688
0.18035553
0.064695348
0.18124304
0.070030729
0.18198206
0.075383955
0.18233202
0.081337721
0.1824561
0.087872471
0.17141006
0.094856674
0.077438974
0.10144767
0.10068943
0.094641639
0.00022370926
0.1048608
0.00028188655
0.11159021
0.00033453004
0.10578905
0.00035969259
0.087956315
0.00036496654
0.074307734
0.00031626591
0.073109082
0.0003304338
0.083196267
0.00041021597
0.075437711
0.00044068705
-0.011325741
0.0014099266
-0.090581578
0.01072646
-0.091732353
0.012189605
-0.091739458
0.012999338
-0.088089297
0.014078375
-0.07799576
0.015389684
-0.060052868
0.016591287
-0.023941161
0.018462334
0.014458994
0.019807099
0.053351996
0.022182927
0.090347426
0.024018055
0.10894175
0.024441899
0.13528187
0.027266953
0.14234106
0.034520009
0.041887587
0.043390405
-0.11376462
0.039375588
-0.071427519
0.033578172
-0.013967077
0.036463369
0.062527716
0.044863818
0.15274465
0.051883759
0.17587433
0.055931594
0.18095831
0.0601444
0.18213005
0.065223277
0.18304204
0.070594484
0.18378369
0.075956536
0.18413508
0.08192725
0.18426708
0.088494827
0.17314016
0.095491611
0.078366443
0.10205475
0.10083558
0.093890018
0.00022958659
0.10435177
0.00028769698
0.11130697
0.00034292
0.10544053
0.00036890398
0.08758125
0.00037415101
0.073745409
0.000324768
0.072279796
0.00033890698
0.081466473
0.00042717073
0.088848971
0.00043635017
0.013422899
0.00056967276
-0.08245493
0.0092593201
-0.092679412
0.012190279
-0.09274026
0.012962727
-0.089101044
0.014042593
-0.078983149
0.015353924
-0.061240441
0.016557952
-0.02491419
0.018438421
0.014463476
0.019855272
0.053887226
0.022221091
0.091078452
0.024075762
0.10993815
0.024519242
0.13635674
0.027305671
0.14340216
0.034519543
0.042113606
0.043394137
-0.11492601
0.039472699
-0.072303662
0.03374086
-0.014511464
0.036682239
0.062738699
0.04509253
0.15397482
0.052208369
0.17749049
0.056313943
0.18268249
0.060574473
0.18389133
0.065696702
0.18482728
0.071095665
0.18556961
0.076458048
0.18592132
0.082438013
0.18606209
0.089031376
0.17485697
0.096033045
0.079287903
0.10256666
0.10096265
0.083649439
0.00020514785
0.095168715
0.00023934627
0.10556843
0.00029961491
0.11245837
0.00035646478
0.10671823
0.00038335841
0.088891033
0.00038910033
0.074848144
0.00033836848
0.073514164
0.00035252217
0.082329153
0.00041993571
0.089844576
0.00047907673
0.028093636
0.00059625327
-0.068334746
0.008477488
-0.093620087
0.012152102
-0.093743833
0.012920377
-0.090124681
0.013998212
-0.079967746
0.01531097
-0.062337019
0.016514628
-0.02541438
0.018400519
0.014847766
0.019867734
0.054359749
0.022184792
0.091768342
0.02407901
0.11091615
0.024545788
0.13741955
0.027288525
0.14445018
0.034454415
0.042317643
0.043328277
-0.11611057
0.039522238
-0.073188986
0.033855076
-0.015066589
0.036839823
0.06293903
0.045229912
0.1551964
0.052443426
0.17909969
0.056608071
0.18439983
0.060907943
0.18564316
0.066061705
0.18660171
0.071483581
0.18734332
0.07685794
0.18769167
0.082856272
0.18783893
0.089476133
0.17654734
0.09647883
0.080174108
0.10298573
0.10107346
0.076329955
0.00018484096
0.08152347
0.00020641541
0.093443328
0.00024158111
0.10431994
0.00030339896
0.11137664
0.0003602265
0.10554076
0.00038631644
0.087233486
0.00039081682
0.072634262
0.00033618845
0.071259954
0.00034998567
0.080398792
0.00040794871
0.08827473
0.00050257018
0.025820449
0.0012287695
-0.070574901
0.0097839001
-0.09462058
0.01210393
-0.094742633
0.012867599
-0.091145461
0.013943696
-0.080953041
0.015257382
-0.063402905
0.016463054
-0.025590589
0.018354136
0.015285584
0.019871333
0.054533285
0.022112775
0.092400557
0.024034329
0.11189305
0.024525873
0.13848326
0.027223446
0.14550936
0.034323295
0.042546549
0.043186129
-0.11727013
0.039531354
-0.074071894
0.033941905
-0.015616886
0.03695517
0.06313759
0.04532148
0.15641263
0.05261804
0.18070251
0.056834878
0.18611269
0.061167439
0.18739078
0.066343574
0.18836991
0.07177847
0.18911067
0.077170575
0.18945222
0.083193063
0.18960183
0.089842808
0.17820987
0.096856038
0.08101284
0.10334412
0.10116759
0.073671522
0.00017595327
0.078715788
0.00019553248
0.090605554
0.00022900833
0.10154592
0.00028931984
0.10835224
0.00034606011
0.10222671
0.00037133774
0.083013947
0.00037438562
0.067750441
0.00031786098
0.066617125
0.00032788542
0.077766148
0.0003717968
0.07550963
0.00048688016
-0.0087781818
0.0049522217
-0.092832125
0.011088623
-0.095685258
0.012020281
-0.095703331
0.012831812
-0.092120318
0.01390073
-0.081888938
0.01521932
-0.064304287
0.016430235
-0.025347525
0.018329132
0.015825785
0.019893536
0.054527614
0.022046669
0.093003251
0.023981737
0.11282451
0.024485391
0.13949771
0.027158864
0.14652493
0.034200504
0.042793734
0.043043799
-0.11840402
0.039521016
-0.074952709
0.034007394
-0.016166345
0.03704069
0.063325808
0.045389735
0.15761585
0.052756468
0.18229593
0.05701893
0.18782014
0.06138194
0.18913795
0.066575115
0.19013592
0.072004139
0.19087713
0.077401165
0.19121114
0.083438476
0.19135798
0.09011614
0.17985506
0.09715852
0.081820752
0.10363972
0.10124524
0.076011678
0.0001765524
0.080917121
0.00019480733
0.092487491
0.00022845418
0.10322854
0.00028837802
0.11015799
0.00034553974
0.10413345
0.0003708241
0.085148181
0.0003750374
0.069905552
0.00032010857
0.068578313
0.00032843159
0.079554495
0.00036835897
0.022262726
0.00049037112
-0.070170453
0.0075895576
-0.095390164
0.011175749
-0.09648237
0.011950476
-0.096600178
0.01280755
-0.093019729
0.013869162
-0.082678595
0.015192108
-0.065080559
0.016405165
-0.02482758
0.018297342
0.016564388
0.01989289
0.05445499
0.021997565
0.093613772
0.023945935
0.11376242
0.024459926
0.14049872
0.02711812
0.14752591
0.034109662
0.043067311
0.042934172
-0.11948666
0.0395263
-0.075829192
0.034053115
-0.016724199
0.037125358
0.063496855
0.045485201
0.15879786
0.0529121
0.18387145
0.057208247
0.18951034
0.061601531
0.19087254
0.066810494
0.19188915
0.072226965
0.19263388
0.077616152
0.19296281
0.083655846
0.19310408
0.090354599
0.18148712
0.097425243
0.082608755
0.10390174
0.081412675
0.0001855931
0.08612872
0.00020489611
0.097402457
0.00023771931
0.10794858
0.00029708305
0.11523182
0.0003554133
0.10919501
0.000381886
0.090768147
0.00038563555
0.076202586
0.0003306212
0.074922445
0.00034232781
0.085493347
0.00038684011
0.032855012
0.00051437306
-0.062147096
0.0066843693
-0.09631198
0.011137571
-0.097381977
0.011909642
-0.097521489
0.012770146
-0.093938536
0.013823939
-0.083464331
0.015142102
-0.065996594
0.016351851
-0.024343565
0.018228583
0.017346173
0.019846795
0.054243472
0.021926384
0.094157848
0.023902432
0.11467224
0.024443327
0.14144683
0.02707781
0.14846016
0.034022753
0.043316022
0.0428375
-0.12054241
0.039546938
-0.076684527
0.03413034
-0.017244686
0.037254189
0.06368792
0.045581341
0.15997451
0.053088133
0.18544015
0.057430235
0.19118938
0.061857677
0.19259281
0.067085764
0.19363289
0.072498672
0.19437974
0.077883967
0.19470308
0.083928427
0.19484378
0.090646408
0.18310911
0.097728738
0.10418951
0.081068373
0.00018657397
0.085719385
0.00020579511
0.096856549
0.0002388229
0.10729477
0.00029828068
0.11427029
0.0003561887
0.10836753
0.00038273426
0.08966554
0.00038741021
0.074861859
0.00033413864
0.073729559
0.00034582066
0.084462265
0.00039455117
0.041369442
0.00050899604
-0.052977939
0.0034379938
-0.097222229
0.010313846
-0.098324675
0.011916949
-0.09849372
0.012710042
-0.094890286
0.013766194
-0.084315472
0.015078818
-0.066905807
0.016281514
-0.023727547
0.018143124
0.018304414
0.019794503
0.054121938
0.021834091
0.094711081
0.023855157
0.11558452
0.024409242
0.14242011
0.027025937
0.1494152
0.03392314
0.043522598
0.042739206
-0.12167058
0.039553482
-0.077563736
0.034223128
-0.017803322
0.03736145
0.063855073
0.045617365
0.16114589
0.053213624
0.18700732
0.0576137
0.19286757
0.062078442
0.19431013
0.067326229
0.19537218
0.072737002
0.196116
0.078132277
0.1964294
0.084195009
0.19657075
0.090941528
0.18471001
0.098043163
0.10448596
0.08761978
0.0001977402
0.092080975
0.00021917816
0.10270675
0.00025266466
0.11273072
0.00031052003
0.11975044
0.00036824915
0.11422048
0.00039484467
0.096471479
0.00040223922
0.082412179
0.00035430858
0.08112906
0.00036815751
0.091275181
0.00042555889
0.097315018
0.0005126602
0.018385739
0.00067392253
-0.085044193
0.0067597094
-0.09942245
0.011896685
-0.099494756
0.012659614
-0.095871531
0.013717549
-0.085225245
0.015028112
-0.067927187
0.016226495
-0.023100373
0.018080731
0.01944225
0.01978063
0.054122542
0.021761977
0.095318139
0.02380841
0.11653474
0.024371209
0.14339032
0.026982566
0.1503648
0.033831169
0.043667855
0.042635359
-0.12284434
0.03952437
-0.078448789
0.034260802
-0.018365152
0.037398318
0.064019852
0.045600855
0.16231459
0.053274203
0.18857142
0.057725266
0.19454956
0.062222457
0.19603747
0.067481442
0.19711588
0.072881156
0.19785685
0.078292326
0.19815731
0.084378544
0.19829024
0.091160642
0.1862932
0.098301394
0.096336934
0.00022580628
0.10022799
0.00024832866
0.10974738
0.00028204993
0.11884241
0.00033966713
0.12578396
0.00039864287
0.1203539
0.00042867004
0.10345152
0.00043892366
0.090485445
0.0003968421
0.089436197
0.00041596994
0.097621638
0.00047840594
0.104321
0.00055642135
0.076960783
0.00065172349
-0.028438686
0.0023965349
-0.10020892
0.01004547
-0.10039841
0.012634609
-0.096794605
0.013680797
-0.086138587
0.014989919
-0.068938629
0.016184762
-0.022597248
0.018031554
0.020443965
0.019769223
0.054166116
0.021717052
0.09594981
0.023780098
0.1175175
0.024354331
0.14433934
0.02695739
0.15129884
0.033767265
0.04383489
0.042553756
-0.1239873
0.039495903
-0.079324704
0.034273334
-0.018931222
0.037411851
0.064165941
0.045583547
0.16345291
0.053316501
0.19011157
0.057807934
0.19621316
0.062330973
0.19775232
0.067594385
0.19885114
0.07297971
0.19959617
0.078403979
0.19988582
0.084509441
0.20000768
0.091324107
0.098505648
0.10021604
0.00023321745
0.10365995
0.00025522644
0.11256263
0.00028999511
0.12114988
0.00034885351
0.1278755
0.00040861707
0.12236094
0.0004399179
0.10576393
0.0004513635
0.09320575
0.00041122754
0.092330766
0.00042925391
0.10029792
0.00048473953
0.10689559
0.0005807782
0.11026377
0.00065828071
0.038945807
0.00075685587
-0.068652642
0.0067468596
-0.10132737
0.01259802
-0.097918548
0.013634163
-0.087296834
0.014937187
-0.070293208
0.016128161
-0.021820508
0.017961738
0.022059777
0.01973907
0.054271603
0.021648045
0.096595638
0.023741432
0.11854628
0.024350831
0.14525022
0.02692149
0.1521785
0.03368309
0.044030686
0.04246474
-0.12505897
0.039478109
-0.080183296
0.03429406
-0.019489162
0.037445759
0.064309442
0.045566775
0.16457305
0.053368882
0.19163397
0.057902811
0.19785747
0.062450494
0.19944815
0.067719202
0.20057128
0.073095264
0.20132065
0.078531433
0.20159997
0.084653978
0.20171376
0.091495131
0.09870355
0.097041098
0.00023097069
0.10081713
0.00025216294
0.11023127
0.00028566507
0.11949583
0.00034393402
0.1265227
0.00040613012
0.12112407
0.00043793022
0.10429296
0.00044910856
0.090980163
0.00040819991
0.089736635
0.00042391941
0.09814456
0.0004766823
0.10500608
0.00057932584
0.10861113
0.00064851261
0.065649355
0.00073095359
-0.039692016
0.00319401
-0.10235548
0.012421112
-0.099013083
0.013582483
-0.088363225
0.014884465
-0.071414409
0.016075457
-0.020833245
0.017911034
0.023979997
0.019759199
0.054743043
0.021593965
0.097417163
0.023699934
0.11972209
0.024317412
0.14628714
0.026859741
0.1531858
0.033553567
0.044301696
0.042324216
-0.12611298
0.039440344
-0.081068778
0.034312851
-0.020086997
0.037480671
0.064428057
0.045491832
0.16568301
0.053397485
0.19314808
0.057986764
0.19949291
0.062557329
0.20113454
0.067831987
0.20228474
0.073207384
0.20303543
0.078668999
0.2033026
0.084816221
0.20341259
0.091684803
0.098911899
0.099069495
0.00022362505
0.10282764
0.00024568031
0.11213733
0.00028085349
0.12137544
0.00034047222
0.12834911
0.00040139314
0.12318194
0.00043167001
0.10660594
0.00044174279
0.093269882
0.00039870627
0.091832495
0.00041159397
0.10008395
0.0004639337
0.10688782
0.00056709199
0.11057915
0.0006380493
0.10777094
0.00071781204
0.0060833582
0.002508451
-0.10053803
0.012406361
-0.09972528
0.0135515
-0.088994387
0.014857929
-0.071921407
0.016053454
-0.020817371
0.017899718
0.024283027
0.019801697
0.055025775
0.021606196
0.098154698
0.023699392
0.12089216
0.024304867
0.14727895
0.026858299
0.15416241
0.033532645
0.044585181
0.042282472
-0.12713264
0.039394217
-0.081946429
0.034303748
-0.02067431
0.037473723
0.064551347
0.045430339
0.16678845
0.053402536
0.19465175
0.058040225
0.20111971
0.062632788
0.20281403
0.067910974
0.20398977
0.073286076
0.20473982
0.078776788
0.20499111
0.084952231
0.20509514
0.091851811
0.099104252
0.095145423
0.00022358804
0.099182743
0.00024732599
0.10899723
0.00028205254
0.11889874
0.00034136945
0.12609421
0.00040251971
0.12103192
0.00043044326
0.10436549
0.00043911048
0.090386661
0.00039662504
0.088594346
0.00041181557
0.097008027
0.0004643418
0.1042602
0.00056708347
0.10816424
0.00063849151
0.078528391
0.00071691746
-0.025985283
0.0024190957
-0.10367318
0.01224335
-0.10044624
0.013520928
-0.089651813
0.014829549
-0.072486425
0.01602432
-0.021147231
0.017870049
0.024176982
0.019798497
0.055204933
0.021557952
0.098840957
0.023684761
0.12208458
0.024327683
0.14825498
0.026814273
0.1551439
0.033410973
0.044841992
0.042153194
-0.12818707
0.039328139
-0.0828368
0.034278381
-0.021274954
0.037453912
0.064666151
0.045377975
0.16788843
0.053399899
0.19614793
0.058077786
0.20274098
0.062690471
0.20449268
0.067967097
0.20569393
0.073333992
0.2064424
0.078842525
0.20667446
0.085039738
0.20676877
0.091970492
0.10463845
0.00031825328
0.10789125
0.0003480727
0.11655493
0.00038777918
0.12503807
0.00045360065
0.13154673
0.00052142566
0.12646001
0.0005618106
0.11015552
0.00058015622
0.097586938
0.00054752232
0.096472431
0.00057678571
0.10437112
0.00064948902
0.11086071
0.00074952229
0.11454356
0.00084769206
0.11270714
0.00093108498
0.0097979958
0.00115805
-0.099657338
0.010658411
-0.10112428
0.013517904
-0.090316896
0.014842473
-0.073088683
0.016041284
-0.021627502
0.017912981
0.023760105
0.019898922
0.055148232
0.021635108
0.099403681
0.023715247
0.12374204
0.024342967
0.14896545
0.026846043
0.15584579
0.033432317
0.044841407
0.042152908
-0.12937116
0.039279301
-0.083699723
0.034254947
-0.021849213
0.037437615
0.064787006
0.045341273
0.16897287
0.053406944
0.19762496
0.058114864
0.2043445
0.062744645
0.20615862
0.068018992
0.2073879
0.073378532
0.20813568
0.078902265
0.20834621
0.085118684
0.092077588
0.10572559
0.00033499381
0.10883075
0.00036685476
0.11725533
0.00040800262
0.12554327
0.00047633272
0.13195622
0.00054866624
0.12688472
0.00059689562
0.11056125
0.00061471807
0.098020289
0.00056568801
0.096940149
0.00060003916
0.10473825
0.00067608666
0.11140032
0.00079737544
0.1152207
0.00088780597
0.11702317
0.00095886321
0.036179905
0.0044716018
-0.072146514
0.010893626
-0.10175519
0.013532728
-0.090949227
0.014857121
-0.073596136
0.016056724
-0.02200612
0.017923629
0.023374706
0.019921054
0.055136123
0.021714891
0.10001654
0.023783818
0.12505643
0.024448252
0.14970825
0.026912127
0.15657184
0.033461764
0.044733085
0.042176548
-0.13066894
0.039244779
-0.084569915
0.034242677
-0.022439161
0.037432892
0.064895634
0.045264813
0.17004524
0.053404075
0.19908835
0.058152223
0.20593476
0.062795258
0.20781462
0.068070345
0.20907618
0.073434464
0.20982078
0.078983509
0.21000964
0.085226903
0.092212029
0.085728893
0.00025406304
0.087063655
0.00027376518
0.095653428
0.0003077904
0.10475911
0.00036937877
0.11137275
0.00043106653
0.10484289
0.00046190036
0.085555437
0.00046255982
0.071204764
0.00039434382
0.070791531
0.00039545901
0.08091347
0.00037740185
0.089811764
0.00077917559
0.09520393
0.0047769632
0.034904395
0.0056497295
-0.066245166
0.0097020021
-0.10363459
0.012422008
-0.10241279
0.013539779
-0.091512623
0.014862262
-0.074019534
0.01606935
-0.022402831
0.017942164
0.022710042
0.019927089
0.054886355
0.021806579
0.10059363
0.023902717
0.12603184
0.024567574
0.15039175
0.027049888
0.15726389
0.033600516
0.04447604
0.042335735
-0.13204569
0.039239179
-0.085424348
0.034221732
-0.023018002
0.037405828
0.06500518
0.045162114
0.17110419
0.053370699
0.20053345
0.058161342
0.20750716
0.062816761
0.20946195
0.068093928
0.21075107
0.073474443
0.21148602
0.079058167
0.21165973
0.085340708
0.081389226
0.00022957661
0.079785607
0.0002331674
0.08757109
0.00025986886
0.095861939
0.00031455755
0.10129954
0.00036976451
0.093609714
0.00040149702
0.072166895
0.00033833769
0.056501642
0.0026376716
0.058831737
0.0037009312
0.071404584
0.0040870294
0.0061318662
0.0049792932
-0.083029229
0.0094053493
-0.10127645
0.010640272
-0.10578365
0.011679768
-0.10657168
0.012480584
-0.10304456
0.013524293
-0.092090281
0.014839748
-0.074461294
0.01604219
-0.022826564
0.01789974
0.022066384
0.019861131
0.054646997
0.021784247
0.10112735
0.023974198
0.12697592
0.024688638
0.15112079
0.027134182
0.15800121
0.033656764
0.04424499
0.04242495
-0.13345132
0.039202766
-0.086294164
0.034193482
-0.023620065
0.037368201
0.065100228
0.0450627
0.17215376
0.05334153
0.20196476
0.058167343
0.20906892
0.062833452
0.21110846
0.068114187
0.21241979
0.073514304
0.21313888
0.079135575
0.085458746
0.083335678
0.00022753427
0.080649788
0.00022545587
0.088011128
0.00025058766
0.095474496
0.00030228924
0.10015482
0.00035548535
0.087856662
0.00059237045
0.015000241
0.0033381444
-0.055291754
0.006131973
-0.063472884
0.007455561
-0.079501249
0.0082567488
-0.096095063
0.0091195433
-0.10388678
0.010000175
-0.10619591
0.010837787
-0.10712346
0.011646902
-0.10725016
0.012444849
-0.10363106
0.013479568
-0.092593138
0.014787672
-0.074783886
0.015984666
-0.023162046
0.017829218
0.021398357
0.019778624
0.054335394
0.021689388
0.10160733
0.023938463
0.12787519
0.024658496
0.15178028
0.02711124
0.15866125
0.033594736
0.043870179
0.042371454
-0.13490037
0.03914062
-0.08714963
0.034166218
-0.024215014
0.037328273
0.065195994
0.044952189
0.17318974
0.053298527
0.20337629
0.058168232
0.2106171
0.062847305
0.2127468
0.068132763
0.21408197
0.073551738
0.21478237
0.079208829
0.085572112
0.089133132
0.00072264428
0.087004405
0.00075021358
0.09418316
0.00082800276
0.10104654
0.00093238538
0.09697897
0.001035134
-0.0080142747
0.0017716115
-0.09769766
0.0065420432
-0.087414254
0.0073069292
-0.083419855
0.0078856516
-0.091483853
0.0085943905
-0.1007097
0.00922487
-0.10531428
0.009984833
-0.10677363
0.01082706
-0.10765626
0.011607132
-0.10779515
0.012415694
-0.10415299
0.013445729
-0.093024877
0.014752705
-0.07504457
0.015947833
-0.02350356
0.017791738
0.020705978
0.019744013
0.053977023
0.021634865
0.10203094
0.023921958
0.12868857
0.024642863
0.15243025
0.027102263
0.15932634
0.033556511
0.043578801
0.042323417
-0.13632703
0.039060909
-0.088021717
0.034116456
-0.024834686
0.037260944
0.065274515
0.044839204
0.17421213
0.053239069
0.20477037
0.058144347
0.21215485
0.062836906
0.21438434
0.068123599
0.21573461
0.073558053
0.216409
0.079245976
0.085651016
0.098252219
0.0012347681
0.091786458
0.0013318408
0.09107374
0.0014065095
0.098961118
0.0015067055
0.10671575
0.0016538086
0.090896745
0.0018251825
-0.02459723
0.0025380946
-0.1039774
0.0066879473
-0.089528169
0.0073017422
-0.085114454
0.0079198242
-0.092239848
0.0086142565
-0.10112244
0.0092185894
-0.1058259
0.0099838653
-0.10733659
0.010824075
-0.10820367
0.011604287
-0.10833088
0.012414831
-0.10468389
0.013446538
-0.093496577
0.014758324
-0.075381527
0.015956938
-0.02394958
0.017808825
0.020041673
0.019793486
0.053667219
0.021655177
0.10244927
0.02395542
0.12946935
0.024674065
0.15311825
0.027136904
0.15999886
0.033567708
0.043345097
0.042325775
-0.13767868
0.039004321
-0.088887742
0.034071456
-0.025455542
0.037208954
0.065348913
0.044758753
0.17521697
0.053209756
0.20613994
0.058137674
0.21367897
0.062843081
0.2160195
0.068131375
0.2173798
0.073575065
0.21802283
0.079287242
0.21814717
0.085726697
0.092854599
0.098867904
0.0014392649
0.092277126
0.0015557205
0.091463031
0.0016522242
0.099292854
0.0017710802
0.10734039
0.0019243596
0.10599379
0.0021163864
-0.0081314587
0.0032543329
-0.10465989
0.0067025505
-0.089940377
0.0073067555
-0.085415082
0.0079334053
-0.092489882
0.0086242119
-0.10149363
0.0092303056
-0.10633825
0.0099978682
-0.10785573
0.010841247
-0.10872084
0.011625529
-0.10885104
0.012437066
-0.10519714
0.013473018
-0.093930696
0.014795399
-0.075624561
0.016003949
-0.024503374
0.017875029
0.019417369
0.019903365
0.05338068
0.021738932
0.10287315
0.024052767
0.13024787
0.024769039
0.15386915
0.027228492
0.16070879
0.033641014
0.04316917
0.04239595
-0.13894132
0.038984462
-0.089734583
0.0340576
-0.026062328
0.037196589
0.065423616
0.044687017
0.17619941
0.053203423
0.2074811
0.058165
0.2151869
0.062888287
0.21764214
0.068186329
0.21901703
0.073637648
0.21962781
0.079372017
0.21973729
0.085837826
0.092989416
0.093861151
0.0018548827
0.087209261
0.0019981355
0.085640596
0.0021175205
0.093045599
0.0022665046
0.10074717
0.0024558449
0.060401713
0.0026916362
-0.054910597
0.004568504
-0.10472611
0.0067266021
-0.090451451
0.0073326753
-0.086120457
0.0079591214
-0.093108149
0.0086504753
-0.10203079
0.009262486
-0.10689223
0.010034755
-0.10837535
0.0108837
-0.10924111
0.011674511
-0.10937746
0.012489231
-0.10571743
0.013531383
-0.094401959
0.014865104
-0.075939489
0.016083216
-0.024965401
0.017971178
0.018722311
0.020009478
0.053087111
0.021857537
0.10329433
0.024182594
0.13102
0.024904929
0.15466959
0.027360482
0.16145903
0.033758248
0.043025796
0.042521817
-0.14017494
0.038960365
-0.090583503
0.034042305
-0.026669773
0.037176945
0.065499705
0.04459085
0.17717429
0.053173604
0.20880683
0.05817943
0.21668975