/*--------------------------------*- C++ -*----------------------------------*\
| =========                 |                                                 |
| \\      /  F ield         | OpenFOAM: The Open Source CFD Toolbox           |
|  \\    /   O peration     | Version:  2506                                  |
|   \\  /    A nd           | Website:  www.openfoam.com                      |
|    \\/     M anipulation  |                                                 |
\*---------------------------------------------------------------------------*/
FoamFile
{
    version     2.0;
    format      ascii;
    arch        "LSB;label=32;scalar=64";
    class       volScalarField;
    location    "0.0235";
    object      rho;
}
// * * * * * * * * * * * * * * * * * * * * * * * * * * * * * * * * * * * * * //

dimensions      [1 -3 0 0 0 0 0];

internalField   nonuniform List<scalar> 
13761
(
0.64712035
0.6471205
0.64712091
0.64712175
0.64712329
0.64712573
0.6471292
0.64713372
0.64713932
0.64714602
0.64715388
0.64716295
0.6471733
0.64721988
0.64722001
0.6472204
0.64722127
0.64722291
0.64722557
0.64722936
0.64723427
0.64724031
0.64724748
0.64725582
0.64726539
0.64727625
0.64728846
0.64730204
0.64731706
0.64733357
0.64735167
0.64737144
0.647393
0.64741652
0.6474422
0.64747026
0.64750104
0.6475349
0.64757235
0.64734778
0.64734794
0.64734843
0.64734953
0.64735156
0.6473548
0.6473593
0.64736499
0.6473718
0.64737968
0.64738861
0.6473986
0.64740962
0.64742173
0.64743497
0.64744943
0.6474652
0.64748242
0.6475012
0.64752167
0.64754401
0.64756843
0.64759517
0.64762459
0.64765712
0.64769335
0.64773404
0.64778009
0.64783261
0.64789298
0.64796281
0.64804409
0.64748641
0.64748658
0.6474871
0.64748829
0.64749051
0.64749403
0.64749889
0.64750497
0.64751217
0.64752044
0.64752976
0.64754012
0.64755158
0.64756418
0.64757798
0.64759293
0.64760896
0.64762611
0.64764447
0.64766414
0.64768539
0.64770854
0.64773391
0.64776187
0.64779287
0.64782764
0.64786706
0.6479121
0.64796395
0.64802405
0.64809414
0.64817635
0.64827317
0.64838791
0.64852449
0.64868753
0.64737907
0.64737921
0.64737967
0.64738075
0.64738282
0.64738616
0.64739084
0.64739677
0.64740382
0.64741193
0.64742104
0.64743119
0.64744238
0.64745463
0.64746798
0.6474824
0.64749793
0.64751463
0.64753257
0.64755192
0.64757293
0.64759591
0.64762115
0.64764902
0.64767995
0.64771465
0.64775397
0.64779886
0.64785048
0.64791023
0.64797981
0.64806121
0.64815707
0.64827062
0.64840571
0.64856688
0.64875953
0.64899102
0.64927082
0.64961073
0.65002926
0.65055105
0.65122906
0.65218253
0.65296072
0.65313536
0.65318375
0.65322534
0.65326988
0.65331586
0.65336301
0.65341211
0.64723673
0.64723687
0.64723731
0.64723833
0.64724025
0.64724333
0.64724766
0.64725318
0.64725982
0.64726756
0.6472764
0.64728636
0.64729745
0.6473097
0.64732314
0.64733778
0.64735366
0.64737085
0.64738949
0.64740973
0.64743175
0.64745576
0.64748203
0.64751091
0.64754287
0.6475785
0.64761856
0.64766396
0.64771582
0.64777546
0.64784448
0.64792483
0.64801888
0.64812952
0.64826052
0.64841689
0.6486047
0.64883092
0.64910414
0.64943805
0.64984806
0.65035982
0.65102259
0.6519542
0.65280608
0.65301741
0.65307133
0.65311519
0.65316229
0.65321078
0.65326014
0.65331141
0.65336611
0.65342474
0.65348685
0.65355189
0.65362034
0.6536956
0.65377817
0.65386649
0.65395951
0.65406015
0.64710416
0.64710428
0.64710464
0.64710547
0.64710705
0.64710963
0.64711334
0.64711817
0.64712412
0.6471312
0.64713944
0.64714888
0.64715958
0.6471716
0.64718499
0.64719982
0.64721616
0.64723408
0.64725367
0.64727504
0.64729834
0.64732376
0.64735154
0.64738197
0.64741544
0.64745246
0.64749367
0.64753985
0.64759203
0.64765148
0.64771976
0.64779886
0.64789123
0.64799998
0.64812888
0.64828235
0.64846608
0.64868716
0.64895502
0.64928114
0.64968201
0.65018283
0.65082989
0.65173532
0.65265602
0.65291242
0.65297118
0.65301687
0.65306528
0.65311527
0.65316626
0.65321916
0.65327552
0.65333602
0.65339993
0.65346863
0.6535431
0.65362278
0.65370407
0.65378948
0.6538814
0.6539822
0.65409271
0.65421132
0.65433565
0.65446501
0.65459903
0.64700273
0.64700283
0.64700313
0.64700382
0.64700514
0.64700732
0.64701052
0.64701477
0.6470201
0.64702655
0.64703415
0.64704296
0.64705305
0.64706449
0.64707736
0.64709175
0.64710774
0.64712546
0.64714499
0.64716645
0.64719001
0.64721583
0.64724414
0.64727523
0.64730945
0.64734727
0.64738929
0.64743623
0.64748904
0.64754887
0.64761721
0.6476959
0.64778729
0.64789433
0.64802067
0.64817075
0.64835015
0.64856594
0.64882706
0.64914514
0.64953635
0.65002519
0.65065512
0.65152997
0.65250941
0.65282157
0.65288843
0.65293533
0.6529847
0.6530355
0.65308702
0.65314025
0.65319695
0.65325764
0.65332153
0.65338762
0.65345706
0.65353505
0.65362091
0.65371156
0.65380672
0.6539095
0.65402127
0.65413973
0.6542635
0.65439277
0.65452688
0.65466786
0.65482044
0.65498483
0.65516252
0.6469292
0.64692927
0.64692945
0.64692981
0.64693052
0.64693177
0.64693375
0.64693664
0.64694057
0.64694566
0.64695199
0.64695967
0.64696876
0.64697936
0.64699154
0.64700537
0.64702093
0.64703831
0.64705764
0.64707905
0.6471027
0.64712881
0.6471576
0.64718935
0.64722439
0.64726315
0.64730618
0.64735413
0.64740789
0.64746855
0.64753752
0.64761656
0.64770785
0.6478141
0.64793874
0.64808603
0.64826135
0.6484715
0.64872525
0.64903422
0.64941439
0.64988969
0.65050125
0.65134439
0.65237497
0.65275327
0.65282532
0.65287214
0.65292079
0.65297116
0.65302249
0.65307561
0.65313221
0.65319309
0.6532577
0.65332701
0.65340085
0.65347789
0.65355793
0.65364364
0.65373722
0.65383946
0.6539503
0.65406856
0.65419311
0.65432319
0.65445702
0.65459739
0.65474895
0.65491247
0.65509013
0.65527798
0.6554719
0.65568046
0.6469092
0.64690925
0.64690937
0.64690959
0.64691001
0.64691075
0.646912
0.64691397
0.64691683
0.64692076
0.64692593
0.64693248
0.64694054
0.64695015
0.6469614
0.6469744
0.64698924
0.64700602
0.64702485
0.64704586
0.6470692
0.64709506
0.64712366
0.64715526
0.64719021
0.6472289
0.64727183
0.64731965
0.64737315
0.64743337
0.64750162
0.64757951
0.64766912
0.64777303
0.64789452
0.6480377
0.64820774
0.64841127
0.64865685
0.64895579
0.64932363
0.64978327
0.6503724
0.65117851
0.65223901
0.65269601
0.65278286
0.65282913
0.65287603
0.65292448
0.65297374
0.65302467
0.6530789
0.65313721
0.65319899
0.65326312
0.65333174
0.65340856
0.6534934
0.65358275
0.65367718
0.65377896
0.65388872
0.65400501
0.65412813
0.65425742
0.6543905
0.65452947
0.65467949
0.65484216
0.65501941
0.65520581
0.6553989
0.6556077
0.6558301
0.65605687
0.65629862
0.64697957
0.6469796
0.64697968
0.6469798
0.64698
0.6469803
0.64698082
0.64698167
0.64698302
0.64698504
0.64698789
0.64699174
0.64699677
0.64700317
0.64701114
0.64702089
0.64703259
0.64704642
0.64706254
0.6470811
0.64710223
0.64712611
0.64715292
0.64718289
0.64721632
0.64725355
0.64729505
0.64734141
0.64739336
0.64745184
0.64751802
0.64759339
0.64767983
0.64777975
0.64789624
0.64803323
0.64819571
0.64839004
0.64862449
0.64891005
0.64926181
0.64970186
0.65026747
0.65103756
0.65211
0.65266136
0.65276262
0.65280581
0.65284932
0.65289483
0.6529417
0.65299048
0.65304254
0.65309905
0.65316014
0.65322605
0.65329531
0.65336558
0.65344118
0.65352539
0.65361811
0.65371863
0.65382665
0.6539424
0.65406582
0.65419491
0.65432634
0.65446377
0.65461228
0.65477406
0.65495045
0.65513505
0.65532754
0.6555363
0.65575628
0.65598102
0.65622348
0.65647916
0.65673924
0.64701354
0.64701359
0.64701369
0.64701386
0.6470141
0.64701444
0.64701496
0.64701573
0.64701686
0.64701847
0.64702068
0.64702362
0.6470275
0.6470325
0.64703883
0.6470467
0.64705634
0.64706798
0.64708184
0.64709816
0.64711717
0.64713908
0.64716412
0.64719254
0.64722461
0.64726065
0.64730108
0.64734642
0.64739734
0.6474547
0.6475196
0.64759346
0.64767808
0.64777575
0.64788935
0.64802257
0.64818015
0.64836822
0.64859469
0.6488701
0.64920905
0.64963295
0.65017635
0.65091313
0.65197974
0.65263006
0.65275371
0.65279602
0.65283601
0.65287772
0.6529207
0.65296549
0.65301325
0.65306513
0.65312122
0.65318104
0.65324642
0.65331818
0.65339736
0.65348235
0.65357291
0.65367033
0.65377499
0.65388729
0.65400863
0.6541361
0.6542658
0.65440096
0.65454763
0.65470835
0.6548835
0.655066
0.65525784
0.65546574
0.65568246
0.65590603
0.65614905
0.65640135
0.65665962
0.65694422
0.65724114
0.64702296
0.647023
0.64702308
0.64702321
0.64702342
0.64702375
0.64702427
0.64702504
0.64702615
0.6470277
0.64702979
0.64703253
0.64703607
0.64704056
0.64704617
0.64705311
0.64706159
0.64707185
0.64708413
0.64709872
0.6471159
0.64713597
0.64715925
0.64718604
0.64721669
0.64725154
0.64729101
0.6473356
0.64738592
0.64744275
0.64750708
0.64758019
0.64766372
0.6477598
0.64787119
0.64800145
0.64815514
0.64833808
0.64855789
0.64882471
0.64915255
0.64956195
0.65008595
0.65079384
0.6518399
0.65259206
0.6527477
0.65279102
0.65282924
0.65286869
0.65290962
0.65295227
0.65299751
0.65304687
0.65310159
0.65316117
0.65322307
0.65328482
0.65335452
0.65343554
0.65352463
0.65362023
0.65372273
0.65383428
0.65395507
0.65408081
0.65420744
0.65434043
0.65448554
0.65464527
0.65481848
0.65499878
0.65519009
0.65539652
0.65561013
0.65583313
0.65607586
0.65632378
0.65658077
0.65686565
0.65715964
0.6574534
0.64702453
0.64702458
0.6470247
0.64702491
0.64702524
0.64702573
0.64702643
0.6470274
0.64702869
0.64703039
0.64703257
0.64703534
0.6470388
0.6470431
0.64704838
0.64705483
0.64706265
0.64707208
0.64708336
0.64709676
0.64711257
0.64713112
0.64715275
0.64717784
0.64720679
0.64724
0.64727796
0.64732118
0.64737028
0.64742603
0.64748937
0.64756151
0.64764399
0.64773878
0.64784843
0.6479762
0.64812638
0.64830455
0.64851804
0.64877659
0.64909356
0.64948861
0.6499936
0.65067401
0.6516871
0.65253916
0.65273547
0.65278234
0.6528196
0.65285735
0.65289622
0.65293648
0.6529787
0.65302442
0.65307479
0.65313036
0.65319149
0.65325733
0.6533289
0.65340691
0.65349129
0.65358197
0.65367972
0.65378716
0.6539054
0.65402856
0.65415258
0.65428296
0.65442624
0.6545845
0.65475558
0.65493374
0.65512429
0.65532822
0.65553848
0.65576171
0.6560033
0.65624688
0.65650366
0.65678818
0.65707887
0.65737153
0.6576756
0.65798787
0.64702012
0.64702017
0.64702028
0.64702049
0.64702083
0.64702135
0.6470221
0.64702314
0.64702451
0.64702628
0.64702852
0.64703131
0.64703476
0.64703897
0.64704407
0.64705023
0.64705761
0.64706643
0.64707693
0.6470894
0.64710411
0.6471214
0.64714161
0.64716516
0.64719246
0.64722401
0.64726032
0.64730196
0.64734958
0.64740394
0.64746596
0.64753679
0.6476179
0.64771115
0.64781894
0.64794438
0.64809149
0.64826554
0.64847346
0.64872455
0.64903166
0.64941362
0.64990101
0.65055514
0.65152616
0.65247034
0.65271966
0.65277097
0.65280816
0.6528454
0.652884
0.6529239
0.6529652
0.65300958
0.65305924
0.65311312
0.6531676
0.65322509
0.65329096
0.65336794
0.6534518
0.65354086
0.65363694
0.65374361
0.65386018
0.6539799
0.65409983
0.65422781
0.65436954
0.65452636
0.65469466
0.65487081
0.65506036
0.65526128
0.65546891
0.65569232
0.65593141
0.65617049
0.65642737
0.6567109
0.65699844
0.65729075
0.6575935
0.65790283
0.65823133
0.64700962
0.64700968
0.64700981
0.64701006
0.64701046
0.64701106
0.64701191
0.64701304
0.6470145
0.64701636
0.64701866
0.6470215
0.64702496
0.64702913
0.64703415
0.64704014
0.64704727
0.64705571
0.64706569
0.64707743
0.64709125
0.64710748
0.6471265
0.64714873
0.6471746
0.6472046
0.64723929
0.64727931
0.64732534
0.6473782
0.64743882
0.64750831
0.64758805
0.64767978
0.64778576
0.64790891
0.64805303
0.64822311
0.64842574
0.64866977
0.64896748
0.64933685
0.64980713
0.65043516
0.65135882
0.65238257
0.65269552
0.65275372
0.65279074
0.65282723
0.65286492
0.65290388
0.652944
0.65298689
0.65303451
0.65308808
0.6531463
0.65320934
0.65327431
0.65334507
0.65342335
0.6535076
0.65359937
0.65370269
0.65381669
0.65393323
0.65405019
0.65417568
0.65431546
0.65447009
0.65463578
0.65481018
0.65499824
0.65519555
0.65540088
0.6556246
0.65586022
0.65609549
0.65635308
0.65663458
0.65691921
0.65721103
0.65751214
0.65781931
0.65814917
0.65848878
0.64699577
0.64699582
0.64699596
0.6469962
0.64699662
0.64699725
0.64699815
0.64699934
0.64700088
0.6470028
0.64700516
0.64700804
0.64701152
0.64701569
0.64702066
0.64702657
0.64703356
0.64704182
0.64705154
0.64706293
0.64707626
0.64709184
0.64711002
0.64713121
0.6471559
0.64718457
0.64721779
0.64725621
0.64730055
0.64735164
0.64741044
0.6474781
0.64755601
0.64764587
0.64774984
0.64787069
0.64801198
0.6481784
0.64837616
0.64861371
0.6489028
0.64926057
0.6497146
0.65031691
0.65119162
0.65227749
0.65266732
0.65273509
0.65277221
0.65280825
0.65284574
0.65288458
0.65292427
0.65296636
0.6530133
0.65306331
0.65311462
0.65317178
0.65323693
0.65331008
0.65338882
0.65347221
0.65356347
0.65366618
0.65377757
0.65388967
0.65400266
0.65412584
0.65426374
0.6544162
0.65457896
0.65475169
0.65493768
0.65513131
0.65533517
0.65555821
0.65578928
0.65602133
0.65627947
0.65655856
0.65684075
0.65713262
0.6574308
0.65773604
0.65806721
0.65840324
0.65873631
0.65908253
0.64697887
0.64697893
0.64697909
0.64697937
0.64697984
0.64698055
0.64698152
0.6469828
0.64698441
0.64698641
0.64698884
0.64699177
0.64699528
0.64699946
0.64700441
0.64701025
0.64701712
0.64702519
0.64703465
0.64704571
0.64705862
0.64707366
0.64709115
0.64711147
0.64713507
0.6471625
0.64719436
0.64723128
0.647274
0.64732339
0.64738045
0.64744632
0.64752238
0.64761029
0.64771214
0.64783058
0.647969
0.64813184
0.64832499
0.64855641
0.64883715
0.64918349
0.64962139
0.65019819
0.65102511
0.65215188
0.65263127
0.65271215
0.65274966
0.65278517
0.65282194
0.6528603
0.6528998
0.6529418
0.65298861
0.65304159
0.65309837
0.65315726
0.65321866
0.65328475
0.65335864
0.65343876
0.65352745
0.65362837
0.65373764
0.65384683
0.65395741
0.65407858
0.65421409
0.65436372
0.65452396
0.65469521
0.6548786
0.65506875
0.65527152
0.65549336
0.6557194
0.65594914
0.6562077
0.65648346
0.6567639
0.65705503
0.65735023
0.65765457
0.65798636
0.65831935
0.65865334
0.65899813
0.65933877
0.64696034
0.64696041
0.64696057
0.64696086
0.64696135
0.64696208
0.64696309
0.64696442
0.64696609
0.64696814
0.64697062
0.64697359
0.64697714
0.64698133
0.64698626
0.64699206
0.64699885
0.64700678
0.64701605
0.64702684
0.64703941
0.64705404
0.64707103
0.64709075
0.64711361
0.64714011
0.64717085
0.64720649
0.64724776
0.64729555
0.64735085
0.64741485
0.64748892
0.64757472
0.6476743
0.64779021
0.64792571
0.64808501
0.64827368
0.64849926
0.64877233
0.64910817
0.64953073
0.65008293
0.65086516
0.65200879
0.65258991
0.65268891
0.65272708
0.65276197
0.65279811
0.65283581
0.65287448
0.65291539
0.65296053
0.65300842
0.65305841
0.65311584
0.65318264
0.65325264
0.65332699
0.65340659
0.65349549
0.6535954
0.65370131
0.65380628
0.65391411
0.65403314
0.65416624
0.65431325
0.65447105
0.65464058
0.65482086
0.65500784
0.65520984
0.65542898
0.65564974
0.65587807
0.65613655
0.65640904
0.65668822
0.65697872
0.65726976
0.65757385
0.65790517
0.65823453
0.65857042
0.65891497
0.65925621
0.65959435
0.64694022
0.64694029
0.64694047
0.64694079
0.64694132
0.6469421
0.64694318
0.64694456
0.64694628
0.64694837
0.64695089
0.6469539
0.64695746
0.64696166
0.64696658
0.64697234
0.64697906
0.64698689
0.646996
0.64700657
0.64701885
0.64703309
0.64704961
0.64706875
0.64709092
0.64711658
0.64714627
0.6471807
0.64722064
0.64726694
0.6473206
0.6473828
0.64745491
0.64753859
0.64763586
0.64774921
0.64788179
0.64803763
0.64822201
0.64844205
0.64870759
0.64903291
0.64944034
0.64996915
0.65071067
0.65184679
0.65253912
0.65266294
0.65270268
0.65273758
0.65277327
0.65281078
0.65284984
0.65289154
0.65293791
0.65299138
0.65304362
0.65310084
0.65315774
0.65322158
0.6532927
0.65337089
0.65345897
0.65355851
0.65366283
0.65376579
0.65387213
0.65398944
0.65411974
0.65426388
0.65441959
0.65458741
0.65476434
0.65494901
0.65515014
0.65536596
0.65558161
0.65580916
0.6560668
0.65633559
0.65661427
0.65690273
0.65719023
0.65749492
0.65782472
0.65815205
0.65848922
0.65883153
0.65917241
0.65951115
0.65986756
0.64691959
0.64691967
0.64691984
0.64692017
0.6469207
0.64692149
0.64692258
0.64692398
0.64692573
0.64692785
0.64693039
0.64693342
0.646937
0.64694119
0.64694611
0.64695184
0.6469585
0.64696625
0.64697523
0.64698563
0.64699768
0.64701164
0.64702778
0.64704648
0.64706812
0.64709314
0.64712209
0.6471556
0.64719441
0.64723937
0.64729149
0.64735195
0.64742213
0.64750368
0.6475986
0.64770933
0.64783892
0.64799124
0.64817134
0.64838592
0.64864426
0.64895977
0.64935305
0.64986023
0.65056485
0.65167069
0.6524794
0.65263637
0.65267787
0.65271233
0.65274723
0.65278373
0.65282155
0.65286168
0.65290513
0.65295244
0.6530011
0.65306041
0.653126
0.65319323
0.6532636
0.65334094
0.65342895
0.65352628
0.65362689
0.65372687
0.6538319
0.65394691
0.65407443
0.65421612
0.65437004
0.65453566
0.65470928
0.65489184
0.65509168
0.65530295
0.65551408
0.6557416
0.65599784
0.65626339
0.65654164
0.65682782
0.65711134
0.65741691
0.65774364
0.65806905
0.65840769
0.65874952
0.65909068
0.65943021
0.65978824
0.64689787
0.64689795
0.64689815
0.64689852
0.64689911
0.64689996
0.64690112
0.64690258
0.64690439
0.64690656
0.64690914
0.6469122
0.6469158
0.64692001
0.64692492
0.64693062
0.64693725
0.64694492
0.64695379
0.64696405
0.64697591
0.6469896
0.64700541
0.64702368
0.64704479
0.64706917
0.64709735
0.64712993
0.64716763
0.64721136
0.64726209
0.64732097
0.64738936
0.6474689
0.64756155
0.64766972
0.64779637
0.64794525
0.64812118
0.64833052
0.64858196
0.64888791
0.64926755
0.64975464
0.65042544
0.65148285
0.65240662
0.65260825
0.65265347
0.65268848
0.65272336
0.65275996
0.6527986
0.65284003
0.65288549
0.65293477
0.65298673
0.65303614
0.65309335
0.65315672
0.65322619
0.6533037
0.65339204
0.65348979
0.65358934
0.65368824
0.65379215
0.65390523
0.65402998
0.65416945
0.65432149
0.65448488
0.65465535
0.65483669
0.65503471
0.65524124
0.65544845
0.655676
0.65592975
0.65619219
0.65647054
0.6567528
0.65703369
0.65734019
0.65766329
0.65798909
0.6583277
0.65866763
0.65900764
0.65934752
0.65970581
0.66004811
0.64687612
0.6468762
0.64687641
0.64687678
0.64687737
0.64687825
0.64687943
0.64688092
0.64688275
0.64688494
0.64688755
0.64689063
0.64689424
0.64689846
0.64690336
0.64690905
0.64691564
0.64692326
0.64693205
0.64694219
0.64695389
0.64696737
0.64698291
0.64700084
0.64702152
0.64704541
0.64707299
0.64710486
0.64714171
0.64718438
0.64723383
0.64729121
0.64735788
0.64743545
0.64752586
0.64763147
0.64775517
0.6479006
0.64807236
0.64827649
0.64852118
0.64881813
0.64918529
0.64965394
0.65029268
0.65128898
0.65231854
0.65257807
0.65262768
0.6526624
0.65269656
0.65273201
0.65276925
0.65280901
0.65285117
0.65289575
0.65294648
0.65300582
0.65306954
0.65313265
0.65319933
0.65327526
0.65336232
0.65345657
0.65355286
0.65365046
0.65375378
0.65386411
0.6539863
0.6541239
0.65427445
0.65443527
0.65460316
0.65478292
0.65497831
0.65517978
0.65538407
0.65561194
0.65586278
0.65612277
0.65640061
0.65667878
0.65695741
0.65726408
0.65758267
0.65790879
0.65824703
0.65858725
0.65892639
0.65926712
0.65962548
0.65996972
0.66030795
0.64685437
0.64685446
0.64685468
0.64685507
0.64685569
0.64685659
0.6468578
0.64685932
0.64686117
0.64686339
0.64686601
0.6468691
0.64687272
0.64687693
0.64688182
0.64688748
0.64689403
0.64690159
0.6469103
0.64692033
0.64693188
0.64694518
0.64696048
0.6469781
0.6469984
0.6470218
0.6470488
0.64707996
0.64711598
0.64715764
0.64720593
0.64726197
0.64732706
0.64740281
0.64749111
0.64759427
0.64771512
0.64785718
0.64802489
0.64822402
0.64846233
0.64875078
0.64910612
0.64955735
0.65016543
0.65109525
0.65221291
0.65254689
0.65260419
0.65263975
0.65267405
0.65270956
0.65274749
0.65278823
0.65283168
0.65287743
0.65292276
0.65297242
0.65303046
0.65309372
0.65316189
0.65323878
0.65332642
0.65342114
0.65351675
0.65361369
0.6537153
0.65382326
0.65394341
0.6540795
0.65422802
0.6543864
0.654552
0.65473069
0.65492297
0.65511965
0.65532167
0.65554929
0.65579618
0.65605443
0.65633174
0.65660466
0.65688262
0.6571885
0.65750335
0.6578318
0.65816769
0.65850723
0.65884377
0.65918483
0.65954252
0.6598896
0.66022926
0.66055658
0.64683301
0.6468331
0.64683331
0.64683369
0.6468343
0.64683519
0.64683639
0.64683791
0.64683976
0.64684197
0.64684459
0.64684767
0.64685128
0.64685547
0.64686033
0.64686596
0.64687246
0.64687995
0.64688858
0.64689851
0.64690992
0.64692304
0.64693813
0.64695548
0.64697544
0.64699842
0.64702491
0.64705546
0.64709073
0.64713151
0.64717873
0.64723349
0.6472971
0.6473711
0.64745736
0.64755814
0.6476762
0.64781495
0.64797869
0.64817293
0.64840504
0.64868534
0.64902951
0.64946402
0.65004204
0.65090562
0.65208538
0.65251152
0.65257842
0.65261391
0.65264768
0.65268211
0.65271873
0.65275815
0.65279928
0.65284283
0.65289392
0.65295111
0.65301187
0.6530717
0.65313602
0.65321074
0.65329561
0.65338638
0.65348002
0.65357694
0.65367768
0.6537828
0.65390115
0.65403569
0.65418256
0.65433865
0.65450257
0.65467936
0.65486805
0.65506045
0.65526115
0.65548819
0.65573102
0.65598821
0.65626363
0.65653181
0.65680964
0.65711303
0.65742468
0.65775413
0.65808771
0.65842851
0.65876289
0.65910496
0.6594622
0.65981278
0.66015232
0.6604816
0.66080643
0.64681215
0.64681224
0.64681246
0.64681285
0.64681347
0.64681437
0.64681559
0.64681711
0.64681896
0.64682118
0.6468238
0.64682687
0.64683046
0.64683463
0.64683946
0.64684505
0.6468515
0.64685893
0.64686747
0.64687729
0.64688857
0.64690153
0.64691641
0.6469335
0.64695316
0.64697576
0.64700179
0.6470318
0.64706642
0.64710644
0.64715272
0.64720634
0.64726857
0.64734094
0.64742528
0.64752381
0.64763919
0.64777477
0.64793467
0.64812421
0.64835039
0.64862297
0.64895644
0.64937489
0.64992462
0.65072737
0.65193694
0.65247341
0.65255606
0.65259251
0.65262611
0.65266011
0.65269655
0.65273575
0.65277663
0.65281586
0.6528598
0.65291085
0.652971
0.65303487
0.65310213
0.65317768
0.6532626
0.65335319
0.65344617
0.65354193
0.65363982
0.65374255
0.6538599
0.65399314
0.65413783
0.65429178
0.65445397
0.65462894
0.65481401
0.65500256
0.65520241
0.65542789
0.65566599
0.65592316
0.65619612
0.6564595
0.65673801
0.65703769
0.65734817
0.65767927
0.65800911
0.65835015
0.65868086
0.6590232
0.65938034
0.6597339
0.6600727
0.66040555
0.66073266
0.64679195
0.64679204
0.64679226
0.64679264
0.64679326
0.64679417
0.64679537
0.64679688
0.64679872
0.64680091
0.64680351
0.64680655
0.64681011
0.64681424
0.64681903
0.64682457
0.64683095
0.64683831
0.64684676
0.64685647
0.64686761
0.6468804
0.64689508
0.64691193
0.64693127
0.64695349
0.64697906
0.6470085
0.64704244
0.64708162
0.64712695
0.64717947
0.64724041
0.64731125
0.64739378
0.64749014
0.64760296
0.64773546
0.64789166
0.64807665
0.64829711
0.64856218
0.64888519
0.64928775
0.64981065
0.65055995
0.65176423
0.65242715
0.65253074
0.65256801
0.65260133
0.65263463
0.65267019
0.65270879
0.65274895
0.65279215
0.652841
0.65289616
0.65295404
0.65301153
0.65307547
0.65314868
0.65323011
0.65331773
0.65341025
0.65350621
0.65360239
0.65370298
0.65381923
0.65395075
0.65409372
0.65424605
0.65440676
0.65457919
0.6547607
0.65494632
0.65514586
0.65536882
0.65560268
0.65586018
0.65612895
0.656389
0.65666786
0.65696243
0.65727315
0.6576031
0.65793031
0.65827263
0.6586008
0.65894414
0.65930174
0.65965782
0.65999563
0.66033178
0.66066093
0.66099178
0.6467729
0.64677299
0.64677321
0.6467736
0.64677423
0.64677513
0.64677633
0.64677784
0.64677967
0.64678185
0.64678442
0.64678744
0.64679097
0.64679506
0.6467998
0.64680528
0.6468116
0.64681887
0.64682722
0.64683682
0.64684783
0.64686046
0.64687494
0.64689156
0.64691063
0.64693255
0.64695775
0.64698675
0.64702019
0.64705875
0.64710326
0.64715476
0.64721446
0.64728382
0.64736459
0.64745888
0.64756922
0.64769877
0.64785138
0.64803196
0.64824684
0.64850459
0.64881752
0.64920528
0.64970433
0.65040791
0.65157329
0.65237399
0.65250874
0.65254714
0.65257979
0.65261199
0.65264632
0.65268331
0.65272139
0.6527596
0.65280144
0.65285341
0.65291627
0.6529807
0.65304732
0.65312044
0.653201
0.65328746
0.65337895
0.65347265
0.65356523
0.65366395
0.65377977
0.65390974
0.6540509
0.65420144
0.65436026
0.65453016
0.65470832
0.65489133
0.65509064
0.65530996
0.65554
0.65579834
0.65606231
0.65631991
0.65659849
0.65688783
0.6572007
0.65752886
0.65785331
0.65819535
0.65851991
0.65886334
0.65922251
0.65957912
0.65991651
0.66025659
0.66058731
0.66092126
0.66123082
0.64675494
0.64675504
0.64675525
0.64675563
0.64675624
0.64675713
0.64675831
0.64675979
0.64676159
0.64676374
0.64676628
0.64676926
0.64677274
0.64677679
0.64678148
0.64678689
0.64679314
0.64680032
0.64680858
0.64681805
0.64682891
0.64684136
0.64685563
0.64687199
0.64689075
0.64691229
0.64693705
0.64696552
0.64699829
0.64703611
0.64707979
0.64713033
0.6471889
0.6472569
0.64733603
0.64742834
0.64753632
0.64766299
0.64781211
0.64798835
0.64819777
0.64844839
0.64875162
0.64912538
0.6496029
0.65026659
0.65136621
0.65230544
0.65248433
0.65252474
0.65255755
0.65258972
0.65262392
0.65266133
0.65270101
0.65274357
0.65279283
0.65284301
0.65289628
0.6529539
0.65301834
0.65308943
0.65316706
0.65325262
0.65334472
0.65343793
0.65352836
0.6536261
0.65374086
0.65386886
0.6540086
0.65415776
0.65431462
0.65448189
0.65465712
0.65483855
0.65503737
0.65525186
0.65547931
0.65573792
0.65599594
0.65625291
0.65652964
0.65681404
0.65712971
0.65745299
0.65777666
0.65811856
0.65844132
0.65878572
0.65914653
0.65950254
0.65984091
0.66018367
0.66051574
0.66085252
0.66116406
0.64673897
0.64673906
0.64673926
0.64673963
0.64674022
0.64674108
0.64674222
0.64674366
0.64674542
0.64674751
0.64675
0.64675292
0.64675634
0.64676033
0.64676494
0.64677028
0.64677644
0.64678354
0.64679169
0.64680104
0.64681176
0.64682406
0.64683814
0.64685429
0.64687281
0.64689408
0.64691851
0.64694659
0.6469789
0.64701608
0.64705897
0.64710854
0.64716595
0.64723257
0.64731006
0.64740042
0.64750606
0.64762991
0.64777559
0.64794758
0.64815163
0.64839532
0.6486893
0.64905025
0.64950863
0.65013614
0.6511533
0.65222003
0.65245966
0.65250353
0.65253513
0.65256587
0.6525983
0.65263319
0.65266992
0.65270714
0.65275164
0.65280609
0.65286863
0.6529311
0.65299636
0.65306581
0.6531414
0.65322467
0.653315
0.65340519
0.65349253
0.65358908
0.65370309
0.65382956
0.6539682
0.65411538
0.65426988
0.65443457
0.65460703
0.654787
0.6549849
0.65519399
0.65542036
0.65567843
0.65593069
0.65618781
0.65646107
0.6567421
0.6570607
0.65737861
0.65770235
0.65804192
0.65836206
0.65870658
0.65906985
0.65942347
0.65976385
0.66010856
0.66044219
0.66078168
0.66109531
0.66138197
0.64672588
0.64672597
0.64672618
0.64672655
0.64672714
0.646728
0.64672913
0.64673055
0.64673227
0.64673433
0.64673676
0.64673962
0.64674296
0.64674686
0.64675137
0.6467566
0.64676263
0.64676959
0.64677758
0.64678676
0.64679728
0.64680935
0.64682318
0.64683904
0.64685722
0.64687808
0.64690202
0.64692952
0.64696119
0.64699767
0.64703978
0.64708842
0.64714473
0.64721004
0.64728595
0.6473744
0.64747773
0.64759878
0.64774103
0.6479088
0.64810757
0.64834454
0.64862974
0.64897869
0.6494191
0.65001238
0.6509425
0.65211171
0.65243302
0.65248351
0.65251583
0.65254727
0.65258036
0.65261567
0.65265365
0.65269834
0.65274413
0.65279158
0.6528399
0.65289995
0.65296502
0.6530334
0.65310771
0.65319203
0.65328301
0.65337163
0.65345713
0.65355359
0.65366608
0.65379082
0.65392827
0.65407351
0.65422569
0.65438819
0.65455838
0.65473777
0.65493336
0.65513682
0.65536346
0.65561932
0.65586612
0.65612438
0.65639241
0.65667193
0.65699209
0.65730319
0.6576286
0.65796572
0.65828546
0.65863104
0.65899562
0.65934648
0.65969065
0.66003536
0.66037081
0.66071271
0.66102835
0.66131779
0.66160728
0.64671408
0.64671417
0.64671437
0.64671473
0.64671531
0.64671615
0.64671726
0.64671865
0.64672034
0.64672236
0.64672474
0.64672754
0.64673081
0.64673461
0.64673903
0.64674414
0.64675005
0.64675685
0.64676468
0.64677368
0.64678402
0.64679588
0.64680948
0.64682507
0.64684294
0.64686344
0.64688695
0.64691396
0.64694502
0.6469808
0.64702207
0.64706975
0.64712493
0.6471889
0.64726323
0.64734979
0.64745085
0.64756916
0.64770806
0.64787173
0.64806538
0.64829588
0.64857268
0.64891015
0.64933318
0.6498936
0.65074166
0.65197587
0.65240281
0.6524613
0.65249246
0.65252274
0.65255431
0.65258779
0.65262299
0.65266294
0.6527107
0.65276635
0.65282279
0.65288433
0.65294702
0.65301217
0.65308364
0.65316513
0.65325365
0.6533395
0.65342334
0.65351888
0.65362998
0.65375375
0.65389031
0.65403302
0.65418293
0.65434306
0.6545111
0.65468979
0.65488219
0.6550808
0.65530919
0.65556092
0.65580375
0.65606253
0.65632436
0.65660446
0.65692423
0.65722975
0.65755745
0.65788969
0.65820815
0.65855398
0.65891976
0.65926794
0.65961582
0.65995946
0.66029732
0.6606418
0.66095911
0.66125255
0.66154619
0.64670122
0.64670131
0.64670151
0.64670189
0.64670248
0.64670332
0.64670445
0.64670585
0.64670754
0.64670955
0.64671193
0.64671471
0.64671796
0.64672173
0.64672609
0.64673114
0.64673697
0.64674368
0.64675139
0.64676026
0.64677043
0.6467821
0.64679549
0.64681084
0.64682844
0.64684861
0.64687175
0.64689833
0.64692889
0.64696407
0.64700462
0.64705145
0.6471056
0.64716834
0.64724119
0.64732597
0.64742488
0.64754057
0.64767629
0.64783603
0.64802481
0.64824914
0.6485179
0.64884432
0.64925052
0.64978057
0.65055876
0.65181316
0.65236795
0.65244226
0.65247483
0.65250612
0.65253837
0.65257262
0.65261107
0.65265391
0.65269719
0.65273763
0.65278952
0.6528519
0.65291568
0.6529807
0.65305263
0.65313599
0.65322428
0.65330773
0.65339038
0.65348587
0.65359526
0.65371792
0.65385283
0.65399291
0.65414077
0.65429889
0.65446539
0.65464349
0.65483088
0.65502604
0.65525619
0.65550221
0.65574271
0.65600123
0.65625667
0.65653908
0.65685565
0.65715646
0.65748642
0.65781442
0.65813388
0.65848042
0.65884562
0.65919223
0.65954412
0.65988532
0.66022626
0.66057298
0.66089189
0.66118854
0.66148558
0.66177784
0.64668894
0.64668902
0.64668922
0.64668957
0.64669014
0.64669097
0.64669207
0.64669346
0.64669514
0.64669714
0.6466995
0.64670226
0.64670548
0.64670921
0.64671353
0.64671852
0.64672428
0.6467309
0.64673851
0.64674724
0.64675726
0.64676874
0.64678191
0.646797
0.6468143
0.64683413
0.64685686
0.64688294
0.6469129
0.64694734
0.64698703
0.64703288
0.64708595
0.64714746
0.64721886
0.64730192
0.64739875
0.64751192
0.64764454
0.64780046
0.64798446
0.64820271
0.6484635
0.64877889
0.64916853
0.64967067
0.6503912
0.65162055
0.65232333
0.65241896
0.65245185
0.65248275
0.65251458
0.65254749
0.65258316
0.65262593
0.6526753
0.6527281
0.65278067
0.65283717
0.65289645
0.65295811