/*--------------------------------*- C++ -*----------------------------------*\
| =========                 |                                                 |
| \\      /  F ield         | OpenFOAM: The Open Source CFD Toolbox           |
|  \\    /   O peration     | Version:  2506                                  |
|   \\  /    A nd           | Website:  www.openfoam.com                      |
|    \\/     M anipulation  |                                                 |
\*---------------------------------------------------------------------------*/
FoamFile
{
    version     2.0;
    format      ascii;
    arch        "LSB;label=32;scalar=64";
    class       volScalarField;
    location    "1.9";
    object      rho;
}
// * * * * * * * * * * * * * * * * * * * * * * * * * * * * * * * * * * * * * //

dimensions      [1 -3 0 0 0 0 0];

internalField   nonuniform List<scalar> 
1376
(
0.66562069
0.66562734
0.66562141
0.66562997
0.66564355
0.6656564
0.66566844
0.66568155
0.66568819
0.66569881
0.6657076
0.66571003
0.66571644
0.66572311
0.66573291
0.66573306
0.66573903
0.66573793
0.66574833
0.66573998
0.66574468
0.6657645
0.66560479
0.66561549
0.66563233
0.6656475
0.66566069
0.66567535
0.66568379
0.66569526
0.6657051
0.665708
0.66571526
0.66572208
0.66573184
0.66573263
0.66573804
0.66573751
0.66574761
0.66573982
0.66574464
0.66576449
0.66560096
0.66562016
0.66563783
0.66565261
0.66566883
0.66567938
0.66569194
0.6657026
0.66570597
0.66571414
0.66572113
0.66573093
0.66573198
0.66573777
0.66573694
0.66574633
0.66573964
0.6657445
0.66576454
0.6656072
0.66562783
0.66564509
0.66566312
0.66567526
0.66568887
0.66570032
0.66570395
0.66571306
0.66572005
0.66572991
0.66573168
0.66573709
0.66573607
0.66574526
0.66573961
0.66574459
0.66576489
0.6656377
0.66565811
0.66567144
0.66568582
0.66569809
0.66570197
0.66571183
0.66571903
0.66572882
0.66573213
0.66573632
0.66573546
0.66574442
0.66573954
0.66574482
0.66576537
0.6656536
0.66566827
0.66568289
0.66569599
0.66570008
0.66571061
0.66571815
0.66572767
0.66573191
0.66573585
0.66573519
0.6657436
0.66573964
0.66574505
0.66576597
0.6656654
0.66568017
0.66569382
0.66569835
0.66570932
0.66571726
0.66572691
0.66573096
0.66573546
0.66573542
0.66574328
0.6657396
0.66574508
0.66576662
0.66567754
0.66569165
0.66569673
0.66570805
0.66571643
0.6657262
0.66573022
0.66573481
0.66573583
0.66574315
0.66573927
0.66574502
0.66576725
0.66567481
0.66568945
0.66569521
0.66570687
0.6657157
0.66572564
0.66572996
0.66573404
0.66573623
0.6657431
0.66573884
0.66574486
0.66576787
0.66568702
0.66569373
0.66570574
0.66571518
0.66572526
0.66572961
0.66573384
0.66573641
0.66574343
0.66573847
0.66574454
0.66576858
0.66569232
0.6657046
0.66571482
0.66572497
0.66572915
0.66573416
0.66573672
0.66574384
0.66573822
0.66574418
0.66576921
0.66570342
0.6657144
0.66572466
0.66572866
0.66573434
0.66573731
0.66574435
0.66573812
0.66574388
0.66576973
0.66571378
0.66572425
0.66572833
0.66573422
0.66573813
0.66574473
0.66573811
0.66574384
0.66577006
0.66572372
0.66572816
0.66573441
0.66573855
0.66574438
0.66573851
0.66574387
0.66577014
0.66572807
0.66573459
0.66573859
0.66574413
0.66573923
0.66574377
0.66577019
0.66573426
0.66573847
0.66574429
0.66573964
0.66574402
0.66577042
0.66573834
0.66574464
0.66574013
0.66574463
0.66577074
0.66574486
0.66574087
0.66574491
0.66577148
0.66574161
0.6657446
0.66577259
0.66574476
0.66577422
0.6656171
0.66559734
0.66559842
0.66556203
0.66547262
0.66540879
0.66538275
0.66535398
0.66533959
0.66533381
0.66533982
0.66534677
0.66535792
0.66536102
0.66535188
0.66534927
0.66536246
0.66537801
0.66539443
0.66540156
0.66540137
0.66539991
0.66540179
0.66576255
0.66557199
0.66543315
0.66532469
0.66526129
0.66518518
0.66509881
0.66503001
0.66500933
0.66501234
0.66501461
0.66501186
0.66502801
0.66505348
0.66506847
0.66508207
0.66510757
0.66513897
0.66517646
0.66520763
0.66522954
0.66524485
0.66525947
0.66661811
0.66643664
0.66628529
0.66615099
0.66603502
0.66590349
0.66576375
0.6656426
0.66557229
0.66551785
0.66545392
0.66537951
0.66533089
0.66529822
0.6652634
0.66523097
0.66521148
0.66519833
0.66520099
0.6652105
0.66521885
0.6652204
0.66522113
0.6668406
0.66673694
0.66663272
0.66648075
0.66635948
0.66624371
0.66613181
0.66601996
0.66596634
0.66591718
0.66585449
0.66577695
0.66571953
0.66567518
0.66562935
0.66557807
0.66553259
0.66549351
0.66546804
0.66544615
0.66542704
0.66540333
0.66537742
0.66686667
0.66680473
0.66669841
0.66655147
0.66644051
0.66634229
0.66624974
0.6661583
0.66610435
0.66607396
0.66601685
0.66595363
0.66590535
0.66586838
0.6658326
0.66578832
0.66575243
0.66571568
0.66568542
0.6656573
0.66563258
0.66560402
0.66557217
0.66686929
0.66681075
0.66668702
0.66654529
0.66644611
0.6663639
0.66627944
0.66619565
0.66614264
0.6661212
0.66607232
0.66601596
0.66597557
0.66594746
0.66591742
0.66588209
0.66585482
0.66582702
0.66580082
0.66577564
0.66575501
0.66573032
0.66570379
0.6668511
0.66679119
0.66665119
0.66651734
0.66643249
0.66636286
0.66628344
0.66620231
0.66614853
0.66612919
0.6660863
0.66603629
0.6660009
0.66597551
0.66594858
0.66592052
0.66589797
0.6658761
0.66585377
0.66583347
0.6658166
0.66579637
0.66577526
0.66684058
0.66676035
0.66660582
0.66648324
0.66641452
0.66635243
0.66627495
0.66619545
0.66614247
0.66612361
0.66608365
0.66603943
0.66600799
0.66598305
0.66595746
0.66593294
0.66591275
0.66589478
0.665875
0.66585902
0.66584453
0.66582749
0.66580954
0.66673323
0.66682419
0.66671388
0.66655413
0.66644645
0.66639536
0.66633374
0.66625592
0.6661797
0.66613081
0.6661125
0.66607454
0.66603556
0.66600749
0.66598283
0.66595703
0.66593421
0.66591579
0.66589945
0.66588106
0.66586756
0.66585549
0.66583944
0.66582384
0.66672919
0.66678449
0.66665193
0.66649096
0.66640482
0.66637374
0.66631002
0.66623274
0.66616062
0.66611594
0.66609776
0.66606198
0.66602843
0.66600344
0.66597837
0.66595217
0.66593055
0.66591327
0.66589794
0.6658802
0.66586803
0.66585752
0.66584223
0.66582819
0.66663925
0.66669311
0.66658151
0.66641963
0.66636628
0.66635122
0.66628126
0.66620792
0.66614311
0.66610214
0.66608182
0.66604715
0.66601922
0.66599718
0.66597126
0.66594474
0.66592439
0.66590846
0.665894
0.66587644
0.66586469
0.66585513
0.6658404
0.66582769
0.66654353
0.66660394
0.66651522
0.66635499
0.66634029
0.66632329
0.66624576
0.66618241
0.66612892
0.66609133
0.6660658
0.66603076
0.66600836
0.66598914
0.66596235
0.66593597
0.66591703
0.66590249
0.66588906
0.66587162
0.66585996
0.66585051
0.66583638
0.66645295
0.66650587
0.6664221
0.66630183
0.66632554
0.66628749
0.66621151
0.66616103
0.66611597
0.66607926
0.66604821
0.66601407
0.66599722
0.6659794
0.66595213
0.66592704
0.66590964
0.665896
0.66588343
0.6658665
0.66585523
0.66584524
0.66583146
0.66640053
0.66641346
0.66633223
0.66627216
0.6663019
0.6662369
0.66617538
0.66614422
0.66610232
0.66606381
0.66602803
0.66599829
0.66598717
0.66596786
0.6659411
0.6659189
0.66590315
0.66588964
0.66587707
0.6658613
0.66585114
0.66584083
0.66582688
0.66630227
0.66635956
0.66633728
0.66625813
0.6662504
0.66625453
0.66618018
0.66614797
0.66613108
0.66608278
0.6660436
0.6660086
0.66598671
0.66597838
0.66595447
0.66592984
0.66591213
0.66589788
0.66588431
0.66587085
0.6658565
0.6658478
0.6658379
0.66582357
0.66622764
0.66628268
0.66623594
0.66619651
0.66622823
0.66619972
0.66613726
0.66613502
0.66609953
0.66605279
0.66602785
0.66599911
0.66597965
0.66596776
0.66594024
0.6659203
0.66590728
0.66589337
0.66588027
0.6658659
0.66585294
0.66584508
0.66583608
0.66582162
0.66618676
0.66617356
0.66615378
0.66617055
0.66617239
0.66614338
0.66612184
0.66611211
0.66605204
0.66602956
0.66602041
0.66598727
0.66596888
0.66595661
0.66592954
0.66591554
0.6659042
0.66588899
0.66587659
0.66586184
0.66585048
0.66584302
0.66583484
0.66582069
0.6661447
0.66609113
0.66611101
0.66613792
0.66609429
0.66609226
0.66611321
0.666063
0.66601712
0.6660291
0.66600533
0.66596819
0.66596217
0.6659493
0.66592083
0.66591216
0.66590018
0.66588469
0.66587367
0.66585929
0.66584913
0.66584176
0.66583387
0.66582039
0.66597664
0.66607706
0.66604549
0.66603585
0.66606048
0.66606363
0.66606122
0.66606303
0.6660157
0.66601474
0.66601542
0.66597389
0.66596588
0.66596429
0.66593329
0.66591296
0.66591053
0.665896
0.66588147
0.66587221
0.6658585
0.66584842
0.6658409
0.66583245
0.66582042
0.66590493
0.66596845
0.66601454
0.66599
0.665997
0.66602249
0.66602109
0.66600774
0.66599954
0.66601432
0.66597762
0.66595532
0.66597022
0.6659449
0.66591442
0.66591886
0.66591167
0.66589003
0.66587861
0.66587037
0.6658576
0.66584737
0.66583987
0.6658306
0.66582041
0.66587701
0.66588252
0.66596951
0.66595547
0.66595865
0.66597743
0.66597397
0.66596601
0.66598542
0.66597631
0.66594769
0.66595875
0.66594341
0.66591969
0.66591726
0.66591811
0.6658989
0.66588378
0.66587824
0.66586876
0.66585552
0.66584497
0.66583833
0.6658286
0.66582002
0.66582458
0.66587061
0.66584514
0.66589989
0.66592266
0.6659118
0.6659435
0.66594645
0.66593825
0.66594491
0.66593106
0.66593869
0.66593556
0.66591447
0.66591232
0.66591246
0.66589961
0.66589026
0.66588566
0.66587526
0.66586405
0.66585123
0.66584173
0.66583558
0.66582513
0.66581855
0.66575757
0.66585137
0.6658204
0.66583841
0.66589455
0.66588737
0.66590411
0.66590753
0.66590702
0.66590991
0.66591521
0.66591244
0.66590432
0.66590084
0.6659004
0.66589399
0.66589227
0.66588997
0.66587555
0.66586639
0.66585829
0.66584643
0.66583706
0.66583119
0.66582152
0.66581561
0.6657358
0.66581924
0.66579832
0.66579712
0.66584966
0.66586044
0.66586501
0.66587501
0.66587869
0.66588721
0.66589337
0.66588313
0.6658832
0.6658897
0.66588655
0.66588095
0.66588731
0.6658734
0.6658602
0.6658599
0.66585286
0.66584032
0.66583096
0.66582646
0.6658185
0.66581157
0.66569824
0.6657245
0.66577733
0.66578046
0.66577103
0.66579843
0.6658257
0.6658263
0.66585491
0.66585514
0.66586043
0.6658768
0.66587064
0.66586594
0.66587367
0.66587914
0.66587146
0.66586633
0.66585665
0.66585277
0.66585064
0.66584427
0.66583149
0.66582531
0.6658233
0.66581406
0.66580624
0.66568858
0.66569663
0.66574158
0.66576081
0.66576253
0.66579192
0.66580148
0.66579552
0.66582905
0.66584349
0.66582641
0.66585234
0.66586323
0.6658567
0.66585895
0.66586126
0.66585699
0.66584948
0.66584433
0.66584395
0.66584158
0.66583309
0.66582293
0.6658225
0.66581744
0.66580768
0.66565121
0.66567528
0.6656792
0.66571334
0.66574444
0.66573976
0.66577615
0.66579712
0.66578572
0.66580288
0.66582252
0.66581614
0.66582492
0.66584371
0.66584543
0.66584305
0.66584038
0.66584387
0.66583988
0.66583374
0.66583447
0.66583046
0.66582005
0.66581737
0.66581703
0.66580927
0.66580446
0.66564369
0.66566751
0.66567747
0.66569856
0.66572715
0.66572921
0.66574654
0.66577595
0.66577086
0.66578045
0.66580544
0.66580624
0.66580903
0.66582236
0.66582407
0.66583098
0.66582344
0.66582583
0.66582724
0.66582539
0.6658232
0.66581723
0.66581205
0.66581315
0.66580789
0.6658026
0.66580346
0.66564203
0.66565874
0.66566978
0.66568275
0.66570536
0.66571392
0.66572733
0.66575661
0.66576202
0.66576602
0.66578691
0.66579349
0.66580149
0.66580419
0.66579956
0.66580803
0.66581507
0.66581264
0.66581278
0.6658133
0.66580945
0.66580716
0.66580833
0.66580565
0.66580098
0.66579895
0.66579696
0.665637
0.66565141
0.66566492
0.66567753
0.66569558
0.66570848
0.66572165
0.66574231
0.66575114
0.66575879
0.66577323
0.66577673
0.66578482
0.6657929
0.66578823
0.66578838
0.6657982
0.66580055
0.66580093
0.6658026
0.66580281
0.66580165
0.6658001
0.66579692
0.66579589
0.66579443
0.66579211
0.66564434
0.66565711
0.66567112
0.66568379
0.66569672
0.66570903
0.66571685
0.66573147
0.66574148
0.66574583
0.66575793
0.66576483
0.66577099
0.66578429
0.66578207
0.66578039
0.66578674
0.66578964
0.66578881
0.66579096
0.66579328
0.66579445
0.66579335
0.66579253
0.66579112
0.6657909
0.6657897
0.66565363
0.665663
0.66567319
0.66568401
0.66569465
0.66570505
0.66571296
0.66572326
0.66573356
0.66573953
0.66574928
0.66575743
0.66576184
0.66576825
0.66577628
0.66578201
0.66577999
0.66577802
0.6657781
0.6657805
0.665782
0.66578508
0.66578778
0.6657879
0.66578718
0.66578868
0.66566487
0.66567231
0.66568011
0.66568872
0.66569722
0.66570658
0.66571415
0.66572224
0.66573122
0.66573731
0.66574485
0.6657516
0.66575781
0.6657637
0.66576563
0.66577102
0.66577149
0.66576685
0.6657675
0.66577209
0.66577613
0.6657789
0.66578099
0.6657836
0.66578557
0.66578599
0.66567569
0.66568213
0.66568835
0.66569524
0.66570195
0.66571007
0.66571695
0.66572333
0.66573044
0.66573506
0.66574074
0.66574729
0.66575138
0.66575879
0.66575837
0.66575927
0.66576495
0.66576554
0.66576162
0.66576539
0.66577088
0.66577459
0.6657773
0.66577912
0.66577999
0.66578116
0.6656874
0.66569268
0.66569781
0.66570359
0.66570883
0.66571499
0.66572006
0.66572494
0.66573034
0.66573323
0.66573654
0.66573973
0.66574268
0.66574962
0.66575246
0.66575483
0.66575932
0.66576028
0.66576153
0.66576579
0.66577097
0.66577255
0.66577467
0.66577625
0.66577377
0.66569239
0.66569669
0.66570085
0.66570528
0.66570951
0.66571415
0.66571916
0.66572247
0.66572686
0.66573104
0.66573451
0.66573875
0.66574105
0.66574517
0.66575133
0.66575403
0.66575874
0.66576371
0.66576473
0.66576518
0.66576798
0.66576838
0.66576814
0.66576827
0.66576841
0.66570236
0.66570579
0.66570919
0.66571292
0.66571626
0.66571955
0.66572349
0.66572713
0.66573089
0.66573263
0.66573655
0.66574156
0.66574427
0.66574746
0.66575091
0.6657534
0.66575666
0.66575842
0.66575733
0.66575768
0.66575967
0.66576203
0.66576152
0.66576335
0.66576544
0.6657101
0.66571272
0.6657151
0.66571794
0.66572088
0.66572353
0.66572578
0.66572867
0.66573234
0.66573397
0.66573488
0.66573773
0.66574014
0.66574179
0.665743
0.66574527
0.6657491
0.66575083
0.66575209
0.66575324
0.66575468
0.6657567
0.66575806
0.66575834
0.66571195
0.66571385
0.66571566
0.66571771
0.66571983
0.66572214
0.66572415
0.66572547
0.66572796
0.66573046
0.66573153
0.66573286
0.66573528
0.66573844
0.66574064
0.66574215
0.66574429
0.66574647
0.66574908
0.66575129
0.66575202
0.66575133
0.66575467
0.6657561
0.6657177
0.66571918
0.66572056
0.665722
0.66572335
0.66572465
0.66572623
0.66572742
0.66572922
0.66573111
0.66573276
0.66573459
0.66573564
0.66573765
0.66573985
0.66574163
0.66574415
0.66574663
0.66574835
0.66575183
0.66575192
0.66575262
0.66575649
0.66572414
0.66572495
0.66572578
0.66572696
0.66572845
0.66572965
0.66573091
0.66573226
0.66573363
0.66573518
0.66573624
0.66573764
0.66573886
0.66574003
0.66574143
0.66574287
0.66574453
0.66574591
0.66574704
0.66574871
0.66575064
0.66575239
0.66573428
0.66573563
0.66573678
0.66573754
0.66573792
0.66573866
0.66573943
0.665739
0.66573973
0.66574092
0.6657418
0.66574206
0.66574282
0.6657442
0.66574502
0.66574493
0.66574607
0.66574718
0.66574757
0.6657487
0.66574915
0.66574948
0.665733
0.66573322
0.66573408
0.66573532
0.66573592
0.66573566
0.66573763
0.66573945
0.66573801
0.66573809
0.66573998
0.66574094
0.66574091
0.66574157
0.66574303
0.66574338
0.66574324
0.66574328
0.66574337
0.66574348
0.66574275
0.66574038
0.66574036
0.66573995
0.66574085
0.66574222
0.66574224
0.66574252
0.66574452
0.66574547
0.66574536
0.66574549
0.66574636
0.66574685
0.66574692
0.66574655
0.66574616
0.66574571
0.6657448
0.66574376
0.66574359
0.66573892
0.66573976
0.66573984
0.66574073
0.66574219
0.66574328
0.66574335
0.66574403
0.66574485
0.66574509
0.66574531
0.66574514
0.66574458
0.66574416
0.66574372
0.66574323
0.66574277
0.66574183
0.66574136
0.66574901
0.66574978
0.66574997
0.66574992
0.66574981
0.6657494
0.66574899
0.66574902
0.66574874
0.66574834
0.66574812
0.66574795
0.66574763
0.6657473
0.66574697
0.66574679
0.66574652
0.66573993
0.66573989
0.66573978
0.66573975
0.66573968
0.6657392
0.66573865
0.66573859
0.66573854
0.66573843
0.66573851
0.66573872
0.66573882
0.66573906
0.66573929
0.66573941
0.66574455
0.66574452
0.66574478
0.66574473
0.6657447
0.66574508
0.66574476
0.66574412
0.6657444
0.66574484
0.66574444
0.66574427
0.66574471
0.66574449
0.66576451
0.66576452
0.66576459
0.66576464
0.66576482
0.66576519
0.66576544
0.66576545
0.66576549
0.66576542
0.66576518
0.66576473
)
;

boundaryField
{
    Side
    {
        type            empty;
    }
    Inlet
    {
        type            calculated;
        value           nonuniform List<scalar> 
32
(
0.6657484
0.66574842
0.66574837
0.66574815
0.66574768
0.66574704
0.66574632
0.66574562
0.665745
0.66574454
0.6657442
0.66574395
0.66574375
0.66574362
0.66574356
0.66574355
0.66574357
0.66574344
0.66574319
0.66574299
0.66574832
0.66574823
0.66574814
0.66574806
0.66574805
0.66574805
0.66574807
0.66574816
0.66574823
0.6657482
0.66574812
0.66574802
)
;
    }
    Airfoil
    {
        type            calculated;
        value           nonuniform List<scalar> 0();
    }
    Outlet
    {
        type            calculated;
        value           nonuniform List<scalar> 0();
    }
    procBoundary9to2
    {
        type            processor;
        value           nonuniform List<scalar> 
23
(
0.66539864
0.66539327
0.66539264
0.66539068
0.66538158
0.66536522
0.66535236
0.66534283
0.66534335
0.66534482
0.66533909
0.66533781
0.66534573
0.66535114
0.66534966
0.66535023
0.66537645
0.66542339
0.66548657
0.66549869
0.66553259
0.66558147
0.66564522
)
;
    }
    procBoundary9to8
    {
        type            processor;
        value           nonuniform List<scalar> 
75
(
0.66561381
0.66561381
0.66560145
0.66560943
0.66560943
0.66558779
0.66558779
0.66558654
0.66558654
0.66559463
0.66561795
0.66561795
0.66563102
0.66563102
0.66564953
0.66564953
0.66566228
0.66566228
0.66565901
0.66567166
0.66567166
0.66568448
0.66568448
0.66569099
0.66569099
0.66570245
0.66570245
0.66571325
0.66571325
0.66572309
0.66572309
0.66572816
0.66572816
0.66573462
0.66573462
0.66573789
0.66573789
0.66574537
0.66574537
0.66574142
0.66574142
0.66574531
0.665776
0.66563703
0.66595406
0.66679812
0.6669439
0.66693264
0.66689962
0.66683237
0.66675739
0.66675739
0.66684686
0.66668948
0.66665256
0.66662299
0.66657593
0.66645519
0.66645519
0.66639758
0.66630117
0.66618964
0.66606269
0.66606269
0.6659715
0.66592933
0.66590218
0.66590218
0.66570419
0.66567927
0.66568469
0.66568469
0.66567183
0.66566786
0.66566786
)
;
    }
    procBoundary9to10
    {
        type            processor;
        value           nonuniform List<scalar> 
66
(
0.6654103
0.66527893
0.66523026
0.66536396
0.66554716
0.66568053
0.66575749
0.66579664
0.66581406
0.66582008
0.66582025
0.66582453
0.66582453
0.66582047
0.66581656
0.66581373
0.66581225
0.66581211
0.66581242
0.66581261
0.66581314
0.66581333
0.66581213
0.66580919
0.66580512
0.66580351
0.66580443
0.66580443
0.66580399
0.66579799
0.66579457
0.66579188
0.66578955
0.66578761
0.66578761
0.66578507
0.66578131
0.66577414
0.66577414
0.66576993
0.6657633
0.66576141
0.66576141
0.66575856
0.66575823
0.66575823
0.66575467
0.66575467
0.66575017
0.66574233
0.66574233
0.66574346
0.66574346
0.66574103
0.66574604
0.66574103
0.66574521
0.66574604
0.66573942
0.66574393
0.66573942
0.66574373
0.66576408
0.66574393
0.66576313
0.66576408
)
;
    }
}


// ************************************************************************* //
