/*--------------------------------*- C++ -*----------------------------------*\
| =========                 |                                                 |
| \\      /  F ield         | OpenFOAM: The Open Source CFD Toolbox           |
|  \\    /   O peration     | Version:  2506                                  |
|   \\  /    A nd           | Website:  www.openfoam.com                      |
|    \\/     M anipulation  |                                                 |
\*---------------------------------------------------------------------------*/
FoamFile
{
    version     2.0;
    format      ascii;
    arch        "LSB;label=32;scalar=64";
    class       volScalarField;
    location    "3";
    object      alphat;
}
// * * * * * * * * * * * * * * * * * * * * * * * * * * * * * * * * * * * * * //

dimensions      [1 -1 -1 0 0 0 0];

internalField   nonuniform List<scalar> 
1375
(
0.048688708
0.048629625
0.063367691
0.080466769
0.094933212
0.10553011
0.048925701
0.063808136
0.081001811
0.09545574
0.10595343
0.1126744
0.11645237
0.11828993
0.11907184
0.1192039
0.049198319
0.064197488
0.081467496
0.095905485
0.10631327
0.11290857
0.11656335
0.11830639
0.11902969
0.11913113
0.11908892
0.11903796
0.11892587
0.11885285
0.11883362
0.049460121
0.064559343
0.081885742
0.096296215
0.10661435
0.113094
0.11663991
0.11830296
0.11897554
0.11905404
0.11900621
0.11895671
0.11883746
0.1187767
0.11876014
0.11875234
0.11875386
0.11876201
0.11877463
0.11879032
0.049731625
0.064937431
0.082305452
0.096670485
0.10688741
0.1132493
0.11669169
0.11828358
0.1189118
0.11897319
0.11892245
0.11887381
0.11875025
0.11870091
0.11868665
0.11868071
0.11868364
0.11869267
0.11870578
0.11872178
0.11873988
0.11875955
0.11878065
0.11880318
0.11882714
0.050027804
0.065367231
0.082773643
0.097075061
0.10717083
0.11340147
0.11673534
0.11825766
0.11884373
0.11889116
0.11883985
0.11878987
0.11866565
0.11862602
0.1186135
0.11860904
0.11861301
0.11862279
0.11863644
0.1186528
0.11867122
0.1186912
0.1187124
0.11873497
0.118759
0.11878444
0.11881153
0.11884045
0.11887107
0.050346823
0.06584948
0.08330395
0.097532194
0.10748801
0.11356958
0.11678403
0.1182337
0.11877509
0.11880978
0.11875895
0.11870576
0.11858419
0.11855274
0.1185418
0.11853865
0.1185432
0.11855297
0.11856639
0.11858253
0.1186009
0.11862117
0.11864297
0.11866602
0.11869037
0.11871605
0.11874327
0.11877189
0.1188023
0.11883473
0.11886932
0.11890631
0.11894588
0.050689447
0.066384989
0.083901603
0.098052345
0.10785199
0.11376564
0.11684702
0.11821822
0.11870854
0.11873021
0.11867955
0.11862131
0.11850459
0.11847967
0.1184701
0.11846839
0.11847398
0.11848432
0.11849799
0.1185141
0.11853195
0.11855128
0.11857223
0.11859482
0.11861904
0.118645
0.11867255
0.11870177
0.11873272
0.11876525
0.11879989
0.11883667
0.11887591
0.11891796
0.11896307
0.11901157
0.051062433
0.06698087
0.08457138
0.098640397
0.10826846
0.11399551
0.11692961
0.118215
0.11864632
0.11865385
0.11860217
0.11853703
0.11842652
0.11840669
0.11839814
0.11839755
0.11840401
0.11841494
0.11842904
0.11844556
0.11846377
0.11848337
0.11850436
0.1185268
0.11855049
0.11857543
0.11860174
0.11862991
0.11866022
0.1186928
0.11872779
0.11876517
0.11880487
0.11884709
0.11889202
0.11893998
0.11899157
0.11904746
0.11910847
0.051461519
0.067623438
0.085294644
0.099279133
0.10872468
0.11425166
0.11702826
0.11822208
0.1185886
0.11858134
0.11852779
0.11845434
0.11835121
0.11833516
0.1183269
0.11832653
0.11833304
0.11834422
0.11835886
0.1183761
0.11839518
0.11841558
0.11843677
0.11845897
0.11848249
0.11850724
0.11853349
0.11856153
0.11859137
0.11862331
0.11865722
0.11869333
0.11873199
0.11877358
0.11881837
0.11886649
0.11891819
0.11897402
0.11903477
0.11910251
0.11918051
0.11927413
0.051877244
0.068291683
0.086040445
0.099935781
0.10919305
0.1145148
0.11713095
0.11823143
0.11853171
0.11850975
0.11845387
0.11837153
0.11827726
0.11826483
0.11825764
0.11825824
0.1182651
0.1182759
0.11828959
0.11830577
0.11832428
0.11834479
0.11836659
0.11838933
0.1184134
0.11843867
0.11846521
0.11849309
0.11852264
0.11855419
0.11858783
0.11862366
0.11866182
0.11870274
0.11874666
0.11879353
0.11884358
0.1188976
0.11895765
0.11902578
0.11910471
0.11919913
0.11931406
0.11944802
0.052303548
0.068974694
0.086789306
0.10058601
0.1096507
0.11476772
0.11722656
0.11823607
0.11847329
0.11843776
0.11837944
0.11828826
0.11820349
0.11819374
0.11818748
0.1181891
0.11819681
0.11820843
0.1182229
0.11823952
0.11825769
0.11827706
0.11829764
0.11831942
0.11834255
0.11836711
0.11839352
0.11842166
0.11845152
0.11848326
0.11851709
0.11855296
0.11859101
0.1186314
0.1186745
0.11872068
0.11877045
0.11882416
0.1188832
0.11894962
0.11902752
0.1191223
0.11923749
0.11936997
0.11949112
0.11947315
0.11862695
0.05273228
0.069660936
0.087526549
0.10121322
0.11008237
0.1149991
0.11730781
0.11823195
0.11841256
0.11836522
0.11830476
0.1182054
0.11813037
0.11812231
0.11811683
0.11811935
0.11812777
0.11813997
0.11815477
0.11817157
0.11818993
0.11820943
0.1182301
0.11825202
0.11827509
0.11829935
0.1183249
0.11835193
0.11838054
0.11841113
0.11844379
0.1184789
0.11851665
0.11855692
0.11860009
0.11864652
0.1186966
0.11875037
0.1188088
0.11887463
0.11895266
0.11904723
0.1191621
0.11929252
0.1194051
0.11935885
0.11839293
0.11208264
0.10058216
0.053145907
0.070323519
0.088226574
0.10179569
0.11047166
0.11519803
0.11736792
0.11821526
0.11834818
0.11829175
0.11823049
0.11812487
0.11806019
0.11805333
0.11804838
0.11805112
0.11805912
0.11807064
0.11808484
0.11810136
0.11811998
0.11814017
0.11816159
0.11818408
0.11820751
0.11823172
0.11825681
0.11828325
0.11831146
0.11834154
0.11837357
0.11840802
0.1184447
0.11848393
0.11852595
0.11857111
0.11861987
0.11867324
0.11873179
0.11879854
0.11887738
0.11897257
0.11908762
0.11921573
0.11931923
0.11924313
0.11813713
0.11129265
0.099174152
0.053522178
0.070925131
0.088857112
0.10230996
0.11080376
0.11535622
0.11740263
0.11818349
0.11827829
0.11821531
0.11815418
0.11804422
0.11799002
0.11798444
0.11798076
0.11798482
0.11799382
0.11800586
0.11801995
0.11803545
0.11805217
0.11807028
0.11809008
0.11811159
0.11813487
0.11815982
0.11818613
0.11821342
0.11824226
0.11827243
0.11830417
0.11833794
0.11837376
0.1184125
0.118454
0.11849851
0.11854646
0.11859871
0.11865649
0.11872268
0.11880078
0.11889634
0.1190114
0.11913715
0.1192315
0.11912199
0.11785219
0.11042805
0.0991412
0.053846044
0.07143674
0.089397021
0.10274484
0.1110748
0.1154737
0.11741358
0.11813867
0.11820438
0.118137
0.11807666
0.11796389
0.11791931
0.11791448
0.11791165
0.11791643
0.11792587
0.11793813
0.11795249
0.1179685
0.11798583
0.11800437
0.11802418
0.11804502
0.11806675
0.11808982
0.11811443
0.11814046
0.11816869
0.1181986
0.11823074
0.11826493
0.11830124
0.11834035
0.11838192
0.11842622
0.1184736
0.11852467
0.11858204
0.11864819
0.11872658
0.11882255
0.11893697
0.11905868
0.11914053
0.1189889
0.11753394
0.10957804
0.10072319
0.054108955
0.071839757
0.089836107
0.10309945
0.11128924
0.11555627
0.11740585
0.11808492
0.11812905
0.11805892
0.11799996
0.11788567
0.11784959
0.11784501
0.11784269
0.11784769
0.11785712
0.11786928
0.11788352
0.11789952
0.11791698
0.11793571
0.11795567
0.11797665
0.11799843
0.11802141
0.11804581
0.11807167
0.11809932
0.11812853
0.11815985
0.11819304
0.1182283
0.11826615
0.11830654
0.11834994
0.11839671
0.11844784
0.11850567
0.1185726
0.11865226
0.11874931
0.11886289
0.11898037
0.1190479
0.11885148
0.11719312
0.10880448
0.10019267
0.054307394
0.072126276
0.090171157
0.10337599
0.11145215
0.11560888
0.11738384
0.11802442
0.11805318
0.11798162
0.11792486
0.11781032
0.11778209
0.11777774
0.11777602
0.11778118
0.11779031
0.11780195
0.11781542
0.11783052
0.11784711
0.11786514
0.11788471
0.11790572
0.11792785
0.1179512
0.11797578
0.11800177
0.11802924
0.11805824
0.11808925
0.11812208
0.11815699
0.11819408
0.11823363
0.11827625
0.11832212
0.11837248
0.11842943
0.11849529
0.11857423
0.1186706
0.11878431
0.1188986
0.11895281
0.11870474
0.11682555
0.10798089
0.099085297
0.054444813
0.072303303
0.090409178
0.10358142
0.11156956
0.11563599
0.11734977
0.1179579
0.11797571
0.1179038
0.11784898
0.11773509
0.11771393
0.11770982
0.11770892
0.11771461
0.11772399
0.11773577
0.11774926
0.11776418
0.1177804
0.11779775
0.11781628
0.11783607
0.11785705
0.11787934
0.117903
0.11792856
0.11795592
0.11798515
0.11801627
0.11804906
0.11808399
0.11812083
0.11815989
0.11820185
0.11824735
0.11829756
0.11835444
0.11842065
0.11850025
0.1185967
0.11870813
0.11881491
0.11885109
0.11853893
0.11640294
0.1070229
0.0990933
0.05453432
0.072398289
0.090574272
0.10373438
0.11165457
0.11564593
0.11730793
0.11788809
0.11789764
0.11782611
0.11777276
0.11766002
0.11764498
0.11764083
0.11764046
0.11764639
0.11765582
0.11766764
0.11768122
0.11769625
0.11771262
0.11773008
0.11774853
0.11776813
0.11778887
0.11781082
0.11783397
0.11785865
0.11788494
0.11791314
0.11794314
0.11797485
0.11800875
0.11804467
0.118083
0.118124
0.11816887
0.11821912
0.11827686
0.11834505
0.11842693
0.11852453
0.11863372
0.11873446
0.11874913
0.1183642
0.11591676
0.10598181
0.099873559
0.054600219
0.072461012
0.090707702
0.10386303
0.11172425
0.11564815
0.11726312
0.11781783
0.11782064
0.11775026
0.11769753
0.11758726
0.1175776
0.11757341
0.11757341
0.11757924
0.11758825
0.11759951
0.11761254
0.11762709
0.11764311
0.11766041
0.11767882
0.11769851
0.11771937
0.11774134
0.1177644
0.11778865
0.11781439
0.11784203
0.11787135
0.11790247
0.11793568
0.11797096
0.1180089
0.11804969
0.11809411
0.11814361
0.11820011
0.11826673
0.11834777
0.11844538
0.11855503
0.11865038
0.1186435
0.11817282
0.11537201
0.10485533
0.1001115
0.054669964
0.072544522
0.09085189
0.10399381
0.1117922
0.11564816
0.11721684
0.11774689
0.11774364
0.11767499
0.11762205
0.11751581
0.11751089
0.11750696
0.1175077
0.11751385
0.11752295
0.11753414
0.11754692
0.11756097
0.11757615
0.11759236
0.11760957
0.11762811
0.11764803
0.11766934
0.11769217
0.11771643
0.11774232
0.11777002
0.11779921
0.11783
0.11786266
0.11789736
0.11793475
0.11797523
0.1180194
0.11806886
0.11812583
0.1181936
0.11827571
0.11837286
0.11847849
0.11856254
0.11852543
0.11794807
0.11474881
0.10362747
0.10013955
0.054767471
0.072689049
0.09103834
0.10414614
0.11186819
0.1156498
0.11717024
0.11767494
0.11766578
0.11759895
0.11754484
0.11744384
0.1174426
0.11743872
0.11743995
0.11744623
0.11745535
0.11746652
0.11747929
0.11749338
0.11750868
0.11752506
0.11754236
0.11756062
0.11757992
0.11760023
0.11762188
0.11764511
0.11767012
0.1176969
0.11772535
0.1177555
0.1177875
0.11782141
0.11785765
0.11789698
0.11794067
0.1179904
0.11804874
0.11811852
0.11820213
0.11830004
0.11840266
0.11847635
0.11840391
0.11770768
0.11404924
0.10242625
0.10029943
0.054917845
0.072928535
0.091293663
0.10433695
0.11196145
0.11565752
0.11712584
0.1176034
0.11758808
0.11752289
0.11746695
0.11737214
0.11737353
0.11736957
0.11737101
0.11737717
0.117386
0.11739685
0.11740929
0.11742303
0.11743798
0.11745417
0.11747149
0.11748978
0.1175091
0.11752932
0.11755064
0.11757347
0.11759803
0.11762428
0.11765223
0.11768203
0.1177137
0.11774732
0.11778318
0.11782159
0.117864
0.11791233
0.11796929
0.11803841
0.11812186
0.11821951
0.11831921
0.11838187
0.11827178
0.11742803
0.11326389
0.10133394
0.10091582
0.05513875
0.073276806
0.091630376
0.10457501
0.11207678
0.11567358
0.1170851
0.11753325
0.11751168
0.11744805
0.11739008
0.11730226
0.11730554
0.11730154
0.11730325
0.11730929
0.11731778
0.11732815
0.11734002
0.11735313
0.11736736
0.1173828
0.11739955
0.11741749
0.11743664
0.11745685
0.11747807
0.11750055
0.11752459
0.11755023
0.11757763
0.11760702
0.11763829
0.11767169
0.11770762
0.11774613
0.11778862
0.11783753
0.11789522
0.11796476
0.11804854
0.118144
0.11823671
0.11828202
0.11812136
0.11709052
0.11233859
0.10020411
0.10189807
0.055432552
0.073722715
0.092043644
0.10485924
0.11221384
0.11569766
0.11704791
0.11746378
0.11743601
0.1173738
0.11731376
0.11723354
0.11723796
0.11723407
0.11723622
0.11724241
0.1172509
0.11726108
0.11727263
0.11728533
0.11729905
0.11731383
0.11732982
0.11734704
0.1173656
0.11738551
0.1174066
0.11742878
0.11745222
0.1174772
0.11750373
0.11753203
0.11756207
0.11759408
0.11762898
0.11766719
0.11770988
0.11775984
0.11781931
0.11789079
0.11797631
0.11807095
0.1181573
0.11818524
0.11796114
0.11671043
0.11128488
0.098940526
0.10277727
0.055784708
0.074239433
0.092516606
0.1051809
0.11236846
0.11572789
0.11701345
0.11739418
0.11736017
0.11729898
0.11723702
0.1171645
0.11716933
0.11716551
0.11716802
0.11717437
0.11718288
0.1171929
0.11720417
0.11721656
0.11722997
0.11724437
0.11725987
0.11727658
0.11729459
0.11731406
0.11733495
0.11735696
0.11738005
0.11740474
0.11743092
0.11745857
0.117488
0.11751928
0.11755286
0.11759
0.11763209
0.11768147
0.11774085
0.11781302
0.11789886
0.11799172
0.11807125
0.11807798
0.11778114
0.11626162
0.11010279
0.097703902
0.10355283
0.056170833
0.074793498
0.093026109
0.10552733
0.11253503
0.11576273
0.11698168
0.11732466
0.11728474
0.1172243
0.11716063
0.11709581
0.11710063
0.11709685
0.11709958
0.11710596
0.11711436
0.11712414
0.11713503
0.11714698
0.11715995
0.11717387
0.11718878
0.11720481
0.11722206
0.11724078
0.11726111
0.11728284
0.11730566
0.11733009
0.11735608
0.11738328
0.11741218
0.1174433
0.11747659
0.11751354
0.11755628
0.11760672
0.11766723
0.11774037
0.11782541
0.11791372
0.11798258
0.11796141
0.11756704
0.11570508
0.10871465
0.096640972
0.10480088
0.056566974
0.075363194
0.093555833
0.10588876
0.11270885
0.11580052
0.11695209
0.11725579
0.11721049
0.11715056
0.11708568
0.11702856
0.11703314
0.11702951
0.11703238
0.11703856
0.11704668
0.11705616
0.11706672
0.11707827
0.11709081
0.1171043
0.11711872
0.11713413
0.11715061
0.11716836
0.11718767
0.11720848
0.1172305
0.11725399
0.11727911
0.11730559
0.1173337
0.11736427
0.11739738
0.11743438
0.11747756
0.1175291
0.11759161
0.11766647
0.11775158
0.11783655
0.11789401
0.11784199
0.11732012
0.11505053
0.10721508
0.095760341
0.10612465
0.056958649
0.075923133
0.094081908
0.10624835
0.11288074
0.11583738
0.11692289
0.11718743
0.11713752
0.11707822
0.11701256
0.11696273
0.11696692
0.11696346
0.11696629
0.11697213
0.11697988
0.11698903
0.11699929
0.11701053
0.11702275
0.11703592
0.11705002
0.11706503
0.117081
0.11709807
0.11711649
0.11713642
0.11715774
0.11718046
0.11720465
0.1172302
0.11725713
0.11728633
0.11731858
0.11735525
0.11739848
0.11745031
0.11751372
0.11758975
0.11767448
0.11775535
0.11780091
0.11771309
0.11704328
0.11426992
0.1055587
0.09498167
0.10753391
0.057318507
0.076476684
0.094612847
0.10661262
0.11305393
0.11587375
0.11689284
0.11711808
0.11706372
0.11700461
0.11693871
0.11689563
0.11689912
0.11689558
0.11689817
0.11690359
0.11691086
0.11691941
0.11692897
0.11693956
0.11695121
0.1169639
0.11697755
0.11699201
0.11700727
0.1170235
0.11704099
0.11705997
0.11708084
0.11710332
0.11712694
0.11715183
0.11717826
0.11720694
0.11723886
0.11727563
0.11731924
0.11737161
0.11743496
0.11751046
0.11759283
0.11766548
0.11769171
0.11754214
0.11663503
0.11332028
0.10368036
0.094458543
0.10929695
0.057637425
0.076927805
0.0950462
0.10690931
0.11319195
0.11589894
0.11686313
0.11705571
0.11699773
0.11693895
0.11687276
0.11683493
0.11683774
0.11683409
0.11683649
0.11684148
0.11684816
0.11685603
0.11686483
0.11687455
0.11688536
0.11689729
0.11691029
0.1169242
0.11693879
0.11695409
0.11697051
0.11698861
0.11700873
0.11703051
0.11705341
0.11707771
0.11710395
0.11713252
0.1171645
0.11720161
0.11724638
0.1173011
0.11736642
0.11744312
0.11752542
0.11759192
0.117598
0.11741762
0.11638294
0.11212489
0.10182752
0.094078365
0.11094311
0.058028897
0.077653529
0.095776795
0.10741468
0.11342972
0.11594562
0.11681768
0.11695614
0.11689148
0.11683132
0.11676647
0.11673606
0.11673809
0.11673478
0.11673724
0.11674151
0.11674727
0.11675438
0.11676233
0.11677114
0.11678088
0.11679182
0.11680379
0.11681652
0.11683006
0.11684473
0.11686051
0.11687743
0.11689594
0.11691595
0.11693731
0.11696052
0.11698575
0.1170134
0.11704599
0.11708412
0.11712995
0.11718786
0.11725686
0.11733403
0.11741078
0.11746424
0.11741892
0.11707651
0.11523478
0.10985156
0.098549021
0.095081072
0.1147585
)
;

boundaryField
{
    Side
    {
        type            empty;
    }
    Inlet
    {
        type            calculated;
        value           nonuniform List<scalar> 
21
(
0.13270846
0.13271984
0.13273079
0.13274284
0.13275584
0.13276826
0.13278567
0.13280552
0.13282603
0.13285449
0.13288143
0.13290819
0.13294575
0.13298468
0.13303993
0.13310578
0.13317557
0.13327262
0.13340005
0.13357485
0.13352067
)
;
    }
    Airfoil
    {
        type            compressible::alphatWallFunction;
        value           nonuniform List<scalar> 0();
    }
    Outlet
    {
        type            calculated;
        value           nonuniform List<scalar> 
49
(
0.058026863
0.077650555
0.095773154
0.1074104
0.11342515
0.11594073
0.11681253
0.11695078
0.11688611
0.11682612
0.11676141
0.11673112
0.11673329
0.11673006
0.11673238
0.11673667
0.11674236
0.11674919
0.11675702
0.11676578
0.11677542
0.11678601
0.11679756
0.11681006
0.11682351
0.11683801
0.11685363
0.11687036
0.11688848
0.11690811
0.11692909
0.11695161
0.11697599
0.11700273
0.1170334
0.11707013
0.11711492
0.11717048
0.11723647
0.11731025
0.11738334
0.11743247
0.11738289
0.11702973
0.11519986
0.10976898
0.098535073
0.094947905
0.11476406
)
;
    }
    procBoundary6to5
    {
        type            processor;
        value           nonuniform List<scalar> 
61
(
0.048304038
0.062869431
0.079863845
0.094348204
0.10505871
0.11239286
0.11239286
0.11631058
0.11825631
0.1191043
0.11927369
0.11916926
0.11916926
0.1191179
0.1190145
0.11892948
0.11890742
0.11882397
0.11882397
0.11882419
0.11883171
0.1188441
0.11885981
0.11880824
0.11880824
0.11882808
0.11884967
0.11887276
0.11889743
0.11885279
0.11885279
0.11888028
0.11890982
0.11894132
0.11890371
0.11890371
0.11893859
0.11897624
0.1190168
0.11898827
0.11898827
0.11903394
0.1190833
0.11906389
0.11906389
0.11912061
0.11918238
0.11917655
0.11917655
0.11925531
0.1193493
0.1193892
0.1193892
0.11952475
0.11957542
0.11957542
0.11958024
0.11884331
0.11276003
0.11276003
0.10163533
)
;
    }
    procBoundary6to12
    {
        type            processor;
        value           uniform 0.048355502;
    }
    procBoundary6to13
    {
        type            processor;
        value           nonuniform List<scalar> 
34
(
0.063575841
0.049023954
0.049023954
0.049355991
0.049682891
0.04999813
0.050300867
0.050601466
0.050901048
0.051190948
0.051464354
0.051712783
0.051928704
0.052110446
0.052270467
0.052442409
0.052670272
0.052988022
0.053395377
0.053861633
0.054349923
0.054822064
0.0552465
0.05560184
0.055877002
0.056080048
0.05623707
0.056383847
0.056561926
0.056789178
0.057072859
0.05738286
0.057703534
0.058147524
)
;
    }
}


// ************************************************************************* //
