/*--------------------------------*- C++ -*----------------------------------*\
| =========                 |                                                 |
| \\      /  F ield         | OpenFOAM: The Open Source CFD Toolbox           |
|  \\    /   O peration     | Version:  2506                                  |
|   \\  /    A nd           | Website:  www.openfoam.com                      |
|    \\/     M anipulation  |                                                 |
\*---------------------------------------------------------------------------*/
FoamFile
{
    version     2.0;
    format      ascii;
    arch        "LSB;label=32;scalar=64";
    class       volScalarField;
    location    "3";
    object      nut;
}
// * * * * * * * * * * * * * * * * * * * * * * * * * * * * * * * * * * * * * //

dimensions      [0 2 -1 0 0 0 0];

internalField   nonuniform List<scalar> 
1375
(
0.073155592
0.073066765
0.095214874
0.12090581
0.14263426
0.15854789
0.073512427
0.095877703
0.12171097
0.14342079
0.15918553
0.16927783
0.1749506
0.17770943
0.17888295
0.17908047
0.073923033
0.096464015
0.12241222
0.14409823
0.15972805
0.16963169
0.17511948
0.17773635
0.17882173
0.17897313
0.1789089
0.17883169
0.17866281
0.17855279
0.17852372
0.074317449
0.09700913
0.12304237
0.14468731
0.1601827
0.16991276
0.1752371
0.17773389
0.17874312
0.17886005
0.17878732
0.17871216
0.17853233
0.17844054
0.17841525
0.1784032
0.17840519
0.17841711
0.17843565
0.17845876
0.074726432
0.097578538
0.12367453
0.14525146
0.16059509
0.17014856
0.17531762
0.17770765
0.17865043
0.1787418
0.17866474
0.17859085
0.17840443
0.17832959
0.17830751
0.17829795
0.17830169
0.17831461
0.17833364
0.17835698
0.17838356
0.17841271
0.17844409
0.17847768
0.17851352
0.075172679
0.098225838
0.12437975
0.14586127
0.16102306
0.17037948
0.17538562
0.17767118
0.17855065
0.17862112
0.17854334
0.17846754
0.17828023
0.17822006
0.17820069
0.17819347
0.17819877
0.17821255
0.17823198
0.17825543
0.17828196
0.17831099
0.17834224
0.17837565
0.17841125
0.17844909
0.17848935
0.17853208
0.17857735
0.075653444
0.098952248
0.12517871
0.1465506
0.16150244
0.17063509
0.17546186
0.17763827
0.17845045
0.1785016
0.17842439
0.1783436
0.17816011
0.17811204
0.1780949
0.1780897
0.17809627
0.17811066
0.17813039
0.17815398
0.17818057
0.17820961
0.1782408
0.17827401
0.17830925
0.17834671
0.17838656
0.17842884
0.17847383
0.17852161
0.17857256
0.17862701
0.17868519
0.076169709
0.099758756
0.12607892
0.14733474
0.16205237
0.17093314
0.17556026
0.17761891
0.17835444
0.17838594
0.17830877
0.17822025
0.17804387
0.1780054
0.17799
0.17798651
0.17799416
0.17800905
0.17802898
0.17805265
0.17807916
0.17810797
0.17813896
0.17817204
0.17820719
0.17824452
0.17828405
0.17832604
0.17837062
0.1784179
0.17846836
0.17852225
0.17857994
0.17864175
0.17870807
0.17877939
0.076731461
0.1006558
0.12708731
0.14822063
0.16268076
0.1712815
0.17568761
0.17761756
0.17826469
0.17827513
0.17819656
0.17809779
0.17793081
0.17789999
0.177886
0.17788387
0.17789232
0.17790754
0.1779275
0.1779511
0.17797756
0.17800641
0.17803733
0.17807024
0.17810514
0.17814202
0.17818104
0.17822264
0.17826687
0.17831408
0.17836437
0.17841795
0.17847513
0.17853629
0.17860178
0.17867211
0.17874797
0.17883016
0.17892012
0.077332577
0.10162312
0.12817619
0.14918276
0.16336887
0.17166911
0.17583861
0.17763091
0.17818057
0.17816871
0.17808731
0.17797607
0.1778203
0.17779552
0.17778257
0.17778151
0.17779062
0.1778063
0.1778266
0.17785035
0.17787676
0.17790546
0.17793603
0.1779684
0.17800294
0.17803951
0.17807822
0.17811944
0.17816324
0.17821005
0.17825989
0.17831297
0.17836966
0.17843035
0.1784954
0.17856508
0.17864008
0.17872113
0.17880982
0.17890931
0.17902501
0.17916461
0.07795909
0.10262956
0.12929952
0.15017245
0.16407597
0.17206805
0.1759966
0.17764866
0.17809872
0.1780647
0.17797965
0.1778548
0.17771193
0.17769206
0.17768016
0.17768012
0.17768971
0.17770548
0.17772577
0.17774959
0.1777762
0.177805
0.17783553
0.17786771
0.17790188
0.1779379
0.17797611
0.17801664
0.17805976
0.17810585
0.17815512
0.17820771
0.17826387
0.17832403
0.17838848
0.17845735
0.17853127
0.17861114
0.1786991
0.17879813
0.17891342
0.17905283
0.17922383
0.17942365
0.078601458
0.1036583
0.13042766
0.15115279
0.16476731
0.17245205
0.1761444
0.1776599
0.17801526
0.17796084
0.17787215
0.17773398
0.17760522
0.17758908
0.17757822
0.17757923
0.17758941
0.17760551
0.1776259
0.17764968
0.17767611
0.17770457
0.17773479
0.17776675
0.17780056
0.1778362
0.17787411
0.17791431
0.177957
0.17800253
0.17805108
0.17810287
0.17815822
0.17821742
0.17828085
0.17834882
0.1784219
0.17850099
0.17858803
0.17868621
0.17880138
0.17894114
0.17911195
0.17930907
0.17948774
0.17945633
0.17818789
0.079247184
0.10469143
0.13153776
0.15209781
0.16541871
0.17280263
0.17626936
0.17765663
0.17792705
0.1778551
0.17776358
0.17761356
0.17749991
0.17748661
0.17747699
0.1774792
0.17749005
0.17750642
0.17752671
0.17755008
0.17757603
0.17760405
0.177634
0.17766582
0.17769941
0.17773482
0.17777223
0.17781176
0.17785376
0.17789862
0.17794637
0.17799762
0.17805233
0.17811087
0.17817353
0.17824071
0.17831291
0.17839102
0.17847681
0.17857423
0.17868945
0.1788295
0.17900011
0.17919394
0.17936038
0.17928781
0.1778381
0.1683448
0.15108688
0.079870577
0.1056894
0.13259235
0.15297594
0.16600664
0.17310446
0.17636245
0.17763399
0.17783247
0.17774665
0.17765367
0.17749412
0.17739609
0.17738484
0.17737642
0.1773797
0.17739109
0.17740773
0.17742815
0.17745149
0.17747723
0.17750492
0.17753444
0.17756574
0.17759871
0.17763342
0.17767018
0.17770892
0.17775034
0.17779449
0.17784153
0.17789212
0.17794601
0.17800379
0.17806558
0.1781318
0.17820313
0.17828055
0.17836575
0.17846328
0.17857842
0.17871874
0.17888889
0.17907866
0.17923138
0.17911336
0.17745469
0.16715981
0.14897329
0.080438188
0.10659634
0.13354334
0.15375257
0.16650971
0.17334627
0.17641871
0.17759023
0.17773128
0.17763542
0.17754239
0.17737602
0.17729337
0.17728366
0.17727659
0.17728107
0.1772931
0.17730994
0.17733023
0.17735317
0.17737827
0.17740534
0.17743443
0.17746542
0.1774982
0.17753285
0.1775694
0.17760761
0.17764844
0.1776915
0.1777375
0.17778683
0.17783951
0.17789638
0.17795727
0.1780225
0.17809296
0.17816941
0.17825413
0.17835159
0.17846698
0.17860803
0.17877787
0.17896352
0.17910126
0.17893075
0.17702709
0.1658596
0.14892514
0.080926781
0.10736774
0.13435788
0.15440979
0.16692108
0.17352705
0.17643953
0.17752738
0.17762476
0.17752231
0.17743052
0.17725991
0.17719163
0.17718299
0.17717717
0.17718262
0.17719508
0.17721192
0.17723201
0.17725471
0.1772795
0.1773062
0.17733484
0.17736525
0.17739726
0.17743122
0.17746718
0.17750503
0.17754559
0.17758825
0.17763401
0.17768262
0.1777345
0.17779042
0.17785011
0.17791412
0.17798308
0.17805807
0.17814209
0.17823925
0.17835516
0.17849697
0.17866624
0.17884692
0.17896728
0.17873505
0.17655186
0.16458299
0.15130262
0.081323504
0.10797542
0.13502013
0.15494535
0.16724625
0.17365422
0.17643105
0.17744985
0.17751489
0.17740842
0.17731889
0.17714619
0.17709098
0.17708305
0.17707847
0.17708475
0.17709751
0.17711432
0.17713414
0.17715645
0.17718081
0.17720697
0.17723498
0.17726473
0.177296
0.17732923
0.1773645
0.17740196
0.17744194
0.17748414
0.17752941
0.17757736
0.17762854
0.17768348
0.1777421
0.17780521
0.17787313
0.17794738
0.17803113
0.17812812
0.17824448
0.17838653
0.17855433
0.17872867
0.17882876
0.17852743
0.17604209
0.16342221
0.15050782
0.081623656
0.10840839
0.13552643
0.15536392
0.16749417
0.17373641
0.17640105
0.17736184
0.1774036
0.17729479
0.17720832
0.17703505
0.17699155
0.176984
0.17698051
0.17698744
0.17700035
0.17701705
0.17703655
0.17705842
0.17708231
0.17710802
0.17713559
0.17716491
0.17719575
0.17722842
0.17726295
0.17729969
0.17733869
0.17738011
0.17742453
0.17747163
0.17752201
0.1775758
0.17763326
0.17769527
0.17776215
0.17783574
0.17791908
0.17801611
0.17813311
0.17827571
0.17844283
0.17861
0.1786875
0.17830621
0.17549068
0.16218294
0.14884689
0.081832442
0.10867745
0.13588789
0.15567695
0.1676753
0.173782
0.17635469
0.17726661
0.17729176
0.17718229
0.17709855
0.17692607
0.17689297
0.17688554
0.176883
0.17689042
0.1769034
0.17692002
0.17693931
0.17696079
0.17698421
0.17700935
0.1770362
0.17706486
0.1770952
0.17712741
0.17716146
0.17719783
0.1772363
0.17727731
0.17732103
0.17736735
0.17741688
0.1774694
0.17752551
0.17758592
0.1776514
0.17772392
0.17780659
0.17790364
0.17802139
0.17816467
0.17833
0.17848868
0.1785398
0.1780642
0.17486006
0.1607462
0.14886102
0.081969048
0.10882308
0.13613962
0.15591111
0.16780792
0.17380221
0.17629726
0.17716718
0.17717995
0.17707108
0.17698965
0.17681898
0.17679516
0.17678772
0.17678598
0.17679371
0.17680667
0.17682313
0.17684218
0.17686329
0.17688625
0.17691084
0.17693694
0.17696485
0.17699462
0.17702628
0.17705983
0.1770955
0.17713325
0.17717364
0.17721659
0.17726219
0.17731095
0.17736254
0.1774177
0.17747691
0.17754147
0.17761342
0.17769607
0.17779381
0.17791231
0.17805529
0.1782172
0.17836615
0.17838624
0.1778009
0.17413291
0.15918434
0.15003753
0.082070029
0.10891991
0.13634322
0.15610793
0.16791652
0.17380976
0.17623433
0.17706608
0.1770687
0.17696156
0.17688109
0.17671417
0.17669843
0.17669094
0.17668991
0.17669781
0.17671064
0.17672686
0.17674561
0.1767664
0.17678903
0.17681323
0.17683883
0.17686612
0.1768952
0.17692606
0.17695879
0.17699347
0.1770303
0.1770698
0.17711179
0.17715652
0.17720428
0.17725489
0.17730909
0.17736734
0.17743097
0.17750232
0.17758473
0.17768299
0.17780268
0.17794606
0.17810563
0.17824346
0.1782286
0.1775106
0.17331561
0.15748891
0.15039865
0.082177102
0.10904843
0.13656363
0.15630873
0.1680233
0.17381472
0.1761699
0.17696461
0.17695809
0.17685344
0.17677255
0.17661152
0.17660266
0.17659523
0.17659494
0.176603
0.17661569
0.17663159
0.17664987
0.17667007
0.17669208
0.17671575
0.17674092
0.17676781
0.17679646
0.17682683
0.17685909
0.17689329
0.17692968
0.17696848
0.17700948
0.17705304
0.17709943
0.17714872
0.17720155
0.17725841
0.17732071
0.17739118
0.17747332
0.17757219
0.17769273
0.17783605
0.17799172
0.17811568
0.17805765
0.1771812
0.17238551
0.1556461
0.15044497
0.082326277
0.10926916
0.13684821
0.15654279
0.16814326
0.17382339
0.17610638
0.17686321
0.17684791
0.17674608
0.17666347
0.17651036
0.17650706
0.17649974
0.17650014
0.17650829
0.17652081
0.17653637
0.17655416
0.17657378
0.17659514
0.17661822
0.1766429
0.1766692
0.17669719
0.17672679
0.17675829
0.17679193
0.17682794
0.17686623
0.17690664
0.17694944
0.17699489
0.17704319
0.17709499
0.17715085
0.17721244
0.1772826
0.17736507
0.17746446
0.17758507
0.17772746
0.1778774
0.17798485
0.17787496
0.17681708
0.1713384
0.15384144
0.15069109
0.082555049
0.10963269
0.13723622
0.15683446
0.16828887
0.1738409
0.17604595
0.17676239
0.17673815
0.17663906
0.17655394
0.17641033
0.17641125
0.1764041
0.17640513
0.17641334
0.1764256
0.17644075
0.17645805
0.1764771
0.17649778
0.17652018
0.17654426
0.1765699
0.17659717
0.17662599
0.17665656
0.17668932
0.17672455
0.17676211
0.17680188
0.17684403
0.17688868
0.17693614
0.17698714
0.17704211
0.1771029
0.17717278
0.17725567
0.17735601
0.17747753
0.17761947
0.17776328
0.17785104
0.17768072
0.17639686
0.17015994
0.15219727
0.15162125
0.082889825
0.11015969
0.13774646
0.15719693
0.16846728
0.17387042
0.1759903
0.17666268
0.17662921
0.17653263
0.17644454
0.17631158
0.1763155
0.1763085
0.17631014
0.17631837
0.17633031
0.17634496
0.17636171
0.1763802
0.17640025
0.17642195
0.1764454
0.17647051
0.17649732
0.17652575
0.17655575
0.17658765
0.17662177
0.17665826
0.17669712
0.17673846
0.1767822
0.17682872
0.17687881
0.17693295
0.176993
0.17706272
0.17714603
0.17724701
0.17736929
0.17750941
0.17764515
0.17770956
0.17746417
0.17590047
0.16877866
0.15050175
0.15310392
0.083334427
0.11083381
0.13837227
0.15762939
0.16867898
0.17391249
0.17594035
0.17656421
0.17652136
0.1764269
0.17633578
0.17621431
0.17622001
0.17621321
0.17621544
0.17622372
0.17623539
0.17624954
0.17626567
0.17628351
0.17630288
0.17632381
0.17634647
0.17637093
0.17639728
0.17642552
0.17645544
0.17648692
0.17652014
0.17655563
0.17659348
0.17663378
0.17667651
0.17672206
0.17677136
0.17682517
0.17688537
0.17695573
0.17703992
0.17714207
0.17726494
0.1774017
0.17752667
0.17756348
0.17722523
0.1753287
0.16720316
0.14860369
0.1544349
0.08386722
0.11161508
0.13908873
0.15811918
0.16891816
0.1739649
0.17589555
0.17646657
0.17641444
0.17632167
0.1762278
0.17611808
0.17612463
0.17611803
0.17612079
0.17612917
0.17614066
0.17615439
0.17616996
0.17618718
0.17620591
0.1762261
0.17624791
0.17627152
0.17629707
0.17632473
0.17635442
0.1763857
0.17641835
0.17645314
0.17649017
0.17652928
0.1765708
0.17661526
0.17666325
0.1767164
0.17677697
0.17684829
0.17693404
0.17703844
0.17716249
0.177296
0.17740886
0.17741138
0.17696199
0.17465586
0.16543266
0.1467446
0.15560705
0.084451169
0.1124527
0.13986042
0.1586465
0.16917552
0.1740244
0.17585502
0.17636943
0.1763086
0.17621712
0.17612087
0.17602293
0.17602962
0.17602323
0.17602641
0.17603485
0.17604622
0.17605965
0.17607476
0.17609144
0.17610962
0.17612923
0.17615029
0.17617297
0.17619744
0.17622404
0.17625296
0.1762838
0.17631609
0.17635036
0.17638674
0.17642483
0.17646506
0.1765084
0.1765552
0.17660736
0.17666796
0.17674002
0.17682731
0.17693355
0.17705757
0.17718623
0.17728465
0.17724673
0.17665172
0.17383044
0.16335951
0.14514743
0.15749973
0.085049865
0.11331348
0.14066209
0.15919585
0.16944326
0.17408786
0.17581731
0.17627277
0.17620395
0.17611337
0.17601536
0.17592899
0.17593528
0.1759291
0.17593257
0.17594087
0.17595201
0.17596515
0.1759799
0.17599615
0.17601389
0.17603304
0.17605354
0.17607543
0.17609881
0.17612408
0.17615169
0.17618156
0.17621325
0.17624692
0.17628256
0.17631989
0.17635928
0.17640186
0.17644804
0.17649991
0.17656071
0.17663353
0.17672242
0.1768299
0.17695272
0.17707521
0.17715602
0.17706902
0.17628611
0.17284679
0.16111798
0.14382045
0.15950212
0.085641861
0.11415964
0.14145838
0.15974261
0.16970838
0.17415036
0.17578072
0.1761774
0.17610157
0.17601186
0.17591268
0.17583721
0.17584288
0.17583696
0.17584048
0.17584848
0.17585928
0.17587208
0.17588645
0.17590228
0.17591956
0.17593827
0.17595832
0.1759796
0.17600213
0.17602624
0.17605246
0.176081
0.17611175
0.17614456
0.17617926
0.17621578
0.17625444
0.17629631
0.17634236
0.17639474
0.1764567
0.17653117
0.1766221
0.17673131
0.17685329
0.17696862
0.1770299
0.17688684
0.17588184
0.17167766
0.15864121
0.14264974
0.16163773
0.086186063
0.11499616
0.14226184
0.16029628
0.16997537
0.17421207
0.17574279
0.17608036
0.17599782
0.17590839
0.17580887
0.17574372
0.17574858
0.17574285
0.17574632
0.17575389
0.17576418
0.17577639
0.17579014
0.17580532
0.17582194
0.17584001
0.17585945
0.17588008
0.17590182
0.17592497
0.17594999
0.1759772
0.17600695
0.17603889
0.17607243
0.17610784
0.1761456
0.17618661
0.17623225
0.176285
0.1763479
0.17642405
0.17651629
0.17662599
0.1767458
0.17685068
0.17688463
0.17664604
0.1752864
0.17026339
0.15583874
0.14185882
0.16431392
0.086669359
0.11567936
0.14291937
0.16074921
0.17019038
0.17425773
0.17570605
0.17599468
0.17590686
0.1758181
0.17571842
0.17566147
0.17566568
0.17566022
0.17566369
0.17567085
0.17568053
0.17569211
0.17570521
0.17571967
0.17573555
0.17575288
0.17577164
0.17579171
0.17581294
0.17583547
0.17585964
0.17588598
0.17591489
0.17594606
0.17597899
0.17601392
0.17605147
0.17609227
0.17613798
0.17619129
0.17625591
0.17633511
0.17642983
0.17654098
0.17666013
0.17675619
0.17676128
0.17647679
0.17493485
0.16847608
0.15308288
0.14129008
0.1668251
0.087260248
0.11677354
0.14402147
0.16151301
0.17055231
0.17433255
0.17564249
0.17584988
0.17575232
0.17566187
0.17556439
0.17551869
0.17552179
0.1755168
0.17552025
0.17552662
0.1755352
0.1755456
0.17555745
0.17557066
0.17558519
0.1756012
0.17561863
0.17563739
0.17565749
0.17567908
0.17570233
0.17572725
0.17575429
0.17578356
0.17581484
0.17584853
0.17588499
0.17592494
0.17597114
0.17602629
0.17609333
0.17617681
0.17627611
0.17638709
0.17649703
0.1765711
0.17649692
0.17596255
0.17321588
0.16503685
0.14817081
0.14273405
0.17259829
)
;

boundaryField
{
    Side
    {
        type            empty;
    }
    Inlet
    {
        type            calculated;
        value           nonuniform List<scalar> 
21
(
0.19933198
0.19934982
0.199367
0.1993859
0.19940629
0.19942577
0.19945307
0.1994842
0.19951638
0.19956101
0.19960327
0.19964525
0.19970416
0.19976523
0.1998519
0.1999552
0.20006469
0.20021696
0.2004169
0.20069119
0.20060617
)
;
    }
    Airfoil
    {
        type            nutkWallFunction;
        blending        stepwise;
        value           nonuniform List<scalar> 0();
    }
    Outlet
    {
        type            calculated;
        value           nonuniform List<scalar> 
49
(
0.087260248
0.11677354
0.14402147
0.16151301
0.17055231
0.17433255
0.17564249
0.17584988
0.17575232
0.17566187
0.17556439
0.17551869
0.17552179
0.1755168
0.17552025
0.17552662
0.1755352
0.1755456
0.17555745
0.17557066
0.17558519
0.1756012
0.17561863
0.17563739
0.17565749
0.17567908
0.17570233
0.17572725
0.17575429
0.17578356
0.17581484
0.17584853
0.17588499
0.17592494
0.17597114
0.17602629
0.17609333
0.17617681
0.17627611
0.17638709
0.17649703
0.1765711
0.17649692
0.17596255
0.17321588
0.16503685
0.14817081
0.14273405
0.17259829
)
;
    }
    procBoundary6to5
    {
        type            processor;
        value           nonuniform List<scalar> 
61
(
0.072576842
0.094465267
0.11999878
0.14175403
0.15783823
0.16885307
0.16885307
0.17473574
0.17765712
0.17892998
0.17918363
0.17902773
0.17902773
0.17895003
0.17879427
0.17866614
0.17863261
0.17850906
0.17850906
0.17850914
0.17851995
0.17853788
0.17856068
0.17848522
0.17848522
0.1785144
0.17854599
0.17857982
0.17861594
0.17855163
0.17855163
0.17859211
0.1786352
0.17868085
0.17862549
0.17862549
0.17867674
0.17873157
0.1787902
0.17874745
0.17874745
0.17881434
0.17888643
0.17885627
0.17885627
0.17893958
0.17903077
0.17902088
0.17902088
0.17913766
0.17927753
0.17933623
0.17933623
0.17953872
0.17961298
0.17961298
0.1796183
0.17851266
0.16936224
0.16936224
0.1526682
)
;
    }
    procBoundary6to12
    {
        type            processor;
        value           uniform 0.072654212;
    }
    procBoundary6to13
    {
        type            processor;
        value           nonuniform List<scalar> 
34
(
0.095528018
0.073660077
0.073660077
0.074159882
0.07465204
0.075126765
0.07558288
0.076035901
0.076487506
0.076924484
0.077336737
0.077711826
0.078037983
0.078312485
0.07855467
0.078815121
0.079159457
0.079638743
0.080253013
0.080956044
0.081692033
0.082403688
0.08304387
0.083580556
0.083997013
0.084305021
0.084544054
0.084768145
0.085039278
0.085384021
0.085813599
0.086282774
0.086768755
0.087438593
)
;
    }
}


// ************************************************************************* //
