/*--------------------------------*- C++ -*----------------------------------*\
| =========                 |                                                 |
| \\      /  F ield         | OpenFOAM: The Open Source CFD Toolbox           |
|  \\    /   O peration     | Version:  2506                                  |
|   \\  /    A nd           | Website:  www.openfoam.com                      |
|    \\/     M anipulation  |                                                 |
\*---------------------------------------------------------------------------*/
FoamFile
{
    version     2.0;
    format      ascii;
    arch        "LSB;label=32;scalar=64";
    class       volVectorField;
    location    "2";
    object      wallShearStress;
}
// * * * * * * * * * * * * * * * * * * * * * * * * * * * * * * * * * * * * * //

dimensions      [1 -1 -2 0 0 0 0];

internalField   uniform (0 0 0);

boundaryField
{
    Side
    {
        type            empty;
    }
    Inlet
    {
        type            calculated;
        value           uniform (0 0 0);
    }
    Airfoil
    {
        type            calculated;
        value           nonuniform List<vector> 
33
(
(-6.3850617 1.4069647 -2.3869623e-20)
(-6.3443015 1.428529 -4.1754669e-19)
(-6.3779805 1.0203789 4.2639775e-19)
(-6.512817 1.1963969 4.27118e-19)
(-6.6084547 0.84583244 -4.7966721e-21)
(-6.8024601 0.74175053 -4.1359305e-19)
(-6.9409406 0.78430881 -2.0380334e-19)
(-7.0980296 0.54302064 -1.9550712e-19)
(-7.1139016 0.70214712 -3.7084099e-21)
(-7.2698495 0.23177141 -1.0343684e-19)
(-7.4390424 0.59134395 3.775683e-19)
(-7.4393508 0.51487435 -3.5761711e-19)
(-7.4996077 0.068302116 9.2194873e-20)
(-7.6321382 0.28757469 -7.0493487e-19)
(-7.6020397 0.13493396 6.9568888e-19)
(-7.6891558 -0.071731954 1.0096341e-18)
(-8.1038848 -0.35163138 -6.1472595e-19)
(-7.7429112 1.5905283 -6.4232603e-19)
(-7.665823 -2.2001561 6.3868693e-19)
(-8.0480146 1.2383278 6.0185311e-36)
(-7.841068 -1.3229307 1.1866378e-18)
(-8.0059501 0.84934666 -1.1596087e-18)
(-7.7940096 -1.256527 1.1618859e-18)
(-7.8845927 0.13440267 -1.1289243e-18)
(-7.7446836 -1.1003656 5.3832634e-19)
(-7.8006145 -0.11418302 -2.6340075e-18)
(-7.6485249 -1.009767 5.0473586e-19)
(-7.6095759 -0.28359319 1.9787169e-18)
(-7.4781891 -1.0745801 -1.8878072e-18)
(-7.4215662 -0.40455047 -9.0755414e-19)
(-7.2341362 -1.0756383 -2.6348419e-18)
(-6.9834847 -0.2906058 -3.3096155e-18)
(-6.0157196 -1.0049688 -7.5023214e-19)
)
;
    }
    Outlet
    {
        type            calculated;
        value           nonuniform List<vector> 0();
    }
    procBoundary1to0
    {
        type            processor;
        value           uniform (0 0 0);
    }
    procBoundary1to2
    {
        type            processor;
        value           uniform (0 0 0);
    }
    procBoundary1to8
    {
        type            processor;
        value           uniform (0 0 0);
    }
}


// ************************************************************************* //
