/*--------------------------------*- C++ -*----------------------------------*\
| =========                 |                                                 |
| \\      /  F ield         | OpenFOAM: The Open Source CFD Toolbox           |
|  \\    /   O peration     | Version:  2506                                  |
|   \\  /    A nd           | Website:  www.openfoam.com                      |
|    \\/     M anipulation  |                                                 |
\*---------------------------------------------------------------------------*/
FoamFile
{
    version     2.0;
    format      ascii;
    arch        "LSB;label=32;scalar=64";
    class       volScalarField;
    location    "0.012";
    object      alphat;
}
// * * * * * * * * * * * * * * * * * * * * * * * * * * * * * * * * * * * * * //

dimensions      [1 -1 -1 0 0 0 0];

internalField   nonuniform List<scalar> 
13761
(
2.072056e-05
2.0724028e-05
2.0720936e-05
2.0723426e-05
2.0721491e-05
2.0723158e-05
2.0721186e-05
2.0719565e-05
6.5815853e-06
2.0725521e-05
6.5812322e-06
2.0722119e-05
6.5810167e-06
2.0729248e-05
6.5809298e-06
2.073745e-05
6.58133e-06
2.0731635e-05
6.5829426e-06
2.0742102e-05
6.5840642e-06
2.0728612e-05
6.583972e-06
2.0728268e-05
6.5787675e-06
6.5834327e-06
2.0723676e-05
6.5786861e-06
6.5828354e-06
2.0724025e-05
6.578661e-06
6.5822171e-06
2.0715474e-05
6.5792247e-06
6.5816407e-06
2.0726776e-05
6.5804528e-06
6.5811707e-06
2.0721299e-05
6.581442e-06
6.5807388e-06
2.074069e-05
6.5818882e-06
6.5801074e-06
2.0734198e-05
6.5838796e-06
6.5819893e-06
6.579541e-06
2.0753023e-05
6.5835893e-06
6.5818499e-06
6.5807968e-06
2.0741372e-05
6.5832981e-06
6.5809507e-06
6.5824073e-06
2.0747846e-05
6.5832881e-06
6.5797949e-06
6.5833189e-06
2.0736061e-05
6.5837711e-06
6.5790589e-06
6.583885e-06
2.0730224e-05
6.5850399e-06
6.5787664e-06
6.584232e-06
2.0731122e-05
6.586204e-06
6.5786703e-06
6.5842341e-06
6.5868108e-06
6.5786941e-06
6.5842138e-06
6.579473e-06
6.5869727e-06
6.5792737e-06
6.5841629e-06
6.5794086e-06
6.5869542e-06
6.5799361e-06
6.5837876e-06
6.5793813e-06
6.5864602e-06
6.5804708e-06
6.5834096e-06
6.5798446e-06
6.5853158e-06
6.5809515e-06
6.583355e-06
6.581052e-06
6.5842564e-06
6.5813385e-06
6.582863e-06
6.5822055e-06
6.5836405e-06
6.5817757e-06
6.5828529e-06
6.5828776e-06
6.5834013e-06
6.5821607e-06
6.5825414e-06
6.5831342e-06
6.5832458e-06
6.5823228e-06
6.5783146e-06
6.583163e-06
6.5831457e-06
6.5823839e-06
6.5782561e-06
6.5829941e-06
6.5836596e-06
6.5822362e-06
6.5782363e-06
6.5821625e-06
6.5843621e-06
6.581797e-06
6.5787401e-06
6.5809641e-06
6.5849969e-06
6.5813219e-06
6.5799563e-06
6.580009e-06
6.5855423e-06
6.5809844e-06
6.5810821e-06
6.5794723e-06
6.5859913e-06
6.5808609e-06
6.581726e-06
6.5792313e-06
6.5864997e-06
6.5808463e-06
6.5776214e-06
6.5819598e-06
6.5789263e-06
6.5868359e-06
6.5807291e-06
6.5773982e-06
6.5819745e-06
6.5787754e-06
6.5869766e-06
6.5771919e-06
6.5817945e-06
6.5794462e-06
6.5870377e-06
6.5772037e-06
6.5809585e-06
6.5803365e-06
6.5869491e-06
6.5777512e-06
6.5797803e-06
6.5811174e-06
6.5866062e-06
6.5789708e-06
6.578859e-06
6.5817171e-06
6.5861797e-06
6.5800524e-06
6.5783588e-06
6.5822701e-06
6.5857965e-06
6.5770305e-06
6.5806538e-06
6.5781802e-06
6.582747e-06
6.5855733e-06
6.5768444e-06
6.5808641e-06
6.5780382e-06
6.5829827e-06
6.5854571e-06
6.5766764e-06
6.5808773e-06
6.5780221e-06
6.5830775e-06
6.5852716e-06
6.5767066e-06
6.5806533e-06
6.5785981e-06
6.583125e-06
6.5773056e-06
6.5797567e-06
6.5792978e-06
6.5830401e-06
6.5785167e-06
6.5785918e-06
6.579932e-06
6.582821e-06
6.5795859e-06
6.5777258e-06
6.580475e-06
6.5824907e-06
6.576722e-06
6.580215e-06
6.5772804e-06
6.5809145e-06
6.5820855e-06
6.5765542e-06
6.580478e-06
6.5771452e-06
6.5814163e-06
6.581758e-06
6.5764093e-06
6.5805399e-06
6.5771129e-06
6.5817605e-06
6.5814937e-06
6.5764687e-06
6.5805042e-06
6.5773609e-06
6.5819064e-06
6.5811993e-06
6.5771632e-06
6.5800393e-06
6.577975e-06
6.5819663e-06
6.5783907e-06
6.5789849e-06
6.57849e-06
6.5819744e-06
6.5794057e-06
6.5778656e-06
6.5789093e-06
6.5818184e-06
6.5765721e-06
6.5799772e-06
6.5770698e-06
6.5793192e-06
6.5815287e-06
6.5764032e-06
6.5802026e-06
6.5766604e-06
6.5796721e-06
6.5811359e-06
6.5762566e-06
6.5802509e-06
6.5765262e-06
6.5800674e-06
6.5807382e-06
6.5763091e-06
6.5801923e-06
6.5764064e-06
6.5804984e-06
6.5804944e-06
6.5769798e-06
6.5796333e-06
6.5765453e-06
6.5807389e-06
6.5803362e-06
6.5782082e-06
6.5785396e-06
6.5771679e-06
6.5808389e-06
6.5801266e-06
6.5792619e-06
6.577453e-06
6.5778095e-06
6.5808935e-06
6.5765822e-06
6.579894e-06
6.5767083e-06
6.5783785e-06
6.5808565e-06
6.576427e-06
6.5801806e-06
6.5763442e-06
6.578876e-06
6.5806283e-06
6.5762963e-06
6.5802706e-06
6.576241e-06
6.5792848e-06
6.5802757e-06
6.5763769e-06
6.5802794e-06
6.5762316e-06
6.5797808e-06
6.5798516e-06
6.5771322e-06
6.5801175e-06
6.5766017e-06
6.5801524e-06
6.5795107e-06
6.5783934e-06
6.5793967e-06
6.577252e-06
6.5803278e-06
6.5793795e-06
6.5771089e-06
6.5794257e-06
6.5782647e-06
6.5777397e-06
6.580408e-06
6.5793347e-06
6.5769774e-06
6.5800192e-06
6.5772049e-06
6.5781367e-06
6.5804474e-06
6.5792007e-06
6.576868e-06
6.5802763e-06
6.5764855e-06
6.5785354e-06
6.5803929e-06
6.5769755e-06
6.5803482e-06
6.5761338e-06
6.5788854e-06
6.5802663e-06
6.577784e-06
6.5803493e-06
6.5760232e-06
6.5792893e-06
6.5800174e-06
6.5790603e-06
6.5801087e-06
6.575933e-06
6.5797425e-06
6.5796123e-06
6.5800911e-06
6.5792712e-06
6.5762005e-06
6.5800056e-06
6.5792031e-06
6.5791166e-06
6.5806873e-06
6.5781075e-06
6.5768473e-06
6.5801189e-06
6.5789507e-06
6.5789808e-06
6.5809543e-06
6.5770812e-06
6.5774517e-06
6.5801769e-06
6.5787636e-06
6.5788703e-06
6.5810399e-06
6.576418e-06
6.5779953e-06
6.5801593e-06
6.5785337e-06
6.5789898e-06
6.5810525e-06
6.5761183e-06
6.5784827e-06
6.5800444e-06
6.5798291e-06
6.5809883e-06
6.5760414e-06
6.5788888e-06
6.5798654e-06
6.5811055e-06
6.5805287e-06
6.5760878e-06
6.5793991e-06
6.5795405e-06
6.5840119e-06
6.5821151e-06
6.5795658e-06
6.5766146e-06
6.5798034e-06
6.579101e-06
6.5839114e-06
6.5826914e-06
6.5784268e-06
6.5772946e-06
6.5800009e-06
6.5787523e-06
6.5838339e-06
6.5829463e-06
6.5774562e-06
6.5777379e-06
6.5800871e-06
6.5786104e-06
6.584024e-06
6.5830248e-06
6.576838e-06
6.5780967e-06
6.5801274e-06
6.5785378e-06
6.5849839e-06
6.5830333e-06
6.5765621e-06
6.5784751e-06
6.5800879e-06
6.5783872e-06
6.5863057e-06
6.5829424e-06
6.5764656e-06
6.5788189e-06
6.5800284e-06
6.5924889e-06
6.5873129e-06
6.5823994e-06
6.5764463e-06
6.5792221e-06
6.5799308e-06
6.5924431e-06
6.5878734e-06
6.5813559e-06
6.5769219e-06
6.5797025e-06
6.5796707e-06
6.5924204e-06
6.588111e-06
6.5801989e-06
6.5775999e-06
6.5799944e-06
6.5792402e-06
6.5927026e-06
6.5881783e-06
6.5792735e-06
6.5781507e-06
6.5801192e-06
6.578831e-06
6.5937718e-06
6.588183e-06
6.5787272e-06
6.5786496e-06
6.5801763e-06
6.578575e-06
6.599077e-06
6.5951348e-06
6.5880107e-06
6.5785117e-06
6.5791096e-06
6.580169e-06
6.5783666e-06
6.598999e-06
6.5961583e-06
6.5872959e-06
6.5784639e-06
6.5795031e-06
6.5800907e-06
6.5781255e-06
6.5989085e-06
6.5967466e-06
6.5861644e-06
6.57866e-06
6.5800258e-06
6.5800015e-06
6.5990542e-06
6.5970254e-06
6.5850379e-06
6.5793973e-06
6.5804609e-06
6.5798326e-06
6.5995541e-06
6.5971399e-06
6.5841924e-06
6.5800614e-06
6.5806757e-06
6.5794763e-06
6.6008684e-06
6.5971898e-06
6.5837225e-06
6.5804185e-06
6.5807607e-06
6.5790177e-06
6.5875524e-06
6.6023702e-06
6.5971879e-06
6.5835565e-06
6.5807137e-06
6.5807928e-06
6.5786785e-06
6.5878003e-06
6.603485e-06
6.5968712e-06
6.5835301e-06
6.5810498e-06
6.5807386e-06
6.5785386e-06
6.5880839e-06
6.6041603e-06
6.5960489e-06
6.583912e-06
6.5813658e-06
6.5806774e-06
6.5784493e-06
6.5888669e-06
6.6045328e-06
6.5949502e-06
6.584886e-06
6.5817573e-06
6.5806369e-06
6.5782926e-06
6.5904394e-06
6.6047492e-06
6.5939075e-06
6.5856272e-06
6.5822478e-06
6.5805279e-06
6.5585892e-06
6.5920957e-06
6.6049101e-06
6.5931639e-06
6.5858813e-06
6.5825531e-06
6.5802272e-06
6.5586933e-06
6.5933377e-06
6.6049477e-06
6.5927967e-06
6.5859908e-06
6.582679e-06
6.5797749e-06
6.5588217e-06
6.5941472e-06
6.6045205e-06
6.5927044e-06
6.5861792e-06
6.5827268e-06
6.5793778e-06
6.5591406e-06
6.5946639e-06
6.6036162e-06
6.5927355e-06
6.5864295e-06
6.5827144e-06
6.5791285e-06
6.5600485e-06
6.5950291e-06
6.6025874e-06
6.5932789e-06
6.5866916e-06
6.5826342e-06
6.5789097e-06
6.5331399e-06
6.5616843e-06
6.595342e-06
6.6017438e-06
6.5942227e-06
6.587148e-06
6.5825685e-06
6.578665e-06
6.5330266e-06
6.5632748e-06
6.5955876e-06
6.6012487e-06
6.5948275e-06
6.5875602e-06
6.5824918e-06
6.5329446e-06
6.5644266e-06
6.5955167e-06
6.6011056e-06
6.5951123e-06
6.5877644e-06
6.5822886e-06
6.5330834e-06
6.5651709e-06
6.5949951e-06
6.6011746e-06
6.5953717e-06
6.5878361e-06
6.5818761e-06
6.53928e-06
6.5339664e-06
6.5656543e-06
6.5941892e-06
6.601447e-06
6.5956899e-06
6.5878604e-06
6.5814017e-06
6.5386453e-06
6.5354403e-06
6.5660112e-06
6.59338e-06
6.6024349e-06
6.5959991e-06
6.587804e-06
6.5810826e-06
6.5379906e-06
6.5367398e-06
6.5663301e-06
6.5928187e-06
6.6036705e-06
6.5964102e-06
6.5877004e-06
6.5809534e-06
6.5376129e-06
6.5375867e-06
6.5665288e-06
6.5926222e-06
6.604368e-06
6.5969328e-06
6.5876031e-06
6.5808588e-06
6.5374981e-06
6.5380475e-06
6.5663096e-06
6.592735e-06
6.6046031e-06
6.5972721e-06
6.5874498e-06
6.5807002e-06
6.5715299e-06
6.5382262e-06
6.5382685e-06
6.5656387e-06
6.5929994e-06
6.604772e-06
6.5974244e-06
6.5871283e-06
6.5708412e-06
6.5393795e-06
6.5383749e-06
6.5647899e-06
6.5936073e-06
6.6050536e-06
6.5974908e-06
6.5866468e-06
6.5701514e-06
6.5402545e-06
6.538448e-06
6.5640657e-06
6.5949008e-06
6.605405e-06
6.5974999e-06
6.586216e-06
6.5696712e-06
6.5406712e-06
6.5384252e-06
6.5636643e-06
6.5961108e-06
6.6057909e-06
6.5974347e-06
6.5860185e-06
6.5823229e-06
6.5696138e-06
6.5407245e-06
6.5380888e-06
6.5636298e-06
6.5968032e-06
6.6063897e-06
6.5973877e-06
6.5860255e-06
6.5821642e-06
6.5704116e-06
6.5405586e-06
6.537364e-06
6.5638568e-06
6.5972534e-06
6.6069365e-06
6.5973654e-06
6.5860457e-06
6.5820263e-06
6.5714076e-06
6.5402896e-06
6.5363625e-06
6.5642331e-06
6.597738e-06
6.6072728e-06
6.597293e-06
6.5859463e-06
6.5820803e-06
6.5720297e-06
6.5399907e-06
6.5353214e-06
6.5652429e-06
6.5983014e-06
6.6074718e-06
6.5970443e-06
6.5610572e-06
6.5827745e-06
6.5721986e-06
6.5395961e-06
6.534511e-06
6.5668424e-06
6.5988681e-06
6.6076207e-06
6.5965957e-06
6.561002e-06
6.5842597e-06
6.5720283e-06
6.5389495e-06
6.5340731e-06
6.5681288e-06
6.5995799e-06
6.6076939e-06
6.5961431e-06
6.5609142e-06
6.5857343e-06
6.5716533e-06
6.5379921e-06
6.5339627e-06
6.5687582e-06
6.6004044e-06
6.6077173e-06
6.5958826e-06
6.5611308e-06
6.5867586e-06
6.5711772e-06
6.5367278e-06
6.5340251e-06
6.5690542e-06
6.6010473e-06
6.6077589e-06
6.5958008e-06
6.5568113e-06
6.5615569e-06
6.5873291e-06
6.5706643e-06
6.5352971e-06
6.5343728e-06
6.5693853e-06
6.6015033e-06
6.6077902e-06
6.5957394e-06
6.5565405e-06
6.5628079e-06
6.5875771e-06
6.5699982e-06
6.5339845e-06
6.5354969e-06
6.5698639e-06
6.6018686e-06
6.6077142e-06
6.5956094e-06
6.5562855e-06
6.5646159e-06
6.5876349e-06
6.5689094e-06
6.5330113e-06
6.5367794e-06
6.5704199e-06
6.6021879e-06
6.6074407e-06
6.5562819e-06
6.5662247e-06
6.5875988e-06
6.5673695e-06
6.5324088e-06
6.5375034e-06
6.5710519e-06
6.6024244e-06
6.6070503e-06
6.5679965e-06
6.5567094e-06
6.5673775e-06
6.5875239e-06
6.5655835e-06
6.5320537e-06
6.5377495e-06
6.5719115e-06
6.6026598e-06
6.6067767e-06
6.567618e-06
6.5580761e-06
6.5681339e-06
6.5873369e-06
6.5638448e-06
6.5318357e-06
6.5378991e-06
6.5726998e-06
6.6029291e-06
6.6067609e-06
6.5672637e-06
6.559734e-06
6.5686261e-06
6.5869408e-06
6.5624162e-06
6.5322482e-06
6.538158e-06
6.5732853e-06
6.6031952e-06
6.606928e-06
6.5671129e-06
6.5610476e-06
6.5689681e-06
6.586314e-06
6.5613947e-06
6.5332166e-06
6.5385194e-06
6.5737427e-06
6.6033621e-06
6.6070855e-06
6.5620489e-06
6.5676539e-06
6.561904e-06
6.5692391e-06
6.5853845e-06
6.5606911e-06
6.5338529e-06
6.5389061e-06
6.5741559e-06
6.6033302e-06
6.6071099e-06
6.5619664e-06
6.5690029e-06
6.5624056e-06
6.5694831e-06
6.5841419e-06
6.5601321e-06
6.5339223e-06
6.5395012e-06
6.5745003e-06
6.6031541e-06
6.5619109e-06
6.5703458e-06
6.5626828e-06
6.569609e-06
6.5827982e-06
6.5599486e-06
6.5337538e-06
6.5401754e-06
6.5747991e-06
6.6030476e-06
6.5538702e-06
6.562197e-06
6.5712548e-06
6.5628379e-06
6.5694027e-06
6.5816566e-06
6.5605967e-06
6.5336341e-06
6.540665e-06
6.5751212e-06
6.6031688e-06
6.5537801e-06
6.5633928e-06
6.5717289e-06
6.5629388e-06
6.5687792e-06
6.5808841e-06
6.561403e-06
6.5336226e-06
6.5409861e-06
6.5754564e-06
6.6034534e-06
6.5537222e-06
6.5650943e-06
6.5718939e-06
6.5630246e-06
6.5678079e-06
6.5804589e-06
6.5616592e-06
6.5336485e-06
6.5412297e-06
6.575742e-06
6.6037433e-06
6.5517478e-06
6.5538783e-06
6.5665385e-06
6.5718737e-06
6.5630148e-06
6.5666996e-06
6.5802245e-06
6.5612851e-06
6.5337873e-06
6.5414399e-06
6.5758728e-06
6.6039501e-06
6.5514827e-06
6.5546578e-06
6.5675021e-06
6.5717596e-06
6.5627152e-06
6.5657619e-06
6.5801447e-06
6.5606261e-06
6.5341271e-06
6.5415732e-06
6.575818e-06
6.5512651e-06
6.5563188e-06
6.568059e-06
6.5716065e-06
6.5620264e-06
6.5652096e-06
6.5807604e-06
6.5600164e-06
6.5343543e-06
6.5417074e-06
6.5757294e-06
6.5533123e-06
6.5513031e-06
6.5580917e-06
6.5683426e-06
6.5714404e-06
6.5609821e-06
6.5650519e-06
6.5817233e-06
6.5595653e-06
6.5343858e-06
6.541879e-06
6.5758361e-06
6.5529887e-06
6.5522381e-06
6.5594505e-06
6.5684689e-06
6.571184e-06
6.5597588e-06
6.5651441e-06
6.5822408e-06
6.5592132e-06
6.5342997e-06
6.5420695e-06
6.5762181e-06
6.5526797e-06
6.5539368e-06
6.5603452e-06
6.5685161e-06
6.5706517e-06
6.5586587e-06
6.5653672e-06
6.5822798e-06
6.5589228e-06
6.5341745e-06
6.5422184e-06
6.5767558e-06
6.5625891e-06
6.5526006e-06
6.5555078e-06
6.5608878e-06
6.5685221e-06
6.5697522e-06
6.557927e-06
6.5662555e-06
6.5821647e-06
6.5588814e-06
6.5339975e-06
6.5422178e-06
6.5772589e-06
6.5624279e-06
6.5530544e-06
6.5565891e-06
6.5612068e-06
6.5684951e-06
6.5684853e-06
6.5576138e-06
6.5678234e-06
6.5820936e-06
6.5588468e-06
6.5337692e-06
6.5420253e-06
6.577611e-06
6.5734046e-06
6.5623115e-06
6.5544733e-06
6.5572236e-06
6.5613984e-06
6.5684076e-06
6.567007e-06
6.5576046e-06
6.5691974e-06
6.5820775e-06
6.5586177e-06
6.5335696e-06
6.5417777e-06
6.5731414e-06
6.5624471e-06
6.5560819e-06
6.5575494e-06
6.5615256e-06
6.5680072e-06
6.5656221e-06
6.5577294e-06
6.569915e-06
6.582051e-06
6.5582368e-06
6.5334096e-06
6.5416971e-06
6.5729193e-06
6.5634997e-06
6.557292e-06
6.5576937e-06
6.561629e-06
6.5672606e-06
6.5645982e-06
6.5583533e-06
6.5701082e-06
6.5821916e-06
6.5577882e-06
6.5332692e-06
6.5418725e-06
6.5819469e-06
6.5729727e-06
6.5652929e-06
6.5580222e-06
6.5577477e-06
6.5617027e-06
6.5661166e-06
6.5640124e-06
6.5597746e-06
6.5701485e-06
6.5824475e-06
6.5573158e-06
6.5330894e-06
6.5421937e-06
6.5818302e-06
6.5735408e-06
6.5669461e-06
6.5583847e-06
6.5577624e-06
6.5616812e-06
6.5647232e-06
6.5637617e-06
6.5611894e-06
6.5702815e-06
6.5825262e-06
6.5567787e-06
6.5327642e-06
6.5425038e-06
6.5948353e-06
6.5817773e-06
6.5751707e-06
6.5680985e-06
6.55851e-06
6.5577583e-06
6.5613867e-06
6.5633893e-06
6.5636657e-06
6.5619988e-06
6.5705433e-06
6.5824042e-06
6.5562302e-06
6.5322463e-06
6.5427065e-06
6.594617e-06
6.5821357e-06
6.5771005e-06
6.5687773e-06
6.5585007e-06
6.5577424e-06
6.5607235e-06
6.5624054e-06
6.5639967e-06
6.5622401e-06
6.5708547e-06
6.5821645e-06
6.5557039e-06
6.531659e-06
6.5944868e-06
6.5835002e-06
6.578658e-06
6.5691212e-06
6.5584294e-06
6.5576824e-06
6.5596558e-06
6.5618592e-06
6.5651835e-06
6.5622564e-06
6.5712788e-06
6.5818774e-06
6.5551868e-06
6.5312202e-06
6.6097354e-06
6.5945987e-06
6.5855229e-06
6.5797024e-06
6.5692597e-06
6.5583368e-06
6.5574383e-06
6.5583675e-06
6.5616434e-06
6.5665257e-06
6.5623286e-06
6.5719199e-06
6.5815365e-06
6.5546409e-06
6.5310152e-06
6.6096728e-06
6.5956242e-06
6.5874248e-06
6.5803323e-06
6.5692895e-06
6.5582312e-06
6.5569505e-06
6.5571861e-06
6.5615705e-06
6.5673197e-06
6.5625372e-06
6.5724643e-06
6.5811358e-06
6.5539865e-06
6.5309382e-06
6.6215164e-06
6.6096748e-06
6.5976147e-06
6.5888456e-06
6.5806992e-06
6.5692789e-06
6.5580931e-06
6.5560733e-06
6.5563708e-06
6.5619012e-06
6.5675092e-06
6.5628234e-06
6.5727998e-06
6.5807415e-06
6.5531519e-06
6.5308625e-06
6.6212621e-06
6.6103533e-06
6.5997485e-06
6.58979e-06
6.5809237e-06
6.5692331e-06
6.5578475e-06
6.5548138e-06
6.5559847e-06
6.563088e-06
6.5674048e-06
6.5631716e-06
6.5729915e-06
6.5803656e-06
6.5521948e-06
6.5307134e-06
6.6172524e-06
6.6210504e-06
6.612276e-06
6.6014848e-06
6.5903905e-06
6.5810801e-06
6.5691592e-06
6.5573539e-06
6.5534161e-06
6.5559088e-06
6.5644922e-06
6.5673161e-06
6.5637731e-06
6.5731168e-06
6.5800061e-06
6.5513094e-06
6.6169569e-06
6.6213324e-06
6.6145955e-06
6.6027105e-06
6.5907848e-06
6.5812034e-06
6.5690332e-06
6.5564009e-06
6.5522109e-06
6.5559578e-06
6.5653655e-06
6.5673683e-06
6.5643898e-06
6.5732076e-06
6.5796519e-06
6.5506788e-06
6.5898714e-06
6.6167288e-06
6.6229592e-06
6.6166443e-06
6.6035213e-06
6.5910723e-06
6.5813012e-06
6.568795e-06
6.5549222e-06
6.5514111e-06
6.556477e-06
6.5655906e-06
6.5675309e-06
6.5648139e-06
6.5732328e-06
6.579241e-06
6.5503055e-06
6.5640931e-06
6.5894975e-06
6.6174192e-06
6.6253584e-06
6.6182102e-06
6.6040573e-06
6.5913111e-06
6.5813776e-06
6.5683431e-06
6.5531807e-06
6.5510375e-06
6.5578417e-06
6.5654438e-06
6.5677336e-06
6.5650763e-06
6.5732451e-06
6.5786746e-06
6.5500405e-06
6.5637306e-06
6.5893075e-06
6.6195122e-06
6.6275766e-06
6.6193195e-06
6.6044379e-06
6.5915296e-06
6.5814418e-06
6.5675201e-06
6.5516052e-06
6.550953e-06
6.5593999e-06
6.5652532e-06
6.5681621e-06
6.5652566e-06
6.5732652e-06
6.5779116e-06
6.5497241e-06
6.5529154e-06
6.5634033e-06
6.5905086e-06
6.6220245e-06
6.6293314e-06
6.6201004e-06
6.604742e-06
6.5917341e-06
6.5814359e-06
6.5662384e-06
6.5504934e-06
6.5510004e-06
6.5604165e-06
6.5651868e-06
6.5687113e-06
6.5654126e-06
6.5732848e-06
6.5770638e-06
6.5492559e-06
6.5470853e-06
6.5526787e-06
6.5633101e-06
6.5929513e-06
6.6241393e-06
6.6306078e-06
6.6206774e-06
6.6050121e-06
6.5919127e-06
6.5812358e-06
6.5646593e-06
6.5498904e-06
6.5516432e-06
6.5607679e-06
6.5652431e-06
6.5690949e-06
6.5655252e-06
6.5732947e-06
6.5763324e-06
6.5466595e-06
6.5525568e-06
6.5643191e-06
6.5954138e-06
6.6257049e-06
6.6315046e-06
6.6211407e-06
6.605267e-06
6.5920445e-06
6.5806399e-06
6.5631251e-06
6.5496535e-06
6.5530992e-06
6.5607109e-06
6.5653447e-06
6.5692894e-06
6.5656154e-06
6.5732638e-06
6.5757704e-06
6.5187744e-06
6.5463946e-06
6.5530278e-06
6.5666631e-06
6.5973066e-06
6.6268092e-06
6.6321548e-06
6.6215498e-06
6.6055039e-06
6.592128e-06
6.579476e-06
6.5619341e-06
6.5495878e-06
6.5545025e-06
6.5605766e-06
6.5656119e-06
6.5693725e-06
6.5657233e-06
6.5731036e-06
6.5752873e-06
6.4826009e-06
6.5183713e-06
6.5463874e-06
6.5550102e-06
6.5691046e-06
6.5986266e-06
6.6275829e-06
6.6326697e-06
6.6219404e-06
6.6057096e-06
6.5921013e-06
6.5778848e-06
6.561201e-06
6.5501257e-06
6.5552388e-06
6.5605586e-06
6.5660855e-06
6.5694135e-06
6.5658417e-06
6.5727468e-06
6.5748075e-06
6.4613453e-06
6.4820827e-06
6.5182019e-06
6.5476036e-06
6.5577333e-06
6.5709889e-06
6.5995273e-06
6.6281518e-06
6.6331307e-06
6.6223288e-06
6.6058514e-06
6.5915472e-06
6.5763055e-06
6.5608624e-06
6.5516381e-06
6.5554323e-06
6.5606763e-06
6.5664525e-06
6.5694258e-06
6.5659619e-06
6.5722585e-06
6.5742947e-06
6.4606354e-06
6.4818255e-06
6.518768e-06
6.5502129e-06
6.5601265e-06
6.5722812e-06
6.6001586e-06
6.6286123e-06
6.6335912e-06
6.622701e-06
6.6059188e-06
6.5904786e-06
6.5751327e-06
6.5607569e-06
6.5532144e-06
6.5554424e-06
6.5608566e-06
6.5666211e-06
6.5693983e-06
6.5660782e-06
6.5718336e-06
6.4516694e-06
6.4602783e-06
6.4822944e-06
6.520948e-06
6.5528979e-06
6.5618734e-06
6.5731147e-06
6.6006417e-06
6.6290282e-06
6.6340795e-06
6.6229996e-06
6.6059269e-06
6.5890953e-06
6.5745101e-06
6.5608377e-06
6.5541836e-06
6.5555094e-06
6.5611534e-06
6.5666531e-06
6.5693836e-06
6.566157e-06
6.5716407e-06
6.4361285e-06
6.451115e-06
6.460428e-06
6.4843984e-06
6.5237353e-06
6.5549963e-06
6.5630246e-06
6.5736304e-06
6.6010632e-06
6.6294433e-06
6.6345955e-06
6.6231761e-06
6.6055266e-06
6.5877062e-06
6.574326e-06
6.5617802e-06
6.5544521e-06
6.555691e-06
6.5617044e-06
6.5666227e-06
6.5693842e-06
6.5661057e-06
6.5716547e-06
6.4208232e-06
6.4357574e-06
6.4510356e-06
6.4621585e-06
6.4869449e-06
6.5260268e-06
6.556475e-06
6.5637657e-06
6.5739355e-06
6.6014803e-06
6.6298899e-06
6.6350962e-06
6.6232673e-06
6.6043099e-06
6.5866785e-06
6.5743505e-06
6.5633345e-06
6.5542565e-06
6.555932e-06
6.5622187e-06
6.5665683e-06
6.5693875e-06
6.565864e-06
6.5717467e-06
6.407678e-06
6.417451e-06
6.4206668e-06
6.4360713e-06
6.4524814e-06
6.4646272e-06
6.4889303e-06
6.5276171e-06
6.5575072e-06
6.5642533e-06
6.5741105e-06
6.60193e-06
6.6303822e-06
6.6354931e-06
6.6232186e-06
6.6027128e-06
6.5861524e-06
6.5747516e-06
6.5645424e-06
6.5539282e-06
6.5562315e-06
6.56254e-06
6.5664675e-06
6.56939e-06
6.5655073e-06
6.5718027e-06
6.4055287e-06
6.4073085e-06
6.4173255e-06
6.4217362e-06
6.4380416e-06
6.4549205e-06
6.4666521e-06
6.4901971e-06
6.5286357e-06
6.5582663e-06
6.5645925e-06
6.5742316e-06
6.6024373e-06
6.6308883e-06
6.6357047e-06
6.6225323e-06
6.6012398e-06
6.5860331e-06
6.5761713e-06
6.5650035e-06
6.5536998e-06
6.5567876e-06
6.5627065e-06
6.5663656e-06
6.5693869e-06
6.5652314e-06
6.5717397e-06
6.4093552e-06
6.4054413e-06
6.4073127e-06
6.4185071e-06
6.4243297e-06
6.4405731e-06
6.456969e-06
6.4679568e-06
6.4909142e-06
6.5292841e-06
6.5588806e-06
6.5648434e-06
6.5743735e-06
6.6030048e-06
6.6313126e-06
6.6357499e-06
6.6209958e-06
6.6002217e-06
6.5860999e-06
6.5780314e-06
6.564877e-06
6.553636e-06
6.5573814e-06
6.5627931e-06
6.5662834e-06
6.5693345e-06
6.5651885e-06
6.4122837e-06
6.4057713e-06
6.4092528e-06
6.4063445e-06
6.4088692e-06
6.4211445e-06
6.426961e-06
6.4425085e-06
6.4583576e-06
6.4686643e-06
6.4913074e-06
6.5297357e-06
6.5594098e-06
6.5650713e-06
6.5745954e-06
6.6035944e-06
6.6315526e-06
6.6356724e-06
6.6192887e-06
6.5997587e-06
6.5864591e-06
6.5794743e-06
6.5645345e-06
6.5536786e-06
6.5577935e-06
6.5628438e-06
6.5662064e-06
6.5691438e-06
6.5653282e-06
6.416303e-06
6.4144457e-06
6.4072795e-06
6.4109599e-06
6.4089291e-06
6.4115901e-06
6.4236425e-06
6.4288169e-06
6.4436201e-06
6.4592238e-06
6.4689739e-06
6.4915338e-06
6.5301063e-06
6.5598821e-06
6.5653332e-06
6.574913e-06
6.6041157e-06
6.6315908e-06
6.6348857e-06
6.6180547e-06
6.599668e-06
6.5876388e-06
6.5801135e-06
6.5642504e-06
6.5537809e-06
6.5580353e-06
6.5628431e-06
6.5661272e-06
6.568765e-06
6.5655381e-06
6.4150819e-06
6.4153545e-06
6.4197042e-06
6.4184077e-06
6.4109944e-06
6.414191e-06
6.4116632e-06
6.4140893e-06
6.425378e-06
6.4298935e-06
6.4441599e-06
6.4597683e-06
6.4690791e-06
6.4917044e-06
6.5304566e-06
6.5603181e-06
6.5656696e-06
6.5752743e-06
6.6044602e-06
6.6315121e-06
6.6333289e-06
6.6174288e-06
6.599743e-06
6.589442e-06
6.5801142e-06
6.5641184e-06
6.5541311e-06
6.558183e-06
6.5628078e-06
6.5660484e-06
6.5682916e-06
6.5657213e-06
6.4143183e-06
6.4187779e-06
6.4181697e-06
6.4196627e-06
6.4204133e-06
6.4236366e-06
6.4225827e-06
6.4150661e-06
6.4171528e-06
6.4136085e-06
6.4157429e-06
6.4264041e-06
6.4304181e-06
6.444384e-06
6.4601101e-06
6.4691139e-06
6.4918763e-06
6.5308298e-06
6.5607429e-06
6.5660692e-06
6.5755559e-06
6.6045669e-06
6.6311164e-06
6.6318916e-06
6.6172737e-06
6.6005381e-06
6.5910459e-06
6.5798591e-06
6.5640932e-06
6.5545915e-06
6.5583028e-06
6.5627775e-06
6.5659637e-06
6.5679211e-06
6.5658036e-06
6.3943139e-06
6.3943174e-06
6.4032888e-06
6.4194458e-06
6.4246165e-06
6.4240921e-06
6.42399e-06
6.4245852e-06
6.4271969e-06
6.425963e-06
6.4182662e-06
6.4194607e-06
6.4148572e-06
6.4166325e-06
6.4269749e-06
6.4305903e-06
6.4444571e-06
6.4603326e-06
6.469195e-06
6.492077e-06
6.5312315e-06
6.5611838e-06
6.5664591e-06
6.5756438e-06
6.6044842e-06
6.6299757e-06
6.6310152e-06
6.6173578e-06
6.6023154e-06
6.5919206e-06
6.5796452e-06
6.5641024e-06
6.554907e-06
6.5584021e-06
6.5627493e-06
6.5658188e-06
6.5677842e-06
6.4461946e-06
6.4418956e-06
6.4201899e-06
6.400907e-06
6.3990588e-06
6.4084106e-06
6.4233506e-06
6.4287731e-06
6.4279667e-06
6.4275942e-06
6.4280242e-06
6.4299463e-06
6.4282485e-06
6.4203091e-06
6.4213188e-06
6.4155493e-06
6.4170019e-06
6.4273153e-06
6.4306092e-06
6.4445001e-06
6.4604807e-06
6.4693852e-06
6.4923165e-06
6.5316544e-06
6.5616311e-06
6.5667232e-06
6.5755157e-06
6.6043054e-06
6.6286404e-06
6.6306468e-06
6.6178227e-06
6.6043782e-06
6.5921304e-06
6.57958e-06
6.5643295e-06
6.5550474e-06
6.5584632e-06
6.5627168e-06
6.5655277e-06
6.567809e-06
6.4324823e-06
6.433118e-06
6.4322978e-06
6.4286956e-06
6.4304015e-06
6.4356248e-06
6.4537488e-06
6.4504572e-06
6.4284061e-06
6.4039355e-06
6.4012555e-06
6.4107868e-06
6.4264619e-06
6.4321655e-06
6.4310937e-06
6.430399e-06
6.4307122e-06
6.4321116e-06
6.4296203e-06
6.4215041e-06
6.4227824e-06
6.4160048e-06
6.4170963e-06
6.427578e-06
6.4306513e-06
6.4446033e-06
6.4606015e-06
6.4697065e-06
6.4925812e-06
6.5321311e-06
6.5620012e-06
6.5667715e-06
6.5752656e-06
6.6036545e-06
6.6276548e-06
6.630592e-06
6.6194529e-06
6.6060133e-06
6.5920283e-06
6.5796345e-06
6.5647331e-06
6.5550697e-06
6.5585358e-06
6.5626797e-06
6.5650637e-06
6.5678979e-06
6.4345765e-06
6.4361774e-06
6.4357791e-06
6.433471e-06
6.4315346e-06
6.432453e-06
6.4336973e-06
6.4329536e-06
6.4333603e-06
6.4382013e-06
6.4389759e-06
6.4380673e-06
6.434994e-06
6.4360455e-06
6.4402479e-06
6.4577822e-06
6.4548854e-06
6.4324275e-06
6.4060534e-06
6.4023421e-06
6.412159e-06
6.4287727e-06
6.4347032e-06
6.4333985e-06
6.4325705e-06
6.4328022e-06
6.4338074e-06
6.4305012e-06
6.4221591e-06
6.4236795e-06
6.4164913e-06
6.4170996e-06
6.4278041e-06
6.4307532e-06
6.4447676e-06
6.4607285e-06
6.4700912e-06
6.4928797e-06
6.5326718e-06
6.5621888e-06
6.5666014e-06
6.5748858e-06
6.6024037e-06
6.6271416e-06
6.6306911e-06
6.6216906e-06
6.6068669e-06
6.5919228e-06
6.5797337e-06
6.5650118e-06
6.5550441e-06
6.558625e-06
6.5626394e-06
6.5645421e-06
6.5679729e-06
2.8131937e-10
9.1917059e-10
1.7112463e-08
1.5307072e-07
7.6265658e-07
2.4912734e-06
5.9135055e-06
1.116648e-05
1.8094241e-05
2.6519554e-05
3.6340335e-05
4.7515548e-05
6.0035287e-05
7.3913154e-05
8.9180861e-05
0.00010588357
0.00012407779
0.00014382722
0.00016519362
0.00018824472
0.0002130579
0.00023970591
0.00026825522
0.0002987727
0.00033131169
0.00036591909
0.00040262971
0.00044146791
0.0004824468
0.00052557144
0.0005708423
0.00061827276
0.00066789021
0.00071976014
0.00077401879
0.00083089161
0.000890728
0.00095406155
0.001021629
0.0010942986
0.0011729126
0.0012579726
0.0013489982
0.0014435579
0.0015359433
0.0016158721
0.0016679493
0.0016730288
0.0016124118
0.0014742143
0.0012583198
0.0009749344
0.00063925159
0.00025332784
3.0656253e-05
7.5782542e-06
6.4679597e-06
6.4372861e-06
6.4343158e-06
6.4306342e-06
6.4284774e-06
6.4269088e-06
6.4255596e-06
6.4255141e-06
6.4264708e-06
6.4282012e-06
6.4301144e-06
6.4310361e-06
6.4332053e-06
6.4348617e-06
6.4377406e-06
6.4388661e-06
6.4387228e-06
6.4371029e-06
6.435548e-06
6.436182e-06
6.4372372e-06
6.4365162e-06
6.437299e-06
6.4404901e-06
6.4411954e-06
6.4401636e-06
6.4376646e-06
6.4384276e-06
6.4418347e-06
6.4614302e-06
6.4592492e-06
6.4362207e-06
6.4074882e-06
6.4026073e-06
6.4128088e-06
6.4305727e-06
6.4366975e-06
6.4352155e-06
6.4343672e-06
6.4346441e-06
6.4353074e-06
6.4313517e-06
6.4223466e-06
6.4241825e-06
6.4171292e-06
6.4170823e-06
6.4279972e-06
6.4309451e-06
6.4449848e-06
6.4608891e-06
6.4704686e-06
6.4932588e-06
6.5332074e-06
6.5621607e-06
6.5663041e-06
6.573845e-06
6.6012059e-06
6.6269833e-06
6.6314813e-06
6.6237271e-06
6.6070641e-06
6.5919578e-06
6.5799985e-06
6.5650877e-06
6.555007e-06
6.5587192e-06
6.5625751e-06
6.5641587e-06
6.5679693e-06
2.8412106e-10
9.3207273e-10
1.7366221e-08
1.5527822e-07
7.730732e-07
2.5221603e-06
5.9774955e-06
1.127068e-05
1.8241528e-05
2.6711301e-05
3.6577451e-05
4.7798646e-05
6.0364884e-05
7.4289744e-05
8.9605153e-05
0.00010635637
0.00012460007
0.00014439973
0.00016581689
0.00018891843
0.00021378113
0.00024047629
0.00026906954
0.00029962605
0.00033219857
0.00036683246
0.00040356242
0.00044241126
0.00048339353
0.00052651708
0.00057178653
0.00061921387
0.00066882675
0.00072069274
0.00077494937
0.00083182696
0.0008916904
0.00095506998
0.0010226746
0.0010953471
0.0011739294
0.0012589483
0.0013499297
0.0014444533
0.0015368254
0.0016167742
0.0016689055
0.001674058
0.0016134954
0.0014752983
0.0012593185
0.00097577479
0.00064005545
0.00025373514
2.9950374e-05
7.4750556e-06
6.4683272e-06
6.4406116e-06
6.4356325e-06
6.4312132e-06
6.4287031e-06
6.4269718e-06
6.4255799e-06
6.4257636e-06
6.4272751e-06
6.4296496e-06
6.4320693e-06
6.4340647e-06
6.4356893e-06
6.4370507e-06
6.4384769e-06
6.439813e-06
6.4399179e-06
6.438186e-06
6.4364408e-06
6.4371444e-06
6.4382752e-06
6.4376812e-06
6.4387896e-06
6.4424501e-06
6.4429138e-06
6.441777e-06
6.4401549e-06
6.4408913e-06
6.4431333e-06
6.4648404e-06
6.4635516e-06
6.4397743e-06
6.4086515e-06
6.4023403e-06
6.4130548e-06
6.4320527e-06
6.4383672e-06
6.4367132e-06
6.4358639e-06
6.4362978e-06
6.4367192e-06
6.4321823e-06
6.422282e-06
6.4245092e-06
6.4177033e-06
6.4171362e-06
6.4281596e-06
6.4312275e-06
6.4452317e-06
6.4610952e-06
6.4708111e-06
6.4937182e-06
6.5336106e-06
6.5619862e-06
6.5658071e-06
6.5721705e-06
6.6004496e-06
6.6269924e-06
6.6332793e-06
6.6251565e-06
6.6069811e-06
6.5921377e-06
6.5804929e-06
6.5650234e-06
6.5549317e-06
6.5588122e-06
6.5624197e-06
6.5640122e-06
2.8725063e-10
9.4637475e-10
1.7647644e-08
1.5772664e-07
7.8460895e-07
2.5561996e-06
6.0474362e-06
1.1383385e-05
1.8399086e-05
2.691414e-05
3.6825505e-05
4.8091545e-05
6.0702197e-05
7.467114e-05
9.0030711e-05
0.00010682653
0.00012511579
0.00014496219
0.00016642761
0.00018957882
0.00021449282
0.0002412405
0.00026988784
0.00030049943
0.00033312852
0.00036781972
0.00040460824
0.00044351548
0.00048455531
0.00052773341
0.00057305099
0.00062051675
0.00067015356
0.0007220278
0.00077627688
0.00083313419
0.00089296627
0.00095630288
0.001023851
0.0010964467
0.0011749634
0.0012598952
0.0013507792
0.0014452057
0.0015374931
0.0016173797
0.0016694716
0.001674606
0.0016139838
0.0014756816
0.0012595844
0.00097586207
0.00063980637