/*--------------------------------*- C++ -*----------------------------------*\
| =========                 |                                                 |
| \\      /  F ield         | OpenFOAM: The Open Source CFD Toolbox           |
|  \\    /   O peration     | Version:  2506                                  |
|   \\  /    A nd           | Website:  www.openfoam.com                      |
|    \\/     M anipulation  |                                                 |
\*---------------------------------------------------------------------------*/
FoamFile
{
    version     2.0;
    format      ascii;
    arch        "LSB;label=32;scalar=64";
    class       volVectorField;
    location    "0.006";
    object      wallShearStress;
}
// * * * * * * * * * * * * * * * * * * * * * * * * * * * * * * * * * * * * * //

dimensions      [1 -1 -2 0 0 0 0];

internalField   uniform (0 0 0);

boundaryField
{
    Side
    {
        type            empty;
    }
    Inlet
    {
        type            calculated;
        value           uniform (0 0 0);
    }
    Airfoil
    {
        type            calculated;
        value           nonuniform List<vector> 
109
(
(-10.280452 -0.22083805 -3.0770434e-17)
(-10.466467 -0.23976398 -4.7172012e-22)
(-10.656754 -0.25938341 -3.1009917e-17)
(-10.848543 -0.27970068 -3.1135464e-17)
(-11.038766 -0.30074641 -4.767424e-22)
(-11.226122 -0.32241174 4.7950733e-22)
(-11.407681 -0.34471894 -3.154041e-17)
(-11.581059 -0.36723633 1.4105932e-37)
(-11.746187 -0.38949319 -4.8542824e-22)
(-11.906643 -0.41207255 4.8826327e-22)
(-12.060128 -0.43498794 3.2137466e-17)
(-12.207988 -0.45821358 -4.3053657e-25)
(-12.349252 -0.48175364 -3.9558009e-25)
(-12.485291 -0.50559978 -4.9803308e-22)
(-12.615535 -0.52973409 6.5596487e-17)
(-12.741303 -0.55421464 -6.5946395e-17)
(-12.862227 -0.5790114 5.0311937e-22)
(-12.979499 -0.60417433 -5.0878064e-22)
(-13.092873 -0.62968783 1.880791e-37)
(-13.203332 -0.65559427 -6.7421777e-17)
(-13.310737 -0.68188935 -2.9387359e-39)
(-13.414405 -0.7085054 -6.8204549e-17)
(-13.513663 -0.73504749 -2.0571151e-38)
(-13.611995 -0.76175897 -6.9017033e-17)
(-13.708671 -0.78883448 -5.2963968e-22)
(-13.804632 -0.8162566 6.9859052e-17)
(-13.899409 -0.84405675 -5.3617484e-22)
(-13.993822 -0.87226261 7.072935e-17)
(-14.087536 -0.90087804 1.4235251e-16)
(-14.181184 -0.92994193 0)
(-14.27451 -0.95945914 7.2093141e-17)
(-14.367987 -0.98945904 5.5352542e-22)
(-14.46141 -1.0199526 -5.5736624e-22)
(-14.555128 -1.0509629 -7.5231638e-37)
(-14.648946 -1.0825036 7.4026644e-17)
(-14.743131 -1.1145964 1.490643e-16)
(-14.836907 -1.1471916 7.5046153e-17)
(-14.930237 -1.1801401 7.5571725e-17)
(-15.023504 -1.2134881 2.1793248e-24)
(-15.11695 -1.2472856 1.9812342e-38)
(-15.21051 -1.2815367 -3.2763053e-33)
(-15.304356 -1.3162662 5.9318607e-22)
(-15.398437 -1.351485 -1.1953337e-21)
(-15.492892 -1.3872106 -7.8920929e-17)
(-15.587676 -1.4234526 7.5231638e-37)
(-15.682898 -1.4602388 -4.3243146e-33)
(-15.778552 -1.4975738 -1.6147481e-16)
(-15.874674 -1.5354821 -8.136552e-17)
(-15.971277 -1.5739721 6.2576266e-22)
(-16.068407 -1.6130689 8.2655386e-17)
(-16.166026 -1.652778 -6.3578911e-22)
(-16.264458 -1.693156 6.406782e-22)
(-16.36407 -1.7343388 -2.6575665e-25)
(-16.463563 -1.7762385 8.5378658e-17)
(-16.562281 -1.8185265 -6.5668649e-22)
(-16.660869 -1.8612788 1.3247065e-21)
(-16.759323 -1.9044991 8.7553596e-17)
(-16.857777 -1.9482133 8.8306257e-17)
(-16.956224 -1.9924287 -6.7970366e-22)
(-17.054693 -2.0371568 8.9849464e-17)
(-17.153139 -2.0824068 -6.9138721e-22)
(-17.25155 -2.1281882 -9.1449975e-17)
(-17.349847 -2.1744917 7.0414539e-22)
(-17.448001 -2.2213338 7.1020415e-22)
(-17.545881 -2.2687063 -9.3964303e-17)
(-17.643519 -2.3166126 -9.4833659e-17)
(-17.740818 -2.3650633 -3.3064273e-24)
(-17.837548 -2.4140258 -9.6620361e-17)
(-17.936082 -2.4638655 9.7540753e-17)
(-18.035758 -2.5150335 -9.8477893e-17)
(-18.13277 -2.5666114 -9.9432377e-17)
(-18.227697 -2.618373 7.6583194e-22)
(-18.32104 -2.67039 -7.7379622e-22)
(-18.413115 -2.7226952 -3.0092655e-36)
(-18.504043 -2.7753271 -1.0343716e-16)
(-18.594089 -2.8283027 1.5046328e-36)
(-18.683318 -2.8816556 8.0511555e-22)
(-18.771965 -2.935408 -8.1388191e-22)
(-18.860072 -2.9895835 8.2191509e-22)
(-18.947839 -3.0442144 -4.659597e-25)
(-19.035325 -3.0993149 -8.3986884e-22)
(-19.122646 -3.1549115 1.112328e-16)
(-19.209862 -3.2110197 8.5757244e-22)
(-19.297078 -3.2676651 -1.1366668e-16)
(-19.384427 -3.3248832 1.7535022e-21)
(-19.471547 -3.3826155 -1.7730157e-21)
(-19.562707 -3.4416541 1.175032e-16)
(-19.657311 -3.5027771 -1.188329e-16)
(-19.749251 -3.5643958 2.4038306e-16)
(-19.839116 -3.6261011 -9.2727833e-22)
(-19.927852 -3.6880626 2.4598729e-16)
(-20.015762 -3.7503255 1.2443723e-16)
(-20.103101 -3.8129465 -9.4039548e-38)
(-20.190128 -3.8759687 1.2741506e-16)
(-20.276947 -3.9394278 -1.289494e-16)
(-20.363884 -4.003382 1.3051751e-16)
(-20.451019 -4.0678416 0)
(-20.538672 -4.1328984 -3.0092655e-36)
(-20.626963 -4.1985786 -1.3542128e-16)
(-20.716265 -4.264957 -1.371245e-16)
(-20.806755 -4.3320859 -1.0598364e-21)
(-20.898827 -4.4000643 0)
(-20.992719 -4.4689544 0)
(-21.088707 -4.5388268 2.2160351e-33)
(-21.188714 -4.6101164 -1.1149395e-21)
(-21.285623 -4.6812641 1.040785e-24)
(-21.449387 -4.7680299 1.1457361e-21)
(-21.803984 -4.9155729 1.1601526e-21)
(-22.141571 -5.0928142 7.7085873e-17)
)
;
    }
    Outlet
    {
        type            calculated;
        value           nonuniform List<vector> 0();
    }
    procBoundary9to2
    {
        type            processor;
        value           uniform (0 0 0);
    }
    procBoundary9to8
    {
        type            processor;
        value           uniform (0 0 0);
    }
    procBoundary9to10
    {
        type            processor;
        value           uniform (0 0 0);
    }
}


// ************************************************************************* //
