/*--------------------------------*- C++ -*----------------------------------*\
| =========                 |                                                 |
| \\      /  F ield         | OpenFOAM: The Open Source CFD Toolbox           |
|  \\    /   O peration     | Version:  2506                                  |
|   \\  /    A nd           | Website:  www.openfoam.com                      |
|    \\/     M anipulation  |                                                 |
\*---------------------------------------------------------------------------*/
FoamFile
{
    version     2.0;
    format      ascii;
    arch        "LSB;label=32;scalar=64";
    class       volVectorField;
    location    "0.021";
    object      U;
}
// * * * * * * * * * * * * * * * * * * * * * * * * * * * * * * * * * * * * * //

dimensions      [0 1 -1 0 0 0 0];

internalField   nonuniform List<vector> 
13761
(
(92.835223 7.99812 0)
(94.427716 17.819004 0)
(93.209881 20.920377 1.5335389e-20)
(93.224146 20.91099 -1.0212133e-20)
(94.443339 17.812137 -1.7608027e-22)
(92.860163 8.0149873 0)
(85.488869 -8.6493029 -1.0914607e-22)
(82.746754 -13.984473 1.223325e-22)
(93.234434 20.909116 9.7326218e-21)
(94.455607 17.826415 1.6765146e-22)
(92.883579 8.0343151 0)
(85.505023 -8.6328591 0)
(82.747463 -13.980444 1.4723054e-20)
(81.95249 -12.939291 -8.0904794e-21)
(78.781433 -2.8514087 1.8171709e-20)
(93.247423 20.900385 0)
(94.472422 17.823971 1.5891831e-22)
(92.906 8.0540258 2.2023318e-20)
(85.522638 -8.6193155 3.8970397e-22)
(82.748217 -13.977898 -1.4244449e-20)
(81.947604 -12.940606 1.2137e-22)
(78.762538 -2.8515359 -1.729907e-20)
(75.9493 9.7100993 3.807284e-20)
(78.348328 13.478715 -2.0941502e-20)
(93.259221 20.89632 2.7627212e-22)
(94.485737 17.832844 -3.8808888e-20)
(92.931045 8.0769634 -2.0989074e-20)
(85.541925 -8.6042588 0)
(82.749014 -13.975046 0)
(81.942403 -12.941955 -2.9583053e-20)
(78.742645 -2.8523119 2.5329905e-22)
(75.940621 9.7035582 -3.5950296e-20)
(78.352753 13.469014 1.9921094e-20)
(82.303651 12.432548 6.4408234e-20)
(83.680919 13.353052 0)
(93.273393 20.887244 -1.3058849e-22)
(94.503612 17.832255 7.2956132e-20)
(92.956577 8.1008314 -1.5645188e-22)
(85.562996 -8.5862927 1.7392193e-22)
(82.749862 -13.971239 -5.02938e-20)
(81.936864 -12.941974 -2.7291947e-20)
(78.721616 -2.8531527 -2.3916041e-22)
(75.93001 9.6992352 0)
(78.360052 13.461312 0)
(82.30666 12.42332 -4.0602228e-20)
(83.683017 13.349255 0)
(84.367622 15.153136 4.9252183e-20)
(85.351855 16.062813 5.4076348e-20)
(93.286748 20.881607 -6.3274674e-20)
(94.519396 17.839507 3.4403402e-20)
(92.984133 8.1265445 3.7629829e-20)
(85.585782 -8.565945 4.2439252e-20)
(82.750751 -13.966638 9.4608455e-20)
(81.930953 -12.940799 5.2137678e-20)
(78.699453 -2.8539684 -5.7782568e-20)
(75.919673 9.6931161 0)
(78.366166 13.451541 -7.032547e-20)
(82.309214 12.413466 0)
(83.684895 13.344904 -4.1913965e-20)
(84.36811 15.149232 -4.6563172e-20)
(85.355389 16.056428 -1.0220908e-19)
(87.598584 16.866842 0)
(88.972742 18.872926 -3.0911487e-20)
(93.302288 20.871991 1.1960691e-19)
(94.538877 17.840212 -2.5351236e-22)
(93.012731 8.1536804 -3.5264521e-20)
(85.610684 -8.5441805 -3.9919212e-20)
(82.751721 -13.961608 -4.4659342e-20)
(81.92466 -12.938998 4.9206956e-20)
(78.676074 -2.8545934 1.092401e-19)
(75.908304 9.6876049 2.3626065e-22)
(78.373945 13.442325 6.6030208e-20)
(82.312387 12.402858 2.8169907e-22)
(83.687181 13.34046 3.9323531e-20)
(84.368891 15.145481 -4.3669265e-20)
(85.359719 16.050425 4.8095964e-20)
(87.605487 16.859157 2.0651185e-22)
(88.974451 18.863107 5.7906598e-20)
(92.164254 19.886157 -6.3848002e-20)
(95.583517 18.30483 3.4809272e-20)
(93.915091 11.655168 1.1376449e-19)
(93.317291 20.864933 -5.6507287e-20)
(94.557168 17.846607 2.3151377e-25)
(93.043238 8.1824676 0)
(85.639311 -8.5215351 2.9329683e-22)
(82.752751 -13.95642 8.3802271e-20)
(81.917938 -12.937029 -4.6425247e-20)
(78.651447 -2.8550987 -5.1410904e-20)
(75.896614 9.6811748 5.6897992e-20)
(78.381462 13.431783 -6.2458834e-20)
(82.315488 12.391603 0)
(83.689466 13.335554 -7.4628528e-20)
(84.369546 15.141187 4.1097048e-20)
(85.36397 16.043478 0)
(87.61237 16.850591 0)
(88.975622 18.853044 5.4850477e-20)
(92.172051 19.875904 -2.3446139e-22)
(95.621391 18.305488 0)
(94.006589 11.698695 4.9350377e-25)
(77.486387 -4.8412579 7.7751561e-20)
(58.878675 -14.73106 -4.3242992e-20)
(93.334373 20.854559 5.3800216e-20)
(94.578687 17.848221 -5.7994835e-20)
(93.075107 8.2130042 -4.9761825e-22)
(85.673984 -8.4979126 2.7635618e-22)
(82.753914 -13.951103 -7.9538438e-20)
(81.910766 -12.935043 -8.7751774e-20)
(78.625507 -2.8554725 -1.8930962e-22)
(75.884161 9.6747847 -5.3622311e-20)
(78.390177 13.421156 5.8605173e-20)
(82.319012 12.379496 4.9961538e-22)
(83.692063 13.330433 6.9693521e-20)
(84.370383 15.136875 7.7632026e-20)
(85.368825 16.036565 8.4761788e-20)
(87.620056 16.841758 3.6502488e-22)
(88.97731 18.841935 7.8882683e-26)
(92.180794 19.863461 -2.1980683e-22)
(95.661676 18.303998 6.1370326e-20)
(94.103573 11.744303 -6.6540357e-20)
(77.703886 -4.7451234 -1.458518e-19)
(59.034856 -14.678933 -8.1086201e-20)
(52.277471 -9.8371223 -8.9424405e-20)
(51.91564 0.24266489 -1.9140752e-22)
(93.351129 20.846172 -5.0620347e-20)
(94.599639 17.854165 4.278749e-22)
(93.108859 8.2452685 -6.0287459e-20)
(85.715486 -8.4728973 -2.611714e-22)
(82.755107 -13.945611 -7.4446683e-20)
(81.903094 -12.933051 8.2591725e-20)
(78.598215 -2.8557737 0)
(75.871147 9.6677504 0)
(78.399111 13.409475 5.5408286e-20)
(82.322639 12.36666 0)
(83.694772 13.324858 6.5839189e-20)
(84.371181 15.132101 -7.2166587e-20)
(85.373811 16.028868 -1.6000317e-19)
(87.627966 16.832156 1.8138564e-26)
(88.978699 18.830354 -4.878088e-20)
(92.189209 19.851443 2.0671424e-22)
(95.704325 18.303395 2.2531911e-22)
(94.206635 11.792224 -2.4494614e-22)
(77.933446 -4.6420529 1.37018e-19)
(59.203209 -14.623592 7.5993608e-20)
(52.43778 -9.8286899 8.34476e-20)
(52.099906 0.2278353 -9.1779188e-20)
(54.98282 4.7428158 0)
(54.896814 6.0457205 5.5490206e-20)
(93.369922 20.834953 -9.5212294e-20)
(94.623602 17.856399 1.0316259e-19)
(93.144102 8.2794393 5.6876744e-20)
(85.761804 -8.4461418 6.279605e-20)
(82.75637 -13.939797 1.4176335e-19)
(81.894989 -12.930901 3.0533073e-22)
(78.569505 -2.8559533 -8.6766596e-20)
(75.857437 9.660474 3.7193405e-22)
(78.409092 13.397315 -5.2147864e-20)
(82.326628 12.352899 -1.1326937e-19)
(83.697772 13.318986 -6.1911507e-20)
(84.372113 15.127187 -5.3416782e-22)
(85.379338 16.020982 7.515825e-20)
(87.636603 16.822086 -1.753799e-26)
(88.980431 18.81773 3.5357425e-22)
(92.198284 19.837703 9.921569e-20)
(95.749589 18.301232 -5.399865e-20)
(94.315975 11.842385 5.8725283e-20)
(78.177571 -4.5317664 -6.4048635e-20)
(59.384842 -14.5644 7.1146886e-20)
(52.611053 -9.8195056 0)
(52.296996 0.21194766 8.5851242e-20)
(55.176882 4.7318744 9.4206498e-20)
(55.089369 6.0481896 -5.1848967e-20)
(53.101128 9.3391483 -2.2258986e-22)
(50.894308 15.708747 2.3918279e-22)
(93.388557 20.825288 -5.8878819e-25)
(94.647461 17.862004 -9.7716694e-20)
(93.181302 8.315473 2.0889225e-22)
(85.809289 -8.4176251 5.9434872e-20)
(82.757683 -13.933666 -6.6939733e-20)
(81.886231 -12.928562 5.7503269e-22)
(78.539299 -2.85598 8.1081877e-20)
(75.843043 9.6526056 4.8033995e-25)
(78.419603 13.384137 -3.8256914e-22)
(82.330822 12.338296 1.0651982e-19)
(83.700963 13.312635 0)
(84.373053 15.121841 0)
(85.385134 16.012376 -2.7575968e-22)
(87.645628 16.811254 -7.7105125e-20)
(88.981994 18.804428 0)
(92.207217 19.823892 -9.3028529e-20)
(95.797485 18.299373 0)
(94.432124 11.894939 -5.5010532e-20)
(78.438141 -4.4138147 0)
(59.580942 -14.50091 -6.657729e-20)
(52.798492 -9.8095784 2.8684999e-22)
(52.50806 0.19492383 7.994939e-20)
(55.387004 4.7202318 -8.8026459e-20)
(55.298625 6.0509104 9.7215938e-20)
(53.268378 9.3454858 -2.0804017e-22)
(51.076017 15.707221 -2.2411848e-22)
(51.682739 18.866658 0)
(52.851984 19.79425 -2.2392701e-22)
(53.640206 20.703268 2.0959235e-22)
(93.409233 20.813009 1.6929808e-19)
(94.674261 17.864498 7.1890731e-22)
(93.220237 8.3536268 1.0019253e-19)
(85.855273 -8.3872946 -1.1183272e-19)
(82.759055 -13.927073 -1.2543281e-19)
(81.876964 -12.92589 -2.70703e-22)
(78.507511 -2.8558214 -7.6351369e-20)
(75.827947 9.6443751 -8.397141e-20)
(78.431162 13.370251 9.1943732e-20)
(82.335372 12.322689 1.001576e-19)
(83.704459 13.305909 0)
(84.374106 15.116255 0)
(85.391471 16.003427 -6.6270507e-20)
(87.655371 16.799807 2.3311526e-26)
(88.983802 18.79 -7.9637444e-20)
(92.216645 19.808526 0)
(95.848194 18.296201 3.7020359e-22)
(94.555345 11.949876 -1.0385221e-19)
(78.716546 -4.2877492 4.3788949e-22)
(59.792846 -14.432813 -2.4393483e-22)
(53.001309 -9.798961 2.6724424e-22)
(52.734313 0.17668695 -2.9310273e-22)
(55.614747 4.7078045 6.4244354e-22)
(55.526189 6.0539885 -9.0765953e-20)
(53.446687 9.3523702 4.9636935e-20)
(51.271811 15.70554 0)
(51.872626 18.857629 -5.5338131e-20)
(53.039255 19.785967 -5.5299113e-20)
(53.843249 20.694411 0)
(55.023007 22.006854 4.9723606e-20)
(53.710834 22.744702 -4.0488709e-20)
(93.429879 20.801751 -3.1163659e-22)
(94.701354 17.869736 3.3934878e-22)
(93.261429 8.3939058 -9.4644696e-20)
(85.89918 -8.3550934 -4.1188267e-22)
(82.760425 -13.920118 1.1817344e-19)
(81.866861 -12.92296 -1.3039614e-19)
(78.474034 -2.8554634 1.4346622e-19)
(75.812106 9.6355593 1.5894614e-19)
(78.443499 13.355312 -2.4328117e-25)
(82.3402 12.306126 -1.8828593e-19)
(83.708212 13.298661 -1.0318031e-19)
(84.375193 15.110225 0)
(85.398185 15.993767 6.1958162e-20)
(87.665618 16.787569 6.8679216e-20)
(88.98551 18.774703 -2.9186646e-22)
(92.226013 19.792721 0)
(95.901722 18.292937 0)
(94.68608 12.007253 1.9294324e-19)
(79.01389 -4.1530581 4.1150074e-22)
(60.021925 -14.359764 2.3633106e-24)
(53.220841 -9.7876331 -4.9958394e-22)
(52.977082 0.15696431 -7.0089517e-20)
(55.861882 4.6945427 0)
(55.773811 6.0574746 0)
(53.636326 9.3598615 -9.2958556e-20)
(51.482638 15.703706 1.0074884e-19)
(52.075701 18.84793 -4.086115e-22)
(53.237214 19.776997 5.3037733e-20)
(54.051589 20.684627 0)
(55.290074 22.004789 -4.8897737e-20)
(54.134773 22.779192 0)
(46.430008 23.243891 1.9468704e-20)
(42.667825 25.008804 9.4841583e-23)
(44.309719 28.367462 -5.1874284e-23)
(93.452594 20.787876 -7.5484182e-20)
(94.731362 17.872408 0)
(93.304736 8.4365895 -3.5036682e-22)
(85.942144 -8.3207848 7.7668213e-22)
(82.761968 -13.912576 -8.7160612e-22)
(81.856418 -12.919603 2.4648708e-19)
(78.438749 -2.8548776 6.763599e-20)
(75.795535 9.6262554 -7.4603877e-20)
(78.45697 13.339434 -1.6350802e-19)
(82.345406 12.288462 1.7760617e-19)
(83.712305 13.290967 9.6526182e-20)
(84.376385 15.103868 0)
(85.405478 15.983616 1.1626193e-19)
(87.676608 16.774598 4.9914845e-22)
(88.987401 18.758178 6.99817e-20)
(92.235767 19.775396 -2.9875322e-22)
(95.958194 18.288447 -8.2530185e-20)
(94.824647 12.067061 -9.0630363e-20)
(79.331319 -4.0091093 3.848502e-22)
(60.269665 -14.281335 -8.5058948e-22)
(53.4586 -9.7755417 4.6672735e-22)
(53.23786 0.1360252 6.5449106e-20)
(56.130404 4.6803834 7.1945584e-20)
(56.043364 6.0614575 -6.149093e-22)
(53.837421 9.3680336 -8.6317902e-20)
(51.709377 15.701713 -9.3353409e-20)
(52.293134 18.837503 4.9261276e-20)
(53.447055 19.767325 0)
(54.266261 20.673889 -4.9211939e-20)
(55.562863 22.001653 1.8695973e-22)
(54.565144 22.815118 0)
(46.996711 23.291663 -2.0703039e-20)
(43.121083 25.012735 5.0833427e-23)
(44.704552 28.333704 7.0759921e-21)
(48.960681 28.941757 8.3578039e-21)
(58.219576 26.039387 -2.7634739e-22)
(56.834512 11.455723 4.7168439e-20)
(93.475403 20.774616 -1.4236252e-19)
(94.762074 17.877653 7.7126578e-20)
(93.350665 8.4816903 3.3011477e-22)
(85.985613 -8.2843268 -3.6544033e-22)
(82.763098 -13.904641 1.0540261e-19)
(81.845133 -12.916019 -4.5211603e-22)
(78.40155 -2.8540519 -1.2724924e-19)
(75.778184 9.6163135 0)
(78.471454 13.322366 2.4722024e-25)
(82.350958 12.269699 -8.3407493e-20)
(83.71672 13.282698 3.553425e-22)
(84.377625 15.097032 -9.943075e-20)
(85.413247 15.972694 -2.1935283e-19)
(87.688198 16.760777 -4.6789402e-22)
(88.989224 18.740603 6.6072592e-20)
(92.245498 19.757326 -2.7972849e-22)
(96.017597 18.283565 7.8452422e-20)
(94.971464 12.129327 -3.300935e-22)
(79.670003 -3.8552991 9.1479056e-20)
(60.53834 -14.197076 -1.0131046e-19)
(53.716434 -9.7626794 -1.1227164e-19)
(53.518346 0.11331013 4.7645645e-22)
(56.422568 4.6652679 -6.6850169e-20)
(56.336764 6.0660475 0)
(54.049837 9.3769715 8.0417321e-20)
(51.952881 15.699545 0)
(52.526137 18.826303 -3.6060259e-22)
(53.670033 19.756935 9.4959533e-20)
(54.488473 20.662098 4.7473172e-20)
(55.842456 21.997335 3.6247356e-22)
(55.001509 22.852604 -3.2121921e-22)
(47.603671 23.342622 0)
(43.610667 25.017459 -1.3906896e-20)
(45.130157 28.297874 0)
(49.270367 28.871346 0)
(58.289104 26.004217 0)
(56.953144 11.557851 -8.8414056e-20)
(93.500334 20.758982 1.3446295e-19)
(94.795743 17.88088 -7.324241e-20)
(93.399055 8.5294784 -2.4943865e-25)
(86.030907 -8.2454261 3.4403473e-22)
(82.764907 -13.895978 -7.2534086e-26)
(81.833541 -12.911928 -1.089056e-19)
(78.362317 -2.8529365 0)
(75.760072 9.6057642 -1.3184971e-19)
(78.487226 13.304115 2.1605004e-19)
(82.356932 12.249697 3.0471805e-22)
(83.721524 13.273918 -6.6684567e-22)
(84.378965 15.089791 9.3989069e-20)
(85.421658 15.961134 1.0301241e-19)
(87.700574 16.746111 -4.3833572e-22)
(88.991177 18.721658 -1.8464595e-19)
(92.255545 19.737642 5.2445556e-22)
(96.079997 18.277418 0)
(95.126852 12.194074 7.8946052e-20)
(80.03125 -3.6910044 -8.5803681e-20)
(60.829707 -14.106432 1.9028261e-19)
(53.996621 -9.7490165 -4.0685055e-22)
(53.820492 0.088689227 -1.7049238e-19)
(56.740857 4.6491299 -4.8695866e-22)
(56.655787 6.0713805 -6.8350889e-20)
(54.273142 9.3867628 0)
(52.213919 15.697212 -8.1474242e-20)
(52.776013 18.81428 8.6943828e-20)
(53.907424 19.745811 -9.0076997e-20)
(54.719709 20.648876 0)
(56.130046 21.991875 3.5043489e-22)
(55.443734 22.891382 -4.1055753e-20)
(48.252619 23.397631 8.8737125e-23)
(44.138238 25.024212 2.968265e-20)
(45.587594 28.260442 -1.2612642e-22)
(49.601911 28.797321 7.5397611e-23)
(58.359228 25.967172 0)
(57.063435 11.663151 8.3121631e-20)
(93.525503 20.744037 1.2672273e-19)
(94.830529 17.886578 -5.1742602e-25)
(93.450377 8.5799569 -2.925263e-22)
(86.078495 -8.204113 0)
(82.766078 -13.886878 -9.3330591e-20)
(81.820857 -12.907636 1.0282262e-19)
(78.320921 -2.8515285 0)
(75.741159 9.5945168 1.2387733e-19)
(78.504256 13.284495 -1.3524263e-19)
(82.363321 12.228417 -2.8598494e-22)
(83.726714 13.264505 8.0396257e-20)
(84.380361 15.082028 0)
(85.430654 15.948741 0)
(87.713635 16.730519 4.105516e-22)
(88.993066 18.701461 2.2984753e-19)
(92.265591 19.716891 -1.2601358e-19)
(96.145339 18.270587 0)
(95.291199 12.261322 -7.3200399e-20)
(80.416599 -3.5157313 -6.2511521e-22)
(61.145236 -14.008833 -8.8614355e-20)
(54.301584 -9.7345656 9.7357299e-20)
(54.14647 0.062046125 1.0625762e-19)
(57.087887 4.6319023 0)
(57.001736 6.0776169 6.3655862e-20)
(54.506529 9.3975043 5.4401206e-22)
(52.493146 15.694673 -5.9268091e-22)
(53.044155 18.801355 -8.0986363e-20)
(54.16048 19.733936 3.2975477e-22)
(54.962808 20.634487 -3.357781e-22)
(56.425897 21.984865 -3.3707062e-22)
(55.891887 22.931198 4.04745e-20)
(48.94542 23.456421 0)
(44.705463 25.032716 4.1385022e-26)
(46.077834 28.221175 0)
(49.955121 28.719325 7.9954e-23)
(58.429839 25.928223 -4.9593872e-22)
(57.166238 11.772117 -3.8135101e-20)
(93.552883 20.727163 4.664886e-22)
(94.86835 17.890376 -5.0336723e-22)
(93.504448 8.6334223 5.5081849e-22)
(86.128976 -8.1599697 7.8116215e-20)
(82.767698 -13.876869 0)
(81.807775 -12.902697 -9.5940106e-20)
(78.277284 -2.8497528 -4.1289107e-22)
(75.721468 9.5825829 4.5551018e-22)
(78.522775 13.263472 -4.9506827e-22)
(82.370192 12.20573 0)
(83.732345 13.254503 -5.8661529e-22)
(84.381853 15.073776 8.2615878e-20)
(85.440379 15.935614 9.0801009e-20)
(87.727525 16.713967 -3.8444411e-22)
(88.995032 18.679713 3.0031163e-25)
(92.275923 19.694326 2.3438247e-19)
(96.213615 18.262338 1.2782448e-19)
(95.464784 12.331061 5.3950751e-22)
(80.827566 -3.3286232 -5.8378051e-22)
(61.48878 -13.903747 0)
(54.633622 -9.7192621 0)
(54.498623 0.033070266 0)
(57.466337 4.6135273 0)
(57.375079 6.0849763 4.6319402e-22)
(54.748761 9.4093183 -1.01279e-21)
(52.790893 15.691878 7.1177234e-20)
(53.331979 18.78742 -5.9007665e-22)
(54.430355 19.721282 8.0399076e-20)
(55.220209 20.618747 -3.1876382e-22)
(56.730277 21.976116 0)
(56.346039 22.971744 -7.8390443e-20)
(49.683916 23.518966 -1.9292815e-22)
(45.313863 25.04321 -1.6773763e-20)
(46.601615 28.180124 -1.4193469e-22)
(50.329474 28.637739 1.7083946e-22)
(58.50069 25.887626 6.0521068e-20)
(57.262255 11.88518 -2.8328212e-22)
(93.580697 20.710856 -1.1184035e-19)
(94.907714 17.896169 0)
(93.561681 8.6899381 5.1885584e-22)
(86.182076 -8.113092 -7.3771422e-20)
(82.769545 -13.866374 -3.212598e-22)
(81.793235 -12.897579 0)
(78.231197 -2.8476755 0)
(75.70098 9.5698719 4.2778779e-22)
(78.542807 13.240869 -4.6465026e-22)
(82.377553 12.181574 1.288948e-19)
(83.738423 13.243792 -2.1185526e-19)
(84.38341 15.064929 -7.6522264e-20)
(85.450809 15.9216 -1.6878319e-19)
(87.742164 16.696393 3.5992107e-22)
(88.996915 18.656521 -1.0103323e-19)
(92.286308 19.670356 -1.0980155e-19)
(96.284708 18.253083 -1.1854286e-19)
(95.647993 12.403192 -5.0353901e-22)
(81.265433 -3.1293821 0)
(61.863129 -13.790416 -6.0410163e-22)
(54.995568 -9.7029358 6.5991136e-22)
(54.879501 0.0011425491 0)
(57.878867 4.593942 3.9382483e-22)
(57.775084 6.0937153 -2.3516208e-26)
(54.99834 9.4223358 -9.4213917e-22)
(53.107252 15.688761 6.621693e-20)
(53.640992 18.772358 7.0029934e-20)
(54.718191 19.70783 -7.3947446e-20)
(55.494127 20.601544 0)
(57.043449 21.965275 0)
(56.806302 23.012756 7.631976e-20)
(50.470185 23.585152 1.9958643e-22)
(45.965025 25.055948 -1.3833776e-22)
(47.159627 28.137395 1.5051667e-22)
(50.724419 28.552804 1.7916066e-22)
(58.571347 25.84559 -5.7880201e-20)
(57.35212 12.002742 -2.6411677e-22)
(93.61088 20.692244 1.0573849e-19)
(94.950272 17.899685 -4.4617402e-22)
(93.621917 8.7498979 -3.983022e-25)
(86.237982 -8.0628808 5.390516e-22)
(82.771261 -13.854685 0)
(81.778162 -12.891594 -3.3244613e-22)
(78.182628 -2.8451203 1.683274e-25)
(75.679709 9.5563474 -1.0219865e-19)
(78.564562 13.216572 1.1179849e-19)
(82.385474 12.155822 -1.2039058e-19)
(83.745 13.232397 -5.1587712e-22)
(84.385066 15.055496 5.644444e-22)
(85.46209 15.90673 7.8392205e-20)
(87.757669 16.677717 6.7354689e-22)
(88.998838 18.631607 -9.4483273e-20)
(92.297051 19.644325 -6.6133609e-25)
(96.358534 18.242177 -7.4627552e-25)
(95.841233 12.477706 4.1622399e-25)
(81.731751 -2.9169096 2.1559206e-24)
(62.267298 -13.66798 -5.6023015e-22)
(55.39111 -9.6857011 0)
(55.291967 -0.033091472 8.5341102e-20)
(58.327929 4.573087 7.3353782e-22)
(58.199239 6.1042004 4.0114371e-22)
(55.253796 9.43671 1.1172464e-19)
(53.442076 15.685263 -4.7681242e-22)
(53.972864 18.75603 -6.5759947e-20)
(55.025231 19.693567 5.4571041e-22)
(55.78673 20.582763 0)
(57.365669 21.952193 0)
(57.2728 23.053868 0)
(51.306819 23.65488 -2.050079e-22)
(46.660856 25.07133 1.8861225e-20)
(47.752703 28.093182 2.0213273e-20)
(51.139349 28.464848 -2.4332052e-20)
(58.641129 25.802299 4.2939087e-22)
(57.436477 12.125234 0)
(93.641736 20.673366 -9.9560226e-20)
(94.994891 17.904753 0)
(93.685514 8.8133998 0)
(86.296258 -8.0094465 0)
(82.772271 -13.842452 0)
(81.761633 -12.885461 -1.5925025e-19)
(78.131249 -2.8422374 -8.8306387e-20)
(75.65765 9.541965 9.5918863e-20)
(78.588098 13.190415 -1.0404308e-19)
(82.393976 12.128373 7.9788252e-26)
(83.752093 13.220212 -9.665737e-22)
(84.386807 15.04539 1.3585633e-19)
(85.474239 15.890843 -5.7791251e-22)
(87.773975 16.657876 6.3006787e-22)
(89.000675 18.605051 8.7997884e-20)
(92.308023 19.616531 9.5530969e-20)
(96.434846 18.229868 6.9473939e-25)
(96.044973 12.554462 -3.8710628e-25)
(82.228531 -2.6901434 -1.2114035e-19)
(62.703342 -13.535765 -5.248325e-22)
(55.823592 -9.6675238 1.1481147e-21)
(55.739091 -0.070250641 -8.0736645e-20)
(58.815204 4.55091 -6.826312e-22)
(58.6429 6.1170459 5.1094937e-26)
(55.514015 9.4525362 4.0642397e-22)
(53.794833 15.681267 -5.6321472e-20)
(54.32927 18.738257 0)
(55.352753 19.678466 6.5166875e-20)
(56.100114 20.562198 0)
(57.696984 21.93846 0)
(57.745247 23.093408 7.070552e-20)
(52.196511 23.727964 4.2011482e-22)
(47.403307 25.089946 -5.894837e-20)
(48.381543 28.047651 -4.2301499e-20)
(51.57342 28.374312 2.5106444e-20)
(58.708971 25.757961 4.0532673e-22)
(57.515961 12.253066 -4.6002017e-22)
(93.675085 20.651621 -3.6589067e-22)
(95.042827 17.90746 0)
(93.752362 8.8807017 -1.1037029e-19)
(86.356947 -7.9521557 1.2212027e-19)
(82.775304 -13.828788 -5.3397118e-22)
(81.744146 -12.878204 1.5074673e-19)
(78.077195 -2.8387368 8.2900531e-20)
(75.634809 9.5266395 -9.106038e-20)
(78.613594 13.162236 0)
(82.40314 12.099105 0)
(83.759759 13.207258 1.1589601e-19)
(84.388669 15.034624 -4.9508685e-22)
(85.487417 15.873917 5.4065531e-22)
(87.791176 16.636739 0)
(89.002558 18.576561 0)
(92.319596 19.586372 1.4478658e-24)
(96.513291 18.21552 9.6972146e-20)
(96.259531 12.633268 -4.0997744e-22)
(82.757673 -2.4492132 -3.7110616e-24)
(63.179886 -13.393018 1.2581519e-19)
(56.295949 -9.6483319 -5.3367581e-22)
(56.224341 -0.11122378 -5.8269364e-22)
(59.341162 4.5274744 6.3542355e-22)
(59.099377 6.1330372 6.9394884e-22)
(55.778998 9.4699079 -7.5803247e-22)
(54.164612 15.676637 4.1124847e-22)
(54.711668 18.718872 -4.4568723e-22)
(55.702114 19.662511 -6.0798663e-20)
(56.436311 20.539648 0)
(58.037166 21.923641 -5.2128194e-22)
(58.222823 23.13015 1.0648444e-21)
(53.141858 23.804089 -4.2689531e-22)
(48.194289 25.11231 4.1384795e-20)
(49.046912 28.001244 6.5680378e-20)
(52.025662 28.281672 0)
(58.773326 25.713497 -3.8238852e-22)
(57.591194 12.386611 8.5845545e-22)
(93.709368 20.629635 0)
(95.093498 17.912058 -9.5212739e-20)
(93.822805 8.951824 1.0375809e-19)
(86.418926 -7.8911801 -1.1428739e-19)
(82.776604 -13.814413 1.2776831e-19)
(81.724794 -12.870801 0)
(78.019781 -2.8349613 -1.5439602e-19)
(75.611201 9.510305 8.4084551e-20)
(78.641103 13.131835 9.3598806e-20)
(82.413004 12.06787 9.9105283e-20)
(83.768035 13.193438 -7.3712745e-26)
(84.390653 15.023117 -4.6347385e-22)
(85.501682 15.855801 -1.2997947e-19)
(87.809215 16.614244 -4.7261866e-26)
(89.004397 18.546173 6.0048419e-22)
(92.331776 19.554063 -8.3667372e-20)
(96.593262 18.199237 -9.0515771e-20)
(96.485172 12.713914 7.6495964e-22)
(83.320379 -2.1934391 1.5153121e-24)
(63.703109 -13.238712 -1.1715772e-19)
(56.812146 -9.6280932 1.2701735e-19)
(56.751463 -0.15577924 -6.3395985e-25)
(59.904678 4.5029953 5.9105952e-22)
(59.560566 6.152627 0)
(56.051148 9.4889635 -1.800533e-19)
(54.550359 15.671135 7.6374699e-22)
(55.121666 18.697711 1.0421246e-19)
(56.074874 19.64568 -5.6202935e-20)
(56.79763 20.516059 9.3829831e-22)
(58.383731 21.9029 -1.3425538e-24)
(58.70569 23.166776 -6.5259946e-20)
(54.145078 23.882799 0)
(49.036042 25.13912 -3.3262408e-22)
(49.749729 27.954436 -4.5157347e-20)
(52.493955 28.187705 0)
(58.83874 25.668919 4.5617001e-20)
(57.662798 12.526245 3.992576e-22)
(93.746155 20.605224 -1.6725987e-19)
(95.147658 17.915022 9.0238625e-20)
(93.896828 9.0268544 0)
(86.482792 -7.825588 0)
(82.777256 -13.798317 -1.2092813e-19)
(81.705309 -12.862001 -6.2012998e-25)
(77.959671 -2.8303171 1.4487006e-19)
(75.586798 9.4928626 1.2434382e-21)
(78.67076 13.099076 -8.7040301e-20)
(82.423659 12.034518 -1.8639353e-19)
(83.776993 13.178727 0)
(84.392794 15.010842 -1.1097225e-19)
(85.517224 15.836434 1.2156427e-19)
(87.828171 16.590241 4.5920655e-26)
(89.006319 18.513575 -1.1215307e-21)
(92.345084 19.51897 6.1069248e-22)
(96.673947 18.180369 -6.5950763e-22)
(96.721909 12.796158 7.1293419e-22)
(83.917909 -1.9223364 9.9324754e-20)
(64.27319 -13.07167 -1.691233e-21)
(57.378762 -9.6066511 9.2499079e-22)
(57.323722 -0.20450411 6.5113033e-20)
(60.502641 4.4778149 -7.0907913e-20)
(60.018172 6.1757791 5.9947434e-22)
(56.336772 9.5096961 1.6660864e-19)
(54.951103 15.664339 7.0908469e-22)
(55.560807 18.674566 -9.9118379e-20)
(56.472508 19.627931 5.2730862e-20)
(57.183124 20.491033 0)
(58.738217 21.880801 0)
(59.192187 23.198824 0)
(55.206147 23.963431 -4.2991069e-22)
(49.931036 25.171203 3.4469084e-22)
(50.49088 27.907881 -4.7107713e-20)
(52.975717 28.093297 4.1817972e-22)
(58.910643 25.624611 7.9036977e-24)
(57.731449 12.672393 -4.7627545e-20)
(93.784238 20.580688 3.1281534e-19)
(95.20519 17.92047 0)
(93.974857 9.1060881 -7.1706051e-22)
(86.547658 -7.7555258 7.8946058e-22)
(82.779662 -13.781468 0)
(81.682841 -12.853014 -4.8530086e-22)
(77.895435 -2.8255464 1.369462e-19)
(75.561652 9.4743001 -5.8245069e-22)
(78.70257 13.063728 0)
(82.435157 11.998832 -5.2590941e-26)
(83.786693 13.163014 9.4357968e-20)
(84.395093 14.99768 8.1118176e-22)
(85.534135 15.815643 0)
(87.847979 16.56468 0)
(89.008223 18.478803 0)
(92.359773 19.481179 -5.6907527e-22)
(96.754251 18.15898 7.9434041e-20)
(96.969749 12.879716 0)
(84.552125 -1.6356063 -7.1932843e-22)
(64.885188 -12.890445 7.8494335e-22)
(58.00157 -9.5840866 -1.1046753e-19)
(57.943954 -0.25678793 -6.010472e-20)
(61.130117 4.452291 -4.5403548e-25)
(60.465627 6.2024776 -7.1280233e-20)
(56.647728 9.531891 -7.7058573e-20)
(55.366614 15.655812 -6.5963071e-22)
(56.030162 18.64928 0)
(56.896545 19.609224 -7.6509383e-22)
(57.591851 20.464063 8.1864365e-22)
(59.10291 21.856555 -5.5241377e-20)
(59.679909 23.225533 4.5083611e-22)
(56.318453 24.045278 -4.2648928e-22)
(50.882587 25.209426 4.4898322e-20)
(51.271283 27.862442 4.8011481e-20)
(53.468665 27.999477 -4.1648322e-22)
(58.993429 25.581126 -3.9774225e-20)
(57.797985 12.825564 -6.9379729e-22)
(93.825055 20.553011 -1.4622302e-19)
(95.266545 17.924534 0)
(94.057078 9.1899464 -6.7359993e-22)
(86.613632 -7.6801255 -9.4271666e-20)
(82.784612 -13.762604 -8.2994978e-22)
(81.658765 -12.842303 1.1743555e-19)
(77.828949 -2.8195513 -1.274274e-19)
(75.535639 9.4544679 -5.466039e-22)
(78.736596 13.02558 5.9091701e-22)
(82.447591 11.960681 8.1693414e-20)
(83.797215 13.14626 -8.9681072e-20)
(84.397575 14.983569 9.8598315e-20)
(85.552621 15.793324 -1.0664136e-19)
(87.868691 16.537353 0)
(89.0102 18.441541 -1.2519995e-19)
(92.376744 19.440008 1.3608315e-19)
(96.832865 18.134438 -7.3517678e-20)
(97.228697 12.964164 0)
(85.226491 -1.3329554 0)
(65.541661 -12.693408 7.340929e-22)
(58.68763 -9.5601208 -1.0357837e-19)
(58.614345 -0.31183226 -1.1180535e-19)
(61.78103 4.4268077 6.0795936e-20)
(60.900191 6.2333971 6.5182492e-20)
(57.00224 9.5551137 1.1266452e-21)
(55.798386 15.645267 0)
(56.53058 18.621688 -6.6086713e-22)
(57.349259 19.589379 9.1842817e-20)
(58.025284 20.435689 7.6045949e-22)
(59.478294 21.830504 -8.0782835e-22)
(60.16632 23.245178 -8.4689407e-22)
(57.461249 24.127721 -5.172161e-20)
(51.894745 25.254633 -4.6450909e-20)
(52.091751 27.819199 -3.7709874e-22)
(53.97162 27.907457 4.1368281e-22)
(59.090885 25.539027 -7.6147503e-20)
(57.863505 12.986377 -1.4793443e-24)
(93.867253 20.524091 1.3801078e-19)
(95.331783 17.93029 0)
(94.144156 9.2791122 -6.3259117e-22)
(86.680198 -7.5993921 8.9863494e-20)
(82.784824 -13.742444 9.9575396e-20)
(81.634394 -12.831221 -1.0929313e-19)
(77.757009 -2.8136531 1.1946273e-19)
(75.508911 9.4333626 -1.3137077e-19)
(78.772753 12.984271 5.5326357e-22)
(82.460995 11.919913 0)
(83.808621 13.128369 -8.2589657e-20)
(84.40022 14.968379 -9.0764881e-20)
(85.572781 15.769338 -7.720995e-22)
(87.890195 16.508143 1.074711e-19)
(89.012092 18.401722 1.1685821e-19)
(92.396887 19.395487 2.6371861e-24)
(96.908021 18.106655 0)
(97.4988 13.04889 5.7815989e-22)
(85.944389 -1.0150165 -6.2161315e-22)
(66.251877 -12.478527 -8.6482774e-20)
(59.444562 -9.5351272 -1.4923083e-21)
(59.337125 -0.37068915 1.6267354e-21)
(62.449398 4.4020124 -8.8270965e-22)
(61.324575 6.2694703 -6.1498786e-20)
(57.423665 9.5787657 -1.0452802e-21)
(56.250855 15.632923 1.1355189e-21)
(57.06237 18.591739 0)
(57.833025 19.568102 -1.6924924e-19)
(58.485121 20.406151 -7.0735592e-22)
(59.864474 21.803414 4.8923206e-20)
(60.649377 23.256032 0)
(58.586813 24.210513 5.1597882e-20)
(52.971994 25.307243 7.2547771e-22)
(52.952604 27.779527 -4.9019767e-20)
(54.485487 27.818649 0)
(59.206526 25.498921 7.048331e-20)
(57.929467 13.155527 3.8806998e-20)
(93.912 20.491941 -1.2920476e-19)
(95.40128 17.933408 0)
(94.236448 9.3736815 -1.5237728e-19)
(86.750337 -7.5122377 -1.0110218e-24)
(82.781475 -13.720263 -1.8533512e-19)
(81.606961 -12.81829 -7.9987185e-22)
(77.682468 -2.8062062 6.8985038e-25)
(75.481199 9.4105643 1.2161137e-19)
(78.811019 12.939577 -1.3124903e-19)
(82.475406 11.876493 -1.4361445e-19)
(83.820963 13.109249 -1.6490778e-25)
(84.403041 14.952024 8.483292e-20)
(85.594826 15.743576 9.1639614e-20)
(87.912469 16.4768 -1.9988465e-19)
(89.013923 18.358893 -8.5135218e-22)
(92.42229 19.34685 -2.349361e-19)
(96.977032 18.074992 -1.2883067e-19)
(97.7797 13.133225 -1.0774457e-21)
(86.709369 -0.6841537 1.1576361e-21)
(67.021868 -12.242478 8.1689748e-20)
(60.274854 -9.5082132 1.7639001e-19)
(60.112085 -0.43356603 1.5125315e-21)
(63.130807 4.3787545 1.0414195e-19)
(61.747715 6.3106259 5.7106384e-20)
(57.935922 9.6025609 0)
(56.732684 15.619456 -6.8404002e-20)
(57.625598 18.559411 3.6767306e-24)
(58.349644 19.545084 1.5890602e-19)
(58.973849 20.375622 -8.4898741e-20)
(60.261782 21.771141 0)
(61.128541 23.260776 9.4971219e-20)
(59.616538 24.293259 0)
(54.117786 25.366108 4.6528487e-20)
(53.853099 27.745785 -2.0185941e-24)
(55.01432 27.734681 -5.1323712e-20)
(59.343862 25.46146 0)
(57.997766 13.333858 0)
(93.958145 20.459718 -9.5158801e-22)
(95.474933 17.936992 -1.3115943e-19)
(94.334641 9.4738931 1.4245716e-19)
(86.825309 -7.4186687 0)
(82.783474 -13.696366 8.7575e-20)
(81.578626 -12.80466 9.6060161e-20)
(77.603702 -2.7988992 6.6462233e-25)
(75.452896 9.3863404 0)
(78.851258 12.89118 1.1607126e-24)
(82.490783 11.830193 1.3379916e-19)
(83.834267 13.088755 7.2201685e-20)
(84.405998 14.93442 -7.8646588e-20)
(85.61889 15.7159 -6.7399072e-22)
(87.935289 16.443201 9.4375708e-20)
(89.015409 18.312883 1.0171592e-19)
(92.456001 19.293291 2.1990091e-19)
(97.03529 18.040133 9.2702388e-22)
(98.070316 13.216213 -1.272796e-19)
(87.524873 -0.34143612 -1.0777004e-21)
(67.865868 -11.982923 0)
(61.185762 -9.4799683 -1.6590698e-19)
(60.936032 -0.50017516 7.0442126e-22)
(63.822904 4.358225 7.6239722e-22)
(62.183682 6.3555613 -8.2863169e-22)