/*--------------------------------*- C++ -*----------------------------------*\
| =========                 |                                                 |
| \\      /  F ield         | OpenFOAM: The Open Source CFD Toolbox           |
|  \\    /   O peration     | Version:  2506                                  |
|   \\  /    A nd           | Website:  www.openfoam.com                      |
|    \\/     M anipulation  |                                                 |
\*---------------------------------------------------------------------------*/
FoamFile
{
    version     2.0;
    format      ascii;
    arch        "LSB;label=32;scalar=64";
    class       volVectorField;
    location    "0.021";
    object      wallShearStress;
}
// * * * * * * * * * * * * * * * * * * * * * * * * * * * * * * * * * * * * * //

dimensions      [1 -1 -2 0 0 0 0];

internalField   uniform (0 0 0);

boundaryField
{
    Side
    {
        type            empty;
    }
    Inlet
    {
        type            calculated;
        value           uniform (0 0 0);
    }
    Airfoil
    {
        type            calculated;
        value           nonuniform List<vector> 
65
(
(-0.69192385 -0.085274297 3.7283059e-39)
(0.67214154 0.083288078 -4.5409817e-33)
(0.0043787567 -0.0052818163 3.0418237e-16)
(-1.6605349 -0.21312456 2.8169825e-25)
(-3.3054531 -0.4149295 1.7954979e-25)
(-4.5903309 -0.57700315 -7.409033e-23)
(-5.1395133 -0.64369967 3.1242653e-16)
(-4.9784476 -0.6240767 3.137479e-16)
(-4.4494331 -0.55613058 -7.529597e-23)
(-2.8547641 -0.36013741 -3.1577511e-16)
(-1.3936032 -0.17780463 -7.5823789e-23)
(-1.5027839 -0.1933593 7.6226397e-23)
(-2.4358414 -0.31467253 -1.6138863e-16)
(-3.4097354 -0.44200353 1.6280611e-16)
(-3.893376 -0.50237745 1.5635972e-22)
(-4.0155568 -0.51990316 -1.5839622e-22)
(-4.1438505 -0.53875497 1.1277223e-32)
(-4.5016699 -0.58715291 1.6793574e-16)
(-4.9630649 -0.64941285 -1.6958495e-16)
(-5.387405 -0.70724806 -1.7131462e-16)
(-5.6572576 -0.74463407 1.7305202e-16)
(-5.756633 -0.75896404 -1.7472759e-16)
(-5.7314861 -0.75669765 1.7638854e-16)
(-5.5911286 -0.73896221 1.7799584e-16)
(-5.4370587 -0.72066338 2.5745045e-24)
(-5.2769537 -0.70239519 -1.7285951e-22)
(-5.1197167 -0.68362928 1.7445455e-22)
(-5.0057071 -0.67029274 1.5046328e-36)
(-4.8771452 -0.65389063 -1.8643135e-16)
(-4.6813552 -0.62957532 -4.4546912e-26)
(-4.4914278 -0.60564946 -3.8029811e-16)
(-4.4053575 -0.5947256 -1.8325615e-22)
(-4.3830933 -0.59262307 -1.8519585e-22)
(-4.258308 -0.57702494 -1.9635136e-16)
(-3.9049213 -0.53122574 -6.7949216e-33)
(-3.2860024 -0.44810864 2.0050281e-16)
(-2.4838325 -0.33981827 -1.5046328e-36)
(-1.6985757 -0.23140599 3.0092655e-36)
(-1.2227004 -0.16974182 2.0817659e-16)
(-1.1055734 -0.15382489 -1.5046328e-36)
(-1.2399499 -0.17417043 -2.0457468e-22)
(-1.5519797 -0.21770685 2.1777039e-16)
(-1.9190248 -0.26920199 -2.2121185e-16)
(-2.2857892 -0.3216164 -2.2215883e-22)
(-2.6312482 -0.36923341 2.1790634e-22)
(-3.0077323 -0.42250825 1.451574e-32)
(-3.4084964 -0.48038471 -2.2600512e-22)
(-3.7107971 -0.52094558 2.3074228e-22)
(-3.8980523 -0.54912264 -1.2297021e-16)
(-3.9581242 -0.55784883 2.5074343e-16)
(-3.7939239 -0.53594028 1.2790098e-16)
(-3.3270949 -0.46994057 7.7014628e-33)
(-2.6088969 -0.36828913 1.3341961e-16)
(-1.6773788 -0.23473677 1.3652199e-16)
(-0.73832707 -0.10296442 -1.4020213e-16)
(0.11323119 0.019941747 1.4400873e-16)
(0.74621972 0.10622208 -9.1202865e-24)
(1.1535771 0.16578335 -1.5437532e-33)
(1.3034699 0.18166605 -1.5899069e-16)
(1.2828987 0.17837937 -6.3157622e-22)
(1.0841073 0.14964638 6.5974103e-22)
(0.79207806 0.10905412 9.1090032e-17)
(0.47723878 0.017071861 0)
(0.038318028 -0.027654307 -1.0123377e-16)
(-0.52221524 -0.14116655 8.1999853e-22)
)
;
    }
    Outlet
    {
        type            calculated;
        value           nonuniform List<vector> 0();
    }
    procBoundary5to4
    {
        type            processor;
        value           uniform (0 0 0);
    }
    procBoundary5to6
    {
        type            processor;
        value           uniform (0 0 0);
    }
    procBoundary5to12
    {
        type            processor;
        value           uniform (0 0 0);
    }
    procBoundary5to13
    {
        type            processor;
        value           uniform (0 0 0);
    }
}


// ************************************************************************* //
