/*--------------------------------*- C++ -*----------------------------------*\
| =========                 |                                                 |
| \\      /  F ield         | OpenFOAM: The Open Source CFD Toolbox           |
|  \\    /   O peration     | Version:  2506                                  |
|   \\  /    A nd           | Website:  www.openfoam.com                      |
|    \\/     M anipulation  |                                                 |
\*---------------------------------------------------------------------------*/
FoamFile
{
    version     2.0;
    format      ascii;
    arch        "LSB;label=32;scalar=64";
    class       volScalarField;
    location    "1.9";
    object      rho;
}
// * * * * * * * * * * * * * * * * * * * * * * * * * * * * * * * * * * * * * //

dimensions      [1 -3 0 0 0 0 0];

internalField   nonuniform List<scalar> 
19257
(
0.66590774
0.66580789
0.66579917
0.66580876
0.66580588
0.66579707
0.66578043
0.66577117
0.66577497
0.66577314
0.66576604
0.66574958
0.66573346
0.66571079
0.66570301
0.66569146
0.665686
0.66565817
0.66565953
0.66563409
0.66559503
0.6655822
0.66556499
0.66552043
0.66551447
0.665503
0.66545604
0.6654232
0.66540559
0.66537044
0.66532745
0.66528954
0.66528458
0.66528111
0.66526331
0.66525209
0.66524382
0.66522279
0.66516586
0.66527677
0.66523836
0.66495128
0.66479019
0.66510715
0.66416449
0.66369763
0.66040333
0.6621496
0.65832724
0.66591029
0.66580798
0.66580343
0.66580606
0.66580687
0.66579981
0.66578086
0.66576879
0.6657743
0.66577457
0.66576421
0.66574923
0.66574429
0.66573186
0.66571829
0.66571778
0.66569995
0.66567515
0.66567666
0.66565338
0.66562107
0.66561073
0.66560525
0.66555868
0.66555589
0.66555227
0.66552568
0.66550046
0.66549285
0.66547176
0.66545377
0.66542081
0.66542662
0.66543436
0.66543883
0.66546653
0.66548318
0.66549088
0.66559962
0.66571157
0.66583949
0.66577854
0.66542962
0.66528036
0.66608296
0.66533124
0.66343314
0.66400651
0.65526391
0.66593249
0.66581883
0.66580657
0.66580386
0.66580607
0.66579998
0.66578996
0.6657744
0.66577729
0.665778
0.66576689
0.66576689
0.66576064
0.66575642
0.66573915
0.66573343
0.66571144
0.66568633
0.66569724
0.66568995
0.66565901
0.66564095
0.66563957
0.66559724
0.66559413
0.66560197
0.66559027
0.66558427
0.66558232
0.66557679
0.66556535
0.66555672
0.6655829
0.665604
0.66562438
0.66566237
0.66574881
0.66584163
0.66595089
0.66608333
0.66629781
0.66635216
0.66602931
0.66620952
0.66647488
0.6660484
0.6652264
0.66537642
0.6582552
0.66594963
0.66583053
0.6657981
0.66580112
0.66580258
0.66580245
0.66579846
0.66578309
0.66577869
0.66578197
0.66578106
0.66578137
0.66576315
0.66576335
0.66574887
0.66574011
0.66573521
0.6657101
0.66572502
0.66571481
0.66569163
0.6656678
0.6656674
0.66564412
0.66563819
0.66564559
0.66565869
0.66567124
0.66567501
0.66567284
0.66567634
0.66569705
0.6657359
0.66577547
0.66580341
0.66587394
0.66597729
0.66610829
0.66623703
0.66645233
0.66675629
0.66692449
0.66690174
0.66705263
0.66774888
0.66763646
0.66683273
0.66705646
0.66032609
0.66594608
0.66583094
0.66578656
0.66579816
0.66579959
0.66580741
0.6658029
0.66579215
0.66577852
0.66578825
0.66578177
0.66578334
0.66576802
0.66577115
0.66575657
0.66575328
0.66575413
0.66572877
0.66573246
0.66573766
0.66572104
0.66569767
0.66569903
0.66569792
0.66568305
0.66569067
0.66573251
0.6657553
0.665766
0.66576755
0.66579051
0.66582747
0.66588916
0.66594669
0.66599653
0.6660733
0.66619001
0.66636069
0.66656508
0.66681176
0.66711758
0.66746961
0.66750296
0.66763039
0.66825183
0.66874936
0.66923736
0.6689218
0.66253077
0.66594024
0.66583126
0.66578406
0.66580024
0.66580329
0.66581094
0.6658072
0.66579766
0.66578625
0.66579169
0.66578533
0.66579343
0.66578651
0.66579009
0.66577533
0.66576792
0.66577566
0.66575022
0.66574679
0.66575884
0.66575212
0.66573584
0.66573223
0.66574999
0.6657348
0.66574587
0.66579627
0.66583225
0.66585741
0.66587039
0.66590009
0.66595434
0.66603545
0.66612068
0.66619344
0.66627994
0.66643089
0.66663108
0.66688009
0.66709934
0.66748833
0.66790444
0.66811845
0.66844254
0.66917808
0.66994867
0.67035425
0.67013091
0.6656749
0.6659351
0.66584094
0.66578775
0.66580144
0.66580551
0.66581048
0.6658123
0.66580575
0.66579699
0.66579264
0.66579697
0.66580578
0.66580528
0.66580144
0.66579401
0.6657824
0.66578881
0.66577829
0.66577045
0.66577867
0.66579015
0.66577767
0.66577046
0.66579554
0.66578794
0.66580447
0.66585804
0.665908
0.66595368
0.66598102
0.66601396
0.66607962
0.66618046
0.66629043
0.66638526
0.6665002
0.66665139
0.66686936
0.66713667
0.66745927
0.66785492
0.668323
0.6687858
0.66911052
0.6697945
0.67084686
0.67195929
0.67170588
0.66867968
0.66592575
0.66584662
0.66579408
0.66579577
0.66580153
0.66580855
0.66581564
0.66581327
0.66580551
0.66580213
0.66580582
0.66580727
0.66581326
0.66580794
0.6658064
0.66580414
0.66580514
0.66581154
0.66579629
0.66580492
0.66582795
0.66582393
0.66581545
0.66584009
0.66585148
0.66586834
0.6659226
0.66598614
0.66605091
0.66609494
0.66613248
0.66620516
0.66632115
0.66645359
0.66657762
0.66670764
0.66687457
0.66712265
0.6674432
0.66781268
0.66817509
0.66875955
0.66927756
0.66967142
0.67047422
0.67176234
0.6728705
0.67316832
0.67202731
0.66594765
0.66584896
0.66579537
0.66578618
0.66579476
0.66580268
0.66581577
0.66581767
0.66581241
0.66581173
0.66581389
0.66581751
0.66582132
0.66581627
0.66581939
0.66582491
0.66582828
0.66583865
0.66582283
0.66583501
0.66586523
0.6658689
0.6658654
0.66589021
0.66591507
0.66593192
0.66598722
0.66606019
0.66613978
0.66620652
0.66625294
0.66633002
0.6664567
0.66661171
0.66676091
0.66691674
0.66711018
0.66736623
0.66773085
0.668092
0.66853825
0.66910787
0.66970234
0.67034832
0.6712295
0.67253751
0.67407299
0.67476756
0.67488392
0.66597915
0.66584951
0.66579467
0.66577954
0.66579391
0.66580583
0.66581858
0.6658234
0.66582328
0.66581788
0.66581973
0.66583036
0.66583603
0.66583095
0.66583795
0.66584436
0.66584707
0.66585426
0.6658525
0.66586565
0.66590179
0.66591865
0.66591656
0.66593824
0.66597392
0.66599595
0.66605014
0.66613056
0.66622223
0.66631274
0.66637504
0.66645461
0.6665882
0.66676429
0.66693907
0.66711905
0.66732459
0.66760372
0.66797348
0.66841375
0.66889646
0.66945114
0.67021207
0.67097615
0.67184125
0.67326315
0.67485393
0.67623641
0.67762759
0.66600503
0.66586279
0.66579897
0.6657874
0.66580655
0.66581523
0.6658241
0.665833
0.66583447
0.66582789
0.66582751
0.66583607
0.66584726
0.66584434
0.66585044
0.66586107
0.6658696
0.66587942
0.66588289
0.66589559
0.66593566
0.66596239
0.66596581
0.66598783
0.66602875
0.66605976
0.66611318
0.66620004
0.66630166
0.66641112
0.66649394
0.66657775
0.66671327
0.66690586
0.66711074
0.66731211
0.66753919
0.6678338
0.66823244
0.66871671
0.66919399
0.66980936
0.67060013
0.67140447
0.67240456
0.67398493
0.67584477
0.67771629
0.6800319
0.66602701
0.66587159
0.66580301
0.66579615
0.66581092
0.66581903
0.66582795
0.66583756
0.66584209
0.66583907
0.66584124
0.66584454
0.66586013
0.66586362
0.66586622
0.66588003
0.66589394
0.6659071
0.66591593
0.66592407
0.66596562
0.66600153
0.66601434
0.66604005
0.66608476
0.66612344
0.66617735
0.66626731
0.66637544
0.66649734
0.66660348
0.66669666
0.66683243
0.66703561
0.66726673
0.66749193
0.66774406
0.66804971
0.66847193
0.66896765
0.6695071
0.67013909
0.67092422
0.67187628
0.67304413
0.67465274
0.67672239
0.6789019
0.68224995
0.66605299
0.66588639
0.66580454
0.66579153
0.66580589
0.66582037
0.66583061
0.66583516
0.66584675
0.66584666
0.66585391
0.6658603
0.66587302
0.66588154
0.66588314
0.66589952
0.66591831
0.66593225
0.66594337
0.66595344
0.66599542
0.66603916
0.66606062
0.66608892
0.66613757
0.66618251
0.66623765
0.66632846
0.66644178
0.66657223
0.66670077
0.66680966
0.66694676
0.66715368
0.66740653
0.66766015
0.66792565
0.66825345
0.66868602
0.66921155
0.66979229
0.6704396
0.67127029
0.67232962
0.6735744
0.67519264
0.67750166
0.68016146
0.68421183
0.66607857
0.66589266
0.66579935
0.6657903
0.66581387
0.66582497
0.66584135
0.66584466
0.66585359
0.66585073
0.66586094
0.66587282
0.66588277
0.66589438
0.66589725
0.66591292
0.66593269
0.6659522
0.66596697
0.66598008
0.66602379
0.66607274
0.66609982
0.66612905
0.66618324
0.66623578
0.6662939
0.66638624
0.66650397
0.66663979
0.6667855
0.66691296
0.66705426
0.6672608
0.66752854
0.66780656
0.66809386
0.66843987
0.66888608
0.66943965
0.67003878
0.67071807
0.67157203
0.67264468
0.67398493
0.67574593
0.67817671
0.6812689
0.68588039
0.66610458
0.66590335
0.66580081
0.66578938
0.66581864
0.66582495
0.66583593
0.66585571
0.6658523
0.66585523
0.66586797
0.66588119
0.66588976
0.66590301
0.66590909
0.66592655
0.66595026
0.66597301
0.66599031
0.66600476
0.66604815
0.66610171
0.66613718
0.66616797
0.66622485
0.66628544
0.66634755
0.66644255
0.666564
0.66670261
0.66685901
0.66700429
0.66715307
0.6673575
0.66763302
0.66793281
0.66824136
0.66860119
0.66907144
0.66963569
0.67025825
0.67097704
0.67185162
0.67295343
0.67437743
0.67629496
0.67880454
0.68213879
0.68730751
0.66613135
0.66591683
0.66579657
0.66578522
0.66581536
0.6658228
0.6658324
0.6658578
0.66585464
0.66586076
0.6658744
0.66588811
0.66589582
0.66590896
0.6659181
0.66593623
0.66596271
0.66598992
0.66601065
0.66602703
0.66606994
0.66612616
0.66616915
0.66620443
0.66626166
0.6663283
0.66639445
0.66649246
0.66661851
0.66675939
0.66692094
0.66708085
0.66724008
0.66744357
0.66772173
0.66803947
0.66836731
0.66874622
0.66922911
0.66981324
0.67046038
0.67118826
0.67208225
0.67323092
0.67470922
0.6767085
0.67936679
0.68287248
0.6885466
0.6661508
0.66592698
0.66579529
0.66578278
0.66581573
0.66583261
0.66584312
0.66585478
0.66586304
0.66586445
0.66587676
0.66589234
0.66590092
0.66591511
0.66592644
0.66594433
0.66597146
0.66600192
0.66602632
0.66604489
0.66608775
0.6661454
0.66619354
0.66623513
0.66629251
0.66636307
0.66643281
0.66653175
0.66666229
0.66680669
0.66696986
0.66713964
0.66731055
0.66751522
0.66779345
0.66812351
0.66846919
0.66886286
0.66936009
0.66995725
0.67061598
0.67136513
0.67227841
0.67344559
0.67497148
0.67701269
0.6798156
0.68352801
0.68951641
0.66616375
0.66593398
0.6657963
0.66578193
0.6658163
0.66583642
0.66585482
0.66585697
0.66585763
0.66586259
0.66587822
0.66589412
0.66590153
0.66591729
0.66593268
0.66595243
0.66598048
0.66601245
0.66603903
0.6660583
0.66610039
0.66615847
0.66620932
0.66625695
0.66631498
0.66638783
0.66646107
0.66655851
0.66669132
0.66684018
0.66700263
0.66717573
0.66735569
0.66756288
0.6678381
0.66817311
0.66853154
0.66893875
0.66944513
0.67004857
0.67071642
0.67147564
0.6723964
0.67357144
0.67514044
0.67723884
0.68010614
0.68395383
0.69015877
0.66616963
0.66593654
0.66579819
0.66578077
0.66581973
0.66584012
0.66586394
0.6658576
0.66585408
0.66586325
0.66588104
0.66589435
0.66589967
0.66591599
0.66593368
0.66595524
0.66598399
0.6660165
0.66604351
0.66606233
0.66610359
0.66616165
0.6662132
0.66626521
0.66632448
0.66639813
0.666474
0.66656831
0.66670022
0.66685251
0.6670125
0.66718359
0.66736707
0.66757582
0.66784688
0.6681812
0.66854736
0.6689639
0.66947495
0.67007732
0.67074523
0.67150357
0.67242077
0.67359861
0.67517491
0.67730001
0.6801937
0.68412399
0.69045203
0.66617019
0.66593818
0.66579921
0.66578063
0.66582156
0.66583755
0.66585602
0.66586464
0.66585852
0.66586286
0.66587937
0.66589089
0.66589619
0.66591237
0.66593032
0.66595247
0.66598204
0.66601572
0.66604282
0.66606096
0.66610106
0.66615864
0.66621015
0.66626472
0.66632509
0.66639882
0.66647598
0.66656737
0.66669808
0.66685268
0.66701004
0.66717791
0.66736133
0.66757154
0.66784128
0.66817451
0.66854595
0.66896964
0.66948247
0.67008048
0.67074588
0.67150053
0.67241159
0.67358967
0.67517075
0.67729251
0.68018268
0.68413817
0.69051768
0.66616737
0.66593735
0.6657998
0.66578155
0.66581769
0.66583486
0.66585194
0.66586794
0.66586699
0.66586088
0.66586858
0.66588214
0.66589365
0.66591194
0.6659297
0.66595077
0.66597968
0.6660139
0.66604114
0.66605946
0.6660985
0.66615496
0.66620604
0.66626149
0.66632299
0.66639761
0.6664759
0.66656601
0.66669654
0.66685216
0.66700753
0.66717287
0.66735411
0.66756549
0.66783734
0.6681713
0.66854768
0.66897823
0.66949262
0.670087
0.67075069
0.67150192
0.67240949
0.6735938
0.67517914
0.67729472
0.68018336
0.68414027
0.69051653
0.66616022
0.6659318
0.66580006
0.66578118
0.6658147
0.66583694
0.66585111
0.66586469
0.66586
0.66585373
0.66586093
0.6658757
0.66589072
0.66591009
0.665927
0.66594636
0.66597332
0.66600676
0.66603411
0.66605381
0.6660928
0.66614692
0.66619551
0.66624978
0.66631204
0.66638782
0.66646565
0.66655486
0.66668513
0.66683855
0.66699077
0.66715288
0.66732852
0.66753921
0.66781497
0.66815045
0.66852927
0.6689643
0.66947847
0.67006766
0.67072612
0.67146791
0.67237042
0.6735589
0.67513611
0.67722648
0.68007674
0.68397887
0.69026449
0.66614725
0.66592246
0.6657991
0.66578151
0.66581436
0.66583913
0.66584635
0.66585856
0.6658543
0.66585228
0.66586246
0.66587547
0.66588927
0.66590626
0.66592027
0.66593719
0.66596184
0.66599392
0.66602044
0.66604092
0.66608002
0.66613048
0.66617512
0.66622741
0.66628996
0.66636541
0.66643952
0.66652725
0.66665534
0.66680203
0.66694883
0.66710517
0.66727146
0.66747957
0.66775836
0.66809204
0.66846605
0.6688983
0.66940598
0.66998488
0.67062733
0.67135008
0.6722418
0.67341641
0.6749688
0.67700047
0.67977371
0.68356626
0.68968121
0.66612766
0.66591173
0.66579608
0.66578136
0.66581536
0.665842
0.66584842
0.66585522
0.66584853
0.66584902
0.66586179
0.66587102
0.66588168
0.66589464
0.66590653
0.66592387
0.66594784
0.66597788
0.66600182
0.66602199
0.66606087
0.66610691
0.66614759
0.6661985
0.66626109
0.66633375
0.6664021
0.66648835
0.66661172
0.66674899
0.66688897
0.66703693
0.66719205
0.66739766
0.66767822
0.66800546
0.66836823
0.66879169
0.66928828
0.66985094
0.67046851
0.671165
0.6720396
0.67319749
0.67469981
0.67665719
0.67937423
0.6829879
0.6887944
0.66610022
0.66589776
0.66579527
0.66578409
0.66581658
0.66584179
0.66584998
0.66584459
0.66583729
0.66584209
0.66585576
0.66586363
0.66587297
0.66588251
0.66589429
0.6659132
0.66593619
0.66596245
0.66598134
0.66600055
0.66603884
0.66607905
0.6661147
0.66616393
0.66622517
0.66629284
0.6663559
0.66644046
0.66655656
0.66668374
0.66681619
0.66695326
0.66709784
0.66730311
0.66758373
0.66789901
0.66824683
0.6686609
0.66914469
0.66968654
0.67027031
0.67093732
0.67179524
0.67290844
0.67435353
0.67625114
0.67877582
0.68226145
0.68766107
0.6660702
0.66588448
0.66579155
0.66578111
0.66581281
0.66583602
0.66584547
0.66583687
0.66582989
0.66583919
0.66585117
0.66585925
0.66586836
0.66587457
0.66588548
0.66590287
0.66592313
0.66594587
0.66596066
0.66597806
0.6660128
0.66604562
0.66607683
0.66612368
0.66618165
0.66624377
0.66630319
0.66638449
0.66649131
0.66660877
0.66673292
0.66685685
0.66699309
0.66720017
0.66747693
0.66777445
0.66810785
0.66851023
0.66898167
0.6694984
0.67003466
0.6706759
0.6715047
0.67259088
0.67395983
0.67584164
0.67817818
0.68136346
0.68626833
0.66603799
0.66587628
0.66579309
0.66578261
0.66580903
0.66583115
0.66584024
0.66583309
0.66582874
0.66583996
0.66584876
0.66585626
0.66586119
0.66586288
0.66587338
0.66588952
0.66590662
0.66592468
0.66593534
0.66595299
0.66598318
0.66600729
0.66603729
0.6660822
0.66613484
0.6661901
0.66624514
0.66632039
0.666418
0.66652676
0.66664025
0.66674929
0.66688083
0.66709005
0.66735637
0.6676315
0.66795119
0.66834537
0.66879928
0.66927518
0.66977626
0.67039265
0.67119753
0.67219907
0.67350912
0.67521299
0.67751673
0.68043506
0.68468729
0.66600921
0.66586365
0.66579257
0.66579209
0.66581231
0.66583152
0.66583788
0.66583042
0.66582763
0.66583657
0.66584241
0.66585183
0.66585227
0.66585286
0.6658629
0.66587464
0.66588758
0.6659005
0.66590765
0.66592449
0.66595022
0.66596794
0.66599806
0.666038
0.66608316
0.66613209
0.6661818
0.66624899
0.66633866
0.66643865
0.66653746
0.66663209
0.66676307
0.66697236
0.66721915
0.66747234
0.66778148
0.66816364
0.66859922
0.66902424
0.66947087
0.67007379
0.67083744
0.6718029
0.67311461
0.67466871
0.67665383
0.67916463
0.68284731
0.66598464
0.66585594
0.66579719
0.66579822
0.66581819
0.66583007
0.66583266
0.66582592
0.66582409
0.66583501
0.66583528
0.66584141
0.6658377
0.66583903
0.66584949
0.6658564
0.66586575
0.66587207
0.66587766
0.6658939
0.66591093
0.66592408
0.66595347
0.66598861
0.666028
0.66607128
0.66611276
0.66617229
0.66625556
0.66634364
0.66642477
0.66650932
0.6666422
0.66684519
0.66706594
0.66730013
0.66760488
0.66797208
0.66837641
0.66873892
0.66916023
0.66972268
0.67043372
0.67129676
0.67252672
0.67410199
0.67593545
0.67801199
0.68070988
0.66595812
0.66584794
0.66580029
0.66580226
0.66582087
0.66582542
0.66582732
0.66582058
0.66581704
0.66582678
0.66582973
0.66583138
0.66582351
0.66582365
0.66583317
0.66583589
0.66584452
0.66584884
0.66585166
0.66586345
0.66586976
0.66588254
0.66590629
0.66593582
0.66596954
0.66600702
0.66604022
0.66609493
0.66616957
0.66623948
0.66630462
0.66638469
0.66651954
0.666708
0.66690005
0.66712525
0.66741922
0.66777147
0.66811833
0.66841643
0.6688348
0.66940377
0.67005876
0.67094834
0.67202053
0.67330219
0.67475315
0.67657864
0.67842663
0.66595138
0.66585339
0.66580209
0.66581062
0.66582461
0.66582394
0.66582838
0.66582061
0.66581898
0.66581982
0.66582299
0.66581822
0.66581321
0.66581494
0.66581596
0.66582229
0.66582548
0.66582685
0.66582892
0.66583616
0.66583672
0.66584662
0.66586215
0.66588324
0.66591129
0.66594078
0.66596504
0.66601547
0.66607753
0.66612866
0.66618363
0.66626141
0.66639341
0.66655955
0.66672722
0.66695076
0.66722543
0.66755651
0.66783188
0.6680889
0.66846157
0.66901163
0.66959184
0.67039352
0.67148145
0.67274708
0.67402664
0.67505502
0.67568917
0.66595786
0.66586519
0.66582574
0.66582674
0.66583772
0.66582899
0.66582738
0.66582131
0.66582212
0.6658182
0.66582137
0.66581041
0.66580141
0.66580677
0.66580232
0.66580549
0.66580523
0.66580237
0.6658027
0.66580139
0.6658018
0.66580876
0.66581927
0.66583144
0.66585508
0.6658738
0.66589289
0.6659357
0.66598055
0.66601625
0.66606625
0.66614114
0.66626398
0.66640377
0.66655684
0.66677244
0.66703776
0.66731098
0.66753431
0.66776493
0.66819096
0.66866024
0.66920443
0.66997781
0.67078388
0.671676
0.67276269
0.67352804
0.672895
0.66597042
0.66585877
0.66582433
0.66583005
0.66583837
0.66582713
0.66582262
0.66581769
0.66581833
0.66581655
0.66581657
0.66580351
0.66579482
0.66579793
0.66579301
0.66578957
0.66577789
0.66577443
0.66577329
0.66576535
0.66576575
0.66576243
0.6657743
0.66577811
0.66580156
0.66580711
0.66582257
0.66585437
0.66588256
0.66590827
0.66595077
0.66602
0.66613028
0.6662436
0.66639071
0.66659308
0.66682385
0.66705367
0.6671929
0.66744372
0.66784874
0.66828064
0.66874535
0.66942441
0.6703558
0.67118208
0.67194079
0.67187631
0.66940999
0.66595165
0.66583085
0.66579777
0.66581898
0.66582969
0.66582086
0.66581543
0.66581558
0.66581105
0.66580776
0.66580009
0.66578934
0.6657857
0.66578351
0.66578065
0.66577183
0.66575355
0.66575332
0.6657447
0.66572859
0.66573223
0.66572582
0.66572464
0.66572764
0.6657484
0.66574248
0.66574898
0.66576798
0.66578433
0.66580726
0.66583643
0.66589709
0.66599118
0.66608699
0.66622631
0.66640917
0.66659922
0.6667792
0.66689115
0.66711096
0.66751194
0.66783369
0.66823476
0.66889402
0.66935443
0.66999132
0.67061422
0.67033646
0.66637598
0.66592102
0.6658244
0.6657877
0.66580332
0.66581565
0.6658099
0.665807
0.66581495
0.66580436
0.66580066
0.66579199
0.66577378
0.66577231
0.66576234
0.66576381
0.66575421
0.66573698
0.66573527
0.66571993
0.66570273
0.6657001
0.66569487
0.66568381
0.66568612
0.66569073
0.66568072
0.66567788
0.6656808
0.66568976
0.66570882
0.66572241
0.66577201
0.66585078
0.66593405
0.66605983
0.66620991
0.66636943
0.66647759
0.66658767
0.666878
0.66719846
0.66740987
0.66772002
0.66834631
0.66895657
0.66929427
0.66972254
0.66877141
0.66275829
0.66590992
0.66582129
0.66578833
0.66580203
0.66580736
0.66580108
0.66579959
0.66580408
0.66580307
0.66579357
0.66578876
0.66577287
0.6657724
0.66574709
0.66573925
0.66572572
0.66571848
0.66572249
0.66569931
0.66567937
0.66567117
0.66566281
0.66564531
0.66565123
0.66563916
0.66562337
0.66561068
0.66559854
0.66559995
0.66561319
0.66561073
0.66564674
0.66570762
0.6657792
0.66588853
0.6659946
0.66610605
0.66619794
0.66626614
0.66649791
0.66676154
0.66683772
0.66690673
0.66723992
0.66813477
0.66813886
0.6676322
0.66694048
0.66072998
0.66590341
0.66580839
0.66579328
0.66580499
0.66580137
0.66579528
0.66579547
0.66579406
0.66579182
0.66578634
0.66577866
0.66576639
0.66576662
0.66573728
0.66572533
0.66571167
0.66570537
0.66570091
0.66567589
0.66565614
0.66564057
0.66562901
0.665606
0.66560913
0.66559027
0.6655685
0.66553699
0.66552101
0.66551507
0.66552064
0.66550465
0.66552057
0.66556973
0.66562681
0.6657106
0.66578144
0.66585164
0.66588693
0.66600482
0.66618153
0.66638284
0.66635227
0.66660417
0.66673166
0.66659691
0.66754041
0.66552784
0.66474341
0.65853106
0.66590638
0.66581843
0.66580001
0.665807
0.66579661
0.66579148
0.66579163
0.66579609
0.66577973
0.66578109
0.66576992
0.66574767
0.66574143
0.66572461
0.6657232
0.66570635
0.66569627
0.6656823
0.66565299
0.66563485
0.66561069
0.66559863
0.66557332
0.66556425
0.66553613
0.66551299
0.66546763
0.6654445
0.66542881
0.66542056
0.66540388
0.66540041
0.66542738
0.66546765
0.66552142
0.6655633
0.66559292
0.66559176
0.6656577
0.66583
0.66569543
0.66574202
0.66537258
0.66586608
0.66706741
0.66596091
0.66390709
0.66372734
0.65632345
0.66591818
0.66583466
0.66580103
0.66580687
0.66579304
0.66578686
0.6657859
0.6657902
0.66577557
0.66576506
0.66575422
0.66573609
0.66572709
0.66571118
0.66570603
0.6656932
0.66568158
0.66567033
0.66563331
0.66560887
0.66558437
0.66557227
0.66554208
0.66552509
0.66548718
0.66545092
0.66539882
0.66537314
0.66535003
0.66531697
0.66529959
0.66528241
0.66528313
0.66529044
0.66531987
0.66532467
0.6652867
0.66527466
0.66528513
0.66523232
0.6652789
0.66500429
0.6651753
0.66424135
0.6632583
0.66286734
0.66140741
0.66493786
0.65755909
0.66841526
0.66870142
0.66921852
0.66868373
0.66864167
0.6683546
0.66804651
0.66776124
0.66748385
0.66722423
0.66695417
0.66676149
0.6665767
0.66636691
0.66622554
0.66605972
0.66595297
0.66587561
0.66583334
0.66582703
0.66579927
0.66577492
0.66573334
0.6656854
0.66565984
0.665657
0.66567007
0.66566806
0.6656624
0.66567101
0.66567792
0.66568494
0.66570002
0.66571229
0.66572154
0.66572944
0.66573409
0.66573706
0.66574127
0.6657468
0.66575153
0.66575832
0.66576257
0.66577143
0.66577336
0.66578454
0.66577946
0.66579183
0.66580158
0.66560544
0.66724969
0.66757368
0.66790123
0.66768804
0.6675603
0.66737952
0.66718795
0.666988
0.66680633
0.66663318
0.6664746
0.66628055
0.66613719
0.66601412
0.66592842
0.66589049
0.66585499
0.66580441
0.66573479
0.66570321
0.66568079
0.66564388
0.66562008
0.66562684
0.66562751
0.66563514
0.66563783
0.66563933
0.66565364
0.66566611
0.665675
0.66569037
0.66570516
0.66571481
0.66572409
0.6657296
0.66573322
0.66573899
0.66574514
0.66574904
0.66575632
0.66576118
0.66576969
0.66577332
0.66578404
0.66577977
0.66579289
0.66580242
0.66458151
0.666008
0.66665937
0.66654476
0.66664097
0.66657376
0.66651678
0.66646658
0.66637712
0.66628588
0.66616963
0.66602609
0.66595166
0.66592071
0.66583169
0.66578694
0.66572679
0.66564695
0.6656164
0.66559209
0.66557535
0.66558142
0.6655826
0.66557052
0.66558166
0.66558971
0.66559601
0.66560835
0.6656204
0.66563899
0.66565422
0.66566509
0.66568099
0.665698
0.66570824
0.66571875
0.66572484
0.66572958
0.66573766
0.66574336
0.66574669
0.66575452
0.66575996
0.66576844
0.66577312
0.66578383
0.66577983
0.66579362
0.66580335
0.66279145
0.66487184
0.66517562
0.66562996
0.66564827
0.66577078
0.665799
0.66580438
0.66579213
0.66576208
0.66570556
0.66570477
0.66564878
0.66556496
0.6655294
0.66549923
0.66549256
0.66550163
0.66549493
0.66550539
0.66550368
0.66550867
0.66551933
0.6655201
0.66553438
0.66555094
0.66556391
0.66558229
0.6656002
0.66562315
0.66564217
0.66565509
0.66567162
0.6656913
0.66570223
0.66571322
0.66571985
0.66572639
0.66573597
0.66574127
0.66574519
0.66575349
0.66575942
0.66576736
0.6657729
0.66578366
0.66577999
0.66579401
0.66580425
0.66246983
0.66399987
0.66458813
0.6647715
0.66489474
0.66498228
0.66503419
0.66511232
0.66515633
0.66519859
0.66523445
0.66525219
0.66526589
0.66530208
0.66529191
0.66530481
0.66532813
0.66536752
0.66537272
0.66539043
0.66540186
0.66540281
0.66542983
0.66546916
0.66549403
0.66550758
0.66552787
0.66555533
0.66557822
0.66560707
0.66563073
0.66564462
0.66566337
0.6656847
0.66569643
0.66570776
0.66571528
0.66572335
0.66573349
0.66573883
0.66574403
0.66575268
0.66575764
0.66576622
0.66577296
0.66578335
0.66578055
0.66579369
0.6658051
0.66133514
0.663395
0.66357606
0.66399497
0.66408979
0.66430167
0.66441677
0.66455777
0.66465321
0.66475375
0.66480841
0.66488474
0.66493961
0.66498497
0.66504407
0.6650712
0.66510427
0.66518277
0.6652077
0.6652321
0.66528647
0.66532197
0.66535438
0.66541038
0.66544987
0.66546391
0.66548818
0.66552937
0.66555942
0.66559065
0.66561854
0.66563398
0.66565587
0.66567843
0.66569099
0.66570262
0.66571112
0.6657206
0.66573114
0.66573702
0.66574337
0.66575145
0.66575617
0.66576544
0.66577349
0.66578296
0.66578046
0.6657933
0.66580603
0.66117245
0.66249709
0.66305218
0.66327478
0.66341315
0.66362407
0.66376687
0.66396335
0.66407823
0.66424515
0.66434673
0.66445171
0.66453059
0.66464763
0.66476652
0.66487949
0.66489097
0.66497185
0.66509905
0.66512393
0.66516209
0.66525105
0.66530077
0.66534118
0.66539725
0.66543135
0.66545474
0.66550062
0.66554148
0.66557667
0.66560641
0.66562343
0.66564925
0.6656731
0.6656859
0.66569776
0.66570761
0.66571851
0.66572901
0.66573593
0.66574276
0.66575018
0.6657561
0.66576467
0.66577342
0.66578244
0.6657801
0.66579269
0.6658068
0.65988464
0.66233538
0.66241361
0.66284039
0.66283929
0.66308183
0.66319069
0.66340145
0.66352115
0.66374914
0.66392868
0.6641242
0.66424621
0.66435796
0.66444864
0.66465842
0.66477536
0.6647748
0.66491008
0.66503435
0.66505399
0.66514039
0.66524384
0.6652896
0.665335
0.66539207
0.66542946
0.66547296
0.66552027
0.66556331
0.66559503
0.66561305
0.66564244
0.66566785
0.66568128
0.66569335
0.66570447
0.66571682
0.66572687
0.66573476
0.66574129
0.66574907
0.66575579
0.66576388
0.66577287
0.66578206
0.66578009
0.66579102
0.6658073
0.6600467
0.66090442
0.66171276
0.66226142
0.66222972
0.66265905
0.66269324
0.66296474
0.66305545
0.66329409
0.6634757
0.66374542
0.66394773
0.6641494
0.66420285
0.66434408
0.66460913
0.6646803
0.6647095
0.66490282
0.66500854
0.66504808
0.66515573
0.66524503
0.66528845
0.66534533
0.6654036
0.66545349
0.6654985
0.66554669
0.66558436
0.66560425
0.66563535
0.6656625
0.66567707
0.66568941
0.66570162
0.66571511
0.66572505
0.66573317
0.66573929
0.66574763
0.66575477
0.6657634
0.66577217
0.66578169
0.66577983
0.66578919
0.66580784
0.65835223
0.66154848
0.6606683
0.6617298
0.66154389
0.66223882
0.66227042
0.66267149
0.66276171
0.66298899
0.66309612
0.66334738
0.6635732
0.66389642
0.66409711
0.66412395
0.66434646
0.66459672
0.66463218
0.66473062
0.66492744
0.66501233
0.66506543
0.66517971
0.66526041
0.6653075
0.66536838
0.66543544
0.66548212
0.66552841
0.66557171
0.66559711
0.66562861
0.66565604
0.66567262
0.66568575
0.66569916
0.66571324
0.66572347
0.66573143
0.6657373
0.66574589
0.6657537
0.66576312
0.66577157
0.6657815
0.66577959
0.66578783
0.66580825
0.65880265
0.66024452
0.66062481
0.66144036
0.66109935
0.66171183
0.66178246
0.66219298
0.66237477
0.66269399
0.66283419
0.66308976
0.66322525
0.6634894
0.66387283
0.66408729
0.66411169
0.66437924
0.66458641
0.66462537
0.66478289
0.66495651
0.66503056
0.66510753
0.6652182
0.66528634
0.66533453
0.6654083
0.66546888
0.66551425
0.66555745
0.66558932
0.66562191
0.6656493
0.66566776
0.66568202
0.66569697
0.66571128
0.66572165
0.66572967
0.66573557
0.66574448
0.66575289
0.66576296
0.66577154
0.66578144
0.66577952
0.66578704
0.66580824
0.65666945
0.66082029
0.66010498
0.66095308
0.66074931
0.66116101
0.66125503
0.66167588
0.66189491
0.66228411
0.66255107
0.66296723
0.66313161
0.66320986
0.66348697
0.66391496
0.66406154
0.66414202
0.66441103
0.66460579
0.6646704
0.66484807
0.66499601
0.6650665
0.66516361
0.6652588
0.66531592
0.66537868
0.66544991
0.66550503
0.6655467
0.66557989
0.66561499
0.66564314
0.66566315
0.66567814
0.66569485
0.66570925
0.66571947
0.66572788
0.66573415
0.66574348
0.6657523
0.6657626
0.66577147
0.66578136
0.66577988
0.6657872
0.66580792
0.65952787
0.65744217
0.65923356
0.66000675
0.6602117
0.66088031
0.6608728
0.66134331
0.66150361
0.66189617
0.66214826
0.66257335
0.66297565
0.66323841
0.66321136
0.66358252
0.66395765
0.66409814
0.66421512
0.66449399
0.66465651
0.66474861
0.6649171
0.66504158
0.66512131
0.66521769
0.66529783
0.66536215
0.66542725
0.66549441
0.66553971
0.6655718
0.6656067
0.66563631
0.66565951
0.66567446
0.66569213
0.66570715
0.66571737
0.66572616
0.66573283
0.66574207
0.66575169
0.66576203
0.66577111
0.66578135
0.66578064
0.6657883
0.66580779
0.65350682
0.66121665
0.65856797
0.65985088
0.65977109
0.66063299
0.66071703
0.66119277
0.66126094
0.66167339
0.66188123
0.66221065
0.66250749
0.66304306
0.6633014
0.66333448
0.6637126
0.66405443
0.66415535
0.66434702
0.66458348
0.66472624
0.66484452
0.66499197
0.66510039
0.66517975
0.66527272
0.66535316
0.66541272
0.66548046
0.66553149
0.66556703
0.66559788
0.66562843
0.66565568
0.66567173
0.66568919
0.66570459
0.66571531
0.66572478
0.66573146
0.66574042
0.66575089
0.66576157
0.66577072
0.66578173
0.66578138
0.66578993
0.66580812
0.65720481
0.65895477
0.65852397
0.65962828
0.65925825
0.66010579
0.66027838
0.66091737
0.66104242
0.66151605
0.66173043
0.66212412
0.662221
0.6626407
0.66309408
0.66340493
0.66350586
0.66387905
0.66415896
0.6642678
0.6644741
0.66467926
0.66481636
0.66494399
0.66507011
0.66516245
0.66524696
0.6653383
0.66540782
0.66546444
0.66552123
0.66556084
0.66559293
0.66562082
0.66565017
0.66566994
0.6656871
0.66570124
0.66571307
0.66572364
0.66573046
0.66573921
0.66574981
0.66576124
0.66577019
0.66578246
0.6657818
0.66579211
0.6658087
0.6560591
0.6592456
0.65824367
0.65946778
0.65917912
0.6596566
0.65973669
0.66038567
0.66066556
0.66122952
0.66152741
0.66207747
0.66223287
0.6624471
0.66279094
0.66326194
0.66352023
0.66370889
0.66404398
0.66427661
0.66440075
0.66460694
0.66479214
0.66491349
0.66503802
0.66514623
0.66522962
0.66532306