/*--------------------------------*- C++ -*----------------------------------*\
| =========                 |                                                 |
| \\      /  F ield         | OpenFOAM: The Open Source CFD Toolbox           |
|  \\    /   O peration     | Version:  2506                                  |
|   \\  /    A nd           | Website:  www.openfoam.com                      |
|    \\/     M anipulation  |                                                 |
\*---------------------------------------------------------------------------*/
FoamFile
{
    version     2.0;
    format      ascii;
    arch        "LSB;label=32;scalar=64";
    class       volVectorField;
    location    "0.004";
    object      U;
}
// * * * * * * * * * * * * * * * * * * * * * * * * * * * * * * * * * * * * * //

dimensions      [0 1 -1 0 0 0 0];

internalField   nonuniform List<vector> 
13761
(
(93.587207 8.2710921 0)
(93.636434 8.8677955 0)
(93.67085 9.4731471 -2.079153e-20)
(93.711459 10.097708 2.9596374e-18)
(93.779464 10.809807 -1.2265632e-20)
(93.860615 11.516106 1.3920166e-20)
(93.940432 12.221426 -1.9595216e-18)
(94.040816 12.944408 -2.1529984e-18)
(94.121956 13.661907 0)
(94.254466 14.425152 0)
(94.412486 15.204144 0)
(94.584617 15.975801 0)
(94.773221 16.74237 -3.4051539e-18)
(94.999893 17.513832 0)
(95.249576 18.286177 2.0675349e-18)
(95.517265 19.037068 1.1123575e-18)
(95.793381 19.76075 1.1765949e-18)
(96.084567 20.453625 1.3260373e-18)
(96.395073 21.138766 -4.5192392e-20)
(96.723173 21.78762 7.8894423e-19)
(97.067682 22.413233 1.0749002e-19)
(97.421381 23.010436 -3.8883372e-23)
(97.786133 23.573701 -4.2860716e-23)
(98.146937 24.108126 -5.5598135e-19)
(98.503871 24.600143 -6.0517499e-19)
(98.858388 25.060709 -7.4099119e-19)
(99.19695 25.483237 -8.0625171e-19)
(99.536941 25.879186 -6.823426e-19)
(99.86345 26.238677 8.8380016e-23)
(100.17488 26.577294 0)
(100.48583 26.888499 6.2660604e-19)
(100.78064 27.174004 -7.1807656e-23)
(101.0525 27.440961 1.4807914e-19)
(101.32789 27.682948 0)
(101.57891 27.9074 0)
(101.81227 28.112398 3.799334e-19)
(102.04203 28.303983 0)
(102.26144 28.481262 -2.2416546e-19)
(102.46525 28.643794 0)
(102.65373 28.795154 2.6442185e-19)
(102.83729 28.936579 -1.435759e-19)
(103.01844 29.068594 0)
(103.18494 29.191134 -1.6928136e-19)
(103.3351 29.304909 -3.6757435e-19)
(103.4838 29.413165 7.9821112e-19)
(103.63625 29.517427 -4.3337104e-19)
(103.7795 29.616149 -4.7030807e-19)
(103.9071 29.708959 3.8301045e-19)
(104.03023 29.798557 2.7711396e-19)
(104.15934 29.887311 -5.2629792e-19)
(104.28991 29.974681 1.3874635e-18)
(104.41144 30.059198 -7.9728633e-19)
(104.52225 30.140722 9.6128961e-19)
(104.6299 30.221048 -8.8691307e-19)
(104.74118 30.302814 8.4912339e-19)
(104.8556 30.386011 -9.8307595e-19)
(104.96795 30.46738 -1.0665659e-18)
(105.0738 30.545711 1.121383e-18)
(105.17258 30.624558 1.2165535e-18)
(105.26604 30.710565 -1.3202562e-18)
(105.35235 30.822793 -4.6193349e-20)
(105.41657 30.998344 -5.0138713e-20)
(105.56247 31.145318 -5.4090021e-20)
(105.47231 31.219912 2.912911e-20)
(104.86127 31.13607 -3.1350178e-20)
(103.82466 30.944495 -3.3797075e-20)
(102.7357 30.737181 1.8126272e-20)
(101.59605 30.509677 1.9486176e-20)
(100.40721 30.268819 -4.1813665e-20)
(99.181974 30.015537 2.242248e-20)
(97.937477 29.745495 -1.2022097e-20)
(96.682702 29.463979 1.28799e-20)
(95.423424 29.173517 0)
(94.162309 28.875096 -1.4734032e-20)
(92.901015 28.56957 4.0374787e-18)
(91.642102 28.258 -4.3078906e-18)
(90.386123 27.941107 4.5749791e-18)
(89.131662 27.618955 1.2287659e-22)
(87.876312 27.291224 -5.2195732e-18)
(86.617098 26.95737 -5.4135499e-21)
(85.350495 26.616648 -5.7584051e-21)
(84.072287 26.268072 6.1229584e-21)
(82.777654 25.910434 -6.6674162e-18)
(81.461197 25.542316 7.0905889e-18)
(80.116629 25.161995 0)
(78.737097 24.76753 -3.9084996e-21)
(77.314651 24.356631 4.1795872e-21)
(75.839919 23.926577 2.2219201e-21)
(74.302714 23.474246 2.3842057e-21)
(72.691364 22.995353 0)
(70.991554 22.483697 0)
(69.183487 21.93734 1.2137551e-17)
(67.239272 21.346921 -2.6336217e-17)
(65.113046 20.705257 1.4380776e-17)
(62.734701 19.964948 1.5746735e-17)
(60.014001 19.115608 -1.7347857e-17)
(56.82629 18.116219 0)
(52.99192 16.907244 0)
(48.273082 15.411929 1.4568007e-21)
(42.421293 13.550795 0)
(35.370327 11.303012 0)
(27.482794 8.7853072 -9.3889695e-22)
(19.363677 6.1918194 9.8676178e-22)
(11.422102 3.6535464 0)
(3.7933101 1.212487 8.8863441e-22)
(93.542401 8.2722629 4.3328761e-18)
(93.587404 8.8692095 -1.8719898e-20)
(93.61719 9.4742636 -2.6277496e-18)
(93.653125 10.099805 -2.9001288e-18)
(93.717219 10.815738 -6.4593515e-18)
(93.792895 11.523308 -2.77378e-20)
(93.865266 12.227851 1.9838666e-18)
(93.958132 12.952726 4.2611006e-18)
(94.03592 13.67478 1.8427775e-20)
(94.157902 14.440477 2.0211609e-20)
(94.312864 15.223383 -2.2168025e-20)
(94.47069 15.997373 0)
(94.663867 16.773344 1.7013567e-18)
(94.877156 17.546978 -1.8328538e-18)
(95.119838 18.323146 -6.3621141e-20)
(95.382998 19.081268 -1.0776748e-18)
(95.655216 19.815182 3.7968127e-20)
(95.935722 20.513204 -4.1197857e-20)
(96.244191 21.206352 1.4482268e-18)
(96.564163 21.869561 -7.8970199e-19)
(96.90703 22.498715 -9.1504816e-19)
(97.255532 23.107043 5.8681339e-20)
(97.615662 23.671169 6.3894091e-20)
(97.972138 24.215145 4.872441e-19)
(98.329314 24.714422 -7.5779439e-20)
(98.682422 25.185693 -5.7768183e-19)
(99.021393 25.613979 7.1851628e-19)
(99.36216 26.018782 1.5633522e-18)
(99.6886 26.382821 -3.1884436e-19)
(99.998628 26.729097 -1.1562228e-19)
(100.31082 27.042639 0)
(100.60227 27.33404 1.3660015e-19)
(100.87605 27.605075 -2.9698085e-19)
(101.15346 27.85281 3.2282757e-19)
(101.40351 28.082718 -1.7544192e-19)
(101.63792 28.29302 -3.8119566e-19)
(101.8684 28.489799 -2.0706562e-19)
(102.08757 28.671409 2.2493437e-19)
(102.28893 28.838341 -2.4431982e-19)
(102.4748 28.994388 2.652826e-19)
(102.65759 29.141167 -2.8819412e-19)
(102.83621 29.278964 -3.128573e-19)
(102.99639 29.407411 5.0970878e-19)
(103.14066 29.528062 5.533303e-19)
(103.28577 29.644483 -2.003373e-19)
(103.43212 29.75742 -2.4011704e-23)
(103.56402 29.865021 3.5396298e-19)
(103.67889 29.967606 -5.1247603e-19)
(103.79117 30.068359 -1.3904036e-19)
(103.90888 30.169913 -7.5460888e-20)
(104.02348 30.27092 0)
(104.12438 30.368801 0)
(104.21287 30.464259 -9.6476965e-20)
(104.29844 30.560316 5.2371229e-20)
(104.38668 30.658174 0)
(104.47438 30.757217 0)
(104.55454 30.857252 -6.6935674e-20)
(104.6245 30.958268 -1.8946523e-23)
(104.68732 31.060475 0)
(104.74852 31.161585 -1.410556e-18)
(104.8116 31.254746 2.9683791e-18)
(104.89095 31.303211 -2.3329939e-22)
(104.84416 31.347599 -1.7113855e-18)
(104.57204 31.320266 1.8511201e-18)
(103.79179 31.106848 -2.0592934e-18)
(102.69235 30.803468 3.4120482e-20)
(101.5322 30.48255 -2.3495946e-18)
(100.30397 30.144287 2.5071708e-18)
(99.019635 29.790903 2.7372434e-18)
(97.693739 29.427066 -2.9407727e-18)
(96.338292 29.056885 0)
(94.964378 28.683235 0)
(93.581048 28.308254 0)
(92.193696 27.933581 3.8560272e-18)
(90.804348 27.560784 -4.1207418e-18)
(89.417617 27.188152 -8.5981554e-21)
(88.033965 26.81567 4.6937117e-18)
(86.652335 26.442803 -5.0041917e-18)
(85.270699 26.068598 1.0413584e-20)
(83.886199 25.691858 5.5457643e-21)
(82.495233 25.311212 -6.0420225e-18)
(81.093299 24.925066 6.4333519e-18)
(79.675055 24.531612 0)
(78.234307 24.128811 0)
(76.763619 23.714277 7.7904843e-18)
(75.254586 23.285344 -1.6628182e-17)
(73.697164 22.838863 8.8772567e-18)
(72.079009 22.37099 0)
(70.385751 21.877249 1.0182342e-17)
(68.599763 21.352155 -2.1893516e-17)
(66.6981 20.788594 2.3589145e-17)
(64.651795 20.177554 -1.2744417e-17)
(62.424497 19.507709 -9.8385649e-25)
(59.969442 18.764387 0)
(57.225939 17.92852 0)
(54.114689 16.974914 0)
(50.528974 15.869706 1.9896888e-17)
(46.329228 14.568522 -2.202605e-17)
(41.353881 13.019753 2.4300514e-17)
(35.482466 11.184811 -5.3615336e-17)
(28.824882 9.0974572 2.915912e-17)
(21.849075 6.9045053 0)
(15.075844 4.7701901 -9.9144502e-22)
(8.7353756 2.76738 3.3611041e-17)
(2.8463389 0.90276687 -2.9330475e-17)
(93.537355 8.8663595 -1.8624566e-20)
(93.562805 9.470667 2.6352591e-18)
(93.594762 10.097173 -2.9106706e-18)
(93.65281 10.815308 3.2235902e-18)
(93.723135 11.52353 -2.7647667e-20)
(93.789208 12.226558 1.5222293e-20)
(93.878125 12.954338 -2.1422875e-18)
(93.94563 13.678708 2.3724863e-18)
(94.067733 14.447741 -4.0374129e-20)
(94.210579 15.232047 2.8564672e-18)
(94.365052 16.011653 -1.5774767e-18)
(94.546087 16.791199 2.658353e-20)
(94.755463 17.568071 1.8616458e-18)
(94.991617 18.349868 2.0049834e-18)
(95.249197 19.113876 1.7493343e-23)
(95.512878 19.85345 3.8022319e-20)
(95.789604 20.561564 -1.3698019e-18)
(96.090124 21.258482 -2.8548044e-18)
(96.406521 21.931827 4.9424089e-20)
(96.743824 22.565935 1.7253666e-18)
(97.087921 23.18296 -3.8932857e-23)
(97.447408 23.754541 9.6091822e-19)
(97.801006 24.309358 0)
(98.157375 24.815189 -6.0801832e-19)
(98.508266 25.295084 5.7910755e-19)
(98.846698 25.730871 -1.4407801e-18)
(99.187452 26.143139 -1.4698333e-18)
(99.512961 26.513297 0)
(99.822934 26.86728 0)
(100.13812 27.18577 0)
(100.42847 27.485044 0)
(100.70569 27.760825 -1.4902932e-19)
(100.98399 28.013708 -3.2393916e-19)
(101.23278 28.24706 -1.7601448e-19)
(101.4668 28.460783 3.8248709e-19)
(101.69624 28.661077 2.0778012e-19)
(101.91421 28.846098 -4.5148933e-19)
(102.11288 29.01702 -4.7127294e-23)
(102.29639 29.177453 2.6636182e-19)
(102.47765 29.328839 0)
(102.65235 29.471383 0)
(102.80633 29.604796 -1.705293e-19)
(102.9451 29.730656 3.703568e-19)
(103.08489 29.852397 -4.0217816e-19)
(103.22279 29.970445 1.0913169e-19)
(103.3434 30.082936 1.1847463e-19)
(103.44686 30.190716 0)
(103.54753 30.297205 0)
(103.65131 30.403829 0)
(103.74924 30.508972 0)
(103.83192 30.611244 0)
(103.9012 30.711262 -9.6915349e-20)
(103.96615 30.810851 -5.2571476e-20)
(104.03177 30.911676 9.1300541e-19)
(104.09486 31.013148 -1.9817568e-18)
(104.14952 31.112717 2.2177525e-18)
(104.19272 31.209986 -1.1304405e-18)
(104.22614 31.307488 1.2660695e-18)
(104.25273 31.4087 -1.4168618e-18)
(104.2735 31.519452 1.4906043e-18)
(104.29372 31.658988 -1.5656882e-18)
(104.36853 31.78048 2.7304788e-20)
(104.20008 31.787326 2.9448112e-20)
(103.38034 31.601664 -2.5404171e-23)
(102.24663 31.307317 3.4278334e-20)
(101.05387 30.98996 0)
(99.795756 30.649586 0)
(98.484536 30.289411 2.1371861e-20)
(97.135347 29.914209 4.5938531e-20)
(95.760879 29.527965 0)
(94.370502 29.133981 -1.3251645e-20)
(92.973083 28.735588 0)
(91.577682 28.335241 0)
(90.191071 27.933379 0)
(88.810204 27.532017 8.6794576e-21)
(87.433402 27.130315 9.2618616e-21)
(86.058754 26.727593 0)
(84.683862 26.323222 0)
(83.305746 25.916393 0)
(81.920792 25.506064 5.9772429e-21)
(80.524546 25.090903 6.3653684e-21)
(79.111775 24.669321 0)
(77.676439 24.239462 0)
(76.21135 23.799108 0)
(74.708516 23.345779 0)
(73.158538 22.87655 4.3919998e-21)
(71.549962 22.387853 0)
(69.869651 21.875578 2.5158768e-21)
(68.101756 21.334755 0)
(66.225825 20.758958 -2.9112537e-21)
(64.215437 20.13987 0)
(62.035982 19.466579 -1.3978504e-17)
(59.641429 18.724565 1.5224392e-17)
(56.970303 17.894441 2.0346488e-21)
(53.938571 16.94961 0)
(50.433847 15.854611 0)
(46.311338 14.563843 1.4238497e-24)
(41.405047 13.025128 0)
(35.59982 11.202086 1.6530298e-21)
(29.010934 9.130979 -1.7934848e-21)
(22.083954 6.952158 9.5362559e-22)
(15.301817 4.8179111 -9.9650349e-22)
(8.8976193 2.8018742 -1.0297541e-21)
(2.9094477 0.91604607 -2.947037e-17)
(93.488438 8.8670181 -4.7583882e-18)
(93.508241 9.4705337 -2.0477903e-20)
(93.534209 10.098461 2.9422909e-18)
(93.589006 10.820081 3.1735006e-18)
(93.652382 11.529455 0)
(93.71289 12.231845 -1.5170073e-20)
(93.791852 12.960543 2.170545e-18)
(93.857298 13.68987 -2.3856581e-18)
(93.965132 14.45856 2.0158124e-20)
(94.111739 15.250731 4.518964e-22)
(94.255445 16.033923 1.5759049e-18)
(94.425504 16.817296 -2.6570835e-20)
(94.632356 17.602333 0)
(94.859691 18.386042 4.0408857e-22)
(95.109236 19.157236 1.1138919e-18)
(95.371028 19.906226 -1.1794154e-18)
(95.641268 20.624078 -4.1566248e-20)
(95.933693 21.320645 -3.1448386e-22)
(96.24596 22.004827 0)
(96.579298 22.644228 -8.1006356e-19)
(96.919781 23.272777 -3.8955456e-23)
(97.274318 23.851949 -1.0910827e-18)
(97.623108 24.414424 5.595515e-19)
(97.978618 24.926997 5.3318552e-19)
(98.328445 25.415993 6.63694e-19)
(98.666847 25.860575 8.1258376e-19)
(99.007903 26.279471 -9.8405028e-20)
(99.331654 26.656808 5.3464771e-19)
(99.642166 27.017711 4.652433e-19)
(99.95857 27.340847 5.0597374e-19)
(100.24545 27.645925 -5.5016566e-19)
(100.52451 27.925114 -2.9905708e-19)
(100.80253 28.182731 1.6247851e-19)
(101.0504 28.419944 5.2984422e-19)
(101.28572 28.638161 1.9189442e-19)
(101.51667 28.842864 2.0848142e-19)
(101.73472 29.031767 -6.4648785e-23)
(101.93097 29.206483 4.922378e-19)
(102.11257 29.370508 -2.6730813e-19)
(102.29284 29.525356 1.4519105e-19)
(102.46359 29.67077 -3.1527728e-19)
(102.61042 29.806532 6.8482817e-19)
(102.74312 29.935039 -7.4368161e-19)
(102.87825 30.059702 4.0366622e-19)
(103.0085 30.179966 -3.2877085e-19)
(103.11747 30.29381 1.1897849e-19)
(103.20886 30.402668 0)
(103.29931 30.510142 5.6073228e-19)
(103.39246 30.617652 -6.0878978e-19)
(103.4763 30.722641 6.6069603e-19)
(103.54197 30.822579 -1.0313419e-22)
(103.5942 30.918594 9.7180239e-20)
(103.64347 31.013719 -8.9769268e-19)
(103.69401 31.108672 9.168594e-19)
(103.74113 31.201792 -6.2302381e-20)
(103.77793 31.291606 -2.0921862e-18)
(103.8034 31.376968 1.1352227e-18)
(103.82239 31.456679 3.9745297e-20)
(103.84116 31.527235 -2.2845177e-23)
(103.86251 31.584597 0)
(103.87768 31.606788 5.0720978e-20)
(103.84019 31.627088 -5.4855017e-20)
(103.62566 31.619456 -2.9663124e-20)
(102.81962 31.4131 3.2009918e-20)
(101.69189 31.096651 2.1751092e-18)
(100.49835 30.758107 -2.3612212e-18)
(99.234939 30.397303 2.0023798e-20)
(97.915238 30.017851 -2.1532868e-20)
(96.555362 29.624749 2.9415416e-18)
(95.16922 29.222287 -3.185111e-18)
(93.766626 28.81401 -3.4037281e-18)
(92.355166 28.401919 3.6604689e-18)
(90.939888 27.987483 -3.9169072e-18)
(89.523663 27.571972 -7.9734948e-24)
(88.108099 27.155925 4.4726417e-18)
(86.693368 26.739447 9.3253637e-21)
(85.278784 26.3223 5.0902203e-18)
(83.862696 25.903927 1.7249891e-23)
(82.442519 25.483483 -5.7729552e-18)
(81.014899 25.059895 -6.1603808e-18)
(79.575605 24.631817 6.5532093e-18)
(78.119618 24.197661 -6.9730893e-18)
(76.641059 23.755568 7.4399207e-18)
(75.132774 23.303284 -7.9271802e-18)
(73.586607 22.838246 -2.4078251e-23)
(71.992735 22.357377 9.0268217e-18)
(70.339157 21.856928 0)
(68.612169 21.332619 1.0359898e-17)
(66.79533 20.779322 -1.1125473e-17)
(64.86783 20.190554 0)
(62.803712 19.558229 -1.2941457e-17)
(60.57042 18.872191 1.4024307e-17)
(58.126241 18.119397 1.5265631e-17)
(55.416991 17.282868 -3.3391512e-17)
(52.37041 16.340032 1.83437e-17)
(48.882461 15.258278 2.023842e-17)
(44.812181 13.993384 -2.2418717e-17)
(39.997005 12.49442 2.4834645e-17)
(34.322893 10.725639 -2.7325659e-17)
(27.906616 8.7234372 2.9625457e-17)
(21.191867 6.6264919 -6.2929686e-17)
(14.649833 4.5822306 6.5704096e-17)
(8.5000876 2.6594287 -6.7916363e-17)
(2.7727172 0.86760193 5.9246086e-17)
(93.440126 8.8638099 1.7954456e-20)
(93.456479 9.4667411 -2.6279873e-18)
(93.477556 10.096125 -2.8832501e-18)
(93.526135 10.818441 -3.1968201e-18)
(93.583378 11.528644 1.3725949e-20)
(93.636463 12.230021 -1.93605e-18)
(93.711662 12.9613 -2.1143763e-18)
(93.767897 13.690898 -1.8313991e-20)
(93.872029 14.464156 0)
(94.005403 15.257165 -2.8264434e-18)
(94.148387 16.046874 -2.4217137e-20)
(94.313824 16.836111 1.7258024e-18)
(94.502649 17.621396 -2.9071189e-20)
(94.728408 18.412957 -4.0421287e-18)
(94.97258 19.190977 -2.2282564e-18)
(95.225312 19.947211 1.2179193e-18)
(95.488696 20.671637 0)
(95.779872 21.37271 2.9069758e-18)
(96.085376 22.062127 -4.9563517e-20)
(96.413878 22.707039 3.4781648e-23)
(96.748077 23.34526 3.8935286e-23)
(97.09893 23.931707 -9.6478194e-19)
(97.44562 24.505175 -4.9055624e-19)
(97.800877 25.026319 -7.6374501e-20)
(98.14787 25.522256 -6.6511129e-19)
(98.485256 25.975575 8.1478625e-19)
(98.827218 26.400283 6.8960408e-19)
(99.149688 26.786682 -4.2882192e-19)
(99.462091 27.153537 -1.0497392e-18)
(99.779421 27.482641 -3.8050983e-19)
(100.06502 27.794295 -1.156611e-22)
(100.34843 28.078312 -1.5002022e-19)
(100.62696 28.341852 1.6309689e-19)
(100.87497 28.583378 -3.5442007e-19)
(101.11078 28.805906 5.7780089e-19)
(101.34151 29.013864 -2.0934669e-19)
(101.558 29.205191 -2.2742371e-19)
(101.75089 29.382092 -2.0235148e-23)
(101.93054 29.547946 -1.7791786e-23)
(102.10935 29.704452 -2.9144135e-19)
(102.2755 29.851309 -3.1647326e-19)
(102.41645 29.988298 3.437729e-19)
(102.5456 30.117942 1.8660814e-19)
(102.67682 30.243206 4.0524565e-19)
(102.79916 30.36289 -2.2011376e-19)
(102.89859 30.475141 -5.9721214e-19)
(102.98229 30.581881 0)
(103.06545 30.686714 -1.4077957e-19)
(103.14893 30.789919 7.641149e-20)
(103.22113 30.888814 0)
(103.27536 30.982161 -7.2007049e-19)
(103.31734 31.071322 8.7938027e-19)
(103.35685 31.158169 9.0130387e-19)
(103.39695 31.243442 -9.2077227e-19)
(103.43285 31.325923 -2.4023717e-23)
(103.45912 31.403244 1.0165878e-18)
(103.47451 31.475502 3.6696641e-20)
(103.48229 31.544993 -2.5538527e-18)
(103.48623 31.614745 2.8145326e-18)
(103.4884 31.686899 -5.0930407e-23)
(103.49969 31.777295 -1.6818029e-18)
(103.52291 31.838426 -1.7367049e-18)
(103.33247 31.815012 1.940722e-18)
(102.55223 31.588862 -2.0612373e-18)
(101.42985 31.257626 2.221038e-18)
(100.23721 30.902802 2.354513e-18)
(98.973506 30.524189 -2.5953944e-18)
(97.652065 30.126183 0)
(96.288495 29.714068 3.003607e-18)
(94.896962 29.292738 -1.2526639e-20)
(93.489936 28.865754 -3.4361235e-18)
(92.07439 28.435799 0)
(90.654233 28.004444 -1.5396349e-20)
(89.232466 27.572585 -4.2222487e-18)
(87.810892 27.140802 4.5022337e-18)
(86.390003 26.709264 -9.3843036e-21)
(84.969178 26.27777 0)
(83.546657 25.845748 0)
(82.119808 25.412337 2.9480755e-24)
(80.685357 24.976462 -6.2030984e-18)
(79.239247 24.536817 -6.4596631e-21)
(77.776776 24.091898 1.4070156e-17)
(76.292467 23.639958 -7.4982856e-18)
(74.779581 23.178853 0)
(73.230415 22.706144 -8.5280774e-18)
(71.635644 22.218893 8.8747261e-21)
(69.983794 21.713494 9.7384194e-18)
(68.261632 21.185797 2.548124e-21)
(66.452911 20.630709 -2.7355238e-21)
(64.536531 20.041616 0)
(62.485988 19.410251 0)
(60.267303 18.726013 -1.4124105e-17)
(57.836265 17.975125 -1.8918693e-21)
(55.135208 17.139636 1.681715e-17)
(52.087577 16.195731 -1.8475355e-17)
(48.588628 15.110835 1.2304853e-21)
(44.50092 13.842183 1.3649058e-21)
(39.668294 12.341164 2.4982702e-17)
(33.987278 10.575544 0)
(27.587176 8.5854942 4.6132017e-25)
(20.91604 6.5104044 9.6442309e-22)
(14.438224 4.4948155 0)
(8.3657214 2.604751 0)
(2.7245403 0.84834978 0)
(93.389304 8.863081 4.6624118e-18)
(93.400189 9.4655229 5.2052937e-18)
(93.417117 10.097029 2.8457137e-18)
(93.461718 10.82092 0)
(93.512679 11.533454 0)
(93.559072 12.23382 1.9290753e-18)
(93.626756 12.966145 0)
(93.679225 13.699454 -1.8261496e-20)
(93.773885 14.474308 2.5900601e-18)
(93.899541 15.273305 0)
(94.03503 16.068232 0)
(94.193917 16.859959 -3.3953416e-18)
(94.378727 17.654332 -1.8312064e-18)
(94.591646 18.449473 2.0046329e-18)
(94.828969 19.235271 -2.3055317e-22)
(95.077221 19.998775 -1.1806514e-18)
(95.336276 20.734938 -4.1632012e-20)
(95.620624 21.435872 -1.4092961e-18)
(95.921195 22.129699 -4.9654505e-20)
(96.245091 22.783862 9.2099974e-19)
(96.574873 23.429926 -1.0046797e-18)
(96.922212 24.027194 1.0951857e-18)
(97.264871 24.608328 -1.4045183e-19)
(97.61783 25.136388 6.122604e-19)
(97.96261 25.639006 5.5400545e-23)
(98.300475 26.103788 -6.351536e-19)
(98.643373 26.534329 -7.9041459e-19)
(98.962607 26.93055 1.0747871e-19)
(99.276468 27.302226 8.1880379e-19)
(99.593293 27.637737 0)
(99.877296 27.955081 4.1513678e-19)
(100.16338 28.243722 1.4755408e-23)
(100.44133 28.511824 1.6362865e-19)
(100.689 28.756256 -3.5567475e-19)
(100.92574 28.981814 -1.9313884e-19)
(101.15795 29.192424 2.1005253e-19)
(101.37413 29.386239 2.281417e-19)
(101.56533 29.565539 -2.47949e-19)
(101.74517 29.733641 -2.6927695e-19)
(101.92414 29.891967 1.4624512e-19)
(102.08694 30.039696 0)
(102.22296 30.176779 0)
(102.34898 30.306108 -1.8736251e-19)
(102.47737 30.430351 -2.0345117e-19)
(102.59397 30.547765 2.2087593e-19)
(102.68553 30.656486 4.7957557e-19)
(102.7622 30.758988 -9.1122128e-19)
(102.84011 30.858823 1.2718854e-18)
(102.91812 30.956243 -7.6782303e-20)
(102.98295 31.048312 -6.6616307e-19)
(103.02865 31.132999 0)
(103.06288 31.212023 -9.8085879e-20)
(103.09639 31.288334 -5.3246363e-20)
(103.13179 31.36221 0)
(103.16328 31.431614 -2.0800898e-23)
(103.18453 31.494794 -1.0207949e-18)
(103.19626 31.549945 1.1816852e-18)
(103.2045 31.595764 -4.0063375e-20)
(103.21488 31.631788 0)
(103.22744 31.661768 0)
(103.22771 31.66916 0)
(103.21474 31.698954 -1.7732308e-18)
(103.05656 31.690923 3.7832186e-18)
(102.34447 31.503457 -2.1050735e-18)
(101.24404 31.176819 -2.1952619e-18)
(100.06506 30.82279 4.7970518e-18)
(98.813335 30.444726 -2.5782296e-18)
(97.501502 30.046268 -2.7479892e-18)
(96.145067 29.632599 2.9736459e-18)
(94.757198 29.208258 1.2461711e-20)
(93.347978 28.77683 0)
(91.925024 28.341001 0)
(90.493626 27.902622 3.9475552e-18)
(89.057271 27.462927 -8.4056743e-18)
(87.617986 27.022602 4.5139822e-18)
(86.176642 26.581954 0)
(84.733139 26.140944 5.1420768e-18)
(83.286394 25.699208 -5.4873247e-18)
(81.834237 25.256034 -5.7147437e-21)
(80.373453 24.810376 6.0933236e-21)
(78.900259 24.36097 6.6431135e-18)
(77.410332 23.906391 1.4040104e-23)
(75.898191 23.444875 -7.5364834e-18)
(74.357014 22.974273 0)
(72.779104 22.492163 -1.6387121e-24)
(71.155228 21.995649 9.1462155e-18)
(69.474083 21.481199 -4.7648272e-21)
(67.722831 20.944799 -2.097446e-17)
(65.886121 20.381665 2.736491e-21)
(63.944304 19.785696 2.4244858e-17)
(61.871968 19.148981 1.3145428e-23)
(59.636677 18.461438 -1.418538e-17)
(57.196067 17.709904 -1.5432713e-17)
(54.494054 16.87695 1.6873764e-17)
(51.454907 15.93905 -1.854025e-17)
(47.974102 14.863748 4.0916803e-17)
(43.91412 13.608359 -2.2657863e-17)
(39.119209 12.124553 -2.5094682e-17)
(33.488321 10.380966 5.5207325e-17)
(27.155014 8.4189713 -9.0737517e-22)
(20.567877 6.377645 -6.3507454e-17)
(14.184988 4.3990674 3.3148322e-17)
(8.2120007 2.5470549 3.4264428e-17)
(2.6718923 0.8287703 -2.9894034e-17)
(93.339034 8.8587367 0)
(93.345668 9.4608665 2.5772735e-18)
(93.357129 10.09303 0)
(93.397533 10.818287 -1.2321636e-20)
(93.441813 11.532197 1.361248e-20)
(93.48159 12.230732 0)
(93.542636 12.963986 0)
(93.59025 13.698861 2.3316393e-18)
(93.676742 14.476965 -2.5637805e-18)
(93.799088 15.280299 -2.8171827e-18)
(93.919342 16.078678 0)
(94.076231 16.874692 1.7222577e-18)
(94.254623 17.673364 3.6886488e-18)
(94.456637 18.473517 0)
(94.687919 19.268165 1.114183e-18)
(94.930764 20.038887 1.2188228e-18)
(95.183505 20.780981 0)
(95.461241 21.485688 1.456292e-18)
(95.759434 22.187704 0)
(96.074566 22.846321 -8.677925e-19)
(96.398837 23.501116 8.8764395e-19)
(96.741531 24.104486 6.4563372e-20)
(97.080542 24.693745 -4.9262444e-19)
(97.433888 25.232377 -6.9005323e-19)
(97.776844 25.743856 6.6833152e-19)
(98.114038 26.217756 7.278482e-19)
(98.456119 26.652709 7.9224784e-19)
(98.773045 27.058469 1.0776637e-19)
(99.090652 27.43528 -4.6923444e-19)
(99.407015 27.778505 -1.2765024e-19)
(99.691001 28.101766 5.5527106e-19)
(99.980674 28.395553 -6.4026364e-23)
(100.25811 28.668964 0)
(100.50655 28.917764 -7.3205621e-23)
(100.74505 29.148105 -3.8777396e-19)
(100.97887 29.362167 0)
(101.1945 29.558582 -4.5794003e-19)
(101.38395 29.739751 2.4882827e-19)
(101.56391 29.908807 0)
(101.7426 30.067044 0)
(101.90173 30.21359 0)
(102.03413 30.348929 -5.1945265e-19)
(102.15958 30.476364 5.6418147e-19)
(102.28645 30.59782 2.0418462e-19)
(102.39784 30.710989 -5.5426335e-19)
(102.48415 30.814511 -1.2029748e-19)
(102.55864 30.911403 5.2282061e-19)
(102.63516 31.005156 5.6748151e-19)
(102.70965 31.094937 -5.3911812e-19)
(102.76947 31.177726 0)
(102.81134 31.253049 7.2591035e-19)
(102.84393 31.322894 -7.8802047e-19)
(102.87665 31.389015 5.3447235e-20)
(102.91042 31.451687 9.2826993e-19)
(102.93935 31.50957 -9.445492e-19)
(102.95865 31.56071 1.9370561e-23)
(102.96852 31.606394 1.2235908e-18)
(102.97317 31.650679 -2.5751737e-18)
(102.97659 31.696797 1.3972341e-18)
(102.98159 31.741209 -1.4686774e-18)
(102.99993 31.795414 3.2887367e-18)
(102.99864 31.814659 -3.5963301e-18)
(102.87208 31.789116 1.9647969e-18)
(102.22505 31.583667 3.2642954e-20)
(101.14532 31.24528 -3.5149819e-20)
(99.976688 30.881477 2.4202549e-18)
(98.733977 30.49438 -2.6017167e-18)
(97.428812 30.087957 -2.8164062e-18)
(96.076692 29.667293 -2.34233e-20)
(94.691057 29.236656 6.4355341e-18)
(93.282339 28.799317 1.3475981e-20)
(91.858204 28.357662 -3.6982722e-18)
(90.424094 27.913385 -1.547779e-20)
(88.983752 27.467633 2.3011169e-24)
(87.539261 27.020803 -8.7549325e-21)
(86.091578 26.573403 0)
(84.640615 26.125327 -9.9999239e-21)
(83.185319 25.676218 5.4642409e-18)
(81.723984 25.225525 3.777483e-24)
(80.254661 24.772609 -6.2270752e-18)
(78.774322 24.316601 0)
(77.278328 23.856088 7.0802523e-18)
(75.760407 23.388983 -7.55977e-18)
(74.213686 22.913168 0)
(72.630664 22.426305 8.6062956e-18)
(71.002308 21.925546 -9.182597e-18)
(69.317371 21.407362 2.3985744e-21)
(67.562794 20.867668 -1.0531909e-17)
(65.72262 20.301493 2.2619741e-17)
(63.776344 19.702471 -1.2181939e-17)
(61.697936 19.062511 1.6057923e-21)
(59.454771 18.371511 -1.4253783e-17)
(57.004514 17.616352 1.5504116e-17)
(54.291619 16.779831 0)
(51.24155 15.838871 0)
(47.751367 14.761605 0)
(43.685418 13.506047 0)
(38.89 12.024627 0)
(33.266289 10.286748 0)
(26.950461 8.3344883 0)
(20.392858 6.3070973 3.1890126e-17)
(14.050502 4.3459258 -3.3292055e-17)
(8.1263928 2.513772 0)
(2.6411596 0.81703866 -4.5809071e-22)
(93.289641 9.4598294 -5.1209306e-18)
(93.297142 10.092584 0)
(93.331057 10.819409 0)
(93.369977 11.53481 3.4552576e-18)
(93.403036 12.232891 1.4958492e-20)
(93.458259 12.96774 -2.1107187e-18)
(93.49683 13.703949 -4.6491377e-18)
(93.579358 14.487061 -1.9977956e-20)
(93.690035 15.293724 2.8329597e-18)
(93.811419 16.099365 0)
(93.950198 16.895064 0)
(94.122256 17.699473 -1.8861088e-18)
(94.323844 18.508655 6.3592652e-20)
(94.542064 19.307894 -1.6573731e-23)
(94.778879 20.08527 -1.9450752e-23)
(95.028836 20.836754 -4.1673728e-20)
(95.301429 21.549404 -1.4569886e-18)
(95.590448 22.25426 -4.9725544e-20)
(95.899015 22.922371 5.432427e-20)
(96.220721 23.585279 -1.0076122e-18)
(96.559786 24.196331 6.4668076e-20)
(96.89637 24.79406 1.691821e-18)
(97.247688 25.341132 -6.9152109e-19)
(97.585436 25.858436 -5.8588128e-19)
(97.922311 26.341996 1.6984738e-22)
(98.264873 26.783912 -7.9437894e-19)
(98.580221 27.201243 -3.2432519e-19)
(98.900923 27.583206 -1.1765751e-19)
(99.214938 27.933962 1.279386e-19)
(99.498775 28.261882 -6.9603334e-19)
(99.790972 28.561018 1.514081e-19)
(100.06833 28.839012 -3.6112066e-23)
(100.3176 29.091333 -1.580189e-22)
(100.5576 29.324869 -8.5521367e-23)
(100.7934 29.540973 -4.2294102e-19)
(101.00869 29.738844 2.2974407e-19)
(101.19776 29.920735 -2.4960935e-19)
(101.37982 30.09022 2.7127911e-19)
(101.55944 30.248468 -2.9460076e-19)
(101.71646 30.394417 6.4008692e-19)
(101.84754 30.528506 -3.4768021e-19)
(101.97386 30.654189 0)
(102.10059 30.773137 -4.0991164e-19)
(102.20949 30.88263 1.0015885e-18)
(102.29309 30.981498 -3.6255849e-19)
(102.3663 31.073105 -6.5591417e-19)
(102.44241 31.160566 1.4252935e-19)
(102.51609 31.243203 1.1597343e-18)
(102.57431 31.318222 -7.5540189e-19)
(102.61444 31.384385 8.1991285e-19)
(102.64604 31.443883 -6.7112172e-23)
(102.67905 31.49974 -8.5874986e-19)
(102.71423 31.552087 -5.8258951e-20)
(102.74502 31.598937 0)
(102.7661 31.639002 -6.8604366e-20)
(102.77927 31.671636 -3.7225549e-20)
(102.79051 31.696728 0)
(102.80462 31.714384 0)
(102.81957 31.731858 1.0708905e-23)
(102.82164 31.738649 -5.1595971e-20)
(102.81881 31.762721 -1.7637211e-18)
(102.7243 31.758923 2.9510945e-23)
(102.16539 31.603587 2.1025918e-18)
(101.11497 31.274862 0)
(99.959545 30.912157 3.8174481e-20)
(98.727797 30.52525 2.0546971e-20)
(97.430046 30.11695 -2.210035e-20)
(96.082099 29.692768 3.0397956e-18)
(94.69808 29.257551 -3.27616e-18)
(93.289137 28.815039 -1.3670576e-20)
(91.863567 28.367975 -3.7497639e-18)
(90.427233 27.918272 4.0130822e-18)
(88.984338 27.467279 4.2829118e-18)
(87.537417 27.016043 -8.8536699e-21)
(86.087088 26.564476 -4.8368846e-18)
(84.632878 26.112467 1.0079373e-20)
(83.173312 25.659526 -1.0750096e-20)
(81.705983 25.20486 0)
(80.227668 24.747424 6.1024413e-21)
(78.734129 24.285762 6.6610222e-18)
(77.220726 23.818346 -7.1262325e-18)
(75.683026 23.344221 0)
(74.115573 22.860976 -3.9231552e-21)
(72.511271 22.366691 0)
(70.861373 21.858606 -4.4718837e-21)
(69.155082 21.333292 -9.8177438e-18)
(67.379768 20.786818 -1.9499113e-24)
(65.519694 20.214327 2.2731677e-17)
(63.555145 19.609652 -1.2236715e-17)
(61.461484 18.965143 -1.3208178e-17)
(59.206503 18.270803 1.7427634e-21)
(56.748014 17.513566 1.5568597e-17)
(54.030476 16.676249 -1.7015806e-17)
(50.979264 15.735776 3.7386536e-17)
(47.491399 14.660321 -2.0627819e-17)
(43.431409 13.408025 0)
(38.646308 11.931624 -2.5308501e-17)
(33.039024 10.201122 -2.44926e-24)
(26.748489 8.259397 6.033515e-17)
(20.226097 6.2458181 -6.4056497e-17)
(13.926467 4.3007752 3.3433751e-17)
(8.0496009 2.4860396 3.4561082e-17)
(2.6143293 0.80744159 -3.0155825e-17)
(93.234744 9.4544389 2.5437812e-18)
(93.237904 10.087362 2.2031342e-20)
(93.267658 10.816598 -2.4385439e-20)
(93.298067 11.532006 -3.4112864e-18)
(93.325502 12.228545 -1.4894971e-20)
(93.372396 12.962726 2.0861993e-18)
(93.40898 13.70251 2.3169726e-18)
(93.475995 14.486919 3.985375e-20)
(93.588052 15.300555 -2.1916345e-20)
(93.697902 16.107266 1.5169144e-18)
(93.835528 16.906621 1.7180652e-18)
(93.993051 17.715107 -2.898377e-20)
(94.184444 18.525604 6.3550149e-20)
(94.400896 19.333281 -6.9607681e-20)
(94.631724 20.115352 7.6192478e-20)
(94.875625 20.876064 -1.3754296e-18)
(95.141045 21.594446 0)
(95.423414 22.309156 7.9661371e-19)
(95.727805 22.985936 0)
(96.041643 23.653643 1.8989757e-18)
(96.375285 24.271625 -6.4722676e-20)