/*--------------------------------*- C++ -*----------------------------------*\
| =========                 |                                                 |
| \\      /  F ield         | OpenFOAM: The Open Source CFD Toolbox           |
|  \\    /   O peration     | Version:  2506                                  |
|   \\  /    A nd           | Website:  www.openfoam.com                      |
|    \\/     M anipulation  |                                                 |
\*---------------------------------------------------------------------------*/
FoamFile
{
    version     2.0;
    format      ascii;
    arch        "LSB;label=32;scalar=64";
    class       volVectorField;
    location    "0.0155";
    object      U;
}
// * * * * * * * * * * * * * * * * * * * * * * * * * * * * * * * * * * * * * //

dimensions      [0 1 -1 0 0 0 0];

internalField   nonuniform List<vector> 
13761
(
(83.647686 192.20345 0)
(84.242127 194.66565 2.5676174e-19)
(84.829983 196.99822 -5.647899e-19)
(76.28233 177.31598 2.9558722e-19)
(76.69505 180.4328 3.236815e-19)
(77.133341 183.43303 -2.6987015e-19)
(77.586154 186.30397 -2.9306567e-19)
(78.050769 189.05266 2.1611244e-19)
(78.522779 191.6765 0)
(79.0016 194.17392 0)
(79.48392 196.5471 7.0420211e-20)
(79.965032 198.80187 7.7664264e-20)
(71.215955 166.49685 1.1163723e-19)
(71.376998 169.93976 -1.21405e-19)
(71.572443 173.27408 1.3483608e-19)
(71.804519 176.50747 -1.4745187e-19)
(72.070341 179.63674 -1.6210972e-19)
(72.360385 182.63951 1.5277426e-21)
(72.675284 185.52186 1.9737612e-19)
(73.017143 188.30142 -1.0828597e-19)
(73.37871 190.96533 2.3547556e-19)
(73.745588 193.48948 -2.5998003e-19)
(74.116449 195.88546 0)
(74.494428 198.1695 1.5389782e-19)
(74.87265 200.33635 -3.4016383e-19)
(67.641967 150.919 -1.3952089e-22)
(67.453679 154.65771 0)
(67.313338 158.3256 2.3173951e-22)
(67.219715 161.91458 1.7060436e-21)
(67.176068 165.43414 3.3262558e-19)
(67.180903 168.87085 -1.2240299e-19)
(67.229766 172.20405 -1.1514507e-22)
(67.319881 175.44102 -7.4439643e-20)
(67.45097 178.58517 0)
(67.614552 181.61387 0)
(67.801415 184.51728 1.9613666e-19)
(68.00936 187.30252 -1.0935715e-19)
(68.234353 189.96549 -2.36037e-19)
(68.476158 192.50538 2.6059283e-19)
(68.732237 194.92541 0)
(68.997326 197.22822 7.7393058e-20)
(69.270182 199.41391 3.387604e-19)
(65.567801 138.42914 3.171078e-19)
(65.075956 142.2616 -2.3653651e-19)
(64.630649 146.05124 1.3226234e-19)
(64.233531 149.80209 8.5493541e-22)
(63.893969 153.51818 0)
(63.603645 157.16291 0)
(63.361919 160.73568 0)
(63.174107 164.25017 -1.1018354e-19)
(63.035423 167.682 -1.224562e-19)
(62.935171 171.00928 1.3526334e-19)
(62.8765 174.24407 5.651353e-22)
(62.85745 177.38033 -8.2023189e-20)
(62.869611 180.39408 2.6912271e-19)
(62.91487 183.29474 -1.9813882e-19)
(62.995001 186.09852 0)
(63.102812 188.78725 2.3660184e-19)
(63.226368 191.33779 -3.2655892e-19)
(63.364276 193.76277 7.1565057e-20)
(63.519134 196.0784 0)
(63.684721 198.27746 0)
(63.857588 200.35701 3.7128391e-19)
(64.836488 125.91004 0)
(64.072992 129.70863 0)
(63.342646 133.49186 -9.5612126e-20)
(62.656095 137.27624 -8.1027515e-23)
(62.025772 141.06796 0)
(61.438018 144.82219 -1.3217622e-19)
(60.898914 148.54549 -2.922579e-19)
(60.411786 152.23497 8.2380631e-20)
(59.969421 155.85588 1.8130705e-19)
(59.572983 159.40592 0)
(59.227114 162.89407 0)
(58.929678 166.30201 2.4456547e-19)
(58.678611 169.61176 -6.7714606e-20)
(58.473793 172.83334 -1.475055e-19)
(58.314609 175.96537 8.283526e-20)
(58.193832 178.98289 9.1064336e-20)
(58.10476 181.88089 0)
(58.04548 184.66554 -5.4512511e-20)
(58.012588 187.33075 0)
(58.0058 189.87664 1.3046657e-19)
(58.023324 192.30818 -7.1100283e-20)
(58.060003 194.62514 0)
(58.114326 196.82683 0)
(58.182181 198.9082 -4.6932971e-20)
(58.260438 200.8749 4.0681836e-19)
(65.222655 113.72867 5.2734788e-20)
(64.244658 117.39636 5.9711837e-20)
(63.295203 121.10037 1.3453512e-19)
(62.369703 124.82963 0)
(61.480324 128.58024 0)
(60.617812 132.3126 1.8913556e-19)
(59.790283 136.05504 -2.119787e-19)
(59.013787 139.80994 -1.1862166e-19)
(58.27595 143.52422 1.3148303e-19)
(57.582271 147.20548 0)
(56.939774 150.85208 0)
(56.345257 154.4304 -9.0130008e-20)
(55.79934 157.94357 1.0050525e-19)
(55.307337 161.40443 -1.1037152e-19)
(54.866952 164.78605 9.0013309e-22)
(54.468803 168.06746 1.3407754e-19)
(54.116483 171.26531 -2.9847027e-19)
(53.808501 174.36927 8.101344e-20)
(53.538042 177.35533 -1.8105775e-19)
(53.307612 180.23662 0)
(53.118658 183.02642 2.7093838e-19)
(52.964476 185.70216 -1.7224972e-21)
(52.83622 188.24358 -2.9471639e-19)
(52.732406 190.66346 0)
(52.654816 192.97705 -3.1242715e-19)
(52.598331 195.17599 3.8696367e-19)
(52.559579 197.25783 4.6608028e-20)
(52.537051 199.22693 0)
(52.526143 201.08183 -4.7336334e-19)
(66.48511 102.16268 0)
(65.383346 105.6614 -2.0669821e-19)
(64.279736 109.17019 4.6851993e-20)
(63.149915 112.70113 0)
(62.060233 116.32091 -1.7892434e-19)
(60.992232 119.9743 -2.0117694e-19)
(59.944761 123.6542 7.5182928e-20)
(58.924162 127.35228 8.4760652e-20)
(57.924279 131.03641 0)
(56.963528 134.73539 1.0573603e-19)
(56.051447 138.4363 1.7699264e-19)
(55.175806 142.09469 -6.6170806e-20)
(54.346528 145.73172 0)
(53.566634 149.33753 0)
(52.82873 152.87639 9.0155303e-20)
(52.13459 156.35165 -2.0059229e-19)
(51.490944 159.77257 -5.5676174e-20)
(50.894806 163.11397 0)
(50.345538 166.36253 6.7423131e-20)
(49.845844 169.53147 -5.7942842e-22)
(49.395069 172.6124 8.1828434e-20)
(48.98758 175.58014 -1.8006485e-19)
(48.61951 178.4357 3.4737182e-19)
(48.289159 181.18314 -2.1886176e-19)
(47.994233 183.81445 -2.3840371e-19)
(47.734022 186.33058 2.3049182e-19)
(47.507225 188.73868 2.5018335e-19)
(47.309462 191.03639 -5.8920133e-19)
(47.138963 193.22186 6.8804736e-19)
(46.992299 195.28984 -7.5163359e-19)
(46.866327 197.24574 4.1172174e-19)
(46.761766 199.1051 -2.8165234e-20)
(46.679372 200.87272 0)
(68.386401 91.480489 -4.9321425e-20)
(67.196608 94.687097 5.6389049e-20)
(65.985674 97.9425 1.283148e-19)
(64.762503 101.27552 3.6314902e-20)
(63.564059 104.72708 2.8877236e-19)
(62.349414 108.1774 -4.6604689e-20)
(61.11647 111.65689 5.2904872e-20)
(59.916016 115.22787 1.7828085e-19)
(58.731773 118.82577 -3.4818359e-22)
(57.562698 122.44951 -3.0186593e-19)
(56.418437 126.09029 -8.40072e-20)
(55.29411 129.71295 0)
(54.2026 133.35157 0)
(53.15247 136.99632 -5.8993912e-20)
(52.134146 140.60513 6.6199847e-20)
(51.155148 144.18786 7.3192021e-20)
(50.21954 147.73306 -8.1908802e-20)
(49.328671 151.21143 0)
(48.48503 154.63115 0)
(47.694591 158.00301 1.6606916e-19)
(46.956657 161.29652 -1.2324638e-19)
(46.26446 164.49516 6.7022065e-20)
(45.621832 167.61886 7.3368781e-20)
(45.027257 170.65165 -1.6521367e-19)
(44.47599 173.57214 -2.2594852e-19)
(43.970397 176.39693 1.9934658e-19)
(43.511635 179.13463 -5.4024024e-20)
(43.093763 181.75966 2.3982818e-19)
(42.711244 184.25667 -1.6490329e-19)
(42.362732 186.6378 3.5828948e-20)
(42.049092 188.9163 1.1790743e-19)
(41.766513 191.08333 -6.5577674e-20)
(41.51188 193.1369 -3.7692855e-19)
(41.283523 195.08178 4.1180099e-19)
(41.077804 196.91694 -3.9344716e-19)
(40.889661 198.63978 -1.4183809e-20)
(70.665656 81.741079 1.9810587e-19)
(69.442817 84.607034 -3.7506339e-20)
(68.186339 87.592484 2.1180774e-20)
(66.948864 90.684454 -1.4813823e-19)
(65.676514 93.841193 1.6886783e-19)
(64.381435 97.041731 -1.2794178e-19)
(63.068265 100.3254 -1.3116846e-22)
(61.772902 103.72187 -2.0599064e-19)
(60.455634 107.10783 9.3527427e-20)
(59.117676 110.53416 0)
(57.807636 114.04937 1.1929206e-19)
(56.511122 117.58702 6.7186441e-20)
(55.225576 121.15072 1.8806305e-19)
(53.959059 124.72521 -8.4607365e-20)
(52.703821 128.28607 4.7538899e-20)
(51.481471 131.87352 -1.0633226e-19)
(50.298214 135.45762 5.9036167e-20)
(49.145826 138.99566 -1.3205868e-19)
(48.035507 142.51603 2.2074549e-19)
(46.972601 146.00555 -1.6341633e-19)
(45.949907 149.42904 1.358888e-19)
(44.968541 152.79601 -1.0086915e-19)
(44.03739 156.11539 0)
(43.152485 159.35393 0)
(42.313855 162.50559 1.35313e-19)
(41.526391 165.58596 -7.5134855e-20)
(40.789863 168.57805 8.2186133e-20)
(40.100316 171.45909 -3.0010992e-22)
(39.456655 174.23626 4.9671123e-20)
(38.85754 176.9105 -8.2056849e-20)
(38.302357 179.47264 8.963068e-20)
(37.789711 181.92406 -9.9416322e-20)
(37.31836 184.27398 3.6272449e-20)
(36.885253 186.51913 0)
(36.48857 188.65627 1.9391472e-19)
(36.125354 190.67992 -1.8956078e-19)
(35.792809 192.5956 -2.5955464e-20)
(35.490492 194.41804 -2.8046146e-20)
(35.219449 196.15356 1.5303866e-20)
(34.975883 197.78792 0)
(74.162498 70.2991 -1.8882375e-20)
(73.074518 72.941328 -1.7375976e-19)
(71.926258 75.52004 1.9989199e-19)
(70.648783 78.202809 1.1481742e-19)
(69.471962 81.059723 1.6725037e-20)
(68.167559 83.876146 -1.8858924e-19)
(66.84832 86.829615 2.1566908e-19)
(65.540499 89.876552 7.3795989e-20)
(64.182947 92.979909 -1.1225336e-19)
(62.798134 96.13017 -3.1926015e-20)
(61.401741 99.368895 -7.2654662e-20)
(60.017818 102.71007 4.1285819e-20)
(58.598592 106.03232 -1.8668364e-19)
(57.160305 109.40264 0)
(55.744748 112.86001 -1.1884159e-19)
(54.341775 116.33545 -1.0036981e-19)
(52.941106 119.83344 3.7790327e-20)
(51.554015 123.34045 -4.2205477e-20)
(50.179615 126.83464 9.4847233e-20)
(48.8371 130.3507 -5.2856558e-22)
(47.527554 133.85814 0)
(46.24439 137.33246 0)
(44.995772 140.78849 -3.6482709e-20)
(43.783552 144.20347 0)
(42.610162 147.55092 9.0821435e-20)
(41.481342 150.84697 0)
(40.404534 154.0974 3.8398035e-22)
(39.379244 157.26723 3.0893011e-20)
(38.402586 160.34933 6.779232e-20)
(37.478733 163.36357 -7.5270794e-20)
(36.605915 166.28759 4.149238e-20)
(35.78178 169.10619 -6.8127331e-20)
(35.007854 171.83828 2.5107287e-20)
(34.285081 174.48627 2.7337448e-20)
(33.6083 177.0231 -5.9875858e-20)
(32.974897 179.44007 1.3254148e-19)
(32.384107 181.74859 -1.803655e-19)
(31.835981 183.95882 1.5895106e-19)
(31.327937 186.06169 0)
(30.857393 188.05573 0)
(30.422431 189.9466 2.5762537e-20)
(30.020612 191.73438 0)
(29.646792 193.41274 2.4638817e-19)
(29.298859 194.98976 -2.7005376e-19)
(77.605437 60.647932 9.5149732e-20)
(76.550571 62.759843 -1.1004682e-19)
(75.462187 65.070413 -1.4140012e-20)
(74.444092 67.443832 1.7684873e-23)
(73.19954 69.773151 1.8860991e-20)
(72.082412 72.385394 0)
(70.85822 74.902987 1.0002802e-19)
(69.531073 77.559031 5.7465587e-20)
(68.295532 80.363542 -1.1514311e-19)
(66.913682 83.124763 -1.8880098e-20)
(65.533429 86.038126 1.0793448e-19)
(64.144454 89.031265 7.3993015e-20)
(62.706899 92.077885 5.6244118e-20)
(61.243464 95.171979 0)
(59.764678 98.35823 5.4419914e-20)
(58.29516 101.6332 7.231224e-23)
(56.776358 104.88287 1.1656236e-19)
(55.236294 108.19287 0)
(53.724122 111.59076 -2.9701791e-20)
(52.215565 114.99707 6.7064773e-20)
(50.70057 118.42301 -7.5422614e-20)
(49.200947 121.85503 8.4410322e-24)
(47.707722 125.2761 0)
(46.241342 128.72657 5.2978178e-20)
(44.802647 132.16658 2.9735873e-20)
(43.388621 135.56275 3.2979234e-20)
(42.01035 138.94107 -3.6735018e-20)
(40.677146 142.28472 4.1077433e-20)
(39.383022 145.56211 -9.0944881e-20)
(38.129324 148.79108 -2.5288216e-20)
(36.925706 151.97646 -8.3253797e-20)
(35.767317 155.07811 6.1686557e-20)
(34.654552 158.10028 -6.7926037e-20)
(33.593211 161.05788 7.5405373e-20)
(32.583898 163.92554 6.2090102e-20)
(31.624154 166.68568 2.2121124e-20)
(30.715094 169.35006 -1.2547889e-19)
(29.856111 171.91602 1.2357274e-19)
(29.0487 174.37486 -1.5125294e-19)
(28.290795 176.72764 -6.6050999e-20)
(27.580665 178.98479 9.102387e-20)
(26.916824 181.14364 -7.9254734e-20)
(26.297711 183.19939 8.7186181e-20)
(25.720576 185.1465 -9.4840718e-20)
(25.183261 186.99131 1.3568282e-20)
(24.684235 188.74725 1.1375314e-19)
(24.224645 190.42172 7.785266e-21)
(23.802661 192.00245 0)
(23.408572 193.4663 0)
(82.010776 49.03855 -6.8638309e-20)
(81.383412 50.70179 -6.996904e-20)
(80.502204 52.343969 3.4835505e-20)
(79.713739 54.210335 0)
(78.816722 56.087151 7.8496428e-21)
(77.8139 58.054789 -7.2923356e-20)
(76.864168 60.193334 -9.4972592e-20)
(75.748633 62.271135 0)
(74.633319 64.570586 5.6585412e-20)
(73.559685 66.889865 8.1596338e-21)
(72.256252 69.20039 -1.0766694e-23)
(71.109096 71.782698 -5.429833e-20)
(69.804859 74.243761 -9.980023e-20)
(68.427562 76.882071 -5.7331292e-20)
(67.134274 79.638941 8.2210054e-21)
(65.679679 82.350487 -4.7185945e-20)
(64.241971 85.228707 -8.6172347e-20)
(62.78639 88.171036 -4.9086101e-20)
(61.269623 91.163055 -5.6095681e-20)
(59.719796 94.205324 1.5959188e-20)
(58.163403 97.345112 -5.6147261e-23)
(56.609041 100.55398 -4.1207965e-20)
(54.990437 103.73084 7.0129197e-20)
(53.361452 106.98627 1.3264828e-20)
(51.755448 110.31996 -1.4915192e-20)
(50.141799 113.65167 5.0354553e-20)
(48.521308 117.00531 -8.5538796e-23)
(46.909973 120.36089 4.2281539e-20)
(45.301805 123.70834 0)
(43.722315 127.08316 0)
(42.168636 130.43321 -2.9616466e-20)
(40.63712 133.74861 3.3020201e-20)
(39.13735 137.05132 -9.2251197e-20)
(37.670014 140.30945 1.1568778e-22)
(36.233871 143.49844 -2.7226126e-22)
(34.838797 146.64521 2.5165625e-20)
(33.493677 149.74486 -2.7860894e-20)
(32.197317 152.75914 1.5294887e-20)
(30.951547 155.6952 0)
(29.761104 158.56748 0)
(28.624306 161.34796 -3.1084688e-20)
(27.541127 164.03109 -3.4072891e-20)
(26.511986 166.63631 5.0376157e-20)
(25.5379 169.15887 -8.2608011e-20)
(24.614209 171.57137 6.8340267e-20)
(23.740186 173.8728 0)
(22.916139 176.07491 -8.9683548e-21)
(22.141628 178.18371 0)
(21.4149 180.18933 -1.0955606e-20)
(20.734089 182.09124 1.0112019e-19)
(20.096913 183.8968 -1.3449613e-20)
(19.502133 185.60755 -2.348211e-19)
(18.945055 187.21283 -1.4999795e-20)
(18.422152 188.71643 1.3588408e-19)
(17.93749 190.1504 4.6482355e-21)
(86.878007 37.262344 -5.5160957e-20)
(86.520426 38.066675 -1.987455e-20)
(85.831572 39.318036 1.4534109e-20)
(85.667434 40.470928 -3.397322e-21)
(84.796241 41.525723 7.9428675e-21)
(84.379985 42.96615 8.8120161e-20)
(83.637084 44.10398 -8.1216403e-20)
(82.915473 45.745514 -1.8968742e-20)
(82.360092 47.168315 5.1551711e-20)
(81.470128 48.770943 -7.2947022e-20)
(80.812548 50.400011 -5.006787e-21)
(79.889193 52.034713 4.0674585e-20)
(79.085878 53.875031 -6.7586585e-21)
(78.136344 55.716563 3.9232167e-21)
(77.103495 57.67577 5.0029648e-20)
(76.120625 59.771444 -5.2753505e-21)
(74.948785 61.818554 1.2219603e-20)
(73.806834 64.105282 -8.1232164e-20)
(72.674887 66.363651 8.1615492e-21)
(71.331118 68.65635 -4.7106684e-21)
(70.150557 71.196924 4.3361522e-20)
(68.764822 73.594577 -2.0027972e-23)
(67.347246 76.211471 -2.8687252e-20)
(65.992751 78.906052 2.8802384e-20)
(64.460276 81.564966 1.4062202e-20)
(62.974529 84.402009 -2.1590354e-20)
(61.446119 87.279718 -5.535987e-20)
(59.850988 90.206856 3.5117053e-20)
(58.229758 93.193859 9.5961688e-25)
(56.594769 96.279214 0)
(54.954394 99.41 -1.0290066e-20)
(53.242598 102.51151 -4.6588695e-20)
(51.524566 105.70574 -1.3087939e-20)
(49.830309 108.97064 4.4674087e-20)
(48.115399 112.22426 -3.3515152e-20)
(46.388682 115.49782 -9.4206396e-21)
(44.671098 118.77077 -2.1161368e-20)
(42.956476 122.04034 -1.1912386e-20)
(41.26563 125.33409 -6.6665419e-21)
(39.591206 128.60302 -1.4822437e-20)
(37.934923 131.83572 3.3154073e-20)
(36.307738 135.05164 9.1601712e-21)
(34.720535 138.22363 -2.0476973e-20)
(33.170223 141.32857 2.8454367e-20)
(31.662178 144.39479 6.264315e-21)
(30.2044 147.41563 -1.4040256e-20)
(28.791804 150.35018 7.6626226e-21)
(27.425243 153.21435 1.7052056e-20)
(26.109903 156.01731 -3.7734974e-20)
(24.847542 158.72839 4.6721623e-20)
(23.636627 161.33739 -1.1530437e-20)
(22.479594 163.85735 -2.5242415e-20)
(21.376938 166.28219 -1.0337364e-20)
(20.332342 168.60584 4.9347402e-20)
(19.343504 170.82859 -1.7651219e-22)
(18.407852 172.96053 -8.2056283e-20)
(17.525252 175.00025 7.9916644e-20)
(16.694734 176.94159 -3.295489e-20)
(15.913504 178.7796 4.4767851e-20)
(15.180084 180.5223 -1.0289475e-19)
(14.491994 182.18078 -4.9628008e-20)
(13.850088 183.76254 1.326719e-19)
(13.254281 185.25953 -6.78853e-20)
(12.697344 186.64735 -2.0032628e-21)
(92.112965 24.387931 -5.4784083e-25)
(90.530225 24.378851 3.2025089e-20)
(91.340882 24.3931 1.8854412e-20)
(91.329008 24.392019 2.2191592e-20)
(91.321308 24.394331 0)
(91.327894 24.397956 -3.0735667e-20)
(91.314733 24.399545 1.808494e-20)
(91.268042 24.399332 0)
(91.207731 24.397675 0)
(91.152438 24.395755 0)
(91.110578 24.394133 1.7331265e-20)
(91.078718 24.392879 4.0782234e-20)
(91.039735 24.391021 0)
(90.930458 24.386489 0)
(90.656618 24.377507 -1.6608081e-20)
(89.825681 24.332648 3.9103079e-20)
(88.284243 24.35645 -2.3027748e-20)
(86.607108 24.308668 2.7141313e-20)
(87.115062 25.176385 -2.4259337e-23)
(89.016457 25.602511 -1.8703355e-20)
(90.712093 26.233047 2.1966699e-20)
(91.329428 26.593384 9.8200808e-24)
(91.595467 27.087906 0)
(92.094964 27.577543 3.5657751e-20)
(92.560658 28.072456 -2.0958096e-20)
(92.658367 28.525645 0)
(91.947138 28.88005 0)
(90.12268 28.811227 3.4079827e-20)
(87.845876 28.315593 2.0068064e-20)
(88.261325 29.166848 2.3526934e-20)
(89.72482 29.846134 2.6278551e-23)
(90.269467 30.407175 -3.2402291e-20)
(89.455916 30.56744 1.9034533e-20)
(88.680061 31.133796 7.3444291e-24)
(88.881217 32.095397 1.2795798e-23)
(88.823675 32.840042 0)
(88.286849 33.510889 0)
(87.631134 34.307903 2.1135381e-20)
(87.590873 35.131623 -2.476287e-20)
(87.024917 35.994308 -2.9008989e-20)
(86.566195 37.123268 1.6979402e-20)
(86.163672 37.882024 -9.7527928e-24)
(85.577929 39.148807 -2.3236758e-20)
(85.25077 40.257104 2.7182565e-20)
(84.401273 41.338904 -1.5889825e-20)
(83.996849 42.739572 -3.7107122e-20)
(83.15382 43.851744 2.1672142e-20)
(82.489558 45.484352 5.0551975e-20)
(81.875849 46.868451 0)
(80.968866 48.480322 1.7176454e-20)
(80.279189 50.060122 1.9981173e-20)
(79.306051 51.683251 0)
(78.483621 53.491349 0)
(77.485682 55.294045 0)
(76.416198 57.240744 -2.0315539e-23)
(75.392861 59.291869 -1.0065677e-26)
(74.172363 61.31005 2.4459001e-20)
(73.005627 63.58007 1.4124865e-20)
(71.809959 65.78354 1.6338694e-20)
(70.429108 68.064222 0)
(69.212838 70.556196 0)
(67.740816 72.900353 2.4975809e-20)
(66.292706 75.503162 0)
(64.87045 78.137397 0)
(63.267229 80.754416 1.8844482e-20)
(61.730668 83.556309 1.0777408e-20)
(60.128614 86.373643 1.2336464e-20)
(58.466388 89.2449 -2.8103474e-20)
(56.770635 92.178991 4.0898908e-23)
(55.057389 95.211362 0)
(53.3337 98.266584 0)
(51.53496 101.29621 0)
(49.743063 104.43797 -1.3189944e-20)
(47.960462 107.62813 0)
(46.140983 110.79503 0)
(44.319914 113.99238 0)
(42.501997 117.18322 2.1228334e-20)
(40.680926 120.36978 1.1874055e-20)
(38.881362 123.58071 -3.0341476e-23)
(37.099666 126.75583 7.4586604e-21)
(35.336445 129.89588 8.3220155e-21)
(33.604642 133.02321 -9.2215085e-21)
(31.904711 136.09901 4.9158887e-27)
(30.230379 139.10673 -5.6935646e-21)
(28.594225 142.08301 -3.9057411e-23)
(27.004379 145.00519 7.0359492e-21)
(25.459376 147.83738 7.7308715e-21)
(23.965521 150.60278 -4.2995699e-21)
(22.528627 153.30442 -4.7446023e-21)
(21.147801 155.91154 -3.9685919e-23)
(19.824824 158.4298 5.758526e-21)
(18.55944 160.87744 0)
(17.353374 163.24301 -3.4509504e-21)
(16.202141 165.4988 3.7878651e-21)
(15.10539 167.6516 0)
(14.064817 169.71579 0)
(13.080073 171.6922 -2.5162962e-21)
(12.149737 173.56897 0)
(11.272646 175.34744 3.0092906e-23)
(10.446026 177.03738 1.6828775e-23)
(9.6696071 178.6414 0)
(8.939794 180.14457 1.9644335e-21)
(8.252129 181.54546 2.1440518e-21)
(7.607667 182.88094 -4.6521445e-21)
(92.112942 24.413554 -2.7216268e-20)
(90.531847 24.36822 -3.6021642e-20)
(91.338423 24.399868 5.1865652e-20)
(91.328667 24.398884 -7.7693292e-20)
(91.320584 24.400698 -3.2653071e-21)
(91.327165 24.404111 5.3803949e-20)
(91.314437 24.40527 -1.8089605e-20)
(91.268292 24.404022 1.0643336e-20)
(91.208177 24.401128 -1.2523471e-20)
(91.152899 24.398099 3.6850736e-21)
(91.11096 24.395648 -6.0678039e-20)
(91.079109 24.393767 5.6092446e-20)
(91.04057 24.391255 0)
(90.932252 24.384795 -3.5315853e-21)
(90.662164 24.37178 4.150971e-21)
(89.831091 24.312732 -1.4650531e-20)
(88.281023 24.310535 -5.7400858e-21)
(86.514029 24.225027 -2.7143943e-20)
(86.929501 25.08914 2.7891155e-20)
(88.847895 25.539467 7.9593284e-20)
(90.572708 26.19775 9.0684088e-20)
(91.204103 26.565871 -2.9053449e-20)
(91.456133 27.055244 0)
(91.950942 27.54776 -8.4734325e-20)
(92.425454 28.04754 1.5713269e-20)
(92.547061 28.499772 4.9276705e-20)
(91.896048 28.859454 5.7933134e-20)
(90.183834 28.797021 5.110975e-20)
(87.826478 28.338254 0)
(88.042087 29.034426 -2.0587485e-20)
(89.538594 29.67623 -2.7615262e-20)
(90.160744 30.306895 1.2151896e-20)
(89.31046 30.6306 -1.4281448e-20)
(88.472459 31.094042 5.5878314e-20)
(88.617038 32.019597 -1.6368319e-20)
(88.605519 32.761555 -7.6894795e-21)
(88.059419 33.423742 6.7622104e-20)
(87.392432 34.194921 -1.0567615e-20)
(87.317793 34.990247 -2.7880451e-20)
(86.761757 35.851086 9.0678892e-20)
(86.286153 36.977367 5.9458816e-20)
(85.78785 37.697335 9.9319183e-21)
(85.328571 38.965931 -5.8131982e-21)
(84.817177 40.039407 -7.4777225e-20)
(84.05817 41.161084 1.1913044e-20)
(83.566433 42.485818 9.7470462e-20)
(82.70713 43.601835 -1.6249155e-20)
(82.082028 45.214347 -3.1600542e-20)
(81.353776 46.553436 0)
(80.441473 48.194797 4.7273562e-20)
(79.712612 49.731809 1.4999425e-20)
(78.704125 51.361477 -2.3268132e-20)
(77.865066 53.14135 3.3829876e-21)
(76.815184 54.908063 -5.5000362e-20)
(75.727287 56.844417 2.276936e-20)
(74.662855 58.84997 -4.7548101e-20)
(73.398851 60.845431 -1.2214224e-20)
(72.213432 63.091633 5.3068929e-20)
(70.950664 65.235067 -2.4494162e-20)
(69.536482 67.507548 9.4243023e-21)
(68.284055 69.937151 -1.0858185e-20)
(66.730192 72.226004 -1.2478873e-20)
(65.267246 74.809874 1.4358191e-20)
(63.771805 77.366002 6.1837931e-20)
(62.10371 79.939702 -1.4153558e-20)
(60.518139 82.695764 1.6199843e-20)
(58.843207 85.441941 -1.8491022e-20)
(57.111244 88.249161 -4.2275027e-20)
(55.348873 91.123211 8.0766055e-21)
(53.564299 94.094915 9.1101854e-21)
(51.756924 97.067561 -1.0309155e-20)
(49.880158 100.02587 1.1712176e-20)
(48.004725 103.10096 2.6492884e-20)
(46.128449 106.20376 7.4507932e-21)
(44.217151 109.28963 -4.2134135e-20)
(42.305275 112.40534 9.4437407e-21)
(40.385174 115.50285 -1.0649825e-20)
(38.466186 118.60852 -1.1939574e-20)
(36.568397 121.73051 -6.6521252e-21)
(34.679295 124.80842 -7.3655912e-21)
(32.803732 127.85754 2.5123411e-20)
(30.953423 130.89245 3.713556e-20)
(29.133995 133.86999 1.0384363e-20)
(27.346478 136.78287 -6.8554117e-23)
(25.604053 139.66634 3.1713613e-20)
(23.912098 142.49445 -3.5108034e-20)
(22.266988 145.23712 3.1086131e-20)
(20.670274 147.91938 -1.2937985e-20)
(19.125284 150.539 -1.4296707e-20)
(17.634938 153.06599 5.2016145e-21)
(16.197837 155.49854 2.8749336e-20)
(14.816947 157.84693 -1.2845978e-22)
(13.49395 160.10181 -1.3905882e-20)
(12.234036 162.26198 0)
(11.035592 164.3282 8.4045476e-21)
(9.8953647 166.30792 0)
(8.8140079 168.1998 -4.7679849e-20)
(7.7914118 169.99699 1.1237672e-20)
(6.8245685 171.69692 4.5207903e-20)
(5.9125363 173.30984 4.4230991e-20)
(5.0522806 174.8427 -1.2209589e-19)
(4.2439995 176.30162 6.0883161e-20)
(3.4886357 177.686 1.345237e-19)
(2.782059 178.97245 -2.2179998e-19)
(92.112284 24.439103 -6.8561947e-21)
(90.533592 24.357649 0)
(91.336024 24.406583 -7.5509559e-20)
(91.328184 24.405709 3.986765e-25)
(91.319799 24.407033 -1.0459494e-19)
(91.326361 24.410246 -6.1546466e-20)
(91.314025 24.410987 -9.0523408e-21)
(91.268399 24.408718 9.5881491e-20)
(91.208489 24.404592 0)
(91.153255 24.400455 0)
(91.111267 24.397173 6.0734274e-20)
(91.07943 24.394664 -7.1455405e-20)
(91.041273 24.391508 6.005744e-21)
(90.9337 24.383123 -7.0645766e-21)
(90.666749 24.366191 0)
(89.83478 24.292847 0)
(88.275623 24.264516 -5.787208e-21)
(86.425236 24.14168 -1.2265539e-23)
(86.75001 24.996818 1.3564014e-19)
(88.686835 25.474269 -6.5592113e-20)
(90.437237 26.159393 -1.1000427e-20)
(91.082077 26.535781 0)
(91.320487 27.020584 -1.2154259e-19)
(91.810315 27.516073 7.1399462e-20)
(92.292264 28.020621 -5.2429226e-21)
(92.433302 28.472668 -1.4179302e-19)
(91.837227 28.835416 -5.0715017e-20)
(90.226364 28.78096 -2.1317945e-19)
(87.818771 28.353459 0)
(87.846792 28.883444 0)
(89.362736 29.529174 0)
(90.01886 30.265229 -8.1189441e-21)
(89.145155 30.701924 -1.5244075e-19)
(88.28239 31.098043 1.1154608e-20)
(88.364397 31.982149 1.0492744e-19)
(88.39208 32.694103 -1.3080502e-19)
(87.84251 33.319087 -6.3164176e-20)
(87.145877 34.071144 -1.057718e-20)
(87.062816 34.856742 6.1974815e-20)
(86.497476 35.699474 5.8124711e-20)
(86.003152 36.813223 -2.0401465e-19)
(85.433838 37.521823 -9.9467279e-21)
(85.043576 38.785347 1.0475492e-19)
(84.469457 39.825021 5.4418953e-20)
(83.663131 40.959577 1.2729937e-19)
(83.136957 42.229264 -8.3590686e-20)
(82.28808 43.365643 1.498129e-24)
(81.642626 44.930406 -9.4954543e-20)
(80.850108 46.244093 -1.1072456e-19)
(79.972325 47.902321 6.8860853e-20)
(79.185569 49.370214 1.0009819e-20)
(78.152067 51.003483 -1.164653e-20)
(77.283968 52.74059 0)
(76.172207 54.472345 5.499644e-20)
(75.076643 56.394597 2.0657799e-24)
(73.960268 58.348128 5.2837869e-20)
(72.654331 60.324789 -1.2238897e-20)
(71.442552 62.540946 -4.2432818e-20)
(70.109247 64.629689 -8.1744757e-21)
(68.672716 66.898035 1.8868938e-20)
(67.363407 69.257648 -1.0062743e-23)
(65.744787 71.509543 -2.5019417e-20)
(64.266964 74.074689 5.7566966e-20)
(62.691296 76.55445 -1.0721163e-19)
(60.969237 79.098535 7.5657385e-20)
(59.331953 81.811531 -9.7387211e-20)
(57.583997 84.49347 0)
(55.79176 87.245783 7.0322054e-20)
(53.968913 90.066418 3.2144591e-20)
(52.112345 92.976671 -4.4550512e-23)
(50.221706 95.867765 -5.4695264e-23)
(48.26178 98.757531 -2.3452382e-20)
(46.307733 101.76986 2.6609067e-20)
(44.352078 104.79313 -5.9894732e-20)
(42.353545 107.79417 5.0450529e-20)
(40.35167 110.82305 -3.7901733e-20)
(38.338712 113.83327 -2.1331488e-20)
(36.32828 116.85298 -4.7832421e-20)
(34.329006 119.87764 0)
(32.338747 122.85869 0)
(30.363634 125.81274 -3.3228164e-20)
(28.419111 128.74788 -1.8505789e-20)
(26.505967 131.61829 -6.1968641e-20)
(24.619146 134.42851 2.2858061e-20)
(22.770913 137.2156 -2.5349042e-20)
(20.964604 139.93607 -2.8088726e-20)
(19.199369 142.5664 6.229748e-20)
(17.483966 145.14084 -1.7095087e-22)
(15.826064 147.64767 -1.9147867e-20)
(14.226378 150.05817 -2.1008278e-20)
(12.687521 152.3875 1.1655606e-20)
(11.209707 154.65157 -2.5451887e-20)
(9.7961369 156.8343 -1.3872732e-20)
(8.4426385 158.90728 0)
(7.147676 160.88395 -8.3521872e-21)
(5.9141531 162.78364 -1.847262e-20)
(4.7425722 164.60138 1.0054195e-19)
(3.6315108 166.32251 -9.9339515e-20)
(2.5802259 167.95182 0)
(1.5853818 169.50134 -9.8693865e-20)
(0.6473941 170.97334 2.3758241e-19)
(-0.23564388 172.34997 -1.2602242e-19)
(-1.0684035 173.62461 0)
(-1.8538567 174.83739 0)
(92.111006 24.464551 1.9076595e-19)
(90.53545 24.347143 7.9675278e-21)
(91.333691 24.413245 1.8916812e-20)
(91.327565 24.412491 7.7883938e-20)
(91.318952 24.413338 1.0475522e-19)
(91.325482 24.416356 0)
(91.313501 24.416688 0)
(91.268363 24.413411 -7.4689175e-20)
(91.20867 24.408058 -3.6702209e-24)
(91.153505 24.402815 -1.4772853e-20)
(91.111496 24.398702 1.3903201e-19)
(91.079682 24.395568 0)
(91.041847 24.391773 -1.2029775e-20)
(90.93481 24.381457 1.2736782e-19)
(90.670376 24.360691 0)
(89.836689 24.272911 -9.8394405e-21)
(88.267591 24.218262 -8.6026395e-23)
(86.339954 24.058631 2.7148913e-20)
(86.577036 24.900296 -1.4376773e-19)
(88.533402 25.407255 0)
(90.306186 26.118076 -8.8133453e-20)
(90.96327 26.503471 0)
(91.1888 26.983979 2.4342598e-19)
(91.672905 27.483117 1.520058e-19)
(92.161206 27.991213 -1.7311084e-23)
(92.318629 28.444307 8.6425334e-20)
(91.772133 28.808352 -1.4559416e-20)
(90.25122 28.762519 1.5371741e-19)
(87.821944 28.359033 -1.7087143e-19)
(87.671741 28.724455 1.1798242e-20)
(89.186092 29.411699 1.3829909e-20)
(89.849711 30.241861 -1.626475e-20)
(88.968018 30.747202 1.5269591e-19)
(88.102305 31.096771 -8.9612365e-20)
(88.126973 31.955315 -1.0507646e-19)
(88.187162 32.623886 1.0784949e-19)
(87.625539 33.21069 1.8066646e-20)
(86.936066 33.940771 -1.0593622e-20)
(86.787464 34.701925 -1.8627735e-19)
(86.241347 35.550555 1.4596055e-20)
(85.716802 36.652213 1.1916068e-19)
(85.128791 37.33647 0)
(84.689268 38.600623 -9.3212302e-20)
(84.17629 39.608148 0)
(83.231249 40.74592 -1.2742155e-19)
(82.794861 42.000035 -9.3047075e-21)
(81.834481 43.097349 1.0865034e-20)
(81.207222 44.635894 1.0136788e-19)
(80.375771 45.939554 1.1819896e-19)
(79.487857 47.592362 -1.377196e-19)
(78.616303 49.011143 1.6047751e-19)
(77.57498 50.671312 -1.166358e-20)
(76.676913 52.365221 1.3557884e-20)
(75.517901 54.076816 0)
(74.420699 55.986445 1.4623427e-19)
(73.241952 57.885504 1.5892295e-19)
(71.911699 59.850449 1.2262093e-20)
(70.674297 62.027526 0)
(69.27186 64.065141 1.3112777e-19)
(67.821073 66.325641 1.88905e-20)
(66.442257 68.60606 -8.7182061e-20)
(64.780035 70.827779 -1.2538338e-19)
(63.289603 73.358169 7.2119011e-20)
(61.633071 75.751059 4.9489263e-20)
(59.866131 78.262653 -1.5142184e-19)
(58.179256 80.919201 6.4887556e-20)
(56.351785 83.526085 1.2378605e-19)
(54.496746 86.219535 0)
(52.614247 88.976106 -6.4143976e-20)
(50.691883 91.81112 0)
(48.716166 94.614846 -2.0679859e-20)
(46.682941 97.435744 4.6911517e-20)
(44.661806 100.38165 2.4863407e-22)
(42.625774 103.31202 8.9782671e-20)
(40.540301 106.22377 0)
(38.454101 109.16475 0)
(36.351648 112.08025 1.2801389e-19)
(34.250516 115.01056 2.3858201e-20)
(32.161009 117.94125 2.6810754e-20)
(30.078152 120.81832 -2.9841899e-20)
(28.007296 123.67132 3.3436446e-20)
(25.96201 126.50558 -3.7268037e-20)
(23.93841 129.26838 4.1244269e-20)
(21.94055 131.97723 -4.6061422e-20)
(19.987046 134.66014 -1.0192486e-19)
(18.082432 137.27127 5.6562594e-20)
(16.227586 139.80411 0)
(14.425466 142.2848 -1.034172e-19)
(12.677721 144.69683 7.6295582e-20)
(10.98753 147.0174 2.0902373e-20)
(9.3530142 149.25304 -4.6199549e-20)
(7.7773593 151.40845 5.082102e-20)
(6.263156 153.47 -1.114519e-19)
(4.8153414 155.44286 1.5370508e-19)
(3.4339567 157.33237 -1.6891363e-20)
(2.1159183 159.14054 -1.6202586e-22)
(0.86211837 160.86229 -3.0339727e-20)
(-0.32675888 162.49195 0)
(-1.4540833 164.03215 -9.6552874e-20)
(-2.5204552 165.49485 1.0593819e-19)
(-3.5286829 166.88069 0)
(-4.4794136 168.1932 0)
(-5.3721061 169.44267 -1.7303303e-20)