/*--------------------------------*- C++ -*----------------------------------*\
| =========                 |                                                 |
| \\      /  F ield         | OpenFOAM: The Open Source CFD Toolbox           |
|  \\    /   O peration     | Version:  2506                                  |
|   \\  /    A nd           | Website:  www.openfoam.com                      |
|    \\/     M anipulation  |                                                 |
\*---------------------------------------------------------------------------*/
FoamFile
{
    version     2.0;
    format      ascii;
    arch        "LSB;label=32;scalar=64";
    class       volScalarField;
    location    "0.0205";
    object      Co;
}
// * * * * * * * * * * * * * * * * * * * * * * * * * * * * * * * * * * * * * //

dimensions      [0 0 0 0 0 0 0];

internalField   nonuniform List<scalar> 
13761
(
0.0020264548
0.0020257426
0.0020250439
0.0020243578
0.0020236811
0.0021329242
0.0020230087
0.0021316022
0.0020223416
0.0021303061
0.002021688
0.0021290092
0.0020210495
0.002127715
0.0020204341
0.0022499253
0.0021264392
0.0020198357
0.0022479133
0.0021251854
0.0020192295
0.002245922
0.0021239007
0.0020186025
0.0022439553
0.0021225847
0.0020179789
0.0022420121
0.0021213102
0.0020173747
0.0022400996
0.002120099
0.0020167856
0.0023497191
0.002238229
0.0021189301
0.0020162182
0.0023471478
0.0022363918
0.0021177724
0.002015674
0.0023446182
0.0022345936
0.0021166094
0.0020151401
0.0023421342
0.0022328385
0.0021154712
0.0020146221
0.0023396948
0.0022311032
0.0021143731
0.0020141228
0.002337298
0.0022293755
0.0021133041
0.0020136355
0.0024505752
0.002334947
0.0022276673
0.0021122483
0.002013163
0.0024475289
0.0023326347
0.0022259905
0.0021112039
0.0020126781
0.002444547
0.0023303584
0.0022243466
0.0021101701
0.0020121612
0.0024416211
0.0023281241
0.0022227352
0.0021091475
0.0020116274
0.0024387405
0.002325933
0.0022211562
0.0021081422
0.0020111011
0.0025454101
0.0024359057
0.0023237776
0.0022196051
0.0021071593
0.0020105843
0.0025419085
0.0024331212
0.0023216541
0.0022180749
0.0021061928
0.0020100485
0.0025384667
0.0024303852
0.0023195605
0.002216563
0.002105235
0.002009491
0.0025350906
0.0024276968
0.0023175035
0.002215074
0.0021042856
0.0020089425
0.0025317894
0.0024250613
0.002315492
0.0022136279
0.0021033477
0.0020084192
0.0025285486
0.0024224717
0.0023135154
0.0022122137
0.0021024203
0.0020079135
0.0026321081
0.0025253645
0.0024199275
0.0023115683
0.0022108105
0.0021015097
0.0020074199
0.0026283033
0.0025222353
0.0024174222
0.0023096486
0.0022094075
0.0021006152
0.0020069349
0.0026245672
0.0025191578
0.0024149556
0.0023077561
0.0022080114
0.0020997311
0.0020064529
0.0026208995
0.0025161317
0.0024125329
0.0023058943
0.002206641
0.0020988577
0.0020059735
0.0026172979
0.0025131565
0.0024101538
0.002304053
0.0022052965
0.0020979928
0.0020054978
0.0027167462
0.0026137592
0.0025102311
0.0024078354
0.0023022373
0.0022039745
0.0020971399
0.0020050278
0.0027126118
0.0026102822
0.002507356
0.0024055577
0.002300458
0.0022026753
0.0020962966
0.0020045604
0.0027085687
0.0026068805
0.0025045385
0.0024033034
0.0022987279
0.0022014061
0.0020954602
0.0020040939
0.0027046048
0.0026035449
0.0025017695
0.0024010651
0.0022970335
0.002200174
0.0020946374
0.0020036396
0.0027007142
0.0026002714
0.0024990465
0.0023988614
0.0022953597
0.0021989697
0.0020938288
0.0020031987
0.0026968951
0.0025970591
0.0024963707
0.0023967004
0.0022937067
0.0021977732
0.0020930401
0.0020027769
0.002793228
0.0026931454
0.0025939067
0.0024937375
0.0023945793
0.0022920725
0.0021965702
0.0020922635
0.0020023622
0.0027889475
0.0026894638
0.0025908143
0.0024911441
0.0023924986
0.0022904597
0.0021953589
0.0020914899
0.0027847452
0.0026858477
0.0025877756
0.0024886018
0.0023904619
0.0022888742
0.0021941655
0.0020907234
0.0027806194
0.0026822952
0.0025847808
0.0024861134
0.0023884646
0.0022873096
0.0021930028
0.0020899705
0.0027765682
0.0026788053
0.0025818255
0.0024836755
0.0023865021
0.0022857593
0.0021918609
0.0020892313
0.0028711275
0.0027725962
0.002675383
0.0025789206
0.0024812812
0.0023845935
0.0022842391
0.002190739
0.0020885001
0.0028666948
0.002768716
0.0026720398
0.0025760798
0.0024789343
0.0023827246
0.0022827627
0.0021896464
0.0020877751
0.0028623492
0.0027649104
0.0026687611
0.0025732928
0.0024766251
0.0023808619
0.0022813285
0.0021885755
0.002087059
0.0028580871
0.002761176
0.0026655438
0.0025705582
0.0024743535
0.0023789993
0.0022799162
0.0021875106
0.0020863512
0.0028539063
0.0027575112
0.0026623864
0.0025678745
0.0024721206
0.0023771636
0.0022785135
0.0021864819
0.0028498049
0.0027539145
0.0026592873
0.0025652395
0.0024699258
0.0023753692
0.0022771284
0.0021854918
0.0029394822
0.0028457808
0.0027503841
0.0026562449
0.0025626519
0.0024677683
0.0023736131
0.0022757642
0.0021844969
0.0029350723
0.0028418324
0.0027469188
0.002653258
0.0025601108
0.0024656479
0.0023718914
0.0022744176
0.0021834825
0.0029307458
0.0028379579
0.0027435169
0.002650325
0.0025576155
0.0024635639
0.0023701995
0.0022730885
0.0021824633
0.0029265029
0.0028341556
0.0027401772
0.0026474449
0.0025551644
0.0024615148
0.0023685381
0.0022717742
0.0021814673
0.0029223464
0.00283043
0.0027369037
0.0026446214
0.0025527605
0.0024595028
0.0023669092
0.0022704834
0.0021804954
0.0030042412
0.0029182968
0.0028267976
0.0027337105
0.0026418669
0.0025504142
0.0024575343
0.0023653133
0.0022692269
0.0021795598
0.0029998715
0.0029143303
0.0028232386
0.0027305806
0.0026391675
0.0025481137
0.002455601
0.0023637465
0.0022680037
0.0029955942
0.0029104453
0.0028197503
0.0027275114
0.0026365208
0.0025458613
0.0024537065
0.0023622129
0.0022668057
0.0029914052
0.0029066381
0.0028163305
0.0027245013
0.0026339249
0.0025436578
0.0024518519
0.0023607032
0.00226562
0.0029873044
0.0029029082
0.002812978
0.0027215493
0.0026313769
0.0025414936
0.002450037
0.0023592084
0.0022644478
0.0030604095
0.002983289
0.0028992535
0.0028096918
0.0027186545
0.0026288751
0.0025393533
0.0024482543
0.0023577367
0.002263293
0.0030560876
0.0029793578
0.0028956726
0.00280647
0.0027158154
0.0026264196
0.0025372378
0.0024464985
0.0023562943
0.0022621601
0.0030518586
0.0029755083
0.0028921636
0.0028033116
0.0027130314
0.0026240116
0.0025351636
0.002444772
0.0023548789
0.0022610422
0.0030477164
0.0029717398
0.002888726
0.0028002155
0.0027103014
0.00262165
0.0025331361
0.0024430758
0.0023534858
0.0031169139
0.0030436661
0.0029680512
0.002885359
0.0027971815
0.0027076253
0.0026193342
0.002531152
0.0024414097
0.0023521166
0.003112559
0.0030397291
0.0029644642
0.0028820817
0.0027942263
0.0027050176
0.0026170762
0.002529218
0.0024397819
0.0023507797
0.0031083098
0.0030358922
0.0029609649
0.0028788818
0.0027913394
0.0027024694
0.0026148685
0.0025273273
0.0024381883
0.0023494721
0.0031041589
0.0030321407
0.0029575447
0.0028757515
0.0027885136
0.0026999741
0.0026127058
0.002525476
0.002436626
0.0023481907
0.003100109
0.0030284759
0.0029542022
0.0028726896
0.0027857482
0.0026975314
0.0026105878
0.0025236631
0.0024350937
0.002346933
0.0031727068
0.0030961514
0.0030248969
0.0029509352
0.0028696946
0.0027830414
0.0026951395
0.0026085132
0.0025218866
0.0024335906
0.002345697
0.0031685001
0.0030922812
0.0030214026
0.0029477428
0.0028667658
0.0027803928
0.0026927982
0.0026064816
0.0025201455
0.0024321169
0.0023444881
0.00316439
0.0030884989
0.0030179898
0.0029446235
0.0028639017
0.0027778009
0.0026905062
0.0026044921
0.0025184392
0.002430671
0.0031603748
0.003084807
0.0030146566
0.0029415756
0.0028611009
0.0027752648
0.0026882628
0.0026025438
0.0025167676
0.0024292525
0.0032306889
0.0031564528
0.0030812027
0.0030114026
0.0029385988
0.0028583625
0.0027727838
0.0026860672
0.0026006364
0.0025151294
0.002427864
0.0032266224
0.0031526224
0.0030776856
0.0030082252
0.0029356911
0.0028556852
0.0027703567
0.0026839186
0.002598769
0.0025135239
0.0024265062
0.0032226634
0.0031488909
0.0030742604
0.003005132
0.0029328589
0.0028530741
0.002767988
0.002681821
0.002596945
0.0025119552
0.0024251786
0.0032188332
0.0031452786
0.0030709466
0.003002138
0.0029301165
0.0028505429
0.00276569
0.0026797851
0.0025951738
0.0025104328
0.0024238865
0.0032793433
0.0032151037
0.0031417591
0.003067717
0.0029992233
0.0029274445
0.0028480734
0.0027634466
0.0026777968
0.0025934432
0.0025089466
0.0024226223
0.0032755125
0.0032114714
0.0031383295
0.0030645706
0.0029963834
0.0029248395
0.0028456637
0.0027612561
0.0026758546
0.002591752
0.002507496
0.0024213849
0.0032717841
0.0032079338
0.0031349869
0.0030615044
0.002993618
0.0029223006
0.0028433121
0.0027591171
0.0026739574
0.0025900991
0.0025060799
0.003268157
0.0032044901
0.0031317312
0.0030585215
0.0029909246
0.0029198255
0.0028410181
0.0027570294
0.002672105
0.0025884844
0.0025046977
0.0033252351
0.0032646292
0.0032011377
0.0031285599
0.0030556156
0.0029883039
0.0029174137
0.0028387805
0.0027549916
0.0026702962
0.0025869071
0.0025033466
0.0033215051
0.0032611994
0.0031978755
0.0031254723
0.003052788
0.0029857525
0.0029150624
0.0028365988
0.0027530032
0.0026685305
0.0025853669
0.0025020255
0.0033178804
0.0032578661
0.0031947016
0.0031224664
0.0030500348
0.0029832706
0.0029127717
0.0028344724
0.0027510635
0.0026668075
0.0025838632
0.0025007332
0.0033143565
0.0032546282
0.0031916151
0.0031195409
0.003047357
0.0029808562
0.0029105404
0.0028324008
0.0027491719
0.0026651264
0.0025823951
0.0024994665
0.0033764171
0.0033109336
0.0032514836
0.0031886145
0.0031166939
0.0030447514
0.0029785087
0.0029083709
0.0028303831
0.0027473276
0.0026634867
0.0025809625
0.0024982245
0.0033729288
0.0033076225
0.0032484447
0.003185712
0.0031139363
0.0030422308
0.002976236
0.0029062718
0.0028284264
0.0027455373
0.0026618943
0.0025795706
0.0033695758
0.0033044425
0.0032455281
0.0031829242
0.0031112835
0.0030398075
0.0029740517
0.0029042557
0.0028265409
0.0027438105
0.0026603574
0.0025782266
0.0033663307
0.0033013622
0.0032427049
0.0031802248
0.0031087121
0.0030374591
0.0029719336
0.0029023011
0.0028247092
0.0027421315
0.0026588624
0.0025769185
0.0034197554
0.0033631867
0.0032983809
0.0032399736
0.0031776119
0.0031062203
0.0030351838
0.0029698808
0.0029004069
0.0028229301
0.0027404992
0.0026574082
0.0025756458
0.0034166625
0.0033601451
0.0032954959
0.0032373317
0.0031750833
0.003103806
0.0030329803
0.0029678915
0.00289857
0.0028212022
0.0027389124
0.0026559939
0.0025744076
0.003413671
0.0033572014
0.0032927073
0.0032347785
0.0031726374
0.0031014652
0.0030308491
0.0029659662
0.0028967906
0.0028195253
0.002737371
0.0026546194
0.0025732036
0.0034618699
0.0034107868
0.0033543563
0.0032900135
0.0032323119
0.0031702721
0.0030991958
0.0030287885
0.0029641047
0.0028950674
0.002817899
0.0027358742
0.002653284
0.0025720334
0.0034588897
0.0034080012
0.0033516064
0.0032874124
0.0032299296
0.0031679857
0.0030969956
0.0030267982
0.0029623081
0.0028934006
0.0028163226
0.0027344216
0.0026519874
0.0034560142
0.0034053197
0.0033489503
0.0032849008
0.0032276295
0.0031657777
0.0030948654
0.0030248752
0.0029605762
0.002891789
0.0028147954
0.0027330126
0.0026507289
0.0035087299
0.0034532477
0.0034027351
0.0033463878
0.0032824777
0.0032254111
0.0031636481
0.0030928057
0.00302302
0.0029589107
0.0028902327
0.0028133167
0.0027316466
0.0026495081
0.003505949
0.0034505851
0.003400252
0.0033439164
0.0032801412
0.003223274
0.003161597
0.0030908168
0.0030212304
0.0029573095
0.0028887302
0.002811886
0.0027303231
0.0026483248
0.003503288
0.0034480374
0.003397875
0.0033415477
0.0032779006
0.0032212269
0.0031596315
0.0030889046
0.0030195153
0.0029557782
0.0028872868
0.0028105079
0.0027290467
0.0026471827
0.0035494239
0.003500771
0.0034456316
0.003395634
0.003339305
0.0032757812
0.0032192934
0.0031577732
0.0030870885
0.0030178913
0.0029543297
0.0028859179
0.0028091968
0.0027278299
0.002646093
0.003547033
0.0034983665
0.0034433327
0.0033934929
0.0033371601
0.0032737526
0.0032174447
0.0031559939
0.0030853414
0.0030163364
0.0029529408
0.002884604
0.0028079351
0.0027266571
0.002645042
0.0035447612
0.0034960655
0.0034411373
0.0033914488
0.0033351052
0.0032718118
0.0032156772
0.0031542896
0.0030836607
0.0030148453
0.002951605
0.0028833425
0.0028067207
0.0027255264
0.0035878229
0.0035425927
0.0034938699
0.0034390416
0.0033894969
0.0033331415
0.0032699563
0.003213989
0.0031526576
0.0030820456
0.0030134186
0.0029503236
0.0028821325
0.0028055525
0.0027244367
0.0035855412
0.003540541
0.0034917757
0.0034370474
0.0033876403
0.0033312644
0.003268187
0.0032123798
0.0031510978
0.0030804987
0.0030120543
0.002949097
0.0028809739
0.0028044307
0.0027233882
0.0035833695
0.0035385891
0.0034897854
0.0034351494
0.0033858733
0.0033294749
0.0032665008
0.0032108479
0.0031496077
0.0030790197
0.0030107521
0.0029479287
0.0028798656
0.0028033541
0.0027223799
0.0036313513
0.0035813057
0.0035367516
0.0034878943
0.003433351
0.0033842012
0.0033277689
0.0032648981
0.0032093923
0.0031481878
0.0030776119
0.003009511
0.0029468182
0.0028788074
0.0028023228
0.0027214117
0.0036294096
0.0035793518
0.0035350125
0.0034861078
0.0034316473
0.0033826177
0.0033261488
0.0032633776
0.0032080124
0.0031468384
0.0030762747
0.0030083318
0.0029457668
0.0028777991
0.0028013363
0.0027204833
0.003669449
0.0036275667
0.0035775027
0.0035333849
0.003484417
0.0034300413
0.0033811273
0.0033246103
0.0032619381
0.0032067064
0.0031455597
0.0030750065
0.0030072132
0.0029447708
0.00287684
0.002800394
0.0027195939
0.003667693
0.0036258854
0.0035758035
0.003531854
0.0034828286
0.0034285277
0.0033797234
0.003323155
0.003260578
0.0032054748
0.0031443521
0.0030738031
0.003006156
0.0029438303
0.00287593
0.0027994955
0.0037111068
0.0036660477
0.0036243008
0.0035742161
0.0035304334
0.0034813355
0.0034271129
0.0033784124
0.0033217821
0.0032592979
0.0032043185
0.0031432169
0.0030726634
0.0030051601
0.0029429436
0.0028750697
0.0027986415
0.0037095883
0.0036645813
0.0036228823
0.0035727754
0.0035291492
0.0034799816
0.0034258259
0.003377223
0.0033205261
0.0032581297
0.0032032673
0.0031421814
0.0030716113
0.0030042497
0.0029421343
0.0028742789
0.0027978501
0.003708199
0.0036632488
0.0036215818
0.0035714611
0.0035279856
0.0034787358
0.0034246515
0.0033761383
0.0033193663
0.0032570561
0.0032023027
0.0031412278
0.0030706315
0.0030034087
0.0029413878
0.0028735451
0.0027971099
0.0037482654
0.0037069266
0.0036620264
0.0036203927
0.0035702501
0.0035269192
0.0034775885
0.0034235665
0.0033751386
0.0033182913
0.0032560638
0.0032014112
0.0031403421
0.0030697114
0.0030026268
0.0029406958
0.002872859
0.0027964125
0.0037471707
0.0037057512
0.003660906
0.0036192982
0.0035691452
0.0035259511
0.0034765306
0.0034225759
0.0033742251
0.0033172989
0.0032551498
0.0032005911
0.0031395221
0.0030688504
0.0030019015
0.0029400562
0.0028722198
0.0027957572
0.0037865101
0.0037462065
0.0037046903
0.0036598935
0.0036183103
0.0035681398
0.0035250786
0.0034755684
0.0034216734
0.0033733951
0.0033163923
0.0032543125
0.0031998417
0.0031387666
0.0030680479
0.0030012339
0.0029394696
0.0028716273
0.0027951436
0.0037856069
0.0037453327
0.0037037238
0.003658983
0.0036174175
0.0035672408
0.003524303
0.0034746966
0.0034208645
0.0033726492
0.003315569
0.0032535518
0.0031991632
0.0031380758
0.0030673064
0.0030006225
0.0029389349
0.0028710816
0.0038236511
0.0037848269
0.0037445852
0.0037028704
0.0036581767
0.0036166288
0.003566439
0.003523622
0.003473919
0.0034201419
0.0033719852
0.0033148275
0.0032528669
0.0031985538
0.0031374487
0.0030666258
0.0030000678
0.0029384513
0.0028705813
0.0038602453
0.0038230494
0.0037841423
0.0037439259
0.0037021074
0.0036574728
0.0036159326
0.0035657445
0.0035230358
0.0034732318
0.0034195108
0.0033714011
0.0033141641
0.0032522589
0.0031980148
0.003136887
0.00306601
0.0029995692
0.0029380191
0.002870127
0.0038598525
0.003822583
0.0037835807
0.0037433923
0.0037014572
0.0036568704
0.0036153369
0.0035651451
0.0035225437
0.0034726374
0.0034189644
0.0033708978
0.0033135767
0.0032517267
0.0031975446
0.0031363893
0.0030654574
0.0029991282
0.0029376378
0.0028697176
0.0038958974
0.0038595422
0.0038222005
0.0037831104
0.0037429413
0.0037008948
0.0036563659
0.0036148327
0.0035646532
0.0035221438
0.0034721316
0.0034185075
0.0033704708
0.0033130632
0.0032512695
0.0031971437
0.0031359556
0.0030649669
0.0029987423
0.0029373072
0.0028693533
0.0038957659
0.0038593686
0.0038219523
0.0037827639
0.0037426165
0.0037004435
0.0036559656
0.0036144289
0.0035642541
0.0035218389
0.0034717171
0.0034181348
0.003370125
0.0033126254
0.0032508866
0.0031968117
0.0031355848
0.0030645343
0.0029984136
0.0029370277
0.002869034
0.0039295797
0.0038957355
0.0038593005
0.0038218111
0.003782529
0.0037423955
0.0037001023
0.0036556784
0.0036141321
0.0035639752
0.0035216365
0.0034714037
0.0034178627
0.0033698664
0.0033122743
0.0032505865
0.0031965575
0.0031352852
0.0030641663
0.0029981457
0.0029368052
0.0039635123
0.0039298795
0.0038959476
0.0038594629
0.0038218912
0.0037825033
0.0037423799
0.0036999473
0.0036555721
0.0036139929
0.0035638325
0.0035215724
0.0034712226
0.0034177154
0.003369729
0.0033120392
0.0032503952
0.0031964054
0.0031350798
0.0030638848
0.0029979615
0.0029366588
0.0039964568
0.0039640187
0.0039302572
0.0038962435
0.0038597146
0.0038220636
0.0037825713
0.0037424547
0.0036998902
0.0036555643
0.0036139512
0.0035638017
0.0035216017
0.0034711366
0.0034176625
0.0033696731
0.0033118861
0.0032502798
0.0031963246
0.0031349397
0.0030636658
0.0029978328
0.0029365645
0.003997304
0.0039646973
0.0039307911
0.0038966858
0.003860105
0.0038223684
0.0037827653
0.0037426523
0.0036999424
0.0036556654
0.0036140075
0.0035638609
0.0035217243
0.0034711392
0.0034176929
0.0033696986
0.0033118113
0.0032502374
0.0031963112
0.0031348616
0.0030635077
0.00299776
0.00293652
0.0040286504
0.0039981911
0.0039654227
0.0039313851
0.0038972041
0.0038605734
0.0038227557
0.0037830439
0.0037429343
0.0037000837
0.0036558883
0.0036141849
0.0035640265
0.0035219337
0.0034712318
0.0034178125
0.0033698013
0.0033118144
0.0032502677
0.0031963648
0.0031348455
0.0030634108
0.0029977403
0.0029365247
0.0040595441
0.0040299073
0.0039992512
0.0039663238
0.0039321426
0.0038978678
0.0038611797
0.0038232735
0.0037834455
0.0037433355
0.0037003358
0.0036562477
0.0036144797
0.003564281
0.0035222351
0.0034714103
0.0034180135
0.0033699846
0.0033118949
0.0032503713
0.0031964849
0.0031348907
0.0030633729
0.0029977766
0.0029365785
0.0040890277
0.0040610263
0.004031212
0.0040003561
0.0039672753
0.0039329623
0.0038986084
0.0038618617
0.0038238715
0.0037839316
0.0037438239
0.0037006759
0.0036567025
0.003614869
0.0035646405
0.0035226216
0.0034716783
0.0034183021
0.0033702442
0.0033120516
0.0032505479
0.0031966717
0.0031349972
0.0030633931
0.0029978668
0.0029366811
0.0041170056
0.0040909496
0.0040626851
0.0040326775
0.0040016242
0.003968393
0.003933948
0.003899491
0.0038626823
0.0038246006
0.0037845402
0.0037444285
0.0037011249
0.0036572683
0.0036153511
0.0035650893
0.0035231
0.0034720305
0.0034186707
0.0033705835
0.0033122829
0.0032507971
0.0031969247
0.0031351636
0.0030634684
0.0029980135
0.0041436852
0.004119168
0.0040928767
0.0040643789
0.0040341949
0.004002939
0.0039695723
0.0039350015
0.0039004527
0.0038635752
0.0038254068
0.0037852297
0.0037451204
0.003701663
0.0036579257
0.0036159267
0.00356564
0.0035236622
0.0034724723
0.0034191256
0.0033709982
0.003312586
0.0032511175
0.0031972438
0.0031353898
0.0030635975
0.0029982135
0.004169406
0.0041462908
0.0041215661
0.0040950083
0.0040662514
0.0040358747
0.004004424
0.0039709065
0.0039362143
0.0039015521
0.0038646046
0.0038263418
0.0037860417
0.0037459265
0.0037023061
0.0036586951
0.0036165954
0.0035662832
0.0035243161
0.0034729973
0.0034196612
0.0033714931
0.0033129615
0.0032515092
0.0031976294
0.0031356753
0.0030637787
0.0029984684
0.0042149888
0.0041936251
0.0041722588
0.004148887
0.0041239533
0.0040971474
0.0040681563
0.0040376009
0.0040059525
0.0039723109
0.0039375029
0.0039027349
0.0038657056
0.0038273557
0.0037869351
0.0037468199
0.0037030381
0.0036595547
0.0036173584
0.0035670275
0.0035250531
0.0034736121
0.0034202822
0.0033720645
0.0033134091
0.0032519714
0.0031980812
0.0031360205
0.0030640123
0.0029987746
0.0042381245
0.0042180709
0.0041967861
0.0041753239
0.0041516987
0.0041265508
0.004099463
0.004070228
0.0040394933
0.004007657
0.0039738698
0.003938948
0.0039040509
0.0038669406
0.0038284947
0.0037879499
0.0037478258
0.0037038741
0.0036605259
0.0036182132
0.0035678658
0.0035258815
0.0034743097
0.0034209859
0.0033727168
0.0033139305
0.0032525041
0.0031985986
0.0031364249
0.0030642993
0.002999133
0.0042784719
0.004260514
0.0042413386
0.0042213063
0.0042000603
0.0041784562
0.0041545574
0.0041292007
0.0041018592
0.0040724036
0.0040414847
0.0040094561
0.0039755513
0.0039405187
0.0039054909
0.0038682908
0.0038297547
0.0037890854
0.0037489573
0.0037048347
0.0036616174
0.0036191852
0.0035688232
0.0035268135
0.0034751166
0.0034217933
0.0033734651
0.0033145447
0.0032531249
0.0031991984
0.003136905
0.0030646577
0.0029995548
0.0043156216
0.0042993404
0.0042822753
0.0042642626
0.0042450466
0.004224991
0.0042037074
0.004181957
0.0041577779
0.0041321882
0.0041045462
0.0040748496
0.0040437512
0.0040115336
0.003977487
0.003942335
0.0039071567
0.003869856
0.003831217
0.0037904197
0.0037502711
0.0037059654
0.0036628709
0.0036202874
0.0035699136
0.0035278745
0.0034760436
0.0034227202
0.0033743276
0.0033152668
0.0032538476
0.0031998933
0.003137473
0.0030651017
0.0043482885
0.0043338487
0.0043194471
0.0043031038
0.0042859678
0.0042679796
0.0042488101
0.0042287158
0.0042073706
0.0041854259
0.0041609421
0.0041351467
0.0041072398
0.004077339
0.0040460533
0.0040136533
0.0039794872
0.0039442269
0.0039088929
0.0038714918
0.0038327572
0.0037918299
0.0037516686
0.0037071839
0.0036642172
0.0036214851
0.0035710988
0.0035290164
0.0034770577
0.0034237271
0.0033752636
0.0033160612
0.0032546401
0.0032006525
0.0031380997
0.0030656055
0.004389479
0.0043774118
0.0043658098
0.004352755
0.0043381908
0.0043236751
0.0043072841
0.0042900864
0.0042720911
0.0042528963
0.0042326755
0.0042112826
0.0041891162
0.0041643366
0.0041383195
0.0041101268
0.0040800073
0.0040485407
0.0040159482
0.0039816528
0.0039462706
0.0039107709
0.0038732567
0.0038344159
0.0037933616
0.0037531752
0.003708501
0.003665668
0.0036227678
0.0035723764
0.0035302465
0.003478153
0.003424816
0.0033762753
0.0033169272
0.0032555016
0.0032014755
0.0031387845
0.0030661671
0.0044234305
0.0044135883
0.0044045158
0.0043940438
0.0043818752
0.0043701426
0.0043571177
0.0043423963
0.004327774
0.0043113396
0.0042941493
0.0042762061
0.0042569963
0.0042366498
0.0042152201
0.0041927518
0.0041676964
0.0041414989
0.0041130332
0.0040827046
0.004051048
0.0040182892
0.0039838768
0.0039483867
0.0039127152
0.0038750929
0.0038361544
0.0037949672
0.0037547621
0.0037099035
0.0036672106
0.0036241477
0.0035737471
0.0035315573
0.0034793343
0.0034259818
0.0033773585
0.0033178627
0.0032564317
0.0032023616
0.0031395268
0.0030667843
0.0044677001
0.0044608833
0.0044527962
0.004445229
0.0044377308
0.0044286913
0.004418724
0.0044094853
0.0043990045
0.0043867909
0.0043749029
0.0043618702
0.0043470231
0.0043323176
0.0043158576
0.0042986392
0.004280676
0.0042613591
0.0042408813
0.0042194058
0.0041965937
0.0041712957
0.0041448773
0.0041161124
0.0040855783
0.0040537448
0.0040207951
0.0039862679
0.0039506528
0.0039147983
0.0038770546
0.0038380089
0.003796692
0.0037564585
0.0037114047
0.003668856
0.0036256089
0.0035752112
0.0035329541
0.003480595
0.003427229
0.0033785162
0.0033188687
0.0032574299
0.0032033108
0.003140326
0.0030674554
0.0045196108
0.0045134893
0.0045075579
0.0045025401
0.0044974012
0.0044912905
0.0044846641
0.0044785333
0.0044728724
0.0044660691
0.0044579209
0.0044501931
0.0044426717
0.0044336625
0.0044236713
0.0044143372
0.0044038462
0.0043915554
0.0043795035
0.0043664356
0.0043515096
0.004336749
0.0043203236
0.0043030945
0.0042851503
0.0042657151
0.0042451388
0.0042235645
0.0042003623
0.0041748794
0.004148261
0.0041192155
0.0040884804
0.0040564663
0.0040233637
0.0039887146
0.0039529861
0.0039169498
0.0038790895
0.003839941
0.003798491
0.0037582369
0.003712992
0.0036705929
0.0036271683
0.0035767686
0.0035344332
0.0034819421
0.0034285532
0.003379747
0.0033199448
0.0032584967
0.0032043238
0.0031411826
0.0030681806
0.0027294187
0.0027572807
0.0027855434
0.0028148707
0.0028461382
0.0028806514
0.0029212767
0.0029778434
0.0030813039
0.0032790001
0.0035859126
0.003979507
0.0043223183
0.0045310338
0.0046229237
0.0046486136
0.004648503
0.0046407849
0.0046317387
0.0046230335
0.0046147427
0.0046065931
0.0045983568
0.0045903404
0.0045826175
0.0045757599
0.004569937
0.0045644395
0.0045584925
0.0045522731
0.0045462849
0.0045407368
0.0045356855
0.0045307723
0.0045253779
0.0045192896
0.0045135241
0.004508608
0.0045034492
0.0044973462
0.0044906188
0.004484329
0.0044786384
0.0044718279
0.0044636525
0.0044557887
0.0044482392
0.0044392085
0.0044290424
0.0044195725
0.0044090732
0.0043967169
0.0043845121
0.004371421
0.004356474
0.0043416577
0.0043252714
0.0043079276
0.0042899132
0.0042703378
0.0042496782
0.0042279612
0.0042043796
0.0041787263
0.004151846
0.0041224878
0.0040915602
0.004059376
0.0040260881
0.0039913259
0.0039554671
0.003919234
0.0038812514
0.0038419949
0.0038004107
0.0037601236
0.0037147371
0.0036724856
0.0036288081
0.0035784205
0.0035359967
0.0034833672
0.0034299587
0.0033810521
0.003321092
0.0032596313
0.0032054
0.0031420961
0.0026414028
0.0026721823
0.0027022314
0.002731649
0.0027606799
0.0027897118
0.0028192763
0.0028500785
0.0028830421
0.0029194942
0.0029621626
0.0030204415
0.0031248761
0.0033236938
0.0036305518
0.0040130342
0.0043408638
0.0045406544
0.0046268198
0.0046513885
0.00465156
0.0046441936
0.0046351069
0.0046263134
0.004618383
0.0046108926
0.0046034438
0.0045958307
0.0045884256
0.0045819645
0.0045761943
0.0045704975
0.0045646124
0.0045583799
0.004552244
0.0045465786
0.0045415538
0.0045366315
0.0045311661
0.0045251355
0.0045193067
0.004514144
0.0045088915
0.0045027564
0.0044960053
0.0044897489
0.0044840275
0.0044771853
0.0044689849
0.0044609894
0.0044534836
0.0044445392
0.0044342834
0.0044246567
0.0044141514
0.0044017111
0.0043893537
0.0043762804
0.0043613249
0.0043464734
0.0043301709
0.0043127041
0.0042946549
0.0042749994
0.0042542064
0.004232293
0.0042083407
0.0041825564
0.0041554085
0.0041257712
0.0040946758
0.0040623214
0.004028887
0.0039939964
0.0039580123
0.0039215917
0.0038834872
0.0038441222
0.0038024029
0.0037620936
0.0037165947
0.0036744922
0.0036305473
0.0035801658
0.0035376443
0.0034848798
0.003431442
0.0033824313
0.0033223097
0.0032608338
0.00320654
0.0031430664
0.0025878582
0.0026216302
0.0026548034
0.0026872666
0.0027189544
0.002749893
0.0027801712
0.0028100279
0.0028398505
0.0028701773
0.0029017311
0.0029354787
0.0029728492
0.0030167338
0.0030764254
0.0031812798
0.0033800637
0.0036852362
0.0040669519
0.0043941263
0.004588137
0.0046662435
0.0046841684
0.0046787444
0.0046669766
0.0046545496
0.0046432136
0.0046331444
0.0046236762
0.0046144405
0.0046052796
0.004596892
0.0045894208
0.0045827306
0.004576643
0.0045705866
0.0045641458
0.0045578612
0.0045523259
0.0045473471
0.0045424287
0.0045370224
0.0045310232
0.0045250647
0.0045198816
0.0045147905
0.0045087891
0.004502137
0.0044958197
0.0044899895
0.0044831867
0.0044749949
0.0044668554
0.0044592682
0.004450297
0.0044399768
0.0044301559
0.0044196643
0.0044071936
0.0043946893
0.004381672
0.0043666923
0.0043517739
0.004335477
0.0043177958
0.0042996925
0.0042799643
0.0042589922
0.0042368745
0.0042125589
0.0041866078
0.0041591427
0.0041292313
0.0040979725
0.0040654464
0.0040318353
0.0039968253
0.0039607022
0.0039240776
0.0038858505
0.0038463715
0.0038045177
0.0037641729
0.0037185544
0.003676598
0.0036323678
0.0035820066
0.0035393755
0.0034864704
0.0034330069
0.0033838841
0.0033235985
0.0032621036
0.0032077435
0.0031440931
0.0024822783
0.002516794
0.0025509716
0.0025847239
0.0026179249
0.0026504654
0.0026822293
0.0027131474
0.0027432379
0.0027725865
0.0028014229
0.00283012
0.0028591934
0.0028893273
0.0029214274
0.0029568593
0.0029985706
0.0030563202
0.0031604425
0.0033627624
0.0036800264
0.0040742632
0.0044015566
0.0045893176
0.0046640932
0.0046803171
0.0046748156
0.0046639889
0.004653251
0.0046436287
0.0046347255
0.004626013
0.0046172867
0.0046086797
0.0046006671
0.004593347
0.004587127
0.0045815442
0.0045756675
0.0045694483
0.0045634677
0.0045581124
0.0045531339
0.0045482492
0.0045429144
0.0045368961
0.0045308724
0.0045257349
0.0045206806
0.0045146609
0.0045079496
0.0045014577
0.0044955854
0.0044888428
0.0044806285
0.0044723916
0.004464797
0.0044558253
0.0044455224
0.0044355437
0.0044250401
0.00441254
0.0043998939
0.0043869343
0.0043719554
0.0043569743
0.0043406888
0.0043228849
0.0043047626
0.0042849323
0.0042637143
0.0042413714
0.0042167304
0.0041906556
0.0041628884
0.0041327266
0.0041013165
0.0040686173
0.0040348552
0.0039997173
0.0039634545
0.0039266363
0.0038882838
0.0038486955
0.0038067058
0.0037663348
0.0037206031
0.0036787989
0.0036342882
0.0035839401
0.0035411922
0.0034881498
0.0034346505
0.0033854117
0.003324958
0.003263441
0.003209011
0.0031451763
0.0022954641
0.0023311237
0.0023665203
0.0024016781
0.0024366228
0.0024713305
0.0025057724
0.0025398816
0.0025735706
0.0026067175
0.0026392118
0.0026709337
0.0027018104
0.0027318629
0.0027611886
0.0027900271
0.0028187614
0.00284792
0.0028781985
0.0029105054
0.0029461718
0.0029880072
0.003045764
0.0031508799
0.0033576849
0.003681629
0.0040699429
0.0043855042
0.0045667697
0.0046417828
0.0046616541
0.0046608824
0.0046542807
0.004646501
0.0046388275
0.0046315376
0.0046245475
0.0046175059
0.0046103487
0.0046033417
0.0045970984
0.0045917451
0.0045866182
0.0045811267
0.0045752911
0.0045694646
0.0045639897
0.0045590051
0.0045541787
0.0045488938
0.0045429386
0.0045371311
0.0045321245
0.0045270741
0.0045211001
0.0045143413
0.0045077575
0.0045018544
0.0044950827
0.00448682
0.0044784618
0.0044708242
0.0044618414
0.0044514797
0.0044413412
0.004430858
0.0044183895
0.0044056288
0.0043927115
0.0043777205
0.0043625898
0.0043462638
0.004328327
0.0043101252
0.0042901597
0.0042687156
0.0042461437
0.0042211688
0.0041949131
0.0041668103
0.0041364209
0.0041048423
0.0040719528
0.0040380286
0.0040027628
0.0039663489
0.0039293266
0.0038908498
0.0038511402
0.003809014