/*--------------------------------*- C++ -*----------------------------------*\
| =========                 |                                                 |
| \\      /  F ield         | OpenFOAM: The Open Source CFD Toolbox           |
|  \\    /   O peration     | Version:  2506                                  |
|   \\  /    A nd           | Website:  www.openfoam.com                      |
|    \\/     M anipulation  |                                                 |
\*---------------------------------------------------------------------------*/
FoamFile
{
    version     2.0;
    format      ascii;
    arch        "LSB;label=32;scalar=64";
    class       volScalarField;
    location    "0.00046";
    object      nut;
}
// * * * * * * * * * * * * * * * * * * * * * * * * * * * * * * * * * * * * * //

dimensions      [0 2 -1 0 0 0 0];

internalField   nonuniform List<scalar> 
3415
(
3.2202832e-09
3.0864063e-09
3.0463709e-09
3.0204609e-09
2.9838039e-09
2.9078251e-09
2.8311861e-09
2.7673995e-09
2.6565421e-09
2.5399206e-09
2.5338404e-09
2.5368229e-09
2.498697e-09
2.4711254e-09
2.5340583e-09
2.8360585e-09
3.1314881e-09
3.1406405e-09
3.0383186e-09
2.8199973e-09
2.5954921e-09
2.4425343e-09
2.398742e-09
2.4041732e-09
2.4273275e-09
2.4301019e-09
2.4322833e-09
2.4503713e-09
2.4610205e-09
2.4517246e-09
2.4235271e-09
2.4033336e-09
2.4237206e-09
2.4882127e-09
2.5761303e-09
2.5869868e-09
2.5541697e-09
2.4605666e-09
2.344902e-09
2.2691695e-09
2.2380053e-09
2.222107e-09
2.2189432e-09
2.2227516e-09
2.2093384e-09
2.1857939e-09
2.1783933e-09
2.1524389e-09
2.1353665e-09
2.1576524e-09
2.1592094e-09
2.0996172e-09
2.0293849e-09
2.0211962e-09
2.0562039e-09
2.1043268e-09
2.165869e-09
2.2144326e-09
2.2211895e-09
2.2221488e-09
2.2503732e-09
2.2625592e-09
3.1342676e-09
3.0630193e-09
3.0439424e-09
3.0221492e-09
2.9683972e-09
2.8821919e-09
2.8117843e-09
2.7499254e-09
2.6295626e-09
2.5337319e-09
2.5388331e-09
2.5395895e-09
2.4935291e-09
2.4747175e-09
2.5630103e-09
2.8937715e-09
3.1472804e-09
3.1389068e-09
3.0198345e-09
2.7960009e-09
2.5789404e-09
2.4375039e-09
2.4011336e-09
2.4088369e-09
2.4310877e-09
2.4321316e-09
2.4349422e-09
2.4541662e-09
2.4634067e-09
2.4528404e-09
2.4248634e-09
2.4058707e-09
2.4271305e-09
2.4916598e-09
2.5776144e-09
2.58662e-09
2.5520077e-09
2.4571642e-09
2.3422206e-09
2.2677142e-09
2.23734e-09
2.2220357e-09
2.2190027e-09
2.2221859e-09
2.2083861e-09
2.1850308e-09
2.177426e-09
2.1513541e-09
2.135212e-09
2.1576674e-09
2.15802e-09
2.097867e-09
2.0279399e-09
2.0204745e-09
2.0560436e-09
2.1045164e-09
2.1661706e-09
2.2145992e-09
2.2213061e-09
2.2223734e-09
2.2506487e-09
2.2626439e-09
2.2440861e-09
2.2231079e-09
3.1591383e-09
3.0860226e-09
3.0542709e-09
3.0214725e-09
2.9545027e-09
2.8701495e-09
2.8059736e-09
2.7446845e-09
2.6178143e-09
2.5327146e-09
2.5429405e-09
2.5420577e-09
2.4906057e-09
2.4768303e-09
2.5778642e-09
2.9241786e-09
3.1554602e-09
3.1403546e-09
3.012803e-09
2.7870161e-09
2.5738272e-09
2.4369359e-09
2.4037253e-09
2.4121707e-09
2.434022e-09
2.4343542e-09
2.4375127e-09
2.4574997e-09
2.4660452e-09
2.4553582e-09
2.4280051e-09
2.408594e-09
2.4291268e-09
2.4927268e-09
2.5780159e-09
2.5864579e-09
2.5512906e-09
2.4561249e-09
2.341475e-09
2.2672038e-09
2.2370864e-09
2.2221801e-09
2.218991e-09
2.2215942e-09
2.2077027e-09
2.1844183e-09
2.1766722e-09
2.1506177e-09
2.134952e-09
2.1573574e-09
2.1570813e-09
2.0966548e-09
2.0267501e-09
2.0195273e-09
2.0551445e-09
2.1038959e-09
2.1659158e-09
2.2146188e-09
2.221364e-09
2.2225232e-09
2.2508136e-09
2.262683e-09
2.2442128e-09
2.2231505e-09
3.1076518e-09
3.0278903e-09
2.9917482e-09
2.9385341e-09
2.8631137e-09
2.8058837e-09
2.7387875e-09
2.6023612e-09
2.5317452e-09
2.5485135e-09
2.5456717e-09
2.4875738e-09
2.4795462e-09
2.5977699e-09
2.9595576e-09
3.1627625e-09
3.1398205e-09
3.003323e-09
2.7760391e-09
2.5681238e-09
2.4370656e-09
2.4071202e-09
2.4162645e-09
2.4373235e-09
2.4369536e-09
2.4405818e-09
2.4612738e-09
2.4689077e-09
2.4578793e-09
2.4309113e-09
2.4113842e-09
2.4313164e-09
2.4940057e-09
2.5784691e-09
2.5861164e-09
2.550254e-09
2.4547541e-09
2.3404767e-09
2.2665218e-09
2.236775e-09
2.2222658e-09
2.2189582e-09
2.2209221e-09
2.2068425e-09
2.1836869e-09
2.1758029e-09
2.1497338e-09
2.1347057e-09
2.1571477e-09
2.1560172e-09
2.0951594e-09
2.0253762e-09
2.0185986e-09
2.0545223e-09
2.1035601e-09
2.1657904e-09
2.214639e-09
2.2214294e-09
2.2226998e-09
2.2510105e-09
2.2627426e-09
2.2443181e-09
2.2231559e-09
3.1330013e-09
3.0184709e-09
2.9840969e-09
2.9354545e-09
2.8604867e-09
2.8029958e-09
2.731528e-09
2.5902881e-09
2.5330232e-09
2.5540687e-09
2.54864e-09
2.4847527e-09
2.482213e-09
2.6182583e-09
2.9919158e-09
3.16859e-09
3.138276e-09
2.9940914e-09
2.7658461e-09
2.5628972e-09
2.4379016e-09
2.4104227e-09
2.4202041e-09
2.4407055e-09
2.4398638e-09
2.4438901e-09
2.4650138e-09
2.4718624e-09
2.4608854e-09
2.4341495e-09
2.4140559e-09
2.4332226e-09
2.4951348e-09
2.5788682e-09
2.5858192e-09
2.5492664e-09
2.4534535e-09
2.3394743e-09
2.2658173e-09
2.2364492e-09
2.2223572e-09
2.2188498e-09
2.2201835e-09
2.2059104e-09
2.1829153e-09
2.1748988e-09
2.1488358e-09
2.1344519e-09
2.1568886e-09
2.1549028e-09
2.093588e-09
2.023944e-09
2.0176409e-09
2.0538388e-09
2.1031621e-09
2.1656242e-09
2.2146537e-09
2.2214823e-09
2.2228713e-09
2.2512072e-09
2.2628086e-09
2.2444159e-09
2.2231508e-09
3.3300002e-09
3.0599501e-09
2.9807594e-09
2.9234519e-09
2.8504638e-09
2.7979389e-09
2.725717e-09
2.5807001e-09
2.5342938e-09
2.5593103e-09
2.5505881e-09
2.4823692e-09
2.4850172e-09
2.6403516e-09
3.0223452e-09
3.1734582e-09
3.1361859e-09
2.9848299e-09
2.7561453e-09
2.5582652e-09
2.4387184e-09
2.4139017e-09
2.4242785e-09
2.4444417e-09
2.4431123e-09
2.4473529e-09
2.4687088e-09
2.4750238e-09
2.4644099e-09
2.4374623e-09
2.4164364e-09
2.4348089e-09
2.4961508e-09
2.5791736e-09
2.5854533e-09
2.5482428e-09
2.4521768e-09
2.338446e-09
2.2650729e-09
2.2361118e-09
2.22243e-09
2.2186744e-09
2.2193725e-09
2.204884e-09
2.1821055e-09
2.1739449e-09
2.1479114e-09
2.1342051e-09
2.1566169e-09
2.1537175e-09
2.0919067e-09
2.022442e-09
2.0166785e-09
2.0531771e-09
2.1027758e-09
2.1654529e-09
2.2146601e-09
2.2215219e-09
2.2230563e-09
2.2514058e-09
2.2628726e-09
2.2445178e-09
2.2231182e-09
3.1083639e-09
2.9794167e-09
2.9161566e-09
2.8461345e-09
2.79599e-09
2.71962e-09
2.572266e-09
2.5349299e-09
2.5634393e-09
2.5515312e-09
2.4798785e-09
2.4883338e-09
2.6634151e-09
3.0501009e-09
3.1778112e-09
3.134068e-09
2.9758868e-09
2.7470411e-09
2.5541642e-09
2.4395657e-09
2.4173366e-09
2.4284315e-09
2.4485088e-09
2.4466513e-09
2.4509403e-09
2.4723805e-09
2.4785896e-09
2.46845e-09
2.4406405e-09
2.4183306e-09
2.4359642e-09
2.4970149e-09
2.5793799e-09
2.5850002e-09
2.5471806e-09
2.450935e-09
2.33741e-09
2.264301e-09
2.2357642e-09
2.2224682e-09
2.218447e-09
2.2184833e-09
2.2037707e-09
2.1812708e-09
2.1729482e-09
2.1469685e-09
2.1339658e-09
2.1563101e-09
2.152469e-09
2.0901255e-09
2.0208794e-09
2.0157219e-09
2.0525168e-09
2.1023789e-09
2.1652671e-09
2.2146586e-09
2.2215489e-09
2.2232556e-09
2.2516057e-09
2.26294e-09
2.244624e-09
2.2230658e-09
3.1257866e-09
2.962274e-09
2.9083628e-09
2.8429825e-09
2.7913907e-09
2.7127856e-09
2.5642901e-09
2.5365252e-09
2.5685402e-09
2.552485e-09
2.4781392e-09
2.4930685e-09
2.6883837e-09
3.0754882e-09
3.1817805e-09
3.1316667e-09
2.9670298e-09
2.7382969e-09
2.5504497e-09
2.4405982e-09
2.4207762e-09
2.4327486e-09
2.4528425e-09
2.4503719e-09
2.45463e-09
2.4761883e-09
2.4828931e-09
2.4728285e-09
2.4433532e-09
2.4196495e-09
2.4366686e-09
2.4977326e-09
2.57952e-09
2.5844181e-09
2.5460437e-09
2.4496874e-09
2.3363441e-09
2.2635166e-09
2.2354162e-09
2.2224689e-09
2.2181676e-09
2.2175147e-09
2.2025767e-09
2.1804185e-09
2.1719165e-09
2.1460159e-09
2.1337344e-09
2.1559654e-09
2.1511568e-09
2.0882428e-09
2.0192634e-09
2.0147748e-09
2.0518603e-09
2.1019745e-09
2.1650655e-09
2.214633e-09
2.2215666e-09
2.2234719e-09
2.2518035e-09
2.2630025e-09
2.2447224e-09
2.2229916e-09
3.1400328e-09
2.9616801e-09
2.8980159e-09
2.8322033e-09
2.7858391e-09
2.7060266e-09
2.557768e-09
2.5376083e-09
2.5730831e-09
2.552951e-09
2.4770468e-09
2.4989523e-09
2.7140681e-09
3.0983208e-09
3.185339e-09
3.1290395e-09
2.9583592e-09
2.7299024e-09
2.5469976e-09
2.4416415e-09
2.4241675e-09
2.4372117e-09
2.4572846e-09
2.4541727e-09
2.458496e-09
2.4804742e-09
2.4881825e-09
2.4772408e-09
2.4453174e-09
2.4204017e-09
2.4369959e-09
2.4983219e-09
2.5796396e-09
2.583781e-09
2.5448638e-09
2.4484008e-09
2.3352079e-09
2.2627186e-09
2.2350741e-09
2.2224419e-09
2.2178116e-09
2.2164719e-09
2.201339e-09
2.1795653e-09
2.1708504e-09
2.1450652e-09
2.1335103e-09
2.1555814e-09
2.1497798e-09
2.0862576e-09
2.017603e-09
2.0138317e-09
2.0512118e-09
2.1015609e-09
2.1648435e-09
2.2145819e-09
2.2215737e-09
2.2236971e-09
2.2519968e-09
2.2630537e-09
2.2448012e-09
2.2229052e-09
3.0793348e-09
2.9549412e-09
2.8912426e-09
2.8280901e-09
2.784252e-09
2.7000694e-09
2.5508933e-09
2.5385641e-09
2.5783735e-09
2.553299e-09
2.4764729e-09
2.5059769e-09
2.7404604e-09
3.1189191e-09
3.1885571e-09
3.1260766e-09
2.9498032e-09
2.7219036e-09
2.5438231e-09
2.4427054e-09
2.4275145e-09
2.4417761e-09
2.4616932e-09
2.4580654e-09
2.462778e-09
2.4858123e-09
2.4942238e-09
2.4812145e-09
2.4463818e-09
2.4206973e-09
2.4370785e-09
2.4987685e-09
2.5797461e-09
2.5831682e-09
2.5437069e-09
2.4471079e-09
2.3339985e-09
2.2619036e-09
2.2347379e-09
2.222376e-09
2.2173449e-09
2.2153581e-09
2.2000995e-09
2.1787293e-09
2.1697504e-09
2.1441277e-09
2.1332943e-09
2.1551715e-09
2.148345e-09
2.0841693e-09
2.0159074e-09
2.0128924e-09
2.0505742e-09
2.1011365e-09
2.1645927e-09
2.2145084e-09
2.2215743e-09
2.2239225e-09
2.2521777e-09
2.2630905e-09
2.2448636e-09
2.9455611e-09
2.884916e-09
2.823199e-09
2.7804472e-09
2.6912396e-09
2.5449756e-09
2.541464e-09
2.5849547e-09
2.5530776e-09
2.4761807e-09
2.513763e-09
2.7666555e-09
3.1367984e-09
3.1913133e-09
3.1227939e-09
2.9415294e-09
2.7143887e-09
2.5410643e-09
2.4438863e-09
2.4308557e-09
2.446381e-09
2.4660365e-09
2.4622482e-09
2.4679013e-09
2.4926337e-09
2.5001927e-09
2.4842361e-09
2.4467042e-09
2.4207251e-09
2.4369232e-09
2.4990911e-09
2.5798457e-09
2.5825939e-09
2.5425936e-09
2.4458247e-09
2.3327284e-09
2.2610653e-09
2.2343933e-09
2.2222535e-09
2.2167783e-09
2.2141734e-09
2.1988728e-09
2.17792e-09
2.1686197e-09
2.1432098e-09
2.1330803e-09
2.1547436e-09
2.1468522e-09
2.0819692e-09
2.0141864e-09
2.0119525e-09
2.0499523e-09
2.1007089e-09
2.1643146e-09
2.2144142e-09
2.2215662e-09
2.2241464e-09
2.2523414e-09
2.263119e-09
2.2449231e-09
2.9432422e-09
2.8762761e-09
2.8160575e-09
2.7760518e-09
2.6807921e-09
2.5391482e-09
2.5449515e-09
2.5920034e-09
2.5522537e-09
2.4767509e-09
2.5221546e-09
2.792499e-09
3.1525629e-09
3.1939462e-09
3.1192662e-09
2.9334303e-09
2.7072757e-09
2.5388921e-09
2.4454296e-09
2.4343482e-09
2.4511276e-09
2.4705752e-09
2.4671563e-09
2.474251e-09
2.5003532e-09
2.5052647e-09
2.4860418e-09
2.4465978e-09
2.4201227e-09
2.4361678e-09
2.4993582e-09
2.5799472e-09
2.58204e-09
2.5414996e-09
2.4445487e-09
2.3314467e-09
2.2602352e-09
2.2340389e-09
2.2220606e-09
2.2161282e-09
2.2129198e-09
2.1976629e-09
2.1771465e-09
2.1674636e-09
2.1423202e-09
2.1328702e-09
2.1542936e-09
2.1452875e-09
2.0796568e-09
2.0124498e-09
2.0110033e-09
2.0493345e-09
2.1002705e-09
2.1640079e-09
2.2142868e-09
2.2215436e-09
2.2243699e-09
2.2524941e-09
2.2631527e-09
2.2449887e-09
2.9299762e-09
2.8627716e-09
2.8104489e-09
2.7733472e-09
2.6711066e-09
2.5345172e-09
2.5492272e-09
2.598258e-09
2.5500796e-09
2.4771971e-09
2.5308496e-09
2.8175857e-09
3.1662594e-09
3.1964035e-09
3.1157432e-09
2.925951e-09
2.7009405e-09
2.5374924e-09
2.4475162e-09
2.4382448e-09
2.4563819e-09
2.4758148e-09
2.4730476e-09
2.4814272e-09
2.5073588e-09
2.5090254e-09
2.4867939e-09
2.4451459e-09
2.4187502e-09
2.4352453e-09
2.4996919e-09
2.5800794e-09
2.5815131e-09
2.5403571e-09
2.4431966e-09
2.3301536e-09
2.2594421e-09
2.2336998e-09
2.2217927e-09
2.2153948e-09
2.2116048e-09
2.1964775e-09
2.1764141e-09
2.1662822e-09
2.1414564e-09
2.1326719e-09
2.1538115e-09
2.1436434e-09
2.0772303e-09
2.0107037e-09
2.0100382e-09
2.0487178e-09
2.0998237e-09
2.163678e-09
2.2141247e-09
2.2215023e-09
2.2246009e-09
2.2526517e-09
2.2632081e-09
2.2450594e-09
2.9218603e-09
2.8528049e-09
2.8061316e-09
2.7694424e-09
2.6599984e-09
2.5305294e-09
2.5543763e-09
2.6037346e-09
2.5476321e-09
2.4782479e-09
2.5400497e-09
2.841932e-09
3.1784871e-09
3.1991752e-09
3.112745e-09
2.9195281e-09
2.6957585e-09
2.5368572e-09
2.4503911e-09
2.4429636e-09
2.4627359e-09
2.4821985e-09
2.4795032e-09
2.4881412e-09
2.512375e-09
2.5114346e-09
2.486909e-09
2.4431794e-09
2.4172998e-09
2.4342936e-09
2.5001158e-09
2.5802392e-09
2.5810476e-09
2.5391645e-09
2.4417023e-09
2.3288281e-09
2.2586908e-09
2.2333949e-09
2.2214593e-09
2.2145679e-09
2.2102464e-09
2.1953302e-09
2.1757311e-09
2.165085e-09
2.1406178e-09
2.1324882e-09
2.1532898e-09
2.1419201e-09
2.0746981e-09
2.008963e-09
2.00905e-09
2.0481061e-09
2.0993709e-09
2.1633194e-09
2.2139279e-09
2.2214479e-09
2.2248422e-09
2.2528262e-09
2.263295e-09
2.2451325e-09
2.2224832e-09
2.9105244e-09
2.8435705e-09
2.8032002e-09
2.7677723e-09
2.6517395e-09
2.5287001e-09
2.5607453e-09
2.6087859e-09
2.5454965e-09
2.4798068e-09
2.5497224e-09
2.865566e-09
3.1895495e-09
3.2024155e-09
3.1108203e-09
2.9147654e-09
2.6921831e-09
2.5367987e-09
2.4544543e-09
2.448896e-09
2.4704285e-09
2.4891729e-09
2.4852827e-09
2.4931918e-09
2.5152428e-09
2.5125888e-09
2.4857667e-09
2.441151e-09
2.4158032e-09
2.4333323e-09
2.5006216e-09
2.5803884e-09
2.5806662e-09
2.5379785e-09
2.4400795e-09
2.3274613e-09
2.2579657e-09
2.2331162e-09
2.2210795e-09
2.2136535e-09
2.208859e-09
2.194231e-09
2.175103e-09
2.1638748e-09
2.1398056e-09
2.1323192e-09
2.152726e-09
2.1401045e-09
2.0720634e-09
2.0072291e-09
2.008039e-09
2.0475021e-09
2.0989175e-09
2.1629356e-09
2.2137016e-09
2.221387e-09
2.2250966e-09
2.2530206e-09
2.263398e-09
2.2452123e-09
2.222388e-09
2.9070431e-09
2.8418766e-09
2.8036217e-09
2.767773e-09
2.6455019e-09
2.5280688e-09
2.5676762e-09
2.6137283e-09
2.5442596e-09
2.4823056e-09
2.560185e-09
2.8887825e-09
3.2004991e-09
3.2071344e-09
3.1102051e-09
2.9117115e-09
2.6902992e-09
2.5389114e-09
2.4599297e-09
2.4557682e-09
2.478577e-09
2.4952941e-09
2.4893814e-09
2.4962855e-09
2.516538e-09
2.512879e-09
2.4835804e-09
2.4389023e-09
2.4142969e-09
2.4324805e-09
2.5011865e-09
2.5805013e-09
2.5803488e-09
2.5368531e-09
2.4384259e-09
2.3261162e-09
2.2572798e-09
2.2328329e-09
2.2206758e-09
2.2126871e-09
2.2074657e-09
2.1931844e-09
2.1745313e-09
2.1626516e-09
2.1390196e-09
2.1321621e-09
2.1521089e-09
2.1381733e-09
2.0693419e-09
2.0054995e-09
2.0070172e-09
2.0469004e-09
2.0984587e-09
2.162532e-09
2.2134464e-09
2.2213278e-09
2.2253619e-09
2.2532334e-09
2.2635056e-09
2.2453005e-09
2.2222956e-09
2.9078587e-09
2.8422787e-09
2.8064125e-09
2.7695358e-09
2.6414966e-09
2.5289851e-09
2.5758633e-09
2.6194918e-09
2.5440035e-09
2.4860922e-09
2.5719251e-09
2.9125022e-09
3.2122506e-09
3.2136066e-09
3.1103306e-09
2.9100887e-09
2.6897019e-09
2.5425424e-09
2.4655776e-09
2.4620673e-09
2.4855077e-09
2.4995269e-09
2.4916258e-09
2.497819e-09
2.5169105e-09
2.5124959e-09
2.4811856e-09
2.4366512e-09
2.4128855e-09
2.4317687e-09
2.5017461e-09
2.5806211e-09
2.5800673e-09
2.5357899e-09
2.4367906e-09
2.3248417e-09
2.2566752e-09
2.2325321e-09
2.2202287e-09
2.211679e-09
2.2060889e-09
2.1921912e-09
2.1739952e-09
2.1614118e-09
2.1382626e-09
2.1320112e-09
2.1514304e-09
2.1361111e-09
2.0665351e-09
2.0037707e-09
2.005995e-09
2.0463076e-09
2.097997e-09
2.1621135e-09
2.2131664e-09
2.2212723e-09
2.2256346e-09
2.253461e-09
2.263615e-09
2.2453962e-09
2.2222087e-09
2.2138225e-09
2.91102e-09
2.8456573e-09
2.8107748e-09
2.7731257e-09
2.6400059e-09
2.5326953e-09
2.5850979e-09
2.6263526e-09
2.5445831e-09
2.4915943e-09
2.584759e-09
2.9358629e-09
3.2246598e-09
3.221325e-09
3.1119378e-09
2.9094717e-09
2.6896652e-09
2.5455019e-09
2.4697916e-09
2.4665031e-09
2.4902056e-09
2.5017737e-09
2.4924818e-09
2.4983723e-09
2.5168858e-09
2.510774e-09
2.4783902e-09
2.4345844e-09
2.4116048e-09
2.4311249e-09
2.5021476e-09
2.5807757e-09
2.579849e-09
2.5347896e-09
2.4351757e-09
2.3236513e-09
2.2562002e-09
2.2322327e-09
2.2197381e-09
2.2106165e-09
2.2047302e-09
2.191244e-09
2.1734801e-09
2.1601503e-09
2.1375413e-09
2.1318545e-09
2.1506825e-09
2.1339001e-09
2.0636487e-09
2.0020493e-09
2.0049924e-09
2.0457222e-09
2.0975342e-09
2.1616841e-09
2.2128657e-09
2.2212191e-09
2.2259157e-09
2.2536977e-09
2.2637289e-09
2.245494e-09
2.2221266e-09
2.2137813e-09
2.9155817e-09
2.8510199e-09
2.8167983e-09
2.7781078e-09
2.6402535e-09
2.5370856e-09
2.5947174e-09
2.6340282e-09
2.5471115e-09
2.4979307e-09
2.5977114e-09
2.9578802e-09
3.2357773e-09
3.2278304e-09
3.1131913e-09
2.9088418e-09
2.689608e-09
2.5468027e-09
2.4720059e-09
2.4688128e-09
2.4927683e-09
2.5026337e-09
2.4926153e-09
2.4984471e-09
2.515951e-09
2.5089355e-09
2.4755988e-09
2.4327665e-09
2.4104383e-09
2.4304438e-09
2.5023615e-09
2.5810007e-09
2.5797395e-09
2.5338678e-09
2.4335493e-09
2.3224841e-09
2.2558391e-09
2.2319505e-09
2.21922e-09
2.2094997e-09
2.2033794e-09
2.1903433e-09
2.1729542e-09
2.1588492e-09
2.1368416e-09
2.131678e-09
2.1498731e-09
2.131517e-09
2.060685e-09
2.0003326e-09
2.0040104e-09
2.045153e-09
2.0970838e-09
2.1612513e-09
2.212547e-09
2.2211712e-09
2.2262081e-09
2.253949e-09
2.2638611e-09
2.2455869e-09
2.2220425e-09
2.9201024e-09
2.8562432e-09
2.8223858e-09
2.7829735e-09
2.6413539e-09
2.5417351e-09
2.6037399e-09
2.6408081e-09
2.5493981e-09
2.5033422e-09
2.6091485e-09
2.9769667e-09
3.2441025e-09
3.2318015e-09
3.1134708e-09
2.9066308e-09
2.6877317e-09
2.5469596e-09
2.4727626e-09
2.4696789e-09
2.4939162e-09
2.5027985e-09
2.4918042e-09
2.4978022e-09
2.5148026e-09
2.5071944e-09
2.4730737e-09
2.4311294e-09
2.4093213e-09
2.4296724e-09
2.5024623e-09
2.5812714e-09
2.5797143e-09
2.533104e-09
2.4319992e-09
2.3213257e-09
2.2555365e-09
2.2316716e-09
2.2186689e-09
2.2083452e-09
2.2020463e-09
2.1894895e-09
2.1723918e-09
2.1575046e-09
2.1361528e-09
2.1315028e-09
2.1489972e-09
2.1289494e-09
2.0576653e-09
1.9986251e-09
2.0030471e-09
2.044596e-09
2.0966501e-09
2.1608175e-09
2.2122093e-09
2.2211296e-09
2.2265104e-09
2.2542215e-09
2.2640294e-09
2.9247238e-09
2.859386e-09
2.826198e-09
2.7856213e-09
2.6405841e-09
2.5440928e-09
2.6111821e-09
2.6456588e-09
2.550072e-09
2.5065407e-09
2.618634e-09
2.9935037e-09
3.2494421e-09
3.2332782e-09
3.1109941e-09
2.9008261e-09
2.6821046e-09
2.545345e-09
2.472798e-09
2.4698387e-09
2.4943096e-09
2.5022487e-09
2.4901073e-09
2.4965654e-09
2.5138906e-09
2.5056212e-09
2.4708315e-09
2.4294967e-09
2.4081322e-09
2.4288788e-09
2.5026235e-09
2.5816072e-09
2.5797937e-09
2.5325066e-09
2.4305611e-09
2.3201945e-09
2.2552493e-09
2.2313368e-09
2.2180401e-09
2.207156e-09
2.2007392e-09
2.1886699e-09
2.1717583e-09
2.1561061e-09
2.1354754e-09
2.1313519e-09
2.1480482e-09
2.1261895e-09
2.0545975e-09
1.9969426e-09
2.0021077e-09
2.0440553e-09
2.096242e-09
2.1603937e-09
2.211856e-09
2.2210911e-09
2.2268185e-09
2.2545161e-09
2.9249968e-09
2.859475e-09
2.8274969e-09
2.7860291e-09
2.6358544e-09
2.5445532e-09
2.6169459e-09
2.6483061e-09
2.5491935e-09
2.5078166e-09
2.6260482e-09
3.007086e-09
3.2524524e-09
3.2335209e-09
3.1052454e-09
2.8937084e-09
2.6758599e-09
2.5414738e-09
2.4715409e-09
2.4693253e-09
2.4943676e-09
2.5010556e-09
2.4886515e-09
2.4956161e-09
2.5131596e-09
2.5043251e-09
2.468834e-09
2.4277228e-09
2.4068215e-09
2.4282178e-09
2.5029952e-09
2.5820338e-09
2.5800588e-09
2.5320386e-09
2.4292155e-09
2.319117e-09
2.2549849e-09
2.2309285e-09
2.217293e-09
2.2059032e-09
2.1994423e-09
2.1878808e-09
2.1710316e-09
2.1546734e-09
2.1347984e-09
2.1312353e-09
2.147023e-09
2.1232417e-09
2.0515181e-09
1.9952923e-09
2.0011946e-09
2.0435243e-09
2.0958607e-09
2.1599817e-09
2.211488e-09
2.2210522e-09
2.227133e-09
2.8580552e-09
2.8274753e-09
2.7852763e-09
2.6272257e-09
2.5441949e-09
2.6214572e-09
2.6495107e-09
2.5448278e-09
2.5079678e-09
2.6320233e-09
3.0185355e-09
3.253882e-09
3.2312588e-09
3.0987405e-09
2.8862097e-09
2.6696542e-09
2.537641e-09
2.4694915e-09
2.4679282e-09
2.493999e-09
2.5000697e-09
2.4873564e-09
2.4949359e-09
2.5126457e-09
2.5031876e-09
2.4668849e-09
2.4257425e-09
2.4055623e-09
2.4278776e-09
2.5037415e-09
2.582581e-09
2.580469e-09
2.5316046e-09
2.4278565e-09
2.3180266e-09
2.2547088e-09
2.2304837e-09
2.2164344e-09
2.2045655e-09
2.198114e-09
2.1871006e-09
2.170225e-09
2.1532383e-09
2.1341204e-09
2.1311548e-09
2.1459174e-09
2.1201117e-09
2.0484545e-09
1.9936737e-09
2.0003164e-09
2.0430082e-09
2.0955022e-09
2.1595857e-09
2.2111092e-09
2.2210088e-09
2.2274532e-09
2.853992e-09
2.8257513e-09
2.7815255e-09
2.6183711e-09
2.5423135e-09
2.6244741e-09
2.6498635e-09
2.5398427e-09
2.5070181e-09
2.6367516e-09
3.028069e-09
3.2543559e-09
3.2280019e-09
3.092319e-09
2.8787435e-09
2.6633839e-09
2.5341281e-09
2.4677661e-09
2.4666754e-09
2.4935314e-09
2.4992126e-09
2.4861904e-09
2.4944427e-09
2.5121726e-09
2.5020067e-09
2.4648432e-09
2.4237236e-09
2.4046957e-09
2.4277891e-09
2.5048556e-09
2.5832685e-09
2.5809392e-09
2.5311396e-09
2.4264686e-09
2.3169057e-09
2.2543424e-09
2.229964e-09
2.215486e-09
2.2031661e-09
2.1967867e-09
2.1863349e-09
2.1693279e-09
2.1518122e-09
2.1334635e-09
2.1311175e-09
2.1447059e-09
2.1168258e-09
2.0454326e-09
1.9920938e-09
1.9994669e-09
2.0425093e-09
2.0951636e-09
2.1592043e-09
2.2107156e-09
2.220955e-09
2.2277697e-09
2.8482834e-09
2.8219539e-09
2.7768647e-09
2.6099444e-09
2.5392945e-09
2.6261484e-09
2.6492812e-09
2.5351132e-09
2.5047962e-09
2.6406393e-09
3.0364063e-09
3.2539102e-09
3.2247113e-09
3.0857069e-09
2.8712668e-09
2.6572073e-09
2.530639e-09
2.4661929e-09
2.4656409e-09
2.4933671e-09
2.498474e-09
2.4851462e-09
2.4940599e-09
2.5115949e-09
2.5006772e-09
2.462739e-09
2.422068e-09
2.4043294e-09
2.4280847e-09
2.5063556e-09
2.5841125e-09
2.5814163e-09
2.5305673e-09
2.4250322e-09
2.3157717e-09
2.2538417e-09
2.2292822e-09
2.2143985e-09
2.2016883e-09
2.1954796e-09
2.1855974e-09
2.168334e-09
2.1503842e-09
2.1328491e-09
2.1311113e-09
2.1433502e-09
2.1134015e-09
2.0424646e-09
1.9905597e-09
1.99865e-09
2.0420284e-09
2.0948475e-09
2.1588378e-09
2.2103088e-09
2.8447383e-09
2.8190628e-09
2.7732216e-09
2.6030274e-09
2.5366927e-09
2.6269952e-09
2.6477714e-09
2.5304697e-09
2.5026934e-09
2.6439638e-09
3.0435843e-09
3.2532773e-09
3.2214734e-09
3.0793925e-09
2.8641115e-09
2.6513441e-09
2.5273939e-09
2.4647666e-09
2.4647097e-09
2.4933349e-09
2.4978103e-09
2.4840957e-09
2.4936611e-09
2.5109315e-09
2.4992795e-09
2.4608782e-09
2.421154e-09
2.4042625e-09
2.429108e-09
2.5081091e-09
2.585071e-09
2.5818034e-09
2.5298115e-09
2.4235238e-09
2.3146607e-09
2.2532265e-09
2.2284413e-09
2.2131762e-09
2.2001149e-09
2.1941879e-09
2.1848813e-09
2.1672483e-09
2.1489555e-09
2.1322983e-09
2.1311305e-09
2.1418066e-09
2.1098634e-09
2.0395553e-09
1.989084e-09
1.9978666e-09
2.0415538e-09
2.0945531e-09
2.841653e-09
2.8165178e-09
2.7699432e-09
2.5969873e-09
2.5342031e-09
2.6272672e-09
2.6465974e-09
2.526074e-09
2.5006757e-09
2.6470091e-09
3.0500405e-09
3.2526259e-09
3.2181635e-09
3.0732287e-09
2.8572791e-09
2.6458801e-09
2.5244539e-09
2.4634081e-09
2.4637786e-09
2.493319e-09
2.4970502e-09
2.4828908e-09
2.493224e-09
2.5104346e-09
2.4981009e-09
2.4595935e-09
2.4208763e-09
2.4044993e-09
2.4302686e-09
2.5100325e-09
2.5861046e-09
2.5820299e-09
2.528771e-09
2.4219043e-09
2.3135384e-09
2.252453e-09
2.2274391e-09
2.211841e-09
2.1984504e-09
2.1929108e-09
2.1841719e-09
2.1660698e-09
2.1475175e-09
2.1318336e-09
2.131178e-09
2.1400318e-09
2.1062183e-09
2.0366989e-09
1.9876687e-09
1.9971157e-09
2.8387872e-09
2.8137932e-09
2.7670015e-09
2.5921258e-09
2.5318265e-09
2.6272448e-09
2.6454301e-09
2.5221455e-09
2.4986808e-09
2.6498169e-09
3.0558581e-09
3.2519105e-09
3.2151169e-09
3.0674543e-09
2.8508204e-09
2.6406906e-09
2.521618e-09
2.4619986e-09
2.4627582e-09
2.4931847e-09
2.4962655e-09
2.4816953e-09
2.4929336e-09
2.5102729e-09
2.4974314e-09
2.4589818e-09
2.420905e-09
2.4050346e-09
2.4312638e-09
2.5120706e-09
2.5871168e-09
2.5821027e-09
2.5274793e-09
2.4202603e-09
2.312397e-09
2.2515024e-09
2.2262604e-09
2.210418e-09
2.1967109e-09
2.1916549e-09
2.1834607e-09
2.1647962e-09
2.1460788e-09
2.1315038e-09
2.1312383e-09
2.1379865e-09
2.1024571e-09
2.0339053e-09
2.8360955e-09
2.8111388e-09
2.7640308e-09
2.5871939e-09
2.5294226e-09
2.6273789e-09
2.6443157e-09
2.5182491e-09
2.4967835e-09
2.6528358e-09
3.0617112e-09
3.2511371e-09
3.2118951e-09
3.0614796e-09
2.8443033e-09
2.6354719e-09
2.5187524e-09
2.4606078e-09
2.4618273e-09
2.4930737e-09
2.4957491e-09
2.4809124e-09
2.4928685e-09
2.5103079e-09
2.4972329e-09
2.4588033e-09
2.4213675e-09
2.4054352e-09
2.432199e-09
2.5142538e-09
2.5879261e-09
2.5817734e-09
2.5259204e-09
2.4186304e-09
2.3111777e-09
2.2503582e-09
2.2249053e-09
2.2089148e-09
2.1949142e-09
2.1904182e-09
2.1827434e-09
2.1634229e-09
2.1446479e-09
2.1313232e-09
2.131312e-09
2.1356421e-09
2.8334184e-09
2.8086609e-09
2.7609126e-09
2.5818492e-09
2.5271364e-09
2.6276838e-09
2.6432715e-09
2.5144099e-09
2.4950546e-09
2.65598e-09
3.0672714e-09
3.2502946e-09
3.2086452e-09
3.0555218e-09
2.8379104e-09
2.6304945e-09
2.516088e-09
2.4594866e-09
2.4612841e-09
2.4930914e-09
2.4956034e-09
2.4806458e-09
2.4931545e-09
2.510896e-09
2.4973023e-09
2.4587902e-09
2.4218319e-09
2.4056634e-09
2.4331142e-09
2.5164601e-09
2.5883872e-09
2.5809533e-09
2.5241786e-09
2.4170672e-09
2.3098689e-09
2.2490205e-09
2.2233932e-09
2.2073487e-09
2.1930961e-09
2.1892089e-09
2.1820372e-09
2.1619725e-09
2.1431987e-09
2.1312767e-09
2.131358e-09
2.8301452e-09
2.8063272e-09
2.757457e-09
2.5753883e-09
2.5251565e-09
2.6289513e-09
2.6426381e-09
2.5105038e-09
2.4936088e-09
2.6597685e-09
3.0732212e-09
3.2497823e-09
3.2056377e-09
3.0499572e-09
2.8320898e-09
2.6261688e-09
2.5139859e-09
2.4589031e-09
2.4611252e-09
2.4934958e-09
2.4956644e-09
2.4806299e-09
2.4942531e-09
2.5120379e-09
2.4975911e-09
2.4587294e-09
2.4220981e-09
2.4058437e-09
2.4339966e-09
2.5184355e-09
2.5885461e-09
2.5799846e-09
2.5223782e-09
2.4155367e-09
2.3084136e-09
2.2474849e-09
2.2217439e-09
2.2057464e-09
2.191296e-09
2.1880432e-09
2.181344e-09
2.1604652e-09
2.1417309e-09
2.8270337e-09
2.8043576e-09
2.7542334e-09
2.5689803e-09
2.5237089e-09
2.6309005e-09
2.6425479e-09
2.507062e-09
2.4927245e-09
2.6639073e-09
3.0792157e-09
3.2497853e-09
3.2033964e-09
3.0453336e-09
2.8271751e-09
2.6226609e-09
2.5126046e-09
2.4587716e-09
2.46118e-09
2.4945749e-09
2.4962959e-09
2.4809069e-09
2.4954784e-09
2.5130529e-09
2.4977368e-09
2.458326e-09
2.4222774e-09
2.4060346e-09
2.4347107e-09
2.5198274e-09
2.5884244e-09
2.5787708e-09
2.5206342e-09
2.4140439e-09
2.3067951e-09
2.2457574e-09
2.2199685e-09
2.2041401e-09
2.1895361e-09
2.186941e-09
2.8242334e-09
2.8028094e-09
2.7514615e-09
2.5631392e-09
2.5228783e-09
2.6335143e-09
2.6427675e-09
2.5041112e-09
2.4923002e-09
2.6688519e-09
3.0858287e-09
3.2499986e-09
3.2016488e-09
3.0413472e-09
2.822925e-09
2.6197613e-09
2.5117156e-09
2.4588499e-09
2.4617736e-09
2.4959583e-09
2.4972485e-09
2.4813439e-09
2.4965082e-09
2.5138223e-09
2.4977769e-09
2.457664e-09
2.4223949e-09
2.406193e-09
2.4351069e-09
2.5205419e-09
2.5875101e-09
2.5774899e-09
2.5189583e-09
2.412442e-09
2.3049648e-09
2.243815e-09
2.2180642e-09
2.2025505e-09
2.8017677e-09
2.7496537e-09
2.5590597e-09
2.5224649e-09
2.6359282e-09
2.643396e-09
2.5020096e-09
2.4920989e-09
2.6734291e-09
3.0918934e-09
3.2507381e-09
3.2004607e-09
3.0380437e-09
2.8193269e-09
2.6173024e-09
2.5111144e-09
2.4592913e-09
2.4626997e-09
2.4973211e-09
2.4980912e-09
2.4816971e-09
2.4974009e-09
2.5144293e-09
2.4976755e-09
2.4570008e-09
2.4224392e-09
2.4062436e-09
2.4351991e-09
2.5207342e-09
2.5864878e-09
2.5763177e-09
2.5173437e-09
2.410586e-09
2.3029438e-09
2.8011666e-09
2.7485073e-09
2.5561293e-09
2.5221547e-09
2.6384124e-09
2.6445039e-09
2.5003153e-09
2.4919956e-09
2.6783393e-09
3.0981103e-09
3.2516971e-09
3.1993944e-09
3.0348617e-09
2.815946e-09
2.6150486e-09
2.5106619e-09
2.4596827e-09
2.4634424e-09
2.4985512e-09
2.49876e-09
2.481934e-09
2.4982273e-09
2.5148433e-09
2.4975281e-09
2.4562161e-09
2.4222756e-09
2.4059303e-09
2.4348824e-09
2.5206317e-09
2.8007839e-09
2.7478794e-09
2.554221e-09
2.521949e-09
2.6403423e-09
2.6456496e-09
2.499038e-09
2.4919952e-09
2.6827064e-09
3.10361e-09
3.2526414e-09
3.1985567e-09
3.0320578e-09
2.8129166e-09
2.6129546e-09
2.5102304e-09
2.4599813e-09
2.4640215e-09
2.4996089e-09
2.4992238e-09
2.4820321e-09
2.4988343e-09
2.5150006e-09
2.4970991e-09
2.4551588e-09
2.4213602e-09
2.404903e-09
2.4338849e-09
2.5200836e-09
2.800463e-09
2.7472072e-09
2.5521033e-09
2.5217177e-09
2.6425287e-09
2.6467474e-09
2.4976232e-09
2.4920878e-09
2.687325e-09
3.1092446e-09
3.2533947e-09
3.1974862e-09
3.0290165e-09
2.8097256e-09
2.6107471e-09
2.5096121e-09
2.4601043e-09
2.4644012e-09
2.5003673e-09
2.4994086e-09
2.4819657e-09
2.4990623e-09
2.514955e-09
2.8002799e-09
2.7465224e-09
2.5498457e-09
2.5214094e-09
2.6447266e-09
2.6476896e-09
2.4962453e-09
2.4920212e-09
2.6914092e-09
3.1142512e-09
3.2538252e-09
3.1962434e-09
3.0258641e-09
2.8064032e-09
2.6083999e-09
2.5087216e-09
2.4600914e-09
2.4645004e-09
2.5006482e-09
2.499386e-09
2.4812659e-09
2.49905e-09
2.514104e-09
2.5208804e-09
2.6470162e-09
2.6482487e-09
2.4940827e-09
2.4916441e-09
2.6956154e-09
3.1189318e-09
3.2539367e-09
3.1943367e-09
3.0221187e-09
2.8026076e-09
2.6056856e-09
2.5073294e-09
2.4595024e-09
2.4642132e-09
2.500635e-09
2.4985901e-09
2.4797708e-09
2.4985371e-09
2.5125907e-09
2.6485403e-09
2.4916506e-09
2.490759e-09
2.6986817e-09
3.1222292e-09
3.253283e-09
3.191871e-09
3.0179996e-09
2.7984516e-09
2.6025903e-09
2.5054207e-09
2.4581326e-09
2.4630554e-09
2.4999737e-09
2.4971161e-09
2.4778311e-09
2.4972665e-09
2.5110461e-09
2.4890849e-09
2.7013264e-09
3.1248094e-09
3.251313e-09
3.1884247e-09
3.0130834e-09
2.7936191e-09
2.5989796e-09
2.5030707e-09
2.4564661e-09
2.4615661e-09
2.4986606e-09
2.4955571e-09
2.4758725e-09
3.2489292e-09
3.184695e-09
3.0080784e-09
2.7887483e-09
2.5953136e-09
2.5006639e-09
2.4547126e-09
2.4601037e-09
2.4975062e-09
2.4941931e-09
2.5918246e-09
2.4985445e-09
2.453242e-09
2.4590029e-09
2.4968388e-09
0.0015960994
0.004408476
0.007530825
0.007895897
0.00011353936
0.00070728246
0.0027112573
0.0063034303
0.0083587536
6.6685626e-07
1.2588107e-05
0.00018902829
0.0013085141
0.0044344978
0.0081355526