/*--------------------------------*- C++ -*----------------------------------*\
| =========                 |                                                 |
| \\      /  F ield         | OpenFOAM: The Open Source CFD Toolbox           |
|  \\    /   O peration     | Version:  2506                                  |
|   \\  /    A nd           | Website:  www.openfoam.com                      |
|    \\/     M anipulation  |                                                 |
\*---------------------------------------------------------------------------*/
FoamFile
{
    version     2.0;
    format      ascii;
    arch        "LSB;label=32;scalar=64";
    class       volVectorField;
    location    "5e-05";
    object      wallShearStress;
}
// * * * * * * * * * * * * * * * * * * * * * * * * * * * * * * * * * * * * * //

dimensions      [1 -1 -2 0 0 0 0];

internalField   uniform (0 0 0);

boundaryField
{
    Side
    {
        type            empty;
    }
    Inlet
    {
        type            calculated;
        value           uniform (0 0 0);
    }
    Airfoil
    {
        type            calculated;
        value           nonuniform List<vector> 
1047
(
(-148.29529 6.7982904 -4.4818936e-22)
(-325.91704 86.15065 1.6584882e-17)
(-266.4565 58.517093 1.5698647e-17)
(-195.51324 33.765116 -3.0719719e-17)
(-293.91074 75.917357 0)
(-203.19834 38.567761 1.5816177e-17)
(-280.43232 71.862315 2.4653565e-22)
(-261.52726 63.566048 1.656619e-17)
(-216.92834 44.190441 9.0879819e-34)
(-194.54353 35.537848 -3.1881082e-17)
(-214.12303 42.470949 2.4403184e-22)
(-205.58228 38.586517 1.6042007e-17)
(-208.90228 39.287993 -2.4641449e-22)
(-207.47166 38.029417 -3.2793482e-17)
(-210.55538 38.691402 1.6676374e-17)
(-247.19686 52.958753 -2.5459099e-22)
(-276.56827 65.182401 7.5231638e-37)
(-325.49262 87.973918 -1.7408923e-17)
(-356.60585 103.6438 -1.5046328e-36)
(-395.54503 124.80452 1.824239e-17)
(-404.24601 128.38025 5.7701708e-22)
(-420.47112 136.19196 1.8689664e-17)
(-418.78625 132.0988 8.9785673e-19)
(-419.68582 129.53812 -1.9729724e-17)
(-405.44124 117.59357 -6.0185311e-36)
(-369.91635 95.295121 3.7529543e-17)
(-495.58193 178.7002 2.0498142e-17)
(-434.03488 129.7194 -3.0995435e-34)
(-433.2111 128.62534 -2.0450995e-17)
(-407.49984 111.60686 0)
(-401.82543 106.76684 -3.5289993e-35)
(-345.23197 74.524363 0)
(-251.27724 33.991475 -1.8515832e-17)
(-369.13467 84.989869 -1.9949913e-17)
(-414.51765 109.22052 4.0740201e-17)
(-364.64583 79.462095 -2.0087852e-17)
(-320.32724 56.313531 5.8959554e-22)
(-216.51952 13.950771 -3.6667788e-17)
(-211.46827 11.795458 0)
(-241.2078 20.925783 -1.8496349e-17)
(-231.24268 16.96572 1.8873402e-17)
(-220.9904 13.362188 5.6460581e-22)
(-226.52731 15.302574 1.8987468e-17)
(-260.05518 28.373708 1.9489166e-17)
(-311.73304 50.82011 -6.0909116e-22)
(-312.57418 53.942219 1.9891585e-17)
(-261.41781 32.206277 1.5046328e-36)
(-253.25387 30.772774 5.9725017e-22)
(-195.5247 8.2100129 -3.4167067e-19)
(-216.58863 23.047834 1.9725938e-17)
(-171.16896 4.8256935 5.7511482e-22)
(-155.6638 0.89701828 1.8803863e-17)
(-125.24674 -18.166706 -1.785711e-17)
(-109.12119 -20.541103 0)
(-95.486768 -26.48361 -5.0329904e-22)
(-83.481931 -32.372202 -1.5429318e-17)
(-82.884602 -35.171006 -2.067996e-24)
(-82.0886 -37.793265 1.0513113e-20)
(-85.960452 -39.433969 0)
(-100.35961 -41.129613 -1.5689625e-17)
(-91.19231 -44.365223 1.4463854e-17)
(-80.232095 -49.18314 -1.1154056e-17)
(-75.509843 -51.818944 -4.7562011e-20)
(-79.403809 -53.76271 7.1632622e-18)
(-63.164014 -45.026403 -2.3297722e-22)
(-76.632404 -32.619982 -1.0111445e-21)
(-236.62278 -45.20696 6.0616015e-22)
(-381.70547 -1.6600716 1.9337426e-17)
(-1261.3802 832.02818 0)
(-1245.3528 1166.6486 2.5277831e-34)
(-154.64786 -66.648286 1.505116e-17)
(-1000.6773 390.30493 2.119749e-17)
(-1307.6498 999.10011 -3.0092655e-36)
(-1214.4771 972.01424 -4.915978e-22)
(-906.23131 616.38222 6.1882745e-23)
(-438.05196 -149.53314 5.7268696e-22)
(-589.19963 -171.23236 -2.0990403e-22)
(-1129.5027 607.40886 -2.4074124e-34)
(-1470.6809 1064.5138 -9.0971367e-18)
(-1494.4013 1108.6668 0)
(-1232.5021 963.0723 2.8038027e-17)
(-233.15387 -102.18643 -8.8144597e-22)
(-124.5011 -113.40302 1.2963129e-25)
(-120.36111 -74.417811 4.9352315e-22)
(-311.52798 -35.153149 -6.4713641e-22)
(-93.065861 24.521055 4.2174603e-22)
(-355.49762 -197.64941 4.8745543e-18)
(42.235799 124.20405 -1.8656315e-18)
(-29.894296 -41.686279 1.5058613e-18)
(-62.852491 195.20517 3.0092655e-36)
(-235.45738 -154.1428 -2.6081999e-17)
(-217.06606 -181.48065 -1.4009617e-24)
(-262.16184 -226.65534 1.1704253e-17)
(-286.21159 -274.14281 3.4128991e-22)
(-424.16735 -489.64695 -5.8359844e-22)
(359.37604 -117.65384 -1.5961052e-18)
(143.90004 -75.946755 -3.7615819e-36)
(-131.06812 2.2946353 2.6871801e-35)
(-368.39492 -445.46307 -5.3908171e-35)
(-476.46038 -496.16533 -3.3667236e-19)
(-192.88239 -143.91006 2.5672439e-17)
(-115.92341 -82.401947 4.8382899e-22)
(-85.752908 42.43199 -5.3547011e-22)
(-104.83154 81.941054 5.9725984e-22)
(-521.90773 109.40744 0)
(-359.29288 111.09656 -1.1056343e-17)
(-641.69531 52.173851 -7.6013238e-22)
(-577.37343 122.69001 -2.2851307e-17)
(-857.43365 35.642976 -1.4791835e-21)
(-799.23881 173.77654 1.1100307e-17)
(-644.77284 223.38359 -6.8179747e-22)
(-805.45648 -19.137634 9.9430135e-18)
(-876.91319 -13.212211 2.2492028e-17)
(-72.072819 -81.718252 8.2259037e-18)
(-81.312606 -58.220739 7.3962541e-18)
(-921.33385 -72.844785 3.7895572e-23)
(-958.45114 -104.4862 5.0772611e-18)
(-916.95954 -46.008648 -8.3111711e-18)
(-52.353737 -91.678009 -2.2901772e-22)
(-120.7873 -70.650788 -1.238536e-19)
(-290.11768 -27.950209 -9.4039548e-38)
(-953.37308 -87.246618 -4.6037567e-18)
(-24.471577 -92.309549 -4.8299971e-21)
(-130.82123 -119.12039 3.0967799e-18)
(-68.369181 -119.70657 -2.3451638e-38)
(-138.10282 -104.57351 -4.1310187e-20)
(-132.08727 -61.373508 -2.3509887e-38)
(-765.42033 -181.2659 1.8744524e-18)
(16.169515 -30.815141 -7.8560839e-23)
(13.911531 -17.056047 -1.9906653e-18)
(-138.74244 -161.8846 -1.0365427e-22)
(-53.412304 12.026297 -2.6923917e-18)
(-139.33275 -63.972994 -3.6150187e-18)
(9.3803092 -18.825741 5.1836571e-24)
(35.895931 11.662651 2.5016365e-22)
(-234.56456 -62.430069 -7.0039966e-18)
(41.21287 18.772654 -3.8696303e-18)
(-307.7813 -65.990622 -1.5347851e-17)
(41.688406 18.314379 -2.6547621e-22)
(-394.47563 -112.88197 -8.5585669e-18)
(-647.59921 -207.11814 1.5625367e-18)
(-554.54385 -188.01394 1.3508666e-18)
(-583.54339 -179.23228 -6.5600932e-18)
(-571.27104 -187.03005 6.4180659e-22)
(-542.33897 -175.33789 3.677828e-34)
(-557.50926 -185.06035 6.6947566e-22)
(-397.04481 -113.43769 -8.149288e-22)
(-539.30623 -184.7324 3.0092655e-36)
(-545.65861 -177.1122 -2.5109745e-17)
(-494.79341 -144.85719 -2.8981775e-17)
(-572.51303 -207.21861 -2.6437808e-18)
(-537.28463 -177.80214 1.9461042e-17)
(-494.86715 -143.30348 3.0092655e-36)
(-400.64204 -93.877365 2.5794116e-38)
(-21.131675 5.3811298 -5.4591898e-39)
(-820.21265 -389.57701 -2.6857695e-34)
(31.124636 4.5315161 7.4611941e-18)
(12.22432 14.47403 0)
(21.542392 42.352985 -2.1481534e-19)
(-189.07045 -71.708296 3.0092655e-36)
(-589.75721 -249.29821 1.5687334e-17)
(-908.80621 -509.08752 6.725167e-22)
(-940.03865 -562.5209 -7.2687429e-22)
(-696.74088 -334.67785 9.0563611e-34)
(0.83840768 13.670338 0)
(-515.84109 -170.06306 -2.1475887e-17)
(-565.80122 -208.15774 -2.2890434e-17)
(-692.34135 -335.4634 -7.4161852e-24)
(-468.91418 -132.54395 -2.6650021e-17)
(-736.2222 -401.51947 -2.4468888e-17)
(-543.48263 -220.93609 8.1414192e-22)
(-123.49991 -0.88894375 -7.5350167e-22)
(-742.17707 -420.96838 -1.7536355e-34)
(-463.99904 -150.69097 1.1754944e-38)
(-588.87769 -258.97103 2.3295302e-18)
(-574.86481 -254.54924 -7.9105338e-22)
(-522.56445 -205.76303 -2.553382e-17)
(-653.00628 -342.12365 -4.2605428e-17)
(-480.82535 -178.76525 0)
(-563.53804 -256.21507 -2.1687512e-17)
(-187.97679 -40.154552 2.5051914e-17)
(-193.36186 -44.474746 5.7860361e-19)
(-178.48477 -21.834687 7.5181016e-22)
(-171.701 -16.012126 -7.469145e-22)
(-293.50201 -62.981665 8.3429069e-19)
(-404.58668 -130.1803 2.8471024e-24)
(-189.3192 -32.802939 2.4292564e-17)
(-60.663201 -0.07024485 -2.0314257e-17)
(-8.3060309 13.683959 -3.240773e-17)
(-109.5359 -12.791114 6.5130816e-22)
(-156.88371 -17.755939 -7.0231745e-22)
(-155.24944 -22.151215 -2.3075301e-17)
(20.911176 33.50621 6.41038e-18)
(23.189086 48.653433 6.3160823e-18)
(9.5280049 22.409659 9.8825807e-20)
(-18.343675 13.292302 1.6299943e-17)
(-75.638154 -1.9724027 -2.0537647e-17)
(-147.7595 -22.859023 -2.1563539e-17)
(-181.57232 -42.675601 -2.287714e-17)
(-14.575905 10.270126 -3.1649471e-17)
(-25.009371 4.2618347 4.9947091e-22)
(3.7799169 17.159793 -2.390682e-24)
(-14.545511 12.456136 -1.52238e-17)
(-77.801993 -6.4432424 5.9376491e-22)
(-31.402007 5.1762812 -5.4070994e-22)
(-7.9328159 13.691193 1.4889038e-17)
(-13.286612 12.5249 -9.4640566e-22)
(-14.760713 12.561613 4.8138015e-22)
(-17.384329 11.125392 1.9652796e-38)
(-21.197814 9.8211433 -4.8235295e-22)
(-14.25802 10.868183 -1.5298312e-17)
(-12.880734 12.631568 3.0680914e-17)
(-19.496901 11.292695 4.8639506e-22)
(-16.808651 7.2938325 -9.0500869e-25)
(-15.213339 8.9783399 -1.0116998e-20)
(-38.595263 -6.2411472 1.3949239e-17)
(-58.582452 -18.764051 1.4416698e-17)
(-71.442935 -25.931959 -3.6863503e-34)
(-200.05027 -73.26947 -1.0987286e-17)
(-719.10038 -673.5079 0)
(-364.41476 -200.03431 3.6686332e-17)
(-476.28281 -265.29494 1.6468741e-17)
(-743.49982 -705.10141 -1.5406298e-17)
(-651.72806 -522.62159 2.5039164e-18)
(-699.25234 -653.72672 7.5231638e-37)
(-701.00225 -659.89906 -1.6221106e-17)
(-701.88713 -657.52871 -1.9387524e-17)
(-719.00956 -664.62811 -3.5764747e-17)
(-547.00885 -361.33135 1.2542136e-21)
(-687.28238 -619.89807 -7.7862705e-22)
(-550.58862 -432.08595 4.3485487e-22)
(-699.9314 -756.43912 -7.3468397e-40)
(-708.5721 -705.08818 -3.0060597e-18)
(-728.56732 -745.13469 -2.8349085e-24)
(-727.84632 -760.24903 2.4699886e-22)
(-733.17505 -789.29338 3.0062463e-17)
(-725.55629 -781.55171 2.6600441e-22)
(-710.06587 -771.92962 -3.3023102e-17)
(-718.19138 -771.94356 2.6720166e-22)
(-705.39124 -760.43458 1.4511906e-17)
(-728.06953 -779.19809 2.4500592e-22)
(-694.97449 -695.79859 -2.3353315e-22)
(-364.03422 -207.53717 2.8848799e-22)
(-677.7044 -717.77732 1.0947468e-17)
(-723.56768 -792.77058 -1.8826965e-22)
(-691.23809 -646.67124 -1.1389478e-17)
(-736.7961 -756.05924 0)
(-424.16736 -494.52812 -2.1198068e-17)
(-241.62833 -155.62738 1.0398907e-23)
(-160.79004 507.40467 7.3093029e-18)
(-3.2958209 -2.3259275 6.7932987e-23)
(0.33229119 -7.2546008 7.2054589e-18)
(-5.7858124 0.47040526 -7.6581886e-18)
(-17.237138 6.6256776 -7.9693922e-21)
(-25.137689 10.669183 1.3523399e-25)
(-24.705521 7.4046177 -1.3173961e-17)
(-25.338191 7.8705994 -1.2709947e-17)
(-22.649193 4.1389529 2.4011523e-17)
(-22.938023 4.5735046 -1.1646561e-17)
(-22.349169 3.6681144 1.1240984e-17)
(-21.950116 3.136422 -1.7906442e-23)
(-22.216758 3.5682654 -1.1765884e-21)
(-21.853695 3.1387625 -1.035157e-17)
(-21.565037 3.0109814 -1.924943e-23)
(-20.139926 0.65532866 -3.5873241e-43)
(-21.143681 2.196424 1.8374391e-23)
(-20.892654 1.9595104 9.4053449e-18)
(-22.648532 4.1453582 9.3590586e-18)
(-20.522207 1.3638162 4.6718847e-34)
(-20.269381 1.1343315 -3.5465581e-17)
(-20.495463 1.383734 1.7478273e-17)
(-21.224254 2.3272426 3.012176e-21)
(-21.524316 2.659109 -3.4166264e-17)
(-20.968428 1.887 -1.598122e-23)
(-20.45778 1.300237 1.644459e-17)
(-20.650298 1.3947588 5.8774718e-39)
(-21.415121 2.6528726 1.615953e-17)
(-20.694157 1.4825281 1.880791e-37)
(-20.434556 1.3453121 3.7615819e-37)
(-21.674341 2.8669497 1.559882e-17)
(-22.261513 3.7580034 1.5490323e-17)
(-22.482819 3.8798996 8.331904e-34)
(-22.910989 4.501981 -1.5215613e-17)
(-22.959423 4.4446394 -1.5052371e-17)
(-22.754098 4.1985659 1.488075e-17)
(-22.868231 4.3148017 2.8118954e-23)
(-22.608012 3.8813756 2.9166689e-17)
(-21.889612 2.9285535 1.4359748e-17)
(-22.426958 3.6625578 -2.7247701e-23)
(-22.736174 4.0642273 1.4208923e-17)
(-23.010649 4.4475315 1.4116619e-17)
(-22.586974 3.7707461 2.896569e-21)
(-22.631201 3.7490323 2.7665101e-17)
(-23.390066 4.5464088 -2.6303237e-23)
(-23.509433 4.4055838 2.6087351e-23)
(-23.811212 4.8970852 0)
(-23.290299 4.2143508 2.8211864e-37)
(-22.066019 2.6348228 1.324514e-17)
(-23.4299 4.3720336 -2.5346399e-23)
(-20.787033 1.211353 2.4654404e-23)
(-20.963405 1.576368 -2.5777866e-17)
(-21.317254 2.228071 1.2866435e-17)
(-23.942833 5.3188817 1.302744e-17)
(-24.336385 5.7251282 2.4746639e-23)
(-26.505557 8.7801214 0)
(-23.907421 4.620062 1.0737791e-20)
(-22.208723 2.3815787 2.5056022e-17)
(-23.16491 3.7676314 -2.5108926e-17)
(-22.634476 3.1067821 4.7442524e-23)
(-22.703837 3.2487796 2.4762818e-17)
(-22.958694 3.7064529 2.3549864e-23)
(-23.66727 4.5294382 2.3547047e-23)
(-23.437433 4.0135873 -2.3368997e-23)
(-24.11427 4.7652906 2.4468283e-17)
(-23.109222 3.4520744 7.5231638e-37)
(-23.178757 3.4862039 -2.4102218e-17)
(-23.165475 3.5218456 -2.398697e-17)
(-23.10449 3.4840728 -2.3857054e-17)
(-22.818098 3.2036726 2.2639211e-23)
(-22.851584 3.312254 -4.7347935e-17)
(-23.080873 3.4386893 2.3604972e-17)
(-24.642674 5.464423 -2.265309e-23)
(-23.88233 4.2938495 2.2418145e-23)
(-23.894718 4.04425 4.6840116e-17)
(-24.170056 4.3929174 -2.3373559e-17)
(-24.035789 4.2718223 -2.2200342e-23)
(-23.926965 4.1509382 2.2110536e-23)
(-23.856336 4.0045385 2.3113825e-17)
(-23.814536 4.0202349 -2.3059578e-17)
(-23.073293 3.1486884 -3.7615819e-37)
(-23.044264 3.1225664 2.2799852e-17)
(-23.386012 3.2049165 -4.5408156e-17)
(-23.562723 3.3673849 -1.445764e-33)
(-23.623897 3.4567986 1.880791e-37)
(-23.656735 3.55292 -2.2559557e-17)
(-23.615024 3.452547 4.4981212e-17)
(-23.75104 3.6189767 -2.1405392e-23)
(-23.355358 3.334941 2.1331288e-23)
(-22.747896 2.6998887 2.120867e-23)
(-22.853838 2.7700728 -2.2200808e-17)
(-23.068966 2.9052791 -4.4287762e-17)
(-23.581399 3.4192159 2.3031882e-28)
(-23.278029 2.9425388 2.103552e-23)
(-23.315564 2.9717656 -2.2025534e-17)
(-22.918632 2.6665333 2.1936542e-17)
(-22.89163 2.8010031 4.3878321e-17)
(-23.899664 3.8813926 2.0993558e-23)
(-23.222247 2.900909 2.0857824e-23)
(-23.540385 3.1211151 -2.0831817e-23)
(-23.623623 3.2393103 -1.4425527e-39)
(-23.774647 3.4326234 -3.1051859e-34)
(-23.584821 3.2324663 -4.3469567e-17)
(-23.172137 2.89798 2.06444e-23)
(-23.429006 3.175475 -2.0628226e-23)
(-22.834097 2.5372937 -2.0599489e-23)
(-23.830906 3.5272042 -2.1625535e-17)
(-23.924288 3.4264352 -5.0281409e-21)
(-24.630227 4.1370676 2.1617944e-17)
(-23.948889 3.248775 -2.1526542e-17)
(-25.194517 4.7788822 2.0662182e-23)
(-24.093649 3.4386168 1.1561589e-33)
(-24.594564 3.8294774 -2.0502397e-23)
(-24.867629 4.2727767 4.1033592e-23)
(-23.732874 3.2291446 -2.0361099e-23)
(-23.592025 3.0032135 -4.2758693e-17)
(-23.744068 3.0806809 2.1343598e-17)
(-24.721973 4.0163347 -2.1457845e-17)
(-24.104631 3.1362617 2.1330682e-17)
(-26.042892 5.4217478 2.1577279e-17)
(-24.680656 3.8083867 -2.1368893e-17)
(-25.400465 4.7704675 2.0442008e-23)
(-26.419375 5.8425559 -3.5873241e-43)
(-25.620038 4.5310027 -2.0410615e-23)
(-26.8711 5.684285 -1.4132367e-27)
(-26.658642 5.3198922 2.1464604e-17)
(-26.259304 4.9380629 2.1438131e-17)
(-25.756944 4.5701516 5.685508e-34)
(-25.934621 5.1282606 2.1437054e-17)
(-25.605442 4.9899482 -4.091714e-23)
(-23.696576 2.8717467 2.1201261e-17)
(-24.44356 3.4278321 2.1231942e-17)
(-25.548357 4.1811455 2.0290571e-23)
(-25.154206 3.6925116 -2.0269261e-23)
(-23.845975 2.4456603 -2.1117158e-17)
(-24.073291 2.8196828 3.7615819e-37)
(-24.240262 2.9133713 2.1162951e-17)
(-24.590626 3.3136081 2.021879e-23)
(-24.285163 3.0377419 -2.0189167e-23)
(-24.301165 3.1117026 2.0204238e-23)
(-24.096649 2.8927369 2.6053797e-27)
(-23.470581 2.2856573 3.7301293e-27)
(-23.76286 2.6001348 2.1170812e-17)
(-24.121036 3.0138665 -9.4039548e-38)
(-23.432875 2.4754222 -2.349093e-21)
(-23.368378 2.3073935 -6.3185172e-34)
(-25.705884 4.4113404 -2.1417822e-17)
(-25.326565 3.7375892 2.0343257e-23)
(-24.166008 2.6323415 2.1240878e-17)
(-24.019225 2.4276114 -2.1220793e-17)
(-23.744736 2.126757 -2.1199473e-17)
(-23.556611 2.0465779 9.4039548e-38)
(-23.7114 2.2728164 2.8211864e-37)
(-24.295394 2.8076271 2.1310649e-17)
(-24.475573 2.9468843 -2.1333116e-17)
(-24.998781 3.3519483 -7.4153324e-27)
(-26.897902 4.9588842 -2.1606221e-17)
(-26.967079 4.9216527 9.4039548e-38)
(-27.270808 5.2189815 -1.0844222e-17)
(-27.168641 5.0947045 1.0859979e-17)
(-26.176961 3.9039916 1.0791771e-17)
(-26.65289 4.2935029 -1.0821627e-17)
(-26.543059 4.1358536 1.0828161e-17)
(-26.642102 4.2212926 -6.0001527e-21)
(-26.847507 4.554519 1.7513316e-39)
(-25.996404 3.7278436 2.0680411e-23)
(-24.640286 2.4242087 -4.1100991e-23)
(-24.698245 2.39333 -2.8841943e-27)
(-25.713731 3.4633461 4.1462736e-23)
(-24.751484 2.6538872 -2.1671851e-17)
(-24.529272 2.6684823 9.4039548e-38)
(-24.349231 2.4750978 -2.3509887e-38)
(-25.340486 3.3769823 1.0928317e-17)
(-23.610835 1.5823033 1.0839015e-17)
(-23.547217 1.5313957 -1.0848274e-17)
(-23.199956 1.2269824 2.1716047e-17)
(-23.222956 1.2947488 1.0876092e-17)
(-23.485598 1.2857579 -2.0795288e-23)
(-23.510899 1.2642867 -1.0914124e-17)
(-24.087833 1.7406714 1.0960685e-17)
(-24.041778 1.5235256 1.0972945e-17)
(-24.359386 1.7934964 2.2015713e-17)
(-24.531204 1.8057858 1.880791e-37)
(-24.438514 1.3826613 -2.4122049e-34)
(-25.316178 2.4016898 4.2317235e-23)
(-25.491094 2.6267881 -1.1133085e-17)
(-24.452652 1.66496 -2.2161396e-17)
(-23.714974 0.90694249 2.2117378e-17)
(-23.521862 0.95327933 -2.0500621e-35)
(-23.664555 0.92266287 1.1106848e-17)
(-22.769975 0.20108546 5.849495e-34)
(-23.20896 1.2782142 -8.4284179e-40)
(-23.33651 1.4153729 -4.2760412e-23)
(-26.061614 3.6867867 1.1387574e-17)
(-27.422064 4.1859817 4.356178e-23)
(-23.441869 0.13213359 -3.2697343e-21)
(-23.828799 0.71174687 -4.2981041e-23)
(-24.111909 1.0567309 -1.1316963e-17)
(-24.136668 1.1697154 -1.1358475e-17)
(-23.969612 1.0955056 -1.1379896e-17)
(-23.543418 0.73339071 -1.1375633e-17)
(-25.226864 2.8501682 -2.4594902e-26)
(-24.812057 2.7123001 4.4148633e-23)
(-25.864133 3.8401569 -2.2470998e-39)
(-24.049974 1.70972 1.6554875e-21)
(-23.042569 0.89300256 -1.153751e-17)
(-24.109113 1.6111695 1.5683974e-26)
(-24.619943 1.8174597 -5.831112e-18)
(-23.286752 0.015522168 -5.7768507e-18)
(-23.494483 0.24458669 2.7126322e-26)
(-25.000318 1.9915308 -5.8915776e-18)
(-23.673652 0.68989053 8.9381399e-23)
(-23.001515 0.15906094 9.8700554e-27)
(-23.835688 1.161485 -4.5147335e-23)
(-22.90119 0.19777186 -1.8424496e-39)
(-23.007625 0.24935519 4.5114613e-23)
(-23.859521 0.52432481 5.3680571e-22)
(-23.922332 0.22500976 -5.9480946e-18)
(-22.699514 -1.0077697 4.520115e-23)
(-23.907178 0.3595909 5.9997816e-18)
(-23.344084 0.14515618 -1.1754944e-37)
(-23.368084 0.35639962 -6.0355241e-18)
(-23.044325 0.07250956 -6.0399578e-18)
(-23.325772 0.58107377 5.8774718e-39)
(-25.797984 2.3971077 -4.698102e-23)
(-24.505274 0.34278441 -1.2172462e-17)
(-25.967863 1.6594328 6.1914792e-18)
(-26.829036 3.0569076 -3.1368418e-18)
(-24.045482 0.70469029 -9.4547654e-23)
(-22.372971 -0.67039435 -3.0788582e-18)
(-23.666395 0.39767431 -6.2223104e-18)
(-25.885938 2.0474773 2.3509887e-38)
(-26.73173 2.0720651 1.184378e-21)
(-28.385812 3.0230178 -5.8774718e-39)
(-26.706924 1.5567991 -3.182776e-18)
(-25.382218 0.64058454 4.8433392e-23)
(-24.153303 -0.18448633 -3.1753194e-18)
(-24.577307 0.5761845 3.2015044e-18)
(-24.3213 0.49745931 -1.6059507e-18)
(-25.600345 1.2250942 3.2405056e-18)
(-26.763124 1.7587084 4.9767142e-23)
(-26.345169 1.1398294 1.6330026e-18)
(-26.745505 1.2777198 -1.8932806e-35)
(-26.137337 0.87721416 -1.6432701e-18)
(-26.144425 1.2211233 -2.2040519e-39)
(-26.013203 1.2389707 -5.0670709e-23)
(-26.343209 1.1932193 5.0837235e-23)
(-27.253037 1.8961182 1.863061e-22)
(-28.553493 2.7291103 5.161694e-23)
(-27.846794 2.0777646 -1.0601609e-19)
(-27.097099 1.5273619 1.7357365e-26)
(-25.96654 0.74576193 -5.1848765e-23)
(-25.91112 0.73072021 -8.3948348e-23)
(-25.20627 0.23569035 8.548968e-19)
(-24.849207 -0.079006845 5.2318598e-23)
(-24.676984 -0.43464622 1.1457298e-22)
(-26.085457 0.35489784 -5.2916824e-23)
(-25.521212 -0.39976647 1.7335652e-18)
(-26.445453 0.43637939 -2.2040519e-38)
(-25.378154 -0.39679651 -1.7521766e-18)
(-24.966904 -0.34678495 -5.3757464e-23)
(-25.467972 0.20937197 -5.425468e-23)
(-25.593901 0.24323559 1.0902307e-22)
(-25.699733 0.060728041 -1.7935468e-18)
(-25.923417 -0.02483784 3.3693646e-22)
(-26.387423 0.21216914 3.6271176e-18)
(-25.779121 -0.3549985 -1.7632415e-38)
(-25.234829 -0.76336164 -3.6452784e-18)
(-24.819763 -1.1478779 -5.5763852e-23)
(-24.42441 -1.537478 -3.6629203e-18)
(-24.433592 -1.6054693 -3.6825221e-18)
(-24.374671 -1.7465149 -5.6461241e-23)
(-24.771887 -1.4968469 5.6854701e-23)
(-24.98131 -1.3736087 -3.7515738e-18)
(-24.75182 -1.5968152 2.9387359e-38)
(-24.602309 -1.7644421 -5.7743457e-23)
(-24.095051 -2.2362945 5.7851455e-23)
(-24.055693 -2.3483196 3.809778e-18)
(-24.071531 -2.4189821 2.5475416e-26)
(-23.953444 -2.5997138 2.2975817e-26)
(-23.593406 -2.9760478 -5.8902276e-23)
(-23.582579 -3.1043592 7.7641433e-18)
(-23.218858 -3.4780674 -7.7807025e-18)
(-23.087267 -3.6183909 -5.1063588e-21)
(-23.234946 -3.6006019 -6.0058235e-23)
(-23.33962 -3.57877 0)
(-22.950264 -3.8383334 -7.9411569e-18)
(-23.139623 -3.7301936 0)
(-23.773134 -3.2547253 -8.0698907e-18)
(-24.133167 -3.0790741 -2.2040519e-39)
(-24.324857 -3.1166163 -8.1902321e-18)
(-24.302522 -3.2010718 -6.2905362e-23)
(-24.246743 -3.2704726 8.287794e-18)
(-24.37497 -3.2337225 -6.3727221e-23)
(-24.523462 -3.1111632 8.403228e-18)
(-25.031035 -2.897577 1.6971358e-17)
(-25.244478 -2.8778198 0)
(-25.701535 -2.6407763 8.6236343e-18)
(-26.244181 -2.2652486 6.6360422e-23)
(-27.199243 -1.6872693 -6.7054732e-23)
(-26.71621 -2.1679917 -4.7019774e-38)
(-26.467326 -2.6823711 8.8779293e-18)
(-27.109159 -1.889561 1.7834356e-17)
(-28.539529 -0.95358319 9.0368261e-18)
(-29.043844 -1.0937183 9.1258391e-18)
(-30.571142 -0.061255555 -5.5265858e-21)
(-31.217726 0.19625573 -6.7011214e-40)
(-31.997927 0.23029229 -2.7516952e-34)
(-32.693759 0.48954272 7.2756049e-23)
(-33.551815 0.92451229 -1.4690703e-22)
(-34.076309 1.0904588 -9.7245697e-18)
(-33.918415 0.64414977 1.880791e-37)
(-33.2636 -0.26842505 -7.4761441e-35)
(-32.052906 -1.4697603 -1.9818025e-17)
(-30.604089 -3.010462 -9.9317957e-18)
(-28.816322 -4.5231401 7.5775365e-23)
(-33.992551 -0.71666722 1.0207102e-17)
(-33.572279 -1.1923506 -7.8216757e-23)
(-33.785787 -1.2754537 7.892143e-23)
(-33.932252 -1.399595 4.7983083e-26)
(-34.415091 -1.3687473 1.0537776e-17)
(-34.545251 -1.4878828 -8.1033062e-23)
(-35.282389 -1.2831254 1.6377913e-22)
(-35.579427 -1.3155049 1.0841719e-17)
(-36.382484 -1.0992075 1.0956821e-17)
(-36.76789 -1.0879631 -8.4346008e-23)
(-37.05381 -1.1618788 1.1167954e-17)
(-37.259063 -1.2437948 -8.5963251e-23)
(-37.167563 -1.4796419 -1.1358283e-17)
(-37.067328 -1.6504002 8.729137e-23)
(-37.089263 -1.8358319 8.8078717e-23)
(-37.931327 -1.5310862 -1.1688577e-17)
(-39.446839 -0.78148385 -1.1832011e-17)
(-39.712083 -0.7778856 1.295623e-20)
(-41.601765 0.072739292 -1.2131619e-17)
(-43.622814 1.0234856 1.23101e-17)
(-45.657378 1.8538453 -1.2462891e-17)
(-46.760163 2.2501707 -1.2609764e-17)
(-47.621828 2.4874034 9.7198315e-23)
(-48.209826 2.5919094 -9.8179993e-23)
(-49.24167 2.9030099 0)
(-50.504972 3.3635182 -1.3199776e-17)
(-51.582437 3.6702351 3.7615819e-37)
(-52.939693 4.1645101 1.0306578e-22)
(-54.459921 4.7394104 -1.0429718e-22)
(-55.257539 4.9270346 1.0560214e-22)
(-57.016048 5.6084819 7.8300486e-26)
(-58.434898 6.1218511 -1.0832252e-22)
(-59.702569 6.5093231 1.4417731e-17)
(-61.30876 7.1196836 1.1128187e-22)
(-64.769951 8.6045218 -1.4915609e-17)
(-65.425323 8.665653 2.2859747e-22)
(-58.373092 4.7942982 -2.2879402e-22)
(-56.458567 3.1422065 1.5196299e-17)
(-57.293428 3.4475015 -1.5382641e-17)
(-57.038704 3.2581512 3.1109122e-17)
(-57.896008 3.3712697 -1.1989041e-22)
(-62.292167 5.0062174 3.2170737e-17)
(-64.899344 5.8902734 1.6310072e-17)
(-66.258218 6.1896266 -1.1754944e-38)
(-60.862539 3.5714499 1.6631611e-17)
(-61.34436 3.5431118 -1.6798522e-17)
(-60.670354 2.9560728 1.6990559e-17)
(-58.498227 1.715024 0)
(-61.84288 2.8795001 0)
(-58.962156 1.4041041 -1.7567248e-17)
(-58.302753 0.77003191 -1.7823387e-17)
(-55.636838 -0.66987705 -1.3640874e-22)
(-54.26496 -1.5067162 0)
(-53.383915 -2.1997609 0)
(-54.150329 -2.2042429 -6.5708045e-35)
(-56.449571 -1.5862141 -1.4425661e-22)
(-57.395082 -1.4726183 -1.2278968e-25)
(-60.318634 -0.58242338 1.4902819e-22)
(-86.178077 9.0970056 1.5682674e-22)
(-67.271008 1.3689096 1.0142733e-17)
(-78.606461 5.0375395 -1.0462269e-17)
(-80.660089 5.2077113 -1.0627357e-17)
(-78.97766 4.2280108 1.0757234e-17)
(-84.305371 5.8679625 1.1047071e-17)
(-89.712442 7.6004438 -1.7033276e-22)
(-92.817389 8.5037392 2.5742638e-38)
(-94.611401 8.9314126 1.7415218e-41)
(-95.849698 9.1225006 -3.4869864e-34)
(-96.416373 9.0737454 -1.2083449e-17)
(-98.844873 9.6754923 -1.8546223e-22)
(-107.09409 12.481012 2.5156557e-17)
(-100.51517 9.3938386 7.5231638e-37)
(-96.786181 7.347659 1.947573e-22)
(-92.524837 5.3204619 -1.9623196e-22)
(-96.237561 6.0600109 -2.402114e-34)
(-89.151386 3.3459972 2.0218969e-22)
(-104.56812 9.1101603 -2.0824928e-22)
(-164.02196 34.322213 -1.4645416e-17)
(-177.82421 41.002751 -9.3061537e-34)
(-174.81107 40.611978 2.6427966e-19)
(-154.88293 32.634262 2.3166654e-22)
(-145.94193 33.374839 -2.3444635e-22)
(-233.23748 62.877259 -1.6401495e-17)
(-643.45023 -782.23606 4.8175311e-18)
(-671.33826 -732.62741 1.4687514e-17)
(-607.93949 -521.99995 2.484323e-17)
(-652.82666 -691.40335 1.7366557e-17)
(-670.63321 -718.26553 -7.5231638e-37)
(-431.13588 -269.47191 -2.6765746e-22)
(-139.14941 -46.701019 2.5375005e-22)
(-102.73595 -28.908989 -1.6388362e-19)
(-91.571833 -20.92957 1.5070857e-17)
(-256.13756 -113.35605 -5.141035e-19)
(-219.24913 -88.502432 1.596243e-17)
(-183.20135 -67.589733 2.3454805e-22)
(-182.02598 -68.019466 1.5319871e-17)
(-76.510482 -20.027257 -2.6380873e-17)
(-32.812925 2.0776946 1.179609e-17)
(-27.056058 5.7344883 3.5430994e-22)
(-19.278685 8.7653813 -1.6930352e-22)
(-15.907808 10.749427 2.1338624e-17)
(-14.933016 11.913159 -7.9068452e-34)
(-11.053893 13.916918 1.5290102e-22)
(-12.654478 12.266453 9.9120372e-18)
(-14.163705 11.426016 1.5111818e-22)
(-17.73736 10.242181 1.0238104e-17)
(-19.690826 8.7834456 -1.5505405e-22)
(-14.031912 12.924428 -9.6551044e-18)
(-18.970486 10.246902 -7.5231638e-37)
(-21.145561 8.2176404 9.9909046e-18)
(-13.750383 12.508217 -9.3215836e-18)
(-9.3695102 15.366256 -2.9510775e-20)
(-16.38267 10.950708 -1.4124855e-22)
(-18.259245 9.6830415 -1.851799e-17)
(-30.3262 2.530039 1.4862433e-22)
(-32.292777 1.3254295 -1.9444861e-17)
(-23.522594 6.160632 0)
(-31.26959 1.926496 0)
(-21.446111 7.2789701 -1.7628817e-17)
(-20.126503 8.1319913 1.7262486e-17)
(-34.676378 -0.59388485 1.8334939e-17)
(-20.937645 8.2162823 1.68402e-17)
(-29.572442 3.2787986 2.6458137e-22)
(-35.447749 0.13392332 1.7498545e-17)
(-73.022344 -20.730605 1.9201253e-17)
(-38.174504 -2.4984615 3.4850664e-17)
(-42.088317 -5.3921778 1.7344154e-17)
(-26.056361 4.8196147 1.2366817e-22)
(-13.474512 13.253629 -2.9531826e-17)
(-14.901994 13.227798 2.2407382e-22)
(-24.465842 8.8828863 -1.1602893e-22)
(-166.78504 -64.253482 6.7743156e-34)
(-312.66032 -168.6263 0)
(-282.16838 -143.68065 -2.0840935e-17)
(-297.65489 -156.65196 2.0278842e-17)
(-300.96112 -161.34689 0)
(-293.02664 -157.77816 6.7858222e-34)
(-351.98146 -212.90603 4.8165921e-40)
(-483.50163 -389.54082 0)
(-478.03115 -377.30414 -1.8266427e-17)
(-473.0529 -375.32244 1.4503109e-22)
(-481.17536 -386.67265 1.9045897e-17)
(-516.49704 -451.81777 -2.3509887e-38)
(-522.99251 -467.94295 1.8264069e-17)
(-545.28332 -525.28607 1.1754944e-38)
(-554.59413 -554.56531 1.5721054e-17)
(-553.85987 -556.22387 1.7435887e-17)
(-564.53911 -591.31165 -1.5189417e-17)
(-561.73808 -586.59102 -1.5120304e-17)
(-548.76163 -551.41997 -1.2938056e-22)
(-564.52766 -601.05576 -1.6677246e-17)
(-568.31187 -620.60567 -1.4658585e-17)
(-563.66298 -607.68356 1.6476112e-17)
(-550.51026 -571.63973 3.7615819e-37)
(-562.28971 -608.93621 -1.4411635e-17)
(-551.37391 -581.31521 3.0750633e-17)
(-548.70795 -574.76372 1.2163567e-22)
(-550.61841 -581.7798 -1.206966e-22)
(-579.47419 -680.83179 -1.9589161e-18)
(-569.85352 -650.04012 -5.6516561e-25)
(-564.47902 -634.3052 -1.5257373e-17)
(-566.42543 -645.21663 1.3251444e-17)
(-558.53576 -621.52863 1.3213656e-17)
(-556.42984 -618.06355 -1.701238e-18)
(-550.92801 -604.06024 -1.4728166e-17)
(-552.24534 -611.50632 2.7545695e-17)
(-550.71096 -609.17099 -1.090693e-22)
(-553.37552 -621.15454 -2.7186104e-17)
(-551.56966 -617.7389 1.4352987e-17)
(-548.63397 -610.04127 0)
(-543.64206 -597.25619 2.6895241e-17)
(-544.89979 -605.30225 -1.410945e-17)
(-551.91681 -633.9058 6.3486099e-34)
(-546.28393 -618.75 -1.0438164e-22)
(-549.12916 -632.67566 1.2123699e-17)
(-547.41859 -630.7205 -1.2070956e-17)
(-541.32538 -612.53418 -2.5628039e-17)
(-534.53473 -593.00626 -9.4039548e-38)
(-532.18988 -587.12236 4.7019774e-38)
(-518.97546 -549.62584 -1.2284702e-17)
(-512.43247 -534.30664 -2.0371037e-22)
(-510.36982 -531.31838 1.0107217e-22)
(-504.02565 -516.50403 1.0036241e-22)
(-489.08117 -480.31992 -1.0161461e-22)
(-487.3769 -475.59244 -1.2292298e-17)
(-471.92556 -445.28326 1.3444834e-17)
(-477.81415 -459.15061 -4.7019774e-38)
(-463.99709 -433.39445 2.5668193e-17)
(-445.64293 -401.52924 -1.337983e-17)
(-432.36387 -382.28749 -1.3342222e-17)
(-417.82818 -361.59927 -1.0004583e-22)
(-353.44721 -269.52207 2.0199695e-34)
(-351.37421 -268.45394 -1.2786454e-17)
(-337.0563 -250.97342 1.3301546e-17)
(-310.30144 -218.83074 -9.8901316e-23)
(-293.17942 -199.90487 1.3024701e-17)
(-286.16619 -193.58193 -9.7307586e-23)
(-276.23691 -183.23072 9.6254689e-23)
(-273.11569 -181.06189 -9.5589555e-23)
(-279.80448 -189.44832 -1.2268718e-17)
(-272.28907 -182.11419 -1.2547324e-17)
(-257.73353 -167.08539 -1.2378502e-17)
(-229.49298 -140.58221 -6.0212159e-18)
(-216.37166 -129.71068 8.8877053e-23)
(-171.73099 -94.593438 -8.5210659e-23)
(-194.25966 -112.55687 5.7370314e-18)
(-149.01235 -79.153191 5.4384247e-18)
(-119.1487 -58.788667 5.1808062e-18)
(-123.75957 -62.316892 5.172058e-18)
(-107.92431 -51.769324 5.1124052e-18)