/*--------------------------------*- C++ -*----------------------------------*\
| =========                 |                                                 |
| \\      /  F ield         | OpenFOAM: The Open Source CFD Toolbox           |
|  \\    /   O peration     | Version:  2506                                  |
|   \\  /    A nd           | Website:  www.openfoam.com                      |
|    \\/     M anipulation  |                                                 |
\*---------------------------------------------------------------------------*/
FoamFile
{
    version     2.0;
    format      ascii;
    arch        "LSB;label=32;scalar=64";
    class       volScalarField;
    location    "5e-05";
    object      yPlus;
}
// * * * * * * * * * * * * * * * * * * * * * * * * * * * * * * * * * * * * * //

dimensions      [0 0 0 0 0 0 0];

internalField   uniform 0;

boundaryField
{
    Side
    {
        type            empty;
    }
    Inlet
    {
        type            calculated;
        value           uniform 0;
    }
    Airfoil
    {
        type            calculated;
        value           nonuniform List<scalar> 
1047
(
1.4880332
2.070426
1.9086735
1.6757757
1.9902044
1.7018995
1.9532144
1.8943498
1.74784
1.6660014
1.7363079
1.7045442
1.7154444
1.7090062
1.7191085
1.8422046
1.9310695
2.0638152
2.1360607
2.2154491
2.2308574
2.2579622
2.2559911
2.2554083
2.2291305
2.1627674
2.3337443
2.2755364
2.269266
2.2272992
2.2157291
2.0991704
1.8494477
2.1502922
2.22661
2.1385432
2.0385682
1.7412365
1.7254998
1.8221539
1.7909989
1.7586795
1.7753806
1.8754411
2.0060704
1.9984372
1.8666464
1.8361571
1.6602893
1.7181823
1.5673549
1.5072596
1.413981
1.3511236
1.3144347
1.3009623
1.3212199
1.3478239
1.3697695
1.4404641
1.4580915
1.6181593
1.8633732
2.1036751
1.8237361
1.2567607
1.8832439
2.3598655
4.239253
4.7323572
1.8627374
3.3496186
5.6714751
5.3778971
3.7806417
4.6859597
5.7951915
4.3836587
5.8389583
5.7679685
4.7160608
2.1784506
1.8362503
1.6645284
2.0761495
1.1720812
2.657183
1.4390193
0.95059499
1.7147768
2.1370424
2.1795472
2.4054292
2.594628
3.5126942
3.6045126
1.5321105
1.4306267
3.4316901
4.3913137
2.3492393
1.6994076
1.1672384
1.3028051
2.3892835
2.0484245
2.6349837
2.6088918
3.1369119
3.228686
2.9230151
3.2265254
3.236769
1.5723067
1.5297418
3.6909657
3.425456
4.0282497
2.3600565
2.0988972
2.4985445
3.8739677
2.0303362
2.3573883
2.2323656
2.3227924
1.9180296
3.7572545
1.4163826
1.0461226
2.5976446
1.3974942
1.8395534
1.0243579
1.2737763
2.4189441
1.3799479
2.5340273
1.396247
2.6791885
3.4364734
2.8417744
3.8089228
2.9921194
2.7779966
2.8254613
2.1776768
2.8462624
2.5263748
2.3178669
2.9896721
2.8332555
2.3748899
2.8617516
1.0367431
3.3900127
1.2433723
0.9091463
1.4489647
2.127631
3.8091234
3.8037213
3.6511492
2.9899055
0.50993876
2.6723646
2.6646251
3.2383543
2.2805905
3.1552625
2.4554163
1.3373207
3.2173442
2.3189639
2.7205436
2.602089
2.4254492
3.035759
2.3260106
2.7286711
1.5643947
1.6076937
1.5299635
1.5094564
1.8397119
2.139194
1.5658699
0.99474893
0.57261692
1.2816155
1.4686602
1.4480404
1.2379448
1.4387185
0.91725949
0.6825927
1.0852597
1.464183
1.5622045
0.60757587
0.70950439
0.68922323
0.63584693
1.106199
0.75725765
0.56247905
0.60834674
0.62169507
0.64662329
0.68328336
0.60320482
0.59753843
0.66263444
0.6386291
0.63274919
0.90087
1.0948374
1.2052913
2.2934841
3.9375309
2.3465331
2.7450066
3.5468615
3.5099724
3.2693347
3.3207836
3.2885016
3.3404134
2.7427151
4.18446
3.5395589
4.1388357
3.4678261
3.8496281
3.8034217
3.7914162
3.5871215
3.473574
3.5305589
3.5154814
3.767548
3.5665531
2.3164163
4.075939
4.3859309
3.8245827
3.4157556
3.5466222
3.3715611
3.9245034
0.27716364
0.3354016
0.31690367
0.5526288
0.66554083
0.6563336
0.66393533
0.62630059
0.63023377
0.62168227
0.61602842
0.61965745
0.61432971
0.61058273
0.59059324
0.60393521
0.600949
0.62500927
0.59539735
0.59175858
0.59448018
0.60440581
0.60838236
0.60058727
0.5935444
0.59594478
0.6062145
0.59599034
0.59255109
0.60928762
0.61759009
0.62040055
0.62638061
0.62677622
0.6237933
0.62519506
0.62113842
0.61128775
0.61859946
0.62253237
0.62623798
0.62027271
0.62060813
0.63052866
0.6318189
0.63572373
0.62862304
0.6121549
0.63021594
0.59543448
0.59702216
0.60152194
0.63678621
0.64157701
0.67083255
0.63500046
0.61244797
0.62529152
0.61809238
0.61896266
0.62220909
0.631402
0.62813667
0.63754912
0.6237018
0.62439078
0.62432442
0.62363564
0.619451
0.6195509
0.62226784
0.64294502
0.63294661
0.63257195
0.63614752
0.63419344
0.63261444
0.63133496
0.63032164
0.62077741
0.62006033
0.62495409
0.62697128
0.62782898
0.6280685
0.62735866
0.6290439
0.62356123
0.61553514
0.61671787
0.61975933
0.62626842
0.6220836
0.62228539
0.61712033
0.61617685
0.62920512
0.62024331
0.62440528
0.62551438
0.62734146
0.62489615
0.61964619
0.62303638
0.61394662
0.62778542
0.62856312
0.63795529
0.62874495
0.64444498
0.63042954
0.63673527
0.64020041
0.62608271
0.62320328
0.62545156
0.63750839
0.62963477
0.65371917
0.63671243
0.64583652
0.65848968
0.64806819
0.66360189
0.66064422
0.65554271
0.64949158
0.65153079
0.64653231
0.62273662
0.63255199
0.64656867
0.64108894
0.62486173
0.62772408
0.62967684
0.63389693
0.62999707
0.63002598
0.62731576
0.61914902
0.62264039
0.62683406
0.61827017
0.617327
0.64610437
0.64165445
0.62711437
0.62532297
0.62179031
0.6191721
0.62097307
0.62835807
0.6305439
0.63678091
0.6595529
0.66007823
0.66358636
0.66215248
0.65058454
0.65608633
0.65475018
0.65559341
0.65780558
0.64771182
0.63158
0.63216619
0.64390887
0.63237876
0.62946048
0.62716842
0.63914005
0.61801897
0.61730236
0.61261818
0.61285804
0.61590882
0.61639824
0.62347254
0.62275839
0.62659534
0.62893398
0.62833567
0.63824405
0.64014273
0.62814277
0.61921976
0.61652489
0.61835271
0.60752367
0.61187729
0.61340773
0.64562581
0.66218406
0.61650346
0.62026061
0.62357279
0.62348681
0.62135507
0.61638394
0.63548646
0.63020342
0.64251945
0.62155783
0.60919275
0.62224114
0.62852798
0.6140831
0.61594799
0.63271447
0.61766251
0.60960278
0.61841697
0.60777704
0.60932697
0.61988719
0.62124459
0.60731541
0.62031936
0.61353418
0.61345237
0.60977123
0.61276936
0.64185208
0.62940994
0.644139
0.6527988
0.6214974
0.60224466
0.6172321
0.64266187
0.6538042
0.67178657
0.65335647
0.63868222
0.62413723
0.62835426
0.6252231
0.63998282
0.65359504
0.64927084
0.65452906
0.64723907
0.64677474
0.64516512
0.64944315
0.65965628
0.67458453
0.66666583
0.65841349
0.6455938
0.64501279
0.63705574
0.63311332
0.63167692
0.64802787
0.64280818
0.65247468
0.64078062
0.63543856
0.64051229
0.64214663
0.6438698
0.64692383
0.65226963
0.64584156
0.63992252
0.63571035
0.63185181
0.63217517
0.63190241
0.63629383
0.63862736
0.63644385
0.63509413
0.63015529
0.63001497
0.630483
0.62961826
0.62649523
0.62671183
0.62356488
0.62263964
0.62456268
0.6258904
0.6223154
0.62472414
0.63170425
0.63587305
0.63821636
0.6384227
0.63811647
0.63977364
0.64162226
0.64711653
0.64969372
0.65488784
0.6609825
0.67105419
0.66659576
0.66460736
0.67280753
0.68757868
0.69291522
0.70839296
0.71536939
0.72266551
0.72960513
0.73828353
0.74382082
0.74249849
0.7363176
0.72522119
0.71258072
0.69689117
0.74489205
0.74183527
0.74437204
0.7463728
0.75136187
0.75317658
0.76033985
0.76362397
0.7712989
0.7753037
0.77837878
0.7808046
0.78069323
0.78050305
0.78136838
0.78922224
0.80289781
0.80580543
0.82240038
0.83983967
0.85717718
0.86673867
0.87428911
0.87959756
0.88845387
0.89895527
0.9079346
0.91893352
0.93114975
0.93760539
0.95129281
0.96215527
0.97177421
0.98375896
1.0088398
1.0139233
0.96390853
0.94875157
0.95555909
0.95478368
0.96145481
0.99297457
1.0116728
1.021386
0.98497613
0.9885436
0.98411732
0.96970027
0.99328092
0.97399796
0.96983932
0.95122343
0.94172666
0.93573453
0.94189641
0.95919737
0.96649597
0.98774217
1.1529055
1.0379044
1.1108453
1.1246894
1.1149397
1.148107
1.1804612
1.1986842
1.2092279
1.2165782
1.2201522
1.2338583
1.277754
1.241718
1.2216787
1.2006286
1.2204164
1.1827519
1.2676152
1.5449093
1.6026887
1.5888786
1.5054854
1.4655805
1.8041364
4.348403
3.92018
3.7449392
3.0565735
3.0029602
2.4594251
1.4544341
1.2606238
1.205223
1.8966994
1.7643724
1.6398273
1.636624
1.1290568
0.78172922
0.72083244
0.63912721
0.60989308
0.60344892
0.57842418
0.58246183
0.59362032
0.62091813
0.63813574
0.59588373
0.63362435
0.64728177
0.58607564
0.56916188
0.60595502
0.62029095
0.73310859
0.75099113
0.66658646
0.74116423
0.64701534
0.63484783
0.77280166
0.6453584
0.72876394
0.78428692
1.0691759
0.80398477
0.84161642
0.68980761
0.58455297
0.60208161
0.69127669
1.5523192
2.0050538
1.9272001
1.9634284
1.9706315
1.9798654
2.1190296
2.5993597
2.5587779
2.5621112
2.5919741
2.7347415
2.765209
2.8696177
2.9223247
2.9203249
2.9841427
2.9689069
2.8882379
2.9884129
3.0049697
2.9813779
2.9036306
2.971402
2.9149103
2.8988077
2.9030177
3.0863162
3.0473036
3.0143633
3.0391651
3.0019848
2.9941165
2.9697134
2.9796609
2.9755791
2.9853955
2.9747698
2.9532893
2.9296774
2.938147
2.9851223
2.9571226
2.9830293
2.9748634
2.942634
2.8995182
2.8873208
2.8092614
2.7794032
2.7739741
2.7435832
2.668937
2.6631483
2.5933543
2.6266921
2.5632004
2.4871426
2.4404745
2.3897495
2.1505393
2.1438892
2.0934369
2.0033188
1.947274
1.9250353
1.8925865
1.883722
1.9053796
1.8817199
1.8342378
1.7451563
1.7030091
1.5463045
1.6279323
1.4558863
1.3185717
1.3422259
1.2620515
1.2226981
1.1502353
1.2789834
1.0415475
0.97287267
0.93959132
0.88368054
0.87899536
0.68122745
1.0650859
0.94655648
0.80932594
0.68261509
0.63352959
0.71476608
0.70031988
0.66269925
0.64639809
0.6836303
0.730572
0.69468282
0.68999206
0.67911292
0.65392547
0.73168981
0.66183263
0.64086509
0.70051674
0.76673561
0.69117072
0.69551153
0.73392578
0.74703935
0.7045857
0.75760963
0.74885735
0.7439871
0.74861091
0.78830107
0.78397411
0.77799919
0.76131051
0.76168993
0.8002155
0.81819064
0.80109148
0.78926909
0.7723739
0.77194376
0.79494684
0.79151731
0.8356747
0.84520077
0.85576664
0.84338201
0.83873152
0.84708648
0.83999319
0.88773615
0.84372006
0.87300963
0.88518417
0.88506845
0.89795729
0.92572727
0.91576414
0.92660902
0.9016564
0.8917705
0.84068481
0.82471705
0.85427069
0.85690408
0.87575911
0.88630532
0.89130623
0.90075958
0.8872137
0.86601359
0.8621258
0.85860281
0.86651387
0.87938223
0.87852133
0.91377766
0.95456618
0.94491634
0.99274425
0.99459149
1.0100291
0.99057298
0.90470414
0.88692987
0.89085213
0.93720653
0.94946406
0.94221741
0.89396247
0.87822796
0.89580048
0.91070155
0.92526853
0.99440463
1.1007225
0.79290057
1.0503129
1.0263733
0.88209533
1.0734833
0.83060954
0.90175707
0.89343074
0.86284086
0.85964574
0.85761613
0.85350769
0.90204152
0.91611972
0.91389734
0.89852247
0.9060925
0.90328788
0.87616588
0.89515384
0.88348853
0.88977979
0.88236166
0.89029152
0.87835243
0.87228875
0.8695075
0.86564105
0.85582421
0.8495173
0.84939286
0.84573105
0.85345586
0.84746043
0.85187492
0.84888359
0.84018867
0.84915758
0.8405845
0.84153333
0.84200312
0.85231686
0.85250045
0.84172266
0.84210876
0.84528641
0.84472858
0.84276149
0.85533365
0.84446759
0.86324054
0.86130596
0.85036289
0.85168021
0.8470452
0.86271869
0.85141614
0.84047924
0.82979278
0.82531622
0.76639187
0.74641406
0.78826651
0.79856863
0.79959145
0.79696978
0.79340796
0.78184913
0.79587549
0.77582362
0.78656957
0.77698989
0.77142815
0.82483079
0.80408428
0.81245143
0.83043852
0.73813217
0.74519637
0.73754806
0.78769019
0.58521803
0.83395038
0.7357726
0.78758484
0.78920939
0.80015607
0.7925818
0.78857296
0.79569714
0.78118442
0.7837785
0.78276056
0.78765396
0.7922345
0.78973283
0.78788201
0.77566415
0.78070982
0.75288582
0.75619695
0.7490786
0.73366134
0.72490425
0.73915221
0.81073148
0.72327991
0.7654794
0.76163375
0.75380878
0.76432548
0.75412152
0.75329915
0.72292819
0.71303157
0.71617355
0.71741046
0.71383319
0.76022427
0.74127342
0.76621147
0.71820161
0.71227565
0.82906965
0.71439054
0.71910721
0.81096116
0.79882105
0.74066283
0.78027263
0.74927382
0.75869636
0.74954281
0.77742631
0.77149366
0.80565168
0.8073659
0.78503698
0.77086509
0.7879327
0.77812612
0.7439485
0.7336127
0.77923177
0.75472771
0.79195056
0.76687849
0.75841229
0.70137769
0.71978516
0.71599935
0.71293367
0.70294204
0.70650274
0.71131739
0.68987979
0.71956573
0.72384113
0.72686853
0.71196827
0.72273322
0.72290457
0.7501818
0.77412114
0.73550781
0.80407172
1.8386646
3.3166319
)
;
    }
    Outlet
    {
        type            calculated;
        value           uniform 0;
    }
}


// ************************************************************************* //
