/*--------------------------------*- C++ -*----------------------------------*\
| =========                 |                                                 |
| \\      /  F ield         | OpenFOAM: The Open Source CFD Toolbox           |
|  \\    /   O peration     | Version:  2506                                  |
|   \\  /    A nd           | Website:  www.openfoam.com                      |
|    \\/     M anipulation  |                                                 |
\*---------------------------------------------------------------------------*/
FoamFile
{
    version     2.0;
    format      ascii;
    arch        "LSB;label=32;scalar=64";
    class       volScalarField;
    location    "0.011";
    object      rho;
}
// * * * * * * * * * * * * * * * * * * * * * * * * * * * * * * * * * * * * * //

dimensions      [1 -3 0 0 0 0 0];

internalField   nonuniform List<scalar> 
13761
(
0.56714313
0.56431575
0.56159393
0.58545733
0.58226143
0.57912773
0.57606675
0.5730877
0.57019865
0.56740612
0.56471552
0.56213091
0.59797813
0.59474367
0.5915301
0.58835072
0.58521785
0.58214302
0.57913677
0.57620836
0.57336586
0.57061609
0.56796456
0.56541563
0.56297238
0.61321842
0.61013171
0.60700761
0.60385982
0.60070225
0.59754861
0.59441242
0.59130673
0.58824378
0.58523495
0.58229069
0.57942025
0.57663175
0.57393208
0.57132687
0.56882061
0.5664167
0.62422767
0.62142628
0.61854971
0.61560934
0.61261729
0.6095864
0.60652995
0.60346134
0.60039401
0.59734109
0.59431532
0.5913287
0.58839242
0.58551681
0.58271106
0.57998329
0.57734043
0.57478818
0.57233115
0.56997285
0.56771559
0.63390145
0.63147729
0.62895215
0.62633364
0.62363047
0.62085254
0.61801072
0.61511676
0.61218298
0.60922215
0.60624724
0.60327123
0.60030687
0.59736658
0.59446205
0.59160427
0.58880339
0.5860685
0.58340765
0.58082776
0.57833458
0.57593278
0.573626
0.57141675
0.56930655
0.64205445
0.64005297
0.63793845
0.63571433
0.63338529
0.63095728
0.62843753
0.62583441
0.62315735
0.62041677
0.6176239
0.61479058
0.61192909
0.60905193
0.60617163
0.60330054
0.60045069
0.59763347
0.59485959
0.59213897
0.58948056
0.5868923
0.58438105
0.58195256
0.57961155
0.57736171
0.57520567
0.57314519
0.57118095
0.64865596
0.64707934
0.64539001
0.6435878
0.64167353
0.63964925
0.63751822
0.63528488
0.63295489
0.63053513
0.62803354
0.62545915
0.62282191
0.62013258
0.61740251
0.6146435
0.61186758
0.6090868
0.6063131
0.60355809
0.60083282
0.59814767
0.59551233
0.59293551
0.59042503
0.58798764
0.58562905
0.58335398
0.58116616
0.57906829
0.57706222
0.5751489
0.57332842
0.65379735
0.65261459
0.65132872
0.64993689
0.648437
0.64682786
0.64510925
0.64328197
0.64134792
0.63931015
0.63717287
0.63494146
0.63262245
0.63022344
0.62775303
0.62522074
0.62263688
0.62001232
0.61735838
0.6146866
0.61200858
0.60933579
0.60667944
0.60405018
0.60145807
0.59891249
0.59642192
0.59399397
0.59163526
0.58935139
0.58714707
0.58502602
0.58299097
0.58104388
0.57918577
0.57741698
0.6576484
0.65680807
0.65587966
0.65485886
0.65374172
0.65252488
0.65120556
0.64978174
0.64825224
0.6466168
0.64487614
0.64303204
0.64108739
0.63904619
0.63691355
0.6346957
0.63239988
0.63003433
0.62760814
0.62513117
0.62261384
0.62006699
0.61750168
0.61492906
0.61236013
0.60980567
0.60727593
0.60478061
0.60232877
0.5999286
0.59758748
0.59531186
0.59310722
0.59097816
0.58892837
0.5869606
0.58507685
0.58327822
0.58156514
0.57993736
0.66090643
0.66041495
0.65985723
0.65922842
0.65852377
0.6577386
0.65686843
0.65590907
0.65485673
0.65370813
0.65246057
0.6511121
0.64966153
0.64810859
0.64645396
0.6446993
0.64284737
0.64090196
0.63886795
0.63675128
0.63455889
0.63229863
0.62997922
0.62761007
0.62520117
0.62276288
0.62030582
0.61784064
0.61537792
0.61292798
0.61050069
0.60810533
0.60575065
0.60344453
0.60119408
0.59900556
0.59688426
0.59483468
0.59286043
0.59096422
0.58914806
0.58741309
0.58575981
0.58418816
0.66282916
0.66259065
0.6623062
0.66197166
0.66158267
0.66113462
0.66062283
0.66004261
0.65938935
0.6586585
0.65784574
0.656947
0.6559586
0.65487737
0.6537007
0.65242668
0.65105417
0.6495829
0.64801349
0.64634753
0.64458764
0.64273746
0.64080163
0.63878584
0.63669672
0.6345418
0.63232939
0.63006852
0.62776873
0.62543995
0.62309233
0.62073607
0.6183813
0.61603792
0.61371536
0.61142254
0.60916784
0.60695884
0.60480238
0.60270446
0.6006702
0.59870395
0.5968092
0.59498861
0.59324415
0.59157696
0.58998761
0.58847606
0.58704171
0.66385304
0.66383799
0.66379916
0.66373446
0.66364033
0.66351302
0.66334898
0.66314464
0.66289629
0.66259993
0.66225133
0.66184602
0.66137945
0.66084708
0.66024441
0.65956707
0.65881085
0.65797181
0.6570464
0.65603156
0.65492477
0.65372418
0.65242872
0.6510381
0.64955292
0.6479747
0.64630596
0.64455017
0.64271177
0.64079623
0.63880988
0.63675992
0.63465433
0.63250173
0.63031125
0.6280924
0.62585487
0.62360844
0.62136277
0.61912734
0.61691118
0.61472283
0.6125703
0.61046085
0.60840105
0.60639664
0.60445255
0.60257294
0.60076121
0.59901991
0.59735094
0.59575546
0.59423401
0.59278661
0.59141279
0.6619164
0.66336902
0.66400617
0.66407008
0.66401083
0.6639974
0.66404297
0.66411026
0.66416652
0.66419956
0.66420904
0.66419577
0.66415802
0.66409239
0.66399522
0.66386301
0.66369232
0.66347952
0.66322076
0.66291193
0.66254868
0.66212661
0.6616413
0.6610884
0.66046367
0.65976303
0.65898271
0.65811925
0.65716972
0.6561317
0.65500342
0.65378384
0.65247271
0.6510706
0.64957898
0.64800026
0.64633777
0.6445958
0.64277956
0.64089514
0.63894943
0.63695007
0.63490531
0.63282389
0.63071489
0.62858758
0.62645131
0.6243153
0.62218862
0.62007989
0.61799726
0.61594841
0.61394026
0.61197908
0.61007038
0.60821888
0.60642856
0.60470268
0.60304368
0.60145342
0.599933
0.59848295
0.59710333
0.59579369
0.66347969
0.6665138
0.66571327
0.66555231
0.66544547
0.66533149
0.66524105
0.66517726
0.66513497
0.66510824
0.66509206
0.6650826
0.66507723
0.66507441
0.66507493
0.66509111
0.66517692
0.66547487
0.66637976
0.66830802
0.67174924
0.67492702
0.67425577
0.67168012
0.66966
0.66828798
0.66729179
0.66647662
0.66574855
0.66504187
0.66429526
0.66347482
0.66259255
0.66169084
0.66083091
0.66008506
0.65953509
0.6592843
0.65950924
0.66043244
0.66196554
0.66345418
0.66418444
0.66430089
0.66426178
0.66426055
0.66432079
0.66440735
0.66448582
0.66454227
0.66457594
0.66458789
0.66457672
0.6645392
0.66447174
0.66437092
0.66423336
0.66405557
0.66383382
0.6635641
0.6632422
0.66286386
0.66242478
0.66192076
0.6613477
0.66070166
0.65997899
0.65917639
0.65829101
0.65732056
0.65626335
0.65511838
0.65388544
0.65256509
0.65115874
0.64966873
0.64809826
0.64645145
0.64473331
0.64294969
0.64110718
0.63921311
0.63727539
0.63530235
0.63330268
0.63128524
0.62925895
0.62723262
0.62521489
0.623214
0.62123772
0.61929336
0.61738754
0.61552623
0.61371468
0.61195741
0.6102582
0.60862015
0.60704563
0.6055364
0.60409352
0.60271751
0.60140842
0.60016585
0.66347633
0.66651054
0.66571446
0.66555205
0.6654456
0.66533193
0.66524155
0.6651777
0.66513532
0.6651085
0.66509223
0.66508271
0.6650773
0.66507443
0.66507481
0.66509043
0.6651748
0.66546945
0.66637087
0.66829651
0.67177896
0.67505206
0.67453917
0.67194399
0.66990884
0.66853542
0.66754471
0.66673696
0.66601663
0.6653164
0.66457355
0.66375475
0.66287312
0.66197169
0.66111176
0.66036404
0.65980639
0.65953502
0.65971204
0.66055789
0.66202847
0.66353825
0.66435486
0.66452669
0.66450984
0.66452135
0.66459592
0.66470117
0.66480139
0.66488091
0.66493843
0.66497529
0.66499036
0.66498056
0.66494238
0.66487247
0.66476753
0.66462418
0.6644388
0.66420751
0.66392623
0.66359081
0.66319711
0.66274106
0.66221868
0.66162619
0.66096008
0.66021717
0.65939474
0.65849059
0.65750312
0.65643141
0.65527525
0.65403522
0.65271269
0.65130992
0.64983
0.64827691
0.64665546
0.64497125
0.64323065
0.64144064
0.6396088
0.63774311
0.63585186
0.63394351
0.63202657
0.63010944
0.62820035
0.62630714
0.62443723
0.62259755
0.62079441
0.61903348
0.61731977
0.61565755
0.61405042
0.61250134
0.61101253
0.60958569
0.6082218
0.60692135
0.60568442
0.60451058
0.6634733
0.66650757
0.66571558
0.66555185
0.66544573
0.66533234
0.665242
0.6651781
0.66513563
0.66510873
0.66509239
0.66508281
0.66507736
0.66507445
0.6650747
0.66508982
0.665173
0.66546504
0.66636453
0.66828992
0.67181391
0.67517614
0.67481535
0.67219994
0.67015091
0.66877714
0.66779242
0.66699234
0.66627977
0.66558574
0.66484621
0.66402863
0.66314731
0.66224605
0.66138649
0.66063797
0.66007468
0.6597863
0.65992202
0.66069748
0.66210493
0.66362323
0.664518
0.66474716
0.66475466
0.66477954
0.66486818
0.66499157
0.66511305
0.66521526
0.66529634
0.66535777
0.66539871
0.66541624
0.66540691
0.66536742
0.66529457
0.66518506
0.66503541
0.66484185
0.66460043
0.66430711
0.6639579
0.66354886
0.66307616
0.66253615
0.66192545
0.66124102
0.66048026
0.65964109
0.65872198
0.65772208
0.65664123
0.65547998
0.65423969
0.65292256
0.65153157
0.65007056
0.64854418
0.64695781
0.64531755
0.6436301
0.64190271
0.64014301
0.63835892
0.63655849
0.63474984
0.63294096
0.6311397
0.62935349
0.62758938
0.62585396
0.62415319
0.62249247
0.62087653
0.61930941
0.61779452
0.61633465
0.61493188
0.61358783
0.61230339
0.61107902
0.60991477
0.60881023
0.66347058
0.6665049
0.66571662
0.6655517
0.66544587
0.66533271
0.66524239
0.66517845
0.66513591
0.66510893
0.66509252
0.6650829
0.66507741
0.66507447
0.6650746
0.66508928
0.66517151
0.66546165
0.66636075
0.66828838
0.67185451
0.67530081
0.67508384
0.67244778
0.67038606
0.669013
0.66803485
0.66724266
0.66653786
0.66584975
0.66511307
0.6642963
0.66341497
0.66251376
0.66165485
0.66090648
0.66033931
0.66003706
0.66013734
0.66084922
0.66219435
0.66371069
0.66467453
0.66496201
0.66499583
0.6650348
0.66513734
0.66527837
0.66542059
0.66554514
0.66564946
0.66573513
0.66580159
0.66584605
0.66586512
0.66585556
0.66581423
0.66573797
0.66562338
0.66546682
0.66526447
0.66501241
0.66470678
0.66434377
0.6639197
0.66343105
0.66287458
0.66224738
0.66154699
0.6607714
0.6599192
0.6589896
0.65798246
0.65689835
0.65573862
0.65450539
0.65320157
0.65183086
0.65039775
0.64890742
0.64736571
0.64577906
0.6441544
0.64249901
0.64082046
0.63912641
0.63742458
0.63572258
0.63402785
0.63234744
0.63068803
0.62905585
0.62745654
0.6258952
0.62437628
0.62290359
0.62148034
0.62010913
0.61879192
0.61753022
0.61632484
0.61517616
0.61408427
0.61304869
0.66346818
0.66650253
0.66571756
0.66555158
0.665446
0.66533304
0.66524274
0.66517875
0.66513615
0.6651091
0.66509264
0.66508298
0.66507746
0.66507449
0.66507451
0.66508881
0.66517034
0.66545928
0.66635951
0.668292
0.67190115
0.67542742
0.67534432
0.67268735
0.67061414
0.6692429
0.66827189
0.66748789
0.66679087
0.66610836
0.66537406
0.66455769
0.66367598
0.66277462
0.66191659
0.66116918
0.66059972
0.66028639
0.6603564
0.66101121
0.66229588
0.66380185
0.66482523
0.66517103
0.66523298
0.66528682
0.66540318
0.66556136
0.66572386
0.66587037
0.66599762
0.66610722
0.66619882
0.6662698
0.66631682
0.66633668
0.66632632
0.66628266
0.66620245
0.66608215
0.66591806
0.66570639
0.6654434
0.66512542
0.6647489
0.66431047
0.66380701
0.66323576
0.66259436
0.66188093
0.66109413
0.66023324
0.65929815
0.65828946
0.65720849
0.65605731
0.65483876
0.65355641
0.6522146
0.65081831
0.64937316
0.64788531
0.6463614
0.64480837
0.64323342
0.64164386
0.64004702
0.63845012
0.6368602
0.63528393
0.63372762
0.63219716
0.63069784
0.62923446
0.62781122
0.62643166
0.6250988
0.62381505
0.62258225
0.62140177
0.62027435
0.61920032
0.61817976
0.66346608
0.66650048
0.6657184
0.66555149
0.66544612
0.66533333
0.66524303
0.665179
0.66513635
0.66510925
0.66509274
0.66508304
0.6650775
0.6650745
0.66507443
0.66508841
0.66516949
0.66545792
0.66636083
0.66830091
0.67195418
0.67555713
0.67559658
0.67291858
0.67083507
0.66946673
0.66850349
0.66772801
0.66703878
0.66636151
0.66562909
0.66481267
0.66393014
0.66302839
0.6621714
0.66142566
0.66085538
0.66053346
0.66057778
0.66118164
0.66240849
0.66389748
0.66497092
0.66537411
0.66546573
0.66553527
0.66566546
0.66584036
0.66602269
0.66619082
0.6663407
0.6664739
0.66659027
0.66668734
0.66676183
0.66681059
0.66683062
0.66681893
0.66677239
0.66668759
0.66656093
0.66638876
0.66616745
0.66589347
0.6655634
0.66517402
0.66472233
0.66420571
0.6636219
0.66296914
0.66224618
0.66145234
0.66058758
0.6596525
0.6586484
0.65757732
0.65644201
0.65524595
0.65399331
0.6526889
0.65133812
0.64994686
0.64852147
0.64706857
0.64559502
0.64410777
0.64261375
0.6411198
0.63963258
0.63815839
0.63670315
0.63527242
0.63387115
0.63250384
0.6311744
0.62988616
0.62864191
0.62744388
0.62629377
0.62519286
0.62414177
0.6231408
0.62218999
0.66346429
0.66649875
0.66571914
0.66555142
0.66544624
0.66533358
0.66524328
0.66517921
0.66513651
0.66510937
0.66509283
0.6650831
0.66507753
0.66507451
0.66507435
0.66508809
0.66516898
0.66545759
0.6663647
0.66831525
0.67201398
0.67569093
0.6758406
0.67314145
0.67104881
0.66968446
0.66872964
0.66796305
0.66728154
0.66660914
0.66587811
0.6650611
0.66417719
0.66327474
0.66241893
0.6616755
0.66110578
0.66077749
0.66080015
0.66135879
0.66253094
0.66399801
0.66511239
0.66557119
0.66569376
0.66577984
0.66592393
0.66611523
0.66631698
0.66650638
0.66667857
0.66683504
0.66697581
0.66709854
0.6672
0.66727711
0.66732693
0.66734657
0.66733299
0.66728291
0.66719284
0.66705925
0.66687864
0.66664762
0.66636288
0.66602135
0.66562016
0.66515681
0.66462917
0.66403556
0.66337481
0.66264633
0.66185011
0.66098675
0.66005755
0.65906452
0.65801033
0.65689835
0.65573262
0.65451778
0.65325899
0.65196192
0.65063262
0.6492774
0.64790278
0.64651535
0.64512168
0.64372823
0.64234127
0.64096673
0.63961018
0.6382768
0.63697123
0.63569768
0.63445978
0.63326061
0.63210276
0.63098829
0.62991875
0.62889532
0.62791852
0.62698861
0.66346282
0.66649735
0.66571978
0.66555138
0.66544635
0.66533379
0.66524348
0.66517938
0.66513664
0.66510946
0.66509289
0.66508314
0.66507756
0.66507452
0.66507429
0.66508785
0.6651688
0.66545829
0.66637113
0.66833512
0.6720809
0.67582969
0.67607625
0.67335576
0.67125513
0.66989593
0.66895026
0.66819289
0.66751906
0.66685116
0.66612102
0.66530275
0.66441679
0.6635133
0.66265877
0.66191829
0.66135036
0.6610177
0.66102227
0.66154101
0.66266192
0.66410348
0.66525035
0.66576226
0.66591676
0.66602024
0.6661784
0.66638583
0.66660661
0.66681694
0.66701114
0.66719056
0.66735534
0.66750327
0.6676312
0.66773609
0.66781509
0.66786539
0.66788405
0.66786788
0.66781354
0.66771761
0.66757672
0.66738758
0.66714705
0.66685215
0.66650017
0.66608872
0.66561577
0.66507975
0.66447958
0.66381471
0.66308517
0.66229158
0.66143525
0.66051812
0.65954282
0.65851262
0.65743142
0.65630368
0.65513437
0.65392891
0.65269307
0.65143287
0.65015448
0.64886416
0.64756811
0.64627242
0.64498299
0.64370538
0.6424448
0.64120608
0.63999355
0.63881111
0.63766213
0.63654946
0.63547547
0.63444206
0.63345064
0.6325023
0.63159745
0.63073632
0.66346164
0.66649629
0.66572031
0.66555136
0.66544646
0.66533397
0.66524364
0.6651795
0.66513673
0.66510953
0.66509294
0.66508317
0.66507758
0.66507452
0.66507423
0.6650877
0.66516898
0.66546001
0.66638013
0.66836065
0.67215531
0.67597429
0.67630387
0.67356177
0.67145425
0.67010132
0.66916548
0.6684176
0.66775135
0.66708752
0.66635766
0.6655373
0.66464852
0.66374361
0.66289046
0.66215356
0.66158851
0.66125329
0.66124298
0.66172671
0.66279998
0.66421362
0.66538537
0.66594736
0.66613452
0.66625623
0.66642871
0.66665207
0.66689155
0.66712248
0.66733837
0.66754038
0.66772876
0.66790142
0.66805529
0.66818739
0.66829494
0.66837521
0.66842537
0.66844233
0.66842284
0.66836363
0.66826144
0.66811312
0.66791564
0.66766615
0.66736207
0.66700112
0.66658138
0.66610137
0.66556008
0.66495703
0.66429227
0.66356645
0.66278087
0.66193744
0.66103872
0.66008789
0.65908873
0.65804552
0.65696303
0.65584645
0.65470128
0.65353324
0.6523482
0.65115206
0.64995068
0.64874978
0.6475549
0.64637124
0.64520365
0.64405664
0.64293421
0.64183998
0.64077705
0.63974805
0.63875513
0.63780005
0.63688408
0.63600822
0.63517276
0.66346075
0.66649554
0.66572075
0.66555137
0.66544656
0.6653341
0.66524375
0.66517958
0.6651368
0.66510958
0.66509297
0.66508319
0.66507759
0.66507452
0.66507419
0.66508764
0.66516951
0.66546276
0.66639173
0.66839199
0.67223754
0.67612463
0.6765223
0.67375855
0.67164555
0.67030028
0.66937511
0.66863713
0.66797839
0.66731814
0.66658767
0.66576425
0.66487185
0.66396514
0.66311346
0.66238067
0.66181952
0.66148338
0.66146106
0.66191428
0.6629436
0.66432794
0.66551793
0.66612663
0.66634691
0.66648765
0.66667475
0.66691392
0.66717178
0.66742297
0.66766021
0.66788443
0.66809599
0.66829289
0.66847217
0.66863089
0.66876633
0.66887588
0.66895678
0.66900606
0.66902056
0.66899712
0.66893262
0.66882403
0.66866843
0.66846312
0.66820562
0.66789375
0.66752571
0.6671001
0.66661598
0.66607291
0.665471
0.6648109
0.6640939
0.6633219
0.66249739
0.66162345
0.66070373
0.65974236
0.65874392
0.65771336
0.65665592
0.65557705
0.65448229
0.65337722
0.65226735
0.65115807
0.65005456
0.64896165
0.64788387
0.6468254
0.64578993
0.64478079
0.64380085
0.64285249
0.6419377
0.64105804
0.64021469
0.63940855
0.66346015
0.66649511
0.66572107
0.66555141
0.66544665
0.66533419
0.66524381
0.66517963
0.66513683
0.6651096
0.66509298
0.6650832
0.6650776
0.66507452
0.66507417
0.6650877
0.66517042
0.66546654
0.66640594
0.66842929
0.67232835
0.67628263
0.67673323
0.6739471
0.67182965
0.6704931
0.6695792
0.6688513
0.66819988
0.66754251
0.66681021
0.66598278
0.66508596
0.66417709
0.66332687
0.66259867
0.66204239
0.66170689
0.6616752
0.66210215
0.66309129
0.66444583
0.66564845
0.66630037
0.66655392
0.66671442
0.6669165
0.66717139
0.66744733
0.66771841
0.66797664
0.66822267
0.66845695
0.6686776
0.66888173
0.66906646
0.66922915
0.66936726
0.66947813
0.66955889
0.66960651
0.6696179
0.66959007
0.66952012
0.66940525
0.66924287
0.66903061
0.66876641
0.66844854
0.66807569
0.66764699
0.66716205
0.66662101
0.66602454
0.66537393
0.66467102
0.66391827
0.66311867
0.66227573
0.66139343
0.66047616
0.65952865
0.65855589
0.65756303
0.65655534
0.65553808
0.65451642
0.65349541
0.6524799
0.65147438
0.65048305
0.64950977
0.64855795
0.64763065
0.64673049
0.64585964
0.64501988
0.64421266
0.64343901
0.66345982
0.666495
0.66572127
0.6655515
0.66544673
0.66533425
0.66524383
0.66517963
0.66513683
0.66510959
0.66509298
0.6650832
0.6650776
0.66507452
0.66507418
0.6650879
0.6651717
0.66547136
0.66642279
0.66847251
0.67242623
0.67644476
0.67693403
0.67412621
0.67200603
0.67067965
0.66977823
0.66906016
0.66841528
0.66775937
0.66702363
0.66619095
0.66528884
0.66437754
0.66352892
0.66280601
0.66225576
0.66192258
0.6618842
0.66228897
0.66324179
0.66456684
0.66577752
0.66646908
0.66675568
0.66693655
0.66715399
0.66742455
0.66771823
0.66800881
0.66828761
0.66855504
0.66881157
0.66905546
0.66928387
0.669494
0.66968327
0.66984922
0.66998929
0.67010071
0.67018053
0.67022582
0.67023365
0.67020124
0.67012594
0.67000524
0.66983688
0.6696189
0.66934967
0.66902794
0.6686529
0.66822421
0.66774203
0.66720707
0.66662059
0.66598442
0.66530095
0.66457307
0.66380418
0.66299811
0.66215905
0.66129152
0.66040027
0.65949018
0.65856623
0.65763337
0.65669648
0.65576026
0.65482923
0.65390758
0.6529992
0.65210763
0.65123602
0.65038718
0.64956348
0.64876689
0.64799903
0.6472612
0.64655429
0.66345964
0.66649522
0.6657213
0.66555163
0.6654468
0.66533425
0.66524381
0.6651796
0.6651368
0.66510957
0.66509296
0.66508319
0.66507759
0.66507452
0.66507422
0.66508823
0.66517335
0.66547719
0.66644236
0.66852247
0.6725349
0.6766125
0.67712014
0.67428792
0.67216525
0.67084962
0.66996152
0.66925473
0.66861714
0.6679626
0.66722337
0.66638486
0.66547706
0.66456334
0.66371719
0.66300098
0.66245853
0.66212977
0.66208752
0.66247415
0.66339452
0.66469091
0.66590591
0.66663349
0.66695252
0.66715426
0.66738735
0.66767345
0.66798451
0.66829416
0.66859311
0.66888149
0.66915979
0.66942638
0.6696785
0.6699134
0.67012857
0.67032164
0.67049013
0.67063136
0.67074252
0.67082074
0.67086323
0.67086729
0.67083037
0.6707501
0.67062431
0.67045111
0.67022896
0.66995668
0.66963352
0.66925918
0.66883385
0.66835825
0.66783364
0.66726181
0.66664508
0.66598627
0.66528865
0.6645559
0.66379203
0.66300134
0.66218835
0.66135769
0.66051405
0.65966209
0.65880639
0.65795135
0.65710118
0.65625976
0.65543069
0.65461723
0.65382227
0.65304839
0.65229775
0.65157211
0.65087294
0.65020141
0.6634596
0.66649572
0.66572116
0.66555174
0.66544682
0.66533419
0.66524373
0.66517953
0.66513674
0.66510953
0.66509293
0.66508316
0.66507758
0.66507452
0.66507429
0.6650887
0.66517539
0.66548412
0.66646473
0.66857844
0.67265031
0.67678973
0.67730445
0.67444919
0.67232536
0.67102059
0.67014211
0.66944231
0.66880883
0.66815314
0.66740969
0.6665655
0.66565229
0.66473672
0.66389408
0.66318575
0.66265245
0.66232982
0.66228614
0.66265819
0.66354962
0.66481836
0.66603451
0.66679433
0.66714498
0.66736781
0.66761665
0.66791811
0.66824616
0.66857443
0.66889308
0.66920195
0.66950154
0.66979028
0.67006552
0.67032456
0.67056496
0.67078441
0.67098053
0.67115076
0.67129236
0.67140258
0.67147871
0.67151817
0.67151848
0.67147738
0.6713928
0.67126293
0.67108631
0.67086181
0.67058874
0.67026684
0.66989632
0.66947792
0.66901287
0.66850296
0.66795043
0.667358
0.66672884
0.66606645
0.66537468
0.66465764
0.66391959
0.66316494
0.66239809
0.66162345
0.66084529
0.66006773
0.65929468
0.65852975
0.65777624
0.65703717
0.65631519
0.65561268
0.65493158
0.65427347
0.65363971
0.66345985
0.66649651
0.66572092
0.66555191
0.66544684
0.6653341
0.66524361
0.66517942
0.66513665
0.66510946
0.66509288
0.66508313
0.66507756
0.66507452
0.66507439
0.6650893
0.6651778
0.66549212
0.66648983
0.66864075
0.67277519
0.67697533
0.67748024
0.67460266
0.67248036
0.67118959
0.67032584
0.66963734
0.66900847
0.66834911
0.66759496
0.66673899
0.6658172
0.66489906
0.6640613
0.66336247
0.66283993
0.66252471
0.66248122
0.66284145
0.66370686
0.66494903
0.6661637
0.66695208
0.66733332
0.66757722
0.66784186
0.66815849
0.66850315
0.66884959
0.66918748
0.66951637
0.66983673
0.67014709
0.67044485
0.67072739
0.67099232
0.67123742
0.67146042
0.67165882
0.67182999
0.67197127
0.67208004
0.67215381
0.6721902
0.67218702
0.6721423
0.67205431
0.67192165
0.67174326
0.67151849
0.6712471
0.67092935
0.67056598
0.67015821
0.66970778
0.66921688
0.66868812
0.66812456
0.66752956
0.66690679
0.66626015
0.6655937
0.66491158
0.66421797
0.663517
0.66281266
0.6621088
0.66140906
0.66071677
0.660035
0.65936652
0.65871375
0.65807891
0.6574637
0.65686961
0.66346037
0.66649759
0.66572058
0.66555212
0.66544686
0.66533397
0.66524345
0.66517927
0.66513653
0.66510937
0.66509282
0.66508309
0.66507753
0.66507452
0.66507451
0.66509001
0.6651806
0.66550122
0.66651773
0.66870941
0.67290819
0.67716659
0.67764664
0.67474763
0.67262889
0.67135377
0.67050575
0.66982807
0.66920403
0.66854248
0.66778211
0.66691706
0.66598551
0.66506022
0.66422159
0.66353013
0.66301897
0.66271318
0.66267255
0.66302378
0.66386571
0.66508239
0.66629346
0.667107
0.66751749
0.66778239
0.66806289
0.66839454
0.66875545
0.6691196
0.66947624
0.66982466
0.67016528
0.67049669
0.67081638
0.67112177
0.67141056
0.67168061
0.67192973
0.6721555
0.67235538
0.67252679
0.67266721
0.67277422
0.67284554
0.67287904
0.67287284
0.67282528
0.67273502
0.67260107
0.67242279
0.67220001
0.671933
0.6716225
0.67126971
0.67087634
0.6704445
0.66997672
0.66947593
0.66894533
0.66838844
0.66780896
0.66721073
0.66659768
0.66597372
0.66534274
0.66470848
0.66407452
0.66344424
0.66282073
0.66220681
0.66160503
0.66101764
0.66044667
0.65989364
0.66346116
0.66649893
0.66572015
0.66555235
0.66544686
0.6653338
0.66524325
0.66517909
0.66513638
0.66510926
0.66509275
0.66508304
0.6650775
0.66507451
0.66507465
0.66509084
0.66518378
0.66551146
0.66654851
0.66878458
0.67304988
0.67736505
0.67780426
0.67488397
0.67277033
0.67151188
0.67067953
0.67001324
0.66939411
0.66873008
0.66796255
0.66708796
0.66614847
0.66522108
0.66438707
0.66370323
0.66319726
0.66289564
0.66285757
0.66320313
0.6640252
0.66521812
0.66642392
0.66725931
0.66769752
0.66798326
0.66827964
0.66862615
0.66900294
0.66938432
0.66975923
0.67012669
0.67048705
0.67083896
0.67117999
0.67150763
0.67181963
0.67211394
0.67238843
0.67264078
0.67286853
0.67306916
0.67324024
0.67337943
0.67348452
0.67355348
0.67358447
0.67357591
0.67352652
0.67343534
0.6733018
0.67312574
0.67290746
0.67264769
0.67234763
0.67200892
0.6716336
0.67122412
0.67078327
0.67031413
0.66982003
0.66930448
0.66877113
0.66822368
0.66766582
0.66710117
0.66653325
0.66596538
0.66540072
0.6648421
0.66429213
0.66375317
0.66322728
0.66271635
0.6634622
0.66650055
0.66571963
0.6655526
0.66544686
0.6653336
0.66524302
0.66517888
0.66513621
0.66510913
0.66509266
0.66508299
0.66507747
0.66507451
0.66507481
0.66509178
0.66518735
0.66552289
0.66658223
0.66886639
0.67320028
0.67756964
0.67795215
0.67501144
0.67290499
0.67166461
0.6708485
0.67019355
0.66957855
0.66891102
0.66813519
0.66725062
0.66630327
0.66537424
0.66454611
0.66387338
0.66338043
0.66308732
0.66304829
0.66338108
0.66418246
0.66535341
0.66655395
0.66740877
0.66787315
0.66817935
0.66849158
0.66885287
0.66924526
0.66964346
0.67003621
0.67042224
0.67080187
0.67117376
0.67153558
0.67188487
0.67221945
0.67253734
0.67283649
0.67311465
0.67336941
0.67359835
0.67379911
0.67396941
0.67410713
0.67421031
0.67427717
0.67430618
0.67429611
0.67424605
0.67415548
0.67402427
0.67385271
0.67364156
0.67339197
0.67310552
0.67278421
0.67243035
0.67204663
0.67163599
0.67120158
0.67074675
0.67027493
0.66978962
0.66929427
0.6687923
0.66828696
0.66778138
0.66727845
0.66678082
0.66629088
0.6658108
0.66534249
0.66346349
0.66650244
0.66571903
0.66555287
0.66544686
0.66533337
0.66524274
0.66517863
0.665136
0.66510898
0.66509256
0.66508292
0.66507743
0.6650745
0.66507499
0.66509282
0.66519131
0.66553553
0.66661898
0.66895493
0.67335948
0.67778036
0.67809048
0.67513035
0.67303315
0.67181199
0.67101243
0.67036861
0.66975728
0.66908575
0.66830089
0.6674053
0.66644952
0.66551907
0.66469786
0.66403762
0.66355835
0.66327611
0.6632432
0.6635713
0.66435
0.66549175
0.66668267
0.66755414
0.66804404
0.66837067
0.6686986
0.66907446
0.66948214
0.66989681
0.67030701
0.67071122
0.67110966
0.67150105
0.67188313
0.6722535
0.67261004
0.67295084
0.67327393
0.67357711
0.67385806
0.67411439
0.67434383
0.67454419
0.67471341
0.67484957
0.67495097
0.67501613
0.67504385
0.67503328
0.67498392
0.67489569
0.67476889
0.67460424
0.67440288
0.67416633
0.67389649
0.6735956
0.67326622
0.67291114
0.67253335
0.67213603
0.67172241
0.67129579
0.67085941
0.67041646
0.66996998
0.66952288
0.66907784
0.6686373
0.66820346
0.66777834
0.66736368
0.66346504
0.66650457
0.66571834
0.66555316
0.66544684
0.66533311
0.66524243
0.66517835
0.66513578
0.66510881
0.66509244
0.66508284
0.66507738
0.6650745
0.66507519
0.66509396
0.66519567
0.66554942
0.66665886
0.66905032
0.67352748
0.67799682
0.67821893
0.67524063
0.67315492
0.67195422
0.67117151
0.6705387
0.66993059
0.66925433
0.6684595
0.66755184
0.66658737
0.66565627
0.66484283
0.66419567
0.66373053
0.66346046
0.66343533
0.66376133
0.66452469
0.6656449
0.66682128
0.66769869
0.6682095
0.66855688
0.66890131
0.66929152
0.66971388
0.67014449
0.67057173
0.67099371
0.67141051
0.67182089
0.67222268
0.67261354
0.67299143
0.67335449
0.6737008
0.67402822
0.67433449
0.67461731
0.67487446
0.67510381
0.67530337
0.6754713
0.67560592
0.6757058
0.6757698
0.6757971
0.67578724
0.67574014
0.67565613
0.6755359
0.67538055
0.67519154
0.67497069
0.67472014
0.67444232
0.67413989
0.67381568
0.67347269
0.67311397
0.67274263
0.6723617
0.67197416
0.67158286
0.67119048
0.67079952
0.67041221
0.67003061
0.66965657
0.66346683
0.66650693
0.66571757
0.66555347
0.66544683
0.66533282
0.66524209
0.66517803
0.66513552
0.66510863
0.66509231
0.66508276
0.66507733
0.66507449
0.6650754
0.66509521
0.66520044
0.6655646
0.66670194
0.66915265
0.67370428
0.67821855
0.67833741
0.67534245
0.67327062
0.67209153
0.67132584
0.67070387
0.67009847
0.66941661
0.66861076
0.66769013
0.66671687
0.66578579
0.66498113
0.66434788
0.66389751
0.66364016
0.66362353
0.66394913
0.66469934
0.66580057
0.66696848
0.66785544
0.66837917
0.66873693
0.66909622
0.66950244
0.66994034
0.67038678
0.67083063
0.67126988
0.67170449
0.67213339
0.67255433
0.67296508
0.67336368
0.67374833
0.67411713
0.674468
0.67479875
0.67510713
0.675391
0.6756483
0.67587708
0.67607554
0.67624207
0.67637527
0.67647405
0.67653762
0.67656555
0.67655778
0.67651462
0.67643675
0.67632522
0.67618142
0.6760071
0.67580428
0.67557528
0.67532261
0.67504897
0.67475718
0.67445012
0.67413068
0.67380174
0.67346607
0.67312629
0.67278495
0.67244431
0.67210646
0.6717733
0.66346885
0.6665095
0.66571672
0.66555379
0.6654468
0.6653325
0.66524171
0.66517769
0.66513525
0.66510842
0.66509217
0.66508267
0.66507728
0.66507449
0.66507564
0.66509657
0.66520561
0.6655811
0.66674833
0.66926202
0.67388981
0.67844495
0.6784458
0.67543594
0.67338049
0.67222416
0.67147556
0.67086417
0.67026079
0.66957227
0.66875416
0.66781986
0.666838
0.66590779
0.66511301
0.66449446
0.66405937
0.66381532
0.6638081
0.66413445
0.66487287
0.66595673
0.66711596
0.66801199
0.66855554
0.6689277
0.66929231
0.66970765
0.67016125
0.67062385
0.67108384
0.67153965
0.67199148
0.67243856
0.67287808
0.67330814
0.67372685
0.67413239
0.67452294
0.67489647
0.67525084
0.67558388
0.6758935
0.67617769
0.67643457
0.67666236
0.6768595
0.67702463
0.67715671
0.67725498
0.67731902
0.67734879
0.67734458
0.67730704
0.67723715
0.67713627
0.67700603
0.67684838
0.67666549
0.67645977
0.67623373
0.67599005
0.67573144
0.67546062
0.67518026
0.67489297
0.67460118
0.67430725
0.67401328
0.6737212
0.66347109
0.66651227
0.66571581
0.66555415
0.66544677
0.66533216
0.6652413
0.66517732
0.66513495
0.6651082
0.66509202
0.66508257
0.66507722
0.66507448
0.66507589
0.66509803
0.6652112
0.66559896
0.66679811
0.66937853
0.67408398
0.6786753
0.67854405
0.67552127
0.67348483
0.67235237
0.67162081
0.67101952
0.67041723
0.66972082
0.66888922
0.66794077
0.66695075
0.66602247
0.66523868
0.6646356
0.66421626
0.66398603
0.66398892
0.66431703
0.66504522
0.66611296
0.66726313
0.66816681
0.66872843
0.66911804
0.66949681
0.66991633
0.67037442
0.67085173
0.67132912
0.6718021
0.67227112
0.67273619
0.67319385
0.67364271
0.6740809
0.67450665
0.67491821
0.67531361
0.67569076
0.67604756
0.67638197
0.67669204
0.67697589
0.67723182
0.67745829
0.677654
0.67781792
0.67794934
0.67804785