/*--------------------------------*- C++ -*----------------------------------*\
| =========                 |                                                 |
| \\      /  F ield         | OpenFOAM: The Open Source CFD Toolbox           |
|  \\    /   O peration     | Version:  2506                                  |
|   \\  /    A nd           | Website:  www.openfoam.com                      |
|    \\/     M anipulation  |                                                 |
\*---------------------------------------------------------------------------*/
FoamFile
{
    version     2.0;
    format      ascii;
    arch        "LSB;label=32;scalar=64";
    class       volVectorField;
    location    "0.00031";
    object      U;
}
// * * * * * * * * * * * * * * * * * * * * * * * * * * * * * * * * * * * * * //

dimensions      [0 1 -1 0 0 0 0];

internalField   nonuniform List<vector> 
3424
(
(74.730909 -28.107443 -3.2489702e-20)
(94.969975 -37.436222 -4.573383e-25)
(96.15744 -38.604248 0)
(96.216468 -38.678117 -7.7339698e-25)
(74.811728 -28.367322 0)
(95.032435 -37.77042 4.6129799e-25)
(96.21053 -38.93725 0)
(96.271441 -38.999048 7.7800401e-25)
(96.27143 -38.749125 -2.3426936e-20)
(96.244585 -38.556208 2.151385e-20)
(75.072943 -28.183697 3.2820438e-20)
(95.269936 -37.490521 0)
(96.444698 -38.66317 0)
(96.500353 -38.743246 0)
(96.498746 -38.537342 0)
(96.472044 -38.329876 6.6169937e-25)
(96.443108 -37.992301 0)
(96.404498 -37.640613 -1.8437964e-20)
(75.172183 -28.128332 5.0485647e-25)
(95.450924 -37.443709 3.0485471e-20)
(96.63246 -38.595855 -2.7979186e-20)
(96.696105 -38.648057 0)
(96.695139 -38.358944 -2.3681863e-20)
(96.666811 -38.137029 2.1763467e-20)
(96.639228 -37.763099 -2.0062152e-20)
(96.600551 -37.405147 1.8505662e-20)
(96.570076 -36.870421 -1.0427788e-24)
(96.533405 -36.280257 1.5789705e-20)
(96.501782 -35.507601 -2.9143581e-20)
(96.463394 -34.619238 1.3447799e-20)
(96.426794 -33.519276 0)
(96.385146 -32.344293 0)
(75.213291 -28.117692 3.3258714e-20)
(95.446984 -37.410482 -6.1277866e-20)
(96.622492 -38.561782 5.6244178e-20)
(96.684596 -38.616742 -2.5875092e-20)
(96.682344 -38.339856 2.3804391e-20)
(96.653836 -38.126943 -2.187994e-20)
(96.625663 -37.777935 -2.0170679e-20)
(96.587679 -37.45102 1.8603717e-20)
(96.557374 -36.958469 1.7181397e-20)
(96.520934 -36.401689 -3.1735948e-20)
(96.488434 -35.652636 2.9294992e-20)
(96.44897 -34.767677 -2.7040807e-20)
(96.410719 -33.667448 1.2480108e-20)
(96.367648 -32.494905 1.1532289e-20)
(75.275864 -27.793068 3.3417848e-20)
(95.63774 -37.031372 3.0784567e-20)
(96.82953 -38.175593 -2.8260427e-20)
(96.893976 -38.225348 0)
(96.890114 -37.930473 1.460538e-24)
(96.859412 -37.712759 -6.7162627e-25)
(96.829027 -37.363982 6.1876213e-25)
(96.789534 -37.047977 -1.87115e-20)
(96.757191 -36.548796 1.7269645e-20)
(96.718343 -35.968667 -1.5957791e-20)
(96.683131 -35.192737 1.4722863e-20)
(96.641442 -34.304945 1.3595729e-20)
(96.601084 -33.217435 -2.510215e-20)
(96.556976 -32.096997 -5.7036295e-24)
(96.510708 -30.69279 1.0695216e-20)
(75.230537 -27.455125 5.1254245e-25)
(95.690101 -36.640194 0)
(96.896464 -37.793623 0)
(96.959796 -37.85207 -2.6152776e-20)
(96.955118 -37.583009 2.4064556e-20)
(96.92278 -37.363048 2.2131097e-20)
(96.889649 -37.005841 -2.039456e-20)
(96.848427 -36.674002 -1.8817384e-20)
(96.815258 -36.206915 3.473508e-20)
(96.776688 -35.6769 -3.2080781e-20)
(96.740919 -34.936376 1.4802437e-20)
(96.698377 -34.062132 8.3381855e-25)
(96.657526 -33.020158 1.5405245e-24)
(96.612453 -31.913843 -2.8442907e-24)
(96.562611 -30.466719 0)
(96.496454 -28.535558 0)
(75.292032 -27.144411 -5.1435225e-25)
(95.792458 -36.237498 0)
(97.008808 -37.384408 0)
(97.072133 -37.446948 8.025788e-25)
(97.067872 -37.211547 -2.4209047e-20)
(97.034819 -37.036868 4.4532119e-20)
(97.00159 -36.730545 -4.1041515e-20)
(96.960167 -36.440458 1.8924306e-20)
(96.926867 -36.013795 -1.7468383e-20)
(96.886774 -35.489088 3.2258201e-20)
(96.848728 -34.738313 -1.4881523e-20)
(96.802945 -33.831698 -1.374031e-20)
(96.760104 -32.805257 1.2677562e-20)
(96.711024 -31.658171 1.4293093e-24)
(96.655384 -30.118887 0)
(96.586796 -28.221929 0)
(96.511597 -25.936031 0)
(96.425316 -23.335367 -2.0759713e-24)
(96.333354 -20.430323 0)
(96.229149 -17.177397 0)
(96.109278 -13.314027 -6.6842145e-21)
(95.958005 -8.645248 6.1559009e-21)
(75.5383 -27.199899 3.3843918e-20)
(95.975426 -36.259708 0)
(97.18007 -37.399087 0)
(97.242938 -37.459096 -1.6123915e-24)
(97.237632 -37.206625 -2.4338902e-20)
(97.203182 -37.005846 -3.4879388e-24)
(97.168009 -36.65647 2.0640379e-20)
(97.124752 -36.312906 0)
(97.088327 -35.807792 0)
(97.044912 -35.203698 0)
(97.004143 -34.410689 -1.4972172e-20)
(96.956618 -33.500742 2.7629259e-20)
(96.911286 -32.454142 -2.5508601e-20)
(96.859952 -31.301967 2.3553328e-20)
(96.804666 -29.856521 -1.0869874e-20)
(96.738189 -28.100435 -1.0040618e-20)
(96.663288 -25.930884 9.2598502e-21)
(96.576535 -23.433558 2.0863088e-24)
(96.487035 -20.622519 0)
(96.378818 -17.403954 -7.283188e-21)
(96.257007 -13.476751 6.7124154e-21)
(96.099878 -8.6459302 6.1993234e-21)
(75.639528 -27.140647 0)
(96.08594 -36.183113 0)
(97.288298 -37.329021 -2.8794373e-20)
(97.348842 -37.395611 2.6538193e-20)
(97.3419 -37.143255 2.4470868e-20)
(97.306137 -36.921312 -2.252331e-20)
(97.268252 -36.527315 -2.0769176e-20)
(97.222237 -36.102996 3.830658e-20)
(97.182973 -35.536827 -1.7672714e-20)
(97.13805 -34.889429 0)
(97.095186 -34.05144 -1.8380318e-24)
(97.045626 -33.105083 -1.3898318e-20)
(96.99921 -32.053118 1.2826147e-20)
(96.9478 -30.921166 -1.1846535e-20)
(96.893914 -29.539864 -6.3649935e-24)
(96.826982 -27.848896 -8.3285559e-24)
(96.751468 -25.757339 1.8624354e-20)
(96.664697 -23.364746 -1.7185048e-20)
(96.571306 -20.66277 7.9275409e-21)
(96.464723 -17.522391 7.3213798e-21)
(96.333656 -13.60903 -6.747416e-21)
(96.173275 -8.7164469 0)
(95.984888 -2.9024463 -5.7383634e-21)
(95.805362 2.8739649 5.2914259e-21)
(95.609252 7.9026473 -4.8766618e-21)
(75.570355 -26.793214 5.2056053e-25)
(96.144838 -35.792253 0)
(97.363012 -36.935949 0)
(97.425163 -36.999723 0)
(97.416105 -36.720685 -1.5020172e-24)
(97.377146 -36.448564 6.9180263e-25)
(97.337853 -36.047981 -6.3786674e-25)
(97.294613 -35.727278 1.1765578e-24)
(97.261015 -35.356306 1.0856483e-24)
(97.22087 -34.873432 -1.6420073e-20)
(97.179562 -34.116475 1.5142875e-20)
(97.131821 -33.222013 0)
(97.087195 -32.25701 -1.290471e-20)
(97.038634 -31.217649 1.1905145e-20)
(96.980401 -29.763011 1.0998762e-20)
(96.906899 -27.9102 -1.0141974e-20)
(96.825015 -25.712431 9.0441315e-28)
(96.732993 -23.30571 0)
(96.636484 -20.643152 7.9798057e-21)
(96.524643 -17.604221 -7.3566085e-21)
(96.39343 -13.781161 -3.3145164e-24)
(96.220491 -8.9582077 -3.05702e-24)
(96.029328 -3.2424227 0)
(95.830795 2.3739477 -2.5962665e-24)
(95.650725 7.2745622 4.9037378e-21)
(75.649114 -26.532028 -5.2225627e-25)
(96.282614 -35.4691 0)
(97.509171 -36.618168 -4.4272026e-25)
(97.570182 -36.690073 0)
(97.560947 -36.439553 1.510597e-24)
(97.521384 -36.181882 -6.9577407e-25)
(97.482207 -35.811279 1.2834399e-24)
(97.43913 -35.496904 -1.1833526e-24)
(97.40505 -35.130185 -1.789434e-20)
(97.363457 -34.630243 3.3031606e-20)
(97.319872 -33.85795 -1.5231992e-20)
(97.269652 -32.966122 -1.4058419e-20)
(97.222127 -31.98712 1.2970428e-20)
(97.168494 -30.895441 0)
(97.106607 -29.446271 -1.3491147e-24)
(97.030656 -27.649983 -1.0207314e-20)
(96.945898 -25.498429 -1.1036171e-23)
(96.850095 -23.102205 -1.0311766e-23)
(96.748551 -20.462635 1.6030692e-20)
(96.633418 -17.502388 -7.394653e-21)
(96.4967 -13.817779 3.3312149e-24)
(96.329197 -9.1766583 -6.2895733e-21)
(96.127906 -3.6909211 5.800266e-21)
(95.933707 1.8147613 -5.3471059e-21)
(95.737434 6.7486949 4.9322489e-21)
(75.792325 -26.42788 -3.4379834e-20)
(96.429385 -35.322664 6.3357981e-20)
(97.654821 -36.473352 -2.9145574e-20)
(97.713375 -36.552529 8.2214091e-25)
(97.703397 -36.327932 2.4895028e-20)
(97.663251 -36.082246 -2.2940666e-20)
(97.623348 -35.731547 2.8429162e-28)
(97.580112 -35.42099 1.9508509e-20)
(97.545748 -35.069754 -1.7997124e-20)
(97.503521 -34.563031 0)
(97.458466 -33.77765 -3.2036355e-28)
(97.407555 -32.90732 1.4137781e-20)
(97.360442 -31.970337 -1.3041649e-20)
(97.304986 -30.868293 -1.2046496e-20)
(97.241289 -29.415355 2.2230997e-20)
(97.162278 -27.615912 -1.0255157e-20)
(97.073429 -25.413563 -9.4736545e-21)
(96.969756 -22.933966 1.7471185e-20)
(96.862753 -20.25224 -1.6119834e-20)
(96.742482 -17.324292 7.437626e-21)
(96.603303 -13.736033 -6.8613012e-21)
(96.427597 -9.2272965 6.3220368e-21)
(96.230169 -3.9165316 0)
(96.027268 1.4260953 0)
(95.831416 6.3009867 -9.6776751e-24)
(75.850213 -26.180974 -2.6620709e-28)
(96.546101 -35.01983 -3.1803604e-20)
(97.779569 -36.174489 2.9272314e-20)
(97.836956 -36.261283 -8.26005e-25)
(97.826118 -36.058559 7.6429116e-25)
(97.784476 -35.815545 7.0414871e-25)
(97.744087 -35.495507 3.0236714e-28)
(97.702262 -35.237502 -5.2280299e-28)
(97.670126 -34.970971 1.8105481e-20)
(97.630557 -34.554189 -1.6707121e-20)
(97.588712 -33.889745 9.4049608e-25)
(97.542146 -33.108896 0)
(97.495168 -32.223296 3.8775014e-28)
(97.440483 -31.123252 0)
(97.371458 -29.579748 1.3644148e-24)
(97.285533 -27.610899 -1.2597052e-24)
(97.183665 -25.243747 2.3238535e-24)
(97.074943 -22.645725 8.7882825e-21)
(96.958223 -19.904063 -8.1054767e-21)
(96.838588 -17.023344 0)
(96.697539 -13.615904 6.8994234e-21)
(96.530133 -9.4090528 -6.3605223e-21)
(96.334376 -4.4622662 0)
(96.135023 0.64763464 0)
(95.937598 5.595465 4.8651984e-24)
(75.95692 -26.025859 -2.4552412e-28)
(96.675518 -34.815129 0)
(97.911306 -35.965438 0)
(97.968219 -36.054091 8.3089341e-25)
(97.95609 -35.857516 3.4826523e-28)
(97.912973 -35.618379 -2.3220391e-20)
(97.872534 -35.329515 2.1408948e-20)
(97.831779 -35.110829 2.4099559e-24)
(97.799658 -34.865768 -1.8212117e-20)
(97.760036 -34.46977 1.6804731e-20)
(97.719525 -33.88111 0)
(97.674328 -33.205258 -1.4300733e-20)
(97.630904 -32.417791 1.3190946e-20)
(97.574754 -31.357946 0)
(97.502724 -29.777227 1.1248942e-20)
(97.408224 -27.686456 -1.0369705e-20)
(97.300484 -25.176258 0)
(97.18114 -22.495931 8.8382136e-21)
(97.063989 -19.749323 7.5824719e-24)
(96.938687 -16.914992 -7.5200087e-21)
(96.7994 -13.585524 0)
(96.624605 -9.4714988 -6.4018777e-21)
(96.43438 -4.6403543 5.8983792e-21)
(96.216386 0.3965851 -2.6559856e-24)
(96.018787 5.3467439 0)
(76.11649 -25.907684 5.3107365e-25)
(96.842464 -34.649984 -6.4173381e-20)
(98.077551 -35.799892 5.9113598e-20)
(98.132918 -35.892938 -5.4747821e-20)
(98.118971 -35.708692 1.0135403e-19)
(98.074519 -35.471615 -4.6719529e-20)
(98.032959 -35.193758 -4.3084449e-20)
(97.991951 -34.980677 3.9719491e-20)
(97.959078 -34.74695 -3.6643486e-20)
(97.918568 -34.351177 3.3807722e-20)
(97.87647 -33.766627 3.1187116e-20)
(97.830028 -33.101229 -2.8754497e-20)
(97.783455 -32.321689 -1.6203562e-24)
(97.72388 -31.248197 1.4955853e-24)
(97.646572 -29.660446 -2.7604331e-24)
(97.547411 -27.571858 0)
(97.433559 -25.06744 -1.9270786e-20)
(97.310746 -22.390718 1.7759116e-20)
(97.186953 -19.647976 0)
(97.057609 -16.819888 0)
(96.910538 -13.516382 0)
(96.731223 -9.4720661 -3.1432543e-24)
(96.525958 -4.7485271 -1.1871193e-20)
(96.315881 0.22761556 2.1878906e-20)
(96.090521 5.2008213 -1.008117e-20)
(76.298926 -25.739815 -6.9957945e-20)
(97.077479 -34.434672 -6.4484807e-20)
(98.317494 -35.58464 1.1883948e-19)
(98.371929 -35.682003 -1.1011215e-19)
(98.357032 -35.511468 -3.9647921e-24)
(98.311506 -35.28141 9.4010509e-20)
(98.269908 -35.023114 -8.6680505e-20)
(98.229604 -34.829574 3.9956574e-20)
(98.197097 -34.614769 -3.6858949e-20)
(98.156309 -34.222981 3.4006268e-20)
(98.113839 -33.652146 0)
(98.067652 -33.014142 2.8932607e-20)
(98.021444 -32.2726 -2.6689713e-20)
(97.960728 -31.206907 6.0182633e-28)
(97.880468 -29.603575 -2.2753714e-20)
(97.77692 -27.479809 2.0982311e-20)
(97.657908 -24.937946 2.3640127e-24)
(97.530315 -22.233457 0)
(97.402302 -19.473525 -2.013893e-24)
(97.268875 -16.632311 1.5224649e-20)
(97.117761 -13.334515 -1.4030374e-20)
(96.934683 -9.340688 -1.3915611e-27)
(96.726404 -4.7055255 -2.9151381e-24)
(96.500561 0.24342813 0)
(96.273163 5.2124938 0)
(76.376962 -25.612355 7.0386106e-20)
(97.182814 -34.272701 -6.487783e-20)
(98.425934 -35.420015 -5.9790066e-20)
(98.481114 -35.516622 1.108181e-19)
(98.465079 -35.344837 4.7386031e-24)
(98.418051 -35.113076 -9.4583559e-20)
(98.376111 -34.853388 8.7196932e-20)
(98.336002 -34.664564 4.604264e-24)
(98.303358 -34.446104 -7.4143013e-20)
(98.261895 -34.044604 3.4201827e-20)
(98.218696 -33.469826 -9.6282578e-25)
(98.171889 -32.832675 -2.9099563e-20)
(98.125567 -32.107046 5.3699812e-20)
(98.063887 -31.053393 1.4830122e-23)
(97.981727 -29.456396 2.0258326e-23)
(97.875544 -27.338382 -2.1104159e-20)
(97.754372 -24.819624 0)
(97.623464 -22.157359 -1.7983045e-20)
(97.492788 -19.418246 3.318118e-20)
(97.351903 -16.530631 -1.5299396e-20)
(97.19106 -13.122687 1.4125194e-20)
(96.994993 -9.0090036 -1.3013263e-20)
(96.774567 -4.280154 2.9309408e-24)
(96.532694 0.73867051 1.1068007e-20)
(96.317626 5.610614 -1.020479e-20)
(76.562023 -25.63289 -7.8143279e-25)
(97.325636 -34.268739 -1.2878904e-24)
(98.560892 -35.413567 6.0173174e-20)
(98.6148 -35.511057 -8.5074127e-25)
(98.596805 -35.344189 -7.8762168e-25)
(98.549087 -35.119905 4.758615e-20)
(98.506754 -34.870681 -4.3861142e-20)
(98.466927 -34.688411 4.0434603e-20)
(98.434166 -34.479639 -3.7285243e-20)
(98.392525 -34.082195 0)
(98.348518 -33.507691 -3.1731424e-20)
(98.300472 -32.856659 2.9255629e-20)
(98.251671 -32.101402 2.7010894e-20)
(98.187694 -31.026753 -4.9850195e-20)
(98.101913 -29.43307 2.2996725e-20)
(97.993404 -27.340698 1.295751e-24)
(97.867831 -24.847208 -1.9604003e-20)
(97.737795 -22.194937 1.8067023e-20)
(97.601593 -19.445204 2.0374696e-24)
(97.460554 -16.543492 1.5405264e-20)
(97.296313 -13.145893 1.3022076e-23)
(97.101428 -9.0855058 -1.309338e-20)
(96.882919 -4.4155769 0)
(96.650288 0.58590786 1.113391e-20)
(96.385376 5.5175277 3.507374e-24)
(76.721649 -25.557774 5.4256423e-25)
(97.466452 -34.152824 0)
(98.697583 -35.301679 -6.0485218e-20)
(98.748507 -35.407946 1.1216862e-19)
(98.729266 -35.269754 -5.1942114e-20)
(98.681529 -35.056997 -7.3076618e-25)
(98.639672 -34.838378 6.7332412e-25)
(98.601268 -34.679025 1.2418598e-24)
(98.569837 -34.5085 4.4257985e-28)
(98.529375 -34.135049 0)
(98.485752 -33.591292 9.7394796e-25)
(98.438245 -32.973896 3.5934516e-24)
(98.389763 -32.245802 0)
(98.323948 -31.157361 -2.508318e-20)
(98.237363 -29.539614 2.3133867e-20)
(98.124373 -27.404867 0)
(97.994601 -24.856817 0)
(97.854448 -22.132849 2.219533e-24)
(97.71217 -19.352611 1.67912e-20)
(97.565278 -16.502666 -1.5482096e-20)
(97.40337 -13.282102 -3.488586e-24)
(97.221235 -9.5017234 0)
(97.007934 -5.1215329 0)
(96.780438 -0.22405781 -2.7350208e-24)
(96.528767 4.8963655 0)
(76.852595 -25.373175 0)
(97.618148 -33.911318 0)
(98.851416 -35.067328 0)
(98.899589 -35.185851 -4.0624164e-28)
(98.87986 -35.09519 0)
(98.8327 -34.90958 7.3492713e-25)
(98.792493 -34.751717 0)
(98.756777 -34.653021 -1.2490748e-24)
(98.72806 -34.5653 -1.1518957e-24)
(98.689904 -34.26128 -3.4835885e-20)
(98.648875 -33.799647 3.2111355e-20)
(98.60434 -33.246796 -1.8075045e-24)
(98.556924 -32.57577 0)
(98.490183 -31.486799 0)
(98.396755 -29.797332 -1.4214258e-24)
(98.275294 -27.533799 -1.3119182e-24)
(98.133981 -24.840678 -2.4211772e-24)
(97.980215 -21.962165 0)
(97.82729 -19.075736 0)
(97.674544 -16.251459 0)
(97.51835 -13.276739 1.4380654e-20)
(97.340869 -9.90883 -2.6513757e-20)
(97.145516 -5.9241495 1.2219116e-20)
(96.899595 -1.0809483 2.7503954e-24)
(96.634227 4.3300154 0)
(77.112658 -25.349416 7.1915151e-20)
(97.896053 -33.863983 -1.3264006e-19)
(99.128128 -35.015041 6.1196356e-20)
(99.176642 -35.130989 1.732752e-24)
(99.156799 -35.034849 0)
(99.110398 -34.855489 4.8472502e-20)
(99.072366 -34.702048 -8.9353701e-20)
(99.03835 -34.608359 4.1180331e-20)
(99.011515 -34.520605 0)
(98.974544 -34.222925 3.5040414e-20)
(98.934649 -33.775916 -3.2300178e-20)
(98.889585 -33.220669 0)
(98.840732 -32.52724 2.7500242e-20)
(98.771014 -31.42825 -2.5367025e-20)
(98.674014 -29.735689 -2.343108e-20)
(98.547559 -27.474136 2.1605408e-20)
(98.402056 -24.789136 -1.9956749e-20)
(98.245914 -21.921161 -2.0134072e-23)
(98.091313 -19.030406 1.6979712e-20)
(97.936295 -16.185371 1.5683218e-20)
(97.774694 -13.18621 -2.8917617e-20)
(97.59334 -9.8003328 1.3337712e-20)
(97.38137 -5.764059 -1.2302021e-20)
(97.127007 -0.86169297 2.2672596e-20)
(96.846214 4.5291632 -2.0893076e-20)
(77.261037 -25.367823 0)
(97.975934 -33.852137 0)
(99.197684 -35.00265 -4.6945299e-25)
(99.243898 -35.122986 -8.7126293e-25)
(99.220841 -35.046844 0)
(99.174364 -34.885973 -4.8761564e-20)
(99.136142 -34.771175 4.4944316e-20)
(99.102902 -34.695639 -4.1428142e-20)
(99.074205 -34.605432 3.8201504e-20)
(99.036487 -34.29215 3.5251455e-20)
(98.994462 -33.844748 -3.2497423e-20)
(98.948223 -33.287185 1.8299282e-24)
(98.894889 -32.560638 -2.7667653e-20)
(98.820427 -31.411636 2.5521304e-20)
(98.717838 -29.706444 -2.358148e-20)
(98.587677 -27.448427 2.1740243e-20)
(98.435753 -24.762947 0)
(98.274559 -21.886096 0)
(98.111591 -18.974337 0)
(97.950425 -16.099537 -1.5778352e-20)
(97.783468 -13.119574 1.4538852e-20)
(97.601183 -9.8321585 1.3423845e-20)
(97.387417 -5.8985762 -1.2370163e-20)
(97.123969 -0.9855038 -1.1409225e-20)
(96.83335 4.4752998 2.1023398e-20)
(96.429431 12.254151 -9.6949367e-21)
(77.49596 -25.291363 7.2736217e-20)
(98.230328 -33.73509 0)
(99.451367 -34.868147 -6.1933409e-20)
(99.500268 -34.975528 5.7462578e-20)
(99.474842 -34.864177 5.3228337e-20)
(99.427814 -34.715086 -9.8114117e-20)
(99.390686 -34.604623 9.0431834e-20)
(99.357363 -34.530322 -8.3357793e-20)
(99.326215 -34.395519 3.8435447e-20)
(99.283876 -34.05927 3.5466821e-20)
(99.239975 -33.597492 -3.2697766e-20)
(99.186927 -32.995333 -1.8403166e-24)
(99.126475 -32.184838 -1.6983444e-24)
(99.04419 -31.001391 -2.5700573e-20)
(98.937208 -29.308133 2.3704154e-20)
(98.802379 -27.111496 -2.1898803e-20)
(98.65041 -24.53185 2.0184252e-20)
(98.48584 -21.782989 0)
(98.318774 -18.909374 1.7207423e-20)
(98.141873 -15.959844 -1.5865656e-20)
(97.957348 -12.8444 1.4647916e-20)
(97.758835 -9.4738814 -1.3500336e-20)
(97.524777 -5.5129964 -1.2452275e-20)
(97.239229 -0.6331288 1.1475498e-20)
(96.915621 4.656943 0)
(96.581268 12.410946 4.7593244e-24)
(77.896894 -25.577889 0)
(98.431282 -34.003925 0)
(99.623691 -35.146501 0)
(99.667343 -35.266782 5.7832015e-20)
(99.643791 -35.226548 -1.0711776e-19)
(99.599179 -35.105067 4.9358168e-20)
(99.561098 -34.970516 6.9411885e-25)
(99.52133 -34.753977 -4.1937053e-20)
(99.481407 -34.441222 -1.0031969e-23)
(99.429109 -33.882852 -1.1666458e-23)
(99.372469 -33.204838 3.2898696e-20)
(99.314953 -32.493451 1.852629e-24)
(99.24829 -31.580735 -2.8016533e-20)
(99.159215 -30.252694 2.584546e-20)
(99.054888 -28.615661 -1.4566764e-24)
(98.936539 -26.718184 0)
(98.804317 -24.529612 0)
(98.657972 -22.024358 -1.8759216e-20)
(98.493545 -19.19742 -1.7820903e-23)
(98.315474 -16.085625 -1.558566e-23)
(98.124047 -12.745748 -1.3017362e-23)
(97.913248 -9.1476667 1.3581786e-20)
(97.680391 -5.0371472 -3.0583876e-24)
(97.393296 -0.041930526 -1.1552706e-20)
(97.109694 5.0617206 2.129429e-20)
(96.707284 12.692676 -9.8177141e-21)
(78.110678 -25.614238 7.3598451e-20)
(98.479372 -33.969746 -1.0369132e-24)
(99.653914 -35.118558 -1.4460881e-24)
(99.691336 -35.256649 -5.8201261e-20)
(99.668731 -35.263561 0)
(99.615942 -35.12615 7.5777069e-25)
(99.579894 -34.978199 -4.578436e-20)
(99.532414 -34.709833 4.2193671e-20)
(99.492567 -34.373663 -3.8917457e-20)
(99.438226 -33.846979 -9.7593197e-24)
(99.386746 -33.223404 3.3102724e-20)
(99.327828 -32.531936 3.0539724e-20)
(99.265432 -31.66199 -2.8173583e-20)
(99.179155 -30.423166 -1.5873027e-24)
(99.079635 -28.849785 -2.4020153e-20)
(98.953888 -26.87475 2.2147715e-20)
(98.816793 -24.623505 0)
(98.66081 -22.090087 0)
(98.493119 -19.30049 -1.7423344e-20)
(98.304912 -16.202242 1.6064379e-20)
(98.108633 -12.887345 0)
(97.895302 -9.2952533 0)
(97.658666 -5.1888867 3.0792022e-24)
(97.369162 -0.16384246 1.162362e-20)
(97.081488 4.9707569 -2.1425558e-20)
(96.651559 12.834404 9.8810186e-21)
(96.350887 17.853913 -9.0906097e-21)
(78.14999 -25.368682 5.6466858e-25)
(98.561501 -33.668104 5.2187975e-25)
(99.744651 -34.828041 0)
(99.778519 -34.988079 8.9238416e-25)
(99.7618 -35.006727 -5.4147897e-20)
(99.693799 -34.933058 9.9997254e-20)
(99.672486 -34.803409 -4.6078684e-20)
(99.61769 -34.613671 0)
(99.589385 -34.321824 0)
(99.530492 -33.868167 -3.6140074e-20)
(99.487974 -33.299605 3.3313368e-20)
(99.427005 -32.682644 1.8759254e-24)
(99.370373 -31.837545 0)
(99.27763 -30.593176 0)
(99.176373 -28.959685 1.4744013e-24)
(99.037863 -26.910866 1.3607849e-24)
(98.894429 -24.550188 -2.5124782e-24)
(98.719949 -21.903005 1.899419e-20)
(98.547085 -19.022041 -1.7515621e-20)
(98.347512 -15.962696 -1.9737029e-24)
(98.160739 -12.866199 0)
(97.954847 -9.6362289 0)
(97.744257 -5.8608185 -3.09768e-24)
(97.443979 -0.88153175 2.8558325e-24)
(97.150425 4.4925031 -5.2653771e-24)
(96.695936 12.931896 4.8542542e-24)
(96.378227 18.098757 -9.1498136e-21)
(78.295007 -25.343704 -7.4446047e-20)
(98.666522 -33.607107 6.8851056e-20)
(99.842738 -34.75332 0)
(99.878155 -34.902274 0)
(99.857473 -34.917428 -1.6649253e-24)
(99.79758 -34.845139 5.0328708e-20)
(99.775586 -34.775417 -4.6382776e-20)
(99.729023 -34.641751 1.3048408e-24)
(99.701622 -34.419137 -3.9422546e-20)
(99.648169 -34.000228 3.6363383e-20)
(99.604883 -33.466005 0)
(99.546693 -32.863688 3.0931549e-20)
(99.488023 -32.03854 -2.8534208e-20)
(99.394129 -30.772722 0)
(99.284816 -29.080942 -1.4843072e-24)
(99.144544 -26.990408 0)
(98.993166 -24.594369 2.5272746e-24)
(98.815579 -21.888087 1.9120125e-20)
(98.630394 -18.965559 -1.7625079e-20)
(98.435038 -15.98506 1.9873947e-24)
(98.257602 -13.123796 3.6659962e-24)
(98.070349 -10.208113 1.3856486e-20)
(97.857188 -6.6229449 -1.2767216e-20)
(97.553836 -1.6444522 2.8756668e-24)
(97.21147 4.0703774 5.3028181e-24)
(96.730584 13.003124 -4.8835987e-24)
(96.396034 18.32172 0)
(96.00883 24.981388 8.4762352e-21)
(78.518207 -25.436521 5.7074756e-25)
(98.77908 -33.670891 -5.2769545e-25)
(99.940017 -34.819161 0)
(99.971519 -34.979832 0)
(99.943258 -35.006635 5.4940035e-20)
(99.896217 -34.978563 -1.0130648e-19)
(99.870622 -34.957108 4.6683345e-20)
(99.835482 -34.897881 -1.3128043e-24)
(99.807294 -34.751732 -1.2106073e-24)
(99.762368 -34.401846 3.660928e-20)
(99.719579 -33.949927 -3.3748609e-20)
(99.669323 -33.419161 -3.1134531e-20)
(99.609044 -32.627807 2.8719722e-20)
(99.515763 -31.344344 0)
(99.396158 -29.561446 -2.4485002e-20)
(99.245949 -27.329481 2.2574118e-20)
(99.075498 -24.726076 0)
(98.882196 -21.80753 -1.9241055e-20)
(98.684185 -18.792262 1.7738099e-20)
(98.495077 -15.972088 1.6386085e-20)
(98.332277 -13.515099 -3.0222828e-20)
(98.173395 -11.068417 -1.2768368e-23)
(97.966668 -7.7204777 1.2850515e-20)
(97.659796 -2.6681784 -2.8932083e-24)
(97.276411 3.4316909 -1.0673086e-23)
(96.724854 13.228448 -1.0062036e-20)
(96.369706 18.734084 1.8554565e-20)
(95.95552 25.626169 -1.7087729e-20)
(78.563136 -25.28243 -7.5307784e-20)
(98.89479 -33.508876 6.959864e-20)
(100.06286 -34.678825 6.4410037e-20)
(100.08851 -34.863502 -1.196576e-19)
(100.04832 -34.912712 2.289991e-24)
(100.02155 -34.945744 5.0989715e-20)
(99.986089 -34.981196 0)
(99.972754 -35.015592 -4.3280332e-20)
(99.93588 -35.014824 3.9931873e-20)
(99.911646 -34.74908 3.6845713e-20)
(99.858102 -34.354191 -3.3967288e-20)
(99.819287 -33.83924 0)
(99.747626 -33.075337 0)
(99.659148 -31.740316 -1.6289169e-24)
(99.520227 -29.856543 0)
(99.368767 -27.520014 1.3873503e-24)
(99.17842 -24.832965 -2.0992414e-20)
(98.983006 -21.797795 -2.6014583e-23)
(98.760115 -18.692538 3.5736718e-20)
(98.580533 -15.953662 1.0447571e-23)
(98.422516 -13.871022 -1.520786e-20)
(98.304369 -11.905167 0)
(98.085713 -8.7452508 0)
(97.76975 -3.4552084 0)
(97.325093 3.0348402 5.3708512e-24)
(96.690589 13.564589 -9.9018266e-24)
(96.334354 19.118553 -9.3342115e-21)
(95.887165 26.194469 1.72031e-20)
(95.572115 31.030711 -7.9349413e-21)
(78.519273 -24.660243 -1.5124066e-19)
(99.022514 -32.770438 6.9982434e-20)
(100.22383 -33.968856 4.9469304e-25)
(100.22979 -34.224495 6.026595e-20)
(100.19692 -34.320483 -5.572418e-20)
(100.17315 -34.496357 -5.1335995e-20)
(100.148 -34.631732 9.4620272e-20)
(100.13311 -34.773704 -4.3577225e-20)
(100.11844 -34.847496 1.2242451e-24)
(100.10408 -34.870639 0)
(100.0552 -34.677338 0)
(100.03047 -34.265568 0)
(99.950234 -33.472496 0)
(99.864734 -32.129336 1.6393863e-24)
(99.712325 -30.166139 0)
(99.547396 -27.593017 0)
(99.321205 -24.480502 0)
(99.09528 -21.037242 2.379503e-24)
(98.848823 -17.691209 0)
(98.676769 -15.144016 -1.2764349e-27)
(98.555563 -13.745739 3.7368027e-24)
(98.484784 -12.628633 0)
(98.29515 -9.9208393 -1.3031432e-20)
(97.957779 -4.460164 2.4020412e-20)
(97.477115 2.6300869 -1.1072396e-20)
(96.7803 14.052108 -1.0197701e-20)
(96.394997 19.782264 1.8806014e-20)
(95.942676 26.847882 -8.671017e-21)
(95.629169 31.49394 -7.7877685e-24)
(95.239489 37.589131 -7.3247219e-21)
(78.414163 -23.936515 0)
(99.180441 -31.93641 0)
(100.42521 -33.159306 -4.9843546e-25)
(100.41589 -33.472579 -9.2605296e-25)
(100.39616 -33.61153 -5.6116197e-20)
(100.37183 -33.918287 5.1710348e-20)
(100.36164 -34.173133 0)
(100.34989 -34.425357 -1.3387868e-24)
(100.3389 -34.549339 0)
(100.32634 -34.594551 0)
(100.28291 -34.524242 -3.4433957e-20)
(100.2549 -34.094515 3.1744308e-20)
(100.16312 -33.211976 0)
(100.06462 -31.701122 2.7056439e-20)
(99.902855 -29.711123 -2.4947125e-20)
(99.734701 -27.159057 0)
(99.504733 -24.120704 -2.1274724e-20)
(99.2709 -20.564685 3.9229631e-20)
(99.002945 -17.057418 2.1018804e-23)
(98.836489 -14.560272 1.1263925e-23)
(98.722473 -13.295575 -1.5405208e-20)
(98.67534 -12.6947 3.4713329e-24)
(98.515184 -10.350162 0)
(98.159775 -4.8580103 0)
(97.690989 2.3845832 -1.1149602e-20)
(96.907213 14.264615 2.0549148e-20)
(96.515109 20.052659 -9.4771757e-21)
(96.051122 27.046279 -8.7024793e-21)
(95.742467 31.578241 3.1321119e-23)
(95.347129 37.575343 7.3905529e-21)
(78.451786 -23.542219 -7.6459897e-20)
(99.38529 -31.488361 7.0755334e-20)
(100.65037 -32.727249 -6.5727089e-20)
(100.63685 -33.055544 0)
(100.61736 -33.20005 -8.6227739e-25)
(100.59166 -33.5067 -5.2065487e-20)
(100.58488 -33.795532 4.7978301e-20)
(100.57879 -34.163747 -4.4180645e-20)
(100.57529 -34.357524 4.4757782e-24)
(100.5647 -34.433202 3.7540177e-20)
(100.52174 -34.360285 0)
(100.49464 -33.947942 1.9500341e-24)
(100.41333 -33.175529 -2.9500947e-20)
(100.31439 -31.698473 2.7206133e-20)
(100.14806 -29.626724 0)
(99.971216 -27.022686 0)
(99.743781 -24.053344 2.1411531e-20)
(99.508146 -20.626411 2.6764891e-23)
(99.248227 -17.071945 1.7732103e-23)
(99.056415 -14.34583 -3.3638253e-20)
(98.93855 -12.960364 3.1025306e-20)
(98.882686 -12.340029 4.8713088e-24)
(98.739408 -10.346363 -2.6400861e-20)
(98.349858 -4.797813 1.2163977e-20)
(97.884786 2.0089139 1.1225824e-20)
(97.068645 14.502014 -1.0348138e-20)
(96.661032 20.237017 -9.5204105e-21)
(96.189132 27.24365 8.7809854e-21)
(95.868932 31.744422 8.0585137e-21)
(95.468288 37.703866 -7.4488385e-21)
(95.205723 41.364547 -6.6882632e-24)
(78.33059 -22.905129 -5.8634382e-25)
(99.490374 -30.73573 5.4212665e-25)
(100.79093 -31.950742 -6.6127921e-20)
(100.78235 -32.276581 6.1586339e-20)
(100.75932 -32.429796 5.6912627e-20)
(100.74572 -32.879956 -5.243469e-20)
(100.75167 -33.357742 -7.3719383e-25)
(100.76199 -33.930125 0)
(100.76207 -34.230674 0)
(100.75181 -34.382608 3.7784641e-20)
(100.74533 -34.450745 2.595693e-25)
(100.71297 -34.449691 -3.2166188e-20)
(100.67189 -33.811543 2.9690959e-20)
(100.55894 -32.57497 2.6701571e-23)
(100.40812 -30.315539 -2.5274318e-20)
(100.18872 -27.507029 0)
(99.955717 -24.106834 2.156227e-20)
(99.674481 -20.439622 -1.9863203e-20)
(99.401767 -16.544098 -2.2410376e-24)
(99.194065 -13.965366 2.0679398e-24)
(99.101458 -12.738775 1.5621031e-20)
(99.050875 -12.362396 -1.4413731e-20)
(98.949949 -10.786144 -1.3301761e-20)
(98.538031 -4.9888861 1.2253292e-20)
(98.099504 1.6907054 1.1303389e-20)
(97.162239 15.142941 -1.0424988e-20)
(96.746463 20.825913 4.6875378e-24)
(96.26425 27.74217 -8.8317617e-21)
(95.946625 32.072266 1.6284473e-20)
(95.536627 38.001308 -1.4985536e-20)
(95.266323 41.649233 6.9059517e-21)
(78.29441 -22.390198 5.8949261e-25)
(99.654991 -30.140269 0)
(100.98691 -31.377797 0)
(100.96311 -31.749976 0)
(100.95071 -31.932728 -8.7423082e-25)
(100.93177 -32.438513 -8.0569361e-25)
(100.94814 -32.983139 -4.2119095e-28)
(100.96034 -33.667166 -1.3676251e-24)
(100.96583 -34.0259 -4.1301839e-20)
(100.95303 -34.22833 3.809106e-20)
(100.9558 -34.468542 -1.0699738e-24)
(100.9505 -34.577507 -3.2347998e-20)
(100.90631 -34.421285 2.9879102e-20)
(100.8133 -33.049424 2.7596026e-20)
(100.63122 -30.879452 -2.5437453e-20)
(100.40403 -27.640409 -2.352033e-20)
(100.12696 -24.158626 2.1671307e-20)
(99.833816 -20.056011 -2.4429736e-24)
(99.521764 -16.213799 1.8489326e-20)
(99.336244 -13.674412 -3.4098622e-20)
(99.232357 -12.597522 1.5723253e-20)
(99.18158 -12.400102 -1.4517432e-20)
(99.08521 -11.025042 1.3379972e-20)
(98.645021 -5.0393421 0)
(98.185489 1.5800634 -1.138249e-20)
(97.201415 15.69573 1.0498074e-20)
(96.821739 21.307965 9.6579584e-21)
(96.33633 28.157392 -8.903669e-21)
(96.051993 32.341279 0)
(95.631826 38.293832 -7.5446857e-21)
(95.384769 41.910774 6.9545483e-21)
(95.080916 46.198843 1.2494033e-23)
(78.394833 -21.37682 0)
(100.25134 -28.968444 0)
(101.65725 -30.267107 0)
(101.59881 -30.748858 -6.2388704e-20)
(101.61416 -31.002643 5.7683125e-20)
(101.57806 -31.595487 8.1043521e-25)
(101.60948 -32.164038 -4.8933067e-20)
(101.61251 -32.920494 1.775408e-23)
(101.6235 -33.312607 1.0048074e-23)
(101.60323 -33.590205 3.8356663e-20)
(101.61893 -34.058836 0)
(101.61523 -34.328447 1.9860433e-24)
(101.60269 -34.406752 -1.8338833e-24)
(101.46691 -33.070716 -1.694527e-24)
(101.29346 -30.681182 -1.5643205e-24)
(101.00418 -27.252061 2.8895794e-24)
(100.73148 -23.513267 0)
(100.37919 -19.254504 2.0172942e-20)
(100.06101 -15.115702 -1.8594926e-20)
(99.833366 -12.584373 2.0959526e-24)
(99.747303 -11.5924 3.8647216e-24)
(99.708699 -11.602864 7.1335355e-24)
(99.546155 -10.784512 0)
(99.08905 -4.6844641 -1.2435676e-20)