/*--------------------------------*- C++ -*----------------------------------*\
| =========                 |                                                 |
| \\      /  F ield         | OpenFOAM: The Open Source CFD Toolbox           |
|  \\    /   O peration     | Version:  2506                                  |
|   \\  /    A nd           | Website:  www.openfoam.com                      |
|    \\/     M anipulation  |                                                 |
\*---------------------------------------------------------------------------*/
FoamFile
{
    version     2.0;
    format      ascii;
    arch        "LSB;label=32;scalar=64";
    class       volScalarField;
    location    "0.0125";
    object      alphat;
}
// * * * * * * * * * * * * * * * * * * * * * * * * * * * * * * * * * * * * * //

dimensions      [1 -1 -1 0 0 0 0];

internalField   nonuniform List<scalar> 
13761
(
5.3195991e-06
5.3194333e-06
5.3192872e-06
5.3191523e-06
5.31902e-06
2.5887633e-06
5.318899e-06
2.5887719e-06
5.3187837e-06
2.5887659e-06
5.318684e-06
2.5887784e-06
5.3185918e-06
2.588775e-06
5.3185166e-06
2.5831814e-06
2.5887841e-06
5.3184464e-06
2.5831827e-06
2.5887731e-06
5.3183765e-06
2.5831835e-06
2.588771e-06
5.3183211e-06
2.5831839e-06
2.5887779e-06
5.3182714e-06
2.5831843e-06
2.5887737e-06
5.3182277e-06
2.5831856e-06
2.5887815e-06
5.3181857e-06
2.586018e-06
2.583188e-06
2.5887762e-06
5.3181434e-06
2.5860184e-06
2.5831893e-06
2.5887842e-06
5.3180867e-06
2.5860188e-06
2.5831888e-06
2.5887792e-06
5.3180464e-06
2.5860201e-06
2.583188e-06
2.5887899e-06
5.3180322e-06
2.5860221e-06
2.5831894e-06
2.588783e-06
5.3180308e-06
2.5860234e-06
2.5831919e-06
2.5887827e-06
5.318036e-06
2.5834911e-06
2.586023e-06
2.5831936e-06
2.5887885e-06
5.318039e-06
2.5834909e-06
2.5860214e-06
2.5831934e-06
2.5887812e-06
5.3180337e-06
2.5834907e-06
2.5860203e-06
2.5831922e-06
2.5887891e-06
5.3181819e-06
2.5834906e-06
2.5860196e-06
2.5831924e-06
2.5887793e-06
5.3180384e-06
2.5834905e-06
2.5860193e-06
2.5831946e-06
2.5887867e-06
5.3183778e-06
2.5835589e-06
2.5834904e-06
2.5860193e-06
2.5831971e-06
2.5887808e-06
5.3181446e-06
2.58356e-06
2.5834903e-06
2.5860194e-06
2.5832e-06
2.588803e-06
5.3186829e-06
2.5835611e-06
2.5834903e-06
2.5860192e-06
2.5832028e-06
2.5888382e-06
5.3182959e-06
2.5835621e-06
2.5834903e-06
2.5860188e-06
2.5832043e-06
2.5889673e-06
5.3188849e-06
2.5835632e-06
2.5834903e-06
2.5860185e-06
2.5832047e-06
2.5890435e-06
5.31846e-06
2.5835643e-06
2.5834902e-06
2.5860185e-06
2.5832052e-06
2.5890721e-06
5.3195591e-06
2.5829602e-06
2.5835654e-06
2.5834901e-06
2.5860187e-06
2.5832061e-06
2.5890526e-06
5.3187612e-06
2.5829602e-06
2.5835665e-06
2.5834897e-06
2.5860189e-06
2.5832223e-06
2.5890341e-06
5.3202772e-06
2.5829602e-06
2.5835677e-06
2.5834894e-06
2.5860195e-06
2.5832718e-06
2.5890179e-06
5.3188092e-06
2.5829603e-06
2.5835688e-06
2.5834892e-06
2.5860207e-06
2.5833408e-06
2.5890052e-06
5.3188206e-06
2.5829603e-06
2.5835699e-06
2.583489e-06
2.5860227e-06
2.5833997e-06
2.5889973e-06
5.3187292e-06
2.5828425e-06
2.5829604e-06
2.583571e-06
2.5834886e-06
2.5860246e-06
2.5834325e-06
2.5889945e-06
5.3191209e-06
2.582843e-06
2.5829605e-06
2.5835722e-06
2.5834882e-06
2.5860311e-06
2.5834426e-06
2.5889962e-06
5.3211371e-06
2.5828433e-06
2.5829605e-06
2.5835733e-06
2.583488e-06
2.5860531e-06
2.5834431e-06
2.5890094e-06
5.3188856e-06
2.5828437e-06
2.5829606e-06
2.5835744e-06
2.5834884e-06
2.5861032e-06
2.5834401e-06
2.5890851e-06
5.3187542e-06
2.5828441e-06
2.5829607e-06
2.5835755e-06
2.5834894e-06
2.5861675e-06
2.5834273e-06
2.5891143e-06
5.3188675e-06
2.5828445e-06
2.5829608e-06
2.5835766e-06
2.5834905e-06
2.5862207e-06
2.5834189e-06
2.5890312e-06
5.3207689e-06
2.5827025e-06
2.5828448e-06
2.5829609e-06
2.5835777e-06
2.5834912e-06
2.5862516e-06
2.5834159e-06
2.5889334e-06
5.3189609e-06
2.582703e-06
2.5828453e-06
2.5829611e-06
2.5835788e-06
2.5834916e-06
2.5862637e-06
2.583416e-06
2.5888852e-06
2.5827033e-06
2.5828457e-06
2.5829612e-06
2.5835799e-06
2.583494e-06
2.5862657e-06
2.5834317e-06
2.5889363e-06
2.5827037e-06
2.5828461e-06
2.5829613e-06
2.5835811e-06
2.5835105e-06
2.5862609e-06
2.5834549e-06
2.5889223e-06
2.5827041e-06
2.5828466e-06
2.5829615e-06
2.5835825e-06
2.583558e-06
2.5862446e-06
2.5834744e-06
2.5889479e-06
2.5825051e-06
2.5827045e-06
2.582847e-06
2.5829616e-06
2.5835839e-06
2.5836254e-06
2.5862338e-06
2.5834816e-06
2.5889907e-06
2.5825068e-06
2.582705e-06
2.5828474e-06
2.5829618e-06
2.5835854e-06
2.5836843e-06
2.586231e-06
2.5834602e-06
2.5889364e-06
2.5825083e-06
2.5827055e-06
2.5828478e-06
2.582962e-06
2.5835867e-06
2.5837198e-06
2.5862323e-06
2.5834048e-06
2.5889607e-06
2.58251e-06
2.582706e-06
2.5828482e-06
2.5829621e-06
2.5835881e-06
2.583734e-06
2.5862462e-06
2.5833489e-06
2.5890166e-06
2.5825116e-06
2.5827066e-06
2.5828486e-06
2.5829623e-06
2.5835911e-06
2.5837367e-06
2.5862708e-06
2.583327e-06
2.5825134e-06
2.5827071e-06
2.582849e-06
2.5829626e-06
2.5836062e-06
2.5837322e-06
2.5862926e-06
2.583336e-06
2.5818122e-06
2.582515e-06
2.5827076e-06
2.5828494e-06
2.5829628e-06
2.5836514e-06
2.5837146e-06
2.5863052e-06
2.5833606e-06
2.5818189e-06
2.5825169e-06
2.5827082e-06
2.5828498e-06
2.5829631e-06
2.5837193e-06
2.5837005e-06
2.5863009e-06
2.5833867e-06
2.5818253e-06
2.5825188e-06
2.5827087e-06
2.5828502e-06
2.5829634e-06
2.5837818e-06
2.5836956e-06
2.5862638e-06
2.5833941e-06
2.5818319e-06
2.5825207e-06
2.5827092e-06
2.5828506e-06
2.5829638e-06
2.5838219e-06
2.5836955e-06
2.5862019e-06
2.5833693e-06
2.5818385e-06
2.5825226e-06
2.5827098e-06
2.582851e-06
2.5829654e-06
2.5838399e-06
2.5837039e-06
2.5861596e-06
2.583384e-06
2.5798068e-06
2.5818451e-06
2.5825245e-06
2.5827103e-06
2.5828514e-06
2.5829772e-06
2.5838449e-06
2.5837247e-06
2.5861537e-06
2.5834604e-06
2.5798265e-06
2.581852e-06
2.5825264e-06
2.5827108e-06
2.5828518e-06
2.5830175e-06
2.5838436e-06
2.5837447e-06
2.5861724e-06
2.579846e-06
2.581859e-06
2.5825283e-06
2.5827114e-06
2.5828522e-06
2.5830831e-06
2.583828e-06
2.5837593e-06
2.5861981e-06
2.5798658e-06
2.581866e-06
2.5825302e-06
2.5827119e-06
2.5828526e-06
2.5831472e-06
2.5838121e-06
2.5837666e-06
2.5862172e-06
2.5798857e-06
2.5818729e-06
2.5825321e-06
2.5827124e-06
2.582853e-06
2.5831905e-06
2.5838058e-06
2.5837519e-06
2.5862136e-06
2.5750598e-06
2.5799055e-06
2.5818799e-06
2.582534e-06
2.582713e-06
2.582854e-06
2.5832111e-06
2.5838054e-06
2.5837023e-06
2.586183e-06
2.5751065e-06
2.5799258e-06
2.5818869e-06
2.582536e-06
2.5827135e-06
2.5828626e-06
2.5832168e-06
2.58381e-06
2.5836413e-06
2.5862012e-06
2.5751531e-06
2.579946e-06
2.5818939e-06
2.5825379e-06
2.5827141e-06
2.5828973e-06
2.5832165e-06
2.5838283e-06
2.5836054e-06
2.5862785e-06
2.5751998e-06
2.5799663e-06
2.5819009e-06
2.5825398e-06
2.5827146e-06
2.5829604e-06
2.5832024e-06
2.5838504e-06
2.5836045e-06
2.5660808e-06
2.5752465e-06
2.5799866e-06
2.581908e-06
2.5825417e-06
2.5827151e-06
2.5830269e-06
2.5831832e-06
2.5838675e-06
2.5836273e-06
2.5661578e-06
2.5752937e-06
2.5800068e-06
2.581915e-06
2.5825436e-06
2.5827157e-06
2.583075e-06
2.5831732e-06
2.5838793e-06
2.583658e-06
2.5662354e-06
2.575341e-06
2.5800271e-06
2.5819221e-06
2.5825455e-06
2.5827165e-06
2.5830999e-06
2.583171e-06
2.5838811e-06
2.5836796e-06
2.5663139e-06
2.5753882e-06
2.5800474e-06
2.5819292e-06
2.5825474e-06
2.5827225e-06
2.5831082e-06
2.5831721e-06
2.5838546e-06
2.583674e-06
2.566393e-06
2.5754355e-06
2.5800677e-06
2.5819363e-06
2.5825493e-06
2.5827508e-06
2.5831092e-06
2.5831849e-06
2.5837974e-06
2.5836417e-06
2.5536646e-06
2.5664725e-06
2.5754827e-06
2.5800881e-06
2.5819434e-06
2.5825512e-06
2.5828095e-06
2.5830991e-06
2.5832061e-06
2.5837416e-06
2.5836631e-06
2.5537503e-06
2.5665534e-06
2.5755299e-06
2.5801084e-06
2.5819505e-06
2.5825531e-06
2.5828775e-06
2.5830788e-06
2.5832242e-06
2.5837171e-06
2.5837404e-06
2.5538372e-06
2.5666348e-06
2.5755772e-06
2.5801287e-06
2.5819576e-06
2.582555e-06
2.5829307e-06
2.5830656e-06
2.5832372e-06
2.5837248e-06
2.5539251e-06
2.5667168e-06
2.5756244e-06
2.5801491e-06
2.5819647e-06
2.582557e-06
2.5829607e-06
2.5830614e-06
2.5832453e-06
2.5837521e-06
2.542701e-06
2.5540136e-06
2.5667994e-06
2.5756717e-06
2.5801695e-06
2.5819719e-06
2.5825622e-06
2.5829723e-06
2.5830613e-06
2.5832389e-06
2.5837836e-06
2.5427242e-06
2.554104e-06
2.5668824e-06
2.5757191e-06
2.5801899e-06
2.581979e-06
2.582585e-06
2.5829747e-06
2.5830686e-06
2.5831998e-06
2.5838034e-06
2.542749e-06
2.5541953e-06
2.5669659e-06
2.5757665e-06
2.5802102e-06
2.5819861e-06
2.5826389e-06
2.5829692e-06
2.583088e-06
2.583138e-06
2.5837944e-06
2.5427755e-06
2.5542877e-06
2.5670498e-06
2.575814e-06
2.5802306e-06
2.5819933e-06
2.5827083e-06
2.5829497e-06
2.5831076e-06
2.5830892e-06
2.5837619e-06
2.5418793e-06
2.5428027e-06
2.5543811e-06
2.5671343e-06
2.5758616e-06
2.580251e-06
2.5820004e-06
2.5827677e-06
2.5829333e-06
2.5831221e-06
2.583074e-06
2.5837888e-06
2.5417593e-06
2.5428326e-06
2.5544755e-06
2.5672192e-06
2.5759092e-06
2.5802714e-06
2.5820076e-06
2.5828048e-06
2.5829267e-06
2.5831327e-06
2.5830876e-06
2.583868e-06
2.5416406e-06
2.5428638e-06
2.554571e-06
2.5673046e-06
2.5759569e-06
2.5802918e-06
2.5820165e-06
2.5828217e-06
2.5829258e-06
2.5831375e-06
2.5831166e-06
2.5415245e-06
2.5428966e-06
2.5546675e-06
2.5673904e-06
2.5760047e-06
2.5803121e-06
2.5820381e-06
2.582827e-06
2.582929e-06
2.5831217e-06
2.5831468e-06
2.557829e-06
2.5414095e-06
2.542931e-06
2.554765e-06
2.5674766e-06
2.5760526e-06
2.5803325e-06
2.5820893e-06
2.5828267e-06
2.5829445e-06
2.5830725e-06
2.5831628e-06
2.5575276e-06
2.5412977e-06
2.542967e-06
2.5548635e-06
2.5675632e-06
2.5761005e-06
2.5803529e-06
2.5821623e-06
2.5828115e-06
2.5829649e-06
2.5830109e-06
2.5831488e-06
2.5572256e-06
2.5411866e-06
2.5430046e-06
2.554963e-06
2.5676501e-06
2.5761486e-06
2.5803734e-06
2.5822314e-06
2.5827937e-06
2.5829811e-06
2.5829712e-06
2.5831149e-06
2.5569238e-06
2.5410766e-06
2.5430438e-06
2.5550635e-06
2.5677374e-06
2.5761967e-06
2.5803946e-06
2.5822804e-06
2.5827853e-06
2.582993e-06
2.5829649e-06
2.5831452e-06
2.5847315e-06
2.5566211e-06
2.5409679e-06
2.5430847e-06
2.555165e-06
2.5678249e-06
2.5762449e-06
2.5804244e-06
2.582308e-06
2.5827843e-06
2.5830019e-06
2.5829833e-06
2.5832246e-06
2.5844422e-06
2.5563197e-06
2.5408604e-06
2.543127e-06
2.5552676e-06
2.5679127e-06
2.5762933e-06
2.5804805e-06
2.5823214e-06
2.5827864e-06
2.5830025e-06
2.5830136e-06
2.5841439e-06
2.5560181e-06
2.5407543e-06
2.5431708e-06
2.5553712e-06
2.5680007e-06
2.5763417e-06
2.580563e-06
2.5823288e-06
2.5827978e-06
2.5829764e-06
2.5830424e-06
2.5838406e-06
2.5557164e-06
2.5406497e-06
2.5432161e-06
2.5554758e-06
2.5680888e-06
2.5763902e-06
2.5806481e-06
2.5823245e-06
2.5828185e-06
2.58292e-06
2.583055e-06
2.5939515e-06
2.5835313e-06
2.5554146e-06
2.5405467e-06
2.5432629e-06
2.5555815e-06
2.568177e-06
2.5764388e-06
2.580716e-06
2.5823101e-06
2.5828376e-06
2.5828622e-06
2.5830368e-06
2.5940307e-06
2.5832166e-06
2.5551128e-06
2.5404456e-06
2.5433114e-06
2.5556883e-06
2.5682653e-06
2.5764878e-06
2.5807619e-06
2.5823028e-06
2.5828521e-06
2.5828322e-06
2.5830028e-06
2.594103e-06
2.5828967e-06
2.5548112e-06
2.5403464e-06
2.5433616e-06
2.555796e-06
2.5683537e-06
2.5765417e-06
2.5807915e-06
2.5823045e-06
2.5828635e-06
2.5828335e-06
2.5830371e-06
2.5781836e-06
2.5941734e-06
2.5825719e-06
2.5545098e-06
2.5402492e-06
2.5434136e-06
2.5559046e-06
2.5684423e-06
2.5766169e-06
2.5808134e-06
2.5823106e-06
2.5828721e-06
2.5828557e-06
2.5831169e-06
2.5783099e-06
2.594241e-06
2.5822429e-06
2.5542089e-06
2.5401539e-06
2.5434675e-06
2.5560141e-06
2.568531e-06
2.5767215e-06
2.5808275e-06
2.5823213e-06
2.5828679e-06
2.5828867e-06
2.5784306e-06
2.5943041e-06
2.5819098e-06
2.5539085e-06
2.5400606e-06
2.5435232e-06
2.5561243e-06
2.5686199e-06
2.5768364e-06
2.580828e-06
2.5823437e-06
2.5828327e-06
2.582914e-06
2.5725601e-06
2.5785593e-06
2.5943628e-06
2.5815725e-06
2.5536085e-06
2.5399691e-06
2.5435807e-06
2.5562353e-06
2.5687093e-06
2.5769388e-06
2.5808314e-06
2.5823692e-06
2.5827737e-06
2.5829232e-06
2.5725205e-06
2.5786921e-06
2.5944172e-06
2.581231e-06
2.5533087e-06
2.5398792e-06
2.5436399e-06
2.5563472e-06
2.5688015e-06
2.5770199e-06
2.580844e-06
2.5823908e-06
2.5827232e-06
2.5829014e-06
2.5724785e-06
2.5788306e-06
2.5944686e-06
2.5808854e-06
2.5530089e-06
2.5397908e-06
2.5437007e-06
2.5564601e-06
2.5689093e-06
2.5770825e-06
2.5808625e-06
2.5824087e-06
2.5827035e-06
2.582868e-06
2.5787924e-06
2.572428e-06
2.5789704e-06
2.5945176e-06
2.5805364e-06
2.5527092e-06
2.5397039e-06
2.5437632e-06
2.556574e-06
2.5690467e-06
2.5771344e-06
2.5808838e-06
2.5824245e-06
2.5827122e-06
2.5829064e-06
2.5787145e-06
2.5723839e-06
2.5791145e-06
2.5945634e-06
2.5801847e-06
2.5524096e-06
2.5396185e-06
2.5438273e-06
2.5566889e-06
2.5692017e-06
2.5771814e-06
2.5809151e-06
2.5824363e-06
2.5827384e-06
2.5829869e-06
2.578627e-06
2.5723305e-06
2.5792601e-06
2.5946042e-06
2.5798309e-06
2.5521102e-06
2.5395347e-06
2.5438931e-06
2.5568051e-06
2.5693504e-06
2.5772142e-06
2.5809533e-06
2.5824296e-06
2.5827707e-06
2.5782872e-06
2.5785507e-06
2.5722826e-06
2.5794107e-06
2.5946377e-06
2.579475e-06
2.551811e-06
2.5394527e-06
2.5439606e-06
2.5569238e-06
2.5694796e-06
2.5772421e-06
2.5809891e-06
2.5823903e-06
2.5827973e-06
2.5783689e-06
2.5784671e-06
2.5722288e-06
2.5795635e-06
2.5946627e-06
2.579117e-06
2.5515122e-06
2.5393725e-06
2.5440298e-06
2.5570533e-06
2.569589e-06
2.5772786e-06
2.5810209e-06
2.5823356e-06
2.5828041e-06
2.5784455e-06
2.5783942e-06
2.5721812e-06
2.5797215e-06
2.5946791e-06
2.5787565e-06
2.5512136e-06
2.5392943e-06
2.5441006e-06
2.5572104e-06
2.5696854e-06
2.5773229e-06
2.5810502e-06
2.5822979e-06
2.5827803e-06
2.5705974e-06
2.5785165e-06
2.5783134e-06
2.5721295e-06
2.5798818e-06
2.5946881e-06
2.5783935e-06
2.5509153e-06
2.5392182e-06
2.5441732e-06
2.5573925e-06
2.569776e-06
2.5773706e-06
2.581078e-06
2.5822915e-06
2.582749e-06
2.57061e-06
2.578598e-06
2.5782415e-06
2.5720831e-06
2.5800469e-06
2.5946896e-06
2.5780279e-06
2.5506175e-06
2.5391443e-06
2.5442486e-06
2.5575765e-06
2.5698573e-06
2.5774235e-06
2.5810994e-06
2.5823101e-06
2.5827926e-06
2.5717316e-06
2.5706289e-06
2.5786704e-06
2.5781616e-06
2.5720346e-06
2.5802148e-06
2.5946835e-06
2.5776597e-06
2.5503207e-06
2.5390725e-06
2.5443318e-06
2.5577452e-06
2.5699269e-06
2.5774867e-06
2.5810964e-06
2.5823431e-06
2.5828747e-06
2.5716762e-06
2.5706452e-06
2.5787509e-06
2.5780876e-06
2.5719916e-06
2.5803867e-06
2.5946692e-06
2.5772889e-06
2.5500257e-06
2.5390026e-06
2.5444381e-06
2.5578943e-06
2.570002e-06
2.5775521e-06
2.5810629e-06
2.58238e-06
2.5709211e-06
2.5716265e-06
2.5706674e-06
2.5788225e-06
2.5780055e-06
2.5719491e-06
2.5805621e-06
2.5946468e-06
2.5769156e-06
2.5497329e-06
2.5389346e-06
2.5445736e-06
2.5580282e-06
2.5700862e-06
2.5776139e-06
2.5810235e-06
2.5824095e-06
2.5709137e-06
2.5715634e-06
2.5706872e-06
2.5789036e-06
2.5779264e-06
2.571912e-06
2.5807412e-06
2.5946166e-06
2.5765395e-06
2.5494428e-06
2.5388683e-06
2.5447188e-06
2.5581539e-06
2.5701756e-06
2.5776725e-06
2.5810074e-06
2.5824184e-06
2.5709147e-06
2.5715116e-06
2.5707073e-06
2.5789761e-06
2.577839e-06
2.5718767e-06
2.5809237e-06
2.5945796e-06
2.5761608e-06
2.5491551e-06
2.5388045e-06
2.5448537e-06
2.5582751e-06
2.5702679e-06
2.5777295e-06
2.5810215e-06
2.5823972e-06
2.5673125e-06
2.5709022e-06
2.5714434e-06
2.5707314e-06
2.5790582e-06
2.5777526e-06
2.5718454e-06
2.58111e-06
2.5945359e-06
2.5757795e-06
2.5488693e-06
2.5387464e-06
2.5449708e-06
2.5583812e-06
2.5703695e-06
2.5777848e-06
2.5810574e-06
2.5823724e-06
2.5673131e-06
2.5709024e-06
2.5713852e-06
2.5707518e-06
2.5791316e-06
2.5776589e-06
2.5718148e-06
2.5812996e-06
2.5944857e-06
2.5753958e-06
2.5485848e-06
2.5387058e-06
2.5450727e-06
2.5584868e-06
2.5704778e-06
2.5778294e-06
2.5811048e-06
2.5824247e-06
2.5655316e-06
2.5673258e-06
2.5708868e-06
2.5713121e-06
2.5707796e-06
2.5792136e-06
2.5775663e-06
2.5717856e-06
2.5814925e-06
2.5944284e-06
2.5750096e-06
2.5483008e-06
2.5386955e-06
2.5451653e-06
2.5586025e-06
2.5705847e-06
2.5778449e-06
2.581154e-06
2.5825122e-06
2.5654815e-06
2.5673373e-06
2.5708858e-06
2.5712453e-06
2.5708008e-06
2.579287e-06
2.5774692e-06
2.571756e-06
2.5816878e-06
2.5943633e-06
2.5746211e-06
2.5480175e-06
2.5387037e-06
2.5452542e-06
2.5587259e-06
2.5706882e-06
2.5778345e-06
2.5811939e-06
2.5638625e-06
2.5654421e-06
2.5673612e-06
2.5708662e-06
2.5711683e-06
2.5708317e-06
2.5793692e-06
2.5773744e-06
2.571728e-06
2.5818853e-06
2.5942895e-06
2.57423e-06
2.5477371e-06
2.538708e-06
2.5453357e-06
2.5588525e-06
2.5707898e-06
2.5778273e-06
2.581212e-06
2.5614802e-06
2.5638137e-06
2.5653981e-06
2.5673846e-06
2.5708655e-06
2.5710955e-06
2.5708545e-06
2.5794443e-06
2.5772767e-06
2.5717026e-06
2.5820848e-06
2.5942064e-06
2.5738364e-06
2.5474686e-06
2.5386965e-06
2.5454088e-06
2.5589854e-06
2.5708904e-06
2.5778474e-06
2.5812007e-06
2.5614307e-06
2.5637609e-06
2.5653653e-06
2.5674132e-06
2.5708468e-06
2.5710188e-06
2.5708903e-06
2.5795257e-06
2.5771805e-06
2.5716821e-06
2.582287e-06
2.594114e-06
2.5734402e-06
2.5472274e-06
2.5386687e-06
2.5454911e-06
2.5591281e-06
2.5709882e-06
2.5778952e-06
2.5811903e-06
2.558004e-06
2.5614164e-06
2.5637076e-06
2.5653195e-06
2.5674477e-06
2.5708484e-06
2.5709436e-06
2.5709183e-06
2.5795993e-06
2.5770812e-06
2.5716668e-06
2.5824923e-06
2.5940123e-06
2.5730419e-06
2.5470113e-06
2.5386294e-06
2.545583e-06
2.559274e-06
2.5710702e-06
2.5779616e-06
2.5812591e-06
2.5579801e-06
2.5613651e-06
2.5636588e-06
2.5652885e-06
2.5674774e-06
2.5708336e-06
2.5708704e-06
2.5709607e-06
2.5796759e-06
2.5769821e-06
2.5716569e-06
2.582701e-06
2.5939013e-06
2.5726419e-06
2.546799e-06
2.5385836e-06
2.5456797e-06
2.5594175e-06
2.5711207e-06
2.5780372e-06
2.5813596e-06
2.5516833e-06
2.5579717e-06
2.5613418e-06
2.5636062e-06
2.5652433e-06
2.5675196e-06
2.5708364e-06
2.5707948e-06
2.5709955e-06
2.5797448e-06
2.5768795e-06
2.5716504e-06
2.5829126e-06
2.593781e-06
2.5722459e-06
2.5465746e-06
2.5385351e-06
2.5457827e-06
2.5595586e-06
2.5711526e-06
2.578113e-06
2.5400874e-06
2.5516912e-06
2.5579428e-06
2.5612942e-06
2.5635602e-06
2.565213e-06
2.5675487e-06
2.5708244e-06
2.5707249e-06
2.5710456e-06
2.5798147e-06
2.5767761e-06
2.5716465e-06
2.583127e-06
2.5936513e-06
2.57187e-06
2.546334e-06
2.5384736e-06
2.5458951e-06
2.5596987e-06
2.5711962e-06
2.5781787e-06
2.5208722e-06
2.5401876e-06
2.5516578e-06
2.5579352e-06
2.5612699e-06
2.5635079e-06
2.5651707e-06
2.567596e-06
2.5708237e-06
2.5706475e-06
2.5710895e-06
2.5798783e-06
2.5766696e-06
2.5716447e-06
2.5833438e-06
2.5935138e-06
2.5715195e-06
2.5460805e-06
2.5384163e-06
2.5460147e-06
2.5598382e-06
2.5712686e-06
2.5782218e-06
2.5211502e-06
2.5402283e-06
2.5516461e-06
2.5579002e-06
2.561226e-06
2.5634658e-06
2.5651393e-06
2.5676259e-06
2.5708115e-06
2.5705786e-06
2.5711477e-06
2.5799424e-06
2.5765623e-06
2.5716465e-06
2.5835631e-06
2.5933728e-06
2.5711756e-06
2.5458194e-06
2.5383708e-06
2.546135e-06
2.5599728e-06
2.5713662e-06
2.5782367e-06
2.495244e-06
2.5213508e-06
2.5402729e-06
2.5516107e-06
2.5578959e-06
2.5611984e-06
2.5634129e-06
2.565103e-06
2.5676775e-06
2.5708039e-06
2.5704991e-06
2.5711992e-06
2.5800024e-06
2.576453e-06
2.5716532e-06
2.5837846e-06
2.5932303e-06
2.5708186e-06
2.5455552e-06
2.5383323e-06
2.5462541e-06
2.5600862e-06
2.5714795e-06
2.5782559e-06
2.4696174e-06
2.4958446e-06
2.5215161e-06
2.5403165e-06
2.5515858e-06
2.5578535e-06
2.5611587e-06
2.5633745e-06
2.56507e-06
2.5677107e-06
2.5707909e-06
2.5704299e-06
2.5712613e-06
2.5800629e-06
2.5763439e-06
2.571666e-06
2.5840077e-06
2.5931141e-06
2.5704396e-06
2.5452827e-06
2.5383002e-06
2.5463734e-06
2.5601693e-06
2.5716001e-06
2.5783557e-06
2.4557024e-06
2.4704894e-06
2.4961934e-06
2.5217052e-06
2.5403432e-06
2.5515523e-06
2.557844e-06
2.5611279e-06
2.5633212e-06
2.5650419e-06
2.5677663e-06
2.5707777e-06
2.5703523e-06
2.5713156e-06
2.5801187e-06
2.5762336e-06
2.5716841e-06
2.5842328e-06
2.5930044e-06
2.5700397e-06
2.5450038e-06
2.5382763e-06
2.5464939e-06
2.5602425e-06
2.5717195e-06
2.5784837e-06
2.4596386e-06
2.4569645e-06
2.471047e-06
2.4965549e-06
2.5218518e-06
2.5403835e-06
2.5515165e-06
2.5577919e-06
2.5610939e-06
2.5632851e-06
2.5650077e-06
2.5678044e-06
2.570767e-06
2.5702897e-06
2.5713787e-06
2.5801758e-06
2.5761231e-06
2.5717064e-06
2.5844635e-06
2.5928823e-06
2.5696249e-06
2.5447362e-06
2.5382622e-06
2.5466148e-06
2.5603344e-06
2.5718274e-06
2.4756261e-06
2.4617733e-06
2.4577035e-06
2.4715981e-06
2.4969009e-06
2.5220243e-06
2.5404009e-06
2.5514892e-06
2.5577719e-06
2.5610572e-06
2.5632337e-06
2.5649878e-06
2.5678613e-06
2.5707515e-06
2.5702188e-06
2.5714352e-06
2.5802253e-06
2.5760105e-06
2.571731e-06
2.5847061e-06
2.5927359e-06
2.5692027e-06
2.5444776e-06
2.5382538e-06
2.5467288e-06
2.5604549e-06
2.5719124e-06
2.4821839e-06
2.4779675e-06
2.4626145e-06
2.4584685e-06
2.4721307e-06
2.4972184e-06
2.5221664e-06
2.5404381e-06
2.5514454e-06
2.557717e-06
2.5610262e-06
2.5631943e-06
2.5649532e-06
2.5679024e-06
2.5707427e-06
2.5701657e-06
2.5715006e-06
2.580275e-06
2.5758966e-06
2.5717577e-06
2.5849615e-06
2.5925639e-06
2.5687667e-06
2.544225e-06
2.5382453e-06
2.5468184e-06
2.5605981e-06
2.5719705e-06
2.4813287e-06
2.4769852e-06
2.483668e-06
2.4787991e-06
2.4635298e-06
2.4591647e-06
2.4726395e-06
2.4975545e-06
2.5223228e-06
2.5404528e-06
2.5514252e-06
2.557689e-06
2.5609827e-06
2.5631435e-06
2.5649416e-06
2.5679551e-06
2.5707241e-06
2.5701036e-06
2.5715615e-06
2.5803192e-06
2.5757799e-06
2.57179e-06
2.5852537e-06
2.5923755e-06
2.5683167e-06
2.5439799e-06
2.5382367e-06
2.5468826e-06
2.5607552e-06
2.5720368e-06
2.4927664e-06
2.4818166e-06
2.4781158e-06
2.4845051e-06
2.4797369e-06
2.4643478e-06
2.4598594e-06
2.4731626e-06
2.497858e-06
2.5224691e-06
2.5404862e-06
2.5513764e-06
2.557637e-06
2.5609527e-06
2.5631023e-06
2.5649098e-06
2.5679957e-06
2.5707155e-06
2.5700569e-06
2.5716316e-06
2.5803644e-06
2.5756613e-06
2.5718363e-06
2.585542e-06
2.5921723e-06
2.5678704e-06
2.5437444e-06
2.5382294e-06
2.546947e-06
2.5609187e-06
2.5721847e-06
2.4979436e-06
2.4973013e-06
2.4921201e-06
2.4822884e-06
2.4789895e-06
2.4853987e-06
2.4805628e-06
2.4651816e-06
2.4605438e-06
2.473681e-06
2.4981979e-06
2.5226148e-06
2.5405044e-06
2.5513629e-06
2.5576029e-06
2.5609052e-06
2.5630593e-06
2.5649056e-06
2.56804e-06
2.5706943e-06
2.5700007e-06
2.571699e-06
2.5804053e-06
2.57554e-06
2.5719034e-06
2.585812e-06
2.5919532e-06
2.5674328e-06
2.5435179e-06
2.5382238e-06
2.5470357e-06
2.5610807e-06
2.5723576e-06
2.489328e-06
2.4999319e-06
2.4998851e-06
2.4942594e-06
2.4914733e-06
2.4829127e-06
2.4799372e-06
2.4862676e-06
2.4814449e-06
2.4659877e-06
2.4612522e-06
2.4742205e-06
2.4985036e-06
2.5227687e-06
2.5405358e-06
2.551315e-06
2.5575581e-06
2.5608778e-06
2.5630162e-06
2.5648801e-06
2.5680784e-06
2.5706855e-06
2.56996e-06
2.5717769e-06
2.5804468e-06
2.5754187e-06
2.5719921e-06
2.5860634e-06
2.5917161e-06
2.5670004e-06
2.5432944e-06
2.5382176e-06
2.5471531e-06
2.5612308e-06
2.499759e-06
2.4919662e-06
2.4983215e-06
2.505337e-06
2.4997751e-06
2.4914509e-06
2.4909312e-06
2.4835524e-06
2.4808322e-06
2.4871337e-06
2.4823305e-06
2.4668512e-06
2.4619575e-06
2.4747722e-06
2.498849e-06
2.5229075e-06
2.5405635e-06
2.5513059e-06
2.5575203e-06
2.5608318e-06
2.562984e-06
2.5648818e-06
2.568114e-06
2.5706624e-06
2.5699087e-06
2.5718549e-06
2.580484e-06
2.5753024e-06
2.5721109e-06
2.5862981e-06
2.591468e-06
2.5665694e-06
2.5430707e-06
2.5382004e-06
2.5472913e-06
2.5613578e-06
2.5769091e-06
2.539132e-06
2.5120678e-06
2.4966477e-06
2.4969032e-06
2.5073918e-06
2.5071808e-06
2.4948003e-06
2.4897555e-06
2.4905552e-06
2.4841591e-06
2.4817355e-06
2.4880653e-06
2.4832584e-06
2.4677064e-06
2.4627155e-06
2.4753297e-06
2.4991641e-06
2.5230661e-06
2.540595e-06
2.5512647e-06
2.5574842e-06
2.5608033e-06
2.5629419e-06
2.5648657e-06
2.5681488e-06
2.5706512e-06
2.5698722e-06
2.5719449e-06
2.5805208e-06
2.5752013e-06
2.5722193e-06
2.5865175e-06
2.5912191e-06
2.5661424e-06
2.5428479e-06
2.5381566e-06
2.5474421e-06
2.5614593e-06
2.6192287e-06
2.6265858e-06
2.6088747e-06
2.5738312e-06
2.5367625e-06
2.508968e-06
2.4992301e-06
2.5081636e-06
2.5101187e-06
2.503978e-06
2.4914531e-06
2.4885634e-06
2.4902177e-06
2.48471e-06
2.4826223e-06
2.4889939e-06
2.4842356e-06
2.4686366e-06
2.4634725e-06
2.4759143e-06
2.4995056e-06
2.5232004e-06
2.5406342e-06
2.5512573e-06
2.5574449e-06
2.560761e-06
2.5629202e-06
2.5648715e-06
2.5681759e-06
2.5706242e-06
2.5698272e-06
2.5720359e-06
2.5805517e-06
2.5751172e-06
2.5723187e-06
2.5867244e-06
2.5909696e-06
2.5657233e-06
2.5426271e-06
2.5380941e-06
2.5475983e-06
2.5615732e-06
2.5913511e-06
2.6111437e-06
2.6053431e-06
2.5855333e-06
2.5923479e-06
2.6177283e-06
2.6240122e-06
2.6055509e-06
2.5710227e-06
2.5335169e-06
2.5102599e-06
2.511205e-06
2.5128797e-06
2.5105012e-06
2.4984623e-06
2.4897496e-06
2.4878424e-06
2.4899874e-06
2.4852082e-06
2.4835322e-06
2.4900615e-06
2.4852238e-06
2.4695788e-06
2.4642902e-06
2.4764732e-06
2.4998261e-06
2.5233616e-06
2.5406667e-06
2.551226e-06
2.5574184e-06
2.5607338e-06
2.5628811e-06
2.5648664e-06
2.5682058e-06
2.5706072e-06
2.5697937e-06
2.5721375e-06
2.5805822e-06
2.5750645e-06
2.5724074e-06
2.5869174e-06
2.590717e-06
2.5653058e-06
2.542408e-06
2.5380408e-06
2.5477525e-06
2.5617699e-06
2.5687696e-06
2.5717664e-06
2.574943e-06
2.5760894e-06
2.5782891e-06
2.5851052e-06
2.5868453e-06
2.5817859e-06
2.5905265e-06
2.610319e-06
2.6045397e-06
2.5844775e-06
2.590382e-06
2.6138136e-06
2.6199943e-06
2.6028735e-06
2.5672593e-06
2.5345221e-06
2.5224004e-06
2.5176783e-06
2.5147731e-06
2.5034584e-06
2.4955563e-06
2.4888279e-06
2.4873319e-06
2.489744e-06
2.4856424e-06
2.4843989e-06
2.491085e-06
2.4863105e-06
2.4705599e-06
2.4650886e-06
2.4770694e-06
2.500159e-06
2.5234965e-06
2.5407148e-06
2.5512208e-06
2.5573805e-06
2.5606964e-06
2.5628647e-06
2.5648756e-06
2.5682219e-06
2.5705738e-06
2.5697537e-06
2.5722386e-06
2.5806133e-06
2.5750074e-06
2.5724878e-06
2.5871e-06
2.5904609e-06
2.5648851e-06
2.5421865e-06
2.5380151e-06
2.5478946e-06
2.5619886e-06
0.00094257009
0.00081155457
0.00063961968
0.00042828159
0.00018579493
3.9978172e-05
6.500523e-06
3.081677e-06
3.0296169e-06
3.3202235e-06
3.4220948e-06
3.3693889e-06
3.2339496e-06
3.031504e-06
2.7631047e-06
2.5751387e-06
2.4993825e-06
2.496013e-06
2.5187152e-06
2.5800928e-06
2.5757603e-06
2.5695169e-06
2.6119656e-06
2.7106991e-06
2.746244e-06
2.7252565e-06
2.6734158e-06
2.616453e-06
2.5784671e-06
2.5639798e-06
2.5637536e-06
2.5635987e-06
2.5649616e-06
2.5673084e-06
2.5680921e-06
2.5710598e-06
2.5742605e-06
2.5753297e-06
2.577586e-06
2.5843117e-06
2.5861664e-06
2.5811792e-06
2.5893033e-06
2.6085776e-06
2.6021751e-06
2.5812384e-06
2.5863809e-06
2.6104608e-06
2.6175165e-06
2.5987092e-06
2.5695847e-06
2.5470992e-06
2.5300605e-06
2.5201721e-06
2.5084674e-06
2.4988761e-06
2.4940761e-06
2.4884564e-06
2.4870597e-06
2.4895636e-06
2.4860019e-06
2.485274e-06
2.4921669e-06
2.4873537e-06
2.4715591e-06
2.4659152e-06
2.4776178e-06
2.5004916e-06
2.523658e-06
2.5407457e-06
2.5512024e-06
2.5573623e-06
2.5606654e-06
2.5628274e-06
2.5648814e-06
2.568245e-06
2.5705477e-06
2.569722e-06
2.5723481e-06
2.5806598e-06
2.5749383e-06
2.5725632e-06
2.5872834e-06
2.5902025e-06
2.5644613e-06
2.5419498e-06
2.5380165e-06
2.5480148e-06
0.0011162381
0.0011029676
0.0010592077
0.00098456106
0.0008731655
0.00071643923
0.0005104546
0.00026493726
6.9114705e-05
1.1228118e-05
3.6443988e-06
3.0831154e-06
3.1623687e-06
3.3094278e-06
3.3061733e-06
3.1609665e-06
2.9270566e-06
2.7158628e-06
2.5738347e-06
2.516552e-06
2.4937133e-06
2.4888561e-06
2.5221436e-06
2.5797572e-06
2.565237e-06
2.5646147e-06
2.6171923e-06
2.7153737e-06
2.7445943e-06
2.7220429e-06
2.67013e-06
2.6144271e-06
2.5774344e-06
2.5632565e-06
2.5628697e-06
2.5626436e-06
2.5644097e-06
2.5666817e-06
2.5671634e-06
2.5701188e-06
2.5733047e-06
2.5743848e-06
2.5766425e-06
2.5831015e-06
2.5848449e-06
2.5794593e-06
2.5868213e-06
2.6051584e-06
2.5983347e-06
2.5779626e-06
2.5838881e-06
2.6070786e-06
2.6136903e-06
2.6033261e-06
2.582577e-06
2.5549276e-06
2.5326461e-06
2.5153604e-06
2.50255e-06
2.4967413e-06
2.4932414e-06
2.4882196e-06
2.4868496e-06
2.4893548e-06
2.4863098e-06
2.4860809e-06
2.4931831e-06
2.4884833e-06
2.4725617e-06
2.4667336e-06
2.4782097e-06
2.5008211e-06
2.523797e-06
2.5407995e-06
2.5512041e-06
2.5573259e-06
2.5606319e-06
2.5628107e-06
2.5648946e-06
2.5682528e-06
2.5705058e-06
2.5696828e-06
2.5724579e-06
2.5807208e-06
2.5748563e-06
2.5726339e-06
2.5874723e-06
2.5899422e-06
2.564036e-06
2.5416866e-06
2.5380373e-06
2.5481124e-06
0.001064326
0.0010995971
0.0011177421
0.0011142691
0.001085572
0.0010240789
0.00092120201
0.00077267308
0.00058145497
0.00036052975
0.00013014326
1.5602806e-05
3.7684561e-06
3.1592674e-06
3.141919e-06
3.1746375e-06
3.1510991e-06
3.0179198e-06
2.8560982e-06
2.7266948e-06
2.5931306e-06
2.5096713e-06
2.4869835e-06
2.4795276e-06
2.4857529e-06
2.5380463e-06
2.5825891e-06
2.5608769e-06
2.5632477e-06
2.625336e-06
2.7194784e-06
2.7427534e-06
2.7183352e-06
2.6667665e-06
2.6124733e-06
2.5761774e-06
2.5625872e-06
2.5621704e-06
2.5618242e-06
2.5636995e-06
2.5659665e-06
2.5664025e-06
2.5692598e-06
2.5722492e-06
2.5731164e-06
2.5749821e-06
2.5807759e-06
2.5820347e-06
2.5760768e-06
2.5830221e-06
2.6017623e-06
2.5958188e-06
2.5752954e-06
2.5795763e-06
2.6058858e-06
2.6221852e-06
2.6162919e-06
2.5896829e-06
2.5576562e-06
2.5290161e-06
2.5084113e-06
2.500035e-06
2.4957271e-06
2.4927932e-06
2.4880974e-06
2.4867422e-06
2.4891637e-06
2.4865389e-06
2.4869159e-06
2.4941862e-06
2.4895414e-06
2.4735913e-06
2.467565e-06
2.4787606e-06
2.501169e-06
2.5239562e-06
2.5408283e-06
2.5512036e-06
2.5573129e-06
2.5605965e-06
2.562774e-06
2.564912e-06
2.5682698e-06
2.5704689e-06
2.5696507e-06
2.572583e-06
2.5807843e-06
2.5747626e-06
2.5727e-06
2.5876636e-06
2.5896765e-06
2.5636098e-06
2.5414132e-06
2.5380702e-06
2.5482271e-06
0.00094537579
0.0010026029
0.0010536819
0.0010948439
0.0011225458
0.0011308972
0.001112996
0.0010627422
0.0009781385
0.00085343322
0.00068532343
0.000474292
0.00024128555
5.5595923e-05
6.1518087e-06
3.2765406e-06
3.1692685e-06
3.1008532e-06
3.1112943e-06
3.0505863e-06
2.9042956e-06
2.7565192e-06
2.64911e-06
2.538708e-06
2.4929754e-06
2.4820366e-06
2.4747911e-06