/*--------------------------------*- C++ -*----------------------------------*\
| =========                 |                                                 |
| \\      /  F ield         | OpenFOAM: The Open Source CFD Toolbox           |
|  \\    /   O peration     | Version:  2506                                  |
|   \\  /    A nd           | Website:  www.openfoam.com                      |
|    \\/     M anipulation  |                                                 |
\*---------------------------------------------------------------------------*/
FoamFile
{
    version     2.0;
    format      ascii;
    arch        "LSB;label=32;scalar=64";
    class       volScalarField;
    location    "0.05";
    object      alphat;
}
// * * * * * * * * * * * * * * * * * * * * * * * * * * * * * * * * * * * * * //

dimensions      [1 -1 -1 0 0 0 0];

internalField   nonuniform List<scalar> 
30605
(
0.034066031
0.035266661
0.036491715
0.037739596
0.039008803
0.040299738
0.041614471
0.042954858
0.04432386
0.045724248
0.047159267
0.048632022
0.050145407
0.051701802
0.053304579
0.054951743
0.056642042
0.05837402
0.060144707
0.061948621
0.063780459
0.065634724
0.067504895
0.069385544
0.071272362
0.073161538
0.075051117
0.076940524
0.07882946
0.080717999
0.082606272
0.084493857
0.086379564
0.088261175
0.090136463
0.09200174
0.0938528
0.09569046
0.097514859
0.099323765
0.10111816
0.10289791
0.10466179
0.10640733
0.10813078
0.10982718
0.11149085
0.11311534
0.11469225
0.11621603
0.11768096
0.11908403
0.12042491
0.12170552
0.12292883
0.12409822
0.12521753
0.12628831
0.1273096
0.12828115
0.12920229
0.1300736
0.1308972
0.13167655
0.13241573
0.13311839
0.13378685
0.13442167
0.13502193
0.13558606
0.13611286
0.13660221
0.13705512
0.13747311
0.13785721
0.13820721
0.13852146
0.13879713
0.13903087
0.13921964
0.13936143
0.13945569
0.13950314
0.13950551
0.13946535
0.13938605
0.13927164
0.13912615
0.13895317
0.13875564
0.13853609
0.13829678
0.13803994
0.13776765
0.13748176
0.13718398
0.13687603
0.13656003
0.1362389
0.13591582
0.135594
0.13527649
0.13496585
0.13466516
0.13437728
0.13410338
0.13384229
0.13359125
0.13334691
0.13310655
0.13286919
0.13263616
0.13241125
0.13219988
0.13200723
0.13183741
0.13169008
0.13156152
0.13144879
0.13134826
0.13125892
0.13118486
0.13113777
0.13112109
0.13114955
0.13122572
0.13134134
0.13149181
0.13167556
0.13188417
0.13211111
0.13234529
0.13254995
0.13267353
0.13267247
0.13254035
0.13230617
0.13202724
0.13176104
0.13153521
0.13136024
0.13123725
0.13115424
0.13109069
0.13102371
0.13093269
0.13081318
0.13071085
0.13066944
0.13069348
0.13075685
0.1307636
0.037799788
0.039070075
0.040362835
0.041679618
0.043021884
0.044392061
0.0457923
0.047225993
0.048696276
0.050206012
0.051758119
0.053356819
0.054999047
0.056684625
0.058412386
0.060179653
0.061980996
0.063810858
0.065663854
0.067533882
0.069415187
0.071302806
0.073193049
0.075083653
0.076973833
0.078864031
0.08075422
0.082644636
0.08453482
0.086423529
0.088308665
0.090187582
0.092056093
0.093911864
0.095753319
0.097579696
0.099391135
0.10118806
0.10297043
0.10473712
0.10648554
0.10821168
0.10991028
0.11157512
0.11319948
0.11477626
0.11629887
0.11776196
0.11916255
0.12050052
0.12177794
0.12299749
0.1241631
0.12527913
0.12634656
0.12736432
0.12833221
0.12924934
0.13011621
0.13093494
0.13170908
0.13244292
0.13314037
0.13380408
0.13443484
0.13503177
0.13559315
0.13611745
0.1366042
0.13705421
0.13746891
0.13784946
0.13819589
0.13850681
0.13877964
0.13901117
0.13919837
0.13933908
0.13943254
0.13947928
0.13948097
0.13944026
0.13936071
0.13924654
0.13910187
0.1389302
0.13873428
0.13851641
0.13827875
0.13802347
0.13775266
0.13746817
0.13717163
0.13686471
0.13654947
0.13622875
0.13590587
0.13558414
0.13526684
0.13495651
0.13465606
0.13436825
0.1340942
0.13383282
0.13358142
0.13333677
0.13309629
0.13285899
0.1326261
0.13240129
0.13218982
0.1319969
0.13182664
0.13167877
0.13154964
0.13143633
0.13133524
0.13124528
0.13117039
0.13112235
0.13110504
0.13113266
0.13120767
0.13132339
0.13147286
0.13165683
0.13186516
0.13209169
0.13232673
0.13253455
0.13266435
0.13267074
0.13254479
0.13231271
0.13203148
0.13176038
0.13152964
0.13135003
0.13122324
0.13113753
0.13107159
0.13100214
0.13090817
0.1307865
0.13068307
0.13064321
0.13066233
0.13071843
0.13072067
0.13067032
0.040405501
0.041724361
0.043069683
0.044442314
0.045843281
0.047276521
0.048745193
0.050251867
0.051800339
0.053395046
0.055032506
0.056713257
0.058436441
0.060199771
0.061998192
0.063825646
0.065677322
0.067546998
0.069428796
0.071317613
0.073209674
0.075102505
0.076994618
0.07888603
0.080778103
0.082670929
0.084563991
0.08645613
0.08834534
0.090227487
0.092099827
0.093959437
0.095804406
0.097634015
0.099448528
0.10124853
0.10303415
0.10480429
0.10655627
0.1082858
0.10998729
0.11165425
0.11327974
0.11485675
0.11637879
0.1178406
0.11923915
0.12057467
0.12184924
0.12306523
0.1242272
0.12534006
0.12640413
0.1274184
0.12838268
0.12929584
0.13015833
0.13097224
0.1317412
0.13246968
0.13316185
0.13382067
0.13444717
0.13504057
0.13559902
0.1361207
0.13660484
0.13705199
0.13746355
0.13784073
0.13818375
0.13849147
0.13876153
0.13899087
0.13917648
0.13931607
0.13940869
0.13945472
0.13945574
0.13941444
0.13933458
0.13922058
0.13907671
0.13890641
0.13871227
0.13849633
0.13826059
0.13800714
0.13773805
0.13745511
0.13715995
0.13685416
0.13653974
0.13621948
0.13589679
0.13557508
0.13525787
0.13494771
0.13464742
0.13435961
0.13408536
0.13382359
0.13357172
0.13332663
0.13308585
0.13284846
0.13261563
0.13239093
0.13217943
0.13198634
0.13181575
0.13166742
0.13153778
0.13142393
0.13132229
0.13123169
0.13115613
0.13110651
0.13108937
0.13111581
0.13118994
0.13130484
0.13145488
0.13163872
0.13184687
0.13207308
0.13230875
0.13251902
0.132654
0.13266706
0.13254723
0.1323181
0.13203551
0.13175976
0.13152389
0.13133952
0.13120904
0.13112095
0.13105289
0.13098103
0.13088422
0.13076071
0.13065607
0.13061762
0.13063148
0.13068012
0.13067828
0.13062761
0.13040245
0.044494159
0.045895995
0.047329005
0.048796519
0.050300127
0.051844945
0.053435289
0.055067822
0.056743489
0.058461687
0.06022055
0.062015714
0.063840404
0.065690298
0.067559207
0.069441137
0.071330778
0.073224255
0.075119076
0.077013855
0.078908129
0.080802329
0.082697322
0.0845932
0.086488709
0.08838082
0.090266674
0.0921429
0.094006349
0.095854959
0.09768798
0.099505762
0.10130905
0.10309812
0.10487195
0.10662774
0.10836095
0.11006566
0.11173506
0.11336203
0.11493955
0.11646123
0.11792196
0.11931867
0.12065185
0.12192357
0.12313603
0.12429439
0.12540395
0.12646442
0.12747512
0.12843565
0.12934471
0.13020272
0.13101172
0.13177543
0.13249843
0.13318516
0.13383882
0.13446074
0.13505025
0.13560542
0.1361242
0.13660555
0.1370498
0.13745824
0.13783215
0.13817188
0.13847649
0.13874382
0.13897093
0.13915485
0.13929321
0.13938488
0.13943008
0.1394303
0.13938828
0.13930793
0.13919391
0.13905067
0.13888168
0.13868933
0.13847548
0.13824188
0.13799049
0.13772332
0.13744214
0.1371485
0.13684396
0.13653047
0.13621076
0.13588829
0.13556657
0.13524937
0.13493928
0.13463908
0.13435122
0.13407673
0.13381454
0.13356211
0.13331646
0.13307523
0.13283758
0.13260469
0.13238006
0.13216856
0.13197539
0.1318046
0.13165591
0.13152582
0.13141151
0.13130933
0.1312181
0.13114193
0.13109057
0.13107378
0.13109881
0.13117207
0.13128664
0.13143741
0.13162098
0.1318291
0.13205512
0.13229128
0.13250343
0.13264266
0.13266167
0.13254786
0.13232243
0.13203942
0.13175934
0.13151814
0.13132882
0.13119475
0.13110451
0.13103461
0.13096031
0.13086047
0.13073544
0.13063033
0.13059167
0.13060126
0.13064202
0.13063902
0.13058634
0.13034519
0.12992739
0.048849621
0.05035077
0.051892315
0.05347845
0.055106099
0.056776592
0.058489436
0.060243319
0.062034695
0.063856414
0.065704015
0.067571725
0.069453483
0.071343733
0.073238457
0.075135025
0.077031926
0.07892877
0.080825958
0.082723865
0.084622355
0.086520374
0.088415739
0.090305328
0.092185392
0.094052647
0.095904931
0.097741453
0.099562629
0.10136934
0.10316201
0.1049397
0.10669948
0.10843659
0.11014475
0.11181686
0.11344559
0.11502389
0.11654545
0.11800529
0.11940042
0.12073137
0.12200032
0.12320936
0.12436426
0.12547043
0.12652717
0.1275343
0.12849101
0.12939592
0.13024941
0.13105347
0.13181188
0.13252934
0.13321047
0.13385875
0.13447576
0.13506099
0.13561248
0.13612804
0.13660638
0.13704761
0.13745295
0.13782368
0.13816025
0.13846187
0.13872653
0.13895143
0.13913362
0.13927066
0.13936128
0.13940555
0.13940485
0.13936196
0.13928093
0.13916667
0.13902383
0.13885598
0.13866541
0.13845372
0.13822244
0.13797333
0.13770831
0.13742908
0.13713714
0.136834
0.13652158
0.13620253
0.13588034
0.13555862
0.13524134
0.13493124
0.13463102
0.13434305
0.13406829
0.13380564
0.13355263
0.13330633
0.13306451
0.13282646
0.13259339
0.13236876
0.13215729
0.1319641
0.1317932
0.13164427
0.13151382
0.1313991
0.1312964
0.13120457
0.13112768
0.13107486
0.13105801
0.13108159
0.13115437
0.13126875
0.13142004
0.13160387
0.13181189
0.13203788
0.1322744
0.13248791
0.13263038
0.13265448
0.13254649
0.13232542
0.13204295
0.13175905
0.13151238
0.13131796
0.13118037
0.13108818
0.1310167
0.13093994
0.13083698
0.13071088
0.13060593
0.13056601
0.13057193
0.13060491
0.13060016
0.13054302
0.13028743
0.12987269
0.12958449
0.051942126
0.053524245
0.055147139
0.056812713
0.058519901
0.060268421
0.062055448
0.063874125
0.065718814
0.067584895
0.069466149
0.071356791
0.07325264
0.075150903
0.077049868
0.078949031
0.080848764
0.082749373
0.084650688
0.086551792
0.088450537
0.090343675
0.092227415
0.09409838
0.095954313
0.097794373
0.099619019
0.10142925
0.10322563
0.10500726
0.10677117
0.10851232
0.11022413
0.11189917
0.11352989
0.11510919
0.11663087
0.11809004
0.11948381
0.12081272
0.12207897
0.12328474
0.12443647
0.12553921
0.12659219
0.1275958
0.12854869
0.12944948
0.13029847
0.13109763
0.13185074
0.1325626
0.13323802
0.1338807
0.13449247
0.135073
0.1356204
0.13613236
0.1366074
0.13704548
0.13744769
0.1378153
0.13814884
0.1384476
0.1387097
0.13893243
0.13911288
0.13924854
0.13933804
0.13938129
0.13937958
0.13933567
0.13925376
0.13913899
0.1389963
0.13882937
0.13864046
0.13843095
0.1382021
0.13795548
0.13769283
0.13741577
0.13712572
0.13682416
0.13651295
0.13619472
0.13587294
0.13555124
0.13523385
0.13492363
0.1346233
0.13433515
0.13406006
0.13379694
0.1335433
0.1332963
0.13305381
0.13281522
0.13258183
0.1323571
0.13214564
0.13195245
0.13178155
0.13163247
0.13150175
0.1313867
0.13128349
0.13119108
0.13111342
0.13105947
0.13104171
0.13106438
0.131137
0.1312508
0.13140288
0.13158691
0.13179505
0.1320213
0.13225819
0.1324727
0.13261755
0.13264588
0.13254333
0.13232707
0.13204604
0.13175888
0.13150672
0.13130705
0.13116601
0.13107197
0.13099911
0.13092
0.13081398
0.13068679
0.13058215
0.13054128
0.13054313
0.13056737
0.13056086
0.13050044
0.13023025
0.1298173
0.12952447
0.12939092
0.056851162
0.058552427
0.060295274
0.06207758
0.06389313
0.065734377
0.067598521
0.069478919
0.071369762
0.073266625
0.075166575
0.077067657
0.078969208
0.080871533
0.082774858
0.084679018
0.086583151
0.088485078
0.090381563
0.092268784
0.09414332
0.096002839
0.097846433
0.099674591
0.1014884
0.10328855
0.10507421
0.10684231
0.10858761
0.11030319
0.11198133
0.11361425
0.11519478
0.11671677
0.1181755
0.11956816
0.12089526
0.12215886
0.12336159
0.12451046
0.12560978
0.12665911
0.12765933
0.12860847
0.12950525
0.13034983
0.13114417
0.13189204
0.13259832
0.13326793
0.13390481
0.13451102
0.13508645
0.13562931
0.13613725
0.13660868
0.13704342
0.13744245
0.13780699
0.13813759
0.13843362
0.13869327
0.13891391
0.13909264
0.13922692
0.13931526
0.13935743
0.13935462
0.13930956
0.13922658
0.13911104
0.13896819
0.13880191
0.13861446
0.13840708
0.13818075
0.13793676
0.13767668
0.137402
0.13711405
0.13681426
0.13650447
0.13618723
0.13586599
0.13554441
0.13522688
0.13491647
0.13461593
0.1343275
0.13405203
0.13378839
0.13353412
0.13328639
0.13304316
0.13280393
0.13257011
0.13234518
0.13213368
0.13194049
0.13176962
0.13162051
0.13148962
0.13137429
0.13127064
0.13117763
0.13109924
0.13104414
0.13102516
0.13104739
0.13111967
0.13123299
0.13138564
0.13156996
0.13177851
0.13200526
0.13224256
0.13245781
0.13260434
0.13263603
0.13253845
0.13232728
0.13204847
0.13175874
0.13150123
0.13129621
0.13115174
0.13105588
0.13098175
0.13090048
0.13079156
0.13066316
0.13055878
0.13051692
0.13051462
0.13052914
0.13052177
0.13046235
0.13017303
0.12976156
0.12946499
0.12933269
0.12923444
0.062100883
0.063912255
0.065750326
0.067612635
0.069491788
0.071382765
0.073280529
0.075182178
0.077085485
0.078989539
0.080894577
0.082800684
0.084707663
0.086614696
0.088519601
0.090419196
0.092309671
0.094187599
0.096050594
0.097897675
0.099729342
0.10154675
0.10335069
0.10514039
0.10691272
0.10866221
0.11038165
0.112063
0.11369828
0.11528022
0.11680273
0.1182612
0.11965297
0.12097849
0.12223952
0.12343944
0.12458576
0.12568172
0.12672764
0.12772461
0.12867015
0.12956308
0.13040343
0.13119309
0.13193584
0.13263658
0.13330034
0.13393123
0.13453157
0.1351015
0.13563936
0.13614285
0.13661033
0.1370415
0.13743724
0.13779872
0.13812648
0.13841989
0.13867719
0.13889581
0.13907288
0.13920579
0.13929296
0.13933402
0.13933005
0.13928375
0.13919951
0.13908296
0.13893962
0.13877367
0.13858745
0.13838206
0.13815824
0.13791699
0.13765966
0.13738756
0.13710192
0.13680411
0.13649594
0.13617992
0.13585941
0.13553806
0.13522044
0.13490976
0.13460891
0.13432011
0.13404417
0.13377998
0.13352505
0.1332766
0.1330326
0.13279265
0.13255829
0.13233305
0.13212144
0.13192822
0.13175741
0.13160833
0.13147739
0.13136185
0.13125784
0.13116422
0.1310851
0.13102889
0.13100859
0.13103039
0.13110224
0.13121545
0.13136816
0.13155298
0.13176223
0.13198968
0.13222753
0.13244341
0.13259105
0.13262529
0.13253207
0.13232602
0.13205007
0.13175855
0.131496
0.13128556
0.13113766
0.13103995
0.13096457
0.13088127
0.13076965
0.13064044
0.13053626
0.13049278
0.13048635
0.13049269
0.13048383
0.13042454
0.13011446
0.12971023
0.12940608
0.1292779
0.12921457
0.12998458
0.067627333
0.069504826
0.071396311
0.073294843
0.075198219
0.077103975
0.079010662
0.080918556
0.082827546
0.08473732
0.086647131
0.088554801
0.090457246
0.092350711
0.094231803
0.096098109
0.097948571
0.099783695
0.10160466
0.10341237
0.10520608
0.1069826
0.10873627
0.11045958
0.11214421
0.11378196
0.11536543
0.11688861
0.11834697
0.11973801
0.12106213
0.12232072
0.12351808
0.12466202
0.12575471
0.12679757
0.12779144
0.12873356
0.12962286
0.13045918
0.13124438
0.13198216
0.13267744
0.13333532
0.13396009
0.1345543
0.13511833
0.13565074
0.13614934
0.13661249
0.13703982
0.13743215
0.13779054
0.13811549
0.13840636
0.13866141
0.13887809
0.13905354
0.13918512
0.13927113
0.13931107
0.13930591
0.13925829
0.13917266
0.13905484
0.13891071
0.13874475
0.13855945
0.13835586
0.13813447
0.13789602
0.13764156
0.13737221
0.13708909
0.13679348
0.13648717
0.13617258
0.13585304
0.1355321
0.13521445
0.13490349
0.13460225
0.13431297
0.13403647
0.13377167
0.13351606
0.13326688
0.13302212
0.13278142
0.13254644
0.13232077
0.13210896
0.13191568
0.13174492
0.13159594
0.13146503
0.13134934
0.13124507
0.13115087
0.13107099
0.13101377
0.13099199
0.13101355
0.13108464
0.13119798
0.13135042
0.13153596
0.13174607
0.13197443
0.13221301
0.1324295
0.13257788
0.13261392
0.13252438
0.13232328
0.13205065
0.13175813
0.13149107
0.13127524
0.13112382
0.13102423
0.13094755
0.13086226
0.13074831
0.13061878
0.13051477
0.13046906
0.13045872
0.13045734
0.13044535
0.13038504
0.130059
0.12965893
0.12934722
0.1292265
0.12919804
0.12996411
0.12966363
0.071410293
0.073309436
0.075214589
0.07712343
0.079032884
0.080943813
0.082855898
0.084768468
0.086680959
0.088591209
0.090496241
0.092392407
0.094276398
0.0961458
0.097999488
0.099837964
0.10166242
0.10347381
0.10527145
0.10705206
0.10880984
0.11053698
0.11222491
0.11386518
0.11545029
0.11697424
0.11843261
0.11982302
0.1211459
0.12240218
0.12359723
0.12473881
0.12582838
0.12686856
0.12785946
0.1287984
0.12968431
0.13051687
0.13129784
0.13203087
0.13272082
0.13337286
0.1339914
0.13457924
0.13513702
0.13566356
0.13615684
0.13661528
0.1370385
0.13742724
0.13778247
0.13810461
0.13839299
0.13864585
0.13886065
0.13903453
0.13916482
0.13924969
0.13928854
0.13928218
0.1392332
0.13914607
0.13902678
0.13888156
0.13871524
0.13853053
0.13832847
0.13810938
0.1378737
0.13762218
0.13735574
0.13707532
0.13678213
0.1364779
0.13616503
0.13584671
0.13552639
0.13520883
0.13489762
0.13459592
0.13430607
0.13402891
0.13376341
0.13350709
0.13325719
0.1330117
0.13277025
0.13253458
0.13230841
0.13209629
0.13190291
0.13173215
0.13158331
0.13145252
0.13133676
0.13123229
0.1311376
0.13105689
0.13099877
0.1309756
0.1309966
0.13106716
0.13118013
0.1313327
0.13151885
0.13172997
0.13195944
0.13219895
0.13241615
0.13256506
0.13260227
0.13251563
0.13231908
0.13205003
0.13175731
0.13148642
0.13126537
0.1311103
0.13100875
0.1309307
0.13084351
0.1307275
0.13059767
0.1304943
0.13044601
0.13043171
0.13042262
0.13040548
0.13034838
0.13000331
0.12960612
0.12929129
0.12917874
0.12918376
0.12994848
0.12965853
0.131331
0.077143673
0.079056037
0.080970227
0.082885997
0.08480139
0.08671651
0.088629252
0.090536611
0.092435196
0.094321787
0.09619403
0.098050737
0.099892412
0.10172021
0.10353517
0.10533659
0.10712116
0.10888292
0.11061381
0.112305
0.11394782
0.11553463
0.11705943
0.11851791
0.11990778
0.12122941
0.12248351
0.12367663
0.12481574
0.12590238
0.12694017
0.12792824
0.12886428
0.12974706
0.13057615
0.13135319
0.1320817
0.1327665
0.13341276
0.13402504
0.13460633
0.13515758
0.13567787
0.13616543
0.13661879
0.13703761
0.13742257
0.13777454
0.13809384
0.13837973
0.13863042
0.13884338
0.13901574
0.13914476
0.13922854
0.13926632
0.1392588
0.13920845
0.13911976
0.13899886
0.13885228
0.13868526
0.13850079
0.13829997
0.13808297
0.13784996
0.13760141
0.13733796
0.1370604
0.13676983
0.13646793
0.13615702
0.13584021
0.13552078
0.13520349
0.13489209
0.1345899
0.1342994
0.13402149
0.13375521
0.13349812
0.1332475
0.13300129
0.13275913
0.13252276
0.132296
0.1320835
0.13188996
0.13171916
0.13157047
0.13143982
0.13132407
0.13121949
0.1311244
0.13104285
0.13098391
0.13095942
0.13097954
0.13104941
0.13116208
0.13131525
0.13150164
0.13171388
0.13194461
0.13218527
0.13240335
0.13255274
0.13259061
0.13250606
0.13231348
0.13204804
0.13175589
0.13148202
0.13125601
0.13109714
0.13099353
0.13091404
0.13082508
0.13070711
0.13057676
0.13047463
0.13042431
0.13040584
0.13038838
0.13036513
0.13031197
0.12994787
0.1295573
0.12923691
0.12913358
0.12917117
0.12993461
0.12965589
0.13131451
0.13019549
0.082917962
0.084836237
0.086753992
0.088669464
0.090578894
0.092479676
0.094368535
0.096243318
0.098102797
0.099947456
0.10177842
0.10359674
0.10540176
0.10719008
0.10895564
0.11069015
0.11238451
0.11402986
0.1156184
0.11714411
0.11860277
0.11999213
0.12131242
0.12256461
0.123756
0.12489252
0.12597647
0.127012
0.12799739
0.12893079
0.12981073
0.13063665
0.13141006
0.13213432
0.13281418
0.1334548
0.13406082
0.13463545
0.13517993
0.13569367
0.13617515
0.1366231
0.13703725
0.13741822
0.1377668
0.13808318
0.13836654
0.13861506
0.13882618
0.13899703
0.13912481
0.13920753
0.13924429
0.13923565
0.13918398
0.1390937
0.13897109
0.13882295
0.13865493
0.13847034
0.13827041
0.13805525
0.13782476
0.13757912
0.13731871
0.13704412
0.13675635
0.13645701
0.13614834
0.13583333
0.13551508
0.1351983
0.13488682
0.13458418
0.13429296
0.13401422
0.13374705
0.13348914
0.13323778
0.13299089
0.13274804
0.13251098
0.1322836
0.13207064
0.13187689
0.13170599
0.13155741
0.13142694
0.13131127
0.13120663
0.13111123
0.13102891
0.13096914
0.1309433
0.13096244
0.1310313
0.13114438
0.13129764
0.13148447
0.13169777
0.13192988
0.1321719
0.13239107
0.13254103
0.13257921
0.13249593
0.13230655
0.13204456
0.13175365
0.13147774
0.13124724
0.1310844
0.13097859
0.13089757
0.1308069
0.1306872
0.13055654
0.13045563
0.1304039
0.13038076
0.13035532
0.13032498
0.13027394
0.12989439
0.12951324
0.12918285
0.12909146
0.12915993
0.129933
0.12965784
0.13129263
0.13015692
0.13188117
0.088712354
0.090623595
0.092526622
0.094417382
0.096294361
0.098156359
0.10000372
0.1018376
0.10365904
0.10546738
0.10725917
0.10902829
0.1107662
0.11246359
0.11411141
0.11570168
0.11722832
0.11868717
0.12007607
0.12139487
0.12264536
0.12383515
0.124969
0.12605052
0.12708376
0.12806657
0.12899756
0.12987492
0.13069799
0.13146807
0.13218839
0.13286355
0.13349867
0.13409849
0.13466642
0.13520399
0.13571094
0.13618606
0.1366283
0.13703749
0.13741427
0.1377593
0.13807266
0.13835341
0.1385997
0.13880895
0.13897827
0.13910482
0.13918651
0.13922229
0.1392126
0.13915966
0.13906784
0.13894347
0.13879362
0.13862432
0.13843929
0.13823992
0.13802629
0.1377981
0.13755526
0.13729787
0.13702632
0.13674148
0.1364449
0.13613873
0.13582583
0.13550909
0.13519308
0.13488173
0.13457869
0.13428675
0.1340071
0.13373897
0.13348015
0.13322802
0.13298047
0.13273699
0.13249927
0.13227123
0.13205776
0.13186373
0.13169269
0.13154418
0.13141386
0.13129834
0.1311937
0.13109807
0.13101506
0.13095441
0.13092732
0.13094541
0.13101316
0.13112656
0.13128003
0.13146733
0.13168161
0.13191522
0.13215879
0.13237929
0.13252999
0.13256829
0.13248549
0.13229841
0.13203952
0.13175039
0.13147342
0.13123906
0.13107216
0.13096391
0.13088125
0.13078899
0.13066798
0.13053777
0.13043752
0.1303843
0.13035643
0.13032447
0.13028559
0.13023421
0.12984252
0.12947216
0.12913024
0.12905466
0.12914871
0.12993808
0.12966926
0.1312634
0.13011746
0.13176921
0.12949654
0.092576612
0.094468881
0.096347687
0.098212112
0.10006182
0.10189833
0.10372256
0.10553388
0.10732881
0.10910115
0.11084218
0.11254241
0.11419257
0.11578451
0.11731207
0.11877112
0.12015957
0.12147673
0.12272574
0.12391391
0.12504509
0.12612442
0.12715519
0.12813552
0.12906427
0.12993929
0.13075979
0.13152685
0.1322435
0.13291421
0.13354403
0.13413776
0.13469901
0.13522959
0.13572959
0.13619813
0.13663442
0.13703844
0.1374108
0.13775211
0.13806229
0.13834033
0.13858429
0.1387916
0.13895934
0.13908464
0.1391653
0.13920015
0.13918947
0.13913535
0.13904207
0.13891596
0.13876431
0.13859353
0.13840775
0.1382086
0.13799618
0.13777003
0.1375298
0.13727535
0.13700686
0.13672505
0.13643139
0.13612797
0.13581747
0.13550258
0.13518767
0.13487667
0.13457338
0.13428075
0.13400016
0.133731
0.1334712
0.13321826
0.13297003
0.13272595
0.13248761
0.13225894
0.13204491
0.13185054
0.1316793
0.13153078
0.1314006
0.13128526
0.13118066
0.13108486
0.13100131
0.13093971
0.13091153
0.13092842
0.13099508
0.13110853
0.13126249
0.1314501
0.13166542
0.13190061
0.13214586
0.13236794
0.13251963
0.13255798
0.13247498
0.13228922
0.1320329
0.13174592
0.13146886
0.13123145
0.13106051
0.1309495
0.13086504
0.13077138
0.13064953
0.13052015
0.13042049
0.13036538
0.1303327
0.1302956
0.13024795
0.13019483
0.12979335
0.12943107
0.12907986
0.12902355
0.12913465
0.12994392
0.12968587
0.13123282
0.13007723
0.13167577
0.12942665
0.13279866
0.09827026
0.10012189
0.10196091
0.1037875
0.10560139
0.10739907
0.10917423
0.11091804
0.11262083
0.11427316
0.1158667
0.11739517
0.1188544
0.12024231
0.12155784
0.12280558
0.12399199
0.12512064
0.12619791
0.127226
0.12820393
0.12913054
0.13000341
0.1308216
0.13158593
0.13229921
0.13296573
0.13359045
0.13417824
0.13473288
0.13525648
0.13574946
0.13621129
0.13664146
0.13704009
0.13740785
0.13774525
0.13805209
0.13832724
0.13856874
0.138774
0.1389401
0.13906411
0.13914373
0.13917768
0.13916609
0.1391109
0.13901627
0.13888849
0.13873502
0.13856263
0.13837584
0.13817659
0.13796505
0.13774065
0.13750281
0.13725116
0.13698567
0.13670694
0.13641633
0.13611584
0.13580804
0.13549533
0.13518186
0.13487151
0.13456816
0.13427493
0.13399342
0.13372319
0.13346237
0.13320855
0.13295962
0.13271496
0.13247604
0.13224673
0.13203213
0.13183734
0.13166585
0.13151728
0.13138719
0.13127202
0.13116749
0.13107158
0.13098761
0.13092506
0.13089597
0.13091137
0.13097709
0.13109051
0.13124485
0.13143282
0.13164921
0.13188604
0.13213307
0.13235696
0.13250991
0.13254839
0.13246462
0.13227917
0.13202475
0.13174011
0.13146385
0.13122434
0.13104954
0.13093536
0.13084889
0.13075398
0.13063169
0.13050343
0.13040474
0.13034739
0.13031038
0.1302684
0.13021242
0.13015306
0.1297465
0.1293887
0.1290328
0.12899708
0.12911895
0.12994742
0.12970209
0.13119707
0.13002946
0.13160199
0.12938502
0.13278402
0.12931386
0.10202555
0.10385402
0.10567
0.1074701
0.10924759
0.11099379
0.11269878
0.11435304
0.11594805
0.1174774
0.11893681
0.12032399
0.12163811
0.12288474
0.12406922
0.12519556
0.12627072
0.12729603
0.12827159
0.12919609
0.13006698
0.13088308
0.13164493
0.1323551
0.13301767
0.13363752
0.13421955
0.13476771
0.13528439
0.13577036
0.13622543
0.13664936
0.13704246
0.13740543
0.13773872
0.13804203
0.13831412
0.138553
0.13875608
0.13892043
0.13904308
0.13912164
0.1391547
0.13914226
0.13908612
0.13899028
0.13886096
0.13870572
0.13853164
0.13834366
0.13814402
0.13793304
0.13771007
0.13747436
0.13722532
0.13696275
0.13668707
0.13639958
0.13610219
0.13579731
0.13548713
0.13517547
0.13486611
0.13456294
0.13426928
0.13398691
0.13371563
0.13345374
0.13319898
0.13294931
0.13270404
0.13246456
0.13223464
0.13201944
0.13182419
0.13165238
0.13150369
0.13137364
0.13125862
0.13115417
0.13105819
0.13097393
0.1309105
0.13088051
0.13089437
0.13095932
0.13107246
0.13122707
0.13141552
0.131633
0.13187149
0.13212037
0.13234629
0.13250078
0.13253954
0.13245459
0.13226847
0.13201519
0.13173289
0.13145813
0.13121762
0.13103932
0.13092152
0.13083277
0.13073664
0.13061441
0.13048791
0.13039016
0.13033012
0.13028824
0.13024145
0.13017814
0.13010889
0.12970205
0.12934741
0.12898857
0.12897937
0.12910482
0.12994563
0.12971827
0.13115522
0.1299667
0.13154769
0.12936459
0.13277389
0.129305
0.13379813
0.10754198
0.10932118
0.1110694
0.11277617
0.11443203
0.11602835
0.1175585
0.11901811
0.1204044
0.1217174
0.12296302
0.12414546
0.1252698
0.12634265
0.12736515
0.12833837
0.12926075
0.13012977
0.13094395
0.13170354
0.13241082
0.13306968
0.13368487
0.13426134
0.13480318
0.13531307
0.1357921
0.13624042
0.13665807
0.13704552
0.13740355
0.13773254
0.1380321
0.13830092
0.13853699
0.13873773
0.13890022
0.13902142
0.13909887
0.13913105
0.13911782
0.13906084
0.13896397
0.13883328
0.13867637
0.1385006
0.13831128
0.13811103
0.1379003
0.13767845
0.13744458
0.13719793
0.13693811
0.13666543
0.13638107
0.13608686
0.13578512
0.13547776
0.13516829
0.13486028
0.13455761
0.13426373
0.13398065
0.13370837
0.1334454
0.13318964
0.13293917
0.13269326
0.13245319
0.13222267
0.13200684
0.13181109
0.13163892
0.13149008
0.13135999
0.13124508
0.13114071
0.1310447
0.13096022
0.13089606
0.13086504
0.13087766
0.13094165
0.13105433
0.13120917
0.13139822
0.13161679
0.13185693
0.13210772
0.13233585
0.13249214
0.1325314
0.13244503
0.13225735
0.13200436
0.13172423
0.1314516
0.13121115
0.13102987
0.13090804
0.13081667
0.13071925
0.13059748
0.13047305
0.1303761
0.13031339
0.13026595
0.13021717
0.13014506
0.13006579
0.1296589
0.12930977
0.12894717
0.12896757
0.12909477
0.12993851
0.12973708
0.13112305
0.12989638
0.13151081
0.12935617
0.1327587
0.12931193
0.13377809
0.12921347
0.11114496
0.11285294
0.11451
0.11610749
0.1176383
0.11909811
0.12048337
0.12179563
0.12304037
0.12422077
0.12534333
0.12641365
0.12743342
0.12840427
0.12932452
0.1301917
0.13100408
0.13176156
0.13246615
0.13312149
0.13373221
0.1343033
0.134839
0.13534226
0.13581448
0.13625613
0.1366675
0.13704925
0.13740219
0.13772669
0.13802228
0.1382876
0.13852065
0.13871887
0.13887935
0.13899902
0.1390753
0.13910658
0.13909261
0.13903491
0.13893716
0.13880529
0.13864689
0.13846948
0.13827877
0.13807771
0.13786698
0.13764594
0.13741362
0.1371691
0.13691185
0.13664203
0.13636076
0.13606978
0.1357713
0.13546703
0.1351601
0.13485384
0.13455202
0.1342582
0.1339746
0.13370145
0.13343743
0.13318064
0.13292928
0.13268265
0.13244197
0.13221082
0.13199437
0.13179809
0.13162551
0.13147647
0.13134629
0.13123142
0.13112712
0.1310311
0.13094646
0.13088173
0.13084958
0.13086118
0.13092402
0.13103615
0.13119125
0.13138094
0.1316006
0.13184236
0.13209511
0.13232557
0.13248389
0.13252391
0.13243606
0.13224606
0.13199248
0.13171419
0.13144402
0.13120471
0.13102118
0.13089499
0.13080063
0.13070164
0.13058054
0.13045909
0.13036279
0.13029693
0.13024433
0.130193
0.13011428
0.13002356
0.12961486
0.1292754
0.12890689
0.12895867
0.12909183
0.12992049
0.12976016
0.13109706
0.12982991
0.13148175
0.12935324
0.13274755
0.12932247
0.13373092
0.12918827
0.13508978
0.11618522
0.1177165
0.11917634
0.1205608
0.12187281
0.12311653
0.12429515
0.12541608
0.12648371
0.12750088
0.12846931
0.12938742
0.13025277
0.13106339
0.13181887
0.1325209
0.13317287
0.1337793
0.13434519
0.13487493
0.13537174
0.1358373
0.1362724
0.13667756
0.13705359
0.13740134
0.13772116
0.13801254
0.13827412
0.13850391
0.13869943
0.13885776
0.13897578
0.13905083
0.13908118
0.13906649
0.13900816
0.13890971
0.13877688
0.13861717
0.13843825
0.13824614
0.13804416
0.1378332
0.13761271
0.13738164
0.13713898
0.13688407
0.13661696
0.13633867
0.1360509
0.13575576
0.13545477
0.1351507
0.13484658
0.13454601
0.13425259
0.13396874
0.13369489
0.13342991
0.13317206
0.13291974
0.1326723
0.13243093
0.13219912
0.13198202
0.1317852
0.13161219
0.13146293
0.13133261
0.13121771
0.13111345
0.13101743
0.13093266
0.13086747
0.13083423
0.13084479
0.13090646
0.13101801
0.13117334
0.13136368
0.13158442
0.13182777
0.13208251
0.13231538
0.13247593
0.13251696
0.13242772
0.13223481
0.13197975
0.13170284
0.13143531
0.13119809
0.13101315
0.13088247
0.1307847
0.13068375
0.13056376
0.13044581
0.13034966
0.13028072
0.13022328
0.13016915
0.13008681
0.12998391
0.12957162
0.12924381
0.12886655
0.12895465
0.12909192
0.12987435
0.12978855
0.13107408
0.12977925
0.13145157
0.12935601
0.13271086
0.12933352
0.13367574
0.12916316
0.13510028
0.12892703
0.11925229
0.12063645
0.12194858
0.1231913
0.12436857
0.12548783
0.12655281
0.12756753
0.12853353
0.12944948
0.13031296
0.13112182
0.13187536
0.13257492
0.13322363
0.1338259
0.13438674
0.1349107
0.13540124
0.13586034
0.13628905
0.13668811
0.13705843
0.13740092
0.13771589
0.13800284
0.13826041
0.1384867
0.13867932
0.13883535
0.13895162
0.13902538
0.13905477
0.13903937
0.1389805
0.1388815
0.13874793
0.13858714
0.13840687
0.13821343
0.13801045
0.1377991
0.13757891
0.13734883