/*--------------------------------*- C++ -*----------------------------------*\
| =========                 |                                                 |
| \\      /  F ield         | OpenFOAM: The Open Source CFD Toolbox           |
|  \\    /   O peration     | Version:  2506                                  |
|   \\  /    A nd           | Website:  www.openfoam.com                      |
|    \\/     M anipulation  |                                                 |
\*---------------------------------------------------------------------------*/
FoamFile
{
    version     2.0;
    format      ascii;
    arch        "LSB;label=32;scalar=64";
    class       volScalarField;
    location    "0.023";
    object      nut;
}
// * * * * * * * * * * * * * * * * * * * * * * * * * * * * * * * * * * * * * //

dimensions      [0 2 -1 0 0 0 0];

internalField   nonuniform List<scalar> 
13761
(
3.7468285e-06
3.7468083e-06
3.7467971e-06
3.7467871e-06
3.7467697e-06
3.6607027e-06
3.7467611e-06
3.6607027e-06
3.7467451e-06
3.6607027e-06
3.7467378e-06
3.6607027e-06
3.746723e-06
3.6607026e-06
3.7467169e-06
3.6604491e-06
3.6607025e-06
3.7467119e-06
3.660449e-06
3.6607026e-06
3.7466994e-06
3.6604489e-06
3.6607026e-06
3.7466958e-06
3.6604488e-06
3.6607026e-06
3.7466847e-06
3.6604488e-06
3.6607026e-06
3.7466827e-06
3.6604487e-06
3.6607026e-06
3.7466738e-06
3.660462e-06
3.6604485e-06
3.6607027e-06
3.7466746e-06
3.6604619e-06
3.6604485e-06
3.6607029e-06
3.7466779e-06
3.6604618e-06
3.6604485e-06
3.6607031e-06
3.7466754e-06
3.6604618e-06
3.6604485e-06
3.6607036e-06
3.7466841e-06
3.6604617e-06
3.6604485e-06
3.6607043e-06
3.7466881e-06
3.6604616e-06
3.6604485e-06
3.6607056e-06
3.7467038e-06
3.6604443e-06
3.6604613e-06
3.6604486e-06
3.6607077e-06
3.7467238e-06
3.6604442e-06
3.6604613e-06
3.6604487e-06
3.6607108e-06
3.7467389e-06
3.660444e-06
3.6604613e-06
3.6604488e-06
3.6607154e-06
3.7467644e-06
3.6604439e-06
3.6604613e-06
3.6604491e-06
3.660722e-06
3.7467827e-06
3.6604438e-06
3.6604614e-06
3.6604496e-06
3.660731e-06
3.7468086e-06
3.6604422e-06
3.6604434e-06
3.6604614e-06
3.6604505e-06
3.6607429e-06
3.746824e-06
3.6604421e-06
3.6604434e-06
3.6604615e-06
3.6604518e-06
3.6607579e-06
3.7468437e-06
3.6604419e-06
3.6604434e-06
3.6604616e-06
3.660454e-06
3.6607761e-06
3.7468591e-06
3.6604418e-06
3.6604434e-06
3.6604618e-06
3.6604572e-06
3.6607969e-06
3.7468606e-06
3.6604416e-06
3.6604434e-06
3.6604621e-06
3.6604618e-06
3.6608195e-06
3.7468642e-06
3.6604414e-06
3.6604434e-06
3.6604627e-06
3.6604685e-06
3.6608429e-06
3.7468534e-06
3.6604341e-06
3.6604409e-06
3.6604434e-06
3.6604635e-06
3.6604774e-06
3.6608654e-06
3.7468447e-06
3.6604339e-06
3.6604409e-06
3.6604435e-06
3.6604649e-06
3.6604892e-06
3.6608857e-06
3.7468227e-06
3.6604337e-06
3.6604409e-06
3.6604435e-06
3.6604671e-06
3.660504e-06
3.6609021e-06
3.7468058e-06
3.6604336e-06
3.6604409e-06
3.6604436e-06
3.6604703e-06
3.6605217e-06
3.6609138e-06
3.7467896e-06
3.6604333e-06
3.660441e-06
3.6604438e-06
3.660475e-06
3.660542e-06
3.6609201e-06
3.7467693e-06
3.6604306e-06
3.6604326e-06
3.660441e-06
3.6604441e-06
3.6604816e-06
3.6605643e-06
3.6609205e-06
3.7467638e-06
3.6604304e-06
3.6604326e-06
3.660441e-06
3.6604447e-06
3.6604904e-06
3.6605872e-06
3.6609151e-06
3.7467564e-06
3.6604301e-06
3.6604326e-06
3.660441e-06
3.6604456e-06
3.6605019e-06
3.6606096e-06
3.6609038e-06
3.7467596e-06
3.6604298e-06
3.6604326e-06
3.6604411e-06
3.660447e-06
3.6605163e-06
3.6606299e-06
3.6608871e-06
3.7467542e-06
3.6604296e-06
3.6604326e-06
3.6604412e-06
3.6604491e-06
3.6605336e-06
3.6606468e-06
3.6608663e-06
3.7467661e-06
3.6604291e-06
3.6604326e-06
3.6604413e-06
3.6604523e-06
3.6605534e-06
3.6606593e-06
3.6608437e-06
3.7468236e-06
3.6604348e-06
3.6604282e-06
3.6604327e-06
3.6604415e-06
3.6604568e-06
3.6605751e-06
3.6606668e-06
3.6608229e-06
3.7469377e-06
3.6604344e-06
3.6604282e-06
3.6604327e-06
3.6604418e-06
3.6604632e-06
3.6605977e-06
3.660669e-06
3.6608073e-06
3.660434e-06
3.6604282e-06
3.6604327e-06
3.6604424e-06
3.6604718e-06
3.6606198e-06
3.6606658e-06
3.6607988e-06
3.6604336e-06
3.6604282e-06
3.6604328e-06
3.6604433e-06
3.6604829e-06
3.6606402e-06
3.6606571e-06
3.660796e-06
3.660433e-06
3.6604282e-06
3.6604328e-06
3.6604446e-06
3.6604968e-06
3.6606576e-06
3.6606431e-06
3.6607956e-06
3.6604587e-06
3.6604318e-06
3.6604281e-06
3.660433e-06
3.6604467e-06
3.6605135e-06
3.660671e-06
3.6606245e-06
3.6607973e-06
3.6604582e-06
3.6604317e-06
3.6604281e-06
3.6604332e-06
3.6604498e-06
3.6605327e-06
3.6606797e-06
3.6606027e-06
3.6608158e-06
3.6604577e-06
3.6604316e-06
3.6604281e-06
3.6604335e-06
3.6604542e-06
3.6605539e-06
3.6606835e-06
3.6605807e-06
3.6608908e-06
3.6604573e-06
3.6604316e-06
3.6604281e-06
3.660434e-06
3.6604603e-06
3.6605761e-06
3.6606823e-06
3.6605617e-06
3.6610342e-06
3.6604568e-06
3.6604315e-06
3.6604281e-06
3.6604349e-06
3.6604685e-06
3.6605981e-06
3.6606761e-06
3.6605489e-06
3.660456e-06
3.6604314e-06
3.6604282e-06
3.6604362e-06
3.6604792e-06
3.6606186e-06
3.6606649e-06
3.6605429e-06
3.660492e-06
3.6604546e-06
3.6604313e-06
3.6604283e-06
3.6604382e-06
3.6604926e-06
3.6606365e-06
3.6606489e-06
3.6605417e-06
3.6604914e-06
3.6604544e-06
3.6604312e-06
3.6604284e-06
3.6604411e-06
3.6605087e-06
3.6606508e-06
3.6606291e-06
3.6605416e-06
3.6604909e-06
3.6604543e-06
3.6604312e-06
3.6604287e-06
3.6604453e-06
3.6605273e-06
3.6606607e-06
3.6606071e-06
3.6605435e-06
3.6604903e-06
3.6604542e-06
3.6604311e-06
3.6604292e-06
3.6604512e-06
3.6605479e-06
3.6606661e-06
3.6605862e-06
3.6605641e-06
3.6604894e-06
3.6604541e-06
3.6604311e-06
3.66043e-06
3.660459e-06
3.6605697e-06
3.6606668e-06
3.6605695e-06
3.6606432e-06
3.6605106e-06
3.6604877e-06
3.6604539e-06
3.660431e-06
3.6604312e-06
3.6604692e-06
3.6605916e-06
3.6606629e-06
3.6605593e-06
3.6607862e-06
3.6605103e-06
3.6604875e-06
3.6604538e-06
3.660431e-06
3.6604331e-06
3.660482e-06
3.6606124e-06
3.6606543e-06
3.6605557e-06
3.6605101e-06
3.6604873e-06
3.6604537e-06
3.6604311e-06
3.6604358e-06
3.6604974e-06
3.6606309e-06
3.660641e-06
3.6605555e-06
3.6605099e-06
3.6604872e-06
3.6604536e-06
3.6604313e-06
3.6604398e-06
3.6605153e-06
3.6606461e-06
3.6606235e-06
3.6605554e-06
3.6605094e-06
3.660487e-06
3.6604534e-06
3.6604317e-06
3.6604453e-06
3.6605353e-06
3.6606573e-06
3.6606028e-06
3.6605574e-06
3.6604644e-06
3.6605078e-06
3.6604869e-06
3.6604533e-06
3.6604324e-06
3.6604526e-06
3.6605567e-06
3.6606643e-06
3.6605811e-06
3.6605798e-06
3.6604643e-06
3.6605081e-06
3.6604867e-06
3.6604533e-06
3.6604335e-06
3.6604622e-06
3.6605784e-06
3.6606668e-06
3.6605615e-06
3.660662e-06
3.6604643e-06
3.6605084e-06
3.6604866e-06
3.6604532e-06
3.6604352e-06
3.6604743e-06
3.6605993e-06
3.6606649e-06
3.6605471e-06
3.6608034e-06
3.6604638e-06
3.6605087e-06
3.6604864e-06
3.6604532e-06
3.6604377e-06
3.660489e-06
3.6606183e-06
3.6606586e-06
3.6605395e-06
3.6603754e-06
3.6604622e-06
3.6605089e-06
3.6604863e-06
3.6604534e-06
3.6604413e-06
3.6605062e-06
3.6606343e-06
3.660648e-06
3.6605376e-06
3.6603747e-06
3.6604626e-06
3.6605092e-06
3.6604862e-06
3.6604537e-06
3.6604463e-06
3.6605256e-06
3.6606467e-06
3.660633e-06
3.6605381e-06
3.6603742e-06
3.660463e-06
3.6605095e-06
3.660486e-06
3.6604542e-06
3.6604531e-06
3.6605464e-06
3.660655e-06
3.6606142e-06
3.660538e-06
3.6603737e-06
3.6604634e-06
3.6605098e-06
3.6604859e-06
3.6604551e-06
3.6604621e-06
3.6605678e-06
3.6606592e-06
3.6605929e-06
3.6605403e-06
3.6603726e-06
3.6604638e-06
3.6605101e-06
3.6604859e-06
3.6604566e-06
3.6604734e-06
3.6605888e-06
3.6606592e-06
3.6605717e-06
3.6605652e-06
3.6603979e-06
3.6603704e-06
3.6604642e-06
3.6605104e-06
3.6604859e-06
3.6604589e-06
3.6604873e-06
3.6606082e-06
3.6606552e-06
3.6605537e-06
3.6606513e-06
3.6603971e-06
3.6603704e-06
3.6604646e-06
3.6605107e-06
3.660486e-06
3.6604621e-06
3.6605037e-06
3.660625e-06
3.6606471e-06
3.6605415e-06
3.6607924e-06
3.6603963e-06
3.6603705e-06
3.6604649e-06
3.660511e-06
3.6604862e-06
3.6604667e-06
3.6605222e-06
3.6606386e-06
3.6606347e-06
3.6605361e-06
3.6603948e-06
3.6603706e-06
3.6604653e-06
3.6605113e-06
3.6604867e-06
3.660473e-06
3.6605424e-06
3.6606483e-06
3.6606183e-06
3.6605356e-06
3.6603825e-06
3.660392e-06
3.6603707e-06
3.6604657e-06
3.6605116e-06
3.6604875e-06
3.6604813e-06
3.6605634e-06
3.660654e-06
3.6605986e-06
3.6605364e-06
3.6603822e-06
3.6603918e-06
3.6603708e-06
3.6604661e-06
3.660512e-06
3.6604888e-06
3.6604918e-06
3.6605844e-06
3.6606558e-06
3.6605773e-06
3.6605359e-06
3.6603818e-06
3.6603917e-06
3.660371e-06
3.6604665e-06
3.6605125e-06
3.6604909e-06
3.6605048e-06
3.6606041e-06
3.6606537e-06
3.660557e-06
3.6605386e-06
3.6603807e-06
3.6603915e-06
3.6603711e-06
3.6604669e-06
3.6605131e-06
3.6604938e-06
3.6605203e-06
3.6606216e-06
3.6606479e-06
3.6605407e-06
3.6605657e-06
3.6602231e-06
3.660378e-06
3.6603914e-06
3.6603712e-06
3.6604673e-06
3.6605138e-06
3.6604981e-06
3.660538e-06
3.6606361e-06
3.6606381e-06
3.6605308e-06
3.6606551e-06
3.6602241e-06
3.6603784e-06
3.6603912e-06
3.6603714e-06
3.6604678e-06
3.6605149e-06
3.6605038e-06
3.6605575e-06
3.6606471e-06
3.6606243e-06
3.6605273e-06
3.6607951e-06
3.660225e-06
3.6603788e-06
3.6603911e-06
3.6603716e-06
3.6604682e-06
3.6605165e-06
3.6605115e-06
3.6605781e-06
3.6606543e-06
3.6606067e-06
3.6605278e-06
3.660225e-06
3.6603792e-06
3.6603909e-06
3.6603717e-06
3.6604688e-06
3.6605187e-06
3.6605214e-06
3.6605988e-06
3.6606577e-06
3.6605864e-06
3.6605286e-06
3.6599076e-06
3.6602235e-06
3.6603796e-06
3.6603908e-06
3.6603719e-06
3.6604694e-06
3.6605217e-06
3.6605336e-06
3.6606188e-06
3.6606574e-06
3.6605652e-06
3.6605276e-06
3.6599091e-06
3.6602252e-06
3.66038e-06
3.6603906e-06
3.6603721e-06
3.6604702e-06
3.6605259e-06
3.6605483e-06
3.6606369e-06
3.6606536e-06
3.660546e-06
3.6605304e-06
3.6599105e-06
3.660227e-06
3.6603805e-06
3.6603904e-06
3.6603723e-06
3.6604712e-06
3.6605315e-06
3.6605652e-06
3.6606524e-06
3.6606461e-06
3.6605317e-06
3.6605595e-06
3.659911e-06
3.6602287e-06
3.6603809e-06
3.6603902e-06
3.6603725e-06
3.6604724e-06
3.6605389e-06
3.6605841e-06
3.6606645e-06
3.6606348e-06
3.6605239e-06
3.6606516e-06
3.659557e-06
3.6599099e-06
3.6602305e-06
3.6603814e-06
3.66039e-06
3.6603728e-06
3.6604741e-06
3.6605483e-06
3.6606043e-06
3.6606731e-06
3.6606197e-06
3.660522e-06
3.6607897e-06
3.6595597e-06
3.6599124e-06
3.6602323e-06
3.6603819e-06
3.6603899e-06
3.6603731e-06
3.6604764e-06
3.6605599e-06
3.660625e-06
3.660678e-06
3.6606011e-06
3.6605232e-06
3.6595622e-06
3.6599149e-06
3.6602341e-06
3.6603824e-06
3.6603897e-06
3.6603736e-06
3.6604795e-06
3.660574e-06
3.6606453e-06
3.6606794e-06
3.6605803e-06
3.6605237e-06
3.6595639e-06
3.6599174e-06
3.6602359e-06
3.6603829e-06
3.6603895e-06
3.6603743e-06
3.6604837e-06
3.6605903e-06
3.6606641e-06
3.6606774e-06
3.6605596e-06
3.6605222e-06
3.6591673e-06
3.6595641e-06
3.6599199e-06
3.6602377e-06
3.6603834e-06
3.6603893e-06
3.6603752e-06
3.6604892e-06
3.6606086e-06
3.6606806e-06
3.660672e-06
3.6605417e-06
3.6605255e-06
3.6591696e-06
3.6595678e-06
3.6599225e-06
3.6602395e-06
3.6603839e-06
3.6603892e-06
3.6603764e-06
3.6604963e-06
3.6606285e-06
3.660694e-06
3.6606631e-06
3.6605292e-06
3.6605569e-06
3.659171e-06
3.6595716e-06
3.6599251e-06
3.6602413e-06
3.6603845e-06
3.6603891e-06
3.6603782e-06
3.6605055e-06
3.660649e-06
3.660704e-06
3.6606505e-06
3.6605233e-06
3.660652e-06
3.6590194e-06
3.6591711e-06
3.6595754e-06
3.6599278e-06
3.6602431e-06
3.6603851e-06
3.6603892e-06
3.6603807e-06
3.6605168e-06
3.6606695e-06
3.6607104e-06
3.6606341e-06
3.6605227e-06
3.6607885e-06
3.6590164e-06
3.6591747e-06
3.6595792e-06
3.6599304e-06
3.6602449e-06
3.6603857e-06
3.6603893e-06
3.6603842e-06
3.6605305e-06
3.6606889e-06
3.6607133e-06
3.6606147e-06
3.6605242e-06
3.6590128e-06
3.6591783e-06
3.659583e-06
3.6599331e-06
3.6602467e-06
3.6603863e-06
3.6603897e-06
3.6603889e-06
3.6605464e-06
3.6607064e-06
3.6607129e-06
3.6605937e-06
3.6605242e-06
3.6594837e-06
3.6590082e-06
3.6591819e-06
3.6595869e-06
3.6599358e-06
3.6602486e-06
3.6603871e-06
3.6603905e-06
3.6603952e-06
3.6605646e-06
3.6607212e-06
3.6607092e-06
3.6605735e-06
3.6605222e-06
3.6594681e-06
3.6590069e-06
3.6591856e-06
3.6595907e-06
3.6599385e-06
3.6602504e-06
3.6603879e-06
3.6603917e-06
3.6604033e-06
3.6605844e-06
3.6607328e-06
3.6607023e-06
3.6605571e-06
3.6605259e-06
3.6594524e-06
3.6590057e-06
3.6591893e-06
3.6595945e-06
3.6599412e-06
3.6602522e-06
3.6603888e-06
3.6603935e-06
3.6604135e-06
3.6606052e-06
3.660741e-06
3.6606919e-06
3.6605464e-06
3.6605597e-06
3.6604895e-06
3.6594357e-06
3.6590046e-06
3.6591931e-06
3.6595984e-06
3.659944e-06
3.6602541e-06
3.66039e-06
3.6603963e-06
3.6604259e-06
3.6606264e-06
3.6607459e-06
3.6606778e-06
3.6605422e-06
3.6606575e-06
3.6604629e-06
3.6594225e-06
3.6590036e-06
3.6591969e-06
3.6596022e-06
3.6599468e-06
3.660256e-06
3.6603914e-06
3.6604002e-06
3.6604406e-06
3.6606468e-06
3.6607476e-06
3.6606603e-06
3.6605425e-06
3.6607923e-06
3.6604366e-06
3.6594095e-06
3.6590027e-06
3.6592008e-06
3.6596061e-06
3.6599496e-06
3.660258e-06
3.6603933e-06
3.6604055e-06
3.6604575e-06
3.6606657e-06
3.6607463e-06
3.6606401e-06
3.660544e-06
3.6616017e-06
3.6604091e-06
3.6593968e-06
3.659002e-06
3.6592046e-06
3.6596099e-06
3.6599525e-06
3.66026e-06
3.6603958e-06
3.6604126e-06
3.6604762e-06
3.6606822e-06
3.6607419e-06
3.6606191e-06
3.6605434e-06
3.6615576e-06
3.6603853e-06
3.6593842e-06
3.6590013e-06
3.6592085e-06
3.6596137e-06
3.6599554e-06
3.6602622e-06
3.6603991e-06
3.6604216e-06
3.6604962e-06
3.6606957e-06
3.6607343e-06
3.6605997e-06
3.6605408e-06
3.6615138e-06
3.6603616e-06
3.6593719e-06
3.6590007e-06
3.6592125e-06
3.6596176e-06
3.6599583e-06
3.6602645e-06
3.6604034e-06
3.6604329e-06
3.6605167e-06
3.660706e-06
3.6607233e-06
3.6605847e-06
3.6605451e-06
3.6624225e-06
3.6614685e-06
3.6603382e-06
3.6593598e-06
3.6590002e-06
3.6592165e-06
3.6596214e-06
3.6599613e-06
3.6602671e-06
3.660409e-06
3.6604464e-06
3.6605369e-06
3.660713e-06
3.6607087e-06
3.6605759e-06
3.6605813e-06
3.6623874e-06
3.6614279e-06
3.6603149e-06
3.659348e-06
3.6589998e-06
3.6592205e-06
3.6596252e-06
3.6599644e-06
3.66027e-06
3.6604162e-06
3.6604622e-06
3.6605559e-06
3.6607167e-06
3.6606908e-06
3.6605732e-06
3.6606817e-06
3.6615631e-06
3.6623499e-06
3.6613876e-06
3.6602917e-06
3.6593364e-06
3.6589996e-06
3.6592246e-06
3.659629e-06
3.6599676e-06
3.6602735e-06
3.6604252e-06
3.6604799e-06
3.6605729e-06
3.6607174e-06
3.6606707e-06
3.6605743e-06
3.6608145e-06
3.6615966e-06
3.6623167e-06
3.6613477e-06
3.6602686e-06
3.659325e-06
3.6589994e-06
3.6592287e-06
3.6596329e-06
3.659971e-06
3.6602777e-06
3.6604364e-06
3.6604992e-06
3.6605872e-06
3.6607152e-06
3.6606504e-06
3.6605758e-06
3.6579256e-06
3.6616257e-06
3.6622824e-06
3.6613083e-06
3.6602457e-06
3.6593138e-06
3.6589992e-06
3.6592329e-06
3.6596368e-06
3.6599747e-06
3.6602829e-06
3.6604497e-06
3.6605192e-06
3.6605985e-06
3.66071e-06
3.6606325e-06
3.6605747e-06
3.6580635e-06
3.6616585e-06
3.6622473e-06
3.6612693e-06
3.6602228e-06
3.6593028e-06
3.6589992e-06
3.6592371e-06
3.6596407e-06
3.6599787e-06
3.6602893e-06
3.6604652e-06
3.6605393e-06
3.6606064e-06
3.6607017e-06
3.6606196e-06
3.6605719e-06
3.658201e-06
3.6616887e-06
3.6622112e-06
3.6612307e-06
3.6602e-06
3.6592921e-06
3.6589994e-06
3.6592414e-06
3.6596448e-06
3.6599832e-06
3.6602971e-06
3.6604828e-06
3.6605585e-06
3.6606112e-06
3.66069e-06
3.6606129e-06
3.6605772e-06
3.654672e-06
3.6583363e-06
3.6617163e-06
3.6621743e-06
3.6611925e-06
3.6601772e-06
3.6592816e-06
3.6589996e-06
3.6592457e-06
3.659649e-06
3.6599883e-06
3.6603067e-06
3.660502e-06
3.6605759e-06
3.660613e-06
3.6606748e-06
3.6606118e-06
3.660616e-06
3.6547164e-06
3.6584791e-06
3.6617414e-06
3.6621365e-06
3.6611549e-06
3.6601546e-06
3.6592713e-06
3.6589999e-06
3.6592502e-06
3.6596534e-06
3.6599944e-06
3.6603184e-06
3.6605222e-06
3.660591e-06
3.660612e-06
3.6606566e-06
3.6606137e-06
3.6607191e-06
3.6547942e-06
3.654761e-06
3.6586214e-06
3.6617639e-06
3.6620978e-06
3.6611177e-06
3.660132e-06
3.6592612e-06
3.6590003e-06
3.6592547e-06
3.6596581e-06
3.6600015e-06
3.6603321e-06
3.6605428e-06
3.6606031e-06
3.6606082e-06
3.6606368e-06
3.6606151e-06
3.6608498e-06
3.6547768e-06
3.6548176e-06
3.6587627e-06
3.6617839e-06
3.6620584e-06
3.6610811e-06
3.6601095e-06
3.6592514e-06
3.6590009e-06
3.6592595e-06
3.6596633e-06
3.6600101e-06
3.6603481e-06
3.6605629e-06
3.660612e-06
3.6606015e-06
3.6606175e-06
3.6606135e-06
3.6569478e-06
3.654755e-06
3.6548791e-06
3.6589021e-06
3.6618013e-06
3.6620182e-06
3.661045e-06
3.6600871e-06
3.6592417e-06
3.6590016e-06
3.6592645e-06
3.6596691e-06
3.6600203e-06
3.6603661e-06
3.6605818e-06
3.6606176e-06
3.6605916e-06
3.6606014e-06
3.6606105e-06
3.659354e-06
3.6569375e-06
3.6547409e-06
3.6549463e-06
3.6590391e-06
3.6618162e-06
3.6619773e-06
3.6610095e-06
3.6600648e-06
3.6592323e-06
3.6590024e-06
3.6592697e-06
3.6596757e-06
3.6600324e-06
3.660386e-06
3.6605986e-06
3.6606202e-06
3.6605784e-06
3.6605907e-06
3.6606166e-06
3.6593565e-06
3.6569334e-06
3.6547272e-06
3.6550193e-06
3.6591731e-06
3.6618286e-06
3.6619357e-06
3.6609745e-06
3.6600426e-06
3.6592231e-06
3.6590034e-06
3.6592754e-06
3.6596833e-06
3.6600466e-06
3.6604071e-06
3.6606128e-06
3.6606199e-06
3.6605618e-06
3.6605862e-06
3.6606579e-06
3.660339e-06
3.6593534e-06
3.6569272e-06
3.6547141e-06
3.6550987e-06
3.6593036e-06
3.6618385e-06
3.6618935e-06
3.66094e-06
3.6600206e-06
3.6592142e-06
3.6590047e-06
3.6592817e-06
3.6596922e-06
3.660063e-06
3.6604288e-06
3.660624e-06
3.660617e-06
3.6605426e-06
3.6605869e-06
3.6607631e-06
3.6602888e-06
3.6593575e-06
3.6569187e-06
3.6547018e-06
3.6551847e-06
3.6594302e-06
3.6618459e-06
3.6618507e-06
3.6609062e-06
3.6599987e-06
3.6592055e-06
3.6590062e-06
3.6592887e-06
3.6597028e-06
3.6600815e-06
3.6604504e-06
3.6606322e-06
3.6606114e-06
3.6605223e-06
3.6605898e-06
3.6608918e-06
3.6598645e-06
3.6602369e-06
3.6593599e-06
3.6569079e-06
3.6546906e-06
3.6552778e-06
3.6595525e-06
3.6618509e-06
3.6618075e-06
3.6608728e-06
3.6599769e-06
3.6591971e-06
3.659008e-06
3.6592966e-06
3.6597151e-06
3.6601019e-06
3.660471e-06
3.6606373e-06
3.6606029e-06
3.6605034e-06
3.6605916e-06
3.6576204e-06
3.6598075e-06
3.6601973e-06
3.6593605e-06
3.6568943e-06
3.654681e-06
3.6553782e-06
3.6596701e-06
3.6618533e-06
3.6617637e-06
3.66084e-06
3.6599553e-06
3.6591889e-06
3.6590103e-06
3.6593058e-06
3.6597295e-06
3.6601238e-06
3.6604898e-06
3.6606397e-06
3.6605913e-06
3.6604882e-06
3.6605903e-06
3.6529383e-06
3.6576274e-06
3.6597608e-06
3.6601608e-06
3.6593592e-06
3.6568779e-06
3.654673e-06
3.6554862e-06
3.6597828e-06
3.6618533e-06
3.6617196e-06
3.6608078e-06
3.6599339e-06
3.6591812e-06
3.6590132e-06
3.6593164e-06
3.6597462e-06
3.6601467e-06
3.6605061e-06
3.6606395e-06
3.6605764e-06
3.6604788e-06
3.6605881e-06
3.6529708e-06
3.6576435e-06
3.6597149e-06
3.6601275e-06
3.6593556e-06
3.6568582e-06
3.6546672e-06
3.6556018e-06
3.6598904e-06
3.6618508e-06
3.6616751e-06
3.660776e-06
3.6599128e-06
3.6591739e-06
3.6590168e-06
3.6593288e-06
3.6597649e-06
3.6601697e-06
3.6605196e-06
3.6606368e-06
3.6605583e-06
3.6604756e-06
3.660596e-06
3.6418762e-06
3.6529966e-06
3.6576582e-06
3.6596699e-06
3.6600974e-06
3.6593498e-06
3.6568352e-06
3.6546637e-06
3.6557248e-06
3.6599929e-06
3.6618457e-06
3.6616303e-06
3.6607448e-06
3.6598919e-06
3.6591671e-06
3.6590214e-06
3.6593431e-06
3.6597858e-06
3.6601921e-06
3.6605301e-06
3.6606314e-06
3.6605381e-06
3.6604769e-06
3.6606403e-06
3.6196144e-06
3.6419258e-06
3.6530311e-06
3.6576717e-06
3.6596258e-06
3.6600704e-06
3.6593416e-06
3.6568089e-06
3.6546625e-06
3.655855e-06
3.6600905e-06
3.6618382e-06
3.6615853e-06
3.6607142e-06
3.6598714e-06
3.6591609e-06
3.6590272e-06
3.6593595e-06
3.6598083e-06
3.6602131e-06
3.6605374e-06
3.6606231e-06
3.6605176e-06
3.6604797e-06
3.6607481e-06
3.5848416e-06
3.619693e-06
3.6419938e-06
3.6530642e-06
3.6576835e-06
3.6595829e-06
3.6600467e-06
3.6593308e-06
3.6567794e-06
3.6546637e-06
3.6559921e-06
3.6601834e-06
3.6618282e-06
3.6615402e-06
3.6606841e-06
3.6598513e-06
3.6591555e-06
3.6590344e-06
3.659378e-06
3.6598319e-06
3.660232e-06
3.6605418e-06
3.6606115e-06
3.6604989e-06
3.6604809e-06
3.6608753e-06
3.5405868e-06
3.5849812e-06
3.6197916e-06
3.6420681e-06
3.6530957e-06
3.6576938e-06
3.6595414e-06
3.6600263e-06
3.6593173e-06
3.6567469e-06
3.6546672e-06
3.6561356e-06
3.6602718e-06
3.6618157e-06
3.6614949e-06
3.6606545e-06
3.6598318e-06
3.6591511e-06
3.6590434e-06
3.6593987e-06
3.6598561e-06
3.6602483e-06
3.6605436e-06
3.6605966e-06
3.6604847e-06
3.6604789e-06
3.4966043e-06
3.5407975e-06
3.5851464e-06
3.6198996e-06
3.6421464e-06
3.6531259e-06
3.6577023e-06
3.6595014e-06
3.6600091e-06
3.659301e-06
3.6567115e-06
3.6546729e-06
3.6562849e-06
3.6603559e-06
3.6618008e-06
3.6614496e-06
3.6606255e-06
3.6598128e-06
3.6591479e-06
3.6590542e-06
3.6594211e-06
3.6598799e-06
3.6602616e-06
3.660543e-06
3.6605787e-06
3.6604765e-06
3.6604764e-06
3.4699335e-06
3.4968689e-06
3.5410486e-06
3.5853256e-06
3.6200176e-06
3.6422266e-06
3.6531546e-06
3.6577091e-06
3.6594634e-06
3.6599951e-06
3.6592818e-06
3.6566736e-06
3.6546809e-06
3.6564398e-06
3.660436e-06
3.6617834e-06
3.6614043e-06
3.6605971e-06
3.6597947e-06
3.6591462e-06
3.6590672e-06
3.6594449e-06
3.6599026e-06
3.660272e-06
3.6605398e-06
3.6605591e-06
3.6604741e-06
3.6604853e-06
3.5026487e-06
3.4748302e-06
3.4702282e-06
3.4971956e-06
3.541325e-06
3.585518e-06
3.620146e-06
3.6423069e-06
3.6531814e-06
3.6577143e-06
3.6594279e-06
3.659984e-06
3.6592595e-06
3.6566333e-06
3.654691e-06
3.6565997e-06
3.6605121e-06
3.6617636e-06
3.6613591e-06
3.6605695e-06
3.6597775e-06
3.6591462e-06
3.6590825e-06
3.6594695e-06
3.6599234e-06
3.6602794e-06
3.6605341e-06
3.6605397e-06
3.6604757e-06
3.6605317e-06
3.5151998e-06
3.502592e-06
3.4750742e-06
3.4706066e-06
3.4975695e-06
3.5416226e-06
3.585723e-06
3.6202853e-06
3.6423861e-06
3.6532064e-06
3.6577178e-06
3.6593951e-06
3.6599756e-06
3.6592343e-06
3.6565908e-06
3.6547034e-06
3.6567642e-06
3.6605845e-06
3.6617416e-06
3.6613141e-06
3.6605426e-06
3.6597616e-06
3.6591481e-06
3.6590999e-06
3.6594942e-06
3.6599418e-06
3.6602841e-06
3.6605254e-06
3.660523e-06
3.6604781e-06
3.6606411e-06
3.4773523e-06
3.4934482e-06
3.5149574e-06
3.5026096e-06
3.4754033e-06
3.4710531e-06
3.4979865e-06
3.5419381e-06
3.5859402e-06
3.620435e-06
3.6424633e-06
3.6532294e-06
3.6577197e-06
3.6593653e-06
3.6599698e-06
3.6592062e-06
3.6565464e-06
3.6547181e-06
3.656933e-06
3.6606531e-06
3.6617172e-06
3.6612694e-06
3.6605166e-06
3.659747e-06
3.6591521e-06
3.6591192e-06
3.6595183e-06
3.6599572e-06
3.6602863e-06
3.6605136e-06
3.6605111e-06
3.6604784e-06
3.660767e-06
3.4865373e-06
3.4836696e-06
3.4776513e-06
3.4933317e-06
3.5147346e-06
3.502706e-06
3.4758158e-06
3.4715632e-06
3.498442e-06
3.5422695e-06
3.5861689e-06
3.620595e-06
3.6425383e-06
3.6532506e-06
3.6577202e-06
3.6593382e-06
3.6599663e-06
3.6591755e-06
3.6565e-06
3.6547353e-06
3.6571055e-06
3.660718e-06
3.6616907e-06
3.661225e-06
3.6604917e-06
3.6597342e-06
3.6591585e-06
3.6591402e-06
3.659541e-06
3.6599696e-06
3.6602862e-06
3.6604986e-06
3.6605052e-06
3.6604754e-06
3.4967403e-06
3.485048e-06
3.4870976e-06
3.484138e-06
3.4778595e-06
3.4931673e-06
3.5145533e-06
3.5028904e-06
3.4763081e-06
3.4721324e-06
3.4989316e-06
3.5426152e-06
3.5864089e-06
3.6207649e-06
3.642611e-06
3.6532704e-06
3.6577194e-06
3.659314e-06
3.659965e-06
3.6591422e-06
3.6564519e-06
3.6547554e-06
3.6572811e-06
3.6607791e-06
3.6616621e-06
3.6611811e-06
3.6604681e-06
3.6597233e-06
3.6591671e-06
3.6591623e-06
3.6595616e-06
3.659979e-06
3.6602837e-06
3.660481e-06
3.6605047e-06
3.6604726e-06
3.5580276e-06
3.5299205e-06
3.5122878e-06
3.4975497e-06
3.4857545e-06
3.4875806e-06
3.4844992e-06
3.4779822e-06
3.4929943e-06
3.5144405e-06
3.5031666e-06
3.4768758e-06
3.4727563e-06
3.4994506e-06
3.5429741e-06
3.5866594e-06
3.6209436e-06
3.642681e-06
3.653289e-06
3.6577173e-06
3.6592923e-06
3.6599656e-06
3.6591066e-06
3.6564021e-06
3.6547791e-06
3.6574589e-06
3.6608366e-06
3.6616316e-06
3.6611379e-06
3.6604459e-06
3.6597147e-06
3.6591779e-06
3.6591848e-06
3.6595797e-06
3.6599856e-06
3.6602785e-06
3.6604623e-06
3.6605074e-06
3.6604822e-06
3.676601e-06
3.6309782e-06
3.5925515e-06
3.5589031e-06
3.5308227e-06
3.5131041e-06
3.4983081e-06
3.4863792e-06
3.4879622e-06
3.4847577e-06
3.4780512e-06
3.4928521e-06
3.5144144e-06
3.5035336e-06
3.4775138e-06
3.4734301e-06
3.4999947e-06
3.5433452e-06
3.5869201e-06
3.6211298e-06
3.6427484e-06
3.6533069e-06
3.6577142e-06
3.6592733e-06
3.659968e-06
3.6590688e-06
3.656351e-06
3.6548071e-06
3.6576382e-06
3.6608903e-06
3.6615994e-06
3.6610956e-06
3.6604254e-06
3.6597083e-06
3.6591906e-06
3.659207e-06
3.659595e-06
3.6599898e-06
3.6602704e-06
3.6604445e-06
3.66051e-06
3.6605307e-06
3.9874091e-06
3.9735194e-06
3.9086459e-06
3.8117756e-06
3.7332797e-06
3.6773224e-06
3.6317894e-06
3.5933928e-06
3.5597476e-06
3.5316748e-06
3.5138592e-06
3.4989887e-06
3.4869088e-06
3.4882391e-06
3.4849331e-06
3.4781065e-06
3.4927741e-06
3.5144849e-06
3.5039881e-06
3.478217e-06
3.4741483e-06
3.50056e-06
3.5437285e-06
3.5871913e-06
3.6213211e-06
3.6428135e-06
3.6533244e-06
3.65771e-06
3.6592566e-06
3.6599718e-06
3.659029e-06
3.6562987e-06
3.6548404e-06
3.6578178e-06
3.6609403e-06
3.6615655e-06
3.6610543e-06
3.6604069e-06
3.6597044e-06
3.6592047e-06
3.659228e-06
3.6596074e-06
3.6599916e-06
3.6602591e-06
3.6604299e-06
3.6605099e-06
3.6606414e-06
3.7082849e-06
3.8040804e-06
3.8640998e-06
3.9114276e-06
4.0383716e-06
4.1796655e-06
4.1638289e-06
4.0443525e-06
3.9874017e-06
3.9735164e-06
3.9089545e-06
3.8123248e-06
3.733926e-06
3.6780164e-06
3.6325588e-06
3.5941901e-06
3.5605421e-06
3.5324669e-06
3.5145396e-06
3.4995774e-06
3.4873358e-06
3.4884217e-06
3.4850587e-06
3.4781898e-06
3.4927845e-06
3.5146553e-06
3.5045249e-06
3.4789807e-06
3.474905e-06
3.5011433e-06
3.5441244e-06
3.5874735e-06
3.6215145e-06
3.6428766e-06
3.6533422e-06
3.6577048e-06
3.659242e-06
3.6599767e-06
3.6589869e-06
3.6562458e-06
3.6548799e-06
3.6579968e-06
3.6609864e-06
3.6615303e-06
3.6610144e-06
3.6603905e-06
3.6597028e-06
3.6592196e-06
3.6592471e-06
3.659617e-06
3.6599913e-06
3.6602449e-06
3.6604207e-06
3.6605066e-06
3.6607645e-06
0.0002834831
0.00011497612
4.3309868e-05
2.2180103e-05
1.2412337e-05
7.5905995e-06
5.2223809e-06
4.3310895e-06
4.0787709e-06
4.0068874e-06
3.9699826e-06
3.9373884e-06
3.8731546e-06
3.783903e-06
3.7727288e-06
3.8247135e-06
3.8002022e-06
3.7285024e-06
3.7764907e-06
3.9640785e-06
4.1525943e-06
4.2184943e-06
4.1672222e-06
4.0771624e-06
3.9660281e-06
3.8253036e-06
3.7081601e-06
3.6592385e-06
3.6618084e-06
3.6921695e-06
3.7551946e-06
3.8154544e-06
3.7700405e-06
3.6829073e-06
3.7089956e-06
3.8047146e-06
3.8646169e-06
3.9116518e-06
4.0381362e-06
4.1792453e-06
4.1637913e-06
4.0445308e-06
3.9873569e-06
3.9734604e-06
3.9092137e-06
3.8128311e-06
3.7345314e-06
3.678669e-06
3.6332831e-06
3.594937e-06
3.5612763e-06
3.5331854e-06
3.5151308e-06
3.5000645e-06
3.4876645e-06
3.4885349e-06
3.4851762e-06
3.4783377e-06
3.4928981e-06
3.5149236e-06
3.5051385e-06
3.4797999e-06
3.4756943e-06
3.5017419e-06
3.5445334e-06
3.5877676e-06
3.6217073e-06
3.6429383e-06
3.6533606e-06
3.6576985e-06
3.6592296e-06
3.6599824e-06
3.6589426e-06
3.6561928e-06
3.6549267e-06
3.658174e-06
3.6610288e-06
3.6614939e-06
3.6609761e-06
3.6603764e-06
3.6597033e-06
3.6592346e-06
3.6592639e-06
3.6596241e-06
3.6599887e-06
3.6602284e-06
3.6604174e-06
3.660504e-06
0.00098978523
0.00086705443
0.00069888234
0.00049408703
0.00028373596
0.00011570902
4.3624651e-05
2.2368117e-05
1.2506646e-05
7.6531124e-06
5.2550847e-06
4.3503574e-06
4.0892537e-06
4.012611e-06
3.9740266e-06
3.9410346e-06
3.8759667e-06
3.7857366e-06
3.7757055e-06
3.828889e-06
3.8023455e-06
3.7289312e-06
3.7786529e-06
3.9683493e-06
4.1563257e-06
4.2196162e-06
4.1664186e-06
4.0759831e-06
3.9649834e-06
3.8244376e-06
3.7078868e-06
3.6596592e-06
3.6625983e-06
3.6930462e-06
3.7559322e-06
3.8162168e-06
3.7708161e-06
3.6836553e-06
3.7096811e-06
3.8053177e-06
3.8650958e-06
3.9118355e-06
4.0378592e-06
4.1787728e-06
4.1636965e-06
4.0446603e-06
3.987266e-06
3.9733549e-06
3.9094263e-06
3.8132959e-06
3.7350948e-06
3.6792756e-06
3.6339545e-06
3.5956221e-06
3.5619361e-06
3.5338158e-06
3.5156223e-06
3.5004508e-06
3.4879139e-06
3.4886167e-06
3.4853284e-06
3.4785781e-06
3.4931212e-06
3.5152851e-06
3.505823e-06
3.4806703e-06
3.4765106e-06
3.502354e-06
3.5449559e-06
3.5880737e-06
3.621898e-06
3.6429989e-06
3.65338e-06
3.6576913e-06
3.6592193e-06
3.6599886e-06
3.6588958e-06
3.65614e-06
3.6549815e-06
3.6583487e-06
3.6610674e-06
3.6614567e-06
3.6609398e-06
3.6603648e-06
3.6597056e-06
3.659249e-06
3.6592779e-06
3.6596289e-06
3.6599835e-06
3.6602113e-06
3.6604193e-06
3.6605154e-06
0.0011284231
0.0011148031
0.0010719988
0.00099265751
0.00087018316
0.00070202988
0.00049697191
0.00028601596
0.00011703068
4.3952985e-05
2.2538461e-05
1.2604747e-05
7.6985233e-06
5.2801854e-06
4.364013e-06
4.0958621e-06
4.01539e-06
3.9754837e-06
3.9423159e-06
3.8770051e-06
3.7866827e-06
3.7778171e-06
3.8317324e-06
3.8038015e-06
3.7297389e-06
3.7810975e-06
3.9720237e-06
4.1590075e-06
4.2200829e-06
4.1655307e-06
4.0748352e-06
3.9639403e-06
3.8237194e-06
3.7078257e-06
3.6601905e-06
3.6634142e-06
3.6939351e-06
3.7566128e-06
3.8168206e-06
3.771534e-06
3.6844267e-06
3.7103355e-06
3.8058798e-06
3.8655342e-06
3.9119793e-06
4.0375384e-06
4.1782464e-06
4.1635481e-06
4.044747e-06
3.9871315e-06
3.9731996e-06
3.909591e-06
3.8137157e-06
3.7356094e-06
3.6798265e-06
3.6345604e-06
3.5962308e-06
3.5625074e-06
3.5343479e-06
3.5160137e-06
3.5007519e-06
3.4881178e-06
3.4887114e-06
3.4855531e-06
3.4789281e-06
3.493454e-06
3.5157337e-06
3.5065728e-06
3.4815868e-06
3.4773492e-06
3.5029783e-06
3.5453918e-06
3.5883913e-06
3.6220854e-06
3.6430588e-06
3.6534005e-06
3.6576831e-06
3.6592112e-06
3.6599948e-06
3.6588465e-06
3.6560879e-06
3.6550451e-06
3.6585202e-06
3.6611023e-06
3.661419e-06
3.6609058e-06
3.6603555e-06
3.6597091e-06
3.6592619e-06
3.659289e-06
3.6596315e-06
3.6599754e-06
3.6601958e-06
3.6604237e-06
3.6605672e-06
0.0010565032
0.0010946961
0.0011208478
0.001130233
0.0011170772
0.0010746084
0.00099548743
0.00087310021
0.00070485523
0.00049947119
0.00028790081
0.00011817625
4.4255532e-05
2.2707229e-05
1.2698936e-05
7.7507482e-06
5.3056917e-06
4.3778646e-06
4.1021481e-06
4.0172247e-06
3.9757561e-06
3.9422946e-06
3.8770113e-06
3.7873131e-06