/*--------------------------------*- C++ -*----------------------------------*\
| =========                 |                                                 |
| \\      /  F ield         | OpenFOAM: The Open Source CFD Toolbox           |
|  \\    /   O peration     | Version:  2506                                  |
|   \\  /    A nd           | Website:  www.openfoam.com                      |
|    \\/     M anipulation  |                                                 |
\*---------------------------------------------------------------------------*/
FoamFile
{
    version     2.0;
    format      ascii;
    arch        "LSB;label=32;scalar=64";
    class       volScalarField;
    location    "2.2";
    object      T;
}
// * * * * * * * * * * * * * * * * * * * * * * * * * * * * * * * * * * * * * //

dimensions      [0 0 0 1 0 0 0];

internalField   nonuniform List<scalar> 
1375
(
245.63674
245.6399
245.6284
245.62021
245.63611
245.63909
245.62746
245.61255
245.6003
245.59211
245.58736
245.58491
245.61949
245.63533
245.63813
245.62644
245.6117
245.59973
245.59181
245.58726
245.58487
245.58364
245.58295
245.58245
245.582
245.58158
245.58123
245.61874
245.63446
245.63705
245.6253
245.61073
245.59902
245.59134
245.58699
245.58477
245.58367
245.58306
245.58259
245.58212
245.58165
245.58126
245.58095
245.58069
245.58053
245.58043
245.61799
245.63357
245.63595
245.62414
245.60976
245.59831
245.59085
245.58665
245.58452
245.5835
245.58293
245.58249
245.58208
245.5817
245.58139
245.58118
245.58103
245.58084
245.58064
245.58052
245.58039
245.58021
245.58015
245.61719
245.63258
245.63474
245.62289
245.60872
245.59754
245.59033
245.58629
245.58425
245.58325
245.58272
245.58233
245.58197
245.58164
245.58135
245.58111
245.58095
245.5809
245.58088
245.58082
245.58073
245.58067
245.58059
245.58033
245.58001
245.57978
245.57961
245.61645
245.63158
245.6335
245.62162
245.60762
245.5967
245.58973
245.58586
245.58392
245.58297
245.58246
245.5821
245.58179
245.58151
245.58129
245.58113
245.58102
245.58096
245.58092
245.58083
245.5807
245.58057
245.58043
245.58028
245.5801
245.57992
245.5797
245.57948
245.57931
245.57914
245.616
245.63079
245.63244
245.62042
245.60652
245.5958
245.58905
245.58535
245.58354
245.58266
245.58215
245.58177
245.58146
245.58121
245.58106
245.58098
245.58093
245.58088
245.58085
245.58081
245.58071
245.58053
245.5803
245.58018
245.58008
245.57989
245.57966
245.57945
245.57933
245.57933
245.57913
245.57892
245.57872
245.61549
245.6301
245.63157
245.61944
245.60554
245.59489
245.58824
245.58464
245.58288
245.58208
245.58167
245.58136
245.58109
245.58089
245.58074
245.58067
245.58065
245.58068
245.5807
245.5807
245.58068
245.58061
245.58043
245.58018
245.57993
245.57972
245.57963
245.57952
245.57931
245.57913
245.57904
245.57892
245.57872
245.57837
245.57793
245.61454
245.62908
245.63047
245.61837
245.60463
245.59414
245.5876
245.58403
245.58221
245.58127
245.58077
245.58051
245.58037
245.5803
245.58029
245.58031
245.58035
245.58042
245.58047
245.58052
245.58054
245.58051
245.58041
245.58024
245.58002
245.57983
245.57962
245.57932
245.57921
245.57918
245.57914
245.57896
245.57871
245.57838
245.57797
245.57754
245.57718
245.57709
245.61322
245.62762
245.62887
245.61673
245.60315
245.59295
245.58673
245.58345
245.58183
245.58097
245.58039
245.57995
245.5796
245.57943
245.57944
245.57959
245.57974
245.57988
245.58004
245.58015
245.58019
245.58016
245.58009
245.58002
245.57995
245.57983
245.57968
245.57959
245.57944
245.57924
245.57909
245.57896
245.57876
245.57847
245.57804
245.57757
245.57716
245.57691
245.57694
245.5771
245.61195
245.62612
245.62717
245.61494
245.60146
245.59142
245.58536
245.58226
245.58087
245.58028
245.57995
245.57967
245.57943
245.57925
245.57911
245.57904
245.57904
245.57908
245.5792
245.57939
245.57955
245.57969
245.57979
245.57983
245.57979
245.57972
245.5796
245.57955
245.57946
245.57932
245.5792
245.57907
245.5788
245.57843
245.57803
245.57765
245.57727
245.57691
245.57671
245.57673
245.57694
245.57708
245.61063
245.62459
245.62546
245.61319
245.59988
245.59008
245.58421
245.58122
245.57988
245.57931
245.57903
245.57885
245.57876
245.57877
245.5788
245.57883
245.57886
245.57886
245.57884
245.57884
245.57889
245.57896
245.5791
245.57926
245.57939
245.57944
245.57936
245.57931
245.57932
245.57927
245.57915
245.57903
245.5789
245.57869
245.5784
245.57784
245.57743
245.57707
245.57665
245.57651
245.57657
245.57673
245.57691
245.60919
245.62297
245.62361
245.61128
245.59817
245.58866
245.58307
245.58028
245.57905
245.57853
245.57825
245.57803
245.57788
245.57783
245.5779
245.578
245.57812
245.57823
245.5783
245.57835
245.57845
245.57857
245.57869
245.57876
245.57875
245.57875
245.57877
245.57877
245.57878
245.57885
245.57889
245.5789
245.57895
245.57888
245.5785
245.57817
245.57767
245.57701
245.57665
245.57647
245.57633
245.57637
245.57659
245.57688
245.57727
245.60785
245.62136
245.62174
245.6093
245.59632
245.58704
245.5817
245.57912
245.57806
245.57767
245.57748
245.57731
245.57713
245.57698
245.57692
245.57697
245.57708
245.57722
245.57734
245.57744
245.57756
245.57772
245.57794
245.57819
245.57838
245.57847
245.57846
245.57833
245.57823
245.57823
245.57826
245.57829
245.57844
245.57859
245.57852
245.57829
245.57786
245.57746
245.57684
245.57636
245.57622
245.5762
245.57635
245.57674
245.57727
245.57725
245.60683
245.62
245.62011
245.60754
245.59468
245.58559
245.5804
245.57792
245.57691
245.57655
245.57641
245.57633
245.57625
245.5762
245.5762
245.57625
245.57635
245.57647
245.57659
245.57669
245.57676
245.5768
245.57686
245.5771
245.57751
245.57785
245.578
245.57801
245.57792
245.57785
245.57783
245.57786
245.57787
245.57794
245.57808
245.57815
245.57805
245.57773
245.57726
245.57681
245.57627
245.57605
245.57626
245.57671
245.57721
245.57726
245.57704
245.60619
245.61907
245.61887
245.60613
245.59331
245.58435
245.57929
245.57688
245.57588
245.57551
245.57536
245.57528
245.57524
245.57525
245.57533
245.57546
245.57562
245.57579
245.57594
245.57607
245.57616
245.57626
245.57631
245.57624
245.57627
245.57653
245.5771
245.57742
245.57746
245.57741
245.57742
245.57753
245.57759
245.57756
245.57765
245.57765
245.57775
245.57776
245.57759
245.57713
245.5765
245.57612
245.57621
245.57664
245.57716
245.57732
245.57694
245.57402
245.57297
245.60578
245.61854
245.61811
245.60522
245.59238
245.58347
245.57847
245.57607
245.57507
245.57467
245.57448
245.57439
245.57434
245.57436
245.57447
245.57462
245.57481
245.57501
245.57518
245.57532
245.5754
245.57551
245.5757
245.57595
245.57611
245.57607
245.57611
245.57628
245.57669
245.57685
245.57688
245.57698
245.57707
245.57713
245.57731
245.57743
245.57751
245.57748
245.57747
245.57714
245.57674
245.57643
245.57632
245.57663
245.57713
245.57743
245.57688
245.57371
245.57274
245.60547
245.61821
245.61763
245.60464
245.59182
245.58299
245.57804
245.57565
245.5746
245.57413
245.57388
245.57374
245.57368
245.57371
245.5738
245.57394
245.5741
245.57428
245.57445
245.57462
245.57476
245.57487
245.57499
245.57521
245.57552
245.57582
245.57604
245.57612
245.57614
245.57619
245.57623
245.5762
245.57627
245.57659
245.57677
245.57697
245.57717
245.57727
245.57717
245.57704
245.57693
245.57674
245.57654
245.5767
245.57719
245.57743
245.57678
245.57353
245.57265
245.60511
245.61788
245.61716
245.60407
245.59128
245.58254
245.57767
245.57531
245.57425
245.57373
245.57342
245.57324
245.57318
245.57322
245.57334
245.5735
245.57366
245.5738
245.57392
245.57405
245.57417
245.57429
245.5744
245.57455
245.5748
245.57509
245.57534
245.57559
245.57575
245.57587
245.57593
245.5759
245.57574
245.57576
245.57586
245.57629
245.57659
245.57678
245.57682
245.57681
245.57673
245.57671
245.5768
245.57688
245.57719
245.57734
245.57675
245.57346
245.57264
245.60465
245.61742
245.61655
245.60338
245.59066
245.58203
245.57725
245.57492
245.57384
245.57327
245.57291
245.57268
245.57261
245.57266
245.57279
245.57299
245.57319
245.57336
245.5735
245.57363
245.57376
245.57387
245.57396
245.57401
245.57407
245.57422
245.57438
245.57461
245.57488
245.57509
245.57523
245.57538
245.57552
245.57558
245.57546
245.57555
245.5756
245.576
245.57629
245.57645
245.57656
245.57657
245.5766
245.57693
245.57717
245.57728
245.57692
245.57339
245.57265
245.60408
245.61674
245.61569
245.60249
245.58988
245.58141
245.57674
245.57448
245.57341
245.57285
245.57248
245.57223
245.5721
245.57208
245.57214
245.5723
245.5725
245.5727
245.57287
245.57302
245.57316
245.5733
245.57343
245.57352
245.57357
245.57364
245.57371
245.57374
245.57378
245.57392
245.57415
245.57438
245.57465
245.57488
245.57508
245.57521
245.57527
245.57525
245.57525
245.57569
245.57612
245.57645
245.57671
245.57695
245.57717
245.57721
245.577
245.57349
245.5726
245.60336
245.61581
245.61455
245.60133
245.58888
245.58057
245.57603
245.57384
245.57281
245.57229
245.57199
245.5718
245.5717
245.57168
245.57171
245.57181
245.57195
245.57209
245.57222
245.5723
245.57236
245.57245
245.57257
245.57273
245.57287
245.57294
245.57301
245.57312
245.57321
245.57327
245.5733
245.5733
245.57342
245.57371
245.57419
245.57452
245.57484
245.57505
245.57498
245.57488
245.57527
245.57601
245.57662
245.57703
245.57731
245.57723
245.57685
245.57371
245.5725
245.60238
245.61462
245.61313
245.59996
245.5877
245.57959
245.57518
245.57306
245.57206
245.57154
245.57126
245.57113
245.5711
245.57114
245.57123
245.57136
245.57153
245.57172
245.5719
245.57202
245.57203
245.57194
245.57179
245.57172
245.57179
245.57187
245.57203
245.57231
245.57256
245.57268
245.57281
245.57296
245.57301
245.57295
245.57311
245.57338
245.57383
245.57432
245.57458
245.57475
245.57506
245.57552
245.57609
245.57676
245.57742
245.57743
245.57672
245.57372
245.57246
245.60119
245.61321
245.61151
245.5984
245.58635
245.57847
245.57423
245.57221
245.57127
245.57078
245.57051
245.57039
245.57039
245.57045
245.57056
245.57071
245.57089
245.57111
245.57134
245.57156
245.57171
245.57179
245.57177
245.57163
245.5714
245.57117
245.57099
245.57096
245.57124
245.57173
245.57211
245.57234
245.57245
245.57257
245.57281
245.57301
245.57313
245.57335
245.57385
245.57434
245.57471
245.57523
245.57595
245.57664
245.57722
245.57729
245.57644
245.57359
245.57248
245.59995
245.61176
245.60984
245.5968
245.58496
245.57729
245.57323
245.57134
245.57048
245.57006
245.56984
245.56975
245.56978
245.56987
245.56999
245.57012
245.57027
245.57044
245.57062
245.5708
245.57096
245.57111
245.57125
245.57129
245.57121
245.57111
245.57099
245.57079
245.5706
245.57058
245.57072
245.57101
245.57135
245.57176
245.57212
245.57248
245.57288
245.57326
245.5735
245.57377
245.57412
245.57472
245.57559
245.57642
245.57701
245.57721
245.57649
245.57359
245.57243
245.59866
245.61033
245.6082
245.59521
245.58356
245.57611
245.57222
245.57046
245.56971
245.56937
245.56921
245.56918
245.56924
245.56938
245.56954
245.56971
245.56988
245.57005
245.57023
245.5704
245.57052
245.57055
245.57053
245.5705
245.57048
245.57051
245.57057
245.57057
245.57051
245.57049
245.57048
245.57045
245.57042
245.57055
245.57084
245.57139
245.57206
245.57264
245.57309
245.57345
245.57375
245.57423
245.57501
245.57589
245.5768
245.57717
245.57627
245.57362
245.57234
245.59729
245.6089
245.60656
245.59356
245.58206
245.5748
245.57109
245.56946
245.56882
245.56856
245.56847
245.5685
245.56861
245.56878
245.56897
245.56916
245.56934
245.56953
245.56974
245.56995
245.57015
245.57028
245.57033
245.57028
245.57014
245.56987
245.56968
245.56966
245.56982
245.56998
245.57011
245.57021
245.57035
245.57047
245.57048
245.57051
245.57075
245.57113
245.57191
245.57269
245.57317
245.57373
245.57458
245.57542
245.57622
245.57661
245.57582
245.5737
245.57241
245.59578
245.60738
245.60486
245.59185
245.58047
245.57339
245.56981
245.56827
245.56769
245.5675
245.56748
245.56756
245.56772
245.56793
245.56815
245.56834
245.56852
245.56871
245.56891
245.56915
245.5694
245.56965
245.56984
245.56994
245.56997
245.5699
245.56975
245.56955
245.56929
245.56914
245.56916
245.56941
245.56983
245.57012
245.57018
245.57016
245.57022
245.57049
245.571
245.57142
245.57208
245.57301
245.574
245.57492
245.57586
245.57625
245.5754
245.57326
245.57272
245.57191
245.56845
245.56698
245.56642
245.56627
245.56629
245.56642
245.56666
245.56693
245.56721
245.56745
245.56766
245.56785
245.56804
245.56825
245.56851
245.56877
245.56902
245.56922
245.56939
245.5695
245.56952
245.56947
245.5694
245.56936
245.56933
245.56923
245.56907
245.56912
245.5693
245.5694
245.56961
245.56993
245.57041
245.57101
245.57159
245.57225
245.5731
245.5742
245.57523
245.57578
245.57508
245.57296
245.57285
245.56488
245.56505
245.56533
245.56568
245.56605
245.56639
245.5667
245.56698
245.56725
245.56753
245.56783
245.56812
245.56837
245.56858
245.56869
245.5687
245.56866
245.56875
245.56899
245.56914
245.5692
245.5692
245.56925
245.56938
245.56948
245.56924
245.56867
245.56836
245.5691
245.57035
245.57111
245.57192
245.57295
245.5739
245.57444
245.57498
245.57458
245.5727
245.57256
245.56497
245.56537
245.56575
245.56611
245.56646
245.56683
245.56723
245.56765
245.56806
245.56836
245.56849
245.56838
245.56806
245.56782
245.5679
245.56818
245.56863
245.56902
245.5691
245.56914
245.56927
245.56913
245.56923
245.56891
245.56887
245.56994
245.57128
245.57261
245.57371
245.57453
245.57467
245.57378
245.57208
245.57221
245.56556
245.56602
245.56652
245.56701
245.56743
245.56771
245.56791
245.56813
245.56827
245.56808
245.56773
245.56752
245.5676
245.56802
245.56852
245.56882
245.56914
245.56905
245.56906
245.56945
245.56968
245.57019
245.57154
245.57297
245.57413
245.57446
245.57373
245.57212
245.57201
245.56664
245.56716
245.56756
245.56781
245.56793
245.56806
245.56824
245.56825
245.56794
245.56756
245.56754
245.56781
245.56822
245.56882
245.56933
245.5698
245.57049
245.57154
245.57251
245.57343
245.5738
245.57365
245.57227
245.57168
245.56709
245.56755
245.56777
245.56797
245.5681
245.56819
245.56816
245.56802
245.56796
245.5678
245.56821
245.56917
245.57009
245.57121
245.57259
245.57364
245.57367
245.57337
245.57191
245.57102
245.5673
245.56793
245.56796
245.56787
245.56804
245.56832
245.56843
245.56841
245.56891
245.57005
245.57172
245.57306
245.57356
245.57334
245.57167
245.57087
245.5669
245.56747
245.56787
245.56819
245.56854
245.56911
245.56972
245.57079
245.57183
245.57242
245.57262
245.57194
245.57102
245.56694
245.56781
245.56867
245.56957
245.57066
245.57158
245.57208
245.57167
245.57187
245.57072
245.56876
245.56981
245.57095
245.57188
245.57174
245.57153
245.57056
245.57021
245.57027
245.57119
245.57106
245.571
245.57042
245.57137
)
;

boundaryField
{
    Side
    {
        type            empty;
    }
    Inlet
    {
        type            totalTemperature;
        gamma           1.4;
        T0              uniform 250;
        value           nonuniform List<scalar> 
25
(
245.58035
245.5803
245.58022
245.58014
245.58005
245.57998
245.57991
245.57983
245.57975
245.57969
245.57964
245.57958
245.57952
245.57946
245.5794
245.57931
245.57913
245.57895
245.57882
245.57866
245.57844
245.57826
245.57806
245.57778
245.57748
)
;
    }
    Airfoil
    {
        type            zeroGradient;
    }
    Outlet
    {
        type            inletOutlet;
        inletValue      nonuniform List<scalar> 0();
        value           nonuniform List<scalar> 0();
    }
    procBoundary5to4
    {
        type            processor;
        value           nonuniform List<scalar> 
64
(
245.63732
245.64071
245.62942
245.61342
245.61342
245.60101
245.59267
245.58781
245.58526
245.58375
245.58375
245.58314
245.5827
245.58228
245.58185
245.58148
245.58099
245.58099
245.58084
245.58074
245.58068
245.58033
245.58033
245.58031
245.58035
245.58036
245.58015
245.58015
245.58011
245.57996
245.57978
245.57948
245.57948
245.57936
245.57932
245.57907
245.57907
245.57903
245.57888
245.57839
245.57839
245.57809
245.57757
245.57757
245.5774
245.57744
245.57727
245.57727
245.57743
245.57724
245.57724
245.57726
245.57705
245.57705
245.57696
245.57696
245.57717
245.57728
245.57728
245.57722
245.57722
245.57431
245.57431
245.57324
)
;
    }
    procBoundary5to6
    {
        type            processor;
        value           nonuniform List<scalar> 
61
(
245.59422
245.6058
245.60309
245.59007
245.57883
245.57883
245.5703
245.56697
245.56555
245.565
245.56484
245.56484
245.56334
245.56347
245.56374
245.56412
245.56454
245.56454
245.56356
245.56401
245.56441
245.56479
245.56516
245.56516
245.56442
245.56481
245.56521
245.56562
245.56609
245.56609
245.56549
245.5657
245.56592
245.5664
245.5664
245.56563
245.56593
245.56624
245.56657
245.56657
245.56594
245.56587
245.5663
245.5663
245.56599
245.56593
245.56624
245.56624
245.56648
245.56671
245.56752
245.56752
245.56857
245.56948
245.56948
245.57011
245.57032
245.57045
245.57045
245.57067
245.57119
)
;
    }
    procBoundary5to12
    {
        type            processor;
        value           nonuniform List<scalar> 
30
(
245.61994
245.61924
245.61845
245.61764
245.61678
245.61603
245.61558
245.61508
245.61421
245.613
245.61179
245.61051
245.60912
245.60783
245.60679
245.60601
245.60551
245.60509
245.60462
245.60408
245.60355
245.60292
245.60203
245.601
245.59989
245.59864
245.59724
245.59567
245.6208
245.6208
)
;
    }
}


// ************************************************************************* //
