/*--------------------------------*- C++ -*----------------------------------*\
| =========                 |                                                 |
| \\      /  F ield         | OpenFOAM: The Open Source CFD Toolbox           |
|  \\    /   O peration     | Version:  2506                                  |
|   \\  /    A nd           | Website:  www.openfoam.com                      |
|    \\/     M anipulation  |                                                 |
\*---------------------------------------------------------------------------*/
FoamFile
{
    version     2.0;
    format      ascii;
    arch        "LSB;label=32;scalar=64";
    class       volScalarField;
    location    "0.6";
    object      k;
}
// * * * * * * * * * * * * * * * * * * * * * * * * * * * * * * * * * * * * * //

dimensions      [0 2 -2 0 0 0 0];

internalField   nonuniform List<scalar> 
1375
(
1.9351017
1.941663
2.2932938
2.6125919
2.8374699
2.9812882
1.932658
2.28506
2.6029521
2.8250965
2.96555
3.0428907
3.0773337
3.0876164
3.0882687
3.0832604
1.924528
2.2783904
2.5950323
2.8143393
2.9511688
3.0250839
3.0569902
3.0658154
3.0659621
3.0607216
3.057175
3.0557114
3.0555745
3.0579712
3.0621366
1.9167302
2.272481
2.5880288
2.8045074
2.9376266
3.0079775
3.0372178
3.0446527
3.0440514
3.0386138
3.0352292
3.0339307
3.0338942
3.0365627
3.0407473
3.0455545
3.050936
3.0567851
3.0630366
3.0696628
1.9089264
2.2665902
2.581115
2.7948152
2.9242776
2.9911065
3.0177497
3.0239674
3.0224385
3.0169019
3.0136607
3.0125103
3.0125864
3.0154923
3.0196758
3.0244575
3.029793
3.035578
3.0417514
3.0482875
3.0551813
3.0624415
3.0700803
3.0781119
3.0865569
1.9010364
2.2601429
2.5735814
2.7845657
2.9105356
2.9740562
2.9983448
3.003537
3.001082
2.9955492
2.9924564
2.9914308
2.9916508
2.994757
2.998929
3.0036776
3.0089561
3.0146642
3.0207471
3.0271842
3.0339726
3.0411248
3.048653
3.0565722
3.0649008
3.0736686
3.0829014
3.09263
3.1029136
1.8932184
2.2528277
2.5649523
2.7732826
2.8960044
2.9565549
2.9788343
2.9831955
2.9799722
2.9745349
2.971603
2.9706835
2.9710808
2.9743468
2.9784994
2.9832117
2.9884307
2.9940602
3.0000502
3.0063835
3.0130612
3.0200986
3.0275096
3.0353054
3.0435062
3.0521368
3.0612216
3.0708063
3.0809424
3.0916738
3.1030626
3.1151818
3.1281083
1.8857677
2.2447229
2.555152
2.7608477
2.8805729
2.938526
2.9591538
2.9628669
2.9591067
2.9538446
2.9510907
2.9502668
2.9508756
2.9542581
2.9583826
2.9630521
2.9682063
2.9737558
2.9796556
2.9858902
2.9924596
2.9993736
3.0066451
3.014292
3.0223463
3.0308414
3.0397887
3.0492281
3.0592053
3.0697662
3.0809762
3.0928954
3.1056029
3.119209
3.1338321
3.1496448
1.8789086
2.2362303
2.5445197
2.7475226
2.8644325
2.9200919
2.9393547
2.9425634
2.9384792
2.9334494
2.930887
2.9301575
2.9310121
2.9344775
2.9385707
2.9431924
2.948275
2.9537375
2.9595412
2.9656711
2.9721272
2.9789198
2.9860662
2.9935841
3.0014919
3.0098208
3.0186053
3.0278854
3.0376989
3.0480855
3.0591091
3.0708234
3.0833037
3.0966632
3.1110199
3.1265256
3.1433622
3.1617543
3.1819691
1.8726407
2.2278592
2.5336402
2.7338132
2.8479619
2.9014962
2.9195648
2.922357
2.9180892
2.9133226
2.9109571
2.9103226
2.911446
2.9149683
2.9190328
2.9236111
2.9286257
2.9340021
2.9397086
2.9457336
2.9520753
2.9587429
2.9657546
2.9731349
2.980905
2.989087
2.9977142
3.0068208
3.0164448
3.026633
3.0374552
3.0489623
3.0612386
3.0743556
3.0884312
3.1036149
3.1200904
3.1380741
3.1578211
3.1796212
3.2037536
3.2303989
1.8667369
2.2199632
2.5230619
2.7202411
2.8315628
2.8829968
2.8999217
2.9023271
2.89793
2.8934312
2.8912606
2.8907243
2.8921279
2.8956906
2.8997345
2.9042774
2.9092333
2.914532
2.9201455
2.9260673
2.9322999
2.9388502
2.9457318
2.9529689
2.9605899
2.9686193
2.9770903
2.9860329
2.9954824
3.0054813
3.0160903
3.0273687
3.0393872
3.0522433
3.0660451
3.0809171
3.0970388
3.1146189
3.1339068
3.1551701
3.1786621
3.2045885
3.2330451
3.2641655
1.8607962
2.2125653
2.5130473
2.7071273
2.8155116
2.8647819
2.8805315
2.8825366
2.8779986
2.8737493
2.8717634
2.8713282
2.8730098
2.8766013
2.8806338
2.8851518
2.8900617
2.8952969
2.9008314
2.9066607
2.9127905
2.9192297
2.9259903
2.9330929
2.940567
2.948441
2.9567479
2.9655175
2.9747884
2.9846012
2.9950006
3.0060527
3.0178178
3.0303958
3.0438977
3.0584467
3.0742105
3.0913912
3.1102395
3.1309862
3.1538639
3.1790459
3.2066245
3.2368077
3.2707084
3.3134042
3.3866349
1.8542904
2.2053755
2.5035158
2.6945095
2.799887
2.8469244
2.8614464
2.8630236
2.858306
2.8542701
2.8524501
2.8521137
2.854056
2.8576625
2.8616868
2.866185
2.8710584
2.8762442
2.881716
2.8874685
2.8935076
2.8998446
2.9064938
2.9134743
2.920814
2.9285426
2.9366923
2.9452934
2.9543836
2.9640044
2.9741941
2.9850157
2.9965323
3.0088364
3.022028
3.0362416
3.0516478
3.0684483
3.0868567
3.1070833
3.1293532
3.1537866
3.1804139
3.2094663
3.2422385
3.284031
3.3575871
3.6050882
5.3359243
1.8465537
2.1978853
2.4940804
2.682132
2.7845437
2.8293531
2.8426405
2.8437838
2.8388663
2.8350093
2.8333355
2.8330889
2.8352597
2.8388588
2.8428667
2.8473381
2.8521722
2.8573103
2.8627274
2.8684164
2.8743811
2.8806312
2.8871813
2.8940519
2.9012702
2.9088664
2.9168715
2.9253146
2.9342283
2.9436532
2.9536323
2.9642272
2.9754996
2.9875299
3.0004242
3.0143272
3.0293839
3.0457805
3.0637237
3.0834413
3.1050798
3.1287263
3.1543979
3.1823643
3.2140427
3.2549905
3.3292578
3.5857115
5.3995653
1.8367945
2.1896242
2.4843409
2.6696791
2.7692609
2.8119278
2.8240296
2.8247644
2.8196635
2.8159654
2.8144273
2.8142639
2.8166302
2.8201981
2.8241726
2.8285997
2.8333797
2.8384596
2.8438174
2.849446
2.855346
2.8615235
2.8679895
2.874763
2.8818694
2.8893397
2.8972061
2.9054981
2.9142463
2.9234897
2.9332713
2.9436476
2.9546847
2.9664634
2.9790849
2.9926794
3.0073812
3.0233736
3.0408555
3.0600284
3.0810249
3.1038933
3.1286374
3.1555457
3.1861637
3.2263902
3.3014621
3.5677017
5.3898667
1.8243248
2.1802726
2.4739942
2.656907
2.7538639
2.7945354
2.8055418
2.8059101
2.8006653
2.7971176
2.7957113
2.7956254
2.7981563
2.8016788
2.8056064
2.8099733
2.8146835
2.8196905
2.8249772
2.830537
2.8363682
2.8424742
2.848863
2.8555496
2.8625566
2.8699134
2.8776519
2.8858031
2.8943965
2.9034683
2.9130622
2.9232341
2.9340518
2.9455913
2.9579431
2.9712319
2.9855995
3.0012157
3.0182513
3.0368842
3.0572028
3.07925
3.1030666
3.1289318
3.1584892
3.1980215
3.2741647
3.5516777
5.4159076
1.8100912
2.1698707
2.4629494
2.6437351
2.7383069
2.7771584
2.7871645
2.787225
2.7818675
2.7784572
2.7771701
2.7771498
2.7798036
2.7832746
2.7871459
2.7914442
2.7960775
2.8010038
2.8062075
2.8116837
2.8174328
2.8234585
2.829766
2.8363684
2.8432845
2.8505391
2.8581608
2.866181
2.8746305
2.8835442
2.8929655
2.9029485
2.9135592
2.9248715
2.9369682
2.9499637
2.964002
2.9792421
2.9958384
3.0139125
3.0335662
3.0548251
3.0777128
3.1026328
3.1312819
3.1702382
3.2478347
3.5423997
5.5038123
1.7995367
2.1590926
2.4514836
2.6303725
2.722768
2.7599346
2.7690651
2.7687986
2.7633432
2.760038
2.7588334
2.7588542
2.7615612
2.7649743
2.7687768
2.772997
2.7775475
2.7823889
2.7875053
2.7928922
2.7985506
2.804485
2.8107035
2.817217
2.8240407
2.8311948
2.8387059
2.8466045
2.8549222
2.8636923
2.8729551
2.8827605
2.8931692
2.9042546
2.9161024
2.928824
2.9425543
2.9574309
2.9735837
2.9911131
3.0100942
3.0305437
3.0525417
3.0765254
3.1043178
3.1428897
3.2226134
3.5383357
5.6089368
1.7969346
2.1493607
2.4402585
2.6172988
2.7076509
2.7432163
2.7515701
2.7508961
2.7453136
2.7420512
2.7408593
2.7408691
2.7435033
2.7468351
2.7505407
2.7546606
2.7591104
2.7638516
2.7688691
2.7741589
2.7797234
2.7855669
2.7916944
2.798114
2.8048395
2.8118908
2.8192934
2.8270765
2.8352696
2.8439023
2.8530107
2.8626414
2.8728536
2.8837223
2.8953392
2.9078087
2.921241
2.9357518
2.9514636
2.9684755
2.9868117
3.006479
3.0275715
3.0505884
3.0775846
3.1159127
3.1984517
3.5376404
5.715341
1.797153
2.1430309
2.4304793
2.6052655
2.6935617
2.7275381
2.7351659
2.7339481
2.728155
2.7248321
2.7235548
2.7234817
2.7258353
2.7290257
2.7325742
2.736539
2.7408415
2.7454439
2.7503325
2.7555044
2.7609613
2.7667048
2.7727384
2.779066
2.7856964
2.7926473
2.7999438
2.807613
2.8156819
2.8241779
2.8331333
2.8425944
2.8526223
2.8632918
2.8746891
2.8869058
2.9000384
2.9141912
2.9294675
2.9459404
2.963623
2.9825146
3.0027396
3.0249173
3.0512028
3.0894954
3.1756559
3.539884
5.83116
1.7979845
2.1411615
2.423683
2.5952012
2.681196
2.7135445
2.7204671
2.7185322
2.7123991
2.7088672
2.7073891
2.7071567
2.7089524
2.7118834
2.7151737
2.7188866
2.7229526
2.7273376
2.7320315
2.7370318
2.742339
2.7479532
2.7538736
2.7600992
2.7666347
2.773491
2.7806856
2.7882409
2.7961818
2.8045355
2.8133357
2.8226279
2.832471
2.8429367
2.8541038
2.8660596
2.8788995
2.8927166
2.9075801
2.9235237
2.9405597
2.9586986
2.9780412
2.9992919
3.0249444
3.0635341
3.1540131
3.5409643
5.9388665
1.799388
2.1412839
2.4210152
2.5881805
2.6712743
2.7019134
2.708135
2.7053226
2.6987409
2.6948507
2.6930538
2.6926113
2.693617
2.6960661
2.6989298
2.7022258
2.7059077
2.7099424
2.7143204
2.7190408
2.7241034
2.7295064
2.7352461
2.7413181
2.7477211
2.7544586
2.761537
2.7689704
2.7767769
2.784982
2.7936194
2.8027332
2.8123818
2.8226354
2.8335696
2.8452687
2.8578204
2.871303
2.8857651
2.9012113
2.9176062
2.9349461
2.953427
2.9738586
2.9989292
3.0380316
3.133914
3.551215
6.0723281
1.801269
2.1426252
2.420896
2.584945
2.6643999
2.6932076
2.6987468
2.6950009
2.6880033
2.6837343
2.6815637
2.68086
2.6811058
2.682748
2.6849248
2.687538
2.6905734
2.6940161
2.6978613
2.7021035
2.7067394
2.7117651
2.717173
2.7229598
2.7291213
2.7356514
2.742552
2.7498256
2.7574775
2.765525
2.7739967
2.782932
2.7923839
2.802419
2.8131121
2.8245433
2.8367964
2.8499351
2.8639764
2.8788968
2.8946533
2.911249
2.9289137
2.9485561
2.973107
3.0131165
3.1160442
3.5719586
6.2246123
1.8035252
2.1454125
2.4222598
2.5844811
2.6608308
2.6876335
2.6925474
2.6879788
2.680832
2.6764187
2.6740347
2.6730234
2.6728096
2.6734502
2.6746692
2.6762943
2.6783485
2.6808409
2.6837844
2.6871926
2.6910684
2.6954174
2.7002357
2.7055083
2.7112244
2.7173788
2.7239623
2.7309659
2.738386
2.7462256
2.754502
2.7632396
2.7724813
2.7822896
2.7927346
2.8038906
2.8158351
2.8286185
2.842232
2.8566208
2.8717268
2.887562
2.9044124
2.9233334
2.9474527
2.9889427
3.1006268
3.6047505
6.4000712
1.8061634
2.1494663
2.4250344
2.5851686
2.6599185
2.6848433
2.6891668
2.6840206
2.6770932
2.6728895
2.6705929
2.6694526
2.6689643
2.6689011
2.669188
2.6697726
2.6706895
2.6719826
2.6736964
2.6758672
2.6785388
2.6817471
2.6855201
2.6898659
2.6947767
2.7002416
2.7062483
2.7127715
2.7197869
2.7272854
2.7352634
2.7437328
2.7527199
2.762272
2.7724525
2.7833248
2.7949471
2.8073514
2.82051
2.8343468
2.8487822
2.8638339
2.8798767
2.8981643
2.9222715
2.9657309
3.0884508
3.6529161
6.6176515
1.8097299
2.1545243
2.428885
2.5869222
2.6600094
2.6839165
2.6876641
2.6821819
2.6756387
2.6717651
2.6696663
2.6685653
2.667985
2.6676694
2.6675315
2.6675328
2.6676742
2.6679932
2.668552
2.669419
2.6706778
2.6724137
2.6746981
2.677594
2.6811586
2.6854238
2.6903859
2.6960229
2.7023066
2.7091994
2.7166701
2.7247004
2.7332972
2.7424893
2.752323
2.762844
2.7740857
2.7860548
2.7987106
2.8119651
2.8257239
2.8400206
2.8553086
2.8730694
2.8973997
2.9435303
3.07989
3.710857
6.8396265
1.8146961
2.1602882
2.4334479
2.58944
2.6607037
2.6837798
2.6870412
2.6813705
2.6751445
2.671497
2.6695186
2.6684646
2.6678852
2.6675468
2.6673408
2.6672132
2.6671454
2.6671325
2.6671747
2.667304
2.6675785
2.6680743
2.668901
2.6701774
2.6720318
2.6745922
2.6779384
2.682108
2.6870921
2.6928663
2.6994014
2.7066634
2.7146155
2.7232496
2.7325806
2.7426348
2.7534112
2.764883
2.7769862
2.7896069
2.802642
2.8161665
2.8307891
2.8482239
2.8729476
2.9227919
3.075643
3.7746578
7.04365
1.8211586
2.1664622
2.4383528
2.5923376
2.6617455
2.6837759
2.6867142
2.6809191
2.6749138
2.6713981
2.6694792
2.6684409
2.6678649
2.6675243
2.667313
2.6671807
2.6670992
2.6670476
2.6670211
2.6670172
2.6670426
2.6671102
2.6672413
2.6675012
2.6680065
2.6689127
2.6704013
2.6726218
2.6756896
2.6796944
2.6846772
2.690622
2.6974892
2.7052277
2.7138056
2.7231919
2.7333375
2.7441756
2.7556117
2.7675025
2.7797543
2.7924987
2.8065031
2.8236983
2.8493725
2.9041234
3.0770721
3.8455756
7.2123847
1.8288245
2.1729083
2.4434073
2.5953387
2.6628415
2.6837542
2.6864399
2.680531
2.6747051
2.671296
2.6694291
2.6684124
2.667847
2.6675095
2.6672989
2.6671653
2.6670795
2.6670259
2.666993
2.6669773
2.6669746
2.6669819
2.6670005
2.6670412
2.6671271
2.6672848
2.6675897
2.6681876
2.6693113
2.671215
2.6740673
2.6779971
2.6830829
2.6893268
2.6966603
2.7050035
2.7142437
2.7242412
2.7348463
2.7458866
2.7572651
2.7691983
2.782604
2.7997174
2.8265597
2.886965
3.0880077
3.9430899
7.4101945
1.8372257
2.1794762
2.4484152
2.5982255
2.6638252
2.6836896
2.6861212
2.6800945
2.6744467
2.6711542
2.6693538
2.6683743
2.667828
2.6674998
2.6672942
2.6671667
2.6670871
2.667035
2.6670007
2.6669817
2.6669745
2.6669778
2.6669936
2.6670211
2.6670612
2.6671067
2.6671639
2.6672649
2.6674672
2.6678953
2.6687851
2.6704512
2.6732285
2.6773063
2.6827385
2.6894492
2.6972885
2.7060423
2.7154918
2.7254482
2.7358221
2.7469107
2.7597909
2.7772887
2.8056894
2.8730576
3.1136096
4.0766515
7.6386653
1.8461572
2.1865983
2.4537546
2.6011854
2.6647652
2.6835746
2.68568
2.6795341
2.6740973
2.6709492
2.669235
2.6683065
2.6677936
2.6674875
2.6672959
2.6671721
2.6670907
2.6670329
2.6669915
2.6669638
2.6669506
2.6669505
2.6669617
2.6669788
2.6669985
2.6670164
2.667036
2.6670715
2.6671324
2.6672243
2.6673882
2.6677279
2.6685003
2.6700976
2.6729304
2.6772472
2.6830246
2.6900072
2.6978602
2.7063643
2.7154887
2.7254815
2.7374838
2.7549778
2.7869
2.8732498
3.1654989
4.2699688
7.9120787
1.8547775
2.1930978
2.458409
2.6036588
2.6654849
2.6834162
2.6851915
2.6789766
2.6737641
2.6707714
2.6691545
2.6682891
2.667815
2.6675237
2.6673381
2.6672178
2.6671329
2.6670698
2.6670236
2.6669948
2.6669847
2.6669875
2.6669998
2.6670179
2.667037
2.6670597
2.6670905
2.6671389
2.6672091
2.6673005
2.6674275
2.667622
2.667913
2.6684103
2.6693956
2.6712912
2.67448
2.6790443
2.6847468
2.6912849
2.6985925
2.7070638
2.7169733
2.7335161
2.7700813
2.8855738
3.253573
4.5610102
8.3200567
1.8693263
2.2062214
2.4679074
2.6086114
2.6668905
2.6829843
2.6841305
2.6778332
2.6730671
2.6703881
2.6689607
2.6681979
2.667765
2.6674851
2.667296
2.6671644
2.6670699
2.6670032
2.6669601
2.6669386
2.6669319
2.666936
2.6669485
2.6669685
2.6669941
2.6670235
2.667058
2.6671033
2.6671638
2.6672443
2.6673533
2.6674948
2.6676678
2.6679131
2.6682828
2.6688909
2.6699328
2.6716344
2.6741468
2.6775098
2.6819797
2.6885393
2.6980015
2.7242275
2.7715303
2.9556165
3.5197852
5.2680284
9.0954098
)
;

boundaryField
{
    Side
    {
        type            empty;
    }
    Inlet
    {
        type            turbulentIntensityKineticEnergyInlet;
        intensity       0.03;
        value           nonuniform List<scalar> 
21
(
12.047812
12.046141
12.043108
12.039561
12.035828
12.033157
12.03046
12.030386
12.029559
12.029284
12.03076
12.032472
12.034217
12.034343
12.034323
12.039088
12.052363
12.06855
12.089116
12.100818
12.0701
)
;
    }
    Airfoil
    {
        type            kqRWallFunction;
        value           nonuniform List<scalar> 0();
    }
    Outlet
    {
        type            inletOutlet;
        inletValue      uniform 1.48208e-06;
        value           nonuniform List<scalar> 
49
(
1.8693263
2.2062214
2.4679074
2.6086114
2.6668905
2.6829843
2.6841305
2.6778332
2.6730671
2.6703881
2.6689607
2.6681979
2.667765
2.6674851
2.667296
2.6671644
2.6670699
2.6670032
2.6669601
2.6669386
2.6669319
2.666936
2.6669485
2.6669685
2.6669941
2.6670235
2.667058
2.6671033
2.6671638
2.6672443
2.6673533
2.6674948
2.6676678
2.6679131
2.6682828
2.6688909
2.6699328
2.6716344
2.6741468
2.6775098
2.6819797
2.6885393
2.6980015
2.7242275
2.7715303
2.9556165
3.5197852
5.2680284
9.0954098
)
;
    }
    procBoundary6to5
    {
        type            processor;
        value           nonuniform List<scalar> 
61
(
1.9520661
2.3036358
2.624391
2.8517613
2.9985603
3.0617544
3.0617544
3.0984745
3.1100302
3.111114
3.1062395
3.0795068
3.0795068
3.0778593
3.0776112
3.0797046
3.0838293
3.066955
3.066955
3.0723685
3.078268
3.0845831
3.0912844
3.0766561
3.0766561
3.0840215
3.0917697
3.0999167
3.1084807
3.0954402
3.0954402
3.1048027
3.1146775
3.1251119
3.1138057
3.1138057
3.1253676
3.1376709
3.1508071
3.141951
3.141951
3.156847
3.1729578
3.1668351
3.1668351
3.1856341
3.2063117
3.2042935
3.2042935
3.2290201
3.2563612
3.2596595
3.2596595
3.2917009
3.2990314
3.2990314
3.3425216
3.4156865
3.6258255
3.6258255
5.2910593
)
;
    }
    procBoundary6to12
    {
        type            processor;
        value           uniform 1.9450423;
    }
    procBoundary6to13
    {
        type            processor;
        value           nonuniform List<scalar> 
34
(
2.2812655
1.9252915
1.9252915
1.9153121
1.9051751
1.8952517
1.8861786
1.878527
1.8723733
1.867243
1.8624721
1.8574767
1.8518208
1.8451339
1.8369557
1.8266274
1.8136487
1.7998096
1.7915926
1.7904602
1.7908393
1.7917737
1.7932424
1.7951793
1.7974943
1.8002021
1.8038833
1.8090858
1.8159773
1.8242871
1.8334478
1.8430634
1.8520908
1.8664725
)
;
    }
}


// ************************************************************************* //
