/*--------------------------------*- C++ -*----------------------------------*\
| =========                 |                                                 |
| \\      /  F ield         | OpenFOAM: The Open Source CFD Toolbox           |
|  \\    /   O peration     | Version:  2506                                  |
|   \\  /    A nd           | Website:  www.openfoam.com                      |
|    \\/     M anipulation  |                                                 |
\*---------------------------------------------------------------------------*/
FoamFile
{
    version     2.0;
    format      ascii;
    arch        "LSB;label=32;scalar=64";
    class       volScalarField;
    location    "0.0085";
    object      p;
}
// * * * * * * * * * * * * * * * * * * * * * * * * * * * * * * * * * * * * * //

dimensions      [1 -1 -2 0 0 0 0];

internalField   nonuniform List<scalar> 
192657
(
46970.931
47085.373
46985.609
47000.513
46975.782
46974.009
46970.918
46970.317
46970.067
46970.013
46970.002
46970
46970.002
46970.04
46970.367
46971.974
46976.989
46984.898
46976.647
46896.444
46681.167
46324.139
45948.644
45729.97
45650.822
45531.13
45364.071
45263.049
45179.004
45064.645
44971.936
44883.096
44781.038
44690.022
44584.959
44468.525
44342.739
44198.678
44041.797
43902.619
44238.706
45406.801
51851.965
46775.276
45656.188
45236.431
44937.467
44692.279
44486.021
44303.498
44136.656
43978.536
43824.122
43671.901
43519.207
43365.543
43210.681
43053.925
42896.885
42740.801
42586.995
42434.391
42283.566
42136.18
41992.831
41854.089
41720.597
41592.494
41470.631
41354.708
41244.58
41141.124
41043.988
40953.014
40868.48
40788.332
40713.265
40644.391
40579.76
40520.368
40464.906
40413.441
40365.408
40320.523
40279.081
40240.16
40203.184
40168.544
40136.219
40105.856
40077.033
40049.525
40023.303
39998.301
39974.347
39951.458
39929.483
39908.315
39887.87
39868.207
39849.42
39831.656
39815.426
39801.879
39790.38
39778.727
39769.408
39764.521
39763.428
39764.475
39766.333
39768.579
39771.091
39773.766
39776.499
39779.203
39781.817
39784.307
39786.653
39788.841
39790.866
39792.73
39794.438
39796
39797.427
39798.732
39799.926
39801.017
39802.016
39802.931
39803.767
39804.533
39805.232
39805.871
39806.467
39807.032
39807.492
39807.618
39807.225
39806.594
39806.051
39805.627
39805.299
39805.058
39804.899
39804.816
39804.793
39804.815
39804.869
46970.76
47085.385
46985.792
47000.524
46975.812
46974.011
46970.924
46970.317
46970.067
46970.013
46970.002
46970
46970.001
46970.039
46970.363
46971.969
46977.018
46985.192
46977.826
46899.335
46685.861
46330.132
45954.305
45734.3
45654.801
45535.786
45368.872
45267.379
45183.592
45069.465
44976.572
44888.108
44786.3
44695.637
44591.465
44476.246
44351.975
44209.196
44054.382
43898.879
44061.49
44911.353
54256.618
47175.301
45778.148
45305.768
44987.455
44727.964
44511.058
44319.699
44146.856
43984.281
43827.432
43673.379
43519.139
43364.374
43209.11
43052.294
42895.142
42739.25
42585.743
42433.439
42282.962
42135.285
41991.639
41852.929
41719.117
41590.411
41468.183
41351.8
41241.374
41137.432
41040.118
40948.611
40862.025
40780.337
40705.66
40636.607
40571.775
40512.076
40456.21
40404.229
40355.961
40311.168
40269.746
40230.586
40193.833
40160.1
40128.763
40099.299
40071.292
40044.765
40019.756
39996.252
39974.191
39953.274
39933.432
39914.599
39896.804
39880.013
39864.169
39849.199
39834.89
39820.501
39807.171
39796.158
39786.3
39777.335
39769.397
39762.482
39756.544
39751.542
39747.449
39744.24
39741.838
39740.012
39738.531
39737.314
39736.334
39735.561
39734.968
39734.525
39734.209
39734
39733.878
39733.827
39733.833
39733.883
39733.968
39734.077
39734.204
39734.343
39734.487
39734.634
39734.779
39734.92
39735.056
39735.185
39735.308
39735.427
39735.54
39735.648
39735.748
39735.832
39735.894
39735.934
39735.96
39735.981
39735.996
46970.659
47085.395
46985.911
47000.53
46975.841
46974.014
46970.929
46970.316
46970.067
46970.013
46970.002
46970
46970.001
46970.038
46970.36
46971.965
46977.048
46985.488
46979.022
46902.247
46690.594
46336.167
45960.002
45738.651
45658.791
45540.452
45373.698
45271.721
45188.191
45074.3
44981.213
44893.134
44791.581
44701.262
44597.96
44483.955
44361.223
44219.878
44066.928
43898.674
43916.619
44714.592
56087.131
47690.287
45924.995
45385.619
45045.262
44768.691
44539.718
44339.975
44161.006
43993.612
43832.808
43675.952
43520.008
43364.231
43208.64
43051.986
42894.707
42739.073
42585.465
42433.279
42282.994
42135.207
41991.544
41853.012
41718.938
41589.742
41467.039
41350.32
41239.809
41135.512
41037.515
40944.398
40856.301
40775.459
40701.544
40631.566
40566.618
40506.049
40449.785
40397.423
40349.184
40304.674
40263.152
40224.337
40188.588
40155.912
40125.464
40096.641
40069.488
40044.28
40021.021
39999.495
39979.585
39961.127
39943.914
39927.85
39912.94
39899.194
39886.519
39874.809
39864.356
39856.028
39849.528
39844.802
39841.638
39839.104
39837.009
39835.292
39833.824
39832.47
39831.128
39829.721
39828.239
39826.85
39825.714
39824.824
39824.135
39823.61
39823.221
39822.947
39822.768
39822.665
39822.626
39822.636
39822.686
39822.766
39822.868
39822.986
39823.113
39823.246
39823.382
39823.516
39823.647
39823.773
39823.892
39824.003
39824.105
39824.196
39824.277
39824.346
39824.402
39824.447
39824.479
39824.502
39824.518
39824.531
39824.544
46970.688
47085.406
46985.974
47000.532
46975.861
46974.018
46970.933
46970.315
46970.067
46970.013
46970.002
46970
46970.001
46970.037
46970.357
46971.961
46977.078
46985.786
46980.234
46905.198
46695.397
46342.289
45965.783
45743.056
45662.823
45545.163
45378.582
45276.101
45192.828
45079.181
44985.894
44898.207
44796.917
44706.929
44604.47
44491.666
44370.492
44230.675
44079.061
43903.374
43830.986
44588.498
53657.975
48396.499
46113.246
45477.552
45108.883
44815.531
44574.125
44365.02
44178.354
44005.255
43840.215
43680.625
43522.851
43366.147
43209.715
43052.947
42895.437
42739.776
42585.857
42433.98
42283.907
42136.178
41992.707
41854.093
41719.87
41590.489
41467.042
41350.036
41239.107
41133.989
41034.719
40941.051
40854.205
40775.146
40700.294
40628.737
40563.364
40501.895
40445.571
40393.201
40345.202
40300.939
40259.534
40221.517
40187.05
40155.089
40124.95
40096.687
40070.843
40047.526
40026.298
40006.792
39988.807
39972.271
39957.135
39943.353
39930.839
39919.485
39909.187
39900.144
39892.198
39885.036
39879.163
39874.362
39870.532
39867.076
39863.858
39861.096
39858.898
39857.309
39856.311
39855.777
39855.519
39855.405
39855.39
39855.455
39855.582
39855.756
39855.965
39856.198
39856.447
39856.706
39856.97
39857.234
39857.495
39857.749
39857.995
39858.231
39858.454
39858.664
39858.859
39859.04
39859.206
39859.357
39859.493
39859.615
39859.724
39859.82
39859.907
39859.983
39860.047
39860.097
39860.133
39860.156
39860.17
39860.181
39860.191
46970.764
47085.42
46985.973
47000.532
46975.904
46974.02
46970.939
46970.314
46970.067
46970.013
46970.002
46970
46970.001
46970.036
46970.354
46971.957
46977.107
46986.085
46981.457
46908.203
46700.294
46348.523
45971.677
45747.535
45666.916
45549.94
45383.547
45280.54
45197.522
45084.13
44990.636
44903.352
44802.329
44712.655
44611.004
44499.376
44379.777
44241.53
44090.955
43913.564
43795.444
44418.743
49126.298
49534.096
46362.446
45582.416
45180.435
44870.59
44613.827
44393.837
44199.222
44020.462
43851.055
43688.134
43527.921
43369.442
43211.926
43054.597
42897.123
42741.351
42587.436
42435.873
42285.935
42138.329
41995.077
41856.331
41721.948
41592.506
41468.387
41351.017
41239.599
41133.948
41034.681
40942.68
40857.881
40776.54
40698.427
40626.72
40561.047
40499.788
40444.092
40392.291
40344.712
40300.647
40259.654
40222.501
40188.563
40156.829
40127.276
40100.342
40076.265
40054.632
40034.92
40016.815
40000.18
39985.013
39971.363
39959.198
39948.426
39938.975
39930.635
39923.249
39916.811
39911.537
39907.138
39902.379
39899.137
39897.222
39896.149
39895.448
39894.849
39894.233
39893.588
39892.944
39892.41
39892.034
39891.785
39891.63
39891.549
39891.528
39891.557
39891.624
39891.721
39891.841
39891.977
39892.124
39892.278
39892.435
39892.592
39892.746
39892.895
39893.038
39893.173
39893.299
39893.417
39893.524
39893.622
39893.709
39893.785
39893.852
39893.909
39893.957
39893.995
39894.025
39894.047
39894.061
39894.071
39894.078
39894.084
46970.781
47085.434
46985.994
47000.532
46975.972
46974.019
46970.946
46970.313
46970.067
46970.012
46970.002
46970
46970.001
46970.034
46970.35
46971.952
46977.135
46986.384
46982.689
46911.266
46705.294
46354.884
45977.7
45752.103
45671.084
45554.796
45388.607
45285.054
45202.291
45089.162
44995.456
44908.587
44807.835
44718.448
44617.567
44507.084
44389.064
44252.405
44102.915
43927.537
43780.333
44207.675
46265.26
51427.299
46693.599
45704.424
45260.843
44932.362
44658.913
44427.95
44225.065
44039.536
43864.893
43697.765
43534.939
43374.664
43216.23
43058.082
42900.636
42744.387
42590.476
42438.906
42288.987
42141.579
41998.472
41859.689
41725.353
41596.181
41471.936
41354.635
41243.245
41137.94
41039.568
40947.686
40860.082
40775.488
40697.608
40627.989
40562.686
40502.723
40447.064
40395.388
40347.578
40303.478
40263.061
40226.461
40192.694
40161.205
40132.647
40107.417
40084.944
40064.41
40045.497
40028.211
40012.586
39998.655
39986.3
39975.416
39965.896
39957.528
39950.219
39943.9
39938.418
39933.402
39929.485
39925.887
39923.346
39921.249
39919.535
39918.215
39917.277
39916.599
39915.977
39915.319
39914.701
39914.261
39914.017
39913.916
39913.898
39913.924
39913.982
39914.066
39914.168
39914.284
39914.408
39914.539
39914.672
39914.807
39914.941
39915.072
39915.199
39915.322
39915.438
39915.547
39915.648
39915.741
39915.826
39915.903
39915.971
39916.03
39916.081
39916.124
39916.159
39916.186
39916.205
39916.216
39916.223
39916.229
39916.235
46970.712
47085.446
46986.185
47000.536
46976.043
46974.016
46970.954
46970.313
46970.066
46970.012
46970.002
46970
46970.001
46970.033
46970.346
46971.947
46977.16
46986.682
46983.933
46914.385
46710.406
46361.389
45983.87
45756.772
45675.338
45559.741
45393.776
45289.657
45207.144
45094.292
45000.372
44913.929
44813.443
44724.306
44624.157
44514.787
44398.345
44263.287
44115.099
43942.974
43774.274
43998.476
45010.71
54097.799
47129.504
45847.543
45350.163
45001.559
44711.282
44467.974
44255.197
44062.033
43881.862
43710.819
43544.91
43382.596
43222.728
43063.488
42905.463
42748.701
42594.785
42443.334
42293.59
42146.369
42003.308
41864.665
41730.383
41601.49
41477.491
41360.245
41248.747
41143.045
41043.67
40949.54
40859.776
40776.376
40702.431
40634.018
40567.941
40507.901
40451.185
40399.25
40351.232
40307.265
40267.422
40231.133
40197.633
40167.096
40140.014
40115.99
40094.184
40074.143
40055.845
40039.401
40024.872
40012.139
40000.981
39991.211
39982.613
39975.036
39968.341
39962.447
39957.311
39952.851
39948.911
39945.119
39942.214
39939.971
39938.083
39936.5
39935.168
39934.077
39933.283
39932.834
39932.597
39932.373
39932.105
39931.833
39931.612
39931.452
39931.34
39931.265
39931.22
39931.199
39931.197
39931.211
39931.238
39931.275
39931.319
39931.369
39931.422
39931.476
39931.531
39931.584
39931.636
39931.684
39931.729
39931.77
39931.806
39931.838
39931.866
39931.888
39931.907
39931.921
39931.931
39931.937
39931.941
39931.944
39931.947
46970.574
47085.456
46986.446
47000.539
46976.101
46974.011
46970.961
46970.312
46970.066
46970.012
46970.002
46970
46970.001
46970.032
46970.343
46971.941
46977.183
46986.979
46985.188
46917.559
46715.635
46368.051
45990.199
45761.552
45679.685
45564.782
45399.063
45294.359
45212.09
45099.534
45005.396
44919.385
44819.155
44730.226
44630.772
44522.482
44407.612
44274.182
44127.508
43958.046
43773.386
43824.599
44524.873
56329.007
47748.651
46020.253
45451.591
45078.345
44770.131
44513.403
44290.367
44089.791
43903.358
43727.681
43557.877
43392.814
43231.005
43070.506
42911.681
42754.573
42600.7
42449.242
42299.639
42152.44
42009.392
41870.713
41736.343
41607.299
41483.401
41365.94
41253.977
41147.648
41047.163
40952.236
40864.442
40785.87
40712.398
40640.369
40573.173
40512.194
40455.161
40403.54
40356.06
40312.692
40273.407
40237.219
40204.062
40174.536
40148.495
40124.957
40103.255
40083.418
40065.66
40050.059
40036.474
40024.605
40014.196
40004.96
39996.723
39989.344
39982.744
39976.93
39971.718
39966.954
39962.847
39959.377
39956.473
39954.239
39952.368
39950.808
39949.52
39948.461
39947.587
39946.861
39946.266
39945.792
39945.428
39945.147
39944.908
39944.685
39944.488
39944.346
39944.255
39944.194
39944.155
39944.135
39944.131
39944.141
39944.16
39944.188
39944.221
39944.258
39944.297
39944.337
39944.376
39944.413
39944.449
39944.482
39944.512
39944.539
39944.563
39944.583
39944.599
39944.611
39944.619
39944.623
39944.627
39944.63
39944.634
46970.409
47085.467
46986.663
47000.536
46976.147
46974.005
46970.968
46970.311
46970.066
46970.012
46970.002
46970
46970.001
46970.031
46970.339
46971.934
46977.204
46987.275
46986.453
46920.786
46720.992
46374.88
45996.694
45766.446
45684.134
45569.928
45404.477
45299.172
45217.14
45104.898
45010.538
44924.961
44824.967
44736.202
44637.409
44530.168
44416.86
44285.1
44140.07
43972.317
43781.477
43721.197
44331.45
54237.609
48717.329
46241.171
45566.464
45162.514
44836.574
44566.048
44331.984
44122.687
43929.051
43748.025
43573.965
43406.096
43242.09
43080.384
42920.503
42762.645
42608.305
42456.644
42307.194
42160.099
42017.089
41878.315
41744.111
41614.978
41491.3
41373.748
41261.694
41155.783
41055.924
40963.061
40878.235
40798.628
40720.35
40645.904
40579.519
40518.568
40462.812
40412.133
40365.545
40322.777
40283.781
40247.823
40215.135
40186.164
40160.198
40136.314
40114.312
40094.548
40077.251
40062.233
40049.076
40037.352
40026.797
40017.263
40008.664
40000.925
39994.045
39987.893
39982.384
39977.499
39973.163
39969.508
39966.376
39964.031
39962.112
39960.528
39959.233
39958.179
39957.321
39956.624
39956.059
39955.602
39955.234
39954.941
39954.719
39954.578
39954.497
39954.429
39954.362
39954.307
39954.276
39954.265
39954.271
39954.289
39954.314
39954.346
39954.382
39954.42
39954.46
39954.498
39954.535
39954.571
39954.603
39954.633
39954.66
39954.683
39954.702
39954.718
39954.731
39954.74
39954.746
39954.749
39954.753
39954.755
39954.758
46970.231
47085.48
46986.796
47000.528
46976.193
46974.001
46970.974
46970.31
46970.066
46970.012
46970.002
46970
46970
46970.029
46970.334
46971.927
46977.223
46987.568
46987.729
46924.068
46726.482
46381.873
46003.361
45771.46
45688.689
45575.183
45410.025
45304.105
45222.302
45110.392
45015.802
44930.654
44830.876
44742.234
44644.072
44537.848
44426.084
44296.042
44152.719
43986.182
43796.841
43677.69
44186.114
49319.188
50355.854
46550.079
45699.06
45257.254
44911.638
44625.824
44379.635
44160.939
43959.97
43773.194
43594.695
43423.025
43256.397
43092.809
42931.459
42772.774
42617.962
42466.173
42316.98
42170.043
42027.19
41888.58
41755.11
41626.238
41502.954
41385.719
41274.306
41169.678
41070.824
40978.287
40891.007
40806.437
40726.154
40654.643
40591.247
40531.308
40477.193
40426.797
40380.319
40337.511
40298.346
40262.631
40230.419
40201.526
40175.179
40150.847
40128.759
40109.297
40092.348
40077.422
40063.981
40051.67
40040.347
40030.013
40020.642
40012.261
40004.838
39998.272
39992.49
39987.316
39982.782
39979.232
39975.985
39973.616
39971.696
39970.111
39968.81
39967.747
39966.879
39966.171
39965.595
39965.128
39964.751
39964.448
39964.207
39964.014
39963.863
39963.748
39963.671
39963.626
39963.594
39963.567
39963.552
39963.549
39963.554
39963.565
39963.582
39963.602
39963.624
39963.648
39963.672
39963.696
39963.718
39963.74
39963.759
39963.776
39963.789
39963.798
39963.805
39963.81
39963.814
39963.816
39963.818
39963.82
39963.822
46970.089
47085.493
46986.913
47000.52
46976.242
46973.999
46970.981
46970.309
46970.065
46970.012
46970.002
46970
46970
46970.028
46970.33
46971.92
46977.241
46987.857
46989.013
46927.402
46732.103
46389.037
46010.212
45776.604
45693.355
45580.555
45415.715
45309.167
45227.583
45116.018
45021.19
44936.462
44836.878
44748.324
44650.766
44545.526
44435.284
44306.997
44165.422
44000.09
43815.397
43660.711
43991.753
46109.004
53099.83
46995.332
45856.383
45364.174
44995.37
44693.603
44434.939
44205.996
43997.179
43803.503
43619.684
43443.812
43274.125
43108.045
42945.45
42785.954
42630.438
42478.192
42328.804
42181.721
42038.467
41899.807
41766.909
41638.136
41515.084
41398.017
41286.774
41182.418
41083.096
40988.723
40898.717
40813.365
40737.733
40671.773
40608.886
40548.484
40494.044
40442.611
40395.625
40352.557
40313.404
40278.011
40246.097
40217.07
40190.402
40166.075
40144.493
40125.6
40108.845
40093.601
40079.488
40066.461
40054.566
40043.831
40034.246
40025.773
40018.254
40011.573
40005.579
40000.189
39995.345
39991.429
39987.773
39984.989
39982.65
39980.633
39978.91
39977.439
39976.181
39975.105
39974.181
39973.39
39972.71
39972.127
39971.626
39971.196
39970.827
39970.51
39970.237
39970.003
39969.807
39969.644
39969.497
39969.357
39969.231
39969.125
39969.036
39968.963
39968.902
39968.851
39968.808
39968.772
39968.742
39968.715
39968.691
39968.671
39968.655
39968.645
39968.637
39968.631
39968.627
39968.625
39968.623
39968.623
39968.621
46969.998
47085.503
46987.052
47000.514
46976.294
46973.997
46970.987
46970.308
46970.065
46970.012
46970.002
46970
46970
46970.027
46970.325
46971.911
46977.258
46988.142
46990.305
46930.788
46737.855
46396.38
46017.249
45781.885
45698.135
45586.046
45421.554
45314.368
45232.986
45121.779
45026.704
44942.379
44842.968
44754.475
44657.497
44553.205
44444.461
44317.954
44178.169
44014.207
43833.739
43655.393
43779.629
44690.11
55777.887
47671.901
46048.559
45483.97
45090.513
44770.511
44497.937
44257.582
44040.216
43839.459
43649.87
43469.661
43296.267
43127.672
42963.341
42802.289
42645.444
42492.344
42342.468
42195.04
42051.184
41912.235
41779.29
41650.217
41526.709
41409.343
41297.687
41192.662
41092.926
40998.26
40909.988
40830.602
40760.835
40693.646
40626.644
40565.005
40509.105
40457.055
40410.242
40367.57
40328.872
40293.983
40262.258
40233.053
40206.239
40182.136
40160.866
40142.002
40124.872
40108.966
40094.245
40080.857
40068.866
40058.256
40048.933
40040.701
40033.373
40026.784
40020.789
40015.304
40010.29
40006.16
40002.168
39999.035
39996.338
39993.938
39991.831
39989.972
39988.33
39986.879
39985.599
39984.47
39983.477
39982.604
39981.837
39981.165
39980.577
39980.063
39979.615
39979.224
39978.884
39978.589
39978.341
39978.14
39977.973
39977.825
39977.691
39977.57
39977.465
39977.374
39977.295
39977.227
39977.167
39977.116
39977.074
39977.041
39977.014
39976.993
39976.976
39976.963
39976.954
39976.949
39976.945
39976.944
39976.944
46969.89
47085.512
46987.187
47000.508
46976.35
46973.996
46970.995
46970.308
46970.065
46970.012
46970.002
46970
46970
46970.025
46970.32
46971.902
46977.275
46988.421
46991.603
46934.223
46743.75
46403.911
46024.481
45787.311
45703.034
45591.662
45427.551
45319.712
45238.509
45127.666
45032.336
44948.399
44849.149
44760.697
44664.273
44560.89
44453.613
44328.905
44190.949
44028.499
43850.674
43661.21
43628.639
44140.878
55731.806
48823.826
46308.82
45620.506
45197.773
44856.26
44569.052
44317.186
44090.603
43882.178
43686.594
43500.873
43323.297
43151.545
42984.63
42821.699
42663.492
42509.57
42359.327
42211.909
42068.043
41929.27
41796.109
41667.263
41543.811
41426.388
41314.84
41209.863
41111.504
41019.952
40936.303
40859.381
40785.212
40711.46
40642.174
40581.64
40525.728
40475.16
40429.745
40388.022
40349.856
40315.155
40283.248
40253.815
40226.927
40202.815
40181.12
40161.359
40143.104
40126.23
40110.91
40097.229
40085.182
40074.642
40065.363
40057.045
40049.461
40042.452
40036.017
40030.084
40024.592
40019.908
40015.527
40012.037
40009.051
40006.429
40004.096
40002.04
40000.225
39998.62
39997.2
39995.945
39994.837
39993.86
39993
39992.244
39991.582
39991.001
39990.495
39990.053
39989.67
39989.338
39989.051
39988.803
39988.592
39988.415
39988.27
39988.151
39988.048
39987.957
39987.876
39987.805
39987.743
39987.691
39987.649
39987.614
39987.586
39987.564
39987.547
39987.533
39987.526
39987.523
39987.521
39987.521
39987.523
46969.802
47085.521
46987.314
47000.501
46976.413
46973.994
46971.002
46970.307
46970.065
46970.011
46970.002
46970
46970
46970.024
46970.314
46971.892
46977.29
46988.695
46992.907
46937.705
46749.79
46411.629
46031.914
45792.891
45708.054
45597.406
45433.708
45325.199
45244.152
45133.674
45038.083
44954.519
44855.425
44767.001
44671.102
44568.588
44462.739
44339.839
44203.75
44042.911
43866.784
43679.206
43561.779
43922.901
50674.699
50838.729
46683.263
45782.059
45318.051
44953.063
44649.952
44385.71
44148.699
43931.698
43729.492
43538.165
43356.019
43180.352
43010.812
42846.166
42686.365
42531.205
42380.175
42232.546
42088.945
41950.37
41816.974
41689.157
41566.535
41450.019
41339.903
41236.296
41139.603
41049.497
40964.937
40882.745
40801.718
40726.509
40662.007
40605.706
40551.793
40503.557
40458.86
40417.412
40379.074
40343.916
40311.538
40281.87
40255.011
40230.575
40208.163
40187.368
40168.103
40150.425
40134.434
40120.189
40107.61
40096.39
40086.222
40076.872
40068.229
40060.227
40052.802
40045.939
40039.682
40034.334
40029.567
40025.841
40022.801
40020.222
40018.05
40016.216
40014.661
40013.336
40012.204
40011.233
40010.398
40009.679
40009.06
40008.525
40008.064
40007.666
40007.323
40007.029
40006.776
40006.561
40006.377
40006.221
40006.09
40005.98
40005.887
40005.812
40005.75
40005.696
40005.647
40005.602
40005.562
40005.529
40005.502
40005.48
40005.463
40005.449
40005.439
40005.432
40005.425
40005.42
40005.419
40005.421
40005.425
46969.762
47085.531
46987.452
47000.491
46976.481
46973.993
46971.01
46970.306
46970.064
46970.011
46970.002
46970
46970
46970.022
46970.308
46971.882
46977.303
46988.962
46994.216
46941.23
46755.978
46419.538
46039.557
45798.634
45713.2
45603.277
45440.028
45330.828
45249.906
45139.795
45043.944
44960.743
44861.804
44773.393
44677.994
44576.302
44471.847
44350.748
44216.56
44057.429
43882.87
43701.238
43537.491
43783.228
46597.33
53838.842
47287.754
45981.532
45454.831
45061.205
44740.361
44462.95
44215.028
43989.516
43779.939
43582.956
43395.201
43215.39
43043.02
42875.966
42713.661
42556.343
42403.733
42255.215
42111.261
41972.165
41837.936
41710.393
41587.954
41471.541
41362.251
41259.011
41161.762
41069.817
40981.86
40897.026
40818.903
40752.659
40695.516
40640.381
40586.712
40538.481
40492.545
40450.295
40411.282
40375.552
40343.013
40313.483
40286.85
40262.444
40239.85
40218.916
40199.543
40181.846
40165.822
40151.359
40138.12
40125.825
40114.312
40103.518
40093.38
40083.906
40075.137
40067.111
40059.844
40053.521
40048.129
40043.871
40040.512
40037.745
40035.472
40033.615
40032.097
40030.855
40029.835
40028.996
40028.305
40027.734
40027.26
40026.866
40026.537
40026.263
40026.034
40025.842
40025.682
40025.548
40025.436
40025.342
40025.263
40025.197
40025.142
40025.094
40025.049
40025.005
40024.965
40024.93
40024.902
40024.882
40024.865
40024.85
40024.838
40024.829
40024.822
40024.817
40024.814
40024.813
40024.814
40024.816
40024.818
46969.682
47085.542
46987.609
47000.483
46976.558
46973.99
46971.018
46970.305
46970.064
46970.011
46970.002
46970
46970
46970.021
46970.302
46971.87
46977.314
46989.223
46995.527
46944.799
46762.317
46427.644
46047.414
45804.541
45718.473
45609.274
45446.509
45336.595
45255.764
45146.022
45049.921
44967.076
44868.293
44779.881
44684.957
44584.044
44480.943
44361.634
44229.372
44072.058
43899.275
43722.213
43530.075
43614.056
44666.881
56456.837
48342.023
46254.774
45608.681
45181.743
44842.389
44550.391
44290.641
44055.859
43838.656
43634.933
43441.535
43257.497
43081.199
42910.856
42745.642
42586.055
42431.846
42282.339
42137.581
41997.441
41861.892
41733.174
41609.662
41491.87
41381.937
41277.847
41179.447
41086.81
41000.225
40921.646
40854.125
40794.54
40735.474
40675.257
40619.956
40570.077
40522.963
40480.663
40442.089
40406.987
40374.906
40345.74
40319.18
40294.71
40272.129
40251.432
40232.537
40215.426
40199.909
40185.603
40172.17
40159.41
40147.241
40135.67
40124.775
40114.633
40105.275
40096.652
40088.82
40081.894
40075.99
40071.123
40067.258
40064.039
40061.339
40059.085
40057.204
40055.632
40054.314
40053.206
40052.273
40051.482
40050.811
40050.238
40049.747
40049.325
40048.961
40048.645
40048.37
40048.13
40047.92
40047.736
40047.576
40047.435
40047.311
40047.205
40047.115
40047.037
40046.966
40046.903
40046.847
40046.8
40046.76
40046.727
40046.7
40046.678
40046.661
40046.649
40046.641
40046.638
40046.637
40046.637
40046.637
46969.455
47085.554
46987.797
47000.477
46976.639
46973.986
46971.026
46970.304
46970.064
46970.011
46970.002
46970
46970
46970.019
46970.295
46971.857
46977.322
46989.477
46996.841
46948.419
46768.815
46435.957
46055.493
45810.617
45723.873
45615.393
45453.15
45342.5
45261.721
45152.356
45056.02
44973.525
44874.9
44786.473
44692.002
44591.82
44490.032
44372.497
44242.177
44086.792
43915.969
43741.196
43537.919
43476.557
43919.665
54157.819
50212.518
46664.987
45790.554
45320.799
44957.924
44649.095
44376.548
44131.009
43906.18
43695.314
43496.773
43307.149
43126.282
42952.934
42785.175
42623.577
42467.884
42317.501
42172.211
42031.672
41895.92
41766.487
41642.621
41524.171
41413.769
41309.711
41212.301
41122.715
41041.501
40969.386
40903.257
40836.308
40768.482
40705.208
40651.313
40601.909
40556.566
40516.265
40479.285
40445.179
40413.599
40384.374
40357.279
40332.171
40309.056
40287.88
40268.783
40251.5
40235.673
40220.936
40207.122
40194.158
40182.014
40170.719
40160.2
40150.371
40141.241
40132.806
40124.985
40117.763
40111.588
40106.199
40101.801
40097.996
40094.674
40091.781
40089.263
40087.07
40085.158
40083.49
40082.037
40080.769
40079.664
40078.7
40077.859
40077.124
40076.482
40075.92
40075.429
40074.997
40074.619
40074.286
40073.995
40073.739
40073.515
40073.319
40073.146
40072.995
40072.864
40072.752
40072.655
40072.574
40072.508
40072.454
40072.411
40072.377
40072.351
40072.334
40072.323
40072.318
40072.316
40072.316
40072.315
46969.155
47085.566
46987.997
47000.471
46976.715
46973.98
46971.034
46970.303
46970.063
46970.011
46970.002
46970
46970
46970.018
46970.289
46971.844
46977.327
46989.723
46998.157
46952.091
46775.46
46444.475
46063.797
45816.862
45729.399
45621.633
45459.952
45348.541
45267.775
45158.802
45062.249
44980.097
44881.632
44793.175
44699.137
44599.643
44499.12
44383.335
44254.965
44101.605
43932.834
43759.383
43561.17
43416.311
43628.681
48758.686
53257.735
47344.434
46037.084
45481.104
45086.865
44759.451
44474.019
44217.534
43982.967
43765.862
43560.356
43364.903
43180.408
43003.911
42832.756
42668.002
42509.648
42357.351
42211.044
42070.127
41934.934
41806.195
41683.821
41567.446
41458.659
41356.735
41261.61
41174.131
41092.969
41016.857
40941.796
40866.871
40798.603
40741.701
40693.734
40647.553
40605.938
40567.743
40531.854
40498.191
40466.653
40437.049
40409.339
40383.479
40359.396
40337.115
40316.479
40297.37
40279.627
40263.168
40248.02
40234.193
40221.669
40210.351
40200.089
40190.817
40182.348
40174.467
40167.092
40160.159
40154.184
40148.751
40144.276
40140.304
40136.722
40133.503
40130.614
40128.023
40125.699
40123.616
40121.753
40120.088
40118.602
40117.277
40116.096
40115.044
40114.108
40113.275
40112.534
40111.875
40111.288
40110.766
40110.301
40109.888
40109.521
40109.196
40108.913
40108.668
40108.453
40108.265
40108.099
40107.955
40107.831
40107.728
40107.642
40107.571
40107.514
40107.47
40107.438
40107.417
40107.406
40107.402
40107.4
46968.944
47085.575
46988.182
47000.464
46976.789
46973.975
46971.042
46970.302
46970.063
46970.011
46970.002
46970
46970
46970.017
46970.281
46971.829
46977.33
46989.961
46999.474
46955.809
46782.255
46453.204
46072.339
45823.287
45735.057
45627.994
45466.915
45354.723
45273.928
45165.366
45068.616
44986.799
44888.495
44799.992
44706.372
44607.525
44508.219
44394.151
44267.725
44116.461
43949.8
43777.809
43587.213
43399.844
43476.482
45409.89
56102.896
48609.643
46384.254
45673.666
45235.154
44884.322
44583.034
44315.575
44071.022
43846.004
43633.377
43433.804
43244.537
43062.678
42886.87
42717.919
42555.981
42400.341
42251.539
42108.501
41971.755
41841.945
41719.068
41603.666
41495.181
41394.574
41300.096
41211.783
41127.562
41046.989
40969.756
40901.058
40845.522
40799.205
40754.524
40709.461
40669.024
40630.382
40593.967
40559.776
40528.097
40498.496
40470.947
40445.419
40421.494
40398.793
40377.091
40356.48
40337.005
40318.797
40301.96
40286.581
40272.735
40260.382
40249.438
40239.645
40230.786
40222.662
40215.058
40207.91
40201.756
40196.111
40191.488
40187.381
40183.652
40180.275
40177.224
40174.47
40171.987
40169.756
40167.755
40165.966
40164.37
40162.95
40161.688
40160.57
40159.579
40158.702
40157.927
40157.242
40156.636
40156.101
40155.629
40155.212
40154.844
40154.522
40154.242
40154.004
40153.798
40153.62
40153.46
40153.32
40153.199
40153.1
40153.018
40152.951
40152.898
40152.858
40152.83
40152.813
40152.803
40152.799
40152.801
46968.85
47085.591
46988.328
47000.452
46976.868
46973.971
46971.049
46970.301
46970.062
46970.011
46970.002
46970
46970
46970.015
46970.274
46971.813
46977.33
46990.189
47000.792
46959.568
46789.207
46462.151
46081.117
45829.897
45740.847
45634.478
45474.043
45361.051
45280.186
45172.056
45075.128
44993.635
44895.495
44806.932
44713.715
44615.473
44517.331
44404.948
44280.443
44131.318
43966.827
43796.703
43610.231
43398.915
43362.069
44018.745
54568.951
50937.041
46958.684
45932.245
45412.647
45029.685
44708.146
44425.532
44172.568
43936.767
43719.546
43513.37
43316.981
43129.956
42951.028
42779.179
42614.53
42455.935
42304.654
42159.275
42019.413
41885.982
41758.962
41640.551
41528.651
41426.118
41330.425
41241.855
41159.343
41083.648
41017.496
40963.941
40918.005
40871.058
40820.812
40773.026
40730.614
40689.92
40652.784
40618.693
40587.66
40558.96
40532.292
40507.652
40484.827
40463.411
40443.112
40423.676
40404.901
40386.733
40369.166
40352.477
40336.96
40322.828
40310.129
40298.784
40288.621
40279.41
40270.986
40263.226
40256.529
40250.434
40245.531
40241.282
40237.497
40234.12
40231.107
40228.419
40226.019
40223.88
40221.976
40220.287
40218.79
40217.468
40216.303
40215.279
40214.379