/*--------------------------------*- C++ -*----------------------------------*\
| =========                 |                                                 |
| \\      /  F ield         | OpenFOAM: The Open Source CFD Toolbox           |
|  \\    /   O peration     | Version:  2506                                  |
|   \\  /    A nd           | Website:  www.openfoam.com                      |
|    \\/     M anipulation  |                                                 |
\*---------------------------------------------------------------------------*/
FoamFile
{
    version     2.0;
    format      ascii;
    arch        "LSB;label=32;scalar=64";
    class       volScalarField;
    location    "0.0085";
    object      T;
}
// * * * * * * * * * * * * * * * * * * * * * * * * * * * * * * * * * * * * * //

dimensions      [0 0 0 1 0 0 0];

internalField   nonuniform List<scalar> 
192657
(
245.48607
245.64096
245.53773
245.52567
245.49636
245.48639
245.48186
245.48048
245.48011
245.48002
245.48
245.48
245.48
245.48
245.48013
245.48189
245.49045
245.51772
245.58112
245.67489
245.68951
245.453
245.00253
244.61693
244.51118
244.47383
244.32185
244.17346
244.10168
244.01185
243.90838
243.82211
243.73554
243.63156
243.53599
243.42208
243.30469
243.18135
243.04888
242.89709
242.71477
242.54658
242.37074
242.18097
242.0237
242.16825
243.0592
254.55493
247.8342
245.18052
244.18451
243.56769
243.11804
242.75727
242.42934
242.1422
241.88415
241.65342
241.43888
241.23139
241.03816
240.85449
240.68218
240.51158
240.34344
240.17427
240.02086
239.86965
239.72335
239.58238
239.45055
239.32518
239.2053
239.09491
238.98753
238.88467
238.78923
238.69916
238.61665
238.53775
238.46136
238.39197
238.32795
238.26636
238.2066
238.1525
238.10356
238.05539
238.00896
237.96351
237.91984
237.87615
237.8343
237.80001
237.77073
237.7389
237.70171
237.66177
237.62545
237.59816
237.57587
237.54959
237.5209
237.48907
237.56333
238.39443
239.46306
240.09784
240.48402
240.74203
240.91981
241.04134
241.12214
241.17276
241.20068
241.21131
241.20902
241.1975
241.17926
241.15671
241.13092
241.10312
241.07439
241.04556
241.01737
240.99047
240.96545
240.94276
240.92276
240.9057
240.89178
240.88105
240.87334
240.86912
240.86855
240.8718
240.87903
240.89058
240.90658
240.92719
240.95217
240.98103
241.0122
241.04301
241.0693
241.0878
241.09812
241.10253
241.10358
245.48611
245.64082
245.53804
245.52572
245.49641
245.4864
245.48187
245.48048
245.48011
245.48002
245.48
245.48
245.48
245.48
245.48013
245.48186
245.49035
245.5175
245.58092
245.67525
245.69267
245.45846
245.00928
244.62196
244.51464
244.47767
244.32618
244.17769
244.10552
244.01607
243.91247
243.8261
243.73997
243.63607
243.54096
243.42798
243.31125
243.18911
243.05735
242.90678
242.72476
242.55833
242.38354
242.19666
242.01667
242.03036
242.36542
251.59938
249.67521
245.72537
244.46715
243.76542
243.26613
242.87122
242.52109
242.21953
241.94988
241.71104
241.48965
241.27742
241.08031
240.89492
240.72026
240.54505
240.3744
240.20562
240.04918
239.89572
239.75035
239.61069
239.47613
239.34842
239.22982
239.1212
239.0135
238.90976
238.81249
238.72126
238.63795
238.55796
238.48117
238.41156
238.34852
238.28638
238.22636
238.1736
238.12501
238.07797
238.0322
237.98846
237.94838
237.90883
237.86897
237.83293
237.80176
237.77157
237.73823
237.70195
237.67149
237.65032
237.63144
237.6081
237.58125
237.57706
237.72854
238.68953
239.74281
240.35294
240.76418
241.06475
241.29167
241.46621
241.6008
241.70429
241.78364
241.84434
241.88995
241.9233
241.94683
241.96276
241.97319
241.97921
241.98173
241.98157
241.97949
241.97607
241.97184
241.96724
241.96263
241.95831
241.95451
241.95144
241.94923
241.94799
241.94769
241.94837
241.94985
241.95202
241.95458
241.95735
241.95999
241.96233
241.96418
241.96537
241.96573
241.96568
241.96552
241.96523
241.96471
245.4861
245.64075
245.53838
245.52576
245.49645
245.48641
245.48187
245.48048
245.48011
245.48002
245.48
245.48
245.48
245.48
245.48012
245.48183
245.49026
245.51731
245.5807
245.67563
245.69581
245.4639
245.01596
244.62691
244.51808
244.48148
244.33046
244.18189
244.10936
244.02028
243.91651
243.83008
243.74442
243.64065
243.54592
243.43392
243.31784
243.19696
243.06581
242.91652
242.73491
242.57033
242.39628
242.21277
242.01997
241.93145
242.10531
246.81576
252.02869
246.56605
244.79918
243.96758
243.42737
243.00635
242.63508
242.31625
242.03166
241.78203
241.5489
241.32921
241.12599
240.93812
240.75819
240.58137
240.41149
240.2402
240.08222
239.93107
239.78543
239.64159
239.50612
239.38089
239.26317
239.15275
239.04284
238.93707
238.83883
238.74783
238.66437
238.585
238.50895
238.43987
238.37616
238.31313
238.25329
238.20086
238.15308
238.1072
238.06179
238.01869
237.97922
237.93927
237.90254
237.87441
237.8498
237.82259
237.78963
237.75456
237.7262
237.70761
237.69382
237.6796
237.65914
237.63791
237.74318
238.68147
239.74238
240.35307
240.76332
241.06199
241.28619
241.45678
241.58728
241.68671
241.76133
241.81579
241.85404
241.8794
241.8946
241.90186
241.90299
241.89951
241.89261
241.88329
241.87237
241.86053
241.84831
241.83615
241.82441
241.81336
241.80322
241.79418
241.78635
241.7799
241.77489
241.77147
241.76963
241.76951
241.77105
241.77423
241.77877
241.78426
241.78994
241.7952
241.79922
241.80154
241.80235
241.80229
241.8021
245.4861
245.6407
245.53865
245.52578
245.4965
245.48641
245.48187
245.48048
245.48011
245.48002
245.48
245.48
245.48
245.48
245.48012
245.48179
245.49015
245.51708
245.58044
245.67598
245.69913
245.46969
245.02314
244.63219
244.52156
244.48537
244.3349
244.18621
244.11325
244.02458
243.9206
243.83409
243.74896
243.64531
243.55086
243.43989
243.32444
243.20486
243.07428
242.92633
242.74547
242.58261
242.40927
242.22863
242.03157
241.89026
241.97346
243.76744
254.38029
247.94844
245.25949
244.24741
243.64064
243.17201
242.76651
242.4235
242.12038
241.85789
241.61481
241.38608
241.17933
240.98779
240.80246
240.62695
240.45333
240.2799
240.12383
239.97026
239.81912
239.6738
239.54216
239.4169
239.29502
239.18157
239.07097
238.96557
238.86881
238.7794
238.69652
238.61761
238.54045
238.46999
238.40659
238.34399
238.28443
238.23325
238.18563
238.14007
238.09584
238.05521
238.0187
237.98159
237.94643
237.91751
237.89356
237.87028
237.84202
237.81166
237.78944
237.7764
237.7662
237.75164
237.73313
237.73343
237.86624
238.77101
239.87437
240.50866
240.93955
241.25764
241.49855
241.68261
241.82352
241.93128
242.01278
242.07343
242.11748
242.14827
242.16849
242.18026
242.18535
242.1852
242.18109
242.17395
242.16465
242.15384
242.14212
242.12991
242.11759
242.10544
242.09366
242.08242
242.0718
242.06188
242.05261
242.044
242.03597
242.02843
242.02124
242.01428
242.00743
242.00058
241.99371
241.98691
241.98047
241.97491
241.9707
241.96794
241.96662
245.48612
245.64058
245.53885
245.52578
245.49657
245.48642
245.48188
245.48048
245.48011
245.48002
245.48
245.48
245.48
245.48
245.48011
245.48177
245.49006
245.51689
245.58024
245.67641
245.70243
245.47524
245.02997
244.63721
244.525
244.48924
244.33921
244.19045
244.11717
244.02886
243.92463
243.83809
243.75354
243.65003
243.55582
243.44585
243.33102
243.21275
243.08271
242.93598
242.75608
242.59488
242.42244
242.24397
242.04711
241.88154
241.85319
242.44844
252.02156
250.22182
245.94213
244.57189
243.8566
243.33819
242.90446
242.54298
242.22637
241.94985
241.69598
241.45713
241.24494
241.04432
240.85644
240.67639
240.49761
240.32572
240.16781
240.00671
239.85575
239.71519
239.58218
239.45086
239.32692
239.21524
239.10643
239.00258
238.90624
238.81523
238.73096
238.65055
238.57211
238.50301
238.43961
238.37725
238.31899
238.26776
238.22127
238.17697
238.13365
238.09329
238.05589
238.01791
237.985
237.9608
237.94119
237.91939
237.89207
237.86366
237.84262
237.83184
237.82395
237.81227
237.80222
237.78373
237.88706
238.75114
239.87958
240.52537
240.96415
241.28893
241.5359
241.72549
241.87111
241.98207
242.06563
242.12751
242.17233
242.20355
242.2239
242.23555
242.24029
242.23958
242.23468
242.22659
242.21619
242.20418
242.19116
242.1776
242.1639
242.15037
242.13723
242.12468
242.11286
242.10187
242.09176
242.08257
242.07424
242.06673
242.05988
242.05351
242.0473
242.04091
242.03393
242.02607
242.01759
242.00939
242.00274
241.99841
241.99656
245.48618
245.64041
245.5391
245.5258
245.49664
245.48643
245.48188
245.48048
245.48011
245.48002
245.48
245.48
245.48
245.48
245.48011
245.48173
245.48996
245.51665
245.57997
245.67675
245.70589
245.48123
245.03749
244.64275
244.52858
244.49323
244.34379
244.19491
244.12121
244.03331
243.92878
243.84219
243.75826
243.65491
243.56081
243.45185
243.33766
243.2207
243.09121
242.94572
242.76719
242.60743
242.4362
242.25935
242.06394
241.88354
241.75992
241.96112
247.07124
252.39014
247.1091
245.02223
244.14671
243.56244
243.08648
242.69264
242.35242
242.0582
241.78554
241.53766
241.31307
241.10786
240.91408
240.72689
240.54916
240.37711
240.21088
240.04825
239.90396
239.76132
239.61981
239.4875
239.36877
239.25953
239.14878
239.04292
238.94345
238.85065
238.76591
238.68371
238.60546
238.53683
238.47373
238.41197
238.35289
238.30332
238.25789
238.21505
238.17469
238.13788
238.10306
238.06678
238.03381
238.00774
237.98758
237.96717
237.94147
237.91503
237.89793
237.89014
237.88318
237.87225
237.85386
237.86422
237.95583
238.73623
239.89842
240.56369
241.02051
241.35713
241.61182
241.80741
241.95855
242.07536
242.16468
242.23198
242.28187
242.31792
242.34267
242.3583
242.36664
242.36916
242.36713
242.36158
242.35336
242.34319
242.33169
242.31931
242.30645
242.29344
242.28051
242.26786
242.25562
242.2439
242.23274
242.22217
242.21216
242.2027
242.19369
242.18508
242.1767
242.16843
242.16004
242.15155
242.14304
242.13543
242.12949
242.12543
242.12311
245.48625
245.64027
245.53946
245.5258
245.4967
245.48643
245.48188
245.48048
245.48011
245.48002
245.48
245.48
245.48
245.48
245.4801
245.4817
245.48986
245.51645
245.57976
245.67719
245.70934
245.48699
245.04464
244.648
244.53212
244.49723
244.34825
244.1993
244.12529
244.03775
243.9329
243.84632
243.76301
243.65988
243.56585
243.45783
243.34427
243.22863
243.09974
242.95528
242.77835
242.61986
242.45023
242.27461
242.08064
241.8963
241.71395
241.76393
243.72897
254.33404
248.96201
245.68393
244.49645
243.80428
243.27453
242.84842
242.48385
242.17396
241.88887
241.62884
241.39578
241.18445
240.98076
240.79275
240.61247
240.43073
240.26271
240.1054
239.95643
239.80436
239.66271
239.53727
239.41944
239.30434
239.18812
239.07974
238.97884
238.88663
238.80248
238.72147
238.64434
238.57598
238.51167
238.4475
238.39003
238.34105
238.29523
238.25261
238.21234
238.17673
238.14353
238.11022
238.08216
238.06011
238.04031
238.01858
237.99124
237.96418
237.94642
237.93814
237.93323
237.92647
237.91346
237.89309
237.9698
238.65194
239.85914
240.56113
241.03122
241.37904
241.64265
241.84525
242.00158
242.12193
242.21416
242.28447
242.33672
242.37436
242.3999
242.41583
242.42417
242.42649
242.42403
242.41788
242.40893
242.39792
242.38547
242.37208
242.35818
242.34413
242.33018
242.31658
242.30345
242.29097
242.27919
242.26819
242.2579
242.24838
242.23948
242.23118
242.22325
242.21554
242.20776
242.19981
242.19181
242.18456
242.17888
242.17508
242.17315
245.48632
245.64017
245.53974
245.52583
245.49677
245.48645
245.48188
245.48048
245.48011
245.48002
245.48
245.48
245.48
245.48
245.4801
245.48167
245.48975
245.51621
245.57945
245.67751
245.7129
245.49318
245.05257
244.65387
244.53583
244.50136
244.35302
244.20395
244.12953
244.04239
243.9372
243.85059
243.76788
243.66502
243.57096
243.46379
243.35092
243.23661
243.10841
242.96487
242.78995
242.63255
242.46478
242.29013
242.09757
241.91342
241.70296
241.64852
242.24017
250.32862
251.46064
246.81293
244.98193
244.11693
243.51662
243.05228
242.65984
242.32071
242.01868
241.73885
241.49626
241.26832
241.06026
240.86665
240.67397
240.49092
240.32676
240.16177
240.00256
239.85368
239.72015
239.59107
239.46401
239.3443
239.22836
239.12218
239.02404
238.93449
238.85069
238.76839
238.69044
238.62127
238.55634
238.49332
238.43572
238.38509
238.33785
238.29311
238.25194
238.21699
238.18415
238.15041
238.12049
238.09812
238.08211
238.06403
238.03739
238.01042
237.99367
237.98567
237.97907
237.96799
237.9551
237.95376
238.01751
238.59985
239.81039
240.54491
241.03459
241.39638
241.67073
241.8811
242.04309
242.16813
242.26517
242.33994
242.39679
242.43868
242.4687
242.48918
242.50194
242.50832
242.50959
242.50681
242.50082
242.4923
242.48188
242.47004
242.45723
242.44382
242.43009
242.41631
242.40265
242.38926
242.37624
242.36365
242.35155
242.33992
242.32873
242.31791
242.30737
242.29698
242.28661
242.27633
242.26653
242.25813
242.25189
242.24796
242.24617
245.48636
245.64007
245.53993
245.52586
245.49683
245.48646
245.48189
245.48048
245.48011
245.48002
245.48
245.48
245.48
245.48
245.48009
245.48164
245.48965
245.51599
245.57922
245.67796
245.71647
245.49914
245.06012
244.65944
244.53949
244.50552
244.35769
244.20854
244.13381
244.04703
243.94146
243.85491
243.77276
243.67023
243.57612
243.46972
243.35755
243.24456
243.1172
242.97438
242.80155
242.64509
242.47948
242.30553
242.11458
241.93145
241.70726
241.58418
241.70071
245.57093
253.92982
248.61743
245.71415
244.52079
243.79887
243.26981
242.84181
242.47946
242.14986
241.86234
241.60133
241.36539
241.15297
240.94376
240.74964
240.57006
240.39499
240.21891
240.06556
239.92353
239.78194
239.63975
239.51112
239.3972
239.28519
239.17994
239.08104
238.98817
238.90018
238.81629
238.73706
238.66636
238.60123
238.537
238.47958
238.43104
238.38538
238.34053
238.29811
238.26118
238.22728
238.19467
238.16808
238.14724
238.12723
238.10676
238.08098
238.05511
238.03766
238.0292
238.02258
238.01374
237.99853
237.97664
238.0295
238.53304
239.7386
240.52037
241.03229
241.4043
241.68842
241.907
242.07579
242.20626
242.30666
242.38336
242.44152
242.48524
242.51749
242.54002
242.55414
242.56127
242.56294
242.56034
242.55426
242.54544
242.53453
242.52205
242.50846
242.49413
242.47938
242.46445
242.44957
242.43492
242.42062
242.40678
242.39343
242.38063
242.36837
242.35659
242.34519
242.33403
242.32305
242.31225
242.30235
242.29415
242.28842
242.28532
242.28452
245.48634
245.63993
245.53998
245.52592
245.49688
245.48647
245.48189
245.48048
245.48011
245.48002
245.48
245.48
245.48
245.48
245.48009
245.4816
245.48954
245.51573
245.57888
245.67826
245.72009
245.50554
245.06848
244.66572
244.54336
244.50982
244.36268
244.21342
244.13826
244.05186
243.94593
243.85938
243.77774
243.6756
243.58137
243.47564
243.36422
243.25258
243.12613
242.98387
242.81349
242.6579
242.49458
242.32114
242.13213
241.94922
241.7234
241.55813
241.49736
242.83017
251.86643
251.1447
246.98295
245.10891
244.17856
243.56111
243.07477
242.68371
242.3266
242.01874
241.73717
241.4939
241.25679
241.04126
240.84851
240.65281
240.46381
240.29311
240.14544
239.99003
239.83486
239.69518
239.57656
239.46447
239.34741
239.23606
239.1315
239.03399
238.94417
238.85875
238.77889
238.70826
238.64247
238.57776
238.52119
238.4734
238.42859
238.38613
238.34471
238.30739
238.27076
238.23483
238.20363
238.18194
238.16643
238.14858
238.12202
238.09567
238.07953
238.07087
238.06381
238.05284
238.0347
238.0323
238.07019
238.47586
239.64468
240.47827
241.01188
241.40091
241.69656
241.92417
242.09948
242.23532
242.3404
242.42125
242.48287
242.52913
242.56315
242.58748
242.60425
242.61502
242.62053
242.62124
242.61841
242.61294
242.60539
242.59617
242.58565
242.5741
242.56176
242.54883
242.53548
242.52188
242.5081
242.49427
242.48043
242.46663
242.45282
242.43898
242.42501
242.41083
242.39641
242.38198
242.3684
242.35697
242.34875
242.34393
242.34197
245.4863
245.63972
245.54019
245.526
245.49693
245.48649
245.48189
245.48049
245.48011
245.48002
245.48
245.48
245.48
245.48
245.48009
245.48157
245.48943
245.51549
245.57862
245.6787
245.72376
245.51173
245.07648
244.67164
244.54715
244.51417
244.36758
244.21821
244.14276
244.0567
243.95037
243.86392
243.78272
243.68098
243.58671
243.48152
243.37088
243.2605
243.13518
242.9933
242.82536
242.67055
242.50978
242.33657
242.14979
241.96687
241.74417
241.54968
241.41034
241.73612
246.71486
253.60922
249.03891
246.03826
244.68934
243.91991
243.36005
242.90642
242.5277
242.18196
241.89428
241.62197
241.37274
241.16059
240.94725
240.7366
240.55598
240.38807
240.22124
240.05334
239.90558
239.77855
239.65553
239.52947
239.40339
239.28804
239.18204
239.08525
238.99738
238.91349
238.83289
238.75994
238.69222
238.62548
238.56703
238.51639
238.46993
238.427
238.38755
238.35302
238.31918
238.28466
238.25302
238.22736
238.20636
238.18355
238.15591
238.13008
238.11249
238.10374
238.09759
238.08857
238.07395
238.05074
238.07926
238.41983
239.5431
240.43729
240.99401
241.39709
241.70087
241.93587
242.11862
242.26015
242.36952
242.45363
242.51777
242.56607
242.60171
242.6272
242.64456
242.65543
242.66118
242.66302
242.66129
242.65628
242.6489
242.6399
242.62972
242.61867
242.607
242.59492
242.58255
242.57004
242.55743
242.5448
242.53212
242.51949
242.50682
242.49415
242.48138
242.46851
242.45556
242.44289
242.43099
242.42117
242.41433
242.41042
242.40879
245.48627
245.63953
245.54063
245.52608
245.49697
245.48651
245.4819
245.48049
245.48011
245.48002
245.48
245.48
245.48
245.48
245.48008
245.48153
245.48931
245.51522
245.57824
245.67898
245.72743
245.51833
245.0853
244.67837
244.5512
244.51866
244.3728
244.22333
244.14743
244.0617
243.95502
243.86862
243.78778
243.68647
243.59214
243.48745
243.37759
243.26841
243.14437
243.00271
242.83741
242.68354
242.52534
242.35219
242.16797
241.98472
241.76613
241.56011
241.37005
241.36065
243.22335
251.77797
251.32361
247.57928
245.48672
244.41207
243.72859
243.21036
242.77252
242.4087
242.08682
241.78864
241.53969
241.2979
241.0633
240.8619
240.677
240.48255
240.30147
240.14618
240.00647
239.86603
239.72289
239.58898
239.46617
239.35536
239.25304
239.1587
239.0705
238.98321
238.90065
238.82789
238.7573
238.68923
238.62847
238.57201
238.52033
238.47298
238.43173
238.39595
238.36064
238.32577
238.29451
238.27173
238.25515
238.23169
238.20147
238.17304
238.15425
238.14442
238.1358
238.12205
238.10166
238.09632
238.11383
238.37094
239.40915
240.36784
240.95032
241.37048
241.69027
241.93763
242.12887
242.27695
242.39158
242.47992
242.54744
242.59839
242.63607
242.66313
242.68164
242.69331
242.6995
242.70134
242.69982
242.69564
242.68897
242.68023
242.67008
242.65913
242.64765
242.63587
242.62394
242.61189
242.59984
242.58793
242.57621
242.5647
242.55331
242.54197
242.53051
242.51877
242.50659
242.49378
242.48095
242.46956
242.46099
242.45579
242.45366
245.48626
245.63938
245.54106
245.52613
245.497
245.48653
245.4819
245.48049
245.48011
245.48002
245.48
245.48
245.48
245.48
245.48008
245.4815
245.4892
245.51496
245.57794
245.6794
245.73117
245.52476
245.09377
244.68468
244.55513
244.52321
244.37793
244.22834
244.15215
244.06667
243.95963
243.87337
243.79283
243.69195
243.59769
243.49338
243.38429
243.27625
243.15365
243.01213
242.84937
242.69646
242.54091
242.36768
242.18627
242.00249
241.78835
241.5775
241.35825
241.23162
241.70341
246.58673
253.64958
250.11109
246.8425
245.16932
244.22394
243.59726
243.07977
242.67832
242.3029
242.00164
241.71454
241.44365
241.21834
241.0071
240.78789
240.58317
240.41791
240.26538
240.10093
239.93919
239.79663
239.67498
239.55974
239.44789
239.34069
239.23895
239.14256
239.05066
238.96546
238.88817
238.81486
238.7454
238.68475
238.63075
238.57735
238.52521
238.47876
238.44009
238.40547
238.3727
238.3418
238.31464
238.29348
238.26835
238.23931
238.21122
238.19085
238.17898
238.16963
238.15538
238.13401
238.11525
238.12833
238.34009
239.29349
240.31262
240.92023
241.35632
241.68871
241.94486
242.14469
242.29982
242.42
242.51277
242.58382
242.63749
242.67711
242.70531
242.7242
242.73546
242.74052
242.74052
242.73649
242.72925
242.71965
242.70791
242.6944
242.67956
242.66411
242.64856
242.63325
242.61845
242.60457
242.59173
242.57996
242.56932
242.5599
242.55165
242.54467
242.53893
242.5344
242.5309
242.52901
242.52858
242.52945
242.53136
242.53372
245.48628
245.63918
245.54142
245.52614
245.49706
245.48655
245.48191
245.48049
245.48011
245.48002
245.48
245.48
245.48
245.48
245.48007
245.48146
245.48907
245.51467
245.57753
245.67966
245.73485
245.53159
245.10308
244.6919
244.55938
244.52788
244.38339
244.23369
244.15705
244.0718
243.96443
243.87827
243.79801
243.69752
243.60336
243.49937
243.39102
243.28402
243.16302
243.02155
242.8614
242.70974
242.55679
242.38342
242.20506
242.02028
241.81076
241.59776
241.36747
241.18165
241.18894
243.03127
250.23976
252.20859
249.03554
246.43809
245.00114
244.12466
243.51864
243.0114
242.61716
242.26353
241.93165
241.66647
241.41839
241.16258
240.93373
240.74583
240.57129
240.38105
240.19786
240.04682
239.921
239.79771
239.66728
239.54013
239.42136
239.31041
239.20844
239.11358
239.02526
238.94448
238.8681
238.79696
238.7396
238.68838
238.63685
238.5856
238.53645
238.4922
238.45123
238.41325
238.38028
238.35597
238.33679
238.31227
238.28132
238.25205
238.23164
238.21993
238.21026
238.1955
238.17656
238.16655
238.16848
238.31615
239.15862
240.2349
240.87444
241.32927
241.67559
241.94395
242.15251
242.31413
242.43972
242.53711
242.61224
242.66959
242.71257
242.74375
242.76512
242.77819
242.78423
242.7842
242.77902
242.76945
242.75626
242.74014
242.72155
242.70099
242.67907
242.65621
242.63314
242.6104
242.58813
242.56668
242.54687
242.52927
242.51386
242.50064
242.48984
242.48128
242.47513
242.47119
242.47013
242.47124
242.47385
242.47749
242.4812
245.48634
245.63902
245.54174
245.52614
245.49714
245.48656
245.48192
245.48049
245.48011
245.48002
245.48
245.48
245.48
245.48
245.48007
245.48142
245.48895
245.51439
245.57718
245.68004
245.73866
245.53832
245.11206
244.69864
244.56343
244.53262
244.38876
244.23892
244.16199
244.0769
243.96918
243.88321
243.80324
243.70307
243.6091
243.50541
243.39776
243.29173
243.1724
243.03108
242.8733
242.72302
242.57259
242.39915
242.22389
242.03791
241.83353
241.61811
241.38795
241.16734
241.03157
241.49331
245.22635
252.43434
251.05784
248.42686
246.27939
244.95792
244.11149
243.49671
243.01831
242.57953
242.24329
241.93666
241.62694
241.36401
241.14899
240.9342
240.71246
240.50699
240.34592
240.2054
240.05992
239.90704
239.75862
239.625
239.50433
239.39293
239.29224
239.19824
239.10797
239.02301
238.94431
238.8702
238.80341
238.74457
238.69427
238.64478
238.59787
238.55401
238.51228
238.47279
238.43483
238.40397
238.37886
238.3551
238.32601
238.29686
238.27509
238.26118
238.24995
238.2358
238.21471
238.19088
238.18532
238.30425
239.03792
240.15389
240.82938
241.30422
241.66518
241.94511
242.16136
242.3299
242.46114
242.56318
242.6424
242.70364
242.7506
242.786
242.81185
242.82955
242.84012
242.84419
242.84227
242.83467
242.82175
242.80387
242.78153
242.75497
242.72457
242.69115
242.65554
242.61863
242.58135
242.54438
242.50796
242.47201
242.43858
242.40933
242.38597
242.37041
242.36513
242.37231
242.39213
242.41889
242.44527
242.46612
242.47855
245.48633
245.63882
245.54201
245.52616
245.49723
245.48658
245.48192
245.48049
245.48011
245.48002
245.48
245.48
245.48
245.48
245.48006
245.48139
245.48882
245.51408
245.57673
245.68027
245.74235
245.54545
245.12189
244.70638
244.56788
244.53747
244.39444
244.24452
244.16713
244.08215
243.97414
243.88832
243.80865
243.70872
243.61497
243.51157
243.40455
243.29943
243.18181
243.04067
242.88518
242.73663
242.58858
242.41517
242.24298
242.05575
241.85663
241.63852
241.4135
241.1735
240.98174
240.9858
242.23854
247.32032
252.90861
250.5375
248.25402
246.33452
245.05063
244.22202
243.55928
243.07277
242.65843
242.2604
241.93979
241.67909
241.41158
241.13734
240.90644
240.72286
240.5568
240.37347
240.18984
240.0254
239.88314
239.7572
239.63992
239.52905
239.42598
239.32557
239.22857
239.13854
239.05337
238.96855
238.89019
238.82129
238.76201
238.70893
238.6614
238.61641
238.5732
238.53153
238.49181
238.46083
238.43574
238.40962
238.37698
238.34465
238.32056
238.3052
238.29253
238.27668
238.25749
238.24261
238.23732
238.31304
238.92695
240.06301
240.78107
241.27641
241.65078
241.9404
242.16643
242.34242
242.47977
242.58687
242.67034
242.73547
242.78633
242.82605
242.85691
242.88059
242.89819
242.91037
242.91744
242.91938
242.91596
242.90678
242.89139
242.86926
242.83992
242.80294
242.75827
242.70601
242.64661
242.58083
242.5098
242.43498
242.35672
242.2754
242.19149
242.10555
242.01883
241.93321
241.85749
241.80289
241.77327
241.76344
241.76426
245.48628
245.63857
245.54229
245.52622
245.4973
245.48659
245.48193
245.48049
245.48011
245.48002
245.48
245.48
245.48
245.48
245.48006
245.48135
245.48869
245.51379
245.57633
245.68059
245.74623
245.55253
245.1314
244.71357
244.57204
244.54239
244.40004
244.24997
244.17227
244.08736
243.97904
243.89348
243.81414
243.71435
243.62089
243.51782
243.41136
243.30706
243.19117
243.05042
242.89693
242.75032
242.60434
242.43119
242.26196
242.07369
241.87973
241.65884
241.44004
241.19519
240.96994
240.84196
241.0726
243.19669
248.61849
252.61509
250.28569
248.44037
246.55416
245.34332
244.43671
243.77996
243.20285
242.76425
242.41132
242.05428
241.71376
241.43527
241.2164
240.99773
240.76624
240.54663
240.36502
240.21763
240.07911
239.94224
239.8087
239.68087
239.5608
239.44621
239.33924
239.24208
239.15224
239.06924
238.99449
238.92116
238.85118
238.78971
238.73715
238.69103
238.64743
238.60365
238.56139
238.52822
238.50158
238.47243
238.43839
238.40436
238.37686
238.35847
238.344
238.32846
238.30632
238.27542
238.26164
238.32445
238.83754
239.97272
240.74386
241.26428
241.65388
241.95524
242.19078
242.37575
242.51983
242.63159
242.71806
242.78494
242.83683
242.87729
242.90914
242.93452
242.95502
242.97176
242.98547
242.99656
243.00509
243.01095
243.01369
243.01282
243.00744
242.99643
242.9785
242.95249
242.91677
242.86989
242.81003
242.73554
242.6443
242.53439
242.40342
242.24949
242.07176
241.87319
241.66685
241.47777
241.33355
241.25167
241.22578
245.4864
245.6384
245.54271
245.52628
245.49736
245.4866
245.48193
245.48049
245.48011
245.48002
245.48
245.48
245.48
245.48
245.48006
245.48131
245.48855
245.51346
245.57584
245.68078
245.74992
245.55996
245.14176
244.72183
244.57669
244.54742
244.40595
244.25584
244.17763
244.09273
243.98418
243.8988
243.81983
243.72014
243.62691
243.52423
243.41823
243.31471
243.20044
243.06028
242.90862
242.76432
242.6202
242.44753
242.28104
242.09209
241.903
241.68003
241.46651
241.22326
240.98348
240.80528
240.71461
241.24589
243.92531
248.97566
252.23492
250.24147
248.80355
247.03673
245.83679
244.85726
244.10837
243.54585
243.0249
242.56834
242.21551
241.9157
241.61259
241.30509
241.0402
240.83621
240.66193
240.4899
240.3086
240.13434
239.97386
239.82626
239.69131
239.56706
239.45381
239.35203
239.25667
239.1724
239.09945
239.02998
238.96088
238.89246
238.83276
238.78051
238.73307
238.6864
238.64344
238.609
238.58042
238.54655
238.50816
238.47045
238.44138
238.42153
238.40442
238.38294
238.35998
238.34723
238.33331
238.35683
238.75106
239.84835
240.6786
241.22378
241.6336
241.94988
242.19769
242.39129
242.5419
242.65817
242.74775
242.81669
242.86978
242.91085
242.94297
242.96857
242.98956
243.0074
243.02315
243.0376
243.05117
243.06406
243.07667
243.0894
243.10219
243.11509
243.12752
243.13906
243.149
243.15676
243.16149
243.16235
243.15825
243.14803
243.12998
243.10387
243.06867
243.02695
242.98082
242.93257
242.90267
242.89454
242.90558
245.48653
245.63819
245.5431
245.52631
245.49743
245.48662
245.48194
245.48049
245.48011
245.48002
245.48
245.48
245.48
245.48
245.48005
245.48127
245.48842
245.51314
245.57539
245.68105
245.75383
245.56743
245.15181
244.72947
244.58098
244.55251
244.4118
244.26154
244.18296
244.09811
243.9893
243.90415
243.82561
243.72597
243.63296
243.53075
243.42517
243.3224
243.2096
243.07036
242.92024
242.77841
242.63575
242.46386
242.29991
242.11078
241.9262
241.70124
241.49258
241.25253
241.01214
240.79663
240.61389
240.5923
241.38449
244.12235
248.4821
251.69373
250.59167
249.10871
247.86369
246.47722
245.51446
244.69632
243.98417
243.44484
242.98218
242.52838
242.10815
241.77144
241.51261
241.27556
241.0261
240.77762
240.54898
240.35225
240.18009
240.02506
239.88555
239.75859
239.63884
239.52509
239.41403
239.31231
239.22852
239.15993
239.09175
239.02162
238.95564
238.89557
238.84024
238.78659
238.73769
238.69697
238.66189
238.62458
238.58422
238.54564
238.51487
238.49349
238.47523
238.45043
238.41769
238.39036
238.3798
238.40504
238.71788
239.75682
240.65086
241.22097
241.64096
241.96471
242.21888
242.41811
242.57324
242.69372
242.78684
242.85825
242.91264
242.95377
242.98472
243.00801
243.02571
243.03953
243.05081
243.06067
243.07004
243.0798
243.09031
243.10209
243.11539
243.13066
243.14801
243.16695
243.18736
243.20922
243.23223
243.25648
243.28134
243.30699
243.3326
243.35563
243.36947
243.36823
243.34938
243.30728
243.27383
243.26323
243.27777
245.48646
245.63794
245.54348
245.52633
245.49752
245.48662
245.48195
245.48049
245.48011
245.48002
245.48
245.48
245.48
245.48
245.48005
245.48123
245.48828
245.51279
245.57485
245.68118
245.75751
245.57517
245.16271
244.73825
244.58585
244.55772
244.41796
244.26767
244.18853
244.10365
243.9947
243.90967
243.83158
243.73202
243.63907
243.53743
243.43218
243.33017
243.21864
243.08054
242.93174
242.79279
242.65129
242.48054
242.31888
242.13008
241.94928
241.72307
241.51882
241.28183
241.04712
240.81904
240.59319
240.41436
240.4694
241.33446
243.72049
247.27628
250.44389
250.94845
249.42503
248.42336
247.4329
246.33675
245.4497
244.73203
244.06236
243.44638
242.96008
242.56073
242.18159
241.80189
241.45288
241.16009
240.9212
240.71616
240.52791
240.35304
240.19303
240.04471
239.904
239.77319
239.64867
239.5287
239.42378
239.33641
239.25852
239.18369
239.1117
239.04309
238.9793
238.91775
238.85757
238.80603
238.76166
238.71833
238.67136
238.62677
238.59161
238.56694
238.5466
238.52195
238.48906
238.4566
238.42348
238.42559
238.65014
239.60647
240.56037
241.15335
241.59278
241.93597
242.20492
242.41514
242.57944
242.70738
242.80623
242.88195
242.9394
242.98238
243.01403
243.03678
243.05265
243.06314
243.0695
243.07274
243.07404
243.07448
243.07465
243.0749
243.07535
243.07643