/*--------------------------------*- C++ -*----------------------------------*\
| =========                 |                                                 |
| \\      /  F ield         | OpenFOAM: The Open Source CFD Toolbox           |
|  \\    /   O peration     | Version:  2506                                  |
|   \\  /    A nd           | Website:  www.openfoam.com                      |
|    \\/     M anipulation  |                                                 |
\*---------------------------------------------------------------------------*/
FoamFile
{
    version     2.0;
    format      ascii;
    arch        "LSB;label=32;scalar=64";
    class       volScalarField;
    location    "0.45";
    object      nut;
}
// * * * * * * * * * * * * * * * * * * * * * * * * * * * * * * * * * * * * * //

dimensions      [0 2 -1 0 0 0 0];

internalField   nonuniform List<scalar> 
1375
(
0.19222821
0.19215124
0.19208632
0.1920316
0.19198704
0.19195644
0.19194333
0.19193616
0.1919821
0.19195302
0.19222045
0.15816418
0.1256965
0.099615644
0.078792192
0.061704741
0.047707798
0.036422101
0.027364453
0.020157429
0.014541379
0.010091157
0.0066750066
0.0040398881
0.0023466123
0.0008816193
0.19901231
0.19823909
0.19755831
0.19700546
0.19651871
0.19607262
0.19565748
0.19527538
0.19492758
0.19461073
0.19432193
0.19405802
0.19381634
0.1935955
0.19339385
0.19320986
0.19304193
0.19288866
0.19274956
0.19262277
0.19250723
0.19240318
0.19230818
0.19222172
0.19214579
0.1920815
0.19202635
0.19198062
0.1919484
0.19193336
0.19192479
0.19196926
0.1919313
0.19219738
0.1625123
0.12899294
0.10217996
0.080823063
0.06337504
0.049059512
0.037505983
0.028144103
0.020813596
0.014917495
0.010486702
0.0069126438
0.0042890143
0.0025185407
0.0009040994
0.19895191
0.19817506
0.19749486
0.19694445
0.19646064
0.19601737
0.19560596
0.19522861
0.1948854
0.19457269
0.19428738
0.19402617
0.19378692
0.19356847
0.19336918
0.19318711
0.19302053
0.19286829
0.19273049
0.19260502
0.19249067
0.19238777
0.19229403
0.19220895
0.19213441
0.19207111
0.19201591
0.19196977
0.1919366
0.19192003
0.19190974
0.19195301
0.19191073
0.19217306
0.16571469
0.13137196
0.10394313
0.082352152
0.064636211
0.050175555
0.038293548
0.028995502
0.021190418
0.015507599
0.010704858
0.0072595432
0.0043503494
0.0027142518
0.00095371385
0.19885924
0.19807544
0.19739631
0.19684784
0.19636659
0.19592728
0.19552226
0.19515233
0.19481606
0.19450902
0.194229
0.19397281
0.19373804
0.1935238
0.19332825
0.19314939
0.19298555
0.19283587
0.19270073
0.19257751
0.19246497
0.19236354
0.19227105
0.19218735
0.1921148
0.19205351
0.19199991
0.19195574
0.19192424
0.19190936
0.19190142
0.19194706
0.19191634
0.19216881
0.16168433
0.12831156
0.10171107
0.080154369
0.063007395
0.048850366
0.037826656
0.028171339
0.021165679
0.015159553
0.010531253
0.0068850213
0.0044877416
0.0024588498
0.00090773697
0.19874632
0.1979461
0.19726524
0.19671939
0.19624085
0.1958061
0.19540867
0.19504802
0.19472105
0.19442318
0.19415099
0.19390149
0.19367251
0.19346335
0.19327219
0.19309733
0.19293714
0.19279107
0.19265953
0.19253924
0.19242915
0.19232984
0.19223914
0.19215739
0.19208733
0.19202828
0.191977
0.19193582
0.1919073
0.19189577
0.19189263
0.1919409
0.19193202
0.19216923
0.15845445
0.12575489
0.098797715
0.078462319
0.061780614
0.048202553
0.036660208
0.027604808
0.020781949
0.014468237
0.010463104
0.0073062631
0.0041068514
0.0026608685
0.00089587215
0.1986302
0.19780783
0.19711766
0.19657234
0.19609568
0.19566378
0.19527359
0.19492277
0.19460578
0.19431848
0.1940561
0.19381494
0.19359313
0.19338993
0.19320379
0.19303357
0.19287763
0.1927358
0.19260838
0.19249148
0.19238452
0.19228821
0.19220019
0.19212146
0.19205475
0.19199831
0.19194958
0.19191142
0.19188587
0.19187791
0.19187999
0.19192991
0.19194981
0.19216763
0.1566652
0.1235165
0.098132967
0.077437492
0.060653089
0.04732643
0.035776331
0.028101702
0.019825377
0.014711196
0.010818872
0.0066472865
0.0041661745
0.002633028
0.00094161443
0.19851374
0.19765006
0.19694917
0.19640403
0.19593315
0.19550833
0.1951264
0.19478473
0.19447766
0.19420044
0.19394782
0.19371559
0.19350181
0.19330568
0.19312571
0.1929608
0.19280948
0.19267245
0.1925496
0.19243652
0.19233334
0.19224065
0.19215597
0.19208071
0.19201721
0.19196301
0.19191703
0.19188259
0.19186124
0.19185765
0.19186572
0.19191519
0.1919691
0.19216343
0.15489305
0.12264911
0.096593911
0.076323914
0.061330594
0.047007944
0.037253099
0.027299199
0.020298663
0.015980633
0.010309382
0.0066591476
0.0050692492
0.0023774102
0.00091935217
0.19842215
0.19751619
0.19679226
0.19623458
0.19576199
0.19534306
0.19496955
0.19463715
0.19433991
0.19407293
0.1938299
0.19360673
0.19340164
0.19321329
0.19304025
0.19288125
0.19273508
0.19260342
0.19248555
0.19237655
0.19227744
0.19218828
0.19210721
0.19203594
0.19197623
0.19192494
0.19188234
0.19185162
0.19183447
0.19183541
0.19185101
0.19189428
0.19200108
0.18995736
0.15213157
0.12025505
0.095433346
0.076860814
0.058893981
0.046193001
0.035268001
0.026771115
0.021007399
0.014630221
0.009648729
0.0079298781
0.0037137855
0.0028089665
0.0009148217
0.19832461
0.19736432
0.19661375
0.19605212
0.19558165
0.19516944
0.1948057
0.19448328
0.19419622
0.19393947
0.19370636
0.19349257
0.19329634
0.19311562
0.19294964
0.19279671
0.1926564
0.19253048
0.19241719
0.19231188
0.19221709
0.1921323
0.19205623
0.19198969
0.19193323
0.19188417
0.19184502
0.19181836
0.19180566
0.19181047
0.1918371
0.19185883
0.19203779
0.18689082
0.14839386
0.11909021
0.093614915
0.073180281
0.058367829
0.04702057
0.035737722
0.027592787
0.019982292
0.014536154
0.011055261
0.007092193
0.0050525172
0.0027232878
0.00093949083
0.19825148
0.19722105
0.19644552
0.19587201
0.19539971
0.19499358
0.19463852
0.1943262
0.19404978
0.19380313
0.19357973
0.19337524
0.1931877
0.1930146
0.19285597
0.19270932
0.19257492
0.19245447
0.1923461
0.1922455
0.1921557
0.19207474
0.19200297
0.19194115
0.19188846
0.19184251
0.19180746
0.19178447
0.19177628
0.19178515
0.19182263
0.19184399
0.19203692
0.18120338
0.14774941
0.11504935
0.091402185
0.073927988
0.060433468
0.045127024
0.035968861
0.025932635
0.021576069
0.013558375
0.010739818
0.0065705103
0.0043856857
0.0026656726
0.00089306229
0.19818087
0.1971011
0.19629368
0.19570059
0.1952218
0.1948186
0.19446956
0.19416636
0.19390178
0.19366565
0.19345244
0.19325696
0.19307739
0.19291221
0.19276068
0.19262022
0.19249149
0.1923773
0.19227379
0.19217744
0.19209226
0.19201593
0.19194895
0.1918913
0.19184167
0.19179917
0.19176881
0.19175017
0.1917471
0.19176029
0.19180741
0.19184472
0.19202364
0.1805878
0.14205661
0.11219409
0.090689996
0.072840531
0.056403323
0.044714333
0.032018919
0.028668359
0.018107956
0.015724665
0.011652863
0.0072532583
0.0053090786
0.0028778745
0.00090686031
0.19812963
0.1969802
0.19613778
0.19552866
0.19504705
0.19464496
0.19430178
0.19400824
0.19375499
0.19352986
0.19332666
0.1931399
0.19296759
0.19280993
0.192665
0.19253115
0.19240882
0.19230025
0.19220064
0.19210971
0.19202945
0.19195781
0.19189529
0.1918418
0.19179581
0.19175741
0.19173147
0.19171764
0.19171962
0.19173736
0.19179109
0.19186389
0.19200492
0.17180428
0.13909128
0.11095504
0.090590299
0.06988763
0.055139142
0.042424591
0.036903044
0.024692142
0.022271057
0.014333756
0.0089042954
0.0071986303
0.0046320747
0.0028896244
0.00089201292
0.1980787
0.19685654
0.19597768
0.19535928
0.19487726
0.19447637
0.1941398
0.19385566
0.19361267
0.19339792
0.19320373
0.19302498
0.19286021
0.19270955
0.1925708
0.19244382
0.19232793
0.19222482
0.19212945
0.19204332
0.19196826
0.19190077
0.1918426
0.19179361
0.19175082
0.19171721
0.19169561
0.19168469
0.19169205
0.19171843
0.19176973
0.19188716
0.19200625
0.17142059
0.13747361
0.11079288
0.083922076
0.070914754
0.057662432
0.045614159
0.034261664
0.028300839
0.016436598
0.013030803
0.011294979
0.0075252918
0.0054897551
0.0030236781
0.00090441574
0.19802202
0.19672946
0.19581365
0.19518588
0.19470714
0.19431218
0.1939843
0.19370967
0.1934766
0.19327137
0.19308533
0.19291368
0.19275628
0.19261231
0.19247936
0.19235869
0.1922491
0.19215151
0.19206124
0.19197972
0.19190843
0.19184553
0.1917919
0.19174714
0.19170706
0.19167709
0.19165996
0.19165523
0.19166777
0.1916998
0.19175536
0.1918903
0.19202861
0.1702104
0.13006189
0.10552295
0.089182603
0.069883789
0.051267908
0.042773276
0.031970985
0.022734704
0.032035717
0.011781554
0.0089591563
0.0072987023
0.0044801439
0.0033055813
0.00083414761
0.19796489
0.19659377
0.195651
0.19501603
0.19454132
0.1941538
0.19383555
0.19357181
0.19334789
0.19315079
0.19297231
0.19280764
0.19265707
0.19251916
0.19239304
0.19227745
0.1921731
0.19208003
0.19199407
0.19191866
0.19185119
0.19179302
0.19174209
0.19170006
0.19166536
0.1916408
0.19162527
0.1916235
0.19164306
0.19168485
0.19175598
0.19188355
0.19204601
0.15951393
0.13035606
0.10719319
0.081953439
0.063616491
0.0587189
0.042390494
0.033011341
0.02858669
0.012921099
0.011756696
0.01712174
0.0065432786
0.005258247
0.0030952809
0.00080545954
0.19788657
0.19645622
0.19549303
0.1948544
0.19438226
0.1940032
0.19369427
0.19344121
0.19322653
0.19303696
0.1928653
0.19270699
0.19256322
0.1924306
0.19231011
0.19220026
0.19210159
0.19201214
0.19193041
0.19185992
0.19179643
0.19174249
0.1916953
0.19165692
0.19162595
0.19160437
0.19159391
0.19159814
0.19162294
0.19166535
0.19176426
0.19187556
0.19207348
0.15367989
0.1378627
0.099585527
0.086830995
0.073421822
0.050088461
0.042693964
0.033475282
0.023245368
0.020675114
0.023058493
0.0065287292
0.0057891858
0.005652273
0.0043750674
0.00080652248
0.19779794
0.19631702
0.19533832
0.19469895
0.19423213
0.19386145
0.19356203
0.19331817
0.19311181
0.19292982
0.19276416
0.19261167
0.19247387
0.19234653
0.19223083
0.19212632
0.19203282
0.19194722
0.19187039
0.19180462
0.19174506
0.19169324
0.19165068
0.19161657
0.19158846
0.19156973
0.19156423
0.19157438
0.19160305
0.19165264
0.19176577
0.1918838
0.19022752
0.16962291
0.11819991
0.10184868
0.081215814
0.060167889
0.052439913
0.040175608
0.032810248
0.028357763
0.013551556
0.011763777
0.011473044
0.0092944215
0.0057775237
0.0029569732
0.00074448201
0.19773552
0.19619011
0.19519422
0.19455459
0.19409334
0.19373134
0.19344055
0.19320482
0.19300583
0.19283039
0.1926699
0.19252285
0.19238861
0.19226777
0.19215667
0.19205658
0.19196723
0.19188532
0.19181318
0.19175144
0.19169596
0.19164705
0.1916077
0.19157683
0.19155184
0.19153678
0.19153649
0.19155197
0.1915856
0.19164289
0.19175935
0.19190029
0.1892497
0.14721288
0.12178152
0.10539862
0.076583755
0.064835941
0.05169356
0.041844194
0.036197822
0.023582615
0.025451397
0.011352092
0.0057311831
0.0060507025
0.0083946395
0.0060029826
0.00075507146
0.19762557
0.19601888
0.19503853
0.19441095
0.19395849
0.19360631
0.19332518
0.19309755
0.1929053
0.19273552
0.19258005
0.19243828
0.19230772
0.19219152
0.19208563
0.19199
0.19190503
0.19182656
0.1917588
0.19170072
0.19164879
0.19160235
0.19156612
0.1915388
0.19151797
0.1915049
0.19150948
0.1915319
0.19157039
0.19164306
0.19175004
0.19191791
0.1921604
0.15291471
0.13222019
0.092571959
0.082499897
0.069542931
0.046454561
0.037175223
0.028804421
0.026867784
0.030811775
0.011409547
0.013122022
0.0090719223
0.0041484786
0.0040774862
0.00073727405
0.19767376
0.19599743
0.19494961
0.19430741
0.1938554
0.1935074
0.19323178
0.19300954
0.19282153
0.19265558
0.19250409
0.19236732
0.19224054
0.19212616
0.19202356
0.191932
0.19185106
0.19177545
0.19171119
0.19165528
0.19160633
0.19156227
0.1915277
0.19150271
0.19148502
0.19147573
0.19148352
0.19150684
0.19155075
0.1916412
0.1917465
0.19192867
0.17676119
0.14904829
0.11611272
0.09294141
0.077967046
0.057541938
0.056114248
0.050434591
0.037809919
0.029179895
0.011634087
0.016964943
0.0093420555
0.0085945136
0.0066700004
0.0061416267
0.00072582171
0.00071233884
0.0084129222
0.015483641
0.0048048987
0.013121081
0.0098143263
0.014743464
0.024694033
0.026411944
0.035665867
0.049303227
0.06526665
0.077171724
0.094033248
0.11429248
0.14498187
0.17947682
0.19196739
0.19176403
0.19163952
0.19154037
0.19149469
0.19146145
0.19144918
0.19145164
0.19146432
0.19148686
0.19151903
0.19155934
0.19160579
0.19165735
0.19171736
0.19178765
0.1918641
0.19195046
0.19204874
0.19215724
0.19227786
0.19240987
0.19255592
0.19271562
0.19289546
0.19310707
0.19336907
0.19370135
0.19413603
0.19474998
0.19576285
0.19742548
0.00073880669
0.0060056879
0.0076209406
0.0080471004
0.012025877
0.01583521
0.019882387
0.015008008
0.030638205
0.036754976
0.04268723
0.05891075
0.08058047
0.097076157
0.11214307
0.14683247
0.17429737
0.19200902
0.19178832
0.19165013
0.19154098
0.19147887
0.19144049
0.19142366
0.19141688
0.19142664
0.19144931
0.19147792
0.19151461
0.191557
0.19160439
0.1916587
0.19172417
0.19179644
0.19187688
0.19196958
0.1920724
0.19218728
0.19231466
0.19245514
0.19260829
0.19278047
0.19298217
0.1932309
0.19354784
0.1939648
0.19454792
0.19550124
0.19710123
0.00076275635
0.0072725553
0.009242117
0.011875475
0.021097726
0.016949164
0.022109098
0.033324526
0.038320726
0.047063605
0.058668902
0.061214488
0.069869734
0.09411845
0.11405071
0.13598864
0.1738738
0.19207121
0.19182148
0.19165758
0.19153318
0.19146111
0.1914192
0.19139478
0.19138537
0.1913935
0.19141245
0.19143606
0.19147017
0.1915077
0.19155109
0.19160062
0.19166182
0.19172925
0.19180497
0.19189205
0.19198972
0.19209976
0.19222218
0.19235709
0.19250417
0.19267015
0.19286272
0.19309849
0.19340023
0.1938
0.19435355
0.19525446
0.19679347
0.00075237874
0.020604674
0.01094482
0.010192463
0.026907176
0.01786257
0.049278366
0.041904457
0.031201238
0.033392337
0.046033337
0.057720952
0.075556422
0.084353396
0.10384345
0.12515365
0.15183799
0.19211699
0.191843
0.19166785
0.19153695
0.19145938
0.19140987
0.19137393
0.19135778
0.19135827
0.19137648
0.19139446
0.19142371
0.19145757
0.19149815
0.19154443
0.19160029
0.19166426
0.19173518
0.19181671
0.19190961
0.19201457
0.1921323
0.19226156
0.19240451
0.19256387
0.19274858
0.19297232
0.19325965
0.19364174
0.19417457
0.19503122
0.19650419
0.00076787363
0.01715644
0.010550344
0.01823694
0.029302255
0.018807021
0.026724476
0.017974046
0.038580976
0.030779327
0.038274109
0.055149167
0.085500984
0.10241572
0.12068398
0.149654
0.18664779
0.19214336
0.19189009
0.19169677
0.19154427
0.1914536
0.19139258
0.19134373
0.19132612
0.1913255
0.19133535
0.1913518
0.19138054
0.1914118
0.1914499
0.19149141
0.19154231
0.19160174
0.19166944
0.19174447
0.19183312
0.19193245
0.19204484
0.19216932
0.19230821
0.19246178
0.19263905
0.19285252
0.19312663
0.19349386
0.19400665
0.19481813
0.19622633
0.00076660935
0.017689007
0.020336217
0.024122769
0.018849325
0.019358395
0.032652281
0.030691528
0.045234502
0.034906312
0.050655604
0.055728018
0.065688763
0.099540069
0.12225808
0.11076006
0.13355967
0.17652588
0.19192747
0.19170307
0.191533
0.19143426
0.19136684
0.19131414
0.19130241
0.19129967
0.19130724
0.19131949
0.1913417
0.19136746
0.19140287
0.19143926
0.19148813
0.19154147
0.1916059
0.19167569
0.19175911
0.19185285
0.19196032
0.19207977
0.19221451
0.19236288
0.19253401
0.19273871
0.19300032
0.19335358
0.19384569
0.19461345
0.19596127
0.015533163
0.028677352
0.03183109
0.033709609
0.034126739
0.034124706
0.053199342
0.055562281
0.070687412
0.06460382
0.084226802
0.13023593
0.15304033
0.19226696
0.19196805
0.19173074
0.19156272
0.19146068
0.19135515
0.19130266
0.19128464
0.19127567
0.19127733
0.19127968
0.19129881
0.19132204
0.19135426
0.19138843
0.19143331
0.1914844
0.19154318
0.19160899
0.19168673
0.19177598
0.19187874
0.19199305
0.19212402
0.19226801
0.19243312
0.19262973
0.1928798
0.19321937
0.19369219
0.19442617
0.19571023
0.061158926
0.11690325
0.10711413
0.15083782
0.12915865
0.1923451
0.19199979
0.19175304
0.19157431
0.19146067
0.19135629
0.19129187
0.19125546
0.19123799
0.19123333
0.19123952
0.19125351
0.19127896
0.19130826
0.19134162
0.19138008
0.19143023
0.19148172
0.19154397
0.19161646
0.19170167
0.19179967
0.19190951
0.19203682
0.19217595
0.19233597
0.19252554
0.19276463
0.19308976
0.19354579
0.19425536
0.1954763
0.19132457
0.19124854
0.19121978
0.19121962
0.19121607
0.1912086
0.19121812
0.19124074
0.19126966
0.19129806
0.19133414
0.19137628
0.19142248
0.19148036
0.19154839
0.19162968
0.19172285
0.19182865
0.19195182
0.19208619
0.19224174
0.19242514
0.1926541
0.19296555
0.19340719
0.19409917
0.19525655
0.19136531
0.19141799
0.19148195
0.19155971
0.19164815
0.19174968
0.1918686
0.19199898
0.19215036
0.19232824
0.19254803
0.19284665
0.19327416
0.19394789
0.19504957
)
;

boundaryField
{
    Side
    {
        type            empty;
    }
    Inlet
    {
        type            calculated;
        value           nonuniform List<scalar> 
29
(
0.19924555
0.19919396
0.19911841
0.19903183
0.1989464
0.19887431
0.19881056
0.19877357
0.19874257
0.19872398
0.19871938
0.19871718
0.19870512
0.1987236
0.19869555
0.19867854
0.19872684
0.19874818
0.1987795
0.19901662
0.19966272
0.20011886
0.20007848
0.20003987
0.20007461
0.20011853
0.20014972
0.20017358
0.20018564
)
;
    }
    Airfoil
    {
        type            nutkWallFunction;
        blending        stepwise;
        value           nonuniform List<scalar> 
26
(
0.00088979153
0.00088880982
0.00088629869
0.00088260861
0.00087792425
0.00087245869
0.00086653004
0.00086031585
0.00085411386
0.00084822663
0.00084296326
0.00083856172
0.00083522623
0.00083317017
0.00083255828
0.00083361503
0.00083659565
0.00084153287
0.00084906448
0.0008585276
0.00086820312
0.00087243326
0.00087784651
0.00088484153
0.00089381258
0.00090424289
)
;
    }
    Outlet
    {
        type            calculated;
        value           nonuniform List<scalar> 0();
    }
    procBoundary0to1
    {
        type            processor;
        value           nonuniform List<scalar> 
53
(
0.00080195642
0.015189098
0.016860452
0.017283773
0.017283773
0.031215449
0.023809675
0.033166131
0.027854286
0.052176616
0.032300023
0.029369831
0.072830248
0.072830248
0.098311564
0.076861941
0.093330488
0.074780257
0.18405914
0.15875378
0.19202428
0.19175953
0.19156097
0.19143773
0.19143773
0.19130091
0.19126971
0.19120308
0.19120163
0.19119906
0.19118681
0.19119765
0.19120511
0.19123339
0.1912544
0.19128701
0.19132212
0.19132212
0.19130928
0.19135747
0.19141747
0.19149143
0.1915753
0.19167305
0.19178707
0.19191403
0.19206191
0.19223489
0.19244641
0.19273282
0.19314566
0.19380184
0.19485606
)
;
    }
    procBoundary0to7
    {
        type            processor;
        value           nonuniform List<scalar> 
50
(
0.19222349
0.1921473
0.19208253
0.19202765
0.19198284
0.19195142
0.19193658
0.19192732
0.19197033
0.19193259
0.19220029
0.16179611
0.12877482
0.10218723
0.080914449
0.063377949
0.049019297
0.037410369
0.028133716
0.020714566
0.014996198
0.010407921
0.0070109353
0.0042351825
0.0025508666
0.0009197494
0.19903284
0.19825955
0.19757756
0.19702386
0.19653658
0.19608948
0.19567258
0.19528963
0.19493974
0.19462115
0.19433122
0.19406665
0.19382464
0.19360362
0.19340181
0.19321774
0.19305005
0.19289726
0.19275836
0.19263163
0.19251595
0.1924115
0.19231581
0.19231581
)
;
    }
}


// ************************************************************************* //
