/*--------------------------------*- C++ -*----------------------------------*\
| =========                 |                                                 |
| \\      /  F ield         | OpenFOAM: The Open Source CFD Toolbox           |
|  \\    /   O peration     | Version:  2506                                  |
|   \\  /    A nd           | Website:  www.openfoam.com                      |
|    \\/     M anipulation  |                                                 |
\*---------------------------------------------------------------------------*/
FoamFile
{
    version     2.0;
    format      ascii;
    arch        "LSB;label=32;scalar=64";
    class       volScalarField;
    location    "1.55";
    object      nut;
}
// * * * * * * * * * * * * * * * * * * * * * * * * * * * * * * * * * * * * * //

dimensions      [0 2 -1 0 0 0 0];

internalField   nonuniform List<scalar> 
1375
(
0.073477546
0.073644716
0.095900394
0.12157498
0.14321789
0.15901272
0.074265332
0.096796836
0.12261894
0.14419995
0.15977865
0.16968343
0.17520057
0.1778544
0.17896386
0.17911178
0.074833384
0.097634215
0.12360057
0.14512508
0.16049949
0.17014109
0.17541662
0.17790629
0.17890326
0.17900382
0.17892074
0.17883512
0.1786604
0.17854549
0.17851723
0.075344704
0.09839754
0.12449294
0.14595971
0.16114235
0.17054053
0.1755961
0.17794011
0.17883192
0.17889433
0.17880097
0.1787168
0.17853152
0.1784344
0.1784094
0.17839702
0.1783984
0.17840929
0.17842634
0.17844767
0.075808912
0.099094701
0.12529626
0.14669613
0.16169489
0.17086968
0.17572996
0.17794738
0.1787477
0.17878099
0.17868162
0.17859795
0.17840495
0.17832516
0.1783027
0.17829212
0.17829475
0.17830629
0.17832364
0.17834505
0.1783696
0.17839682
0.17842648
0.17845853
0.17849298
0.076241444
0.099749416
0.12603696
0.14735717
0.16217292
0.17113764
0.17582213
0.17792831
0.17865153
0.17866372
0.17856316
0.17847674
0.17828164
0.17821731
0.17819696
0.17818815
0.17819193
0.17820404
0.17822162
0.17824306
0.17826748
0.17829442
0.17832369
0.17835523
0.17838908
0.17842535
0.17846419
0.17850581
0.17855048
0.076649646
0.1003785
0.12674238
0.14797391
0.16260438
0.17136535
0.17588574
0.17789052
0.17854728
0.17854436
0.17844569
0.17835362
0.17816186
0.17811061
0.1780921
0.17808504
0.17808992
0.17810256
0.17812034
0.17814176
0.17816601
0.17819266
0.17822152
0.17825254
0.17828578
0.17832135
0.17835942
0.17840018
0.17844387
0.17849083
0.17854146
0.17859628
0.17865589
0.077034111
0.10099702
0.12744234
0.14858281
0.16302373
0.17157967
0.17593861
0.17784562
0.17844033
0.17842553
0.17832974
0.1782298
0.17804565
0.17800507
0.1779882
0.17798285
0.1779888
0.17800197
0.17801994
0.17804132
0.17806536
0.17809167
0.17812008
0.17815056
0.17818317
0.17821803
0.17825527
0.17829513
0.17833784
0.17838374
0.1784332
0.17848675
0.17854498
0.17860856
0.17867808
0.17875407
0.077388434
0.10161167
0.12815792
0.14921299
0.16345999
0.17180381
0.17599653
0.17780396
0.17833537
0.17830926
0.17821577
0.17810632
0.1779327
0.17790061
0.17788528
0.17788156
0.17788853
0.17790222
0.17792036
0.17794168
0.1779655
0.17799147
0.17801944
0.17804937
0.17808134
0.17811545
0.17815187
0.17819081
0.17823253
0.17827733
0.17832562
0.17837787
0.17843468
0.17849672
0.17856464
0.17863903
0.17872043
0.17880949
0.17890737
0.07769875
0.10220798
0.12888053
0.14986367
0.16391802
0.17204445
0.17606526
0.17776989
0.17823468
0.1781963
0.17810375
0.17798368
0.17782247
0.17779705
0.17778317
0.17778098
0.1777889
0.17780308
0.17782138
0.17784265
0.17786628
0.17789195
0.17791952
0.17794895
0.17798031
0.17801369
0.17804929
0.1780873
0.17812802
0.17817177
0.17821892
0.17826993
0.17832536
0.17838582
0.17845199
0.1785245
0.17860402
0.17869134
0.17878789
0.17889631
0.17902121
0.17916919
0.077958511
0.10277238
0.12959134
0.15051666
0.16438417
0.17229325
0.17614036
0.17774095
0.1781377
0.17808605
0.17799317
0.17786209
0.17771452
0.17769427
0.17768177
0.17768103
0.17768984
0.17770448
0.17772297
0.17774424
0.17776774
0.17779318
0.17782043
0.17784943
0.17788024
0.17791296
0.17794777
0.17798492
0.17802469
0.17806738
0.17811337
0.17816311
0.17821711
0.17827598
0.17834034
0.17841084
0.17848825
0.17857358
0.17866841
0.17877577
0.1789006
0.17904952
0.17922817
0.17943229
0.078180391
0.10330878
0.13028114
0.15115516
0.16484067
0.17253589
0.1762119
0.1777104
0.17804152
0.17797669
0.17788295
0.17774131
0.1776084
0.17759216
0.17758103
0.1775817
0.17759136
0.17760649
0.17762524
0.17764661
0.17767008
0.17769538
0.17772238
0.17775102
0.17778133
0.17781344
0.17784754
0.17788387
0.1779227
0.17796435
0.17800917
0.17805761
0.17811016
0.17816738
0.17822984
0.17829821
0.17837333
0.17845643
0.17854939
0.17865536
0.17877964
0.17892911
0.17910864
0.17931167
0.17949152
0.17945087
0.17809359
0.078392086
0.10382408
0.13093812
0.15175736
0.16526466
0.17275412
0.17626748
0.17767002
0.17794243
0.1778661
0.1777719
0.17762104
0.17750373
0.17749052
0.17748082
0.17748288
0.17749338
0.17750902
0.17752806
0.17754958
0.17757308
0.17759827
0.17762502
0.17765328
0.17768311
0.17771466
0.17774813
0.17778374
0.17782174
0.17786244
0.1779062
0.17795342
0.17800457
0.17806014
0.17812069
0.17818691
0.17825969
0.17834038
0.17843106
0.17853527
0.17865874
0.17880848
0.17898847
0.17918942
0.179359
0.17927719
0.17770765
0.16770664
0.15459933
0.078637904
0.1043399
0.13156463
0.15231363
0.16564241
0.17293576
0.17629862
0.17761431
0.17783797
0.17775308
0.17765958
0.17750144
0.1774004
0.17738941
0.17738115
0.1773845
0.17739574
0.17741179
0.17743107
0.17745271
0.17747619
0.17750124
0.17752772
0.17755563
0.17758505
0.17761615
0.17764908
0.17768407
0.17772134
0.17776118
0.17780396
0.17785004
0.17789983
0.17795385
0.17801265
0.17807687
0.17814736
0.17822555
0.17831391
0.17841626
0.17853856
0.17868801
0.17886781
0.17906615
0.17922316
0.1790943
0.17731042
0.16688804
0.15252715
0.078979131
0.10490425
0.13219268
0.15284138
0.16598096
0.17308245
0.17630507
0.17754276
0.17772762
0.17763746
0.17754607
0.17738269
0.17729816
0.17728863
0.17728176
0.17728626
0.1772981
0.17731447
0.17733394
0.17735566
0.17737912
0.17740405
0.17743034
0.17745803
0.17748722
0.17751801
0.17755055
0.17758501
0.17762163
0.17766072
0.17770259
0.1777476
0.17779612
0.17784862
0.17790564
0.17796783
0.17803609
0.17811198
0.17819805
0.1782985
0.17841957
0.17856822
0.17874697
0.17894122
0.17908413
0.17890314
0.17688229
0.16575256
0.15201804
0.079455098
0.10555321
0.13285477
0.15336551
0.16629705
0.1732043
0.17629257
0.17745883
0.17761245
0.17751961
0.17743154
0.17726471
0.17719629
0.17718765
0.17718217
0.17718773
0.17720012
0.17721678
0.17723638
0.17725814
0.17728159
0.17730649
0.17733279
0.17736047
0.17738961
0.17742027
0.17745256
0.17748666
0.1775228
0.17756124
0.1776023
0.17764629
0.1776936
0.17774467
0.17780005
0.17786041
0.1779266
0.17800009
0.17808374
0.17818241
0.17830224
0.1784498
0.17862676
0.17881562
0.17894227
0.17870274
0.17640521
0.16439956
0.15322787
0.080053865
0.10629347
0.13356604
0.15390285
0.16660559
0.17331263
0.17626892
0.17736794
0.17749468
0.17740067
0.17731664
0.1771479
0.17709455
0.17708641
0.17708227
0.1770888
0.17710168
0.17711857
0.17713827
0.17716009
0.17718362
0.17720867
0.17723511
0.17726291
0.17729208
0.17732266
0.17735478
0.17738859
0.17742428
0.17746214
0.17750252
0.17754579
0.17759224
0.17764216
0.17769596
0.17775425
0.17781816
0.17788965
0.17797173
0.1780689
0.17818737
0.17833324
0.17850733
0.17868972
0.17879687
0.17849062
0.1758888
0.16313338
0.15218472
0.080737116
0.10712213
0.13433839
0.15446986
0.16692192
0.17341927
0.17624225
0.17727585
0.17737705
0.17728221
0.17720269
0.17703305
0.17699335
0.17698545
0.17698253
0.17698987
0.17700315
0.17702027
0.17704016
0.17706218
0.17708594
0.17711118
0.17713779
0.17716569
0.17719488
0.1772254
0.17725735
0.17729088
0.17732619
0.1773636
0.17740342
0.17744596
0.17749142
0.17754001
0.17759224
0.17764898
0.17771117
0.17778071
0.17786073
0.17795621
0.17807343
0.17821813
0.17838917
0.17856324
0.17864823
0.17826573
0.17533627
0.16189686
0.15078483
0.081454804
0.10801319
0.13516667
0.15507215
0.16725478
0.17353196
0.17621819
0.17718651
0.17726142
0.17716588
0.17708989
0.17692075
0.17689281
0.17688503
0.17688319
0.17689119
0.17690483
0.17692223
0.17694236
0.17696455
0.17698841
0.17701371
0.17704036
0.17706828
0.17709744
0.17712793
0.1771599
0.17719343
0.17722867
0.1772658
0.17730506
0.17734668
0.17739095
0.17743841
0.17748971
0.17754508
0.17760532
0.17767244
0.17775053
0.17784482
0.17796133
0.17810474
0.17827173
0.17843556
0.17849589
0.17802269
0.17473671
0.1606152
0.1508019
0.082158156
0.10891912
0.136019
0.15569313
0.1675979
0.17364968
0.17619692
0.17710131
0.17714868
0.17705276
0.1769776
0.1768114
0.17679286
0.17678517
0.1767843
0.17679281
0.1768067
0.17682421
0.1768443
0.17686633
0.17688998
0.17691509
0.17694157
0.17696932
0.17699843
0.17702907
0.17706129
0.17709504
0.17713035
0.17716739
0.17720636
0.17724743
0.1772908
0.17733689
0.17738643
0.17744037
0.17749937
0.17756575
0.17764289
0.17773615
0.17785135
0.17799254
0.17815525
0.17830907
0.17833668
0.1777579
0.17407788
0.15928998
0.15104978
0.082812158
0.109797
0.13685892
0.15630833
0.16793772
0.17376537
0.17617895
0.17701798
0.17703916
0.17694295
0.17686644
0.17670514
0.17669384
0.17668626
0.17668622
0.17669503
0.17670888
0.17672613
0.17674581
0.17676736
0.17679054
0.17681523
0.17684135
0.17686893
0.17689809
0.17692892
0.1769613
0.1769951
0.17703037
0.17706734
0.17710615
0.17714685
0.17718965
0.17723502
0.17728346
0.17733577
0.17739368
0.17745877
0.1775347
0.17762754
0.17774247
0.17788256
0.1780406
0.17818154
0.17817313
0.17747064
0.17334455
0.15789115
0.15084279
0.083397114
0.11062108
0.13766588
0.15690435
0.16826667
0.1738757
0.17616327
0.17693485
0.17693265
0.17683606
0.17675679
0.17660187
0.17659604
0.17658851
0.17658905
0.17659786
0.17661136
0.17662804
0.17664704
0.17666792
0.17669051
0.17671473
0.17674058
0.17676807
0.17679726
0.17682807
0.17686038
0.17689421
0.17692966
0.17696682
0.17700566
0.17704621
0.17708879
0.17713391
0.17718166
0.17723252
0.17728799
0.1773516
0.17742764
0.17752006
0.17763498
0.17777348
0.17792636
0.17805174
0.17800116
0.17715234
0.17251548
0.15632068
0.15047907
0.083902001
0.11137151
0.13842467
0.15747189
0.16857981
0.1739787
0.17614792
0.17685083
0.17682825
0.1767312
0.17664831
0.17650082
0.17649904
0.17649141
0.17649225
0.17650077
0.17651365
0.17652956
0.17654777
0.17656794
0.17658991
0.17661365
0.17663917
0.17666646
0.17669549
0.17672621
0.17675858
0.17679261
0.17682835
0.17686576
0.17690472
0.17694522
0.17698743
0.17703177
0.17707905
0.17713016
0.17718572
0.1772505
0.17732509
0.17741669
0.17752986
0.17766561
0.17781171
0.17791948
0.17781828
0.1767976
0.17151342
0.15436594
0.15031189
0.084323721
0.11203368
0.13912174
0.15800233
0.16887291
0.17407298
0.17613113
0.17676559
0.17672531
0.17662762
0.17654057
0.17640136
0.17640257
0.17639467
0.17639551
0.17640351
0.17641561
0.17643065
0.17644804
0.17646746
0.17648877
0.17651189
0.17653684
0.17656362
0.1765922
0.17662257
0.17665477
0.17668885
0.17672477
0.17676251
0.176802
0.17684309
0.17688565
0.17692993
0.1769767
0.17702707
0.1770825
0.17714591
0.1772216
0.17731496
0.17742889
0.1775633
0.17770074
0.17778681
0.17762364
0.17639252
0.17040385
0.15240764
0.15051291
0.084671852
0.11261086
0.13975658
0.1584949
0.16914593
0.17415889
0.17611223
0.17667936
0.17662357
0.17652513
0.17643345
0.17630328
0.17630664
0.17629839
0.17629907
0.17630647
0.17631776
0.17633194
0.17634846
0.17636704
0.17638752
0.1764098
0.17643391
0.1764599
0.17648778
0.17651755
0.1765493
0.17658311
0.17661898
0.17665683
0.17669654
0.17673796
0.17678084
0.17682526
0.17687179
0.17692144
0.17697721
0.17704185
0.17711841
0.17721232
0.1773271
0.17745959
0.17758805
0.17764851
0.17741263
0.17590846
0.16907391
0.15063905
0.15141395
0.08496697
0.1131248
0.14034383
0.15895807
0.16940307
0.17423807
0.176091
0.17659253
0.17652281
0.17642343
0.17632685
0.17620644
0.17621132
0.1762027
0.17620321
0.17621
0.17622052
0.17623387
0.17624954
0.17626722
0.17628674
0.17630802
0.17633109
0.17635607
0.17638306
0.17641208
0.17644318
0.17647645
0.17651192
0.17654953
0.17658913
0.17663063
0.176674
0.17671916
0.17676631
0.17681632
0.1768723
0.17693712
0.17701492
0.17711007
0.177225
0.17735385
0.17747168
0.17750377
0.17717258
0.17534194
0.1675397
0.14891197
0.15280299
0.085229764
0.11359858
0.14089741
0.15939773
0.16964551
0.1743097
0.17606593
0.17650457
0.17642249
0.17632205
0.17622062
0.17611057
0.17611624
0.17610731
0.17610766
0.17611386
0.17612366
0.17613624
0.1761511
0.17616791
0.17618647
0.17620672
0.1762287
0.17625258
0.17627851
0.17630659
0.1763368
0.17636921
0.17640396
0.17644108
0.17648039
0.1765218
0.17656536
0.17661106
0.1766591
0.17671052
0.17676794
0.1768345
0.17691473
0.17701179
0.17712672
0.17725125
0.17735669
0.17735313
0.17690879
0.17467767
0.16580576
0.14715738
0.15443943
0.085476711
0.11404485
0.14141911
0.15980911
0.16986728
0.1743691
0.17603405
0.17641449
0.17632204
0.1762208
0.17611506
0.17601556
0.17602137
0.17601219
0.1760124
0.17601808
0.1760272
0.17603903
0.17605308
0.17606902
0.17608664
0.17610586
0.17612674
0.17614946
0.17617421
0.1762011
0.17623016
0.17626146
0.17629523
0.17633162
0.17637048
0.17641163
0.17645514
0.17650113
0.17654994
0.17660273
0.17666179
0.17673052
0.17681328
0.17691282
0.17702822
0.17714774
0.17723709
0.17718798
0.17661415
0.17394954
0.16381168
0.14540198
0.15621506
0.08571826
0.1144826
0.1419169
0.16019115
0.17006412
0.17441208
0.17599221
0.17632107
0.17622064
0.17611892
0.17601025
0.17592128
0.17592674
0.17591748
0.17591765
0.17592287
0.17593133
0.17594239
0.17595555
0.17597048
0.175987
0.17600507
0.17602476
0.17604624
0.1760697
0.17609528
0.17612307
0.17615323
0.17618601
0.17622154
0.17625968
0.17630019
0.17634309
0.17638875
0.17643791
0.17649197
0.17655316
0.17662474
0.17671074
0.17681337
0.17692942
0.17704372
0.17711423
0.17701257
0.17624415
0.17285611
0.16147179
0.14381567
0.15840047
0.085983346
0.11493448
0.14240262
0.16054717
0.17023544
0.17443763
0.1759401
0.17622438
0.17611873
0.17601739
0.17590742
0.17582872
0.17583363
0.17582456
0.17582484
0.17582966
0.17583749
0.17584767
0.17585975
0.17587343
0.17588861
0.17590533
0.17592371
0.17594392
0.17596611
0.17599048
0.17601722
0.17604648
0.17607839
0.17611294
0.17614997
0.17618939
0.17623145
0.17627674
0.17632628
0.17638179
0.17644574
0.17652107
0.17661105
0.17671718
0.1768342
0.17694283
0.17699324
0.17682947
0.17580979
0.17154266
0.15883462
0.14258363
0.16074914
0.086256443
0.11544104
0.1429211
0.16090844
0.17039723
0.17445092
0.17587828
0.17612171
0.17601285
0.17591258
0.17580306
0.17573445
0.17573855
0.17572971
0.1757301
0.17573453
0.17574157
0.1757507
0.17576151
0.17577381
0.1757876
0.17580297
0.17582005
0.17583897
0.17585988
0.17588304
0.17590867
0.17593682
0.17596739
0.17600043
0.17603605
0.17607437
0.17611574
0.17616092
0.17621098
0.17626766
0.1763339
0.1764131
0.17650749
0.17661674
0.17673398
0.17683581
0.17685821
0.17659407
0.17515535
0.1697541
0.15574379
0.14218728
0.16440443
0.086569526
0.11590662
0.14336953
0.16120718
0.17052059
0.17445021
0.17581689
0.17602911
0.17591914
0.17582101
0.1757128
0.17565202
0.17565518
0.17564653
0.17564689
0.1756509
0.17565728
0.17566554
0.17567543
0.17568682
0.17569972
0.1757142
0.17573032
0.17574817
0.17576795
0.17578996
0.17581433
0.17584108
0.17587021
0.17590198
0.17593666
0.17597431
0.17601532
0.17606071
0.17611179
0.17617042
0.17623979
0.17632349
0.1764233
0.17653754
0.17665701
0.17675373
0.17674527
0.17641673
0.17461175
0.16807512
0.1526458
0.14281982
0.1688327
0.087071369
0.11686769
0.14429452
0.16181098
0.17077209
0.174462
0.17571781
0.17587248
0.1757601
0.17566289
0.17555947
0.17550983
0.17551111
0.17550264
0.17550269
0.1755058
0.17551108
0.17551809
0.17552662
0.17553656
0.17554789
0.17556064
0.17557485
0.17559067
0.17560837
0.17562808
0.17564984
0.17567378
0.17570014
0.17572912
0.17576093
0.17579587
0.17583477
0.17587896
0.17593013
0.17599084
0.17606442
0.17615373
0.17625961
0.17637767
0.17649438
0.17657332
0.17648606
0.1758759
0.17274353
0.16405167
0.14772686
0.1461812
0.17611517
)
;

boundaryField
{
    Side
    {
        type            empty;
    }
    Inlet
    {
        type            calculated;
        value           nonuniform List<scalar> 
21
(
0.19936082
0.19935214
0.19935378
0.19935779
0.19938472
0.19942708
0.19947881
0.1995474
0.19963218
0.19970569
0.19975429
0.19980623
0.19987025
0.19994415
0.20002011
0.20011445
0.20023841
0.20039885
0.20060679
0.20076488
0.20046606
)
;
    }
    Airfoil
    {
        type            nutkWallFunction;
        blending        stepwise;
        value           nonuniform List<scalar> 0();
    }
    Outlet
    {
        type            calculated;
        value           nonuniform List<scalar> 
49
(
0.087071369
0.11686769
0.14429452
0.16181098
0.17077209
0.174462
0.17571781
0.17587248
0.1757601
0.17566289
0.17555947
0.17550983
0.17551111
0.17550264
0.17550269
0.1755058
0.17551108
0.17551809
0.17552662
0.17553656
0.17554789
0.17556064
0.17557485
0.17559067
0.17560837
0.17562808
0.17564984
0.17567378
0.17570014
0.17572912
0.17576093
0.17579587
0.17583477
0.17587896
0.17593013
0.17599084
0.17606442
0.17615373
0.17625961
0.17637767
0.17649438
0.17657332
0.17648606
0.1758759
0.17274353
0.16405167
0.14772686
0.1461812
0.17611517
)
;
    }
    procBoundary6to5
    {
        type            processor;
        value           nonuniform List<scalar> 
61
(
0.072985365
0.094969285
0.12050344
0.14221773
0.15823665
0.16919351
0.16919351
0.1749643
0.17779692
0.17901739
0.17922047
0.17904014
0.17904014
0.17895396
0.17879158
0.17865872
0.17862624
0.17850295
0.17850295
0.17850292
0.17851299
0.1785296
0.17855077
0.1784723
0.1784723
0.17849976
0.17852982
0.17856239
0.17859748
0.17852995
0.17852995
0.17856958
0.17861209
0.17865774
0.17859852
0.17859852
0.17865034
0.17870645
0.17876736
0.1787209
0.1787209
0.17879181
0.17886912
0.17883702
0.17883702
0.17892743
0.17902632
0.17901653
0.17901653
0.17914118
0.1792878
0.17934656
0.17934656
0.17955118
0.17962063
0.17962063
0.17961626
0.17845197
0.16890093
0.16890093
0.15348585
)
;
    }
    procBoundary6to12
    {
        type            processor;
        value           uniform 0.072834363;
    }
    procBoundary6to13
    {
        type            processor;
        value           nonuniform List<scalar> 
34
(
0.095638031
0.074088318
0.074088318
0.074657306
0.075182603
0.075666737
0.07611593
0.076536947
0.076929884
0.077287172
0.077599936
0.077862842
0.078081068
0.078280948
0.078507772
0.078804259
0.079201247
0.079697093
0.080258909
0.080854421
0.081454945
0.08203534
0.082584582
0.083104872
0.083603685
0.084085598
0.084551479
0.084996514
0.085416124
0.085797214
0.086137442
0.086422017
0.086690342
0.087033095
)
;
    }
}


// ************************************************************************* //
