/*--------------------------------*- C++ -*----------------------------------*\
| =========                 |                                                 |
| \\      /  F ield         | OpenFOAM: The Open Source CFD Toolbox           |
|  \\    /   O peration     | Version:  2506                                  |
|   \\  /    A nd           | Website:  www.openfoam.com                      |
|    \\/     M anipulation  |                                                 |
\*---------------------------------------------------------------------------*/
FoamFile
{
    version     2.0;
    format      ascii;
    arch        "LSB;label=32;scalar=64";
    class       volScalarField;
    location    "1.55";
    object      rho;
}
// * * * * * * * * * * * * * * * * * * * * * * * * * * * * * * * * * * * * * //

dimensions      [1 -3 0 0 0 0 0];

internalField   nonuniform List<scalar> 
1375
(
0.66553523
0.66553585
0.66551125
0.66552354
0.66556338
0.66559802
0.66552358
0.66549922
0.66551178
0.66555169
0.66558611
0.66560865
0.66562197
0.66563001
0.66563583
0.66564086
0.66551248
0.66548769
0.66550008
0.66553973
0.66557404
0.66559653
0.66560964
0.66561765
0.66562343
0.66562836
0.66563281
0.66563691
0.66564086
0.66564487
0.66564924
0.6655014
0.66547623
0.66548853
0.66552802
0.66556195
0.6655841
0.66559719
0.66560542
0.66561137
0.66561627
0.66562058
0.6656244
0.66562796
0.66563148
0.66563511
0.66563901
0.66564332
0.66564805
0.66565313
0.66565838
0.66549034
0.66546455
0.66547683
0.66551628
0.66554995
0.6655719
0.66558497
0.66559327
0.66559943
0.66560458
0.66560906
0.66561304
0.66561657
0.66561989
0.6656232
0.66562667
0.66563052
0.66563482
0.66563942
0.66564412
0.66564893
0.66565383
0.66565836
0.66566244
0.66566608
0.66548204
0.66545553
0.66546744
0.66550626
0.66553912
0.66556038
0.66557307
0.66558119
0.66558729
0.66559252
0.66559718
0.66560135
0.66560513
0.66560866
0.66561201
0.66561534
0.66561887
0.66562277
0.66562705
0.66563161
0.66563637
0.66564093
0.66564537
0.66564973
0.66565381
0.66565765
0.66566136
0.66566514
0.6656692
0.66547525
0.66544859
0.66546036
0.66549844
0.66553001
0.66555
0.66556165
0.66556895
0.66557446
0.66557928
0.66558376
0.66558799
0.665592
0.66559582
0.66559941
0.66560288
0.66560635
0.66560998
0.66561394
0.66561825
0.6656228
0.66562743
0.66563207
0.66563649
0.66564081
0.66564511
0.66564957
0.66565418
0.66565883
0.66566347
0.66566814
0.66567303
0.66567856
0.6654682
0.66544187
0.66545384
0.66549154
0.66552217
0.66554114
0.66555193
0.66555854
0.66556344
0.66556771
0.66557176
0.66557562
0.66557942
0.6655831
0.66558666
0.66559014
0.66559359
0.66559711
0.66560082
0.66560477
0.66560889
0.66561312
0.66561744
0.66562185
0.66562639
0.66563099
0.66563558
0.66564048
0.66564578
0.66565152
0.66565725
0.66566309
0.6656691
0.66567565
0.66568253
0.66568935
0.66546177
0.66543604
0.66544826
0.66548551
0.66551529
0.66553336
0.66554336
0.66554946
0.66555403
0.6655581
0.66556185
0.66556535
0.66556882
0.66557216
0.66557546
0.66557876
0.66558206
0.66558532
0.66558859
0.66559192
0.66559535
0.6655989
0.66560256
0.66560641
0.66561051
0.66561485
0.66561948
0.66562445
0.66562992
0.66563576
0.66564202
0.66564875
0.66565621
0.66566417
0.66567264
0.66568118
0.66568917
0.66569572
0.66570051
0.66545349
0.66542882
0.66544186
0.66547923
0.66550846
0.66552568
0.66553476
0.66553986
0.66554368
0.66554717
0.66555031
0.6655534
0.66555643
0.66555942
0.66556242
0.66556545
0.66556846
0.66557136
0.66557413
0.66557689
0.66557983
0.66558307
0.66558659
0.66559036
0.66559435
0.66559858
0.66560306
0.66560783
0.66561303
0.6656187
0.66562497
0.66563193
0.66563974
0.66564859
0.66565862
0.66566927
0.66567942
0.66568848
0.66569632
0.66570313
0.66570878
0.66571314
0.66544203
0.66541835
0.66543278
0.66547115
0.66550078
0.66551799
0.66552678
0.66553121
0.6655342
0.66553663
0.66553866
0.66554077
0.66554292
0.66554515
0.66554746
0.66554987
0.66555235
0.66555484
0.66555725
0.66555973
0.66556256
0.66556595
0.66556986
0.66557407
0.66557844
0.665583
0.66558787
0.66559319
0.66559896
0.66560512
0.66561158
0.66561837
0.6656258
0.66563454
0.6656446
0.66565553
0.66566664
0.66567669
0.66568542
0.66569505
0.66570578
0.66571479
0.66571991
0.66572286
0.6654309
0.6654076
0.66542299
0.66546204
0.6654921
0.66550956
0.66551841
0.66552295
0.66552572
0.6655276
0.66552908
0.66553048
0.66553187
0.66553329
0.66553483
0.66553657
0.66553853
0.66554067
0.66554291
0.66554538
0.66554834
0.66555201
0.66555628
0.6655608
0.66556533
0.66557004
0.66557519
0.66558088
0.66558699
0.66559346
0.66560016
0.66560714
0.66561472
0.66562323
0.66563276
0.66564339
0.6656553
0.66566732
0.66567725
0.66568539
0.66569468
0.66570492
0.66571483
0.66572412
0.66572957
0.66574182
0.66573993
0.66541961
0.66539603
0.66541183
0.66545094
0.66548075
0.66549786
0.6655064
0.66551076
0.66551348
0.66551546
0.6655172
0.66551889
0.66552047
0.66552198
0.66552356
0.66552536
0.66552747
0.66552982
0.66553236
0.66553518
0.6655384
0.66554205
0.66554594
0.66554982
0.66555364
0.66555774
0.66556253
0.66556805
0.66557412
0.66558072
0.66558788
0.66559546
0.66560344
0.66561186
0.66562084
0.66563079
0.66564265
0.66565655
0.66567015
0.66568071
0.66568985
0.66569896
0.66570776
0.66571739
0.66572703
0.66574336
0.66573435
0.66578539
0.66570897
0.66540714
0.6653827
0.66539852
0.66543741
0.66546682
0.66548365
0.66549215
0.6654967
0.66549983
0.66550238
0.66550496
0.66550748
0.66550972
0.66551165
0.66551339
0.66551515
0.66551708
0.66551924
0.66552171
0.6655245
0.66552744
0.66553032
0.66553307
0.66553586
0.66553901
0.66554283
0.66554746
0.66555277
0.66555859
0.66556501
0.66557226
0.66558021
0.66558872
0.66559799
0.66560817
0.66561889
0.66562977
0.66564131
0.66565437
0.66566813
0.66568129
0.66569464
0.66570568
0.66571601
0.66572719
0.66574687
0.66573396
0.66581703
0.6657101
0.66539749
0.66537171
0.6653869
0.66542479
0.66545343
0.66547026
0.66547963
0.66548568
0.66549052
0.66549448
0.66549805
0.66550113
0.66550354
0.66550524
0.66550633
0.66550706
0.66550777
0.66550882
0.66551038
0.66551232
0.6655142
0.6655158
0.66551737
0.6655195
0.66552259
0.66552669
0.66553151
0.66553674
0.6655423
0.66554826
0.66555482
0.66556222
0.66557077
0.66558095
0.66559315
0.66560659
0.66561957
0.66563165
0.66564368
0.66565554
0.66566777
0.66568152
0.66569508
0.66570933
0.66572289
0.66574477
0.66572117
0.66581854
0.66569475
0.66539059
0.66536436
0.66537894
0.66541527
0.66544236
0.66545848
0.66546835
0.66547585
0.66548232
0.66548727
0.66549095
0.66549362
0.66549559
0.66549701
0.66549781
0.66549804
0.66549797
0.66549803
0.66549842
0.665499
0.66549958
0.66550028
0.66550158
0.66550394
0.66550749
0.66551205
0.66551737
0.66552327
0.66552965
0.66553643
0.66554336
0.66555025
0.66555725
0.66556495
0.66557479
0.66558883
0.66560629
0.6656235
0.66563785
0.66565102
0.66566393
0.665676
0.66568754
0.66569817
0.6657127
0.66574469
0.66570927
0.66580776
0.6657011
0.66537968
0.6653554
0.66537118
0.6654071
0.66543306
0.66544799
0.665457
0.66546415
0.66547028
0.66547457
0.66547715
0.66547849
0.66547951
0.6654807
0.66548187
0.66548255
0.66548267
0.66548245
0.66548225
0.66548238
0.6654831
0.66548463
0.66548708
0.66549039
0.6654944
0.66549903
0.66550421
0.66550991
0.66551616
0.66552326
0.66553166
0.66554138
0.66555208
0.66556305
0.66557281
0.6655805
0.66558901
0.66560211
0.66561998
0.66563989
0.66565913
0.66567354
0.66568608
0.66569784
0.66570734
0.66574242
0.66570395
0.66580339
0.66569703
0.6653628
0.66534215
0.66536093
0.665398
0.66542406
0.6654385
0.66544631
0.66545192
0.66545651
0.66545941
0.66546088
0.66546124
0.66546139
0.66546212
0.66546334
0.66546447
0.66546517
0.66546567
0.66546662
0.66546849
0.66547128
0.66547473
0.66547865
0.6654828
0.66548684
0.66549067
0.66549449
0.66549854
0.66550331
0.66550985
0.665519
0.66553076
0.66554406
0.66555739
0.6655706
0.66558321
0.66559357
0.66560351
0.66561367
0.66562406
0.66563565
0.66565174
0.66567086
0.66568772
0.66570353
0.6657454
0.66569865
0.66580229
0.66568943
0.66534616
0.66532826
0.66534975
0.66538791
0.66541413
0.66542823
0.66543519
0.66543915
0.66544193
0.66544361
0.66544455
0.6654448
0.66544484
0.6654454
0.66544673
0.66544872
0.66545109
0.66545401
0.66545774
0.66546202
0.66546638
0.66547078
0.66547525
0.66547937
0.6654828
0.6654861
0.66548993
0.66549438
0.66549946
0.66550543
0.66551216
0.66551926
0.66552665
0.66553717
0.66555499
0.665577
0.66559514
0.66560561
0.66561379
0.66562311
0.66563317
0.66564522
0.66565667
0.66566422
0.66568044
0.66573603
0.66569529
0.6657953
0.66568866
0.66532841
0.66531191
0.66533507
0.66537373
0.66539975
0.6654132
0.66541912
0.66542145
0.66542214
0.66542216
0.66542248
0.66542304
0.66542377
0.66542502
0.66542738
0.66543116
0.66543618
0.6654419
0.66544756
0.6654525
0.66545671
0.6654607
0.66546441
0.66546741
0.66547043
0.66547499
0.66548126
0.66548812
0.66549505
0.66550237
0.66551026
0.66551838
0.66552568
0.66553075
0.66553416
0.66554111
0.66555423
0.66557455
0.66559575
0.66561372
0.66562856
0.6656395
0.66565285
0.66566907
0.66566885
0.66570873
0.66567691
0.66578986
0.66567564
0.66530409
0.66528819
0.66531239
0.6653517
0.6653781
0.66539167
0.66539751
0.66539946
0.66539938
0.66539873
0.66539885
0.66540003
0.66540208
0.66540487
0.66540886
0.66541436
0.66542085
0.6654273
0.66543271
0.66543674
0.66543985
0.66544252
0.66544493
0.66544766
0.66545205
0.66545881
0.66546666
0.66547388
0.66548058
0.6654881
0.66549678
0.66550567
0.66551481
0.66552431
0.66553167
0.6655378
0.66554497
0.66555218
0.66556012
0.66557507
0.66559224
0.6656102
0.66562887
0.66565563
0.66567145
0.66571117
0.66565371
0.66578438
0.66565408
0.66527958
0.66526302
0.66528729
0.66532686
0.66535388
0.66536843
0.66537551
0.66537884
0.66538007
0.6653805
0.66538156
0.66538395
0.66538753
0.66539186
0.66539696
0.66540286
0.66540895
0.66541424
0.66541804
0.66542052
0.66542252
0.66542478
0.66542772
0.66543198
0.66543799
0.66544486
0.66545117
0.66545679
0.66546275
0.66546956
0.6654765
0.66548313
0.66549211
0.6655078
0.66552755
0.66554001
0.6655479
0.66555536
0.66556056
0.66556833
0.66558098
0.66559243
0.66560642
0.66562732
0.66563566
0.66569162
0.66565535
0.66578223
0.66562102
0.66526005
0.66524212
0.66526519
0.66530352
0.66532978
0.66534417
0.66535177
0.6653562
0.66535909
0.66536117
0.66536347
0.66536693
0.66537147
0.66537647
0.66538167
0.66538682
0.66539159
0.6653955
0.66539837
0.66540069
0.66540326
0.66540684
0.66541187
0.66541835
0.66542591
0.66543381
0.66544138
0.66544881
0.66545656
0.66546414
0.66547069
0.66547618
0.66548037
0.6654817
0.66548509
0.66550085
0.66551752
0.66553576
0.66555583
0.66557431
0.66558331
0.66559136
0.66560385
0.6656199
0.66562249
0.66568635
0.66564352
0.66577224
0.66560377
0.66523819
0.66521976
0.66524189
0.66527859
0.66530317
0.66531624
0.6653232
0.66532801
0.66533189
0.66533548
0.66533928
0.66534362
0.66534828
0.66535274
0.66535679
0.66536035
0.66536347
0.66536623
0.66536904
0.6653725
0.66537693
0.66538246
0.66538926
0.66539715
0.66540548
0.66541389
0.66542247
0.66543127
0.66544037
0.6654498
0.66545956
0.66546967
0.66548029
0.66549067
0.66549614
0.66549688
0.66550004
0.66550217
0.66551055
0.66553027
0.66554926
0.66557237
0.66559552
0.66561702
0.66562575
0.66568508
0.6656314
0.66578294
0.66558839
0.66521124
0.66519333
0.66521568
0.66525172
0.66527513
0.66528713
0.66529355
0.6652987
0.66530393
0.66530936
0.66531496
0.66532038
0.66532498
0.66532846
0.66533085
0.66533267
0.66533443
0.66533654
0.66533951
0.66534374
0.66534916
0.66535538
0.66536237
0.66537023
0.66537843
0.66538645
0.66539466
0.66540369
0.66541368
0.66542443
0.66543565
0.66544704
0.66545786
0.66546884
0.66548108
0.66549076
0.66549961
0.66551096
0.66551958
0.66552382
0.66553338
0.66554806
0.66556386
0.66557898
0.6655971
0.66564443
0.66559314
0.66578338
0.66555674
0.66518522
0.66516754
0.66519046
0.66522648
0.66524935
0.66526061
0.66526657
0.66527167
0.66527748
0.66528419
0.66529116
0.66529746
0.66530222
0.6653052
0.66530663
0.66530757
0.66530891
0.66531126
0.66531488
0.66531973
0.66532552
0.66533175
0.66533822
0.66534529
0.66535302
0.66536074
0.66536816
0.6653757
0.6653838
0.66539239
0.66540115
0.66541049
0.66542102
0.66543295
0.66544679
0.66546023
0.66547242
0.66548508
0.66549832
0.66551051
0.66552555
0.66554128
0.66555596
0.66557453
0.66558464
0.665652
0.66556999
0.66575322
0.66551901
0.66515999
0.66514265
0.66516634
0.6652025
0.6652249
0.66523513
0.66523978
0.66524396
0.66524851
0.66525407
0.66526072
0.66526683
0.66527115
0.66527357
0.66527462
0.66527542
0.66527719
0.66528059
0.66528567
0.66529195
0.66529881
0.66530583
0.66531295
0.66532051
0.66532888
0.66533752
0.66534546
0.6653527
0.66536023
0.66536867
0.66537763
0.66538689
0.6653966
0.66540572
0.66541398
0.66542311
0.66543455
0.66544795
0.66546288
0.66547816
0.66549375
0.66551239
0.66553596
0.66557195
0.66558427
0.66566698
0.66554692
0.66578121
0.66547267
0.66512905
0.6651128
0.66513805
0.66517483
0.66519729
0.66520769
0.66521205
0.66521456
0.6652176
0.66522159
0.66522583
0.66523006
0.66523308
0.66523476
0.6652356
0.66523672
0.66523932
0.66524393
0.6652505
0.66525833
0.66526651
0.66527453
0.66528243
0.66529059
0.66529923
0.66530795
0.66531584
0.6653228
0.66533043
0.6653403
0.6653522
0.6653653
0.66537941
0.66539306
0.6654041
0.66541299
0.66542148
0.66542968
0.66543837
0.66544971
0.66546292
0.6654749
0.66548739
0.66549975
0.66552457
0.66562264
0.66550133
0.6658018
0.66542178
0.66509565
0.66507997
0.66510614
0.66514352
0.66516685
0.66517825
0.66518389
0.66518684
0.66518894
0.66519129
0.66519356
0.66519607
0.66519824
0.66519997
0.66520137
0.66520337
0.66520698
0.6652126
0.66521979
0.66522768
0.66523555
0.66524307
0.66525035
0.66525775
0.66526532
0.66527265
0.66527931
0.66528575
0.66529362
0.6653044
0.6653174
0.66533077
0.66534373
0.66535612
0.66536746
0.66537779
0.66538754
0.66539732
0.6654084
0.66542143
0.66543663
0.66545473
0.66547633
0.66549387
0.66548048
0.66557413
0.6654471
0.66579942
0.66534727
0.66506853
0.66505184
0.66507723
0.66511383
0.66513703
0.66514883
0.66515474
0.665159
0.66516095
0.6651615
0.66516315
0.66516546
0.66516856
0.66517185
0.66517476
0.66517804
0.66518247
0.66518801
0.66519385
0.66519931
0.66520425
0.66520905
0.66521415
0.66521986
0.66522608
0.66523263
0.66523963
0.66524755
0.66525676
0.6652669
0.66527701
0.66528613
0.66529405
0.66530172
0.66531044
0.66532075
0.66533202
0.66534377
0.66535733
0.66537339
0.66539048
0.66540876
0.66543241
0.66547721
0.66546771
0.66558688
0.66538182
0.66577379
0.66526989
0.66504988
0.66503156
0.6650552
0.66508937
0.66511038
0.66512126
0.66512658
0.6651294
0.66513087
0.66513179
0.66513347
0.66513639
0.6651405
0.66514489
0.66514894
0.66515283
0.66515663
0.6651602
0.66516313
0.66516528
0.66516734
0.66517015
0.66517417
0.66517942
0.66518569
0.66519332
0.66520257
0.66521242
0.66522123
0.66522859
0.66523544
0.6652426
0.6652502
0.66525833
0.66526682
0.66527567
0.66528585
0.66529801
0.66531137
0.66532521
0.66534013
0.66535575
0.66537627
0.66542897
0.66541696
0.66557024
0.66532123
0.66578905
0.66518497
0.66502535
0.66500699
0.66502974
0.66506213
0.66508091
0.66509016
0.66509502
0.66509744
0.66509895
0.66510099
0.66510207
0.66510347
0.66510652
0.6651096
0.66511284
0.66511615
0.66511862
0.66512019
0.66512153
0.66512289
0.66512493
0.66512812
0.66513209
0.6651366
0.66514206
0.66514902
0.66515691
0.66516404
0.66516959
0.66517487
0.6651813
0.66518833
0.66519538
0.66520301
0.66521024
0.66521724
0.66522621
0.6652375
0.66524892
0.66526054
0.66527407
0.66528735
0.66529717
0.66537381
0.66533577
0.66554962
0.66522058
0.66594068
0.66498797
0.66500733
0.66499006
0.66501414
0.66504775
0.6650657
0.66507388
0.66507818
0.6650817
0.66508386
0.66508494
0.665085
0.66508423
0.66508438
0.66508551
0.66508749
0.66508992
0.66509202
0.66509412
0.66509655
0.66509923
0.66510222
0.66510514
0.66510758
0.6651101
0.66511376
0.66511855
0.66512327
0.6651274
0.66513198
0.66513794
0.66514433
0.66515016
0.66515719
0.66516559
0.66517222
0.66517933
0.66519069
0.66520363
0.66521801
0.66523378
0.66525195
0.66527445
0.66529416
0.66538642
0.66529005
0.66569635
0.66509537
0.66628147
0.66482084
)
;

boundaryField
{
    Side
    {
        type            empty;
    }
    Inlet
    {
        type            calculated;
        value           nonuniform List<scalar> 
21
(
0.66576197
0.6657632
0.66576297
0.6657624
0.6657586
0.66575261
0.6657453
0.66573561
0.66572363
0.66571325
0.66570638
0.66569905
0.66569
0.66567956
0.66566884
0.66565551
0.665638
0.66561534
0.66558598
0.66556365
0.66560585
)
;
    }
    Airfoil
    {
        type            calculated;
        value           nonuniform List<scalar> 0();
    }
    Outlet
    {
        type            calculated;
        value           nonuniform List<scalar> 
49
(
0.66498207
0.66496308
0.66498861
0.66502294
0.66504315
0.66505226
0.66505581
0.66505734
0.66505806
0.66505841
0.66505909
0.66505992
0.66506065
0.66506125
0.66506162
0.66506198
0.6650627
0.66506361
0.66506461
0.66506573
0.66506694
0.66506837
0.66507012
0.66507197
0.66507355
0.66507483
0.66507621
0.66507788
0.66507943
0.66508048
0.66508138
0.66508245
0.66508294
0.66508293
0.66508378
0.66508455
0.66508376
0.66508298
0.6650829
0.66508361
0.66508433
0.66508479
0.66508559
0.66509796
0.66507703
0.66515201
0.66500776
0.66526781
0.66489475
)
;
    }
    procBoundary6to5
    {
        type            processor;
        value           nonuniform List<scalar> 
61
(
0.66554761
0.66552232
0.66553438
0.6655743
0.66560934
0.66562075
0.66562075
0.66563424
0.66564259
0.66564876
0.6656543
0.66564566
0.66564566
0.66565036
0.665655
0.66565959
0.66566413
0.66565391
0.66565391
0.66565877
0.66566369
0.66566843
0.66567278
0.66566331
0.66566331
0.66566775
0.6656716
0.66567492
0.66567776
0.66566945
0.66566945
0.6656728
0.66567629
0.66568001
0.6656736
0.6656736
0.66567841
0.66568392
0.66568987
0.66568476
0.66568476
0.66569114
0.66569728
0.66569572
0.66569572
0.66570147
0.66570718
0.66570542
0.66570542
0.66571142
0.66571701
0.66571721
0.66571721
0.66572278
0.66572678
0.66572678
0.66573917
0.66574366
0.66578868
0.66578868
0.66570521
)
;
    }
    procBoundary6to12
    {
        type            processor;
        value           uniform 0.66554712;
    }
    procBoundary6to13
    {
        type            processor;
        value           nonuniform List<scalar> 
34
(
0.66550784
0.66552302
0.66552302
0.66551243
0.66550214
0.6654916
0.66548357
0.66547689
0.66546947
0.66546235
0.66545369
0.66544193
0.66543074
0.66542053
0.66540971
0.66540074
0.66539431
0.66538233
0.66536277
0.66534519
0.66532839
0.66530472
0.66528068
0.66526188
0.66523999
0.66521224
0.665186
0.66516066
0.66512893
0.6650948
0.66506761
0.66504927
0.6650245
0.66500674
)
;
    }
}


// ************************************************************************* //
