/*--------------------------------*- C++ -*----------------------------------*\
| =========                 |                                                 |
| \\      /  F ield         | OpenFOAM: The Open Source CFD Toolbox           |
|  \\    /   O peration     | Version:  2506                                  |
|   \\  /    A nd           | Website:  www.openfoam.com                      |
|    \\/     M anipulation  |                                                 |
\*---------------------------------------------------------------------------*/
FoamFile
{
    version     2.0;
    format      ascii;
    arch        "LSB;label=32;scalar=64";
    class       volScalarField;
    location    "0.0185";
    object      Ma;
}
// * * * * * * * * * * * * * * * * * * * * * * * * * * * * * * * * * * * * * //

dimensions      [0 0 0 0 0 0 0];

internalField   nonuniform List<scalar> 
192657
(
0.29924071
0.29958942
0.30001115
0.29947504
0.30014628
0.29962573
0.29999638
0.29983975
0.30030872
0.30124951
0.30342515
0.30673212
0.3100936
0.31131717
0.30838987
0.30339317
0.30103738
0.30503512
0.30850399
0.30825353
0.30945261
0.31230289
0.31351356
0.315057
0.31746352
0.3193588
0.32158858
0.32410108
0.3265652
0.32932088
0.33219095
0.33519927
0.33841143
0.34174288
0.34526794
0.34894928
0.35281356
0.35684589
0.36105367
0.36546464
0.37006156
0.37485325
0.37984075
0.38502652
0.39041036
0.39599224
0.40176695
0.40772771
0.41386459
0.42016413
0.42660796
0.43317461
0.43983824
0.44657004
0.45333771
0.46010644
0.46684107
0.47350399
0.48005957
0.48647186
0.49270898
0.49874019
0.50453868
0.51008237
0.51535492
0.52034085
0.52503338
0.52942711
0.53352192
0.53731948
0.54082647
0.54405031
0.54700105
0.549692
0.55213629
0.55434794
0.55634233
0.55813623
0.55974592
0.561189
0.56248057
0.56363585
0.5646717
0.56560269
0.56644087
0.5672003
0.56789274
0.56852958
0.56911908
0.56967002
0.57018964
0.5706844
0.57115924
0.57161822
0.57206478
0.57250124
0.57292948
0.573349
0.57374883
0.5740699
0.5740423
0.57239596
0.56418739
0.5475105
0.53032727
0.51481194
0.50061269
0.48747337
0.47524842
0.46383901
0.45316612
0.44316101
0.43376159
0.42491069
0.41655522
0.40864617
0.40113793
0.39398773
0.38715646
0.38060747
0.37430552
0.36821692
0.36230888
0.35654923
0.35090642
0.34534835
0.33984225
0.33435409
0.32884689
0.32328144
0.31761354
0.31179182
0.30575898
0.29944755
0.29277314
0.28563018
0.27788453
0.26936096
0.25982576
0.24895609
0.23628498
0.22113575
0.20255821
0.17936447
0.15072778
0.11762913
0.082944661
0.048927386
0.016255841
0.29923775
0.29958882
0.30001374
0.29947428
0.30014886
0.29962578
0.29999728
0.29983805
0.3003027
0.30123499
0.30340144
0.30670718
0.31008651
0.31135091
0.30845872
0.30345221
0.30103583
0.30498464
0.30850865
0.30826914
0.30943627
0.31229642
0.31351879
0.31504555
0.31745487
0.31935065
0.3215727
0.32408445
0.32654389
0.32929452
0.33216074
0.33516311
0.33837037
0.34169583
0.34521471
0.3488894
0.3527467
0.35677187
0.36097189
0.36537553
0.36996428
0.37474726
0.3797276
0.3849065
0.3902842
0.39586097
0.40163193
0.40759067
0.41372768
0.42002997
0.42647964
0.43305559
0.43973243
0.4464817
0.45327136
0.46006679
0.46683294
0.47353213
0.48012858
0.48658601
0.49287214
0.49895576
0.50480952
0.51041066
0.51574224
0.52078811
0.52554088
0.52999455
0.53414849
0.53800384
0.54156689
0.54484463
0.54784681
0.55058642
0.55307632
0.55533028
0.55736347
0.55919244
0.56083332
0.56230302
0.56361688
0.5647904
0.56583961
0.56677943
0.56762
0.56837607
0.5690589
0.56967951
0.57024563
0.57076566
0.57124618
0.57169303
0.57211047
0.5725017
0.57286913
0.57321365
0.57353494
0.57382906
0.57407934
0.57421583
0.5739428
0.57195341
0.56344666
0.54629911
0.52859028
0.51260874
0.4979305
0.48428822
0.4715393
0.45958882
0.44836126
0.43779106
0.42781917
0.4183912
0.40945666
0.40096896
0.39288471
0.38516307
0.37776666
0.37066028
0.36380981
0.35718233
0.35074556
0.34446751
0.33831664
0.33226057
0.32626614
0.32029879
0.31432085
0.30829255
0.30216909
0.29589864
0.28942393
0.28267806
0.27557792
0.2680204
0.25987568
0.25097568
0.24109796
0.22993717
0.2170532
0.20181191
0.18333243
0.16055045
0.13288479
0.10171179
0.070175411
0.040467333
0.013090626
0.29923489
0.29958817
0.30001633
0.29947345
0.30015146
0.29962585
0.29999829
0.29983658
0.30029718
0.30122143
0.30337916
0.30668361
0.31007971
0.31138261
0.30852468
0.30350858
0.30103559
0.30493602
0.30851305
0.30828487
0.30942091
0.3122901
0.31352403
0.31503447
0.31744631
0.31934258
0.32155697
0.32406787
0.32652265
0.3292682
0.33213048
0.33512689
0.33832917
0.34164858
0.34516124
0.34882921
0.35267947
0.35669738
0.36088955
0.36528585
0.36986531
0.37464067
0.37961345
0.38478522
0.3901565
0.39572781
0.40149461
0.40745088
0.4135875
0.41989196
0.42634678
0.43293132
0.43962057
0.44638648
0.45319725
0.4600185
0.46681527
0.47354987
0.48018637
0.48668822
0.49302272
0.49915824
0.50506687
0.51072521
0.51611576
0.52122165
0.52603492
0.53054894
0.53476256
0.53867641
0.54229632
0.54562885
0.54868338
0.55147257
0.55400894
0.55630593
0.55837844
0.56024268
0.56191457
0.56341028
0.56474529
0.56593494
0.56699438
0.56793795
0.56877669
0.56952403
0.57019111
0.57078947
0.57132491
0.57180668
0.57224132
0.57263473
0.57299148
0.57331535
0.57360982
0.57387743
0.57412036
0.57433824
0.57451916
0.57459815
0.57428053
0.57227502
0.56398811
0.54692794
0.52901439
0.51284679
0.49799259
0.48418228
0.47127598
0.45917996
0.44781851
0.43712513
0.42703947
0.41750553
0.4084712
0.39988842
0.39171258
0.38390189
0.37641828
0.36922604
0.36229076
0.35557936
0.34905948
0.34269922
0.33646718
0.33033125
0.32425859
0.31821509
0.31216365
0.30606517
0.2998757
0.29354442
0.28701529
0.28022291
0.2730859
0.26550314
0.25734715
0.24845242
0.23859946
0.22748621
0.21467664
0.1995429
0.18121755
0.15867034
0.13138758
0.10076592
0.069784443
0.040438034
0.013163707
0.29923204
0.29958747
0.30001899
0.2994726
0.30015411
0.29962592
0.2999993
0.29983511
0.30029152
0.30120746
0.30335604
0.30665896
0.31007219
0.31141455
0.30859312
0.30356686
0.30103649
0.3048854
0.30851679
0.30830133
0.30940518
0.31228314
0.31352939
0.31502303
0.31743727
0.31933422
0.32154067
0.32405067
0.32650074
0.32924105
0.33209932
0.33508962
0.33828682
0.34160007
0.34510637
0.34876751
0.35261058
0.35662109
0.36080531
0.3651938
0.3697639
0.37453157
0.37949651
0.38466088
0.39002544
0.39559098
0.40135328
0.40730668
0.41344249
0.41974865
0.42620814
0.43280074
0.43950189
0.44628388
0.45311523
0.45996179
0.46678872
0.47355832
0.48023454
0.48678056
0.49316332
0.49935073
0.50531436
0.51103017
0.51648007
0.52164651
0.52652093
0.53109608
0.53537024
0.53934353
0.5430213
0.54640965
0.54951757
0.55235732
0.55494105
0.55728184
0.55939424
0.5612941
0.56299696
0.56451847
0.56587403
0.56707877
0.56814734
0.56909329
0.56992856
0.57066544
0.57131527
0.57188913
0.57239388
0.57283829
0.57322945
0.57357373
0.57387635
0.57414191
0.57437488
0.57457832
0.57475538
0.5749061
0.57501838
0.57502584
0.57463074
0.57257476
0.56458464
0.54783019
0.52970679
0.51327253
0.49815387
0.48408115
0.47091572
0.45856557
0.44695605
0.43602148
0.4257022
0.41594209
0.4066886
0.39789315
0.38951068
0.38149898
0.37381967
0.36643684
0.35931585
0.35242346
0.34572722
0.33919511
0.33279569
0.32649684
0.32026573
0.31406834
0.30786764
0.30162474
0.29529593
0.28883073
0.28217361
0.2752599
0.26800914
0.26032147
0.25207113
0.24309506
0.23317715
0.22202022
0.20919548
0.19408658
0.17584598
0.15348279
0.12656268
0.096582926
0.066537294
0.038351986
0.012406745
0.2992292
0.29958672
0.30002173
0.29947172
0.30015681
0.29962602
0.30000033
0.29983365
0.30028574
0.30119314
0.30333217
0.30663329
0.31006397
0.31144659
0.3086639
0.30362693
0.30103865
0.30483288
0.30851979
0.30831853
0.30938915
0.31227554
0.31353488
0.31501124
0.31742773
0.31932556
0.32152381
0.32403286
0.32647816
0.32921308
0.33206727
0.33505132
0.33824334
0.3415503
0.34505012
0.34870431
0.35254007
0.35654306
0.36071928
0.36509905
0.36966047
0.37441998
0.37937684
0.38453354
0.3898911
0.39545056
0.40120801
0.40715816
0.41329274
0.41960015
0.42606382
0.43266396
0.43937644
0.44617397
0.45302535
0.45989668
0.46675325
0.47355739
0.48027295
0.48686285
0.4932937
0.49953293
0.50555162
0.5113251
0.51683468
0.52206215
0.52699831
0.53163531
0.53597085
0.5400045
0.54374114
0.54718637
0.55034877
0.5532402
0.55587238
0.55825802
0.56041129
0.56234765
0.56408228
0.56563041
0.56700724
0.56822764
0.56930591
0.57025534
0.57108816
0.57181638
0.57245157
0.57300425
0.57348305
0.57389627
0.57425167
0.57455636
0.57481631
0.57503688
0.57522327
0.57537956
0.57550943
0.57561364
0.57568085
0.57564568
0.5752142
0.57318041
0.56564254
0.54948835
0.53129053
0.51466156
0.49936394
0.48512706
0.4718075
0.45931226
0.44756529
0.43649953
0.42605579
0.41617631
0.40680687
0.39789766
0.38940277
0.38127941
0.37348889
0.36599523
0.35876382
0.3517616
0.3449563
0.3383162
0.33181021
0.3254066
0.31907299
0.31277585
0.30647867
0.30014313
0.29372619
0.28717802
0.28044394
0.2734602
0.26614739
0.25840687
0.25011427
0.24110817
0.23117442
0.22001816
0.20721358
0.19214857
0.17398297
0.1517414
0.12502021
0.095340117
0.065658718
0.037842257
0.012242345
0.29922637
0.29958592
0.30002454
0.2994708
0.30015957
0.29962613
0.30000135
0.2998322
0.30027984
0.30117845
0.30330751
0.30660655
0.31005497
0.31147871
0.30873717
0.3036889
0.30104216
0.30477836
0.30852194
0.30833653
0.30937283
0.31226723
0.3135405
0.31499911
0.31741767
0.3193166
0.32150637
0.32401441
0.3264549
0.32918427
0.3320343
0.33501198
0.33819869
0.34149925
0.34499247
0.34863957
0.35246788
0.35646323
0.36063146
0.36500176
0.36955477
0.37430586
0.37925441
0.38440319
0.38975348
0.39530655
0.4010588
0.40700533
0.41313827
0.41944648
0.42591384
0.43252102
0.43924431
0.44605684
0.45292769
0.45982326
0.46670899
0.47354724
0.48030176
0.48693527
0.49341403
0.49970503
0.50577885
0.51161021
0.51717981
0.52246879
0.5274673
0.53216688
0.53656465
0.54065962
0.54445617
0.54795941
0.5511775
0.55412183
0.55680377
0.55923558
0.56143109
0.56340537
0.56517327
0.56674969
0.56814959
0.56938769
0.57047809
0.57143403
0.5722679
0.57299177
0.57361746
0.57415581
0.57461617
0.57500725
0.57533744
0.57561451
0.57584509
0.5760352
0.57619052
0.57631595
0.57641542
0.57649016
0.57652956
0.57647066
0.57603074
0.57407688
0.56705659
0.55162387
0.53342791
0.5166306
0.50115522
0.48673966
0.473248
0.46058772
0.44868162
0.43745926
0.42686821
0.41684734
0.4073403
0.3982963
0.38966872
0.38141428
0.37349399
0.36587176
0.35851314
0.35138505
0.34445527
0.33769221
0.33106498
0.32454211
0.31809153
0.31168008
0.30527161
0.29882823
0.29230733
0.28565958
0.27883086
0.27175812
0.26436269
0.25654681
0.24818726
0.23912397
0.22914454
0.2179564
0.2051368
0.19007809
0.17194717
0.14978186
0.12320532
0.093773364
0.064448341
0.037069229
0.011963868
0.29922357
0.29958506
0.30002744
0.29946986
0.30016237
0.29962626
0.30000239
0.29983077
0.30027383
0.3011634
0.30328205
0.30657868
0.31004513
0.31151084
0.30881298
0.30375285
0.30104715
0.30472179
0.30852313
0.30835536
0.30935626
0.31225819
0.31354624
0.31498665
0.31740707
0.31930733
0.32148834
0.32399531
0.32643095
0.3291546
0.33200041
0.33497157
0.33815286
0.34144689
0.34493338
0.34857328
0.352394
0.35638159
0.36054175
0.36490204
0.36944673
0.37418919
0.37912919
0.38426981
0.38961255
0.39515892
0.40090567
0.40684821
0.4129791
0.41928768
0.42575827
0.43237197
0.43910555
0.44593253
0.45282234
0.45974163
0.46665602
0.47352793
0.48032105
0.48699788
0.49352437
0.4998671
0.50599611
0.51188553
0.5175155
0.52286645
0.52792793
0.53269083
0.53715169
0.54130895
0.5451665
0.54872893
0.55200397
0.5550026
0.55773576
0.56021535
0.56245483
0.56446895
0.56627224
0.56787938
0.56930515
0.57056415
0.57167047
0.5726374
0.57347754
0.57420319
0.57482652
0.57535881
0.57581001
0.57618934
0.57650575
0.57676759
0.57698205
0.57715563
0.57729447
0.57740385
0.57748807
0.57754882
0.57757673
0.57751367
0.57709744
0.57529093
0.56887018
0.55425619
0.53612626
0.5191667
0.50353303
0.48897048
0.47534018
0.46254879
0.45051957
0.43918362
0.42847752
0.41834209
0.4087222
0.39956698
0.39082935
0.38246539
0.37443541
0.36670306
0.35923563
0.35199925
0.34496149
0.33809081
0.33135652
0.32472748
0.31817201
0.3116574
0.30514799
0.29860632
0.29199029
0.28525105
0.27833506
0.27117989
0.26370755
0.25582105
0.24739803
0.23827945
0.22825413
0.21703094
0.20418888
0.18912256
0.17100203
0.14887034
0.12236142
0.093046742
0.063890598
0.036716627
0.011838572
0.29922078
0.29958415
0.30003042
0.29946889
0.30016522
0.29962642
0.30000342
0.29982935
0.30026769
0.30114797
0.30325575
0.30654966
0.31003441
0.31154294
0.30889142
0.30381885
0.30105374
0.3046631
0.30852326
0.30837508
0.30933944
0.31224834
0.31355211
0.31497384
0.31739591
0.31929775
0.3214697
0.32397554
0.32640629
0.32912404
0.33196556
0.33493006
0.33810581
0.34139321
0.34487283
0.3485054
0.3523184
0.3562981
0.36044992
0.36480012
0.36933632
0.37406992
0.37900116
0.38413337
0.3894683
0.3950077
0.4007486
0.4066868
0.41281525
0.41912376
0.42559711
0.43221685
0.43896021
0.44580112
0.45270934
0.45965184
0.46659441
0.47349956
0.4803309
0.48705077
0.49362481
0.5000192
0.50620345
0.51215114
0.5178418
0.52325521
0.52838026
0.53320722
0.53773205
0.54195259
0.54587225
0.5494951
0.55282845
0.55588286
0.5586689
0.56119809
0.56348359
0.56553986
0.56738122
0.56902212
0.5704773
0.5717613
0.57288829
0.57387172
0.57472443
0.57545901
0.57608802
0.57662323
0.57707505
0.57745319
0.57776708
0.57802551
0.57823608
0.57840565
0.57854061
0.57864651
0.57872783
0.57878665
0.57881502
0.57876095
0.57838813
0.5767663
0.57098704
0.55727878
0.53928509
0.52217043
0.5063818
0.49167573
0.47790934
0.46498767
0.45283344
0.44137732
0.43055539
0.4203079
0.41057903
0.40131722
0.3924748
0.38400738
0.37587498
0.3680407
0.36046943
0.35312797
0.34598428
0.33900713
0.33216614
0.32543045
0.31876863
0.31214896
0.30553626
0.29889335
0.29217845
0.2853431
0.27833422
0.27108991
0.2635327
0.25556623
0.24706882
0.23788229
0.22779643
0.21652126
0.20363713
0.18854025
0.17040238
0.14826826
0.1217757
0.092509542
0.063450229
0.03642158
0.011727692
0.29921803
0.29958317
0.30003349
0.29946789
0.30016812
0.2996266
0.30000446
0.29982795
0.30026144
0.30113217
0.30322861
0.30651942
0.31002272
0.31157495
0.30897258
0.30388697
0.30106205
0.30460226
0.3085222
0.30839576
0.3093224
0.31223766
0.3135581
0.31496071
0.31738415
0.31928785
0.32145045
0.32395507
0.3263809
0.32909258
0.33192973
0.33488744
0.33805751
0.34133816
0.34481078
0.34843589
0.35224102
0.35621272
0.3603559
0.36469606
0.36922348
0.37394803
0.37887028
0.38399385
0.3893207
0.39485284
0.40058759
0.40652109
0.41264672
0.41895474
0.4254304
0.4320557
0.43880833
0.44566264
0.45258877
0.45955396
0.46652423
0.47346217
0.48033138
0.48709399
0.4937154
0.50016139
0.50640096
0.51240709
0.51815878
0.52363511
0.52882434
0.5337161
0.53830577
0.5425906
0.5465735
0.55025806
0.55365114
0.55676292
0.55960362
0.56218443
0.56451825
0.56661932
0.56850177
0.57017998
0.57166862
0.5729823
0.57413531
0.57514131
0.57601341
0.5767645
0.57740751
0.57795462
0.57841666
0.5788037
0.57912553
0.57939127
0.57960879
0.57978515
0.57992693
0.5800398
0.58012836
0.58019506
0.58023351
0.58019865
0.57988286
0.5784662
0.57334547
0.56062419
0.54285791
0.52560004
0.50966396
0.49482397
0.48093156
0.46788966
0.45562035
0.444054
0.4331263
0.42277692
0.41294932
0.40359116
0.39465394
0.38609252
0.37786628
0.36993781
0.36227166
0.35483443
0.34759405
0.34051939
0.33358028
0.32674615
0.31998596
0.31326769
0.30655641
0.2998155
0.29300372
0.28607309
0.27897102
0.27163616
0.26399153
0.25594127
0.24736425
0.23810302
0.22794826
0.21661064
0.20367119
0.18852666
0.17034859
0.14817914
0.12165159
0.092356336
0.063295061
0.036302433
0.011678078
0.29921531
0.29958213
0.30003665
0.29946686
0.30017107
0.2996268
0.30000549
0.29982658
0.30025508
0.30111599
0.3032006
0.30648792
0.31001001
0.3116068
0.30905651
0.30395729
0.30107222
0.30453923
0.30851979
0.30841744
0.30930518
0.31222608
0.31356421
0.31494725
0.31737177
0.31927762
0.32143056
0.32393388
0.32635477
0.32906019
0.3318929
0.33484367
0.33800795
0.34128172
0.34474719
0.34836473
0.35216184
0.35612539
0.36025981
0.36458966
0.36910816
0.37382346
0.37873652
0.38385121
0.38916973
0.39469432
0.40042261
0.40635108
0.4124735
0.41878062
0.42525815
0.43188853
0.43864993
0.44551714
0.45246065
0.45944804
0.46644553
0.47341584
0.48032253
0.48712761
0.49379621
0.50029372
0.50658866
0.51265343
0.51846646
0.52400618
0.5292602
0.53421751
0.5388729
0.54322304
0.54727034
0.5510179
0.55447218
0.557643
0.56054024
0.56317483
0.56555944
0.56770816
0.56963501
0.57135432
0.57288079
0.57422914
0.57541379
0.57644866
0.57734709
0.57812225
0.57878738
0.579355
0.57983623
0.58024143
0.58058061
0.58086309
0.58109692
0.58128926
0.58144676
0.58157515
0.58167911
0.5817614
0.58181717
0.58180851
0.58155703
0.58035165
0.57588473
0.56421774
0.54678678
0.52939708
0.51331614
0.49834662
0.48433274
0.47117484
0.45879441
0.44712173
0.43609236
0.42564557
0.41572419
0.40627512
0.397249
0.38859983
0.38028623
0.37227014
0.36451557
0.35698878
0.34965744
0.34249034
0.33545737
0.32852808
0.32167167
0.31485643
0.30804773
0.30120938
0.29430054
0.2872736
0.28007648
0.27264826
0.26491245
0.25677365
0.24811123
0.23876809
0.22853521
0.21712385
0.20411542
0.18890663
0.17066754
0.14843462
0.12183002
0.092444718
0.063309544
0.036281693
0.011660401
0.29921264
0.29958102
0.30003991
0.29946581
0.30017407
0.29962703
0.30000652
0.29982523
0.3002486
0.30109944
0.3031717
0.30645511
0.30999619
0.31163844
0.3091433
0.30402989
0.30108441
0.30447399
0.30851588
0.30844019
0.30928779
0.31221355
0.31357043
0.31493347
0.31735873
0.31926705
0.32141001
0.32391194
0.32632787
0.32902684
0.33185504
0.33479873
0.33795707
0.34122384
0.34468204
0.34829186
0.35208081
0.35603606
0.36016173
0.36448079
0.36899032
0.37369618
0.37859983
0.38370541
0.38901536
0.39453213
0.40025363
0.40617673
0.41229559
0.4186014
0.42508035
0.43171534
0.43848503
0.44536464
0.45232502
0.45933411
0.46635835
0.4733606
0.48030442
0.48715168
0.49386727
0.50041624
0.50676661
0.51289019
0.5187649
0.52436846
0.52968788
0.53471148
0.53943346
0.54384993
0.54796281
0.55177469
0.55529168
0.55852324
0.56147897
0.56416957
0.56660755
0.56880689
0.57078155
0.57254589
0.57411467
0.57550271
0.57672465
0.57779459
0.5787261
0.57953257
0.58022746
0.58082353
0.58133214
0.58176378
0.58212858
0.582436
0.58269414
0.58291019
0.58309083
0.58324179
0.58336779
0.58347185
0.58355064
0.58357312
0.58338927
0.58239195
0.57855791
0.56799545
0.55102663
0.53352258
0.51729972
0.50220572
0.48807591
0.47480731
0.46232079
0.45054674
0.4394208
0.42888203
0.41887278
0.4093392
0.40023108
0.39150151
0.38310823
0.37501236
0.36717727
0.35956863
0.35215377
0.34490122
0.33778077
0.33076201
0.32381427
0.31690605
0.31000303
0.30306932
0.29606446
0.28894123
0.28164795
0.27412412
0.26629367
0.25806155
0.24930752
0.23987482
0.22955479
0.21805892
0.20496857
0.1896798
0.17136007
0.14903766
0.12231808
0.09278748
0.063509716
0.036372947
0.011680637
0.29921001
0.29957984
0.30004326
0.29946472
0.30017713
0.29962729
0.30000756
0.29982392
0.30024201
0.30108251
0.30314189
0.30642093
0.30998119
0.3116698
0.30923298
0.30410485
0.30109877
0.30440656
0.30851027
0.30846408
0.30927027
0.31220002
0.31357674
0.31491938
0.31734499
0.31925613
0.32138879
0.32388923
0.32630019
0.3289925
0.33181612
0.33475258
0.33790485
0.3411645
0.34461526
0.34821725
0.35199788
0.35594469
0.36006163
0.36436944
0.36886989
0.37356612
0.37846017
0.38355642
0.38885753
0.39436621
0.40008064
0.40599803
0.41211295
0.41841706
0.42489701
0.43153616
0.43831365
0.44520516
0.45218192
0.45921221
0.46626274
0.4732965
0.48027708
0.48716625
0.49392864
0.50052898
0.50693484
0.51311742
0.51905411
0.52472198
0.53010739
0.53519802
0.53998748
0.54447131
0.54865093
0.55252848
0.55610968
0.5594037
0.5624199
0.56516876
0.56766271
0.56991564
0.57194154
0.57375479
0.57537027
0.57680293
0.57806757
0.57917847
0.5801494
0.58099388
0.58172551
0.58235723
0.58290049
0.58336586
0.5837635
0.58410289
0.58439216
0.58463844
0.58484841
0.58502779
0.58518127
0.58531214
0.58541842
0.58547543
0.58535957
0.5845604
0.58132536
0.57189601
0.55553063
0.53793787
0.5215747
0.50635983
0.4921183
0.47874288
0.46615372
0.45428157
0.44306239
0.43243531
0.42234237
0.41272907
0.40354441
0.39474052
0.38627418
0.37810559
0.37019727
0.3625142
0.35502311
0.34769213
0.34049077
0.33338851
0.32635466
0.31935785
0.31236393
0.3053373
0.29823781
0.29101855
0.28362823
0.27600676
0.26807841
0.25974847
0.25089701
0.24136753
0.23095158
0.21936069
0.20617592
0.19079211
0.17237313
0.14993669
0.12306663
0.093340112
0.063859439
0.036552509
0.011730167
0.29920743
0.29957858
0.30004671
0.29946361
0.30018022
0.29962759
0.30000859
0.29982264
0.30023531
0.30106521
0.30311115
0.30638534
0.30996492
0.31170081
0.30932562
0.3041823
0.30111546
0.30433699
0.30850276
0.30848918
0.30925265
0.31218543
0.31358313
0.31490499
0.31733054
0.31924485
0.32136687
0.32386571
0.3262717
0.32895715
0.33177612
0.33470519
0.33785125
0.34110365
0.34454683
0.34814085
0.35191299
0.35585121
0.35995923
0.36425583
0.36874682
0.37343325
0.37831749
0.38340417
0.38869621
0.39419652
0.39990358
0.40581495
0.41192558
0.41822758
0.42470811
0.43135097
0.4381358
0.44503871
0.45203136
0.45908237
0.46615873
0.47322358
0.48024056
0.48717135
0.49398036
0.50063199
0.50709339
0.51333514
0.51933413
0.52506676
0.53051876
0.53567715
0.54053498
0.54508718
0.54933472
0.55327926
0.55692618
0.56028438
0.56336299
0.56617235
0.56872479
0.57103423
0.57311466
0.57498056
0.57664691
0.5781288
0.57944117
0.58059848
0.58161459
0.58250311
0.58327772
0.58395142
0.58453571
0.58504113
0.5854778
0.58585519
0.58618136
0.5864634
0.58670792
0.5869206
0.58710614
0.58726801
0.58740543
0.58749938
0.58745009
0.58683505
0.58415584
0.57586424
0.56025313
0.54261074
0.5261086
0.51077615
0.49642706
0.48294864
0.47026014
0.4582928
0.44698329
0.43627106
0.42609803
0.41640928
0.40715304
0.39828054
0.38974754
0.38151324
0.37353917
0.36578943
0.35823
0.35082839
0.34355366
0.33637496
0.32926145
0.32218171
0.31510167
0.3079859
0.30079445
0.29348071
0.28599369
0.27827368
0.27024524
0.26181398
0.25286018
0.24322756
0.23270774
0.22101214
0.20772119
0.19222811
0.17369225
0.1511187
0.12406514
0.094095506
0.064354874
0.036818801
0.01180873
0.29920491
0.29957724
0.30005026
0.29946247
0.30018337
0.29962791
0.30000961
0.29982139
0.30022851
0.30104754
0.30307946
0.30634827
0.3099473
0.31173142
0.30942123
0.30426239
0.30113461
0.30426535
0.30849309
0.30851554
0.30923499
0.31216971
0.31358959
0.31489032
0.31731532
0.31923318
0.32134425
0.32384135
0.32624238
0.32892074
0.33173499
0.33465653
0.33779623
0.34104126
0.3444767
0.34806261
0.35182611
0.35575557
0.3598543
0.36414017
0.36862101
0.37329749
0.37817172
0.38324862
0.38853134
0.39402303
0.39972243
0.40562745
0.41173343
0.41803295
0.42451365
0.43115977
0.43795147
0.4448653
0.45187335
0.45894461
0.46604634
0.47314187
0.4801949
0.48716701
0.49402246
0.50072531
0.50724229
0.51354339
0.51960499
0.52540284
0.53092201
0.5361489
0.54107597
0.54569755
0.55001416
0.55402701
0.55774114
0.56116519
0.56430811
0.5671801
0.56979349
0.57216217
0.57430023
0.57622224
0.57794328
0.57947858
0.58084322
0.58205176
0.58311815
0.584056
0.584879
0.58560016
0.58623094
0.5867818
0.58726279
0.58768327
0.58805125
0.58837371
0.58865718
0.58890731
0.58912876
0.58932518
0.58949678
0.58962943
0.58964423
0.589197
0.58702412
0.57985009
0.56514531
0.54751065
0.5308704
0.51542288
0.50097003
0.48739201
0.47460683
0.46254651
0.45114865
0.44035338
0.43010279
0.42034172
0.4110178
0.40208141
0.39348731
0.38519364
0.37716087
0.36935206
0.36173227
0.35426818
0.34692819
0.33968093
0.3324952
0.32533933
0.31817916
0.31097928
0.30369986
0.29629444
0.28871228
0.28089396
0.27276431
0.26422915
0.25516899
0.24542763
0.23479668
0.22298729
0.20957908
0.19396322
0.17529381
0.15256157
0.12529402
0.095037726
0.064984302
0.037164595
0.011913808
0.29920247
0.29957582
0.30005391
0.29946131
0.30018656
0.29962827
0.30001063
0.29982019
0.3002216
0.30102949
0.30304679
0.30630967
0.30992823
0.31176154
0.30951984
0.30434536
0.30115635
0.30419175
0.308481
0.30854324
0.30921732
0.3121528
0.31359608
0.31487537
0.31729929
0.31922113
0.32132089
0.32381612
0.3262122
0.32888326
0.3316927
0.33460657
0.33773975
0.34097728
0.34440482
0.34798248
0.35173717
0.35565772
0.3597469
0.3640224
0.3684923
0.37315879
0.3780228
0.3830897
0.38836287
0.39384567
0.39953713
0.40543547
0.41153646
0.41783313
0.42431358
0.43096254
0.43776065
0.44468494
0.45170791
0.45879895
0.46592559
0.4730514
0.48014011
0.48715329
0.49405497
0.50080897
0.50738157
0.51374221
0.51986672
0.52573023
0.53131717
0.53661329
0.54161045
0.54630241
0.55068925
0.55477169
0.55855447
0.56204599
0.56525503
0.56819169
0.57086828
0.57329874
0.57549724
0.57747844
0.57925756
0.58084994
0.58227077
0.5835347
0.58465569
0.58564733
0.58652327
0.58729647
0.5879783
0.58857912
0.58910881
0.58957665
0.58999054
0.59035733
0.59068348
0.59097456
0.59123522
0.59146923
0.59167761
0.5918503
0.59192624
0.59162962
0.58991011
0.58380976
0.57015488
0.55260876
0.53583133
0.52027064
0.50571777
0.49204344
0.47916405
0.46701247
0.45552766
0.44465072
0.43432424
0.42449303
0.41510434
0.40610782
0.39745732
0.38910992
0.38102495
0.37316438
0.36549218
0.35797403
0.35057745
0.34327034
0.33602089
0.32879699
0.32156415
0.3142868
0.30692506
0.29943246
0.2917584
0.28384363
0.27561319
0.26697303
0.25780378
0.24794927
0.23720099
0.22526972
0.21173399
0.19598262
0.17716383
0.15425247
0.12674241
0.096158742
0.065742573
0.037587186
0.012044613
0.2992001
0.29957431
0.30005767
0.29946013
0.30018978
0.29962867
0.30001164
0.29981903
0.30021459
0.30101108
0.30301314
0.30626949
0.30990762
0.31179111
0.30962143
0.3044315
0.30118073
0.30411631
0.30846619
0.30857232
0.30919969
0.31213462
0.31360259
0.31486018
0.31728243
0.31920865
0.32129679
0.32378998
0.32618114
0.32884467
0.33164922
0.33455526
0.33768177
0.34091166
0.34433113
0.3479004
0.35164612
0.35555759
0.35963699
0.36390253
0.36836053
0.37301707
0.37787067
0.38292735
0.38819074
0.39366438
0.39934762
0.40523898
0.41133465
0.41762809
0.4241079
0.43075926
0.43756334
0.44449762
0.45153505
0.4586454
0.46579652
0.47295219
0.48007625
0.48713021
0.49407795
0.50088301
0.50751128
0.51393162
0.52011937
0.52604898
0.53170427
0.53707034
0.54213845
0.54690178
0.55135995
0.55551325
0.55936608
0.5629266
0.56620347
0.56920668
0.57194853
0.57444303
0.57670443
0.5787475
0.58058757
0.58224009
0.58372035
0.58504304
0.58622214
0.58727119
0.58820371
0.58903261
0.58976916
0.59042354
0.59100547
0.59152411
0.59198724
0.59240157
0.59277346
0.59310844
0.59341109
0.59368526
0.59393263
0.59414645
0.5942805
0.59411747
0.59279734
0.58770578
0.57522511
0.55787568
0.54096275
0.5252902
0.51064093
0.49687348
0.48390203
0.47166052
0.46008953
0.4491315
0.43872983
0.42882961
0.41937792
0.41032385
0.40162048
0.3932239
0.38509235
0.37718663
0.36946952
0.3619056
0.35446131
0.3471036
0.33979981
0.33251714
0.32522054
0.31787401
0.31043738
0.30286403
0.29510326
0.28709586
0.27876692
0.27002243
0.26074303
0.25077249
0.23990207
0.227842
0.2141696
0.19827101
0.17928805
0.15617849
0.12839946
0.097450463
0.066624348
0.038083585
0.012200208
0.29919781
0.29957269
0.30006153
0.29945892
0.30019304
0.29962913
0.30001264
0.29981792
0.30020749
0.3009923
0.30297848
0.30622766
0.30988535
0.31182003
0.309726
0.30452123
0.30120775
0.30403918
0.3084484
0.30860283
0.30918217
0.31211508
0.31360909
0.31484475
0.31726467
0.31919575
0.32127191
0.32376291
0.32614917
0.32880493
0.33160451
0.33450257
0.33762224
0.34084435
0.34425559
0.34781634
0.3515529
0.35545513
0.35952453
0.36378043
0.36822576
0.37287221
0.37771526
0.3827615
0.38801487
0.39347911
0.39915385
0.40503793
0.41112794
0.41741779
0.42389657
0.43054991
0.43735951
0.44430334
0.45135476
0.45848397
0.46565914
0.47284427
0.48000333
0.48709781
0.49409143
0.50094748
0.50763146
0.51411169
0.52036296
0.52635913
0.53208335
0.53752008
0.54265999
0.54749566
0.55202627
0.55625162
0.56017583
0.56380682
0.56715309
0.57022455
0.5730335
0.575594
0.57792037
0.58002751
0.58193084
0.58364592
0.58518809
0.58657212
0.58781198
0.5889211
0.58991292
0.59080025
0.59159422
0.59230485
0.59294169
0.59351374
0.59402866
0.59449302
0.59491307
0.59529427
0.59564116
0.59595763
0.59624585
0.59650167
0.59669093
0.59664538
0.59567168
0.59150715
0.58029549
0.56327958
0.54623553
0.53045189
0.51570979
0.50185232
0.48879082
0.47646037
0.46480348
0.45376428
0.44328731
0.4333182
0.42380411
0.41469384
0.40593983
0.39749735
0.38932362
0.38137829
0.37362299
0.36602104
0.35853773
0.35113885
0.34379068
0.33645948
0.32910936
0.32170362
0.31420153
0.306556
0.29871604
0.29062223
0.28219948
0.27335368
0.2639653
0.25387789
0.24288234
0.2306882
0.21687135
0.20081501
0.18165412
0.15832847
0.1302559
0.098906301
0.067625666
0.038651857
0.012380102
0.29919563
0.29957098
0.30006551
0.2994577
0.30019634
0.29962963
0.30001363
0.29981686
0.30020029
0.30097316
0.3029428
0.30618412
0.30986133
0.31184824
0.30983351
0.30461497
0.3012373
0.30396049
0.30842736
0.30863479
0.30916481
0.31209409
0.31361557
0.31482911
0.31724598
0.31918238
0.32124625
0.32373485
0.32611627
0.328764
0.33155854
0.33444846
0.33756111
0.34077532
0.34417814
0.34773021
0.35145744
0.35535028
0.35940947
0.36365563
0.36808849
0.37272402
0.37755649
0.38259208
0.3878352
0.3932898
0.39895575
0.40483225
0.41091627
0.41720218
0.42367954
0.43033446
0.43714917
0.44410209
0.45116705
0.45831468
0.46551346
0.47272768
0.4799214
0.48705612
0.49409546
0.50100242
0.50774216
0.51428245
0.52059757
0.52666073
0.53245447
0.53796256
0.5431751
0.54808407
0.55268817
0.55698676
0.56098361
0.56468643
0.56810355
0.57124478
0.57412241
0.57675055
0.57914358
0.5813165
0.58328481
0.58506416
0.58666997
0.58811705
0.58941937
0.59059028
0.59164309
0.59259056
0.59344368
0.5942123
0.59490576
0.59553295
0.59610139
0.59661748
0.59708738
0.59751649
0.59790926
0.59826963
0.59860012
0.59889856
0.59914037
0.59919755
0.59851996
0.59518878
0.5853031
0.56878368
0.5516188
0.53572439
0.52089283
0.50694829
0.49379853
0.48137982
0.4696369
0.45851586
0.44796267
0.43792382
0.4283468
0.41918034
0.4103765
0.40188987
0.39367682
0.38569599
0.37790787
0.3702746
0.36276018
0.35532918
0.34794665
0.34057768
0.33318527
0.32573175
0.31817549
0.31046862