/*--------------------------------*- C++ -*----------------------------------*\
| =========                 |                                                 |
| \\      /  F ield         | OpenFOAM: The Open Source CFD Toolbox           |
|  \\    /   O peration     | Version:  2506                                  |
|   \\  /    A nd           | Website:  www.openfoam.com                      |
|    \\/     M anipulation  |                                                 |
\*---------------------------------------------------------------------------*/
FoamFile
{
    version     2.0;
    format      ascii;
    arch        "LSB;label=32;scalar=64";
    class       volScalarField;
    location    "0.4";
    object      Cp;
}
// * * * * * * * * * * * * * * * * * * * * * * * * * * * * * * * * * * * * * //

dimensions      [0 0 0 0 0 0 0];

internalField   nonuniform List<scalar> 
1376
(
0.031777875
0.031848376
0.031930421
0.032000219
0.031265749
0.03135253
0.031450842
0.031540029
0.031626859
0.031708194
0.03178496
0.031860595
0.031931284
0.031997113
0.030670219
0.030769814
0.030880962
0.030984713
0.031089015
0.031192489
0.031293334
0.031388343
0.031478143
0.031562268
0.03163971
0.031710412
0.031778985
0.031840819
0.031897447
0.030025892
0.030138371
0.030259131
0.030374174
0.030489696
0.030604792
0.030718696
0.030829775
0.03093659
0.03103843
0.031134732
0.031225443
0.031307956
0.031383651
0.031450141
0.03150965
0.031565816
0.031609585
0.031645273
0.029367621
0.029495221
0.029618816
0.02973973
0.029863485
0.029988343
0.030112824
0.030235189
0.030353895
0.030467781
0.030575987
0.030677883
0.03077277
0.030860783
0.030942616
0.031018158
0.031083748
0.031139687
0.031181601
0.031212581
0.031230334
0.031234389
0.031220593
0.028729117
0.028868114
0.028989788
0.029110382
0.029235352
0.029363817
0.029494471
0.029625055
0.029753367
0.02987763
0.029996347
0.03010822
0.030212604
0.030309473
0.030399235
0.030481472
0.0305555
0.030620582
0.03067514
0.030715976
0.030742359
0.030754095
0.030751975
0.030733423
0.030699404
0.030649466
0.030591741
0.028135856
0.0282774
0.028392386
0.028507172
0.028626707
0.028750959
0.028879524
0.029011286
0.029144224
0.029275706
0.029403485
0.02952547
0.029639873
0.029745803
0.029843227
0.029931886
0.030011855
0.030082635
0.030144386
0.030195864
0.030233812
0.030258851
0.030269502
0.03026432
0.03024219
0.030205476
0.030155123
0.030096072
0.030038399
0.029992308
0.02759776
0.027737009
0.027842105
0.027944952
0.028051171
0.028162145
0.028279311
0.028402452
0.028530723
0.028662245
0.028794129
0.028923465
0.029048009
0.029166056
0.029275723
0.029375496
0.029465672
0.029546451
0.029617675
0.029679637
0.029731008
0.029770184
0.029796553
0.029808501
0.029804247
0.029782056
0.02974351
0.029689806
0.029627011
0.02956352
0.029512134
0.029492451
0.029522023
0.027083445
0.027223359
0.027326531
0.02742336
0.027518844
0.027615237
0.027714889
0.027820554
0.027933533
0.028054029
0.028180684
0.028310588
0.0284406
0.028568541
0.028691832
0.028807602
0.02891442
0.02901161
0.029098714
0.029175771
0.029242399
0.029298551
0.029342654
0.029373431
0.029388417
0.029384427
0.029360812
0.029317903
0.029258089
0.029188066
0.029116215
0.029062912
0.029044137
0.029095666
0.029263402
0.026573193
0.026717052
0.02682432
0.026923427
0.027017195
0.027106795
0.027194617
0.027283126
0.027376291
0.02747646
0.027585734
0.027703702
0.027828811
0.02795827
0.02808813
0.028214788
0.028336308
0.02845087
0.028557102
0.02865473
0.028742439
0.028819439
0.028885757
0.028939348
0.028978376
0.028999292
0.028998787
0.028976705
0.028931844
0.028866157
0.028790847
0.02872356
0.028683689
0.028699383
0.028817187
0.029078966
0.02948419
0.029969723
0.026062731
0.026208992
0.026320764
0.026424627
0.026522135
0.026612854
0.026697719
0.026778759
0.026857922
0.026940181
0.027028906
0.027126358
0.027233865
0.027352141
0.02747782
0.027606369
0.027734093
0.027858103
0.027976754
0.028089718
0.028196835
0.028296381
0.028388676
0.028472377
0.028543972
0.028600312
0.028635055
0.028646072
0.028631487
0.028590473
0.028530523
0.028469815
0.028432103
0.028438782
0.028522821
0.028714803
0.029033487
0.029463263
0.029919593
0.030275291
0.025555123
0.025700951
0.025815364
0.025924519
0.026028267
0.026124409
0.026211757
0.026290838
0.026363774
0.026433552
0.026504929
0.026581885
0.026668414
0.026765546
0.026873034
0.026990266
0.027113511
0.027238783
0.027364337
0.027488169
0.02761092
0.027731192
0.027849009
0.027964106
0.028074085
0.028173464
0.028256284
0.028316962
0.028350924
0.028356158
0.028335736
0.028302989
0.028283262
0.028299296
0.028367221
0.028515551
0.028768147
0.029128035
0.029579279
0.030028753
0.030412165
0.030745994
0.02506458
0.025197441
0.025304288
0.025412147
0.025518421
0.025620115
0.025714956
0.025801256
0.025878456
0.025947543
0.026011186
0.026073488
0.026140331
0.026216032
0.026301784
0.026398401
0.026504904
0.026620842
0.026743317
0.026871125
0.027003407
0.02714306
0.027288081
0.027437012
0.027587626
0.027735135
0.027873104
0.02799516
0.028094217
0.028166086
0.028210707
0.028232245
0.028249692
0.028289289
0.028364316
0.028494639
0.028705326
0.029009925
0.029404952
0.029839035
0.030253805
0.03067555
0.031093493
0.02463224
0.024742936
0.024830873
0.024925616
0.025024179
0.025123247
0.025220108
0.025312547
0.025398439
0.025476403
0.025546086
0.025608499
0.025667447
0.025728082
0.025794981
0.025871873
0.025958602
0.026055358
0.026164736
0.026287631
0.026424967
0.026574971
0.026739344
0.026920303
0.027113238
0.027313963
0.027514834
0.027708383
0.027885118
0.028038652
0.028167972
0.028265794
0.028340538
0.028418054
0.028516719
0.028645044
0.028826525
0.029083707
0.029415729
0.029774548
0.030123792
0.030531736
0.031022067
0.031373115
0.031492541
0.024270657
0.024362896
0.024431305
0.024508492
0.024591859
0.024679188
0.024768392
0.024857493
0.024944134
0.025026201
0.025102858
0.025173111
0.025237766
0.025299384
0.025360804
0.025426588
0.025500094
0.025583484
0.025678986
0.025791479
0.025923983
0.026078883
0.026259015
0.026463334
0.026694998
0.026946047
0.027211711
0.02748297
0.027749206
0.027997495
0.028213532
0.028400677
0.028554589
0.028686415
0.028813872
0.028943595
0.029093525
0.029290028
0.029560117
0.029867951
0.03015805
0.0304957
0.03095601
0.031490497
0.031958605
0.031738968
0.023971121
0.024048413
0.024101664
0.024166115
0.024237525
0.024314014
0.024394421
0.024477275
0.024560671
0.024642189
0.024719664
0.024793519
0.024863987
0.024930619
0.024996156
0.025062649
0.025133352
0.02521167
0.025301279
0.025407383
0.025536668
0.025695383
0.025886954
0.026115194
0.026379746
0.026679017
0.027003172
0.027344881
0.027691375
0.028029798
0.028346693
0.028625322
0.028861189
0.029056279
0.029219346
0.029359204
0.029494411
0.0296428
0.029841682
0.030096375
0.030332446
0.030562917
0.030909996
0.031420493
0.031928212
0.032137782
0.030773644
0.028437432
0.023736
0.023812853
0.023861227
0.023918798
0.023983019
0.024052439
0.024125582
0.024201059
0.024277914
0.024354924
0.024429885
0.024502929
0.024575365
0.024647422
0.02471998
0.024794391
0.024872334
0.02495589
0.025049977
0.025159828
0.025291325
0.025454498
0.025657625
0.025904747
0.026195607
0.026527283
0.026894273
0.02728618
0.027696201
0.028109448
0.028515714
0.028892658
0.029217733
0.029488412
0.0297059
0.029872887
0.030007367
0.030130065
0.030260677
0.03043494
0.030615749
0.030772807
0.031025195
0.031256077
0.031538408
0.032013416
0.031165123
0.029565001
0.025046569
0.023514965
0.023604045
0.023661057
0.023724559
0.023792003
0.02386338
0.023938541
0.024015424
0.024091802
0.024166318
0.024238651
0.024311616
0.024385667
0.024462365
0.024545011
0.024633111
0.024727853
0.024830959
0.02494225
0.025065267
0.02520643
0.025371438
0.025573974
0.02582385
0.026124314
0.026471213
0.026859238
0.027282757
0.02773231
0.028203217
0.028686645
0.029159883
0.029591744
0.029954547
0.030243298
0.030456533
0.030603386
0.030708362
0.0307882
0.030877506
0.030978301
0.031038013
0.031107525
0.031154024
0.031391493
0.031715684
0.031232763
0.03031763
0.028000971
0.023284257
0.023379589
0.023446957
0.023524301
0.023605245
0.023689504
0.023777653
0.023868679
0.023960367
0.024048681
0.024131604
0.02421274
0.024293527
0.0243779
0.024471327
0.024576374
0.024693288
0.024821655
0.024960167
0.025106458
0.025260704
0.025429566
0.025621853
0.025852543
0.026133831
0.026472132
0.026866051
0.027305249
0.027780989
0.028290409
0.028829611
0.02938662
0.029922816
0.030391792
0.030763439
0.031031971
0.031201166
0.031288931
0.031325383
0.031331635
0.031344202
0.031327157
0.031307588
0.031362202
0.031393388
0.031316376
0.031107534
0.030545051
0.031261506
0.023065981
0.023158629
0.023226844
0.023307868
0.023396202
0.023491286
0.02359279
0.023700153
0.023812342
0.023925982
0.024037264
0.024144941
0.024251115
0.024359794
0.024473689
0.024597342
0.024732895
0.024880189
0.025039306
0.025207802
0.025380595
0.025557785
0.025746702
0.025961063
0.026218249
0.026531745
0.026907248
0.027343897
0.027833188
0.028368666
0.028943369
0.029544057
0.03015152
0.030713002
0.031172972
0.031506134
0.031710581
0.031799485
0.031798852
0.031734536
0.031681486
0.031651181
0.031576402
0.031473356
0.031322199
0.031096954
0.030274148
0.030469458
0.032507791
0.022842981
0.022927651
0.022988749
0.023065298
0.023152732
0.023251312
0.023361265
0.023481835
0.023611517
0.023748805
0.023892986
0.024039328
0.024184426
0.024330151
0.02447758
0.024630124
0.024793086
0.024967812
0.02515132
0.025340395
0.025533362
0.02572616
0.025921476
0.026128719
0.026366534
0.026655289
0.027011115
0.02743528
0.02791544
0.028439637
0.02900514
0.029603492
0.030217055
0.030819291
0.031360362
0.031785619
0.032065495
0.032201637
0.032209532
0.032110949
0.031984112
0.03190228
0.031819465
0.031638342
0.031349763
0.030790578
0.029491012
0.028985412
0.028641443
0.022615431
0.022689793
0.022739539
0.022807495
0.022887699
0.022981215
0.02308998
0.023215658
0.023357628
0.023513042
0.023682537
0.023862161
0.024045726
0.024232472
0.024422213
0.024616329
0.024815728
0.025022177
0.025236268
0.02545703
0.025681187
0.025904296
0.026125169
0.026348004
0.026584786
0.026856669
0.027176715
0.027555186
0.02799426
0.028481211
0.028999054
0.0295479
0.030125874
0.030720771
0.031295195
0.031804734
0.032205118
0.032447108
0.032514334
0.03242444
0.032242855
0.032072608
0.031945242
0.031740145
0.031309647
0.030639133
0.029464031
0.028348908
0.028791029
0.022395021
0.022467264
0.02250882
0.02256437
0.022629156
0.022707194
0.022802133
0.022918331
0.023058611
0.023221364
0.023405027
0.023607231
0.023824133
0.024049866
0.024280565
0.024515103
0.024751515
0.024989839
0.025235003
0.025491422
0.02575776
0.026029616
0.026299201
0.026562673
0.026824317
0.027094256
0.027385687
0.027710752
0.028075786
0.028480026
0.028924573
0.029409554
0.029933749
0.030489006
0.031059613
0.031607044
0.03208751
0.032454192
0.032661321
0.032662571
0.032462167
0.032186396
0.031923909
0.031625679
0.031163337
0.030518287
0.029436635
0.027776643
0.027440618
0.022138432
0.022225837
0.022270116
0.022320777
0.022374122
0.022435702
0.022511879
0.022609633
0.022735116
0.02289163
0.023078145
0.023291249
0.023527023
0.023777147
0.024035167
0.024298596
0.024566312
0.024839879
0.025122172
0.025417062
0.025725956
0.026048007
0.026377659
0.02670103
0.027006959
0.027295233
0.027574708
0.027860844
0.028163461
0.028494475
0.02885706
0.029252846
0.029693529
0.030176541
0.030688329
0.031215149
0.031731961
0.032199291
0.032546594
0.032698315
0.032583116
0.032250801
0.031855339
0.031399712
0.030884574
0.030354871
0.02950985
0.028093562
0.026408222
0.021776617
0.021895184
0.021957951
0.022021331
0.022079927
0.022138822
0.022205597
0.022288756
0.02239704
0.022538651
0.022714909
0.022921732
0.023155072
0.02340919
0.02367825
0.023958218
0.024248947
0.024552913
0.024872858
0.025211136
0.025571077
0.025950905
0.026339098
0.026719989
0.027081628
0.027409251
0.027702569
0.02797532
0.028244286
0.028521722
0.028813011
0.029119801
0.029450628
0.029819364
0.030232615
0.030694971
0.031196921
0.031699795
0.032139139
0.032421494
0.032474586
0.032245794
0.031768001
0.031142555
0.03049355
0.03000054
0.029189751
0.028128978
0.026415764
0.021268449
0.021423743
0.021513202
0.021602056
0.021681602
0.021756364
0.021832886
0.0219183
0.022020465
0.02214836
0.022306494
0.022495029
0.022712705
0.02295671
0.023224057
0.023511913
0.023819297
0.02414755
0.024500261
0.024880501
0.025287627
0.025717783
0.026164355
0.026612091
0.027033057
0.027415463
0.027753535
0.028043696
0.028303909
0.028546464
0.028781241
0.029012287
0.029241595
0.02949444
0.029804494
0.030186968
0.030629861
0.031091561
0.031518942
0.031864358
0.03206272
0.032035816
0.031691783
0.031003913
0.030158956
0.029589759
0.028608974
0.027721185
0.027067412
0.020619503
0.020804612
0.020915498
0.021028231
0.02113295
0.021233973
0.021336247
0.021443623
0.021559428
0.021689048
0.021838246
0.022013125
0.022216345
0.022448112
0.022708527
0.022997467
0.023316552
0.02366599
0.024046264
0.024458985
0.024904111
0.025379149
0.025877388
0.026384398
0.026876317
0.027328387
0.027713735
0.028038413
0.028312818
0.028547306
0.028750953
0.028934984
0.02910588
0.029280559
0.029501026
0.029789617
0.030134612
0.030492331
0.030843981
0.031181026
0.031456952
0.031599384
0.03148326
0.030929518
0.030000069
0.029273906
0.027866439
0.027089814
0.027142937
0.019861424
0.020064366
0.02018531
0.02031335
0.020437752
0.020564262
0.020696901
0.02083735
0.020985003
0.021139469
0.021302859
0.021481782
0.021682374
0.021910404
0.022170475
0.022463638
0.02279136
0.023154643
0.023554243
0.023991461
0.024466144
0.024977393
0.025519104
0.026074971
0.026621062
0.027128713
0.027579834
0.027956563
0.028263937
0.028522068
0.028733581
0.028903388
0.029044261
0.029169552
0.029304643
0.029471844
0.029677066
0.029908021
0.030163119
0.030440522
0.030709123
0.030901524
0.03095164
0.030652212
0.029841339
0.029072167
0.027254931
0.026208717
0.026954036
0.019028298
0.019241708
0.019364182
0.019500789
0.019638576
0.019783827
0.019941092
0.020112493
0.020296617
0.020489266
0.020687433
0.020893052
0.021113102
0.021355893
0.021628707
0.021934945
0.022273966
0.022646283
0.023055153
0.023504484
0.023996999
0.02453232
0.02510359
0.025694872
0.026282433
0.026841362
0.027353772
0.027805413
0.028188075
0.028500352
0.028745858
0.028919422
0.029028788
0.02909424
0.02913851
0.029176311
0.029229513
0.029330276
0.029484551
0.029701426
0.029921973
0.030055197
0.030138497
0.030072694
0.029489364
0.029028417
0.027162635
0.026030092
0.02659765
0.018936834
0.019113328
0.019309086
0.01952427
0.019753686
0.019992471
0.020239181
0.020496737
0.020772521
0.021073952
0.021404069
0.021762381
0.022148367
0.022564979
0.02301922
0.023517903
0.024062347
0.02464561
0.025253773
0.025867335
0.026468078
0.027043121
0.027580842
0.028060189
0.028459037
0.028758992
0.028952912
0.02903998
0.029045951
0.029001811
0.028924307
0.028840004
0.02880523
0.028851919
0.028969977
0.029126757
0.029252011
0.029327409
0.02937391
0.028916253
0.028920717
0.026976604
0.02572117
0.025585752
0.019532328
0.019827911
0.020140694
0.020477196
0.020840425
0.021229826
0.021643648
0.022082762
0.022551549
0.023056094
0.023599223
0.024177781
0.024783566
0.025406506
0.026036687
0.026663712
0.027275433
0.027847336
0.028341998
0.028725986
0.028972221
0.029079672
0.029065615
0.028956345
0.028778577
0.028557247
0.028356811
0.028238004
0.028202711
0.028233569
0.028323978
0.028433029
0.028535175
0.028157143
0.028508733
0.026813719
0.025802432
0.025178518
0.020670136
0.021122618
0.021601651
0.022105119
0.022631877
0.023181283
0.023752777
0.024345122
0.024959168
0.025596216
0.026252553
0.02691651
0.027562546
0.028148528
0.028627615
0.028963562
0.029136423
0.029153674
0.029026958
0.028763445
0.028415002
0.028028961
0.027673133
0.027406506
0.027260196
0.02723522
0.027317986
0.027494267
0.027282506
0.027868633
0.026587164
0.026055204
0.02537778
0.022257885
0.022834249
0.023417643
0.024010596
0.024619313
0.025250448
0.025907043
0.026583376
0.02726172
0.027907629
0.028471272
0.028904365
0.029175347
0.029261193
0.02915704
0.028862659
0.028416918
0.027894219
0.027341812
0.026796435
0.02636137
0.026143268
0.026138931
0.026312179
0.026191292
0.027113122
0.026060255
0.026095303
0.0253783
0.025070249
0.025713104
0.026367918
0.027028114
0.027674274
0.02826892
0.0287633
0.029110692
0.029275066
0.029226043
0.028954658
0.028491928
0.027886364
0.027168046
0.026396142
0.025675268
0.025154337
0.024901059
0.024969832
0.024987073
0.025946616
0.02516655
0.025940317
0.025259355
0.027466191
0.028020238
0.028500392
0.028864642
0.029068694
0.029077062
0.028863651
0.028429185
0.027806359
0.027027926
0.026091678
0.025142739
0.024359426
0.023771467
0.023557583
0.023573066
0.024574657
0.024031522
0.025147002
0.025075062
0.028677722
0.028713834
0.028545726
0.028160541
0.027591325
0.0268368
0.02587397
0.024777771
0.023763478
0.02293456
0.022436652
0.022169251
0.023247779
0.022607885
0.024159069
0.024723246
0.02772918
0.02724857
0.026560431
0.025629473
0.024538899
0.023484843
0.022487757
0.02160494
0.020802668
0.021904657
0.021278444
0.022968434
0.02381451
0.02538404
0.024420938
0.023367311
0.02226619
0.021210408
0.020037703
0.02042393
0.020111554
0.021862916
0.022838699
0.022248846
0.021210951
0.019759937
0.019921892
0.019362838
0.020798933
0.02206975
0.020084876
0.019116041
0.020092531
0.021314108
0.020189204
0.020742976
0.031781159
)
;

boundaryField
{
    Side
    {
        type            empty;
    }
    Inlet
    {
        type            calculated;
        value           nonuniform List<scalar> 
25
(
0.022112994
0.022574827
0.022779593
0.022937085
0.023358712
0.023673739
0.023866297
0.024117387
0.024145413
0.024019153
0.023918567
0.023964603
0.023980518
0.023969861
0.024035203
0.024145867
0.024141127
0.024152099
0.024186596
0.024066388
0.023738869
0.02348022
0.023295142
0.023084028
0.022870223
)
;
    }
    Airfoil
    {
        type            calculated;
        value           nonuniform List<scalar> 0();
    }
    Outlet
    {
        type            calculated;
        value           nonuniform List<scalar> 0();
    }
    procBoundary12to4
    {
        type            processor;
        value           uniform 0.032207156;
    }
    procBoundary12to5
    {
        type            processor;
        value           nonuniform List<scalar> 
30
(
0.031271702
0.030676081
0.03002849
0.029366054
0.028725869
0.02812895
0.027589004
0.027072286
0.026557536
0.026044054
0.025536268
0.025052822
0.024629986
0.024273732
0.023976653
0.023730239
0.023496069
0.023262455
0.023045667
0.022835689
0.022618617
0.022394416
0.022130703
0.021763623
0.021250641
0.020603597
0.019857588
0.019040359
0.031857664
0.031271702
)
;
    }
    procBoundary12to6
    {
        type            processor;
        value           uniform 0.018132025;
    }
    procBoundary12to11
    {
        type            processor;
        value           nonuniform List<scalar> 
65
(
0.032203608
0.032257506
0.032324048
0.032377209
0.032067363
0.032067363
0.032131984
0.032192923
0.032247509
0.032297508
0.032342599
0.032058552
0.032058552
0.032115725
0.032167375
0.032214603
0.032255456
0.031948693
0.031948693
0.031991731
0.032025998
0.032051515
0.031667631
0.031667631
0.031677787
0.03167236
0.031653357
0.031192909
0.031192909
0.031148001
0.031093755
0.031039547
0.030536243
0.030536243
0.030492944
0.030479539
0.029977034
0.029977034
0.030011048
0.030106365
0.029635396
0.029635396
0.029859146
0.029594066
0.029594066
0.030050605
0.030529206
0.030370361
0.030370361
0.030556814
0.03049172
0.03049172
0.030609577
0.030986688
0.030986688
0.031108398
0.031108398
0.030535498
0.031185962
0.031185962
0.029911148
0.029911148
0.028368569
0.023326665
0.023326665
)
;
    }
    procBoundary12to13
    {
        type            processor;
        value           nonuniform List<scalar> 
60
(
0.018356083
0.018481366
0.018626322
0.018776174
0.018776174
0.018066163
0.018264813
0.018482557
0.018721443
0.018978259
0.019249137
0.019249137
0.01881295
0.019139948
0.019484375
0.019851171
0.020246062
0.020246062
0.020131409
0.020619959
0.021142096
0.021691191
0.021691191
0.021966895
0.022584072
0.023201015
0.023817985
0.024439705
0.024439705
0.02501808
0.025645166
0.026265135
0.026874612
0.026874612
0.027249388
0.027724721
0.028142246
0.028472578
0.028472578
0.02813122
0.028165209
0.028033343
0.028033343
0.027108564
0.026724734
0.026162326
0.026162326
0.025080023
0.024287929
0.023314869
0.023314869
0.022396063
0.021419231
0.020011909
0.020011909
0.020440591
0.019549352
0.019549352
0.020735986
0.02054656
)
;
    }
}


// ************************************************************************* //
