/*--------------------------------*- C++ -*----------------------------------*\
| =========                 |                                                 |
| \\      /  F ield         | OpenFOAM: The Open Source CFD Toolbox           |
|  \\    /   O peration     | Version:  2506                                  |
|   \\  /    A nd           | Website:  www.openfoam.com                      |
|    \\/     M anipulation  |                                                 |
\*---------------------------------------------------------------------------*/
FoamFile
{
    version     2.0;
    format      ascii;
    arch        "LSB;label=32;scalar=64";
    class       volVectorField;
    location    "1.2";
    object      wallShearStress;
}
// * * * * * * * * * * * * * * * * * * * * * * * * * * * * * * * * * * * * * //

dimensions      [1 -1 -2 0 0 0 0];

internalField   uniform (0 0 0);

boundaryField
{
    Side
    {
        type            empty;
    }
    Inlet
    {
        type            calculated;
        value           uniform (0 0 0);
    }
    Airfoil
    {
        type            calculated;
        value           nonuniform List<vector> 
33
(
(-5.9344208 1.118799 -2.2202456e-18)
(-6.9237279 0.27105414 2.7612385e-18)
(-7.2451144 0.93867116 -5.2662147e-35)
(-7.5182691 0.44980971 1.7942286e-18)
(-7.6194357 1.0265243 -1.904478e-18)
(-7.7288743 0.35959699 3.9387044e-18)
(-7.6506884 1.178267 -1.8055593e-35)
(-7.7924958 0.012983894 -1.8055593e-35)
(-7.6897282 1.2431794 1.6236898e-18)
(-7.8687913 -0.50085727 -5.5437604e-19)
(-7.7531035 1.4085492 -2.4908609e-20)
(-7.9150859 -0.86012601 -1.1699119e-18)
(-8.053048 0.55427054 1.6976066e-18)
(-7.8927472 0.13701978 5.8881154e-19)
(-7.5208489 1.1438128 -6.0896036e-19)
(-7.9224056 -1.2996519 6.5095501e-19)
(-8.0643638 0.27988896 1.2859493e-21)
(-7.709437 0.030292939 -3.2030852e-19)
(-7.6472793 -0.14545189 -3.4668946e-19)
(-7.5852509 -0.2543646 5.3450035e-19)
(-7.500538 -0.32179968 -9.5344723e-20)
(-7.4055388 -0.34309141 2.0218503e-36)
(-7.3246373 -0.49506914 3.5116361e-19)
(-7.224656 -0.48352096 -1.8027463e-19)
(-7.0628508 -0.36835971 -4.1535776e-19)
(-6.9618328 -0.96422288 -2.1859627e-19)
(-6.8743935 -0.60229174 -1.0639063e-19)
(-6.7917956 -1.1365875 9.8706793e-20)
(-6.7001861 -0.69403957 -4.6727463e-19)
(-6.4539882 -1.1436207 -4.5443044e-19)
(-6.4427171 -1.2090127 -6.5822973e-19)
(-6.260985 -1.2276146 2.1848305e-19)
(-6.2326282 -1.5388862 1.4784841e-20)
)
;
    }
    Outlet
    {
        type            calculated;
        value           nonuniform List<vector> 0();
    }
    procBoundary8to1
    {
        type            processor;
        value           uniform (0 0 0);
    }
    procBoundary8to7
    {
        type            processor;
        value           uniform (0 0 0);
    }
    procBoundary8to9
    {
        type            processor;
        value           uniform (0 0 0);
    }
}


// ************************************************************************* //
