/*--------------------------------*- C++ -*----------------------------------*\
| =========                 |                                                 |
| \\      /  F ield         | OpenFOAM: The Open Source CFD Toolbox           |
|  \\    /   O peration     | Version:  2506                                  |
|   \\  /    A nd           | Website:  www.openfoam.com                      |
|    \\/     M anipulation  |                                                 |
\*---------------------------------------------------------------------------*/
FoamFile
{
    version     2.0;
    format      ascii;
    arch        "LSB;label=32;scalar=64";
    class       volScalarField;
    location    "0.003";
    object      nut;
}
// * * * * * * * * * * * * * * * * * * * * * * * * * * * * * * * * * * * * * //

dimensions      [0 2 -1 0 0 0 0];

internalField   nonuniform List<scalar> 
13761
(
4.0067719e-06
3.7713652e-06
3.7710209e-06
3.7710202e-06
3.7710181e-06
3.7710181e-06
3.7710181e-06
3.7710181e-06
3.7710181e-06
3.7710181e-06
3.7710181e-06
3.7710181e-06
3.7710181e-06
3.7710181e-06
3.7710181e-06
3.7710181e-06
3.7710181e-06
3.7710181e-06
3.7710181e-06
3.7710181e-06
3.7710181e-06
3.7710181e-06
3.7710181e-06
3.7710181e-06
3.7710181e-06
3.7710182e-06
3.7710183e-06
3.771019e-06
3.7710217e-06
3.7710304e-06
3.7710516e-06
3.7710873e-06
3.7711162e-06
3.7710973e-06
3.7710978e-06
3.7715899e-06
3.7736631e-06
3.7794279e-06
3.7913357e-06
3.8081159e-06
3.8176304e-06
3.802075e-06
3.7739962e-06
3.7637177e-06
4.0374295e-06
3.7713957e-06
3.771021e-06
3.7710201e-06
3.7710181e-06
3.7710181e-06
3.7710181e-06
3.7710181e-06
3.7710181e-06
3.7710181e-06
3.7710181e-06
3.7710181e-06
3.7710181e-06
3.7710181e-06
3.7710181e-06
3.7710181e-06
3.7710181e-06
3.7710181e-06
3.7710181e-06
3.7710181e-06
3.7710181e-06
3.7710181e-06
3.7710181e-06
3.7710181e-06
3.7710181e-06
3.7710182e-06
3.7710183e-06
3.771019e-06
3.7710217e-06
3.7710303e-06
3.7710514e-06
3.7710873e-06
3.7711167e-06
3.7710991e-06
3.771099e-06
3.7715869e-06
3.773651e-06
3.7794073e-06
3.7913315e-06
3.8082065e-06
3.8179885e-06
3.8026738e-06
3.7744481e-06
3.7639922e-06
4.0691296e-06
3.7714306e-06
3.7710212e-06
3.7710201e-06
3.7710181e-06
3.7710181e-06
3.7710181e-06
3.7710181e-06
3.7710181e-06
3.7710181e-06
3.7710181e-06
3.7710181e-06
3.7710181e-06
3.7710181e-06
3.7710181e-06
3.7710181e-06
3.7710181e-06
3.7710181e-06
3.7710181e-06
3.7710181e-06
3.7710181e-06
3.7710181e-06
3.7710181e-06
3.7710181e-06
3.7710181e-06
3.7710182e-06
3.7710183e-06
3.771019e-06
3.7710216e-06
3.7710303e-06
3.7710515e-06
3.7710876e-06
3.7711176e-06
3.771101e-06
3.7710991e-06
3.7715812e-06
3.7736352e-06
3.7793813e-06
3.7913205e-06
3.8082883e-06
3.8183406e-06
3.8032786e-06
3.7749122e-06
3.7642593e-06
3.7794753e-06
4.1019098e-06
3.7714705e-06
3.7710213e-06
3.7710201e-06
3.7710181e-06
3.7710181e-06
3.7710181e-06
3.7710181e-06
3.7710181e-06
3.7710181e-06
3.7710181e-06
3.7710181e-06
3.7710181e-06
3.7710181e-06
3.7710181e-06
3.7710181e-06
3.7710181e-06
3.7710181e-06
3.7710181e-06
3.7710181e-06
3.7710181e-06
3.7710181e-06
3.7710181e-06
3.7710181e-06
3.7710181e-06
3.7710182e-06
3.7710183e-06
3.771019e-06
3.7710216e-06
3.7710302e-06
3.7710515e-06
3.7710879e-06
3.7711183e-06
3.7711028e-06
3.7710995e-06
3.7715757e-06
3.7736191e-06
3.7793534e-06
3.7913071e-06
3.8083661e-06
3.8186913e-06
3.8038943e-06
3.7753957e-06
3.7645216e-06
3.7796748e-06
4.1358034e-06
3.7715158e-06
3.7710215e-06
3.7710201e-06
3.7710181e-06
3.7710181e-06
3.7710181e-06
3.7710181e-06
3.7710181e-06
3.7710181e-06
3.7710181e-06
3.7710181e-06
3.7710181e-06
3.7710181e-06
3.7710181e-06
3.7710181e-06
3.7710181e-06
3.7710181e-06
3.7710181e-06
3.7710181e-06
3.7710181e-06
3.7710181e-06
3.7710181e-06
3.7710181e-06
3.7710181e-06
3.7710182e-06
3.7710183e-06
3.7710189e-06
3.7710216e-06
3.7710302e-06
3.7710514e-06
3.7710881e-06
3.7711191e-06
3.7711046e-06
3.7710999e-06
3.7715697e-06
3.7736019e-06
3.779323e-06
3.7912905e-06
3.8084389e-06
3.81904e-06
3.8045193e-06
3.7758983e-06
3.7647769e-06
3.7798711e-06
4.1708476e-06
3.7715669e-06
3.7710217e-06
3.77102e-06
3.7710181e-06
3.7710181e-06
3.7710181e-06
3.7710181e-06
3.7710181e-06
3.7710181e-06
3.7710181e-06
3.7710181e-06
3.7710181e-06
3.7710181e-06
3.7710181e-06
3.7710181e-06
3.7710181e-06
3.7710181e-06
3.7710181e-06
3.7710181e-06
3.7710181e-06
3.7710181e-06
3.7710181e-06
3.7710181e-06
3.7710181e-06
3.7710182e-06
3.7710183e-06
3.7710189e-06
3.7710216e-06
3.7710302e-06
3.7710514e-06
3.7710883e-06
3.7711199e-06
3.7711065e-06
3.7711004e-06
3.7715635e-06
3.7735839e-06
3.7792902e-06
3.7912709e-06
3.8085072e-06
3.8193867e-06
3.8051539e-06
3.7764209e-06
3.7650253e-06
3.7800651e-06
4.2070714e-06
3.7716243e-06
3.7710219e-06
3.77102e-06
3.7710181e-06
3.7710181e-06
3.7710181e-06
3.7710181e-06
3.7710181e-06
3.7710181e-06
3.7710181e-06
3.7710181e-06
3.7710181e-06
3.7710181e-06
3.7710181e-06
3.7710181e-06
3.7710181e-06
3.7710181e-06
3.7710181e-06
3.7710181e-06
3.7710181e-06
3.7710181e-06
3.7710181e-06
3.7710181e-06
3.7710181e-06
3.7710182e-06
3.7710183e-06
3.7710189e-06
3.7710215e-06
3.7710301e-06
3.7710514e-06
3.7710886e-06
3.7711206e-06
3.7711083e-06
3.7711009e-06
3.771557e-06
3.773565e-06
3.7792548e-06
3.7912484e-06
3.8085708e-06
3.8197316e-06
3.805798e-06
3.7769625e-06
3.7652676e-06
3.7802577e-06
4.2445168e-06
3.7716886e-06
3.7710221e-06
3.77102e-06
3.7710181e-06
3.7710181e-06
3.7710181e-06
3.7710181e-06
3.7710181e-06
3.7710181e-06
3.7710181e-06
3.7710181e-06
3.7710181e-06
3.7710181e-06
3.7710181e-06
3.7710181e-06
3.7710181e-06
3.7710181e-06
3.7710181e-06
3.7710181e-06
3.7710181e-06
3.7710181e-06
3.7710181e-06
3.7710181e-06
3.7710181e-06
3.7710182e-06
3.7710183e-06
3.7710189e-06
3.7710215e-06
3.77103e-06
3.7710513e-06
3.7710888e-06
3.7711215e-06
3.7711101e-06
3.7711015e-06
3.7715505e-06
3.7735451e-06
3.7792167e-06
3.791223e-06
3.8086298e-06
3.8200744e-06
3.8064515e-06
3.7775214e-06
3.7655067e-06
3.7804491e-06
3.7874935e-06
4.2832256e-06
3.7717603e-06
3.7710224e-06
3.77102e-06
3.7710181e-06
3.7710181e-06
3.7710181e-06
3.7710181e-06
3.7710181e-06
3.7710181e-06
3.7710181e-06
3.7710181e-06
3.7710181e-06
3.7710181e-06
3.7710181e-06
3.7710181e-06
3.7710181e-06
3.7710181e-06
3.7710181e-06
3.7710181e-06
3.7710181e-06
3.7710181e-06
3.7710181e-06
3.7710181e-06
3.7710181e-06
3.7710182e-06
3.7710183e-06
3.7710189e-06
3.7710215e-06
3.77103e-06
3.7710513e-06
3.771089e-06
3.7711223e-06
3.771112e-06
3.7711019e-06
3.7715439e-06
3.7735246e-06
3.7791761e-06
3.7911945e-06
3.8086842e-06
3.8204152e-06
3.8071141e-06
3.7780949e-06
3.7657464e-06
3.7806389e-06
3.7879825e-06
4.3232318e-06
3.7718402e-06
3.7710226e-06
3.7710199e-06
3.7710181e-06
3.7710181e-06
3.7710181e-06
3.7710181e-06
3.7710181e-06
3.7710181e-06
3.7710181e-06
3.7710181e-06
3.7710181e-06
3.7710181e-06
3.7710181e-06
3.7710181e-06
3.7710181e-06
3.7710181e-06
3.7710181e-06
3.7710181e-06
3.7710181e-06
3.7710181e-06
3.7710181e-06
3.7710181e-06
3.7710181e-06
3.7710182e-06
3.7710183e-06
3.7710189e-06
3.7710215e-06
3.7710299e-06
3.7710512e-06
3.7710892e-06
3.7711231e-06
3.7711137e-06
3.7711026e-06
3.7715372e-06
3.7735032e-06
3.7791331e-06
3.7911629e-06
3.8087339e-06
3.8207536e-06
3.8077856e-06
3.7786799e-06
3.7659911e-06
3.7808269e-06
3.7884697e-06
4.3645808e-06
3.7719287e-06
3.7710229e-06
3.7710199e-06
3.7710181e-06
3.7710181e-06
3.7710181e-06
3.7710181e-06
3.7710181e-06
3.7710181e-06
3.7710181e-06
3.7710181e-06
3.7710181e-06
3.7710181e-06
3.7710181e-06
3.7710181e-06
3.7710181e-06
3.7710181e-06
3.7710181e-06
3.7710181e-06
3.7710181e-06
3.7710181e-06
3.7710181e-06
3.7710181e-06
3.7710181e-06
3.7710182e-06
3.7710183e-06
3.7710189e-06
3.7710214e-06
3.7710299e-06
3.7710512e-06
3.7710894e-06
3.771124e-06
3.7711154e-06
3.7711034e-06
3.7715303e-06
3.7734811e-06
3.7790877e-06
3.7911284e-06
3.8087787e-06
3.8210894e-06
3.8084659e-06
3.7792736e-06
3.7662448e-06
3.7810128e-06
3.7889558e-06
4.4073092e-06
3.7720268e-06
3.7710232e-06
3.7710199e-06
3.7710181e-06
3.7710181e-06
3.7710181e-06
3.7710181e-06
3.7710181e-06
3.7710181e-06
3.7710181e-06
3.7710181e-06
3.7710181e-06
3.7710181e-06
3.7710181e-06
3.7710181e-06
3.7710181e-06
3.7710181e-06
3.7710181e-06
3.7710181e-06
3.7710181e-06
3.7710181e-06
3.7710181e-06
3.7710181e-06
3.7710181e-06
3.7710182e-06
3.7710183e-06
3.7710189e-06
3.7710214e-06
3.7710298e-06
3.7710511e-06
3.7710895e-06
3.7711249e-06
3.7711172e-06
3.7711042e-06
3.7715232e-06
3.7734582e-06
3.7790401e-06
3.7910911e-06
3.8088185e-06
3.8214222e-06
3.8091547e-06
3.7798747e-06
3.7665101e-06
3.7811969e-06
3.7894409e-06
3.7742993e-06
4.4514616e-06
3.772135e-06
3.7710236e-06
3.7710199e-06
3.7710181e-06
3.7710181e-06
3.7710181e-06
3.7710181e-06
3.7710181e-06
3.7710181e-06
3.7710181e-06
3.7710181e-06
3.7710181e-06
3.7710181e-06
3.7710181e-06
3.7710181e-06
3.7710181e-06
3.7710181e-06
3.7710181e-06
3.7710181e-06
3.7710181e-06
3.7710181e-06
3.7710181e-06
3.7710181e-06
3.7710181e-06
3.7710182e-06
3.7710183e-06
3.7710189e-06
3.7710214e-06
3.7710297e-06
3.771051e-06
3.7710897e-06
3.7711257e-06
3.771119e-06
3.7711051e-06
3.7715159e-06
3.7734345e-06
3.7789904e-06
3.7910511e-06
3.8088533e-06
3.8217515e-06
3.8098517e-06
3.7804834e-06
3.7667882e-06
3.7813788e-06
3.7899253e-06
3.7748742e-06
4.4970774e-06
3.7722544e-06
3.7710239e-06
3.7710198e-06
3.7710181e-06
3.7710181e-06
3.7710181e-06
3.7710181e-06
3.7710181e-06
3.7710181e-06
3.7710181e-06
3.7710181e-06
3.7710181e-06
3.7710181e-06
3.7710181e-06
3.7710181e-06
3.7710181e-06
3.7710181e-06
3.7710181e-06
3.7710181e-06
3.7710181e-06
3.7710181e-06
3.7710181e-06
3.7710181e-06
3.7710181e-06
3.7710182e-06
3.7710183e-06
3.7710189e-06
3.7710214e-06
3.7710297e-06
3.771051e-06
3.7710898e-06
3.7711266e-06
3.7711208e-06
3.7711059e-06
3.7715084e-06
3.7734101e-06
3.7789385e-06
3.791008e-06
3.8088833e-06
3.8220768e-06
3.8105566e-06
3.7811017e-06
3.7670793e-06
3.7815575e-06
3.790409e-06
3.775455e-06
4.5442106e-06
3.7723856e-06
3.7710243e-06
3.7710198e-06
3.7710181e-06
3.7710181e-06
3.7710181e-06
3.7710181e-06
3.7710181e-06
3.7710181e-06
3.7710181e-06
3.7710181e-06
3.7710181e-06
3.7710181e-06
3.7710181e-06
3.7710181e-06
3.7710181e-06
3.7710181e-06
3.7710181e-06
3.7710181e-06
3.7710181e-06
3.7710181e-06
3.7710181e-06
3.7710181e-06
3.7710181e-06
3.7710182e-06
3.7710183e-06
3.7710189e-06
3.7710213e-06
3.7710296e-06
3.7710509e-06
3.77109e-06
3.7711276e-06
3.7711227e-06
3.7711068e-06
3.7715009e-06
3.7733849e-06
3.7788844e-06
3.7909612e-06
3.8089095e-06
3.8223977e-06
3.8112691e-06
3.781732e-06
3.7673843e-06
3.7817309e-06
3.790892e-06
3.776042e-06
4.5928986e-06
3.7725297e-06
3.7710248e-06
3.7710198e-06
3.7710181e-06
3.7710181e-06
3.7710181e-06
3.7710181e-06
3.7710181e-06
3.7710181e-06
3.7710181e-06
3.7710181e-06
3.7710181e-06
3.7710181e-06
3.7710181e-06
3.7710181e-06
3.7710181e-06
3.7710181e-06
3.7710181e-06
3.7710181e-06
3.7710181e-06
3.7710181e-06
3.7710181e-06
3.7710181e-06
3.7710181e-06
3.7710182e-06
3.7710183e-06
3.7710189e-06
3.7710213e-06
3.7710295e-06
3.7710508e-06
3.7710901e-06
3.7711285e-06
3.7711245e-06
3.7711077e-06
3.7714933e-06
3.7733589e-06
3.7788283e-06
3.7909088e-06
3.808934e-06
3.822714e-06
3.8119891e-06
3.782376e-06
3.767705e-06
3.7818969e-06
3.7913737e-06
3.776636e-06
4.6431934e-06
3.7726877e-06
3.7710253e-06
3.7710198e-06
3.7710181e-06
3.7710181e-06
3.7710181e-06
3.7710181e-06
3.7710181e-06
3.7710181e-06
3.7710181e-06
3.7710181e-06
3.7710181e-06
3.7710181e-06
3.7710181e-06
3.7710181e-06
3.7710181e-06
3.7710181e-06
3.7710181e-06
3.7710181e-06
3.7710181e-06
3.7710181e-06
3.7710181e-06
3.7710181e-06
3.7710181e-06
3.7710182e-06
3.7710183e-06
3.7710188e-06
3.7710213e-06
3.7710294e-06
3.7710506e-06
3.7710902e-06
3.7711295e-06
3.7711264e-06
3.7711086e-06
3.7714856e-06
3.7733322e-06
3.7787701e-06
3.7908474e-06
3.8089603e-06
3.8230249e-06
3.8127162e-06
3.7830346e-06
3.7680425e-06
3.7820543e-06
3.7918536e-06
3.7772379e-06
3.7750257e-06
4.6951382e-06
3.7728607e-06
3.7710258e-06
3.7710197e-06
3.7710181e-06
3.7710181e-06
3.7710181e-06
3.7710181e-06
3.7710181e-06
3.7710181e-06
3.7710181e-06
3.7710181e-06
3.7710181e-06
3.7710181e-06
3.7710181e-06
3.7710181e-06
3.7710181e-06
3.7710181e-06
3.7710181e-06
3.7710181e-06
3.7710181e-06
3.7710181e-06
3.7710181e-06
3.7710181e-06
3.7710181e-06
3.7710182e-06
3.7710183e-06
3.7710188e-06
3.7710212e-06
3.7710293e-06
3.7710505e-06
3.7710903e-06
3.7711305e-06
3.7711282e-06
3.7711095e-06
3.7714779e-06
3.7733047e-06
3.77871e-06
3.7907735e-06
3.808992e-06
3.8233297e-06
3.8134502e-06
3.7837086e-06
3.7683975e-06
3.7822028e-06
3.7923305e-06
3.777849e-06
3.7754327e-06
4.7487821e-06
3.7730497e-06
3.7710265e-06
3.7710197e-06
3.7710181e-06
3.7710181e-06
3.7710181e-06
3.7710181e-06
3.7710181e-06
3.7710181e-06
3.7710181e-06
3.7710181e-06
3.7710181e-06
3.7710181e-06
3.7710181e-06
3.7710181e-06
3.7710181e-06
3.7710181e-06
3.7710181e-06
3.7710181e-06
3.7710181e-06
3.7710181e-06
3.7710181e-06
3.7710181e-06
3.7710181e-06
3.7710182e-06
3.7710183e-06
3.7710188e-06
3.7710212e-06
3.7710292e-06
3.7710504e-06
3.7710904e-06
3.7711315e-06
3.77113e-06
3.7711106e-06
3.7714701e-06
3.7732764e-06
3.7786479e-06
3.7906858e-06
3.8090313e-06
3.8236277e-06
3.8141909e-06
3.7843987e-06
3.7687705e-06
3.7823419e-06
3.7928034e-06
3.7784708e-06
3.7758472e-06
4.8041824e-06
3.7732562e-06
3.7710272e-06
3.7710197e-06
3.7710181e-06
3.7710181e-06
3.7710181e-06
3.7710181e-06
3.7710181e-06
3.7710181e-06
3.7710181e-06
3.7710181e-06
3.7710181e-06
3.7710181e-06
3.7710181e-06
3.7710181e-06
3.7710181e-06
3.7710181e-06
3.7710181e-06
3.7710181e-06
3.7710181e-06
3.7710181e-06
3.7710181e-06
3.7710181e-06
3.7710181e-06
3.7710182e-06
3.7710183e-06
3.7710188e-06
3.7710211e-06
3.7710291e-06
3.7710503e-06
3.7710904e-06
3.7711326e-06
3.7711318e-06
3.7711117e-06
3.7714623e-06
3.7732473e-06
3.7785838e-06
3.7905862e-06
3.8090768e-06
3.8239181e-06
3.8149377e-06
3.7851059e-06
3.7691614e-06
3.7824718e-06
3.7932708e-06
3.7791047e-06
3.7762693e-06
4.8613784e-06
3.7734813e-06
3.7710279e-06
3.7710197e-06
3.7710181e-06
3.7710181e-06
3.7710181e-06
3.7710181e-06
3.7710181e-06
3.7710181e-06
3.7710181e-06
3.7710181e-06
3.7710181e-06
3.7710181e-06
3.7710181e-06
3.7710181e-06
3.7710181e-06
3.7710181e-06
3.7710181e-06
3.7710181e-06
3.7710181e-06
3.7710181e-06
3.7710181e-06
3.7710181e-06
3.7710181e-06
3.7710182e-06
3.7710183e-06
3.7710188e-06
3.7710211e-06
3.771029e-06
3.7710501e-06
3.7710905e-06
3.7711336e-06
3.7711337e-06
3.7711129e-06
3.7714545e-06
3.7732178e-06
3.7785174e-06
3.7904795e-06
3.8091244e-06
3.8242002e-06
3.8156901e-06
3.7858311e-06
3.7695694e-06
3.7825929e-06
3.7937324e-06
3.7797517e-06
3.7766988e-06
3.7867695e-06
4.920433e-06
3.7737264e-06
3.7710288e-06
3.7710197e-06
3.7710181e-06
3.7710181e-06
3.7710181e-06
3.7710181e-06
3.7710181e-06
3.7710181e-06
3.7710181e-06
3.7710181e-06
3.7710181e-06
3.7710181e-06
3.7710181e-06
3.7710181e-06
3.7710181e-06
3.7710181e-06
3.7710181e-06
3.7710181e-06
3.7710181e-06
3.7710181e-06
3.7710181e-06
3.7710181e-06
3.7710181e-06
3.7710182e-06
3.7710183e-06
3.7710188e-06
3.7710211e-06
3.7710289e-06
3.77105e-06
3.7710905e-06
3.7711346e-06
3.7711355e-06
3.7711141e-06
3.7714468e-06
3.7731879e-06
3.7784489e-06
3.7903687e-06
3.8091711e-06
3.8244737e-06
3.816447e-06
3.786576e-06
3.7699936e-06
3.7827056e-06
3.7941889e-06
3.780412e-06
3.777136e-06
3.7872714e-06
4.981395e-06
3.7739932e-06
3.7710298e-06
3.7710196e-06
3.7710181e-06
3.7710181e-06
3.7710181e-06
3.7710181e-06
3.7710181e-06
3.7710181e-06
3.7710181e-06
3.7710181e-06
3.7710181e-06
3.7710181e-06
3.7710181e-06
3.7710181e-06
3.7710181e-06
3.7710181e-06
3.7710181e-06
3.7710181e-06
3.7710181e-06
3.7710181e-06
3.7710181e-06
3.7710181e-06
3.7710181e-06
3.7710182e-06
3.7710183e-06
3.7710188e-06
3.771021e-06
3.7710288e-06
3.7710498e-06
3.7710905e-06
3.7711356e-06
3.7711374e-06
3.7711153e-06
3.7714392e-06
3.7731575e-06
3.7783782e-06
3.7902552e-06
3.8092151e-06
3.8247384e-06
3.8172071e-06
3.7873417e-06
3.7704326e-06
3.7828105e-06
3.7946418e-06
3.7810853e-06
3.7775817e-06
3.7877659e-06
5.0443137e-06
3.7742831e-06
3.7710309e-06
3.7710196e-06
3.7710181e-06
3.7710181e-06
3.7710181e-06
3.7710181e-06
3.7710181e-06
3.7710181e-06
3.7710181e-06
3.7710181e-06
3.7710181e-06
3.7710181e-06
3.7710181e-06
3.7710181e-06
3.7710181e-06
3.7710181e-06
3.7710181e-06
3.7710181e-06
3.7710181e-06
3.7710181e-06
3.7710181e-06
3.7710181e-06
3.7710181e-06
3.7710182e-06
3.7710183e-06
3.7710188e-06
3.771021e-06
3.7710287e-06
3.7710496e-06
3.7710905e-06
3.7711366e-06
3.7711393e-06
3.7711166e-06
3.7714317e-06
3.7731265e-06
3.7783054e-06
3.790139e-06
3.8092554e-06
3.8249953e-06
3.8179702e-06
3.788128e-06
3.7708848e-06
3.7829084e-06
3.795093e-06
3.7817709e-06
3.7780364e-06
3.7882547e-06
3.7780374e-06
5.1092536e-06
3.7745977e-06
3.7710321e-06
3.7710196e-06
3.7710181e-06
3.7710181e-06
3.7710181e-06
3.7710181e-06
3.7710181e-06
3.7710181e-06
3.7710181e-06
3.7710181e-06
3.7710181e-06
3.7710181e-06
3.7710181e-06
3.7710181e-06
3.7710181e-06
3.7710181e-06
3.7710181e-06
3.7710181e-06
3.7710181e-06
3.7710181e-06
3.7710181e-06
3.7710181e-06
3.7710181e-06
3.7710182e-06
3.7710183e-06
3.7710188e-06
3.7710209e-06
3.7710286e-06
3.7710494e-06
3.7710905e-06
3.7711376e-06
3.7711413e-06
3.7711178e-06
3.7714242e-06
3.7730951e-06
3.7782305e-06
3.7900199e-06
3.8092901e-06
3.8252462e-06
3.8187377e-06
3.7889332e-06
3.7713485e-06
3.7830011e-06
3.7955439e-06
3.7824683e-06
3.778501e-06
3.7887393e-06
3.7788788e-06
5.1762636e-06
3.774939e-06
3.7710335e-06
3.7710196e-06
3.7710182e-06
3.7710181e-06
3.7710181e-06
3.7710181e-06
3.7710181e-06
3.7710181e-06
3.7710181e-06
3.7710181e-06
3.7710181e-06
3.7710181e-06
3.7710181e-06
3.7710181e-06
3.7710181e-06
3.7710181e-06
3.7710181e-06
3.7710181e-06
3.7710181e-06
3.7710181e-06
3.7710181e-06
3.7710181e-06
3.7710181e-06
3.7710182e-06
3.7710183e-06
3.7710188e-06
3.7710209e-06
3.7710285e-06
3.7710492e-06
3.7710905e-06
3.7711386e-06
3.7711434e-06
3.771119e-06
3.7714168e-06
3.7730631e-06
3.7781534e-06
3.7898978e-06
3.8093153e-06
3.8254957e-06
3.8195098e-06
3.7897566e-06
3.7718223e-06
3.7830904e-06
3.7959962e-06
3.7831761e-06
3.7789758e-06
3.7892206e-06
3.7797271e-06
5.2454073e-06
3.7753086e-06
3.7710351e-06
3.7710196e-06
3.7710182e-06
3.7710181e-06
3.7710181e-06
3.7710181e-06
3.7710181e-06
3.7710181e-06
3.7710181e-06
3.7710181e-06
3.7710181e-06
3.7710181e-06
3.7710181e-06
3.7710181e-06
3.7710181e-06
3.7710181e-06
3.7710181e-06
3.7710181e-06
3.7710181e-06
3.7710181e-06
3.7710181e-06
3.7710181e-06
3.7710181e-06
3.7710182e-06
3.7710183e-06
3.7710187e-06
3.7710209e-06
3.7710284e-06
3.771049e-06
3.7710904e-06
3.7711395e-06
3.7711457e-06
3.7711202e-06
3.7714094e-06
3.7730307e-06
3.778074e-06
3.7897725e-06
3.8093258e-06
3.8257498e-06
3.8202855e-06
3.7905985e-06
3.7723051e-06
3.7831787e-06
3.7964513e-06
3.783893e-06
3.7794611e-06
3.7896989e-06
3.7805829e-06
5.3167344e-06
3.7757086e-06
3.7710368e-06
3.7710196e-06
3.7710182e-06
3.7710181e-06
3.7710181e-06
3.7710181e-06
3.7710181e-06
3.7710181e-06
3.7710181e-06
3.7710181e-06
3.7710181e-06
3.7710181e-06
3.7710181e-06
3.7710181e-06
3.7710181e-06
3.7710181e-06
3.7710181e-06
3.7710181e-06
3.7710181e-06
3.7710181e-06
3.7710181e-06
3.7710181e-06
3.7710181e-06
3.7710182e-06
3.7710183e-06
3.7710187e-06
3.7710208e-06
3.7710283e-06
3.7710488e-06
3.7710903e-06
3.7711403e-06
3.771148e-06
3.7711214e-06
3.7714021e-06
3.7729978e-06
3.7779923e-06
3.7896434e-06
3.8093166e-06
3.8260133e-06
3.8210645e-06
3.7914601e-06
3.7727978e-06
3.7832678e-06
3.7969084e-06
3.7846191e-06
3.7799574e-06
3.7901733e-06
3.7814472e-06
3.7688316e-06
5.3903106e-06
3.7761413e-06
3.7710388e-06
3.7710195e-06
3.7710182e-06
3.7710181e-06
3.7710181e-06
3.7710181e-06
3.7710181e-06
3.7710181e-06
3.7710181e-06
3.7710181e-06
3.7710181e-06
3.7710181e-06
3.7710181e-06
3.7710181e-06
3.7710181e-06
3.7710181e-06
3.7710181e-06
3.7710181e-06
3.7710181e-06
3.7710181e-06
3.7710181e-06
3.7710181e-06
3.7710181e-06
3.7710182e-06
3.7710183e-06
3.7710187e-06
3.7710208e-06
3.7710281e-06
3.7710485e-06
3.7710902e-06
3.7711412e-06
3.7711504e-06
3.7711226e-06
3.7713948e-06
3.7729643e-06
3.7779082e-06
3.7895096e-06
3.8092852e-06
3.8262878e-06
3.8218446e-06
3.7923443e-06
3.7733021e-06
3.7833588e-06
3.7973656e-06
3.7853544e-06
3.780465e-06
3.7906429e-06
3.782321e-06
3.7695924e-06
5.466194e-06
3.7766091e-06
3.771041e-06
3.7710195e-06
3.7710182e-06
3.7710181e-06
3.7710181e-06
3.7710181e-06
3.7710181e-06
3.7710181e-06
3.7710181e-06
3.7710181e-06
3.7710181e-06
3.7710181e-06
3.7710181e-06
3.7710181e-06
3.7710181e-06
3.7710181e-06
3.7710181e-06
3.7710181e-06
3.7710181e-06
3.7710181e-06
3.7710181e-06
3.7710181e-06
3.7710181e-06
3.7710182e-06
3.7710183e-06
3.7710187e-06
3.7710207e-06
3.771028e-06
3.7710483e-06
3.7710901e-06
3.771142e-06
3.7711529e-06
3.7711238e-06
3.7713876e-06
3.7729302e-06
3.7778216e-06
3.7893706e-06
3.80923e-06
3.8265762e-06
3.8226242e-06
3.7932522e-06
3.7738195e-06
3.7834539e-06
3.7978212e-06
3.7860981e-06
3.7809841e-06
3.7911082e-06
3.7832038e-06
3.7703704e-06
5.5444445e-06
3.7771144e-06
3.7710435e-06
3.7710195e-06
3.7710182e-06
3.7710181e-06
3.7710181e-06
3.7710181e-06
3.7710181e-06
3.7710181e-06
3.7710181e-06
3.7710181e-06
3.7710181e-06
3.7710181e-06
3.7710181e-06
3.7710181e-06
3.7710181e-06
3.7710181e-06
3.7710181e-06
3.7710181e-06
3.7710181e-06
3.7710181e-06
3.7710181e-06
3.7710181e-06
3.7710181e-06
3.7710182e-06
3.7710183e-06
3.7710187e-06
3.7710207e-06
3.7710279e-06
3.771048e-06
3.77109e-06
3.7711427e-06
3.7711555e-06
3.7711251e-06
3.7713803e-06
3.7728955e-06
3.7777326e-06
3.7892261e-06
3.8091504e-06
3.8268801e-06
3.823401e-06
3.7941847e-06
3.7743515e-06
3.7835554e-06
3.7982728e-06
3.7868495e-06
3.7815144e-06
3.7915703e-06
3.7840944e-06
3.7711665e-06
3.770142e-06
5.6251258e-06
3.7776598e-06
3.7710462e-06
3.7710195e-06
3.7710182e-06
3.7710181e-06
3.7710181e-06
3.7710181e-06
3.7710181e-06
3.7710181e-06
3.7710181e-06
3.7710181e-06
3.7710181e-06
3.7710181e-06
3.7710181e-06
3.7710181e-06
3.7710181e-06
3.7710181e-06
3.7710181e-06
3.7710181e-06
3.7710181e-06
3.7710181e-06
3.7710181e-06
3.7710181e-06
3.7710181e-06
3.7710182e-06
3.7710182e-06
3.7710187e-06
3.7710206e-06
3.7710277e-06
3.7710478e-06
3.7710898e-06
3.7711434e-06
3.7711581e-06
3.7711265e-06
3.771373e-06
3.7728603e-06
3.7776414e-06
3.7890756e-06
3.8090476e-06
3.8271997e-06
3.8241737e-06
3.7951431e-06
3.7748997e-06
3.7836655e-06
3.7987176e-06
3.7876081e-06
3.7820559e-06
3.7920306e-06
3.7849916e-06
3.7719815e-06
3.7708034e-06
5.7082959e-06
3.7782482e-06
3.7710493e-06
3.7710195e-06
3.7710182e-06
3.7710181e-06
3.7710181e-06
3.7710181e-06
3.7710181e-06
3.7710181e-06
3.7710181e-06
3.7710181e-06
3.7710181e-06
3.7710181e-06
3.7710181e-06
3.7710181e-06
3.7710181e-06
3.7710181e-06
3.7710181e-06
3.7710181e-06
3.7710181e-06
3.7710181e-06
3.7710181e-06
3.7710181e-06
3.7710181e-06
3.7710182e-06
3.7710182e-06
3.7710187e-06
3.7710206e-06
3.7710276e-06
3.7710475e-06
3.7710896e-06
3.7711441e-06
3.7711608e-06
3.7711279e-06
3.7713657e-06
3.7728247e-06
3.777548e-06
3.7889185e-06
3.808924e-06
3.8275324e-06
3.8249419e-06
3.796128e-06
3.7754653e-06
3.7837862e-06
3.7991532e-06
3.788373e-06
3.7826085e-06
3.7924907e-06
3.7858943e-06
3.772816e-06
3.7714715e-06
5.7940223e-06
3.7788824e-06
3.7710528e-06
3.7710195e-06
3.7710182e-06
3.7710181e-06
3.7710181e-06
3.7710181e-06
3.7710181e-06
3.7710181e-06
3.7710181e-06
3.7710181e-06
3.7710181e-06
3.7710181e-06
3.7710181e-06
3.7710181e-06
3.7710181e-06
3.7710181e-06
3.7710181e-06
3.7710181e-06
3.7710181e-06
3.7710181e-06
3.7710181e-06
3.7710181e-06
3.7710181e-06
3.7710182e-06
3.7710182e-06
3.7710187e-06
3.7710205e-06
3.7710275e-06
3.7710472e-06
3.7710894e-06
3.7711448e-06
3.7711636e-06
3.7711295e-06
3.7713584e-06
3.7727886e-06
3.7774524e-06
3.7887545e-06
3.8087831e-06
3.8278731e-06
3.8257065e-06
3.79714e-06
3.7760494e-06
3.7839183e-06
3.7995777e-06
3.7891439e-06
3.7831722e-06
3.7929517e-06
3.7868017e-06
3.7736704e-06
3.7721474e-06
5.8823651e-06
3.7795656e-06
3.7710566e-06
3.7710195e-06
3.7710182e-06
3.7710181e-06
3.7710181e-06
3.7710181e-06
3.7710181e-06
3.7710181e-06
3.7710181e-06
3.7710181e-06
3.7710181e-06
3.7710181e-06
3.7710181e-06
3.7710181e-06
3.7710181e-06
3.7710181e-06
3.7710181e-06
3.7710181e-06
3.7710181e-06
3.7710181e-06
3.7710181e-06
3.7710181e-06
3.7710181e-06
3.7710182e-06
3.7710182e-06
3.7710186e-06
3.7710205e-06
3.7710273e-06
3.7710469e-06
3.7710891e-06
3.7711454e-06
3.7711664e-06
3.7711311e-06
3.7713511e-06
3.7727522e-06
3.7773548e-06
3.7885831e-06
3.8086285e-06
3.8282144e-06
3.8264702e-06
3.7981794e-06
3.7766531e-06
3.7840623e-06
3.7999897e-06
3.7899208e-06
3.7837473e-06
3.7934145e-06
3.7877135e-06
3.7745449e-06
3.7728323e-06
3.7634318e-06
5.9733867e-06
3.7803012e-06
3.771061e-06
3.7710195e-06
3.7710182e-06
3.7710181e-06
3.7710181e-06
3.7710181e-06
3.7710181e-06
3.7710181e-06
3.7710181e-06
3.7710181e-06
3.7710181e-06
3.7710181e-06
3.7710181e-06
3.7710181e-06
3.7710181e-06
3.7710181e-06
3.7710181e-06
3.7710181e-06
3.7710181e-06
3.7710181e-06
3.7710181e-06
3.7710181e-06
3.7710182e-06
3.7710182e-06
3.7710182e-06
3.7710186e-06
3.7710204e-06
3.7710272e-06
3.7710466e-06
3.7710888e-06
3.771146e-06
3.7711693e-06
3.7711328e-06
3.7713438e-06
3.7727154e-06
3.7772551e-06
3.788404e-06
3.8084627e-06
3.8285482e-06
3.8272369e-06
3.799246e-06
3.7772776e-06
3.7842174e-06
3.8003886e-06
3.7907043e-06
3.7843343e-06
3.7938795e-06
3.7886294e-06
3.7754396e-06
3.7735278e-06
3.7644089e-06
6.0671547e-06
3.7810926e-06
3.7710658e-06
3.7710195e-06
3.7710182e-06
3.7710181e-06
3.7710181e-06
3.7710181e-06
3.7710181e-06
3.7710181e-06
3.7710181e-06
3.7710181e-06
3.7710181e-06
3.7710181e-06
3.7710181e-06
3.7710181e-06
3.7710181e-06
3.7710181e-06
3.7710181e-06
3.7710181e-06
3.7710181e-06
3.7710181e-06
3.7710181e-06
3.7710181e-06
3.7710182e-06
3.7710182e-06
3.7710182e-06
3.7710186e-06
3.7710204e-06
3.771027e-06
3.7710462e-06
3.7710885e-06
3.7711466e-06
3.7711721e-06
3.7711347e-06
3.7713365e-06
3.7726782e-06
3.7771534e-06
3.7882169e-06
3.808287e-06
3.8288664e-06
3.8280113e-06
3.8003391e-06
3.7779242e-06
3.7843828e-06
3.8007739e-06
3.7914952e-06
3.7849339e-06
3.7943471e-06
3.7895493e-06
3.7763545e-06
3.7742352e-06
3.7653933e-06
6.1637346e-06
3.7819436e-06
3.7710712e-06
3.7710195e-06
3.7710182e-06
3.7710181e-06
3.7710181e-06
3.7710181e-06
3.7710181e-06
3.7710181e-06
3.7710181e-06
3.7710181e-06
3.7710181e-06
3.7710181e-06
3.7710181e-06
3.7710181e-06
3.7710181e-06
3.7710181e-06
3.7710181e-06
3.7710181e-06
3.7710181e-06
3.7710181e-06
3.7710181e-06
3.7710181e-06
3.7710182e-06
3.7710182e-06
3.7710182e-06
3.7710186e-06
3.7710203e-06
3.7710268e-06
3.7710459e-06
3.7710881e-06
3.7711471e-06
3.771175e-06
3.7711367e-06
3.7713291e-06
3.7726409e-06
3.7770495e-06
3.7880218e-06
3.8081015e-06
3.829162e-06
3.8287987e-06
3.8014574e-06
3.7785944e-06
3.7845576e-06
3.8011456e-06
3.792295e-06
3.7855466e-06
3.7948178e-06
3.790473e-06
3.7772893e-06
3.7749559e-06
3.7663848e-06
3.748672e-06
6.2631845e-06
3.7828581e-06
3.7710772e-06
3.7710196e-06
3.7710182e-06
3.7710181e-06
3.7710181e-06
3.7710181e-06
3.7710181e-06
3.7710181e-06
3.7710181e-06
3.7710181e-06
3.7710181e-06
3.7710181e-06
3.7710181e-06
3.7710181e-06
3.7710181e-06
3.7710181e-06
3.7710181e-06
3.7710181e-06
3.7710181e-06
3.7710181e-06
3.7710181e-06
3.7710181e-06
3.7710182e-06
3.7710182e-06
3.7710182e-06
3.7710186e-06
3.7710203e-06
3.7710267e-06
3.7710455e-06
3.7710877e-06
3.7711476e-06
3.7711779e-06
3.7711389e-06
3.7713218e-06
3.7726033e-06
3.7769436e-06
3.7878188e-06
3.8079055e-06
3.8294287e-06
3.829605e-06
3.8025991e-06
3.7792898e-06
3.7847412e-06
3.8015037e-06
3.7931051e-06
3.7861729e-06
3.7952922e-06
3.7914003e-06
3.7782438e-06
3.775691e-06
3.7673831e-06
3.7497798e-06
6.3655765e-06
3.7838403e-06
3.771084e-06
3.7710196e-06
3.7710182e-06
3.7710181e-06
3.7710181e-06
3.7710181e-06
3.7710181e-06
3.7710181e-06
3.7710181e-06
3.7710181e-06
3.7710181e-06
3.7710181e-06
3.7710181e-06
3.7710181e-06
3.7710181e-06
3.7710181e-06
3.7710181e-06
3.7710181e-06
3.7710181e-06
3.7710181e-06
3.7710181e-06
3.7710181e-06
3.7710182e-06
3.7710182e-06
3.7710182e-06
3.7710186e-06
3.7710202e-06
3.7710265e-06
3.7710452e-06
3.7710872e-06
3.7711481e-06
3.7711807e-06
3.7711413e-06
3.7713145e-06
3.7725655e-06
3.7768356e-06
3.7876079e-06
3.8076977e-06
3.8296619e-06
3.8304365e-06
3.8037613e-06
3.7800124e-06
3.784934e-06
3.801848e-06
3.7939269e-06
3.786813e-06
3.7957711e-06
3.7923309e-06
3.7792179e-06
3.7764413e-06
3.768388e-06
3.7509126e-06
6.4709681e-06
3.7848947e-06
3.7710915e-06
3.7710196e-06
3.7710182e-06
3.7710181e-06
3.7710181e-06
3.7710181e-06
3.7710181e-06
3.7710181e-06
3.7710181e-06
3.7710181e-06
3.7710181e-06
3.7710181e-06
3.7710181e-06
3.7710181e-06
3.7710181e-06
3.7710181e-06
3.7710181e-06
3.7710181e-06
3.7710181e-06
3.7710181e-06
3.7710181e-06
3.7710181e-06
3.7710182e-06
3.7710182e-06
3.7710182e-06
3.7710186e-06
3.7710202e-06
3.7710263e-06
3.7710448e-06
3.7710867e-06
3.7711485e-06
3.7711835e-06
3.771144e-06
3.7713073e-06
3.7725275e-06
3.7767255e-06
3.7873895e-06
3.8074768e-06
3.8298583e-06
3.8312987e-06
3.8049412e-06
3.7807641e-06
3.7851367e-06
3.8021783e-06
3.7947614e-06
3.7874672e-06
3.7962553e-06
3.7932645e-06
3.780211e-06
3.7772073e-06
3.7693997e-06
3.752071e-06
3.7325427e-06
6.5794313e-06
3.7860258e-06
3.7710998e-06
3.7710196e-06
3.7710182e-06
3.7710181e-06
3.7710181e-06
3.7710181e-06
3.7710181e-06
3.7710181e-06
3.7710181e-06
3.7710181e-06
3.7710181e-06
3.7710181e-06
3.7710181e-06
3.7710181e-06
3.7710181e-06
3.7710181e-06
3.7710181e-06
3.7710181e-06
3.7710181e-06
3.7710181e-06
3.7710181e-06
3.7710181e-06
3.7710182e-06
3.7710182e-06
3.7710182e-06
3.7710186e-06
3.7710201e-06
3.7710262e-06
3.7710444e-06
3.7710862e-06
3.7711488e-06
3.7711862e-06
3.7711469e-06
3.7713e-06
3.7724894e-06
3.7766134e-06
3.7871639e-06
3.8072413e-06
3.8300169e-06
3.832196e-06
3.8061353e-06
3.7815467e-06
3.7853508e-06
3.8024942e-06
3.7956088e-06
3.7881359e-06
3.7967456e-06
3.7942012e-06
3.7812229e-06
3.7779894e-06
3.7704181e-06
3.7532549e-06
3.7336738e-06
6.6910243e-06
3.7872385e-06
3.7711091e-06
3.7710197e-06
3.7710182e-06
3.7710181e-06
3.7710181e-06
3.7710181e-06
3.7710181e-06
3.7710181e-06
3.7710181e-06
3.7710181e-06
3.7710181e-06
3.7710181e-06
3.7710181e-06
3.7710181e-06
3.7710181e-06
3.7710181e-06
3.7710181e-06
3.7710181e-06
3.7710181e-06
3.7710181e-06
3.7710181e-06
3.7710181e-06