/*--------------------------------*- C++ -*----------------------------------*\
| =========                 |                                                 |
| \\      /  F ield         | OpenFOAM: The Open Source CFD Toolbox           |
|  \\    /   O peration     | Version:  2506                                  |
|   \\  /    A nd           | Website:  www.openfoam.com                      |
|    \\/     M anipulation  |                                                 |
\*---------------------------------------------------------------------------*/
FoamFile
{
    version     2.0;
    format      ascii;
    arch        "LSB;label=32;scalar=64";
    class       surfaceScalarField;
    location    "0.00024";
    object      phi;
}
// * * * * * * * * * * * * * * * * * * * * * * * * * * * * * * * * * * * * * //

dimensions      [1 0 -1 0 0 0 0];

oriented        oriented;

internalField   nonuniform List<scalar> 
6690
(
-0.079985519
-0.00021863373
-0.093445794
-0.00030049622
-0.095485879
-0.00033099539
-0.00036094164
-0.079756254
-0.0002188826
-0.093693182
-0.00030077496
-0.095911468
-0.00033131817
-0.096481011
-0.00036125919
-0.096266085
-0.00039412454
-0.00042887669
-0.079792631
-0.00022005292
-0.093328366
-0.0003022125
-0.095350892
-0.00033274785
-0.095727251
-0.00036258874
-0.095371424
-0.00039483788
-0.094632318
-0.00042925254
-0.09365286
-0.00046562949
-0.00050464104
-0.079138236
-0.00021989205
-0.092855229
-0.00030210995
-0.09494582
-0.00033280391
-0.095329654
-0.00036282954
-0.094936664
-0.00039554418
-0.094098284
-0.00043019783
-0.093121033
-0.0004666481
-0.091885561
-0.00050565194
-0.09040559
-0.00054783003
-0.088646144
-0.00059339948
-0.08659764
-0.0006436587
-0.084190805
-0.00069849761
-0.081457545
-0.00075818829
-0.00082325659
-0.078979278
-0.00022009799
-0.092639052
-0.00030247306
-0.094719987
-0.00033318779
-0.095107044
-0.00036320644
-0.094729553
-0.00039582736
-0.093933744
-0.00043050425
-0.093028852
-0.00046695739
-0.091886593
-0.0005059604
-0.09050484
-0.00054815218
-0.088821051
-0.0005937565
-0.086817605
-0.00064406429
-0.084425356
-0.00069894336
-0.081704342
-0.00075866603
-0.00082372834
-0.078099993
-0.00022039409
-0.091692237
-0.00030321663
-0.093723172
-0.0003339907
-0.094063218
-0.00036402611
-0.09362451
-0.00039666677
-0.092807022
-0.00043125303
-0.091923797
-0.00046772629
-0.090798775
-0.00050680485
-0.089402244
-0.00054908657
-0.087672576
-0.00059479621
-0.085648994
-0.00064521773
-0.083286266
-0.00070021531
-0.080646904
-0.00076001033
-0.077703792
-0.00082512637
-0.00089660717
-0.077255296
-0.00022075794
-0.090702649
-0.00030375111
-0.092715413
-0.00033453659
-0.093043083
-0.00036454414
-0.092633597
-0.00039711922
-0.091832075
-0.00043164229
-0.090925733
-0.00046810885
-0.089827694
-0.00050726066
-0.088537702
-0.000549603
-0.08693426
-0.00059538543
-0.084979695
-0.0006458949
-0.082682686
-0.00070099179
-0.080128963
-0.00076081618
-0.077175434
-0.00082601717
-0.073328988
-0.00089768115
-0.00097661989
-0.076765911
-0.00022155007
-0.08968194
-0.00030450539
-0.091646971
-0.00033524365
-0.091970604
-0.00036523839
-0.091578772
-0.00039759472
-0.090960005
-0.00043201574
-0.090160121
-0.00046851898
-0.089184406
-0.00050775713
-0.087964622
-0.0005502365
-0.086378466
-0.00059617754
-0.084397401
-0.00064684454
-0.082073418
-0.00070209353
-0.079526122
-0.00076203676
-0.076454359
-0.00082739605
-0.072533921
-0.0008991912
-0.067781595
-0.00097809537
-0.062248057
-0.0010651193
-0.056017282
-0.0011606584
-0.049124783
-0.0012650371
-0.041190144
-0.0013799662
-0.031637063
-0.0015079238
-0.0016499316
-0.076896754
-0.00022241899
-0.089745494
-0.00030550315
-0.091634657
-0.00033620995
-0.091858911
-0.00036603206
-0.091363991
-0.00039814001
-0.09065548
-0.00043243344
-0.089746486
-0.00046892635
-0.088642356
-0.00050826558
-0.087261225
-0.00055088849
-0.085548652
-0.00059701581
-0.083528873
-0.00064786478
-0.081212217
-0.00070327774
-0.078656225
-0.00076339286
-0.075684441
-0.00082889675
-0.072049429
-0.00090071714
-0.067624918
-0.0009795859
-0.062369226
-0.0010665654
-0.056394322
-0.0011620353
-0.049691395
-0.0012663327
-0.041766947
-0.0013812854
-0.032007644
-0.0015094516
-0.0016519726
-0.076571593
-0.00022298344
-0.089618361
-0.00030666815
-0.091460338
-0.00033738923
-0.091588511
-0.00036686683
-0.090985888
-0.00039870351
-0.090222058
-0.00043286952
-0.089173912
-0.00046931666
-0.087910806
-0.00050864821
-0.086423606
-0.00055125102
-0.084646546
-0.00059739042
-0.082551397
-0.00064832116
-0.080210937
-0.0007038422
-0.077689364
-0.00076400963
-0.074828275
-0.0008295452
-0.071367418
-0.00090148807
-0.067130152
-0.00098056779
-0.062103687
-0.0010677059
-0.056402411
-0.0011632005
-0.049946611
-0.0012674271
-0.042167231
-0.0013822707
-0.032404262
-0.001510372
-0.02042496
-0.0016529216
-0.00731137
-0.0018118058
0.0049131978
-0.0019856255
-0.0021722365
-0.075552886
-0.0002235445
-0.0888819
-0.00030789756
-0.090585393
-0.00033866673
-0.090516455
-0.0003678296
-0.089853115
-0.00039935019
-0.088951637
-0.0004333852
-0.088004097
-0.0004697891
-0.087066128
-0.00050910188
-0.086029835
-0.00055167338
-0.084549127
-0.00059782334
-0.082628476
-0.00064881241
-0.080433452
-0.00070440681
-0.078126151
-0.00076462457
-0.075340232
-0.00083022594
-0.071654819
-0.00090232205
-0.067125006
-0.00098161293
-0.061987175
-0.0010689286
-0.056342352
-0.0011645511
-0.050065713
-0.0012688217
-0.042541144
-0.0013835176
-0.033007812
-0.0015113813
-0.021272017
-0.0016535756
-0.0085139407
-0.0018118699
0.0033425837
-0.0019850241
-0.0021713858
-0.075010061
-0.00022432133
-0.088159671
-0.00030890645
-0.089838313
-0.00033967746
-0.089678273
-0.00036873927
-0.089014572
-0.00039998303
-0.088176535
-0.00043383306
-0.087283941
-0.00047020778
-0.086367625
-0.00050957754
-0.085337132
-0.00055222443
-0.083842133
-0.00059849899
-0.081913904
-0.00064962889
-0.079735576
-0.00070532662
-0.077383168
-0.00076564883
-0.074550976
-0.00083142119
-0.070947721
-0.00090364178
-0.066567492
-0.00098299763
-0.061531948
-0.0010704406
-0.0559543
-0.001166273
-0.049805474
-0.0012707031
-0.042551135
-0.0013853829
-0.033418566
-0.0015130072
-0.022201914
-0.0016548194
-0.0099043248
-0.0018124518
0.0018214073
-0.0019851426
-0.0021713382
-0.074748114
-0.00022506418
-0.087832416
-0.0003099018
-0.089433203
-0.00034061362
-0.089223739
-0.00036947758
-0.088586194
-0.00040050746
-0.087795426
-0.00043429443
-0.086933706
-0.00047065277
-0.086043259
-0.00051004111
-0.085041705
-0.00055270352
-0.083549038
-0.00059900661
-0.081628068
-0.00065015129
-0.079535264
-0.00070585943
-0.077248107
-0.0007661885
-0.074408234
-0.00083205315
-0.070814336
-0.00090443344
-0.066413752
-0.00098404256
-0.061265212
-0.001071792
-0.055568229
-0.0011679697
-0.049423932
-0.001272639
-0.042343189
-0.0013873687
-0.033508662
-0.0015147244
-0.02268965
-0.0016559785
-0.010836414
-0.001812834
0.00060049994
-0.0019848208
-0.0021710696
-0.074176787
-0.00022577028
-0.087204225
-0.00031093677
-0.088726879
-0.00034163319
-0.088454795
-0.00037026011
-0.087825638
-0.00040111184
-0.087070715
-0.00043481727
-0.086291076
-0.00047115894
-0.085563763
-0.00051055069
-0.084763221
-0.00055321331
-0.083500497
-0.00059952217
-0.081834149
-0.00065060759
-0.079908782
-0.00070625203
-0.077693467
-0.00076652393
-0.074791471
-0.00083241346
-0.070950943
-0.00090496385
-0.06620909
-0.00098492621
-0.060773108
-0.0010730815
-0.054907496
-0.0011696033
-0.048762536
-0.0012744935
-0.041951695
-0.0013892523
-0.033685722
-0.001516378
-0.023661304
-0.001657123
-0.012550753
-0.0018132731
-0.0013722414
-0.0019846115
-0.0021710278
-0.073788216
-0.00022655006
-0.086754214
-0.00031192027
-0.08818962
-0.00034257796
-0.087852111
-0.00037101194
-0.087217979
-0.00040171912
-0.086493118
-0.00043538012
-0.08579273
-0.00047173928
-0.085155973
-0.0005111715
-0.084409093
-0.00055389642
-0.0832478
-0.00060027871
-0.081787759
-0.00065139946
-0.080097088
-0.00070704475
-0.078051032
-0.00076732069
-0.075178224
-0.00083325986
-0.071207061
-0.00090592696
-0.066206191
-0.0009860868
-0.060538378
-0.0010744968
-0.054598747
-0.0011712097
-0.048525861
-0.0012762411
-0.041884522
-0.0013910426
-0.033848535
-0.0015181462
-0.024105446
-0.0016586985
-0.01326661
-0.0018145361
-0.0022368561
-0.0019856453
-0.0021719953
-0.073518069
-0.00022742487
-0.086394718
-0.0003130186
-0.087732686
-0.00034363594
-0.087351716
-0.00037194656
-0.086714744
-0.00040251668
-0.08600963
-0.0004361896
-0.085330315
-0.0004726063
-0.08471984
-0.00051211755
-0.083996709
-0.00055492901
-0.082851847
-0.00060142384
-0.081415365
-0.00065265801
-0.079759348
-0.00070840361
-0.077726246
-0.00076876983
-0.074846588
-0.00083484851
-0.070891604
-0.00090766476
-0.06592861
-0.00098799725
-0.06030313
-0.0010765845
-0.05440533
-0.0011734946
-0.048374234
-0.0012787065
-0.041798289
-0.0013937081
-0.033902673
-0.0015209275
-0.024401813
-0.0016614633
-0.013811346
-0.0018170342
-0.0028903808
-0.0019881401
-0.0021744349
-0.073093362
-0.00022802405
-0.085896122
-0.00031385266
-0.087173126
-0.0003444718
-0.086762436
-0.00037271526
-0.086134066
-0.00040324559
-0.085463178
-0.00043694297
-0.084824115
-0.00047343029
-0.084266033
-0.00051302398
-0.083576264
-0.00055593167
-0.082458931
-0.00060253766
-0.081072378
-0.00065388202
-0.079496331
-0.00070972661
-0.077530986
-0.00077017475
-0.074662225
-0.00083635753
-0.070678212
-0.00090931034
-0.06566489
-0.00098980282
-0.059997853
-0.0010785454
-0.054083503
-0.0011755886
-0.04805193
-0.0012809575
-0.041499619
-0.0013961935
-0.033701198
-0.0015237223
-0.024400273
-0.0016645068
-0.013999095
-0.0018202389
-0.0031734022
-0.0019914423
-0.0021778703
-0.072650891
-0.00022837336
-0.085382578
-0.00031417694
-0.086627913
-0.0003447553
-0.08620971
-0.00037296654
-0.08559801
-0.00040352911
-0.084937194
-0.00043729837
-0.08430358
-0.00047385763
-0.083762594
-0.00051352403
-0.083064321
-0.00055650731
-0.081941257
-0.00060319765
-0.080560691
-0.00065461947
-0.079009249
-0.00071055825
-0.077086483
-0.00077109488
-0.074252612
-0.00083736235
-0.070301733
-0.0009103805
-0.065339906
-0.00099091496
-0.059766935
-0.0010796711
-0.053955706
-0.0011767199
-0.047941182
-0.0012821349
-0.041261816
-0.0013975111
-0.033254924
-0.0015252515
-0.023769095
-0.001666215
-0.013244549
-0.0018221274
-0.0024945309
-0.0019935638
-0.0021798938
-0.072583984
-0.00022898305
-0.085213873
-0.00031472702
-0.086419467
-0.00034521132
-0.086010667
-0.00037331969
-0.085423567
-0.00040381652
-0.08479379
-0.00043760498
-0.084188064
-0.00047418721
-0.083670466
-0.0005138894
-0.082997015
-0.00055690119
-0.081887034
-0.00060363759
-0.080505502
-0.00065510318
-0.078921745
-0.00071109661
-0.07695501
-0.00077170573
-0.074114348
-0.00083808048
-0.07021102
-0.00091119357
-0.065330152
-0.00099181998
-0.059826912
-0.0010806755
-0.054048336
-0.0011778781
-0.048038726
-0.001283398
-0.041386856
-0.0013988182
-0.033487524
-0.0015263736
-0.024176035
-0.0016669961
-0.013796031
-0.0018224336
-0.0030671882
-0.0019938636
-0.0021804553
-0.072405806
-0.00022985859
-0.084962359
-0.00031575251
-0.086096769
-0.00034610782
-0.085677498
-0.00037399346
-0.085105748
-0.00040431124
-0.084519504
-0.00043804313
-0.083968054
-0.00047458675
-0.083517181
-0.00051427346
-0.082918003
-0.00055725934
-0.081874924
-0.00060398503
-0.080567198
-0.00065543399
-0.07906321
-0.00071141539
-0.07713274
-0.00077202081
-0.074274046
-0.00083847234
-0.070327841
-0.00091174456
-0.065380034
-0.00099261035
-0.059780181
-0.001081764
-0.053920869
-0.0011793038
-0.047951262
-0.0012850896
-0.041563238
-0.0014005149
-0.03418614
-0.0015275983
-0.025540422
-0.0016672943
-0.01566202
-0.0018216952
-0.0049284076
-0.0019927641
-0.0021802864
-0.072050373
-0.00023062717
-0.084512891
-0.00031666735
-0.085564104
-0.00034698304
-0.085142691
-0.0003747833
-0.084612745
-0.00040506285
-0.084117278
-0.00043879055
-0.08367976
-0.00047536823
-0.08338359
-0.00051509332
-0.082945035
-0.00055811182
-0.082068509
-0.00060487711
-0.08092492
-0.00065635215
-0.079556914
-0.00071237869
-0.077705637
-0.00077305332
-0.074805667
-0.00083960676
-0.070681936
-0.00091304127
-0.065478842
-0.00099414046
-0.059600039
-0.001083554
-0.053494188
-0.0011813872
-0.047451089
-0.00128747
-0.0413564
-0.0014030457
-0.034704563
-0.0015299863
-0.026979955
-0.001669169
-0.017672678
-0.0018230782
-0.0067682111
-0.0019940444
-0.0021820505
-0.071809968
-0.00023123034
-0.084177466
-0.00031722967
-0.085235296
-0.00034754422
-0.084836481
-0.00037537951
-0.084335613
-0.00040574163
-0.083860339
-0.00043957042
-0.083443416
-0.00047620783
-0.083159472
-0.0005160074
-0.08273098
-0.00055910426
-0.081876859
-0.00060595774
-0.080760413
-0.00065750577
-0.079377702
-0.00071362481
-0.077498978
-0.00077443555
-0.074601329
-0.00084113594
-0.070498062
-0.00091468806
-0.065331973
-0.00099589187
-0.059503307
-0.0010854135
-0.053439269
-0.0011833703
-0.047405618
-0.0012896147
-0.041297003
-0.0014053736
-0.034638188
-0.0015324843
-0.02688739
-0.0016716721
-0.01751573
-0.0018256434
-0.0066271618
-0.001996795
-0.0021850217
-0.071799043
-0.00023215737
-0.084082316
-0.00031821954
-0.08509239
-0.00034851183
-0.084711069
-0.00037640118
-0.084232745
-0.00040678031
-0.083804419
-0.00044066848
-0.083451147
-0.00047737767
-0.083185657
-0.00051726415
-0.082735312
-0.00056048452
-0.081861554
-0.00060746521
-0.080744557
-0.00065913324
-0.079341991
-0.00071540499
-0.077388682
-0.0007764256
-0.07443334
-0.00084333605
-0.070344604
-0.00091704448
-0.065216566
-0.00099835317
-0.059414041
-0.0010879569
-0.053358499
-0.0011859821
-0.047309316
-0.0012924112
-0.041216187
-0.0014085151
-0.034708275
-0.0015359525
-0.027216708
-0.0016753184
-0.018007103
-0.001829328
-0.0070980397
-0.0020005829
0.0067208225
-0.0021886378
-0.0024036567
-0.071502046
-0.00023306928
-0.083683667
-0.00031881012
-0.084643293
-0.00034911211
-0.084214608
-0.00037709786
-0.083720718
-0.00040754971
-0.083299207
-0.00044145481
-0.082967892
-0.00047823658
-0.082666534
-0.00051826869
-0.082137498
-0.00056170183
-0.081220768
-0.00060892751
-0.080063065
-0.00066085322
-0.078540705
-0.00071736123
-0.07646685
-0.00077866661
-0.073498949
-0.00084589035
-0.06950563
-0.00091972759
-0.064571297
-0.0010009112
-0.059042431
-0.0010902149
-0.053211987
-0.0011880327
-0.047176949
-0.0012945454
-0.040901498
-0.0014111753
-0.034191693
-0.0015392805
-0.026618759
-0.001679359
-0.017459683
-0.0018338168
-0.0068109052
-0.0020054634
0.0067091162
-0.0021930712
-0.0024082946
-0.072256965
-0.00023392364
-0.084035726
-0.00031880118
-0.085052454
-0.00034902662
-0.084711346
-0.00037707628
-0.084305793
-0.00040754768
-0.083902341
-0.00044144165
-0.083416786
-0.00047825174
-0.082780111
-0.00051838883
-0.081855456
-0.00056195792
-0.08050963
-0.00060932102
-0.078989457
-0.00066140775
-0.077284775
-0.00071801981
-0.07499236
-0.00077945076
-0.071913231
-0.00084677927
-0.06826051
-0.00092060242
-0.064059833
-0.0010016252
-0.059245819
-0.0010906488
-0.053781368
-0.001188246
-0.047684385
-0.0012946737
-0.041048118
-0.001411447
-0.033902665
-0.0015398735
-0.025974395
-0.0016802744
-0.016587768
-0.0018350968
-0.0060655297
-0.002007038
0.0070486347
-0.0021947458
-0.0024093925
-0.072695989
-0.00023466791
-0.083727532
-0.00031916484
-0.084750159
-0.00034928084
-0.084548224
-0.00037734681
-0.084170724
-0.0004078664
-0.083746402
-0.00044171222
-0.083195629
-0.00047858634
-0.082496588
-0.0005187102
-0.081556688
-0.00056234522
-0.080325845
-0.00060965476
-0.078891368
-0.00066174949
-0.077267285
-0.00071831636
-0.075094896
-0.00077977144
-0.072207844
-0.00084705531
-0.068586323
-0.00092095041
-0.064261318
-0.0010021217
-0.059370039
-0.0010913903
-0.053940789
-0.0011891291
-0.047935456
-0.0012956939
-0.041376466
-0.0014123745
-0.034303827
-0.0015405561
-0.026432789
-0.0016804217
-0.017077747
-0.0018348921
-0.0065547484
-0.0020067585
0.0067474549
-0.0021950664
0.020247843
-0.0024111359
-0.0026345917
-0.07213758
-0.00023522197
-0.083028237
-0.00031977955
-0.084015026
-0.00034982485
-0.083821517
-0.00037775378
-0.083529562
-0.00040826311
-0.083171365
-0.00044208625
-0.082718855
-0.00047899336
-0.0821526
-0.00051907564
-0.081338924
-0.00056271631
-0.080244699
-0.00060999419
-0.078951484
-0.00066210048
-0.077444386
-0.00071864969
-0.075312716
-0.00078013928
-0.072384464
-0.00084748989
-0.068653075
-0.00092155103
-0.064174286
-0.0010028877
-0.059089409
-0.0010923831
-0.053478723
-0.0011903692
-0.047435717
-0.0012971683
-0.04115274
-0.0014137595
-0.034702375
-0.0015414352
-0.027604182
-0.0016803552
-0.018724066
-0.0018340519
-0.0080834601
-0.0020057085
0.005978219
-0.0021947776
0.020180208
-0.0024127751
-0.0026366764
-0.071962937
-0.00023600104
-0.082743234
-0.00032042357
-0.083666743
-0.00035033599
-0.083446075
-0.00037808967
-0.08314532
-0.00040852689
-0.082851395
-0.00044238822
-0.082521572
-0.00047923286
-0.082085703
-0.00051930255
-0.081388773
-0.00056285888
-0.080369055
-0.00061012411
-0.079138115
-0.00066215367
-0.077671047
-0.00071869018
-0.075562401
-0.00078014033
-0.07258201
-0.00084757075
-0.06876785
-0.00092177148
-0.064239722
-0.0010033471
-0.059099397
-0.0010931095
-0.053417067
-0.0011914836
-0.047428289
-0.0012984626
-0.041480636
-0.0014148871
-0.035622244
-0.0015417567
-0.029100235
-0.0016796708
-0.020492283
-0.0018325492
-0.0095886548
-0.0020042982
0.0052507751
-0.0021940573
0.020051506
-0.0024142798
0.032286408
-0.0026386503
-0.0028895214
-0.072167806
-0.00023667574
-0.082857853
-0.00032120823
-0.08371354
-0.00035098288
-0.083452421
-0.00037848529
-0.083191636
-0.00040883095
-0.082982864
-0.00044271991
-0.082766999
-0.00047948874
-0.082478694
-0.00051954695
-0.081936211
-0.00056293242
-0.081059843
-0.00061018037
-0.079997172
-0.00066206771
-0.078643252
-0.00071860471
-0.0765747
-0.00077995811
-0.073515645
-0.00084750454
-0.06950298
-0.00092182233
-0.064669256
-0.0010037027
-0.059143382
-0.001093725
-0.053170711
-0.0011925678
-0.04725138
-0.001299719
-0.041877472
-0.0014159928
-0.036935875
-0.0015417635
-0.031206657
-0.0016784914
-0.022855484
-0.0018304418
-0.011570392
-0.0020026709
0.0044528427
-0.0021931012
0.020274381
-0.0024154468
0.032853161
-0.0026402457
-0.0028916357
-0.071497401
-0.00023716987
-0.082449093
-0.00032219801
-0.083322092
-0.00035189416
-0.08303215
-0.00037916633
-0.082882958
-0.00040949317
-0.082786004
-0.00044338344
-0.082714689
-0.00048010687
-0.082655158
-0.00052014485
-0.082350336
-0.00056345974
-0.081625031
-0.0006105788
-0.080637863
-0.00066227039
-0.079329596
-0.00071884327
-0.077267469
-0.00078016488
-0.074087464
-0.0008478763
-0.069893866
-0.00092232272
-0.064902902
-0.001004656
-0.059220987
-0.0010951636
-0.053076367
-0.0011947195
-0.047157437
-0.0013022431
-0.042225361
-0.0014184257
-0.038159478
-0.0015428592
-0.033191462
-0.001677929
-0.024886154
-0.00182875
-0.013043357
-0.0020016067
0.0040255448
-0.0021932767
0.020575083
-0.0024179218
0.033303533
-0.0026431857
0.045400958
-0.002894794
-0.0031592942
-0.070396103
-0.00023791452
-0.08096421
-0.00032364533
-0.081865374
-0.00035319376
-0.081656743
-0.00038021935
-0.08165703
-0.00041054682
-0.081789497
-0.00044433448
-0.081939033
-0.00048105332
-0.082046606
-0.00052103745
-0.08207226
-0.00056444084
-0.081845926
-0.00061146525
-0.081187655
-0.00066302454
-0.079972036
-0.00071966266
-0.077875948
-0.00078113635
-0.074640497
-0.0008491169
-0.070200475
-0.00092373708
-0.064615507
-0.0010064291
-0.058134984
-0.0010974036
-0.051354349
-0.0011977261
-0.045367116
-0.0013058657
-0.041295361
-0.0014220495
-0.03876929
-0.0015455987
-0.035179421
-0.0016788786
-0.027277221
-0.0018286808
-0.014754921
-0.002001723
0.00372354
-0.0021949859
0.021285524
-0.0024217042
0.034093734
-0.0026474591
0.045905016
-0.0028990508
0.05668974
-0.0031632273
-0.0034576495
-0.068896419
-0.00023833077
-0.079304764
-0.000325004
-0.080194268
-0.00035439372
-0.080033995
-0.00038111908
-0.08019131
-0.00041143237
-0.080543986
-0.00044522089
-0.080925319
-0.00048200216
-0.081209949
-0.00052198179
-0.081302243
-0.00056545947
-0.081206588
-0.00061258422
-0.080674934
-0.00066420782
-0.079390562
-0.0007209734
-0.077059265
-0.00078258144
-0.073638125
-0.00085080654
-0.069205741
-0.00092566683
-0.063749763
-0.0010085181
-0.057297731
-0.0010995051
-0.050296133
-0.0011999595
-0.044216706
-0.0013085408
-0.04033244
-0.0014251352
-0.038441278
-0.0015488922
-0.035753163
-0.0016815533
-0.028276219
-0.0018305632
-0.015658805
-0.0020036176
0.0033168987
-0.0021967832
0.021304798
-0.0024251202
0.034017916
-0.0026508675
0.045561323
-0.0029024107
0.056065544
-0.0031663422
-0.0034605737
-0.067887727
-0.00023870405
-0.078377068
-0.00032624163
-0.079221322
-0.00035545685
-0.079020384
-0.00038185909
-0.079190327
-0.00041219828
-0.079579517
-0.00044603001
-0.080097894
-0.00048282488
-0.080572391
-0.00052276043
-0.080787517
-0.0005662429
-0.080725444
-0.00061339369
-0.080207277
-0.00066511979
-0.079034614
-0.00072159526
-0.076878027
-0.00078322358
-0.073452078
-0.00085118827
-0.068905305
-0.00092646517
-0.063471198
-0.0010094869
-0.057248053
-0.0011010215
-0.050400501
-0.0012015064
-0.044115328
-0.0013107708
-0.039888472
-0.0014274657
-0.037854257
-0.0015515032
-0.035479274
-0.0016838739
-0.028373925
-0.0018321428
-0.016188478
-0.0020055195
0.0027947834
-0.0021981832
0.021248434
-0.0024286586
0.033843317
-0.0026540278
0.045292967
-0.0029054535
0.055659724
-0.0031688858
0.065170673
-0.0034630212
-0.0037715663
-0.06649454
-0.00023898689
-0.076888605
-0.0003274657
-0.077593691
-0.0003565115
-0.077359087
-0.00038271026
-0.077659474
-0.00041306714
-0.078357725
-0.00044686324
-0.079244759
-0.00048363063
-0.080063685
-0.00052347528
-0.080429674
-0.00056695328
-0.080559296
-0.00061405688
-0.080578778
-0.00066574305
-0.079938256
-0.0007218694
-0.078158539
-0.00078309097
-0.074853076
-0.00085096056
-0.069973878
-0.0009263168
-0.063971055
-0.0010098792
-0.057116016
-0.0011019249
-0.049745585
-0.0012031059
-0.043272172
-0.0013127042
-0.039364208
-0.001429305
-0.037731921
-0.0015530531
-0.036008037
-0.0016847348
-0.029174239
-0.0018323692
-0.016931345
-0.0020062353
0.0027189514
-0.0021989023
0.022002006
-0.0024310429
0.034366231
-0.0026565021
0.045478064
-0.0029075133
0.055583321
-0.0031706181
0.064994131
-0.0034645973
-0.0037732344
-0.065352448
-0.00023987166
-0.07565759
-0.00032948013
-0.07639001
-0.00035842011
-0.076212676
-0.00038450403
-0.076600212
-0.00041511238
-0.077400963
-0.00044897944
-0.078441351
-0.00048593468
-0.079450686
-0.00052582878
-0.079905206
-0.00056946859
-0.08024142
-0.00061664486
-0.080517519
-0.00066829819
-0.080437416
-0.00072446387
-0.079032145
-0.00078533584
-0.075708015
-0.00085337931
-0.0705719
-0.0009290333
-0.064090847
-0.0010132306
-0.056796072
-0.0011058368
-0.049062108
-0.0012077669
-0.042709941
-0.0013178248
-0.039007629
-0.0014346512
-0.037702112
-0.0015584419
-0.036355739
-0.0016898713
-0.029609875
-0.0018358636
-0.017300605
-0.0020103278
0.0027838481
-0.0022013223
0.022533521
-0.0024377421
0.034677395
-0.0026642425
0.045507658
-0.002915762
0.055429406
-0.003179477
0.064775115
-0.0034742084
0.072400009
-0.0037840404
-0.0041253922
-0.06344481
-0.00024245915
-0.073621713
-0.00033348914
-0.074420019
-0.00036232612
-0.074338598
-0.00038813682
-0.074860437
-0.00041893162
-0.07574671
-0.00045288606
-0.076846194
-0.00049022921
-0.077969559
-0.00053065407
-0.078500374
-0.00057483468
-0.079123932
-0.00062253249
-0.079745269
-0.00067435495
-0.080043405
-0.00073072836
-0.078916866
-0.00079188717
-0.07546399
-0.00086015058
-0.069966207
-0.00093690675
-0.063098107
-0.0010213939
-0.055443611
-0.0011147308
-0.047333994
-0.0012164758
-0.040729304
-0.0013276826
-0.037132928
-0.0014460654
-0.036114632
-0.0015718888
-0.035474018
-0.0017052638
-0.029236525
-0.0018524722
-0.017069397
-0.0020277746
0.002818068
-0.0022191446
0.022460017
-0.0024526716
0.03429979
-0.0026784307
0.044756581
-0.0029300595
0.05438086
-0.0031934595
0.063550147
-0.0034891777
0.071107095
-0.0038000346
-0.0041435459
-0.062818203
-0.00024575421
-0.072041727
-0.00033601725
-0.072620878
-0.00036382296
-0.072794022
-0.00039003084
-0.073557922
-0.00042082538
-0.074431386
-0.00045463059
-0.074911448
-0.00049212146
-0.075124361
-0.00053293383
-0.074969457
-0.00057744336
-0.075456511
-0.00062558586
-0.076477778
-0.00067768226
-0.077267195
-0.00073448129
-0.076452633
-0.00079647555
-0.072775522
-0.00086583799
-0.067199944
-0.00094307367
-0.061060023
-0.0010274472
-0.054659998
-0.0011199026
-0.047827926
-0.0012211588
-0.04074649
-0.0013323095
-0.035366434
-0.0014523006
-0.032486422
-0.0015796999
-0.030370563
-0.0017149427
-0.024093444
-0.0018643499
-0.013255222
-0.002039984
0.0040623929
-0.0022318538
0.021359845
-0.0024607003
0.032399024
-0.0026854941
0.042115272
-0.0029362803
0.051274025
-0.0031986353
0.060504149
-0.0034942225
0.068584982
-0.0038049261
0.07375742
-0.00414928
-0.0045028294
-0.064200869
-0.0002447377
-0.073411542
-0.00033679389
-0.074135565
-0.00036469358
-0.074266904
-0.00039063975
-0.074889891
-0.00042156125
-0.075648821
-0.00045554982
-0.076162805
-0.000492939
-0.076347158
-0.00053344885
-0.076251099
-0.00057775644
-0.07622063
-0.00062553776
-0.076428084
-0.000677288
-0.075820623
-0.00073289609
-0.073136264
-0.00079391831
-0.068688561
-0.00086198686
-0.063660878
-0.00093945779
-0.058708801
-0.00102533
-0.053192926
-0.0011200987
-0.046440979
-0.0012229763
-0.039423903
-0.0013347162
-0.034299872
-0.0014537837
-0.031990583
-0.001579656
-0.030656448
-0.0017127031
-0.024601272
-0.0018599523
-0.013605902
-0.0020376516
0.0040931457
-0.0022286834
0.021839717
-0.0024640659
0.032477219
-0.0026897955
0.041686956
-0.0029410324
0.050566171
-0.0032036821
0.059741481
-0.0034994149
0.067841194
-0.0038099246
0.073044425
-0.0041537268
-0.0045071842
-0.058530432
-0.00024362412
-0.068038605
-0.00033887463
-0.068636927
-0.00036726091
-0.068608592
-0.00039281143
-0.069200078
-0.00042370794
-0.070358574
-0.00045778085
-0.071993932
-0.0004950012
-0.073425975
-0.00053506654
-0.074307566
-0.00057913058
-0.076018164
-0.00062623321
-0.079026453
-0.00067741691
-0.082027073
-0.00073180698
-0.083385325
-0.00079172878
-0.080826842
-0.00085827607
-0.073688571
-0.00093664469
-0.063949261
-0.0010235525
-0.053488453
-0.0011221851
-0.044211763
-0.0012270545
-0.037134394
-0.0013404225
-0.033930665
-0.0014580459
-0.033858898
-0.0015810612
-0.034768171
-0.00170958
-0.028769719
-0.0018544497
-0.016626269
-0.002034088
0.0028073445
-0.0022277674
0.02252228
-0.0024693605
0.033558974
-0.0026956645
0.043206301
-0.0029473725
0.052353067
-0.0032103162
0.061452021
-0.0035063935
0.069131689
-0.0038165001
0.073879365
-0.0041599817
0.073494608
-0.004512954
-0.004891341
-0.058196346
-0.00024518244
-0.067731596
-0.00034118786
-0.068553886
-0.00036945748
-0.068776094
-0.000394678
-0.069711441
-0.00042574208
-0.071229105
-0.0004596905
-0.073222855
-0.00049692536
-0.075051684
-0.000536843
-0.076578351
-0.00058088352
-0.078729158
-0.0006276068
-0.081269598
-0.00067837654
-0.083387771
-0.00073220719
-0.084090081
-0.00079169134
-0.080470808
-0.00085800008
-0.072710373
-0.00093661809
-0.062319182
-0.0010245935
-0.050599853
-0.0011248438
-0.040924077
-0.0012317914
-0.033968359
-0.0013458738
-0.03233061
-0.0014635259
-0.035731694
-0.0015840489
-0.039447006
-0.0017096528
-0.033940627
-0.0018535663
-0.020081946
-0.0020332574
0.0028737552
-0.0022300089
0.024703178
-0.0024721006
0.035770195
-0.0026983486
0.045002894
-0.0029488817
0.053866498
-0.003211505
0.062633539
-0.0035076354
0.069864121
-0.0038179006
0.074271355
-0.0041613147
0.073675402
-0.0045144634
-0.004892917
-0.055635503
-0.00024514256
-0.064736416
-0.00034330195
-0.065511192
-0.00037192566
-0.065744876
-0.00039693775
-0.066666025
-0.00042783688
-0.068316292
-0.00046172596
-0.070463724
-0.00049889653
-0.072301013
-0.00053881585
-0.073885106
-0.00058290818
-0.076861908
-0.00062947424
-0.081229359
-0.00067981669
-0.085134915
-0.00073290965
-0.086943408
-0.00079184597
-0.084103383
-0.00085789129
-0.075566833
-0.00093639595
-0.063214012
-0.0010254691
-0.049338321
-0.0011265356
-0.037787667
-0.0012353334
-0.030568039
-0.0013500724
-0.029610119
-0.0014683708
-0.034137499
-0.0015873342
-0.038282748
-0.0017119647
-0.032961723
-0.0018556098
-0.019018633
-0.0020353595
0.0037526143
-0.0022332855
0.024806266
-0.0024753806
0.03497896
-0.0027017198
0.04351093
-0.0029519061
0.052169734
-0.0032144754
0.061076271
-0.003510719
0.068596942
-0.0038213706
0.073304861
-0.0041652298
0.0727827
-0.0045189584
0.069032349
-0.0048979672
-0.0053003144
-0.054871817
-0.00024413328
-0.063947002
-0.00034230391
-0.064838285
-0.00037115589
-0.065255332
-0.00039674671
-0.066324129
-0.00042781769
-0.068161975
-0.00046187697
-0.070499659
-0.00049909681
-0.072494895
-0.00053913286
-0.074345182
-0.00058328695
-0.07748634
-0.00063000698
-0.081649946
-0.00068051151
-0.085221315
-0.00073387946
-0.086750181
-0.00079304321
-0.083438524
-0.0008592864
-0.07469639
-0.00093787238
-0.062295128
-0.0010266203
-0.048254216
-0.0011272228
-0.036477266
-0.001235263
-0.028713299
-0.0013497089
-0.028679404
-0.0014679282
-0.03468364
-0.001587595
-0.039492974
-0.0017127093
-0.034421519
-0.0018566003
-0.020194652
-0.0020361813
0.0033542416
-0.0022333181
0.024883935
-0.0024761067
0.035214368
-0.0027024869
0.043873058
-0.002953249
0.052511523
-0.0032161071
0.061247426
-0.0035123574
0.068530325
-0.0038227692
0.07298362
-0.0041664674
0.072277153
-0.0045200477
0.06848015
-0.0048993826
-0.0053020767
-0.054370508
-0.00024265147
-0.063416879
-0.00034111334
-0.064209928
-0.0003702047
-0.064491482
-0.00039620219
-0.065419708
-0.00042736445
-0.067105162
-0.0004615283
-0.069266291
-0.00049868132
-0.071050083
-0.00053875058
-0.072486241
-0.00058287771
-0.075156006
-0.00062961682
-0.079055374
-0.0006800954
-0.082550137
-0.00073350874
-0.084099403
-0.00079268275
-0.081063121
-0.00085898078
-0.072869537
-0.00093771294
-0.061462645
-0.0010263492
-0.04888958
-0.0011269019
-0.038546446
-0.001234472
-0.031735592
-0.0013484156
-0.03033744
-0.0014659938
-0.033885188
-0.0015842091
-0.037467009
-0.0017098615
-0.031845576
-0.0018538963
-0.018497664
-0.0020344603
0.003101755
-0.0022297093
0.023677168
-0.0024740366
0.034003137
-0.0026997933
0.042875438
-0.002950372
0.051554923
-0.0032128513
0.060146637
-0.0035086631
0.067251726
-0.0038181344