/*--------------------------------*- C++ -*----------------------------------*\
| =========                 |                                                 |
| \\      /  F ield         | OpenFOAM: The Open Source CFD Toolbox           |
|  \\    /   O peration     | Version:  2506                                  |
|   \\  /    A nd           | Website:  www.openfoam.com                      |
|    \\/     M anipulation  |                                                 |
\*---------------------------------------------------------------------------*/
FoamFile
{
    version     2.0;
    format      ascii;
    arch        "LSB;label=32;scalar=64";
    class       volScalarField;
    location    "3";
    object      k;
}
// * * * * * * * * * * * * * * * * * * * * * * * * * * * * * * * * * * * * * //

dimensions      [0 2 -2 0 0 0 0];

internalField   nonuniform List<scalar> 
1376
(
2.3751814
2.7259735
3.0805126
3.3604215
2.3558032
2.7071562
3.0610326
3.3396866
3.5540366
3.7108109
3.8156961
3.8772079
3.9060159
3.9140964
2.3379492
2.6899539
3.0433098
3.320613
3.5325067
3.686085
3.7876298
3.8461677
3.8728148
3.8798643
3.8756525
3.8624603
3.8497256
3.8398702
3.8339382
2.3207783
2.6735562
3.0266532
3.3026917
3.5120828
3.662322
3.7603544
3.8157924
3.8402254
3.8462122
3.840816
3.8278581
3.815755
3.8067541
3.8016323
3.7997554
3.7995597
3.8016987
3.8064363
2.3033274
2.6568762
3.0100015
3.285006
3.4920664
3.6390383
3.7335518
3.7858737
3.8080917
3.8130037
3.8064394
3.7937644
3.7823251
3.7741756
3.7698254
3.768435
3.7684935
3.771273
3.7763495
3.7827702
3.7902333
3.7985637
3.8076553
2.2847668
2.6387265
2.9920498
3.2663352
3.4714434
3.6154886
3.7067384
3.7561294
3.7762505
3.7801377
3.7725236
3.7601763
3.7494323
3.7421288
3.7385019
3.7374885
3.7379227
3.7412926
3.7466613
3.7532724
3.7608669
3.7692842
3.77843
3.7882582
3.7987594
3.8099524
3.8218805
2.2649066
2.6186418
2.9720125
3.2457765
3.4493491
3.59096
3.6794139
3.726262
3.7445513
3.7475487
3.7391066
3.7271356
3.7171105
3.7106297
3.7076542
3.7069386
3.7078642
3.7117465
3.7173676
3.7241465
3.7318561
3.7403489
3.7495409
3.7593948
3.7699079
3.7811043
3.7930298
3.8057436
3.8193188
3.8338444
2.2442785
2.59719
2.9500478
3.2231803
3.4254649
3.5650887
3.6512676
3.6960606
3.7128869
3.7151978
3.7062265
3.6946909
3.6853964
3.6796929
3.6772884
3.676826
3.6783184
3.6826314
3.6884718
3.6953947
3.7031992
3.7117533
3.7209816
3.730856
3.741378
3.7525741
3.7644909
3.7771878
3.7907398
3.8052357
3.8207824
3.8375051
3.8555496
2.2237659
2.5756025
2.9271219
3.1991556
3.400086
3.5379564
3.6222694
3.6654619
3.6812122
3.6830661
3.6738961
3.6628692
3.6543099
3.6493238
3.647418
3.6471854
3.6492661
3.6539319
3.6599636
3.6670131
3.6748979
3.6835007
3.6927578
3.7026455
3.7131698
3.7243607
3.7362628
3.7489356
3.7624545
3.7769083
3.7924029
3.8090655
3.8270409
3.846503
3.8676574
2.2041188
2.5550312
2.9044299
3.1746839
3.3738946
3.5099774
3.5926353
3.6345555
3.6495566
3.6511609
3.6421011
3.6316616
3.6238341
3.6195073
3.6180485
3.6180234
3.6206891
3.6256411
3.6318363
3.6389922
3.6469424
3.6555823
3.6648594
3.6747546
3.685277
3.6964564
3.708338
3.7209809
3.7344574
3.7488587
3.7642928
3.7808824
3.7987724
3.8181353
3.8391739
3.8621309
3.8873029
3.9150471
2.185725
2.5361094
2.8829548
3.1507831
3.3477428
3.4817744
3.5627691
3.603572
3.6180339
3.6195352
3.610824
3.6010439
3.5939478
3.5902342
3.5891171
3.5893653
3.5925512
3.5977369
3.6040749
3.6113237
3.6193286
3.6279954
3.6372808
3.6471725
3.6576847
3.6688462
3.6807008
3.6933073
3.7067384
3.7210822
3.7364445
3.7529504
3.7707437
3.7899975
3.8109086
3.8337142
3.8587049
3.8862327
3.9167247
3.9507097
2.1688242
2.5191917
2.8634842
3.1284424
3.3225845
3.4541263
3.5332256
3.5728562
3.5868277
3.5882849
3.5800495
3.5709811
3.5646119
3.5614597
3.5606064
3.5612116
3.564837
3.5702095
3.5766635
3.5839859
3.592034
3.600722
3.6100105
3.6198927
3.6303852
3.6415186
3.6533369
3.6658985
3.6792768
3.6935582
3.7088471
3.7252651
3.7429586
3.7620895
3.7828594
3.8055055
3.8303057
3.8576044
3.8878243
3.9214918
3.9592775
4.002047
2.1535017
2.504278
2.8464344
3.1084124
3.2992896
3.4278335
3.5046274
3.5428234
3.5561712
3.5575396
3.5497697
3.5414331
3.535774
3.5331305
3.532497
3.5335298
3.537517
3.5430407
3.5495912
3.5569732
3.5650537
3.5737534
3.5830373
3.5929017
3.6033654
3.6144622
3.6262377
3.6387489
3.6520676
3.6662807
3.6814901
3.6978162
3.715402
3.7344087
3.7550319
3.7775061
3.8021076
3.8291722
3.8591133
3.8924508
3.9298496
3.9721667
4.0204713
2.1395927
2.4908657
2.8316044
3.0908894
3.278335
3.4034685
3.4774932
3.5138616
3.5263088
3.5274481
3.5200013
3.5123714
3.5073861
3.505204
3.5047715
3.5062876
3.510572
3.5162223
3.5228519
3.5302794
3.5383801
3.547082
3.5563535
3.5661944
3.5766226
3.5876743
3.5993964
3.6118479
3.625102
3.6392419
3.654367
3.6705971
3.688069
3.7069459
3.72742
3.7497188
3.7741149
3.80094
3.8305977
3.8636016
3.900608
3.9424616
3.990196
4.0449486
4.1077555
2.1268997
2.4783747
2.8184197
3.0755311
3.2596726
3.3811977
3.4520791
3.4862088
3.4974178
3.4981631
3.4908024
3.4838016
3.4794272
3.4776628
3.4774281
3.4794624
3.483993
3.489751
3.4964419
3.5038996
3.5120118
3.5207107
3.5299638
3.539771
3.5501529
3.5611486
3.5728102
3.5851961
3.5983772
3.6124372
3.6274737
3.6436031
3.6609579
3.6796997
3.7000189
3.722139
3.7463278
3.7729093
3.8022812
3.8349497
3.8715601
3.9129394
3.9600878
4.0140817
4.0758682
4.1469363
2.1154577
2.4667155
2.8064887
3.061872
3.2429464
3.3608369
3.4283462
3.4599123
3.4695579
3.4697602
3.4622388
3.4557454
3.4518974
3.4505154
3.450466
3.45303
3.4577691
3.4636252
3.4703676
3.4778439
3.485951
3.4946295
3.503854
3.5136224
3.5239532
3.534892
3.5464842
3.5587918
3.5718916
3.5858636
3.6008042
3.6168268
3.6340628
3.6526653
3.6728233
3.6947579
3.7187348
3.7450736
3.7741611
3.8064914
3.8426987
3.883592
3.9301395
3.983353
4.0441017
4.1138467
4.2008835
4.362219
2.1053084
2.4561616
2.7956733
3.0494989
3.2276615
3.3419496
3.4059667
3.4347723
3.4428503
3.4420811
3.434342
3.4282318
3.4248271
3.4237377
3.4239227
3.4269706
3.4318859
3.4378295
3.4446132
3.4520987
3.460194
3.4688465
3.4780313
3.4877512
3.4980273
3.508895
3.5204123
3.5326434
3.5456551
3.5595282
3.5743619
3.5902684
3.6073756
3.6258337
3.6458253
3.6675691
3.6913255
3.7174128
3.7462132
3.7782043
3.8140035
3.8544008
3.9003298
3.9527432
4.0124366
4.0808571
4.1665761
4.3281406
5.2301179
2.0960722
2.446661
2.785625
3.037803
3.2131004
3.3238533
3.384393
3.4104501
3.4171085
3.4149905
3.4070879
3.4012657
3.3982211
3.3973397
3.3978186
3.4012749
3.4063381
3.4123575
3.419172
3.4266563
3.4347295
3.4433455
3.4524848
3.4621507
3.4723661
3.4831668
3.4946035
3.5067411
3.5196523
3.5334219
3.5481485
3.5639324
3.580901
3.5992038
3.6190188
3.6405642
3.6640928
3.6899167
3.7184163
3.7500583
3.7854448
3.8253393
3.8706372
3.9222361
3.9808559
4.0479457
4.1323736
4.2942601
5.2165286
2.0871972
2.4380187
2.7759977
3.0262151
3.1985557
3.3058289
3.3630218
3.3865228
3.3919284
3.3883795
3.3804011
3.3748187
3.3720659
3.3713377
3.372146
3.3759321
3.381117
3.3871994
3.3940349
3.4015092
3.4095512
3.4181218
3.4272064
3.4368102
3.446957
3.4576835
3.4690392
3.4810868
3.4938995
3.5075613
3.522162
3.5378085
3.5546268
3.5727625
3.5923918
3.6137268
3.6370218
3.6625773
3.6907614
3.7220388
3.7570002
3.7963846
3.8410462
3.8918148
3.949346
4.0151041
4.0982659
4.2605699
5.2041141
2.0780337
2.4297624
2.7663431
3.0141976
3.1834131
3.2872625
3.3413306
3.3625722
3.3669079
3.3621192
3.3541742
3.3488335
3.3463329
3.3457312
3.3468844
3.3509287
3.3562094
3.3623407
3.3691875
3.3766447
3.3846491
3.3931681
3.4021912
3.4117267
3.4217991
3.432446
3.4437163
3.4556691
3.4683759
3.4819201
3.4963952
3.5119039
3.5285641
3.5465222
3.5659546
3.5870751
3.6101129
3.6353792
3.6632375
3.6941423
3.7286683
3.7675313
3.8115452
3.8614693
3.917904
3.9823342
4.0642479
4.2270763
5.1930761
2.0679487
2.4211714
2.7561034
3.0012614
3.1672123
3.2677393
3.3189749
3.3383017
3.3417711
3.3360883
3.3283027
3.323242
3.3209823
3.3205005
3.3220075
3.3262509
3.3316031
3.3377683
3.3446159
3.3520486
3.3600102
3.3684733
3.3774315
3.3868951
3.3968892
3.4074512
3.4186298
3.4304847
3.4430857
3.4565114
3.470852
3.48621
3.5027081
3.520489
3.5397179
3.560595
3.5833688
3.608342
3.6358583
3.6663708
3.7004509
3.7387891
3.7821437
3.8312114
3.8865377
3.9496373
4.0303196
4.1937897
5.1833152
2.0566012
2.4116472
2.7448719
2.9871585
3.1497962
3.2471505
3.2958649
3.3136113
3.3164182
3.3102161
3.3027154
3.2979863
3.2959739
3.2956166
3.2974877
3.3018833
3.3072877
3.3134738
3.3203133
3.3277146
3.3356272
3.3440291
3.3529174
3.3623046
3.3722164
3.3826909
3.3937766
3.4055307
3.4180208
3.4313234
3.4455272
3.4607348
3.4770634
3.4946517
3.5136655
3.5343076
3.5568135
3.5814677
3.6086285
3.6387459
3.6723649
3.710158
3.7528469
3.8010501
3.855261
3.9170301
3.9964983
4.1607125
5.1742594
2.0439433
2.4007602
2.7324211
2.9719004
3.1313194
3.2256948
3.2721665
3.2886032
3.2909148
3.284499
3.2773838
3.2730289
3.2712772
3.271056
3.2733021
3.2778147
3.2832569
3.289452
3.2962743
3.3036374
3.311496
3.3198328
3.3286479
3.3379549
3.3477796
3.3581612
3.3691488
3.3807983
3.3931745
3.4063522
3.4204177
3.4354692
3.4516225
3.4690182
3.4878166
3.5082102
3.5304343
3.5547731
3.5815778
3.6112838
3.6444322
3.681667
3.7236662
3.770991
3.8240797
3.884528
3.962807
4.1278698
5.1658011
2.0302529
2.3884011
2.7187689
2.9557224
3.1121528
3.203766
3.2482078
3.2635125
3.2654351
3.2589923
3.252318
3.2483579
3.2468806
3.2468011
3.2494293
3.2540327
3.2595038
3.2656998
3.2724983
3.2798183
3.2876185
3.2958848
3.3046218
3.3138456
3.3235823
3.3338691
3.3447533
3.3562902
3.3685433
3.3815879
3.3955103
3.4104036
3.4263825
3.4435812
3.4621568
3.4823035
3.5042461
3.5282629
3.5547047
3.5839954
3.616665
3.6533323
3.6946275
3.7410584
3.7930105
3.8521423
3.929263
4.0953211
5.1588333
2.0161826
2.3750248
2.7043444
2.9391107
3.0928097
3.1818327
3.2243591
3.2386045
3.240178
3.2337737
3.227549
3.223983
3.2227678
3.2228568
3.2258534
3.2305293
3.2360237
3.2422139
3.2489818
3.256253
3.2639912
3.2721859
3.2808433
3.2899813
3.2996262
3.3098124
3.3205852
3.3320021
3.3441283
3.3570362
3.3708074
3.3855331
3.4013293
3.4183276
3.4366819
3.4565791
3.4782403
3.5019383
3.5280154
3.5568865
3.5890662
3.6251493
3.6657241
3.7112489
3.7620646
3.8199001
3.8959084
4.0631648
5.1538836
2.0023642
2.3612668
2.6896878
2.9225527
3.0737289
3.1602642
3.2009045
3.2140844
3.2153005
3.2089158
3.2031154
3.1999226
3.1989198
3.1992419
3.2025629
3.2072983
3.212812
3.2189912
3.2257237
3.2329418
3.2406141
3.2487327
3.2573053
3.2663504
3.2758963
3.2859798
3.2966433
3.3079389
3.3199283
3.3326854
3.3462942
3.3608499
3.376464
3.3932585
3.4113869
3.4310289
3.4524092
3.4757907
3.501501
3.5299511
3.5616378
3.5971233
3.6369618
3.6815583
3.7312323
3.7877892
3.8627545
4.0314932
5.1505207
1.9891474
2.3475788
2.675132
2.9062846
3.0550883
3.1392029
3.1779588
3.1900428
3.1908791
3.1844645
3.1790443
3.1761848
3.1753504
3.1759628
3.1795531
3.1843381
3.1898667
3.1960301
3.2027219
3.2098816
3.2174832
3.2255223
3.2340081
3.2429598
3.2524042
3.262375
3.2729176
3.2840834
3.2959315
3.3085357
3.3219814
3.3363592
3.3517791
3.3683647
3.3862604
3.4056498
3.4267485
3.4498045
3.4751427
3.503167
3.5343559
3.5692427
3.6083353
3.6519889
3.7005143
3.7558006
3.8297878
4.0002673
5.148197
1.9768548
2.3345249
2.6610186
2.890444
3.0369084
3.1186235
3.1554941
3.166466
3.1669095
3.1604312
3.155346
3.1527752
3.1520792
3.1530156
3.1568149
3.1616375
3.1671745
3.1733181
3.1799679
3.1870695
3.1946002
3.2025573
3.2109511
3.2198014
3.2291369
3.2389937
3.2494152
3.2604448
3.2721446
3.2845872
3.297859
3.312052
3.3272732
3.3436441
3.3613099
3.3804411
3.4012476
3.4239706
3.4489326
3.4765217
3.5071982
3.5414763
3.5798229
3.6225341
3.6699067
3.7239323
3.7969995
3.9694339
5.146889
1.9656648
2.322631
2.6477114
2.8751683
3.0191696
3.0984397
3.1334178
3.1432709
3.1433462
3.1367963
3.1320107
3.1296917
3.1291174
3.1303909
3.1343447
3.1391936
3.1447323
3.1508512
3.1574552
3.1644946
3.1719499
3.1798212
3.1881211
3.1968704
3.206096
3.2158339
3.226124
3.2370123
3.2485581
3.2608392
3.2739372
3.2879386
3.3029519
3.3190963
3.3365186
3.3553818
3.3758909
3.3982876
3.4228694
3.450013
3.4801734
3.5138378
3.5514171
3.5931692
3.6393874
3.6921792
3.7643834
3.9390194
5.1389499
3.0785168
3.1115988
3.1204322
3.1200953
3.1135287
3.1090213
3.1069292
3.1064707
3.108083
3.1121465
3.1170103
3.122541
3.1286268
3.1351776
3.1421484
3.1495241
3.1573073
3.1655097
3.17415
3.1832569
3.1928659
3.2030228
3.2137762
3.22518
3.2372969
3.2502109
3.2640173
3.278819
3.294734
3.3119044
3.3304889
3.3506874
3.3727385
3.3969341
3.4236378
3.4532781
3.4863132
3.5231161
3.5639068
3.6089603
3.6605239
3.7319129
3.9091378
5.1466704
3.0844794
3.0841361
3.0860789
3.0902158
3.0950841
3.1005973
3.1066426
3.1131348
3.1200319
3.1273203
3.1350036
3.1430974
3.1516287
3.160626
3.1701133
3.1801316
3.1907364
3.201983
3.2139379
3.2266768
3.2402915
3.25488
3.2705603
3.2874676
3.3057674
3.3256481
3.3473428
3.3711406
3.3973891
3.4265014
3.4589027
3.4949262
3.534744
3.5786364
3.6289853
3.6996174
3.8798248
5.1646647
3.0788911
3.0848873
3.0913152
3.0981354
3.1053353
3.1129194
3.1209048
3.1293169
3.1381853
3.1475447
3.1574337
3.1678975
3.178993
3.1907817
3.2033358
3.2167497
3.2311193
3.2465621
3.2632131
3.2812239
3.3007772
3.3221088
3.3455033
3.3712945
3.3998742
3.431631
3.466859
3.5056945
3.5484257
3.5975854
3.6675543
3.8509933
5.1663604
3.0835561
3.0910364
3.09891
3.1072036
3.1159489
3.1251805
3.1349314
3.14525
3.1561864
3.1678108
3.1801927
3.1934114
3.2075639
3.2227588
3.2391383
3.2568447
3.2760696
3.2970359
3.3200229
3.3453562
3.3733991
3.4045078
3.4389367
3.4767822
3.518354
3.5663557
3.6357668
3.8225949
5.1588329
3.1030017
3.1126124
3.122787
3.1335707
3.145027
3.1572244
3.1702424
3.1841753
3.1991328
3.2152477
3.2326591
3.2515487
3.2721401
3.2947053
3.319573
3.3470744
3.37753
3.4111492
3.4479982
3.4884287
3.5353161
3.6042827
3.7949027
5.1480626
3.1224099
3.1344169
3.1472354
3.1609511
3.175669
3.1915154
3.2086279
3.2271836
3.2474095
3.2695618
3.2939591
3.3209069
3.3506945
3.3834887
3.4193338
3.4586327
3.504451
3.5730712
3.7685062
5.1946026
3.1523492
3.1679156
3.1847251
3.2029545
3.2228226
3.244568
3.268487
3.2948784
3.3239995
3.3559675
3.3908122
3.4289739
3.4737468
3.5420956
3.7432241
5.2496221
3.1788803
3.1983692
3.2196917
3.2431384
3.2689738
3.2974168
3.3285559
3.3624019
3.3994522
3.4432052
3.5113853
3.7183515
5.2553948
3.2179311
3.2431829
3.2709316
3.3012302
3.3340724
3.3700238
3.4128105
3.4809751
3.6935504
5.2414335
3.274012
3.3058561
3.3407024
3.3825594
3.4507978
3.6694153
5.2432001
3.3524832
3.4208922
3.6471492
5.3222992
3.626839
5.4100111
2.3751424
)
;

boundaryField
{
    Side
    {
        type            empty;
    }
    Inlet
    {
        type            turbulentIntensityKineticEnergyInlet;
        intensity       0.03;
        value           nonuniform List<scalar> 
25
(
12.00196
12.001933
12.001855
12.001861
12.001918
12.002009
12.002096
12.00217
12.002285
12.002456
12.002567
12.002704
12.003041
12.003427
12.003717
12.004064
12.004588
12.00511
12.005576
12.006046
12.006506
12.007094
12.007731
12.008329
12.009094
)
;
    }
    Airfoil
    {
        type            kqRWallFunction;
        value           nonuniform List<scalar> 0();
    }
    Outlet
    {
        type            inletOutlet;
        inletValue      nonuniform List<scalar> 0();
        value           nonuniform List<scalar> 0();
    }
    procBoundary12to4
    {
        type            processor;
        value           uniform 2.3977092;
    }
    procBoundary12to5
    {
        type            processor;
        value           nonuniform List<scalar> 
30
(
2.3542195
2.3351293
2.3175815
2.3010778
2.2851059
2.269019
2.2521309
2.2340263
2.2147488
2.1948838
2.1753067
2.1571678
2.1418083
2.1298985
2.1206697
2.1125662
2.1042126
2.0945198
2.0827538
2.0687703
2.0530476
2.0366775
2.021014
2.0069368
1.9946675
1.983931
1.9739056
1.9637665
2.7220037
2.3542195
)
;
    }
    procBoundary12to6
    {
        type            processor;
        value           uniform 1.955275;
    }
    procBoundary12to11
    {
        type            processor;
        value           nonuniform List<scalar> 
65
(
2.3965105
2.7466688
3.1017409
3.3826432
3.5769952
3.5769952
3.7367134
3.8447204
3.9090505
3.9399615
3.9490534
3.9110037
3.9110037
3.8976273
3.8842841
3.8735676
3.8667747
3.8315078
3.8315078
3.8310719
3.8325971
3.8369424
3.8126446
3.8126446
3.8199607
3.8281929
3.8372212
3.817451
3.817451
3.827933
3.8391177
3.8510413
3.8346018
3.8346018
3.8481886
3.8627337
3.8494271
3.8494271
3.8661975
3.8843104
3.8750972
3.8750972
3.8963594
3.8907535
3.8907535
3.9160926
3.9440365
3.9457948
3.9457948
3.9800807
3.988865
3.988865
4.0320763
4.0509018
4.0509018
4.0759631
4.0759631
4.1397686
4.1801381
4.1801381
4.2353166
4.2353166
4.396529
5.2445513
5.2445513
)
;
    }
    procBoundary12to13
    {
        type            processor;
        value           nonuniform List<scalar> 
60
(
2.3117621
2.6351619
2.8603803
3.0017533
3.0017533
3.0587188
3.0899522
3.0978975
3.0971064
3.0906019
3.0863598
3.0863598
3.0623392
3.0621107
3.0643665
3.0685455
3.0734066
3.0734066
3.0574233
3.0633606
3.0697153
3.076451
3.076451
3.0619869
3.0693622
3.0771235
3.0852953
3.0939088
3.0939088
3.0810292
3.0904962
3.1005143
3.1111328
3.1111328
3.0999803
3.1117975
3.124404
3.137886
3.137886
3.1291974
3.1444872
3.1609861
3.1609861
3.1549471
3.1740616
3.1949717
3.1949717
3.1928432
3.2175204
3.2445722
3.2445722
3.2468951
3.2777042
3.3114847
3.3114847
3.3225879
3.3913741
3.3913741
3.6074544
5.4157977
)
;
    }
}


// ************************************************************************* //
