/*--------------------------------*- C++ -*----------------------------------*\
| =========                 |                                                 |
| \\      /  F ield         | OpenFOAM: The Open Source CFD Toolbox           |
|  \\    /   O peration     | Version:  2506                                  |
|   \\  /    A nd           | Website:  www.openfoam.com                      |
|    \\/     M anipulation  |                                                 |
\*---------------------------------------------------------------------------*/
FoamFile
{
    version     2.0;
    format      ascii;
    arch        "LSB;label=32;scalar=64";
    class       volScalarField;
    location    "3";
    object      rho;
}
// * * * * * * * * * * * * * * * * * * * * * * * * * * * * * * * * * * * * * //

dimensions      [1 -3 0 0 0 0 0];

internalField   nonuniform List<scalar> 
1376
(
0.66573539
0.66564965
0.66558278
0.66556823
0.66573369
0.66564841
0.66558285
0.66556935
0.66558937
0.66561837
0.66564372
0.66566182
0.6656735
0.66568091
0.66573183
0.66564701
0.66558287
0.66557048
0.66559095
0.66561984
0.66564477
0.6656624
0.66567366
0.66568075
0.66568566
0.66568964
0.66569326
0.66569666
0.66569982
0.66572971
0.66564532
0.66558267
0.66557144
0.66559239
0.66562119
0.66564576
0.66566297
0.66567388
0.66568073
0.66568546
0.66568927
0.6656927
0.66569585
0.66569871
0.66570129
0.66570367
0.66570594
0.66570822
0.66572736
0.66564333
0.66558218
0.6655721
0.66559356
0.66562229
0.66564652
0.66566335
0.66567397
0.66568062
0.66568523
0.66568895
0.66569224
0.66569521
0.66569784
0.66570016
0.66570225
0.66570422
0.66570619
0.66570825
0.66571042
0.66571274
0.66571521
0.66572479
0.6656411
0.66558145
0.66557251
0.66559444
0.6656231
0.66564699
0.66566346
0.66567379
0.66568029
0.66568483
0.6656885
0.66569171
0.66569456
0.66569703
0.66569915
0.66570102
0.66570275
0.66570445
0.66570621
0.66570809
0.66571012
0.66571232
0.66571471
0.66571726
0.66571992
0.66572262
0.66572204
0.66563867
0.66558049
0.66557273
0.66559503
0.6656236
0.66564716
0.66566326
0.66567333
0.66567969
0.66568418
0.66568781
0.66569098
0.66569376
0.66569612
0.66569812
0.66569984
0.6657014
0.66570289
0.66570441
0.66570601
0.66570775
0.66570965
0.66571177
0.66571409
0.66571661
0.66571929
0.66572206
0.66572482
0.66572745
0.6657191
0.66563605
0.66557929
0.66557258
0.66559524
0.66562374
0.66564698
0.66566275
0.66567259
0.66567882
0.66568326
0.66568687
0.66569001
0.66569273
0.66569503
0.66569695
0.66569858
0.66570004
0.6657014
0.66570275
0.66570414
0.66570562
0.66570724
0.66570904
0.66571106
0.66571334
0.66571585
0.66571858
0.66572145
0.66572435
0.66572714
0.6657297
0.66573188
0.66571591
0.66563319
0.66557776
0.66557192
0.66559502
0.66562347
0.66564643
0.6656619
0.66567153
0.66567766
0.66568207
0.66568567
0.66568879
0.66569148
0.66569373
0.6656956
0.66569718
0.66569858
0.66569988
0.66570113
0.66570237
0.66570366
0.66570504
0.66570655
0.66570827
0.66571022
0.66571245
0.66571498
0.66571778
0.66572078
0.66572387
0.66572686
0.66572957
0.66573182
0.66573347
0.66571245
0.66563009
0.66557586
0.66557075
0.66559433
0.66562274
0.66564545
0.66566066
0.66567013
0.6656762
0.6656806
0.66568421
0.66568732
0.66568998
0.6656922
0.66569405
0.66569561
0.66569699
0.66569826
0.66569946
0.66570062
0.66570179
0.66570299
0.66570428
0.66570571
0.66570734
0.66570923
0.66571145
0.665714
0.6657169
0.66572006
0.66572335
0.66572656
0.66572944
0.66573173
0.66573327
0.66573404
0.66573418
0.66570873
0.66562671
0.66557358
0.66556913
0.66559317
0.66562153
0.66564402
0.665659
0.66566833
0.66567436
0.66567879
0.66568243
0.66568556
0.66568822
0.66569044
0.66569228
0.66569385
0.66569524
0.66569651
0.6656977
0.66569883
0.66569993
0.66570102
0.66570215
0.66570336
0.66570471
0.66570627
0.66570812
0.66571032
0.66571292
0.66571593
0.66571927
0.66572279
0.66572622
0.66572924
0.66573156
0.66573297
0.6657335
0.66573339
0.66573317
0.66570474
0.66562298
0.66557094
0.66556713
0.66559156
0.66561987
0.66564212
0.66565689
0.6656661
0.66567212
0.66567658
0.66568028
0.66568345
0.66568614
0.66568838
0.66569025
0.66569186
0.66569329
0.66569459
0.6656958
0.66569694
0.66569802
0.66569907
0.6657001
0.66570117
0.66570231
0.6657036
0.6657051
0.66570691
0.66570911
0.66571176
0.66571488
0.6657184
0.66572213
0.66572578
0.66572896
0.66573131
0.66573264
0.66573299
0.66573275
0.6657326
0.66573346
0.66570051
0.66561889
0.665568
0.66556483
0.6655896
0.66561782
0.66563981
0.66565435
0.66566344
0.66566945
0.66567396
0.66567771
0.66568094
0.66568368
0.66568597
0.66568791
0.66568958
0.66569108
0.66569245
0.66569372
0.66569491
0.66569602
0.66569706
0.66569807
0.66569906
0.66570008
0.66570117
0.6657024
0.66570386
0.66570565
0.66570785
0.66571055
0.66571377
0.66571744
0.66572138
0.66572524
0.66572861
0.66573107
0.66573239
0.66573266
0.66573235
0.66573241
0.66573388
0.66569603
0.66561456
0.66556485
0.66556233
0.66558741
0.66561548
0.66563718
0.66565146
0.66566042
0.66566639
0.66567094
0.66567474
0.66567802
0.66568081
0.66568317
0.66568518
0.66568695
0.66568855
0.66569003
0.66569139
0.66569266
0.66569384
0.66569494
0.66569598
0.66569696
0.66569793
0.66569892
0.66569998
0.6657012
0.66570264
0.66570441
0.66570661
0.66570934
0.66571262
0.66571643
0.66572056
0.66572467
0.66572829
0.66573094
0.66573234
0.66573254
0.66573219
0.66573247
0.66573494
0.66573986
0.66569133
0.66561005
0.66556157
0.66555973
0.66558512
0.66561303
0.66563439
0.66564837
0.66565714
0.66566306
0.6656676
0.66567143
0.66567473
0.66567756
0.66567998
0.66568207
0.66568395
0.66568566
0.66568726
0.66568875
0.66569014
0.66569143
0.66569263
0.66569374
0.66569479
0.66569578
0.66569676
0.66569776
0.66569883
0.66570005
0.66570149
0.66570325
0.66570543
0.66570816
0.66571149
0.66571541
0.66571976
0.66572418
0.66572813
0.66573104
0.66573248
0.66573255
0.66573206
0.66573278
0.66573606
0.66574497
0.66568637
0.66560538
0.66555816
0.66555711
0.66558279
0.66561052
0.66563151
0.66564516
0.66565374
0.66565956
0.66566406
0.66566788
0.66567118
0.66567401
0.66567646
0.66567862
0.66568058
0.6656824
0.66568412
0.66568574
0.66568727
0.6656887
0.66569004
0.66569128
0.66569244
0.66569353
0.66569457
0.6656956
0.66569666
0.66569778
0.66569903
0.66570047
0.66570221
0.66570437
0.66570707
0.66571044
0.6657145
0.66571912
0.6657239
0.66572821
0.66573131
0.66573268
0.66573245
0.66573197
0.66573318
0.66574006
0.66574962
0.66576781
0.66568116
0.66560058
0.66555454
0.66555443
0.6655804
0.66560794
0.66562857
0.6656419
0.66565027
0.66565598
0.66566043
0.6656642
0.66566746
0.66567027
0.66567272
0.66567491
0.66567692
0.66567883
0.66568065
0.6656824
0.66568406
0.66568564
0.66568713
0.66568853
0.66568985
0.66569108
0.66569226
0.6656934
0.66569453
0.66569568
0.66569688
0.66569817
0.66569962
0.66570133
0.66570345
0.66570614
0.66570958
0.66571384
0.66571877
0.66572391
0.66572849
0.6657316
0.66573269
0.66573232
0.66573217
0.66573734
0.66574535
0.66576575
0.66576816
0.6656757
0.6655956
0.66555073
0.66555163
0.66557787
0.66560525
0.66562554
0.66563857
0.66564675
0.66565236
0.66565675
0.66566046
0.66566367
0.66566643
0.66566885
0.66567104
0.66567308
0.66567504
0.66567693
0.66567877
0.66568055
0.66568226
0.66568391
0.66568547
0.66568696
0.66568838
0.66568974
0.66569105
0.66569233
0.66569361
0.66569488
0.66569617
0.66569751
0.66569897
0.66570065
0.66570275
0.66570548
0.66570906
0.66571356
0.66571879
0.66572418
0.66572879
0.6657317
0.66573262
0.66573245
0.66573602
0.66574212
0.66576121
0.66575885
0.66566998
0.66559043
0.66554668
0.66554861
0.66557514
0.66560236
0.66562236
0.66563513
0.66564315
0.66564868
0.66565303
0.6656567
0.66565984
0.66566256
0.66566494
0.66566711
0.66566915
0.66567113
0.66567306
0.66567495
0.66567682
0.66567864
0.66568041
0.66568213
0.66568379
0.6656854
0.66568695
0.66568847
0.66568996
0.66569143
0.66569287
0.66569429
0.66569567
0.66569706
0.66569852
0.66570021
0.66570234
0.66570519
0.66570898
0.66571373
0.66571917
0.66572458
0.66572901
0.66573175
0.66573281
0.66573598
0.66574075
0.66575648
0.66575551
0.66566404
0.66558505
0.66554238
0.6655453
0.66557211
0.66559921
0.66561894
0.6656315
0.6656394
0.6656449
0.66564923
0.66565287
0.66565599
0.66565867
0.66566102
0.66566317
0.66566521
0.66566718
0.66566913
0.66567106
0.66567297
0.66567486
0.66567673
0.66567857
0.66568038
0.66568216
0.66568392
0.66568565
0.66568737
0.66568907
0.66569074
0.66569237
0.66569392
0.6656954
0.66569683
0.66569833
0.66570007
0.66570233
0.66570538
0.6657094
0.66571434
0.66571979
0.66572502
0.6657293
0.66573217
0.66573627
0.66574076
0.66575434
0.66575404
0.66565794
0.66557951
0.66553786
0.66554165
0.66556878
0.66559576
0.66561525
0.66562762
0.66563544
0.66564093
0.66564528
0.66564894
0.66565205
0.66565473
0.66565709
0.66565924
0.66566128
0.66566326
0.66566522
0.66566716
0.6656691
0.66567104
0.66567297
0.6656749
0.66567683
0.66567876
0.66568068
0.66568262
0.66568456
0.6656865
0.66568843
0.66569031
0.66569211
0.66569379
0.66569536
0.66569686
0.66569844
0.66570033
0.66570279
0.66570609
0.66571031
0.66571528
0.66572057
0.66572564
0.66573009
0.66573575
0.66574091
0.66575404
0.66575265
0.66565172
0.66557383
0.66553316
0.66553771
0.66556516
0.66559202
0.66561127
0.66562347
0.66563122
0.66563672
0.66564111
0.66564481
0.66564796
0.66565068
0.66565307
0.66565527
0.66565734
0.66565936
0.66566134
0.66566331
0.66566528
0.66566725
0.66566923
0.66567123
0.66567324
0.66567527
0.66567734
0.66567944
0.66568158
0.66568375
0.66568593
0.66568808
0.66569015
0.66569211
0.66569391
0.66569557
0.66569718
0.66569892
0.66570102
0.66570375
0.66570729
0.66571159
0.66571648
0.66572165
0.66572691
0.66573407
0.66574047
0.66575431
0.66575147
0.6656454
0.66556803
0.66552831
0.66553358
0.66556133
0.66558805
0.66560704
0.66561905
0.66562674
0.66563225
0.66563668
0.66564043
0.66564364
0.66564642
0.6656489
0.66565117
0.66565333
0.66565542
0.66565747
0.66565949
0.66566151
0.66566352
0.66566555
0.6656676
0.66566969
0.66567181
0.66567398
0.66567622
0.66567852
0.66568087
0.66568327
0.66568567
0.66568802
0.66569026
0.66569235
0.66569427
0.66569606
0.66569784
0.6656998
0.66570218
0.66570518
0.66570886
0.66571319
0.66571809
0.66572356
0.66573165
0.66573925
0.66575432
0.66575035
0.66563896
0.6655621
0.66552332
0.66552926
0.66555732
0.66558388
0.6656026
0.66561442
0.66562202
0.66562753
0.66563199
0.66563579
0.66563906
0.66564192
0.66564449
0.66564687
0.66564915
0.66565135
0.6656535
0.66565562
0.66565773
0.66565982
0.66566193
0.66566405
0.66566621
0.66566841
0.66567068
0.66567303
0.66567545
0.66567796
0.66568053
0.66568314
0.66568573
0.66568825
0.66569063
0.66569286
0.66569491
0.66569688
0.66569888
0.6657011
0.66570375
0.66570694
0.66571076
0.66571527
0.66572067
0.66572915
0.66573753
0.66575383
0.66574897
0.66563237
0.66555599
0.66551814
0.66552473
0.66555314
0.66557953
0.66559797
0.66560958
0.66561709
0.66562257
0.66562705
0.66563087
0.66563419
0.66563713
0.66563979
0.6656423
0.6656447
0.66564705
0.66564934
0.6656516
0.66565384
0.66565606
0.66565828
0.66566051
0.66566278
0.66566508
0.66566745
0.6656699
0.66567244
0.66567507
0.66567778
0.66568055
0.66568333
0.66568608
0.66568875
0.66569127
0.66569364
0.66569587
0.66569804
0.66570027
0.66570274
0.66570561
0.66570901
0.66571316
0.6657184
0.66572706
0.66573579
0.66575301
0.66574713
0.6656256
0.66554968
0.66551272
0.66552001
0.66554875
0.66557496
0.66559312
0.66560452
0.66561193
0.66561739
0.66562186
0.6656257
0.66562905
0.66563204
0.66563479
0.66563741
0.66563995
0.66564243
0.66564489
0.66564731
0.66564971
0.6656521
0.66565449
0.66565688
0.66565929
0.66566174
0.66566424
0.66566682
0.66566948
0.66567223
0.66567506
0.66567796
0.66568089
0.66568383
0.66568672
0.66568952
0.6656922
0.66569473
0.66569715
0.66569951
0.66570195
0.66570461
0.66570772
0.66571157
0.66571666
0.66572552
0.66573428
0.66575216
0.66574488
0.66561863
0.66554312
0.66550703
0.66551505
0.66554409
0.66557012
0.66558801
0.66559921
0.66560653
0.66561195
0.66561641
0.66562025
0.66562362
0.66562665
0.66562947
0.66563218
0.66563484
0.66563746
0.66564007
0.66564266
0.66564525
0.66564783
0.66565041
0.665653
0.6656556
0.66565825
0.66566093
0.66566368
0.66566649
0.66566938
0.66567234
0.66567537
0.66567843
0.66568152
0.6656846
0.66568764
0.66569059
0.66569344
0.66569613
0.6656987
0.6657012
0.66570378
0.66570671
0.66571036
0.66571531
0.66572442
0.66573308
0.66575155
0.6657424
0.66561143
0.66553629
0.66550104
0.66550982
0.6655391
0.66556497
0.66558258
0.66559359
0.66560082
0.66560621
0.66561067
0.66561451
0.66561789
0.66562096
0.66562384
0.66562663
0.66562938
0.66563212
0.66563486
0.66563761
0.66564037
0.66564314
0.66564593
0.66564874
0.66565158
0.66565446
0.66565737
0.66566034
0.66566336
0.66566644
0.66566956
0.66567274
0.66567594
0.66567918
0.66568242
0.66568566
0.66568886
0.66569198
0.66569496
0.66569776
0.66570039
0.66570299
0.66570583
0.66570938
0.6657143
0.66572359
0.6657321
0.66575124
0.66573985
0.66560399
0.66552917
0.66549472
0.66550429
0.66553377
0.66555944
0.66557678
0.66558761
0.66559475
0.66560012
0.66560458
0.66560843
0.66561183
0.66561494
0.66561787
0.66562073
0.66562356
0.6656264
0.66562925
0.66563213
0.66563505
0.665638
0.66564099
0.66564403
0.66564711
0.66565024
0.66565342
0.66565665
0.66565993
0.66566324
0.66566659
0.66566996
0.66567335
0.66567675
0.66568017
0.6656836
0.66568702
0.66569039
0.66569363
0.66569668
0.66569949
0.66570216
0.665705
0.6657085
0.66571347
0.6657229
0.66573118
0.66575115
0.66573732
0.66555351
0.66557058
0.66558123
0.6655883
0.66559365
0.66559811
0.66560198
0.66560541
0.66560856
0.66561155
0.66561448
0.66561739
0.66562031
0.66562326
0.66562625
0.66562929
0.6656324
0.66563557
0.6656388
0.66564212
0.6656455
0.66564896
0.66565248
0.66565605
0.66565965
0.66566327
0.6656669
0.66567052
0.66567414
0.66567777
0.66568142
0.66568506
0.66568867
0.66569217
0.66569546
0.66569848
0.66570129
0.66570419
0.66570769
0.66571273
0.66572225
0.66573014
0.66575122
0.66573481
0.66559512
0.6655986
0.6656018
0.66560486
0.66560786
0.66561085
0.66561385
0.66561689
0.66561998
0.66562313
0.66562636
0.66562967
0.66563309
0.6656366
0.66564023
0.66564395
0.66564775
0.66565163
0.66565555
0.66565948
0.66566341
0.66566733
0.66567124
0.66567514
0.66567904
0.66568294
0.6656868
0.66569056
0.66569411
0.66569736
0.66570036
0.66570339
0.66570694
0.66571204
0.66572162
0.66572894
0.6657514
0.66573226
0.66560394
0.66560703
0.66561016
0.66561333
0.66561658
0.66561992
0.66562336
0.66562692
0.66563061
0.66563444
0.66563839
0.66564247
0.66564664
0.66565088
0.66565515
0.66565942
0.66566368
0.66566792
0.66567214
0.66567636
0.66568057
0.66568474
0.66568879
0.66569263
0.66569615
0.66569939
0.6657026
0.66570625
0.6657114
0.66572101
0.66572761
0.66575164
0.66572961
0.66560968
0.66561311
0.66561667
0.66562035
0.66562419
0.6656282
0.66563236
0.66563668
0.66564112
0.66564566
0.66565026
0.66565488
0.6656595
0.66566411
0.6656687
0.66567329
0.66567787
0.6656824
0.6656868
0.66569099
0.66569484
0.66569836
0.66570182
0.66570562
0.66571081
0.66572043
0.66572628
0.66575196
0.66572681
0.66562159
0.66562593
0.66563046
0.66563514
0.66563996
0.66564486
0.66564982
0.66565481
0.6656598
0.66566479
0.66566978
0.66567477
0.66567971
0.66568453
0.66568912
0.66569336
0.66569725
0.66570101
0.66570501
0.66571029
0.66571991
0.66572486
0.66575231
0.66572387
0.66563386
0.66563904
0.66564431
0.66564964
0.665655
0.6656604
0.66566581
0.66567123
0.66567662
0.6656819
0.66568695
0.66569165
0.66569597
0.66570011
0.66570438
0.66570981
0.66571951
0.66572326
0.66575262
0.66572074
0.66564977
0.66565555
0.66566137
0.66566724
0.66567309
0.66567884
0.66568439
0.66568959
0.66569442
0.66569902
0.66570362
0.66570926
0.66571918
0.66572156
0.66575294
0.66571739
0.66566277
0.66566908
0.66567532
0.66568137
0.6656871
0.66569246
0.66569759
0.66570261
0.66570853
0.66571879
0.66571971
0.66575332
0.66571381
0.66567782
0.66568407
0.66568999
0.66569569
0.66570121
0.66570756
0.66571836
0.66571765
0.66575378
0.66570994
0.66569321
0.66569929
0.6657062
0.66571787
0.66571523
0.66575432
0.66570572
0.66571702
0.6657124
0.66575484
0.66570107
0.6657554
0.66569592
0.66572756
)
;

boundaryField
{
    Side
    {
        type            empty;
    }
    Inlet
    {
        type            calculated;
        value           nonuniform List<scalar> 
25
(
0.66573781
0.66573771
0.6657373
0.66573694
0.66573662
0.6657363
0.66573598
0.66573566
0.66573536
0.66573504
0.66573468
0.66573428
0.66573385
0.66573338
0.66573288
0.66573235
0.66573179
0.66573116
0.66573044
0.66572963
0.66572871
0.66572769
0.66572657
0.66572536
0.665724
)
;
    }
    Airfoil
    {
        type            calculated;
        value           nonuniform List<scalar> 0();
    }
    Outlet
    {
        type            calculated;
        value           nonuniform List<scalar> 0();
    }
    procBoundary12to4
    {
        type            processor;
        value           uniform 0.66572915;
    }
    procBoundary12to5
    {
        type            processor;
        value           nonuniform List<scalar> 
30
(
0.66572594
0.66572415
0.66572212
0.66571984
0.66571731
0.66571455
0.66571152
0.66570821
0.6657046
0.66570072
0.66569662
0.66569237
0.66568796
0.66568336
0.66567853
0.66567347
0.66566813
0.66566252
0.66565665
0.66565061
0.66564443
0.66563813
0.6656317
0.66562512
0.66561837
0.66561142
0.66560426
0.66559685
0.66563964
0.66572594
)
;
    }
    procBoundary12to6
    {
        type            processor;
        value           uniform 0.66559621;
    }
    procBoundary12to11
    {
        type            processor;
        value           nonuniform List<scalar> 
65
(
0.66573705
0.66565095
0.66558287
0.66556736
0.66558783
0.66558783
0.66561698
0.6656428
0.66566146
0.66567363
0.66568143
0.66568606
0.66568606
0.66569027
0.66569414
0.66569783
0.66570131
0.66570271
0.66570271
0.66570541
0.665708
0.66571057
0.66571056
0.66571056
0.66571301
0.66571557
0.6657182
0.66571778
0.66571778
0.66572043
0.66572309
0.66572568
0.66572526
0.66572526
0.66572778
0.66573009
0.66572986
0.66572986
0.66573196
0.6657337
0.6657336
0.6657336
0.66573482
0.6657345
0.6657345
0.66573494
0.66573498
0.66573403
0.66573403
0.66573409
0.66573356
0.66573356
0.66573513
0.66573588
0.66573588
0.66573757
0.66573757
0.66574291
0.66575032
0.66575032
0.66575571
0.66575571
0.66577177
0.66577734
0.66577734
)
;
    }
    procBoundary12to13
    {
        type            processor;
        value           nonuniform List<scalar> 
60
(
0.6655217
0.66548802
0.6654984
0.66552802
0.66552802
0.66554711
0.66556393
0.66557441
0.6655814
0.66558675
0.66559122
0.66559122
0.66558782
0.66559134
0.66559462
0.66559776
0.66560085
0.66560085
0.66559661
0.66559981
0.66560304
0.66560632
0.66560632
0.66560241
0.66560597
0.66560963
0.66561344
0.66561742
0.66561742
0.66561467
0.66561918
0.6656239
0.66562879
0.66562879
0.66562743
0.66563286
0.66563841
0.66564406
0.66564406
0.66564414
0.66565028
0.6656565
0.6656565
0.66565784
0.66566458
0.66567129
0.66567129
0.66567369
0.66568045
0.66568693
0.66568693
0.66569008
0.6656968
0.66570431
0.66570431
0.66571572
0.66570904
0.66570904
0.66575573
0.66569018
)
;
    }
}


// ************************************************************************* //
