/*--------------------------------*- C++ -*----------------------------------*\
| =========                 |                                                 |
| \\      /  F ield         | OpenFOAM: The Open Source CFD Toolbox           |
|  \\    /   O peration     | Version:  2506                                  |
|   \\  /    A nd           | Website:  www.openfoam.com                      |
|    \\/     M anipulation  |                                                 |
\*---------------------------------------------------------------------------*/
FoamFile
{
    version     2.0;
    format      ascii;
    arch        "LSB;label=32;scalar=64";
    class       volScalarField;
    location    "1.8";
    object      nut;
}
// * * * * * * * * * * * * * * * * * * * * * * * * * * * * * * * * * * * * * //

dimensions      [0 2 -1 0 0 0 0];

internalField   nonuniform List<scalar> 
1375
(
0.07322636
0.073778973
0.096362395
0.12222606
0.1439333
0.15966944
0.074357973
0.097118038
0.12303533
0.14465182
0.16019974
0.17001721
0.17542481
0.17799547
0.17903306
0.17913856
0.074935175
0.097914553
0.12388691
0.14539579
0.16073747
0.17032531
0.17553887
0.17798387
0.17893596
0.17901528
0.1789249
0.17883825
0.17865968
0.17854956
0.17852238
0.075470491
0.098699085
0.12474217
0.14614381
0.16127401
0.17062813
0.17564789
0.17797037
0.17883876
0.17889418
0.17879928
0.1787161
0.1785292
0.17843707
0.17841327
0.17840173
0.17840398
0.17841599
0.1784345
0.17845758
0.075928968
0.099411045
0.12554657
0.14685711
0.16178627
0.17091421
0.17574718
0.17795277
0.17874126
0.17877461
0.1786768
0.17859454
0.17840215
0.17832642
0.17830533
0.17829598
0.17829987
0.17831289
0.17833201
0.17835542
0.17838206
0.17841132
0.17844291
0.17847669
0.17851261
0.076302567
0.10002432
0.12627158
0.1475121
0.16225793
0.17117396
0.17583166
0.17792785
0.17864238
0.17865622
0.17855754
0.17847244
0.17827895
0.17821739
0.17819849
0.17819117
0.17819656
0.1782105
0.1782301
0.17825372
0.1782804
0.17830958
0.17834096
0.17837447
0.17841015
0.17844813
0.17848853
0.17853141
0.17857688
0.076605324
0.10054119
0.12691238
0.1481023
0.16268342
0.17140358
0.17589875
0.17789336
0.17854107
0.17853848
0.17844056
0.17834975
0.17815944
0.1781099
0.17809282
0.17808739
0.17809411
0.1781088
0.17812875
0.17815243
0.17817903
0.17820808
0.17823931
0.17827261
0.1783081
0.17834581
0.17838574
0.17842806
0.17847306
0.17852098
0.17857206
0.1786266
0.17868485
0.076867965
0.10098811
0.12748305
0.14863396
0.16306519
0.17160396
0.17594853
0.1778488
0.17843686
0.17842098
0.17832494
0.17822646
0.17804331
0.17800386
0.17798836
0.17798464
0.17799248
0.17800773
0.1780279
0.17805161
0.17807811
0.178107
0.178138
0.17817102
0.17820615
0.17824354
0.17828316
0.17832503
0.17836952
0.17841689
0.17846727
0.17852095
0.17857856
0.17864057
0.1787074
0.17877945
0.077136084
0.10142264
0.12802351
0.14912991
0.16341464
0.17178016
0.17598285
0.17779476
0.17832963
0.17830335
0.17820992
0.17810258
0.17793014
0.17789897
0.17788491
0.17788276
0.17789154
0.17790724
0.17792755
0.17795119
0.17797749
0.17800608
0.17803684
0.17806972
0.17810475
0.17814193
0.17818115
0.17822249
0.17826616
0.17831274
0.17836238
0.17841547
0.17847243
0.17853371
0.17859959
0.17867061
0.17874736
0.17883063
0.17892211
0.077448877
0.10190495
0.12858082
0.14961989
0.16374802
0.17193992
0.17600505
0.17773285
0.17821973
0.17818547
0.178095
0.17797837
0.17781938
0.17779475
0.17778205
0.17778133
0.17779089
0.17780692
0.17782731
0.17785093
0.17787714
0.17790564
0.17793625
0.17796884
0.17800337
0.17803993
0.17807872
0.17812
0.1781637
0.17820987
0.17825876
0.17831091
0.1783667
0.17842682
0.17849162
0.17856159
0.17863727
0.17871966
0.17881004
0.17891113
0.17902841
0.17916922
0.077820765
0.10246838
0.12918642
0.15012667
0.16407962
0.17209133
0.17601941
0.17766572
0.17810818
0.17806766
0.17798026
0.17785446
0.17771079
0.17769113
0.17767978
0.17768041
0.17769065
0.17770695
0.17772744
0.17775102
0.17777712
0.17780548
0.17783594
0.17786829
0.17790252
0.17793881
0.17797738
0.17801812
0.17806097
0.17810641
0.17815477
0.17820631
0.17826171
0.17832119
0.17838505
0.1784537
0.17852782
0.1786085
0.17869755
0.17879792
0.17891534
0.17905642
0.17922816
0.17942779
0.078248589
0.10312616
0.12985961
0.15066726
0.1644214
0.17224174
0.17603019
0.17759614
0.17799614
0.17795044
0.17786596
0.17773162
0.17760429
0.17758835
0.1775784
0.17758036
0.17759127
0.17760783
0.17762834
0.17765182
0.1776778
0.17770611
0.17773651
0.1777687
0.17780263
0.17783843
0.17787622
0.17791604
0.17795812
0.17800325
0.17805141
0.17810237
0.17815674
0.17821504
0.17827789
0.17834546
0.17841834
0.17849824
0.17858616
0.17868552
0.17880225
0.1789431
0.17911508
0.17931233
0.17948982
0.17945667
0.1781861
0.078716653
0.10386653
0.13059978
0.15124613
0.16477837
0.17239493
0.17603997
0.17752606
0.17788445
0.17783418
0.17775234
0.17761043
0.17749954
0.17748628
0.17747774
0.17748097
0.17749258
0.17750946
0.17753008
0.17755361
0.17757951
0.1776074
0.17763703
0.17766842
0.17770205
0.17773774
0.17777541
0.17781496
0.17785678
0.17790118
0.17794818
0.17799815
0.17805175
0.17810897
0.17817078
0.17823716
0.17830924
0.17838756
0.17847395
0.1785728
0.17868924
0.17883093
0.17900268
0.17919657
0.17936204
0.17928915
0.177833
0.16831403
0.15179689
0.079200433
0.10465306
0.13138792
0.15185868
0.16515256
0.17255439
0.17605164
0.17745767
0.17777418
0.17771945
0.17763988
0.17749156
0.17739645
0.17738496
0.17737765
0.17738192
0.17739404
0.17741113
0.17743176
0.1774551
0.17748068
0.17750818
0.1775375
0.1775686
0.17760154
0.17763683
0.1776743
0.17771347
0.17775459
0.17779851
0.1778452
0.17789521
0.17794824
0.17800468
0.17806491
0.17812949
0.1781996
0.17827611
0.17836164
0.17845982
0.17857615
0.17871783
0.17888905
0.17907955
0.17923255
0.17911323
0.17744785
0.16721381
0.15083276
0.079687117
0.10545573
0.13220871
0.15250365
0.1655491
0.17272586
0.17606925
0.17739352
0.17766632
0.1776066
0.17752894
0.17737523
0.17729495
0.17728457
0.17727829
0.17728335
0.17729581
0.177313
0.17733357
0.17735674
0.17738199
0.17740902
0.1774378
0.17746843
0.17750091
0.17753544
0.17757232
0.17761116
0.17765218
0.17769579
0.17774159
0.17779045
0.17784276
0.17789889
0.17795867
0.17802257
0.17809153
0.17816666
0.17825079
0.17834747
0.17846331
0.17860484
0.17877533
0.17896144
0.17909932
0.17892683
0.17701909
0.16591238
0.14959813
0.080183399
0.10626087
0.13305428
0.15318118
0.16597202
0.17291362
0.17609566
0.17733518
0.17756139
0.17749569
0.17741951
0.1772612
0.17719478
0.17718506
0.17717971
0.17718542
0.17719806
0.17721517
0.17723548
0.17725827
0.1772831
0.17730976
0.17733821
0.17736855
0.17740074
0.1774347
0.17747064
0.17750869
0.17754924
0.17759197
0.17763751
0.17768601
0.17773754
0.17779308
0.17785218
0.17791496
0.17798255
0.17805678
0.17813973
0.17823607
0.1783522
0.17849353
0.17866238
0.17884313
0.1789633
0.17873085
0.17654352
0.16461062
0.14959166
0.080698622
0.10705673
0.13391197
0.15388315
0.16641763
0.17311647
0.17613056
0.17728237
0.17745928
0.17738624
0.17731095
0.1771487
0.17709508
0.17708581
0.17708137
0.17708767
0.17710048
0.17711757
0.1771378
0.1771604
0.17718496
0.17721123
0.1772391
0.17726865
0.1773001
0.17733357
0.17736919
0.17740706
0.17744723
0.17748977
0.17753523
0.17758293
0.17763318
0.17768744
0.17774531
0.17780702
0.17787394
0.177947
0.1780288
0.17812501
0.17824077
0.17838215
0.17854973
0.17872363
0.17882397
0.17852078
0.1760261
0.16343558
0.14986821
0.08124171
0.10784558
0.1347781
0.15460416
0.16688156
0.17333162
0.17617199
0.17723413
0.17735966
0.17727786
0.17720307
0.17703762
0.17699588
0.17698704
0.17698343
0.17699014
0.17700301
0.17702001
0.17704001
0.1770623
0.17708648
0.17711243
0.17714014
0.17716955
0.1772006
0.17723353
0.17726844
0.17730529
0.17734466
0.17738653
0.17743113
0.17747852
0.17752885
0.1775827
0.17763971
0.17770088
0.17776714
0.17783844
0.17791929
0.17801488
0.17813017
0.17827163
0.17843736
0.17860399
0.17868059
0.17829221
0.17545431
0.16219932
0.14987731
0.081814984
0.10863807
0.13565345
0.15533823
0.1673564
0.17355323
0.17621611
0.17718855
0.17726204
0.17717053
0.17709603
0.17692814
0.17689733
0.17688878
0.1768859
0.17689293
0.1769058
0.1769226
0.17694229
0.17696427
0.17698822
0.17701396
0.1770415
0.17707065
0.1771012
0.17713349
0.17716775
0.17720369
0.17724198
0.1772832
0.17732714
0.17737401
0.1774241
0.17747696
0.17753265
0.17759293
0.17765877
0.17772959
0.17781125
0.17790685
0.17802281
0.17816428
0.17832696
0.17848369
0.17853097
0.17804767
0.17481452
0.16082873
0.14992542
0.082408307
0.1094381
0.13653074
0.15607033
0.16782629
0.17376852
0.17626118
0.17713865
0.17716471
0.1770648
0.17698818
0.17682033
0.17679908
0.17679084
0.17678881
0.17679625
0.17680919
0.17682586
0.17684527
0.17686684
0.1768902
0.17691516
0.17694184
0.17697052
0.17700129
0.17703409
0.1770684
0.17710384
0.17714139
0.17718159
0.17722443
0.1772703
0.17731948
0.17737124
0.17742562
0.17748499
0.17754951
0.17762008
0.17770192
0.17779759
0.17791456
0.17805606
0.17821608
0.17836295
0.17837904
0.17778018
0.17407739
0.15911519
0.15006695
0.083003829
0.1102415
0.13739683
0.15678097
0.16827225
0.17396458
0.17629958
0.17707951
0.17706601
0.17695969
0.17687882
0.17671369
0.17670044
0.17669251
0.17669136
0.17669929
0.17671236
0.17672898
0.17674824
0.17676959
0.1767927
0.17681738
0.17684356
0.17687141
0.17690127
0.17693318
0.17696686
0.17700215
0.1770397
0.17707955
0.17712198
0.17716741
0.17721581
0.17726669
0.1773201
0.17737836
0.17744099
0.17751127
0.17759276
0.17768884
0.17780695
0.17794821
0.1781048
0.1782392
0.17821729
0.17748057
0.17323198
0.15732909
0.15059247
0.083574727
0.11102821
0.13822968
0.15744843
0.16867727
0.1741316
0.17632359
0.17700969
0.17696527
0.17685467
0.17676846
0.17660837
0.17660168
0.17659398
0.17659366
0.17660198
0.1766152
0.17663178
0.17665091
0.17667212
0.17669512
0.17671967
0.17674555
0.17677276
0.17680176
0.17683268
0.17686542
0.17690024
0.17693718
0.17697609
0.17701769
0.17706214
0.17710945
0.17715956
0.17721267
0.17727046
0.17733225
0.1774029
0.17748439
0.17758177
0.17770075
0.17784154
0.17799405
0.17811402
0.17804777
0.1771458
0.17221586
0.15564038
0.151345
0.084100966
0.11178339
0.13901556
0.15806075
0.16903303
0.17426523
0.17632905
0.17692984
0.17686268
0.17674989
0.17665816
0.17650506
0.1765036
0.17649613
0.17649657
0.17650512
0.17651827
0.17653461
0.17655336
0.17657419
0.17659691
0.17662134
0.17664719
0.17667428
0.17670278
0.17673277
0.1767645
0.17679869
0.17683481
0.17687268
0.17691327
0.17695645
0.17700232
0.17705126
0.1771037
0.1771607
0.17722229
0.17729316
0.17737509
0.17747409
0.17759394
0.1777344
0.17788232
0.17798604
0.17786851
0.17677011
0.17112591
0.15399122
0.15237546
0.08457157
0.11249824
0.1397495
0.15861589
0.16933962
0.17436617
0.17631522
0.17684147
0.17675849
0.17664524
0.17654863
0.17640415
0.17640678
0.17639956
0.17640072
0.17640939
0.17642223
0.17643802
0.17645602
0.17647594
0.17649772
0.17652135
0.17654678
0.17657382
0.17660232
0.17663211
0.17666332
0.17669688
0.17673237
0.17676961
0.17680945
0.17685174
0.17689654
0.17694437
0.17699588
0.1770518
0.17711326
0.177184
0.17726659
0.1773669
0.17748748
0.17762694
0.17776856
0.17785345
0.17767338
0.17634824
0.16993524
0.15211089
0.15312438
0.084975666
0.11315255
0.14041879
0.15910986
0.16959852
0.17443725
0.17628399
0.17674653
0.17665315
0.1765407
0.17644016
0.17630551
0.1763111
0.17630396
0.17630562
0.17631416
0.1763265
0.17634159
0.17635877
0.17637775
0.17639847
0.17642098
0.17644543
0.17647185
0.17650006
0.1765298
0.1765609
0.17659388
0.17662889
0.17666579
0.17670504
0.17674674
0.1767907
0.17683743
0.17688807
0.17694303
0.1770044
0.17707517
0.17715873
0.1772603
0.1773819
0.17752004
0.17765362
0.17771496
0.17746251
0.17587465
0.16861963
0.1503439
0.1541362
0.085325459
0.11375228
0.14103211
0.15955355
0.16981985
0.1744855
0.17623988
0.17664741
0.17654733
0.17643641
0.17633285
0.17620876
0.17621624
0.17620903
0.17621092
0.17621914
0.17623093
0.17624537
0.17626189
0.17628018
0.17630007
0.17632158
0.1763449
0.17637024
0.17639766
0.17642698
0.17645782
0.17649022
0.17652482
0.17656146
0.17660026
0.1766415
0.17668461
0.17673011
0.17677968
0.17683364
0.17689469
0.17696564
0.17705056
0.17715379
0.17727634
0.17741228
0.17753602
0.17756979
0.17722991
0.17532084
0.16715601
0.14862603
0.15515627
0.085647887
0.11431984
0.14161148
0.15996631
0.17001795
0.17451978
0.17618825
0.17654644
0.17644177
0.1763326
0.17622668
0.17611349
0.17612201
0.17611472
0.17611677
0.17612465
0.1761359
0.17614969
0.17616556
0.17618329
0.17620264
0.17622346
0.17624584
0.17627006
0.17629634
0.17632478
0.17635507
0.17638694
0.1764211
0.17645742
0.17649577
0.17653652
0.17657897
0.17662363
0.17667244
0.17672594
0.17678714
0.17685889
0.17694548
0.17705042
0.17717333
0.17730546
0.17741712
0.17741856
0.1769684
0.17467524
0.16549816
0.14690419
0.155999
0.085971574
0.11487627
0.14217668
0.16036504
0.17020498
0.17454761
0.17613368
0.17644538
0.17633708
0.17622961
0.17612183
0.17601968
0.17602854
0.17602129
0.17602354
0.17603109
0.17604173
0.17605471
0.17606971
0.1760866
0.1761053
0.1761256
0.17614735
0.17617071
0.17619595
0.17622323
0.17625257
0.1762838
0.17631733
0.17635308
0.17639091
0.1764312
0.17647336
0.17651784
0.17656636
0.17661982
0.17668149
0.17675436
0.1768426
0.17694915
0.17707237
0.17720073
0.1772988
0.17725829
0.17666578
0.17390416
0.16356269
0.14524705
0.15695814
0.086316203
0.11544523
0.14274642
0.16076212
0.17038805
0.1745725
0.176078
0.17634454
0.17623307
0.17612709
0.17601791
0.17592693
0.17593555
0.17592841
0.17593083
0.17593799
0.17594793
0.17595999
0.17597391
0.17598969
0.17600734
0.17602681
0.17604793
0.17607063
0.17609501
0.1761212
0.17614946
0.17617991
0.17621256
0.17624748
0.17628483
0.17632471
0.17636677
0.17641149
0.17645999
0.1765133
0.17657491
0.17664871
0.17673854
0.17684653
0.17696978
0.17709266
0.17717354
0.17708005
0.17628384
0.17276371
0.16118142
0.14386717
0.15906271
0.086695209
0.11602533
0.14331647
0.16115379
0.17056526
0.17459405
0.1760215
0.17624487
0.17613048
0.17602585
0.17591609
0.17583607
0.17584395
0.17583698
0.17583945
0.17584623
0.17585559
0.17586687
0.17587982
0.17589443
0.17591081
0.17592908
0.17594923
0.17597109
0.17599465
0.17601992
0.17604718
0.17607673
0.1761085
0.17614249
0.17617915
0.17621846
0.17626015
0.1763049
0.17635347
0.17640722
0.17646946
0.17654457
0.17663666
0.17674642
0.17686934
0.17698656
0.17704582
0.17688436
0.17581213
0.17138582
0.15843521
0.14297984
0.16194776
0.087078386
0.11664162
0.14391787
0.16156135
0.17074641
0.17461399
0.17596217
0.17614265
0.17602542
0.175922
0.17581265
0.17574329
0.1757501
0.17574332
0.17574584
0.17575235
0.17576129
0.17577202
0.17578422
0.17579785
0.175813
0.17582986
0.1758486
0.17586924
0.17589172
0.175916
0.17594225
0.17597066
0.17600116
0.17603369
0.17606875
0.1761064
0.17614672
0.1761909
0.17624004
0.17629581
0.17636098
0.17643908
0.17653424
0.17664628
0.1767677
0.17687677
0.1769052
0.17664615
0.17516278
0.16976303
0.15534287
0.14313308
0.1663004
0.087472226
0.11717562
0.14442583
0.16189986
0.17089133
0.17462389
0.17590617
0.17605206
0.17593294
0.17583142
0.17572267
0.17566217
0.17566788
0.1756613
0.17566389
0.17567017
0.17567877
0.1756891
0.17570093
0.17571413
0.17572869
0.1757447
0.17576236
0.17578186
0.17580328
0.17582663
0.17585202
0.17587942
0.17590873
0.17593996
0.17597339
0.17600939
0.17604865
0.17609268
0.17614261
0.17620033
0.17626879
0.17635101
0.17644992
0.17656523
0.17668739
0.17678708
0.17678489
0.17645968
0.17466519
0.1679988
0.15247494
0.14348989
0.16976645
0.087962652
0.11807128
0.14530686
0.16247935
0.17113136
0.17463074
0.17580411
0.17589541
0.17577411
0.17567418
0.17556952
0.17552247
0.17552594
0.17551973
0.17552214
0.17552779
0.17553568
0.17554545
0.17555677
0.17556936
0.17558327
0.1755985
0.17561497
0.17563286
0.17565242
0.17567385
0.17569727
0.17572261
0.17574985
0.17577898
0.17580996
0.1758434
0.17588027
0.17592185
0.17597018
0.17602856
0.17610034
0.17618754
0.17629061
0.17640725
0.17652321
0.17659832
0.17651171
0.17590423
0.17283883
0.16420374
0.14782801
0.14530353
0.17520965
)
;

boundaryField
{
    Side
    {
        type            empty;
    }
    Inlet
    {
        type            calculated;
        value           nonuniform List<scalar> 
21
(
0.19936254
0.19937525
0.19939026
0.19940684
0.19942437
0.19944718
0.19947365
0.19950385
0.19954222
0.19957921
0.19961107
0.19964921
0.19969505
0.19975247
0.19983459
0.1999662
0.20014782
0.20035438
0.20052999
0.20072603
0.20050927
)
;
    }
    Airfoil
    {
        type            nutkWallFunction;
        blending        stepwise;
        value           nonuniform List<scalar> 0();
    }
    Outlet
    {
        type            calculated;
        value           nonuniform List<scalar> 
49
(
0.087962652
0.11807128
0.14530686
0.16247935
0.17113136
0.17463074
0.17580411
0.17589541
0.17577411
0.17567418
0.17556952
0.17552247
0.17552594
0.17551973
0.17552214
0.17552779
0.17553568
0.17554545
0.17555677
0.17556936
0.17558327
0.1755985
0.17561497
0.17563286
0.17565242
0.17567385
0.17569727
0.17572261
0.17574985
0.17577898
0.17580996
0.1758434
0.17588027
0.17592185
0.17597018
0.17602856
0.17610034
0.17618754
0.17629061
0.17640725
0.17652321
0.17659832
0.17651171
0.17590423
0.17283883
0.16420374
0.14782801
0.14530353
0.17520965
)
;
    }
    procBoundary6to5
    {
        type            processor;
        value           nonuniform List<scalar> 
61
(
0.07322589
0.095665349
0.12146073
0.14323142
0.15913411
0.16970532
0.16970532
0.17530421
0.17800357
0.1791281
0.17926327
0.17905206
0.17905206
0.17896177
0.17879329
0.17866403
0.17863254
0.17850855
0.17850855
0.17850897
0.17851976
0.17853745
0.17855999
0.17848405
0.17848405
0.17851327
0.17854492
0.17857886
0.17861507
0.17855082
0.17855082
0.17859146
0.17863457
0.17868041
0.17862524
0.17862524
0.17867665
0.17873167
0.17879057
0.17874747
0.17874747
0.17881479
0.17888753
0.17885716
0.17885716
0.17894154
0.17903376
0.17902412
0.17902412
0.17914142
0.17928162
0.17934079
0.17934079
0.17954217
0.17961524
0.17961524
0.1796173
0.17851041
0.16923337
0.16923337
0.15034498
)
;
    }
    procBoundary6to12
    {
        type            processor;
        value           uniform 0.072632429;
    }
    procBoundary6to13
    {
        type            processor;
        value           nonuniform List<scalar> 
34
(
0.095325132
0.073787689
0.073787689
0.074304551
0.074781888
0.075233746
0.075669156
0.076097484
0.076524465
0.07694017
0.077327783
0.077674347
0.077967421
0.078200556
0.078392861
0.078590667
0.078859739
0.079269459
0.079841593
0.080526646
0.081256991
0.081981752
0.082666977
0.083279872
0.083795023
0.084210073
0.084538681
0.084810616
0.085068593
0.085338191
0.085653865
0.085993993
0.086378731
0.086976875
)
;
    }
}


// ************************************************************************* //
