/*--------------------------------*- C++ -*----------------------------------*\
| =========                 |                                                 |
| \\      /  F ield         | OpenFOAM: The Open Source CFD Toolbox           |
|  \\    /   O peration     | Version:  2506                                  |
|   \\  /    A nd           | Website:  www.openfoam.com                      |
|    \\/     M anipulation  |                                                 |
\*---------------------------------------------------------------------------*/
FoamFile
{
    version     2.0;
    format      ascii;
    arch        "LSB;label=32;scalar=64";
    class       volScalarField;
    location    "0.003";
    object      nut;
}
// * * * * * * * * * * * * * * * * * * * * * * * * * * * * * * * * * * * * * //

dimensions      [0 2 -1 0 0 0 0];

internalField   nonuniform List<scalar> 
13761
(
5.5076168e-10
1.8862788e-09
3.570313e-08
3.1787336e-07
1.5566962e-06
4.9320527e-06
1.1290177e-05
2.0641584e-05
3.2626766e-05
4.6945161e-05
6.3440858e-05
8.2053982e-05
0.00010276927
0.00012560311
0.00015059385
0.00017779176
0.0002072554
0.00023904428
0.00027320753
0.00030979963
0.00034889443
0.00039056957
0.00043492019
0.00048208281
0.00053223875
0.00058564657
0.00064266494
0.00070377724
0.00076961882
0.00084097806
0.00091876543
0.0010039257
0.0010972446
0.0011990417
0.0013087081
0.0014240745
0.0015407518
0.0016516201
0.001746793
0.001814408
0.0018424283
0.0018216399
5.5164254e-10
1.8892434e-09
3.5758376e-08
3.1834966e-07
1.5588234e-06
4.9377714e-06
1.1300773e-05
2.065719e-05
3.2647072e-05
4.6970081e-05
6.3470895e-05
8.2090536e-05
0.00010281477
0.00012566101
0.00015066852
0.00017788824
0.00020737923
0.00023920139
0.0002734043
0.00031004313
0.00034919287
0.0003909328
0.00043536028
0.00048261465
0.00053288063
0.00058642069
0.00064359776
0.00070489984
0.00077096726
0.00084259368
0.00092069541
0.0010062238
0.001099972
0.0012022664
0.0013125054
0.0014285263
0.0015459414
0.0016575894
0.0017536108
5.523491e-10
1.8925747e-09
3.5825783e-08
3.1892809e-07
1.5613888e-06
4.9445989e-06
1.1313212e-05
2.0675001e-05
3.2669164e-05
4.6995055e-05
6.3497271e-05
8.2116946e-05
0.00010284018
0.00012568494
0.00015069121
0.00017791083
0.00020740382
0.00023923123
0.00027344398
0.0003100988
0.00034927256
0.00039104677
0.00043552138
0.00048283876
0.00053318725
0.00058683332
0.000644144
0.00070561186
0.00077188223
0.00084375446
0.00092215207
0.0010080361
0.0011022144
0.0012050185
0.001315855
0.0014325826
5.5285918e-10
1.8940238e-09
3.5851262e-08
3.1914422e-07
1.562313e-06
4.9468382e-06
1.1316588e-05
2.0678337e-05
3.2670781e-05
4.6993166e-05
6.3490267e-05
8.2103664e-05
0.0001028202
0.00012565887
0.00015066086
0.00017787936
0.00020737591
0.00023921307
0.00027344334
0.00031012511
0.00034933697
0.00039116236
0.00043570339
0.00048310517
0.00053355885
0.00058733566
0.00064480564
0.00070646323
0.00077295491
0.00084508033
0.0009237635
5.533238e-10
1.8959857e-09
3.5890435e-08
3.1948437e-07
1.5638468e-06
4.9510183e-06
1.1324462e-05
2.0690156e-05
3.2686459e-05
4.7012673e-05
6.3513814e-05
8.2131827e-05
0.00010285401
0.00012569989
0.00015071127
0.00017794205
0.00020745456
0.00023931231
0.00027356879
0.00031028342
0.00034953581
0.00039141036
0.00043601041
0.00048348436
5.5383462e-10
3.3483998e-10
1.0942033e-09
2.0453915e-08
1.8468208e-07
9.3720346e-07
3.1399442e-06
7.6431275e-06
1.4711463e-05
2.4128376e-05
3.559442e-05
4.8903995e-05
6.3940361e-05
8.063547e-05
9.8956141e-05
0.00011889362
0.00014045413
0.00016365537
0.00018852076
0.00021507092
0.00024333614
0.00027336523
0.00030521788
0.00033897036
0.00037473361
0.00041265446
0.00045293882
0.00049586786
0.00054181601
0.00059127208
0.00064484313
0.00070323764
0.00076720971
0.00083742737
0.0009142572
0.00099748576
0.0010858146
0.0011763603
0.0012642057
0.0013422376
0.0014015497
0.0014326306
0.001427276
0.0013807051
0.0012927457
0.0011671069
0.0010084017
0.00081851277
0.00059317727
0.0003000951
4.544474e-05
5.0212007e-06
3.8485581e-06
3.7942053e-06
3.7719344e-06
3.7646126e-06
3.7427911e-06
3.6889615e-06
3.6488251e-06
3.6985342e-06
3.8528098e-06
3.9657381e-06
3.947019e-06
3.9504452e-06
4.0131856e-06
3.9096244e-06
3.7584775e-06
3.8176975e-06
3.9250193e-06
3.7923257e-06
3.5825294e-06
3.5602902e-06
3.6730858e-06
3.3526032e-10
1.0961483e-09
2.0493573e-08
1.8503254e-07
9.3887446e-07
3.1449377e-06
7.6535221e-06
1.4728392e-05
2.4152263e-05
3.5625555e-05
4.8942816e-05
6.3987537e-05
8.0691983e-05
9.9023369e-05
0.00011897344
0.00014054899
0.00016376843
0.00018865589
0.00021523273
0.00024352994
0.00027359794
0.00030549569
0.00033929905
0.00037511783
0.00041309673
0.00045343839
0.00049641937
0.00054240854
0.00059188999
0.00064546485
0.00070383753
0.00076776382
0.00083792675
0.00091473071
0.00099798029
0.0010864196
0.0011772211
0.0012655276
0.0013442397
0.0014043931
0.0014363694
0.0014318303
0.0013858681
0.0012983365
0.0011730262
0.0010145671
0.0008249005
0.00059976184
0.00030828405
4.8249807e-05
5.2505713e-06
3.8509224e-06
3.7936246e-06
3.7713681e-06
3.7634151e-06
3.7411154e-06
3.6876456e-06
3.6484395e-06
3.6980647e-06
3.8519333e-06
3.9650241e-06
3.9466219e-06
3.9487199e-06
4.0114752e-06
3.9094372e-06
3.7589313e-06
3.8172029e-06
3.9236187e-06
3.793321e-06
3.584705e-06
3.5618399e-06
3.6735721e-06
3.7765545e-06
3.8116498e-06
3.8182061e-06
3.8144478e-06
3.8089563e-06
3.804632e-06
3.800037e-06
3.7971039e-06
3.7925367e-06
3.7877485e-06
3.357137e-10
1.098233e-09
2.0536146e-08
1.8540864e-07
9.4066873e-07
3.1503184e-06
7.6647779e-06
1.4746816e-05
2.4178363e-05
3.5659646e-05
4.8985342e-05
6.4039189e-05
8.0753804e-05
9.9096829e-05
0.00011906054
0.00014065236
0.00016389141
0.00018880265
0.00021540828
0.00024374023
0.00027385156
0.00030580181
0.00033966791
0.00037556099
0.00041362716
0.00045407047
0.00049716868
0.00054329101
0.00059291918
0.00064665523
0.00070520544
0.00076932776
0.00083970663
0.00091674683
0.0010002506
0.0010889553
0.0011800182
0.001268556
0.0013474886
0.0014079254
0.0014403062
0.0014363002
0.0013909497
0.0013039795
0.0011790686
0.0010208811
0.00083141001
0.00060652007
0.00031681969
5.110211e-05
5.2479691e-06
3.8504996e-06
3.7931247e-06
3.7708997e-06
3.7623051e-06
3.7395413e-06
3.686455e-06
3.6481528e-06
3.6977148e-06
3.8510875e-06
3.9640536e-06
3.9458765e-06
3.9469373e-06
4.0098128e-06
3.9094699e-06
3.7594826e-06
3.8165557e-06
3.9222357e-06
3.7943166e-06
3.5868453e-06
3.5633813e-06
3.6739976e-06
3.7768149e-06
3.8120092e-06
3.8187115e-06
3.8151257e-06
3.8097449e-06
3.8054265e-06
3.8009003e-06
3.7979562e-06
3.7935407e-06
3.7886833e-06
3.7906936e-06
3.7767352e-06
3.7818028e-06
3.7837065e-06
3.7496173e-06
3.7673796e-06
3.360998e-10
1.100385e-09
2.0581311e-08
1.8580241e-07
9.4251996e-07
3.1558175e-06
7.6762119e-06
1.4765427e-05
2.4204565e-05
3.5693652e-05
4.9027464e-05
6.4089948e-05
8.0813957e-05
9.9167414e-05
0.00011914289
0.00014074812
0.0001640025
0.00018893126
0.00021555684
0.00024391139
0.00027404618
0.00030602132
0.00033991415
0.00037583643
0.00041393519
0.0004544158
0.00049755789
0.00054373218
0.00059342159
0.00064722709
0.00070585328
0.00077005643
0.00084052016
0.00091765112
0.0010012596
0.0010901026
0.0011813777
0.001270252
0.0013496715
0.0014107291
0.0014438216
0.0014405537
0.0013958939
0.0013094992
0.001185033
0.0010271759
0.00083797456
0.0006133536
0.0003254518
5.4409186e-05
5.515664e-06
3.8532254e-06
3.7927367e-06
3.7705595e-06
3.7613395e-06
3.7381335e-06
3.6854403e-06
3.6480159e-06
3.6975142e-06
3.8503374e-06
3.9630812e-06
3.9451318e-06
3.9454866e-06
4.0081663e-06
3.9095572e-06
3.7601605e-06
3.8159643e-06
3.921136e-06
3.7953851e-06
3.5889921e-06
3.5649772e-06
3.6744971e-06
3.7771073e-06
3.8123935e-06
3.8192082e-06
3.8157771e-06
3.8104949e-06
3.8061854e-06
3.8017272e-06
3.79879e-06
3.7945168e-06
3.7896127e-06
3.7916935e-06
3.7778184e-06
3.7826754e-06
3.7847159e-06
3.7509229e-06
3.768152e-06
3.7860429e-06
3.7282606e-06
3.7111704e-06
3.7777939e-06
3.3661683e-10
1.102614e-09
2.0626356e-08
1.8620121e-07
9.4442114e-07
3.1614833e-06
7.6879711e-06
1.4784533e-05
2.4231465e-05
3.5728632e-05
4.9070977e-05
6.4142761e-05
8.087724e-05
9.9242824e-05
0.00011923265
0.00014085507
0.00016413019
0.00018908398
0.00021573964
0.00024413001
0.00027430932
0.0003063377
0.00034029251
0.00037628536
0.00041446295
0.00045502957
0.00049826319
0.00054453489
0.00059433105
0.00064825766
0.00070702113
0.00077137895
0.00084201517
0.00091933665
0.0010031538
0.0010922219
0.0011837297
0.0012728522
0.0013525622
0.0014139873
0.0014475296
0.0014447831
0.0014006735
0.001314788
0.0011907688
0.0010332565
0.00084431175
0.00061996146
0.00033373109
5.7299468e-05
5.5114959e-06
3.8524331e-06
3.7924523e-06
3.7703476e-06
3.7605384e-06
3.7369117e-06
3.684592e-06
3.6480139e-06
3.6975097e-06
3.8496996e-06
3.9621516e-06
3.9444564e-06
3.9445723e-06
4.0065276e-06
3.909645e-06
3.7609347e-06
3.8154423e-06
3.9204696e-06
3.7965194e-06
3.5911473e-06
3.5666368e-06
3.675071e-06
3.7774419e-06
3.8128088e-06
3.819725e-06
3.8164374e-06
3.8112391e-06
3.8069439e-06
3.8025307e-06
3.7996256e-06
3.7954722e-06
3.7905324e-06
3.7926566e-06
3.7788892e-06
3.7835583e-06
3.7856993e-06
3.7522646e-06
3.7689319e-06
3.7870819e-06
3.7300594e-06
3.7122437e-06
3.7787771e-06
3.770787e-06
3.7012878e-06
3.6716769e-06
3.3711345e-10
1.1050247e-09
2.0675764e-08
1.8663277e-07
9.4644942e-07
3.1674673e-06
7.7002869e-06
1.4804398e-05
2.4259262e-05
3.5764613e-05
4.9115568e-05
6.4196662e-05
8.0941444e-05
9.931864e-05
0.00011932173
0.00014095949
0.00016425248
0.00018922725
0.00021590771
0.00024432768
0.00027454138
0.00030661076
0.00034061494
0.00037666734
0.00041491682
0.00045557052
0.0004989095
0.00054530692
0.00059524944
0.00064934016
0.00070828775
0.00077285146
0.0008437156
0.00092128441
0.0010053623
0.0010946966
0.0011864701
0.0012758467
0.0013557875
0.0014174231
0.0014512171
0.001448805
0.001405119
0.0013197114
0.0011961133
0.0010389396
0.00085025084
0.00062615018
0.00034140098
6.0321791e-05
5.7878331e-06
3.85609e-06
3.7922613e-06
3.7702418e-06
3.7598893e-06
3.735862e-06
3.6838789e-06
3.6481167e-06
3.6976345e-06
3.8491499e-06
3.961265e-06
3.9438323e-06
3.9439127e-06
4.0050121e-06
3.9097408e-06
3.761777e-06
3.8149705e-06
3.9200233e-06
3.797706e-06
3.5933045e-06
3.5683406e-06
3.6757014e-06
3.7777875e-06
3.8132457e-06
3.820264e-06
3.8171086e-06
3.8119919e-06
3.8077165e-06
3.80332e-06
3.8004572e-06
3.7963873e-06
3.7914266e-06
3.7936009e-06
3.7799224e-06
3.784414e-06
3.7866545e-06
3.7536302e-06
3.7697209e-06
3.7881141e-06
3.7318927e-06
3.7133512e-06
3.7797274e-06
3.7722168e-06
3.7035501e-06
3.6732254e-06
3.7520788e-06
3.8547184e-06
3.3766972e-10
1.1073716e-09
2.0722763e-08
1.870469e-07
9.4840728e-07
3.1732266e-06
7.712034e-06
1.4823123e-05
2.4285146e-05
3.5797745e-05
4.9156297e-05
6.4245734e-05
8.1000084e-05
9.9388571e-05
0.00011940518
0.00014105916
0.00016437149
0.00018936897
0.0002160756
0.00024452501
0.00027476978
0.00030687147
0.00034090835
0.00037699276
0.00041527227
0.00045595295
0.00049931577
0.00054573498
0.00059569975
0.00064981856
0.00070880428
0.00077342211
0.0008443651
0.00092204937
0.0010062937
0.0010958603
0.0011879437
0.0012777116
0.0013581174
0.0014202691
0.0014545803
0.0014526595
0.0014094275
0.001324425
0.0012011526
0.0010442336
0.00085573649
0.00063183101
0.00034854921
6.3090506e-05
5.7830918e-06
3.8549429e-06
3.7921241e-06
3.7702154e-06
3.7593627e-06
3.7349398e-06
3.6832468e-06
3.6482889e-06
3.6977754e-06
3.8487103e-06
3.960412e-06
3.9432366e-06
3.943202e-06
4.0037805e-06
3.9098395e-06
3.7626526e-06
3.8145494e-06
3.9195323e-06
3.7988908e-06
3.5954485e-06
3.5700768e-06
3.6763664e-06
3.7781297e-06
3.8136872e-06
3.8208119e-06
3.8177755e-06
3.8127515e-06
3.8084905e-06
3.8041131e-06
3.8012751e-06
3.7972765e-06
3.7923025e-06
3.7944914e-06
3.7809122e-06
3.7852412e-06
3.7875785e-06
3.7549913e-06
3.7705099e-06
3.7891577e-06
3.7337196e-06
3.7144673e-06
3.7806286e-06
3.7736477e-06
3.7059012e-06
3.6748224e-06
3.7521862e-06
3.8544808e-06
3.9148762e-06
3.9563685e-06
3.3800634e-10
1.1094334e-09
2.0766666e-08
1.8743187e-07
9.5022039e-07
3.1785709e-06
7.7229901e-06
1.4840685e-05
2.4309518e-05
3.5828958e-05
4.9194524e-05
6.4291411e-05
8.1053968e-05
9.9451815e-05
0.0001194794
0.00014114649
0.00016447467
0.00018949143
0.00021622152
0.00024469927
0.00027497899
0.00030712283
0.0003412102
0.0003773542
0.00041570206
0.00045645835
0.00049990154
0.0005464029
0.00059645008
0.00065065425
0.00070972998
0.00077444554
0.00084549734
0.00092330545
0.0010076944
0.0010974355
0.0011897375
0.0012797865
0.0013605545
0.0014231589
0.0014580053
0.0014566265
0.0014138799
0.0013292843
0.0012063628
0.0010497133
0.00086140427
0.00063769343
0.00035575237
6.6060245e-05
6.0089797e-06
3.8590997e-06
3.7920673e-06
3.7702669e-06
3.758947e-06
3.734142e-06
3.6827012e-06
3.6485133e-06
3.6979807e-06
3.8482659e-06
3.9595612e-06
3.942664e-06
3.9423001e-06
4.0028256e-06
3.909989e-06
3.7635693e-06
3.8141401e-06
3.9188192e-06
3.8001106e-06
3.5976154e-06
3.5718329e-06
3.6770319e-06
3.7784548e-06
3.8141182e-06
3.8213547e-06
3.8184278e-06
3.8135065e-06
3.8092556e-06
3.8049055e-06
3.8020744e-06
3.7981567e-06
3.7931517e-06
3.7953579e-06
3.7818972e-06
3.7860355e-06
3.7884938e-06
3.7563265e-06
3.7712902e-06
3.790198e-06
3.7355288e-06
3.7155908e-06
3.7814866e-06
3.7750522e-06
3.708249e-06
3.6764097e-06
3.752338e-06
3.8541505e-06
3.9145437e-06
3.9563128e-06
3.9433885e-06
3.9497722e-06
3.3825134e-10
1.1113666e-09
2.0809468e-08
1.878114e-07
9.5202933e-07
3.1839776e-06
7.7342887e-06
1.4859235e-05
2.4335947e-05
3.5863723e-05
4.923821e-05
6.4344835e-05
8.1118227e-05
9.9528363e-05
0.00011957013
0.00014125384
0.00016460177
0.0001896422
0.00021640068
0.00024491253
0.00027523584
0.00030743331
0.00034158481
0.00037780435
0.00041624067
0.00045710063
0.00050066575
0.00054731038
0.00059752282
0.0006519096
0.00071118586
0.00077611863
0.00084740153
0.0009254502
0.0010100832
0.0011000655
0.0011926014
0.0012828775
0.001363873
0.0014267159
0.0014618131
0.0014607551
0.0014183934
0.0013341751
0.001211606
0.0010552548
0.00086717476
0.00064365174
0.00036308333
6.9413392e-05
6.2280124e-06
3.8615604e-06
3.7920832e-06
3.7703871e-06
3.7586235e-06
3.7334465e-06
3.6822296e-06
3.6487741e-06
3.6982531e-06
3.8477814e-06
3.9587016e-06
3.9421047e-06
3.9412185e-06
4.0019876e-06
3.9101875e-06
3.7645191e-06
3.8137394e-06
3.9178668e-06
3.8013657e-06
3.5998239e-06
3.573601e-06
3.6776828e-06
3.7787651e-06
3.8145343e-06
3.8218872e-06
3.8190633e-06
3.81425e-06
3.81001e-06
3.805693e-06
3.8028588e-06
3.7990299e-06
3.793996e-06
3.7962155e-06
3.7828844e-06
3.7868247e-06
3.7893963e-06
3.757632e-06
3.7720623e-06
3.7911988e-06
3.737335e-06
3.7167442e-06
3.7823317e-06
3.776423e-06
3.7105517e-06
3.6779734e-06
3.7525977e-06
3.8538365e-06
3.9140965e-06
3.9562308e-06
3.943307e-06
3.9496212e-06
3.9665968e-06
3.3847513e-10
1.1132003e-09
2.0849992e-08
1.8817015e-07
9.5373593e-07
3.1890637e-06
7.7448879e-06
1.4876627e-05
2.4360803e-05
3.5896608e-05
4.9279811e-05
6.4396002e-05
8.1179969e-05
9.9601804e-05
0.00011965647
0.00014135431
0.00016471755
0.0001897744
0.00021655038
0.00024508081
0.00027542068
0.00030763356
0.00034179998
0.00037803458
0.00041648696
0.00045736494
0.00050095084
0.00054762006
0.00059786398
0.0006522961
0.00071163752
0.00077666474
0.00084808446
0.00092632771
0.001011228
0.00110156
0.001194527
0.0012852991
0.0013668215
0.0014301797
0.0014657486
0.0014650839
0.00142306
0.0013391864
0.0012169297
0.0010608476
0.00087299437
0.00064968731
0.00037026183
7.2260107e-05
6.2048385e-06
3.8597065e-06
3.7921384e-06
3.7705587e-06
3.7583692e-06
3.7328342e-06
3.6818375e-06
3.6490639e-06
3.6984277e-06
3.8472362e-06
3.957837e-06
3.9415503e-06
3.9400668e-06
4.0010961e-06
3.9104381e-06
3.7655002e-06
3.8133543e-06
3.9168045e-06
3.8026647e-06
3.6020867e-06
3.5753792e-06
3.6783186e-06
3.7790676e-06
3.8149484e-06
3.8224187e-06
3.8196955e-06
3.8149858e-06
3.8107616e-06
3.8064785e-06
3.8036396e-06
3.7999035e-06
3.7948456e-06
3.7970827e-06
3.7838559e-06
3.7876179e-06
3.7902959e-06
3.7589011e-06
3.7728422e-06
3.7921678e-06
3.7391354e-06
3.7179355e-06
3.7831796e-06
3.7777811e-06
3.7128042e-06
3.6795238e-06
3.7529082e-06
3.8535612e-06
3.9136651e-06
3.9561216e-06
3.9431934e-06
3.9493854e-06
3.9664861e-06
3.9578673e-06
3.995497e-06
3.3869086e-10
1.1151621e-09
2.0893631e-08
1.885554e-07
9.5556545e-07
3.1945276e-06
7.7563481e-06
1.4895642e-05
2.4388398e-05
3.5933845e-05
4.9328038e-05
6.4456925e-05
8.1255672e-05
9.9694805e-05
0.0001197698
0.00014149161
0.00016488315
0.0001899733
0.00021678818
0.00024536338
0.00027575594
0.00030802775
0.00034225726
0.00037855634
0.00041707123
0.00045800616
0.00050164062
0.0005483495
0.00059862778
0.00065308706
0.0007124449
0.00077747489
0.00084888443
0.00092711188
0.0010120077
0.0011023748
0.0011954547
0.0012864589
0.0013683661
0.0014322694
0.0014685095
0.0014685604
0.0014271855
0.0013437967
0.0012218691
0.0010660335
0.00087837542
0.00065525793
0.00037711192
7.5667729e-05
6.6033889e-06
3.8675867e-06
3.792227e-06
3.7707608e-06
3.7581571e-06
3.7322846e-06
3.6815382e-06
3.6493919e-06
3.6985373e-06
3.846641e-06
3.9569736e-06
3.9409946e-06
3.9389433e-06
4.0000463e-06
3.9107315e-06
3.7665147e-06
3.8129914e-06
3.9157617e-06
3.8040133e-06
3.604409e-06
3.5771666e-06
3.6789487e-06
3.7793718e-06
3.8153699e-06
3.8229582e-06
3.8203321e-06
3.8157216e-06
3.8115183e-06
3.8072674e-06
3.8044256e-06
3.8007821e-06
3.7956954e-06
3.7979531e-06
3.784853e-06
3.7884221e-06
3.7911576e-06
3.7601789e-06
3.77364e-06
3.7931117e-06
3.7409433e-06
3.7191624e-06
3.7840289e-06
3.7791474e-06
3.715019e-06
3.6810704e-06
3.7532354e-06
3.8533301e-06
3.913262e-06
3.9559679e-06
3.9430907e-06
3.9490898e-06
3.9663523e-06
3.9577014e-06
3.995234e-06
4.0050851e-06
3.3893064e-10
1.1169853e-09
2.0933553e-08
1.8890946e-07
9.5724979e-07
3.1995281e-06
7.7667097e-06
1.4912562e-05
2.441251e-05
3.5965765e-05
4.9368617e-05
6.4507315e-05
8.1317331e-05
9.9769476e-05
0.00011985951
0.00014159867
0.00016501022
0.00019012352
0.0002169654
0.00024557272
0.00027600204
0.00030831877
0.00034260536
0.00037897865
0.00041759061
0.00045865149
0.00050244523
0.00054934629
0.00059984007
0.00065453701
0.00071415474
0.00077946568
0.00085117351
0.00092971005
0.0010149167
0.001105586
0.0011989497
0.0012902129
0.0013723529
0.0014364668
0.0014729026
0.0014731419
0.0014319599
0.0013487897
0.0012271116
0.0010715008
0.00088404615
0.00066116383
0.00038416926
7.8914849e-05
6.5988889e-06
3.8656085e-06
3.7923502e-06
3.7709938e-06
3.7579805e-06
3.7317857e-06
3.6813307e-06
3.6497747e-06
3.6987281e-06
3.8460183e-06
3.9561172e-06
3.9404399e-06
3.9378612e-06
3.9988473e-06
3.9110452e-06
3.7675608e-06
3.8126569e-06
3.9147854e-06
3.8053852e-06
3.6067722e-06
3.5789545e-06
3.6795851e-06
3.7796811e-06
3.8158065e-06
3.8235176e-06
3.8209802e-06
3.8164652e-06
3.8122837e-06
3.8080616e-06
3.805224e-06
3.8016604e-06
3.7965468e-06
3.7988233e-06
3.7858338e-06
3.7892496e-06
3.7920385e-06
3.7614846e-06
3.7744992e-06
3.7940697e-06
3.7427419e-06
3.7204255e-06
3.7848673e-06
3.7805215e-06
3.7171998e-06
3.6826193e-06
3.7535865e-06
3.8531302e-06
3.9128669e-06
3.9557669e-06
3.9430108e-06
3.948771e-06
3.966217e-06
3.95747e-06
3.9948315e-06
4.0049479e-06
3.9753425e-06
3.3910855e-10
1.1188218e-09
2.0974709e-08
1.892719e-07
9.5896482e-07
3.2046307e-06
7.7773566e-06
1.493011e-05
2.4437789e-05
3.5999645e-05
4.9412218e-05
6.456205e-05
8.1384891e-05
9.9851858e-05
0.00011995903
0.00014171799
0.00016515226
0.00019029136
0.00021716191
0.00024580014
0.00027626144
0.00030860914
0.00034292305
0.00037931697
0.00041793971
0.00045899891
0.0005027781
0.00054965612
0.00060012754
0.0006548068
0.00071441557
0.00077973238
0.00085146933
0.00093006911
0.0010153866
0.0011062302
0.0011998494
0.001291467
0.0013740734
0.0014387671
0.0014758766
0.0014768358
0.001436324
0.0013536687
0.0012323163
0.0010769412
0.00088967679
0.00066702999
0.00039126518
8.2618366e-05
7.001045e-06
3.8737349e-06
3.7925095e-06
3.7712699e-06
3.7578531e-06
3.7313317e-06
3.6811646e-06
3.6502117e-06
3.6990678e-06
3.8453991e-06
3.9552819e-06
3.9398995e-06
3.9368413e-06
3.9976008e-06
3.911345e-06
3.7686182e-06
3.8123639e-06
3.9138767e-06
3.8067238e-06
3.6091393e-06
3.5807336e-06
3.680233e-06
3.7799985e-06
3.816261e-06
3.8240968e-06
3.8216472e-06
3.8172253e-06
3.813066e-06
3.8088718e-06
3.8060426e-06
3.8025488e-06
3.7974211e-06
3.7997023e-06
3.7867947e-06
3.7901368e-06
3.7929768e-06
3.7628165e-06
3.7754131e-06
3.7950451e-06
3.7445499e-06
3.7217171e-06
3.7856827e-06
3.7818871e-06
3.7193442e-06
3.6841736e-06
3.75396e-06
3.8529522e-06
3.9124905e-06
3.9555122e-06
3.9429323e-06
3.9484872e-06
3.9660346e-06
3.9572149e-06
3.994364e-06
4.0047624e-06
3.9752348e-06
4.0066433e-06
3.3941231e-10
1.1206631e-09
2.1013715e-08
1.8961639e-07
9.6059641e-07
3.209455e-06
7.7872987e-06
1.4946202e-05
2.4460497e-05
3.6029452e-05
4.9449895e-05
6.4608698e-05
8.1441968e-05
9.9921162e-05
0.00012004273
0.00014181861
0.00016527277
0.00019043525
0.00021733338
0.00024600425
0.00027650468
0.00030889994
0.00034327214
0.00037973755
0.0004184474
0.00045961131
0.00050351332
0.00055052986
0.00060115477
0.00065600576
0.0007158082
0.00078134366
0.00085332577
0.00093219669
0.0010178081
0.0011089626
0.0012029011
0.0012948367
0.0013777503
0.0014427331
0.0014801084
0.0014813067
0.0014410406
0.0013586807
0.001237645
0.0010825206
0.00089546304
0.00067301597
0.00039821598
8.59698e-05
6.9930161e-06
3.871359e-06
3.7926862e-06
3.7716062e-06
3.7578026e-06
3.7309273e-06
3.6809683e-06
3.6506593e-06
3.699354e-06
3.8447972e-06
3.9544812e-06
3.9393884e-06
3.9358921e-06
3.9964001e-06
3.9116147e-06
3.7696519e-06
3.8121251e-06
3.9130296e-06
3.8079854e-06
3.6114794e-06
3.5824982e-06
3.680888e-06
3.7803422e-06
3.8167448e-06
3.8247011e-06
3.822334e-06
3.8180042e-06
3.8138745e-06
3.8097071e-06
3.8068904e-06
3.8034611e-06
3.7983259e-06
3.8005965e-06
3.7877805e-06
3.791056e-06
3.7939562e-06
3.7641897e-06
3.7763617e-06
3.7960451e-06
3.746367e-06
3.7230505e-06
3.7864483e-06
3.7832207e-06
3.7214476e-06
3.6857474e-06
3.7543679e-06
3.8528107e-06
3.9121275e-06
3.955239e-06
3.9428477e-06
3.9482244e-06
3.9658189e-06
3.956959e-06
3.9938651e-06
4.0045175e-06
3.9750949e-06
4.0064892e-06
4.0349712e-06
3.3967678e-10
1.1225535e-09
2.1054643e-08
1.8997671e-07
9.6230196e-07
3.2145217e-06
7.7978266e-06
1.4963435e-05
2.4485123e-05
3.6062166e-05
4.9491595e-05
6.4660534e-05
8.1505345e-05
9.9997775e-05
0.00012013459
0.00014192805
0.00016540238
0.00019058772
0.00021751127
0.00024620963
0.000276739
0.00030916286
0.00034356162
0.00038004987
0.00041877765
0.00045995422
0.000503865
0.00055088884
0.00060152033
0.00065637594
0.00071618124
0.0007817206
0.00085371444
0.00093261672
0.0010182966
0.0011095791
0.0012037305
0.0012959867
0.0013793425
0.0014448855
0.0014829121
0.001484802
0.0014451754
0.0013632996
0.0012425864
0.0010876998
0.0009008345
0.000678619
0.00040466189
8.9435919e-05
7.4136476e-06
3.8805011e-06
3.7929144e-06
3.7720053e-06
3.7578503e-06
3.7305831e-06
3.680729e-06
3.6510805e-06
3.6994856e-06
3.8442209e-06
3.953727e-06
3.9389198e-06
3.9349892e-06
3.9952734e-06
3.9118457e-06
3.7706433e-06
3.8119415e-06
3.9122359e-06
3.8091791e-06
3.6137881e-06
3.584245e-06
3.6815374e-06
3.7807294e-06
3.8172669e-06
3.825341e-06
3.8230558e-06
3.8188079e-06
3.8147147e-06
3.8105657e-06
3.8077672e-06
3.8043955e-06
3.7992559e-06
3.8015086e-06
3.7888094e-06
3.7919664e-06
3.7949155e-06
3.7656266e-06
3.777348e-06
3.7970354e-06
3.7481964e-06
3.7243694e-06
3.7872034e-06
3.7844988e-06
3.7235287e-06
3.6873654e-06
3.7547922e-06
3.8527252e-06
3.9117704e-06
3.9549758e-06
3.9427582e-06
3.9479894e-06
3.9656012e-06
3.9567182e-06
3.9933453e-06
4.0041906e-06
3.9749529e-06
4.0062682e-06
4.0347922e-06
3.9900809e-06
3.4010553e-10
1.1246482e-09
2.1097544e-08
1.9035363e-07
9.6408336e-07
3.219794e-06
7.8087113e-06
1.4981095e-05
2.451014e-05
3.6095192e-05
4.9533631e-05
6.4712957e-05
8.1569893e-05
0.00010007652
0.00012022994
0.00014204281
0.00016553979
0.00019075157
0.00021770604
0.00024644075
0.00027701461
0.00030949244
0.00034395621
0.00038052234
0.00041934232
0.00046062594
0.0005046575
0.00055181613
0.00060259874
0.00065762487
0.00071762259
0.0007833777
0.00085561032
0.0009347722
0.0010207283
0.0011122975
0.0012067385
0.0012992789
0.0013829056
0.0014486996
0.0014869537
0.0014890486
0.0014496209
0.0013679665
0.0012474635
0.0010927254
0.00090596627
0.00068386835
0.000410732
9.220817e-05
7.3819879e-06
3.8773667e-06
3.793114e-06
3.772454e-06
3.7579937e-06
3.7303056e-06
3.6804979e-06
3.6514691e-06
3.6998537e-06
3.8436815e-06
3.9530259e-06
3.9385031e-06
3.9341286e-06
3.9942106e-06
3.9122004e-06
3.7716173e-06
3.8118011e-06
3.9114779e-06
3.8103527e-06
3.6160919e-06
3.585979e-06
3.6821743e-06
3.7811475e-06
3.8178225e-06
3.826012e-06
3.8238123e-06
3.8196482e-06
3.8155892e-06
3.8114468e-06
3.8086718e-06
3.8053511e-06
3.8002129e-06
3.8024335e-06
3.7898792e-06
3.7928728e-06
3.7958688e-06
3.7670513e-06
3.7783869e-06
3.7979753e-06
3.7500041e-06
3.7257047e-06
3.787966e-06
3.7857396e-06
3.7255913e-06
3.6890461e-06
3.7552092e-06
3.8526533e-06
3.911408e-06
3.9547339e-06
3.942648e-06
3.9477827e-06
3.9654381e-06
3.956476e-06
3.9928069e-06
4.0037971e-06
3.9748218e-06
4.0060266e-06
4.0344878e-06
3.990175e-06
3.9781069e-06
3.4054807e-10
1.1267723e-09
2.1141106e-08
1.9073802e-07
9.6590781e-07
3.225219e-06
7.8199773e-06
1.4999527e-05
2.4536449e-05
3.6130065e-05
4.9577937e-05
6.4767793e-05
8.1636611e-05
0.00010015682
0.00012032596
0.00014215718
0.00016567567
0.00019091265
0.00021789644
0.00024666485
0.00027727568
0.00030979356
0.00034429957
0.00038090911
0.00041977301
0.00046110096
0.00050517829
0.00055238535
0.00060322017
0.00065830173
0.00071835837
0.00078417789
0.00085648558
0.00093574241
0.001021827
0.0011135764
0.0012082696
0.0013011539
0.0013852287
0.0014515719
0.0014904503
0.0014931651
0.0014542685
0.0013729929
0.00125272
0.0010981121
0.00091143393
0.00068951418
0.00041729631
9.6112821e-05
7.8597789e-06
3.8886996e-06
3.7933941e-06
3.7729352e-06
3.7582097e-06
3.7300947e-06
3.6803323e-06
3.6518535e-06
3.7004286e-06
3.8432029e-06
3.9523806e-06
3.9381436e-06
3.9333071e-06
3.9932098e-06
3.9126249e-06
3.7726235e-06
3.8116942e-06
3.9107454e-06
3.8115532e-06
3.6184293e-06
3.5877221e-06
3.682812e-06
3.7815751e-06
3.8183961e-06
3.8267037e-06
3.8245915e-06
3.820514e-06
3.8164946e-06
3.8123541e-06
3.8096119e-06
3.8063268e-06
3.8011999e-06
3.8033662e-06
3.7909753e-06
3.7937884e-06
3.7968233e-06
3.7684494e-06
3.7794103e-06
3.7989182e-06
3.751755e-06
3.7270806e-06
3.7887529e-06
3.7869641e-06
3.7276674e-06
3.6907745e-06
3.7556263e-06
3.8525489e-06
3.9110367e-06
3.9545007e-06
3.9425197e-06
3.9476096e-06
3.965329e-06
3.956209e-06
3.9922551e-06
4.003384e-06
3.9747002e-06
4.0057462e-06
4.0340903e-06
3.9903241e-06
3.9781683e-06
4.0414847e-06
3.4112133e-10
1.1290851e-09
2.1186806e-08
1.9113944e-07
9.6780333e-07
3.2308185e-06
7.831502e-06
1.5018154e-05
2.4562693e-05
3.616443e-05
4.962117e-05
6.4820904e-05
8.1700844e-05
0.00010023367
0.00012041722
0.000142265
0.0001658027
0.00019106215
0.00021807241
0.00024687224
0.00027751991
0.00031008152
0.00034463967
0.00038131105
0.00042024788
0.00046166181
0.00050583981
0.00055316312
0.0006041299
0.000659363
0.00071959479
0.0007856173
0.00085815945
0.00093768458
0.0010240719
0.001116156
0.0012112108
0.0013044746
0.001388934
0.0014556534
0.0014948847
0.001497964
0.0014594499
0.0013785463
0.0012585669
0.0011041639
0.00091763119
0.00069590126
0.00042478924
0.0001002834
7.9307567e-06
3.8866366e-06
3.7936625e-06
3.7734402e-06
3.7584701e-06
3.7299488e-06
3.6802691e-06
3.6522817e-06
3.700732e-06
3.84279e-06
3.9517898e-06
3.9378394e-06
3.9325243e-06
3.9922756e-06
3.9132093e-06
3.7736976e-06
3.8116137e-06
3.9100414e-06
3.8128094e-06
3.6208262e-06
3.5895059e-06
3.6834822e-06
3.7820095e-06
3.8189793e-06
3.8274059e-06
3.8253844e-06
3.8213915e-06
3.8174136e-06
3.8132847e-06
3.8105858e-06
3.8073154e-06
3.8022099e-06
3.8043049e-06
3.7920923e-06
3.7947193e-06
3.7977814e-06
3.7698498e-06
3.7803441e-06
3.7999385e-06
3.7534917e-06
3.7284941e-06
3.7895614e-06
3.7881744e-06
3.7298137e-06
3.6925158e-06
3.756053e-06
3.852445e-06
3.9106755e-06
3.9542463e-06
3.942413e-06
3.9474797e-06
3.9652115e-06
3.9559167e-06
3.9917106e-06
4.0029922e-06
3.9745748e-06
4.0053973e-06
4.0336488e-06
3.9904925e-06
3.9782605e-06
4.0414284e-06
4.0963998e-06
3.4177051e-10
1.1314914e-09
2.1233445e-08
1.9155015e-07
9.6974714e-07
3.2365573e-06
7.843289e-06
1.5037145e-05
2.4589291e-05
3.6198884e-05
4.9663805e-05
6.4872213e-05
8.1761544e-05
0.00010030483
0.00012050037
0.00014236221
0.00016591662
0.00019119594
0.00021822968
0.00024705676
0.00027773555
0.00031033183
0.00034492834
0.00038164155
0.00042062334
0.00046208568
0.00050631708
0.00055369987
0.00060473396
0.00066004238
0.00072035726
0.00078647056
0.0008591139
0.00093875743
0.0010252921
0.0011175698
0.0012128852
0.0013064987
0.0013914153
0.0014586948
0.0014985519
0.0015022484
0.0014642827
0.0013838296
0.0012642223
0.0011101153
0.00092382795
0.00070241541
0.00043238399
0.00010540265
8.4916067e-06
3.8989829e-06
3.7940239e-06
3.7739686e-06
3.7587556e-06
3.7298649e-06
3.6803197e-06
3.6528075e-06
3.7010209e-06
3.8424665e-06
3.9512487e-06
3.9375721e-06
3.9317808e-06
3.9913991e-06
3.91359e-06
3.7748359e-06
3.8115681e-06
3.9093791e-06
3.8140964e-06
3.6232662e-06
3.5913459e-06
3.6842206e-06
3.782462e-06
3.819572e-06
3.8281143e-06
3.8261834e-06
3.8222736e-06
3.8183332e-06
3.8142231e-06
3.8115701e-06
3.8083021e-06
3.8032368e-06
3.8052492e-06
3.7932306e-06
3.7956693e-06
3.7987697e-06
3.7712634e-06
3.7812477e-06
3.8010191e-06
3.7552611e-06
3.7299658e-06
3.7903744e-06
3.7894104e-06
3.732019e-06
3.6942548e-06
3.7565062e-06
3.8523804e-06
3.9103572e-06
3.9539548e-06
3.9423534e-06
3.9473808e-06
3.9650369e-06
3.9556251e-06
3.9912031e-06
4.0026268e-06
3.9744242e-06
4.0049819e-06
4.0332457e-06
3.9906437e-06
3.9783521e-06
4.0413109e-06
4.0963643e-06
4.0693011e-06
3.4260475e-10
1.1344856e-09
2.1290741e-08
1.9205136e-07
9.721026e-07
3.2434609e-06
7.8573489e-06
1.5059576e-05
2.4620393e-05
3.6238854e-05
4.9713048e-05
6.4931344e-05
8.1831391e-05
0.00010038642
0.00012059496
0.00014247139
0.0001660424
0.00019134095
0.00021839739
0.00024725179
0.00027796452
0.00031060288
0.00034525052
0.00038202487
0.00042107795
0.00046262056
0.00050693909