/*--------------------------------*- C++ -*----------------------------------*\
| =========                 |                                                 |
| \\      /  F ield         | OpenFOAM: The Open Source CFD Toolbox           |
|  \\    /   O peration     | Version:  2506                                  |
|   \\  /    A nd           | Website:  www.openfoam.com                      |
|    \\/     M anipulation  |                                                 |
\*---------------------------------------------------------------------------*/
FoamFile
{
    version     2.0;
    format      ascii;
    arch        "LSB;label=32;scalar=64";
    class       volScalarField;
    location    "0.007";
    object      alphat;
}
// * * * * * * * * * * * * * * * * * * * * * * * * * * * * * * * * * * * * * //

dimensions      [1 -1 -1 0 0 0 0];

internalField   nonuniform List<scalar> 
13761
(
2.3243807e-12
1.5156229e-10
3.723441e-09
3.3584258e-08
1.758072e-07
6.5663341e-07
1.9350513e-06
4.7299736e-06
9.8384462e-06
1.7740159e-05
2.8327241e-05
4.1008301e-05
5.4999008e-05
6.9560712e-05
8.4097553e-05
9.8176147e-05
0.00011151338
0.00012396841
0.00013552698
0.00014629326
0.00015646186
0.00016626941
0.00017594964
0.00018570293
0.00019568692
0.00020602207
0.00021681363
0.00022816803
0.00024018877
0.00025293185
0.00026637714
0.00028041247
0.00029482563
0.000309287
0.00032332151
0.00033627523
0.00034729731
0.00035535504
0.00035928272
0.0003577905
0.00034951615
0.00033363969
0.00030937331
0.00027660762
0.00023605033
0.00018820561
0.00013536281
8.4826449e-05
4.6318e-05
2.3039145e-05
1.1214181e-05
5.9282507e-06
3.81871e-06
3.0612737e-06
2.8149529e-06
2.7452161e-06
2.7299671e-06
2.725475e-06
2.712317e-06
2.6818444e-06
2.6452927e-06
2.6203071e-06
2.6025082e-06
2.5788341e-06
2.5641368e-06
2.5934169e-06
2.676621e-06
2.7781959e-06
2.8471565e-06
2.8596413e-06
2.8168609e-06
2.7291207e-06
2.6206433e-06
2.5233569e-06
2.4605744e-06
2.4378505e-06
2.4559372e-06
2.4919547e-06
2.4962413e-06
2.4715545e-06
2.4725266e-06
2.5155335e-06
2.5723372e-06
2.6443118e-06
2.7512739e-06
2.8579291e-06
2.8926997e-06
2.866834e-06
2.8405147e-06
2.8117252e-06
2.7572259e-06
2.6884717e-06
2.625464e-06
2.5714012e-06
2.5254035e-06
2.4857682e-06
2.4504893e-06
2.4234714e-06
2.4027356e-06
2.3790747e-06
2.3675195e-06
2.3684582e-06
2.3497219e-06
2.3410988e-06
2.3637352e-06
2.3796115e-06
2.3447435e-06
2.3015611e-06
2.2887791e-06
2.3085104e-06
2.3394151e-06
2.3715837e-06
2.4000482e-06
2.4140285e-06
2.4179466e-06
2.4256337e-06
2.4349287e-06
2.4289164e-06
2.4205469e-06
2.4244051e-06
2.4127195e-06
2.3984402e-06
2.4102135e-06
2.4288253e-06
2.3986842e-06
2.3518523e-06
2.330953e-06
2.3381781e-06
2.3625898e-06
2.3886829e-06
2.4072764e-06
2.4172843e-06
2.421439e-06
2.4227124e-06
2.4230098e-06
2.423099e-06
2.4231213e-06
2.4231357e-06
1.3560116e-12
7.2663466e-12
1.5021741e-10
1.3909476e-09
7.6728471e-09
3.0786811e-08
9.9613025e-08
2.7490642e-07
6.6776375e-07
1.4527694e-06
2.8616431e-06
5.1469612e-06
8.5252454e-06
1.3131718e-05
1.9005563e-05
2.6099897e-05
3.4306216e-05
4.3480511e-05
5.3465552e-05
6.4115718e-05
7.5315074e-05
8.6980689e-05
9.9068936e-05
0.00011158224
0.00012457258
0.0001380756
0.00015218213
0.00016699852
0.00018263812
0.00019919694
0.00021671382
0.00023512929
0.00025428294
0.00027387594
0.00029340887
0.00031211456
0.00032892971
0.00034252869
0.00035139439
0.00035395646
0.0003487977
0.00033487884
0.00031169782
0.00027927884
0.00023799824
0.00018865849
0.00013406919
8.2361027e-05
4.3876361e-05
2.1359076e-05
1.0297539e-05
5.5038771e-06
3.6447894e-06
2.9956927e-06
2.7921498e-06
2.7386107e-06
2.7289789e-06
2.7258355e-06
2.7119521e-06
2.6799616e-06
2.6432454e-06
2.6198068e-06
2.6029065e-06
2.578921e-06
2.5654263e-06
2.5988215e-06
2.6864519e-06
2.7890991e-06
2.8552681e-06
2.8637204e-06
2.817488e-06
2.7273841e-06
2.6182382e-06
2.522064e-06
2.4613499e-06
2.4406107e-06
2.4604234e-06
2.4969482e-06
2.500245e-06
2.4750299e-06
2.4769994e-06
2.5210995e-06
2.5779795e-06
2.6492431e-06
2.7554119e-06
2.8613585e-06
2.8956059e-06
2.8692074e-06
2.8420053e-06
2.8124509e-06
2.7576605e-06
2.6887929e-06
2.6255348e-06
2.5712337e-06
2.5250855e-06
2.4853706e-06
2.4501124e-06
2.4230627e-06
2.4021703e-06
2.3785699e-06
2.3671429e-06
2.3680157e-06
2.3492264e-06
2.340804e-06
2.3636015e-06
2.3792393e-06
2.3441382e-06
2.3009036e-06
2.2881996e-06
2.3081253e-06
2.3391681e-06
2.371387e-06
2.3998799e-06
2.4139102e-06
2.4178804e-06
2.4256025e-06
2.4348874e-06
2.4288949e-06
2.4205549e-06
2.4243183e-06
2.4126109e-06
2.3983832e-06
2.4102011e-06
2.4287458e-06
2.3985323e-06
2.3517458e-06
2.3308794e-06
2.3381202e-06
2.3625768e-06
2.3886839e-06
2.4072731e-06
2.4172767e-06
2.4214269e-06
2.4227041e-06
2.423013e-06
2.4231062e-06
2.4231223e-06
2.4231507e-06
4.7259271e-14
5.4212722e-12
1.3525585e-10
1.2783342e-09
7.1649904e-09
2.9255675e-08
9.6553776e-08
2.7241345e-07
6.7729022e-07
1.5060079e-06
3.0160631e-06
5.4691825e-06
9.0514394e-06
1.3836192e-05
1.9805382e-05
2.6889096e-05
3.4993745e-05
4.4013854e-05
5.3836023e-05
6.4349817e-05
7.5459636e-05
8.7087757e-05
9.918363e-05
0.00011173284
0.00012475563
0.00013830796
0.00015247723
0.00016737869
0.00018310448
0.0001997381
0.00021733599
0.00023589016
0.00025527441
0.00027520466
0.00029517265
0.00031435878
0.0003316183
0.00034554921
0.00035454946
0.00035695872
0.00035128779
0.00033647379
0.00031205744
0.00027816117
0.0002352918
0.00018442705
0.00012877397
7.7188307e-05
4.0058107e-05
1.9125341e-05
9.1931807e-06
5.0288696e-06
3.4648951e-06
2.9349634e-06
2.7746459e-06
2.7356662e-06
2.7302151e-06
2.7275136e-06
2.7122797e-06
2.6783865e-06
2.6416223e-06
2.6200947e-06
2.6041101e-06
2.5796539e-06
2.567694e-06
2.6060272e-06
2.6986499e-06
2.8021208e-06
2.8647022e-06
2.8684005e-06
2.8182324e-06
2.7254918e-06
2.6157046e-06
2.5209481e-06
2.4627002e-06
2.4442874e-06
2.4661218e-06
2.5031612e-06
2.5052013e-06
2.4793557e-06
2.4824968e-06
2.5277912e-06
2.5845941e-06
2.6548953e-06
2.7602211e-06
2.8655024e-06
2.8991397e-06
2.8719407e-06
2.8436305e-06
2.8132443e-06
2.7581632e-06
2.6891498e-06
2.6255757e-06
2.570994e-06
2.5246754e-06
2.4848742e-06
2.4496413e-06
2.4225534e-06
2.4014817e-06
2.3779568e-06
2.366696e-06
2.3674902e-06
2.3486311e-06
2.3404598e-06
2.3634659e-06
2.3788039e-06
2.3434027e-06
2.3000982e-06
2.287526e-06
2.307701e-06
2.3388999e-06
2.3711817e-06
2.3997104e-06
2.4137765e-06
2.4178039e-06
2.4255822e-06
2.4348538e-06
2.4288626e-06
2.4205346e-06
2.4241964e-06
2.4124981e-06
2.3983384e-06
2.4101854e-06
2.4286382e-06
2.3983643e-06
2.3516535e-06
2.3308207e-06
2.3380725e-06
2.3625674e-06
2.3886859e-06
2.4072698e-06
2.4172684e-06
2.421415e-06
2.4226991e-06
2.4230199e-06
2.4231106e-06
2.4231258e-06
2.4231746e-06
2.4581943e-13
3.7800685e-12
8.9090254e-11
8.411524e-10
4.7231442e-09
1.9339098e-08
6.4063605e-08
1.8165147e-07
4.5486575e-07
1.0222776e-06
2.0793578e-06
3.8492846e-06
6.5278321e-06
1.0240374e-05
1.5036999e-05
2.0912866e-05
2.7830165e-05
3.5729814e-05
4.4535509e-05
5.4163656e-05
6.4534613e-05
7.5576663e-05
8.7236441e-05
9.9489528e-05
0.00011234147
0.00012583135
0.00014002798
0.00015502231
0.00017091704
0.00018780837
0.00020576128
0.00022477657
0.00024474492
0.00026539407
0.00028622736
0.00030645814
0.00032496736
0.00034030122
0.00035074063
0.00035446624
0.00034981663
0.00033558356
0.00031123064
0.00027689105
0.00023315444
0.00018115065
0.00012449399
7.2853502e-05
3.6806553e-05
1.7212401e-05
8.247205e-06
4.6241018e-06
3.312971e-06
2.884602e-06
2.7612426e-06
2.7347317e-06
2.7326876e-06
2.7300677e-06
2.7132246e-06
2.6773226e-06
2.6406912e-06
2.621222e-06
2.6059602e-06
2.5808667e-06
2.5706991e-06
2.6143896e-06
2.7120572e-06
2.8159442e-06
2.874477e-06
2.8732065e-06
2.8190268e-06
2.7236399e-06
2.6133165e-06
2.5201588e-06
2.4645339e-06
2.4485671e-06
2.4725381e-06
2.5100541e-06
2.5107081e-06
2.4842036e-06
2.4885327e-06
2.5349222e-06
2.591437e-06
2.6606112e-06
2.7652055e-06
2.8700199e-06
2.9030314e-06
2.8747768e-06
2.8452082e-06
2.8140186e-06
2.7586836e-06
2.6894888e-06
2.6255494e-06
2.5706738e-06
2.5241876e-06
2.4843081e-06
2.4491067e-06
2.421976e-06
2.4007162e-06
2.3772804e-06
2.3662115e-06
2.366911e-06
2.3479785e-06
2.3400917e-06
2.3633305e-06
2.3783217e-06
2.3425891e-06
2.2992055e-06
2.2868074e-06
2.3072608e-06
2.3386276e-06
2.3709721e-06
2.3995373e-06
2.4136415e-06
2.4177244e-06
2.4255608e-06
2.434823e-06
2.4288378e-06
2.420519e-06
2.4240709e-06
2.4123755e-06
2.3982875e-06
2.4101727e-06
2.4285247e-06
2.398181e-06
2.3515482e-06
2.3307543e-06
2.3380262e-06
2.362562e-06
2.3886899e-06
2.4072662e-06
2.4172591e-06
2.4214044e-06
2.4226982e-06
2.4230291e-06
2.4231122e-06
2.4231348e-06
2.1096647e-13
4.3099976e-12
1.0310957e-10
9.7430973e-10
5.472441e-09
2.2409181e-08
7.4206315e-08
2.1011538e-07
5.2440807e-07
1.1713717e-06
2.3601113e-06
4.3146168e-06
7.212907e-06
1.1151393e-05
1.6153275e-05
2.219645e-05
2.9235974e-05
3.7213256e-05
4.6057573e-05
5.5693665e-05
6.6051021e-05
7.7066337e-05
8.8693074e-05
0.00010091168
0.00011373084
0.00012719157
0.00014136399
0.00015634019
0.00017222399
0.00018911249
0.00020707062
0.00022609695
0.00024607613
0.00026672408
0.00028752492
0.0003076642
0.00032598705
0.00034099962
0.00035094652
0.00035398702
0.00034846455
0.00033320751
0.00030774022
0.00027225765
0.00022739474
0.00017437288
0.00011726537
6.6610229e-05
3.2698987e-05
1.5048141e-05
7.2764081e-06
4.2440819e-06
3.1812984e-06
2.8444667e-06
2.7524252e-06
2.7359091e-06
2.7362662e-06
2.7333307e-06
2.7146849e-06
2.6767805e-06
2.6405176e-06
2.6232006e-06
2.608429e-06
2.5825797e-06
2.5744607e-06
2.6237689e-06
2.7263186e-06
2.8301403e-06
2.8842835e-06
2.878012e-06
2.8198989e-06
2.7219715e-06
2.6112681e-06
2.5198612e-06
2.4669372e-06
2.4534562e-06
2.4795936e-06
2.5174935e-06
2.5166359e-06
2.4894343e-06
2.4948951e-06
2.5422132e-06
2.5982273e-06
2.6661802e-06
2.7702456e-06
2.8748344e-06
2.9071742e-06
2.8775877e-06
2.8466615e-06
2.8147553e-06
2.7592197e-06
2.6898026e-06
2.6254543e-06
2.5702811e-06
2.5236335e-06
2.4836849e-06
2.44852e-06
2.4213404e-06
2.3998873e-06
2.3765546e-06
2.3657006e-06
2.3662851e-06
2.3472814e-06
2.3397079e-06
2.3631959e-06
2.3777954e-06
2.3417092e-06
2.2982399e-06
2.2860582e-06
2.3068107e-06
2.3383504e-06
2.3707594e-06
2.3993608e-06
2.4135002e-06
2.4176419e-06
2.4255403e-06
2.4347897e-06
2.4288092e-06
2.4204999e-06
2.4239389e-06
2.4122465e-06
2.398236e-06
2.4101625e-06
2.4284033e-06
2.3979854e-06
2.3514369e-06
2.3306849e-06
2.337983e-06
2.3625602e-06
2.3886952e-06
2.4072622e-06
2.4172495e-06
2.4213963e-06
2.4227018e-06
2.4230385e-06
2.4231132e-06
2.42315e-06
4.519833e-13
4.8193566e-12
1.1050627e-10
1.0424213e-09
5.8527407e-09
2.3950446e-08
7.9192108e-08
2.2358793e-07
5.5534751e-07
1.231841e-06
2.4602974e-06
4.4551289e-06
7.380323e-06
1.13212e-05
1.6297143e-05
2.2288479e-05
2.9256283e-05
3.7149556e-05
4.5905427e-05
5.5455877e-05
6.5736256e-05
7.6687226e-05
8.8264076e-05
0.00010044708
0.00011324322
0.00012669104
0.00014085817
0.00015583473
0.00017172357
0.00018862158
0.00020659376
0.00022563792
0.00024563566
0.0002662957
0.00028708885
0.00030718013
0.00032538689
0.00034018289
0.00034978174
0.00035232198
0.00034614604
0.00033010575
0.00030376641
0.0002673614
0.00022154884
0.0001676315
0.00011018497
6.0655713e-05
2.8919735e-05
1.312838e-05
6.4470031e-06
3.9320126e-06
3.0775361e-06
2.8148898e-06
2.7476944e-06
2.7388283e-06
2.7407344e-06
2.7371792e-06
2.7166087e-06
2.6767793e-06
2.6411254e-06
2.6259855e-06
2.6114461e-06
2.5847721e-06
2.5789574e-06
2.6340337e-06
2.7411808e-06
2.844457e-06
2.8939903e-06
2.8828104e-06
2.8209263e-06
2.7206198e-06
2.6097076e-06
2.5201687e-06
2.4699634e-06
2.4589516e-06
2.4872206e-06
2.5253711e-06
2.5228739e-06
2.4949197e-06
2.5014043e-06
2.5494542e-06
2.6047854e-06
2.6715118e-06
2.7753229e-06
2.879927e-06
2.911491e-06
2.8802829e-06
2.8479503e-06
2.8154531e-06
2.7597697e-06
2.6900797e-06
2.625284e-06
2.5698169e-06
2.5230166e-06
2.483009e-06
2.4478849e-06
2.4206499e-06
2.3990007e-06
2.3757864e-06
2.3651693e-06
2.3656142e-06
2.346546e-06
2.3393127e-06
2.3630618e-06
2.3772247e-06
2.3407669e-06
2.2972092e-06
2.285286e-06
2.3063541e-06
2.3380696e-06
2.3705437e-06
2.3991811e-06
2.4133537e-06
2.4175564e-06
2.42552e-06
2.4347547e-06
2.4287786e-06
2.4204785e-06
2.4238014e-06
2.4121107e-06
2.3981827e-06
2.4101547e-06
2.4282754e-06
2.3977781e-06
2.3513189e-06
2.3306118e-06
2.3379425e-06
2.3625614e-06
2.3887014e-06
2.4072583e-06
2.4172404e-06
2.421392e-06
2.4227089e-06
2.4230461e-06
2.423117e-06
2.4231739e-06
6.5686319e-13
5.6539393e-12
1.2686934e-10
1.1955915e-09
6.7096714e-09
2.7432208e-08
9.0531676e-08
2.5468242e-07
6.2875062e-07
1.3821737e-06
2.7285972e-06
4.8761744e-06
7.9712641e-06
1.2079801e-05
1.7207826e-05
2.3329587e-05
3.0405077e-05
3.8385168e-05
4.7210425e-05
5.6816969e-05
6.7144307e-05
7.8136535e-05
8.9751338e-05
0.00010197027
0.00011480067
0.00012828094
0.00014247841
0.00015748305
0.00017339748
0.0001903178
0.00020830653
0.00022735602
0.00024733763
0.00026794365
0.00028862129
0.00030850545
0.00032637982
0.0003406871
0.0003496215
0.00035132418
0.00034416927
0.000327067
0.00029965017
0.00026219945
0.00021538782
0.00016059453
0.00010295311
5.481948e-05
2.5402246e-05
1.1431074e-05
5.7496961e-06
3.6819725e-06
2.9981985e-06
2.7942109e-06
2.7462915e-06
2.7431123e-06
2.7458921e-06
2.7415008e-06
2.7189468e-06
2.6773249e-06
2.6425102e-06
2.6295149e-06
2.6149523e-06
2.587439e-06
2.5841751e-06
2.6450767e-06
2.7564593e-06
2.8587444e-06
2.9035577e-06
2.8876484e-06
2.8222035e-06
2.7197077e-06
2.6087546e-06
2.52116e-06
2.4736357e-06
2.4650223e-06
2.4953258e-06
2.5335574e-06
2.5292844e-06
2.5005053e-06
2.5078781e-06
2.5564656e-06
2.6109907e-06
2.6765868e-06
2.7804659e-06
2.8852855e-06
2.915894e-06
2.8827781e-06
2.8490508e-06
2.8161185e-06
2.7603302e-06
2.6903078e-06
2.6250333e-06
2.5692822e-06
2.5223389e-06
2.482283e-06
2.4472038e-06
2.4199063e-06
2.3980599e-06
2.3749809e-06
2.3646222e-06
2.3648985e-06
2.3457771e-06
2.3389094e-06
2.3629278e-06
2.376609e-06
2.3397634e-06
2.2961193e-06
2.2844969e-06
2.3058933e-06
2.3377855e-06
2.3703251e-06
2.3989984e-06
2.4132016e-06
2.4174681e-06
2.4255e-06
2.4347177e-06
2.4287457e-06
2.4204541e-06
2.4236588e-06
2.4119688e-06
2.3981281e-06
2.4101494e-06
2.4281412e-06
2.3975601e-06
2.3511948e-06
2.3305351e-06
2.3379045e-06
2.3625654e-06
2.3887083e-06
2.4072549e-06
2.4172332e-06
2.4213921e-06
2.4227182e-06
2.4230505e-06
2.4231262e-06
9.8388704e-13
6.5955101e-12
1.4330163e-10
1.3484779e-09
7.5633342e-09
3.0889493e-08
1.0172133e-07
2.8502581e-07
6.991464e-07
1.5229308e-06
2.9725899e-06
5.2472861e-06
8.4766881e-06
1.2711598e-05
1.7949588e-05
2.4162619e-05
3.1312049e-05
3.9351894e-05
4.8226684e-05
5.7876655e-05
6.8244975e-05
7.927845e-05
9.0936278e-05
0.00010320038
0.00011607753
0.00012960511
0.00014384945
0.00015889969
0.00017485774
0.00019181866
0.00020984245
0.00022891616
0.00024890139
0.00026947472
0.00029006102
0.00030976665
0.00032734379
0.00034120636
0.00034953118
0.00035046281
0.00034240539
0.00032432227
0.00029590493
0.00025747044
0.00020969755
0.00015404307
9.6241639e-05
4.9544279e-05
2.2345506e-05
1.0014043e-05
5.1899629e-06
3.4884764e-06
2.9391874e-06
2.7805811e-06
2.747469e-06
2.7484519e-06
2.7516066e-06
2.7462328e-06
2.7216753e-06
2.6784184e-06
2.6446503e-06
2.6337286e-06
2.6189055e-06
2.5905828e-06
2.5901047e-06
2.6568311e-06
2.772059e-06
2.8729567e-06
2.9130161e-06
2.8925928e-06
2.8238058e-06
2.7193092e-06
2.6084619e-06
2.5228443e-06
2.4779167e-06
2.4715849e-06
2.5037753e-06
2.5418937e-06
2.5357014e-06
2.5060165e-06
2.5141445e-06
2.563112e-06
2.6167888e-06
2.6814523e-06
2.7857352e-06
2.8908921e-06
2.9202824e-06
2.884997e-06
2.8499535e-06
2.8167608e-06
2.7608921e-06
2.6904699e-06
2.6246954e-06
2.5686756e-06
2.5215999e-06
2.4815071e-06
2.4464767e-06
2.4191095e-06
2.3970671e-06
2.374142e-06
2.3640625e-06
2.3641382e-06
2.3449784e-06
2.3385005e-06
2.3627933e-06
2.3759476e-06
2.3386976e-06
2.2949754e-06
2.2836956e-06
2.3054303e-06
2.3374988e-06
2.3701041e-06
2.3988128e-06
2.4130443e-06
2.4173771e-06
2.42548e-06
2.4346786e-06
2.4287106e-06
2.4204267e-06
2.4235114e-06
2.4118208e-06
2.3980725e-06
2.4101464e-06
2.4280012e-06
2.3973316e-06
2.3510648e-06
2.3304547e-06
2.3378687e-06
2.3625717e-06
2.388716e-06
2.4072532e-06
2.4172291e-06
2.4213966e-06
2.4227275e-06
2.4230521e-06
2.4231415e-06
1.3771064e-12
7.7033454e-12
1.6247659e-10
1.5267852e-09
8.5582011e-09
3.4912052e-08
1.146974e-07
3.2001917e-07
7.7966712e-07
1.682316e-06
3.2461265e-06
5.6603886e-06
9.0381298e-06
1.3415876e-05
1.8783525e-05
2.5110743e-05
3.2359693e-05
4.0486661e-05
4.9439089e-05
5.9160308e-05
6.959632e-05
8.0696063e-05
9.2419961e-05
0.00010475025
0.00011769333
0.00013128592
0.00014559374
0.0001607055
0.00017672278
0.00019373963
0.00021181345
0.0002309254
0.00025092642
0.0002714762
0.00029197585
0.00031150224
0.00032877569
0.00034218243
0.00034988441
0.0003500332
0.0003410664
0.000322002
0.00029258815
0.00025317294
0.00020443543
0.00014791317
8.9984875e-05
4.4766412e-05
1.968837e-05
8.8319658e-06
4.7412072e-06
3.3388225e-06
2.8955691e-06
2.7723159e-06
2.7506529e-06
2.7546445e-06
2.7578082e-06
2.7513514e-06
2.7247931e-06
2.6800668e-06
2.6475263e-06
2.6385814e-06
2.6232861e-06
2.5942169e-06
2.5967413e-06
2.6692471e-06
2.7879203e-06
2.8870828e-06
2.9224052e-06
2.8976924e-06
2.8257709e-06
2.7194456e-06
2.6088185e-06
2.5251642e-06
2.4827075e-06
2.4784995e-06
2.5123912e-06
2.5501926e-06
2.5419422e-06
2.5112798e-06
2.5200602e-06
2.5693109e-06
2.6221894e-06
2.6862031e-06
2.7911927e-06
2.896701e-06
2.9245419e-06
2.8868777e-06
2.8506643e-06
2.8173919e-06
2.7614431e-06
2.6905494e-06
2.6242643e-06
2.5679949e-06
2.5207985e-06
2.4806812e-06
2.4457031e-06
2.4182592e-06
2.396024e-06
2.3732736e-06
2.3634928e-06
2.3633331e-06
2.344153e-06
2.3380882e-06
2.3626571e-06
2.37524e-06
2.3375671e-06
2.2937826e-06
2.2828863e-06
2.3049668e-06
2.33721e-06
2.369881e-06
2.3986249e-06
2.4128817e-06
2.4172834e-06
2.42546e-06
2.4346375e-06
2.4286732e-06
2.4203963e-06
2.4233598e-06
2.4116669e-06
2.398016e-06
2.4101456e-06
2.4278558e-06
2.3970931e-06
2.3509291e-06
2.3303705e-06
2.3378349e-06
2.36258e-06
2.3887247e-06
2.4072542e-06
2.4172292e-06
2.4214047e-06
2.4227347e-06
2.4230531e-06
2.4231653e-06
1.8562621e-12
8.9401726e-12
1.8308202e-10
1.7180238e-09
9.6241272e-09
3.9212447e-08
1.2850995e-07
3.5699113e-07
8.6378912e-07
1.8464414e-06
3.5234416e-06
6.0733734e-06
9.5936407e-06
1.4108505e-05
1.9601815e-05
2.6041709e-05
3.3391172e-05
4.1608357e-05
5.0643027e-05
6.0440941e-05
7.0950339e-05
8.2121847e-05
9.3916866e-05
0.00010631793
0.00011933122
0.00013299308
0.00014736899
0.00016254774
0.00017863098
0.00019571229
0.00021384692
0.00023301072
0.00025304448
0.00027359164
0.00029403042
0.00031340929
0.00033041807
0.00034341663
0.00035055289
0.00034998469
0.00034017982
0.0003202045
0.00028985476
0.00024950112
0.00019981785
0.00014242472
8.4369937e-05
4.0587283e-05
1.7452641e-05
7.8753912e-06
4.391007e-06
3.2256679e-06
2.8643055e-06
2.7683245e-06
2.7554401e-06
2.7615387e-06
2.7644487e-06
2.7568524e-06
2.7283302e-06
2.6823144e-06
2.6511405e-06
2.6440359e-06
2.6280869e-06
2.5983645e-06
2.6040597e-06
2.6822163e-06
2.8039092e-06
2.9010447e-06
2.931712e-06
2.9029544e-06
2.8281028e-06
2.7201081e-06
2.6097765e-06
2.5280173e-06
2.4878609e-06
2.4855776e-06
2.520956e-06
2.5582453e-06
2.547832e-06
2.5161543e-06
2.525529e-06
2.575036e-06
2.6272562e-06
2.6909506e-06
2.7968629e-06
2.9026158e-06
2.9285478e-06
2.8883826e-06
2.8512073e-06
2.8180265e-06
2.7619721e-06
2.6905356e-06
2.6237399e-06
2.5672413e-06
2.5199357e-06
2.479807e-06
2.4448839e-06
2.4173555e-06
2.3949329e-06
2.3723804e-06
2.3629151e-06
2.3624829e-06
2.3433047e-06
2.337675e-06
2.3625171e-06
2.3744849e-06
2.3363695e-06
2.2925471e-06
2.2820727e-06
2.3045038e-06
2.3369192e-06
2.3696559e-06
2.3984344e-06
2.4127138e-06
2.4171872e-06
2.4254399e-06
2.4345944e-06
2.4286337e-06
2.4203625e-06
2.4232044e-06
2.4115075e-06
2.3979589e-06
2.410147e-06
2.4277052e-06
2.3968451e-06
2.3507876e-06
2.3302822e-06
2.3378026e-06
2.3625901e-06
2.3887351e-06
2.4072592e-06
2.4172341e-06
2.4214148e-06
2.4227387e-06
2.4230568e-06
2.4007249e-12
1.0289976e-11
2.0518753e-10
1.9229208e-09
1.0765049e-08
4.3805904e-08
1.4320499e-07
3.9605465e-07
9.51779e-07
2.0159943e-06
3.8063358e-06
6.4903068e-06
1.0150689e-05
1.4800978e-05
2.0419836e-05
2.6973948e-05
3.4426689e-05
4.2737423e-05
5.1857566e-05
6.1734725e-05
7.2319013e-05
8.3562639e-05
9.5428098e-05
0.00010789859
0.00012098065
0.00013471084
0.00014915509
0.00016440289
0.00018055668
0.00019771016
0.00021591695
0.00023514815
0.00025523504
0.00027580545
0.00029621565
0.00031548682
0.00033227965
0.0003449287
0.00035156805
0.00035036008
0.00033979817
0.00031898921
0.00028776788
0.00024651926
0.00019590891
0.00013763818
7.9435119e-05
3.6998831e-05
1.5603526e-05
7.1136025e-06
4.1213831e-06
3.1410692e-06
2.8425599e-06
2.7676457e-06
2.7614781e-06
2.7689979e-06
2.771474e-06
2.7627151e-06
2.7322914e-06
2.6851668e-06
2.6554505e-06
2.6500179e-06
2.6332679e-06
2.6030043e-06
2.6119795e-06
2.6955804e-06
2.8198548e-06
2.9147259e-06
2.9408682e-06
2.9083148e-06
2.8307269e-06
2.721205e-06
2.6112054e-06
2.5312303e-06
2.4931771e-06
2.4925989e-06
2.5292449e-06
2.5658584e-06
2.5532312e-06
2.5205503e-06
2.5305186e-06
2.5803299e-06
2.6321037e-06
2.6958051e-06
2.802727e-06
2.9085033e-06
2.9321813e-06
2.8895003e-06
2.8516195e-06
2.8186764e-06
2.7624646e-06
2.6904188e-06
2.6231224e-06
2.5664151e-06
2.5190124e-06
2.478886e-06
2.4440193e-06
2.4163986e-06
2.3937963e-06
2.3714673e-06
2.3623306e-06
2.3615876e-06
2.3424368e-06
2.3372635e-06
2.3623704e-06
2.3736809e-06
2.335102e-06
2.2912752e-06
2.2812582e-06
2.3040419e-06
2.3366261e-06
2.3694287e-06
2.3982414e-06
2.4125405e-06
2.4170886e-06
2.4254195e-06
2.4345493e-06
2.4285919e-06
2.4203252e-06
2.4230456e-06
2.4113426e-06
2.3979014e-06
2.4101502e-06
2.4275498e-06
2.3965878e-06
2.3506404e-06
2.3301897e-06
2.3377718e-06
2.362602e-06
2.3887481e-06
2.4072691e-06
2.4172437e-06
2.4214247e-06
2.4227401e-06
2.423066e-06
2.98064e-12
1.1710154e-11
2.2840439e-10
2.1380292e-09
1.1962022e-08
4.8616053e-08
1.5853318e-07
4.3653021e-07
1.0420716e-06
2.1879369e-06
4.0897479e-06
6.9036523e-06
1.0698686e-05
1.5478669e-05
2.1217654e-05
2.7880888e-05
3.5431911e-05
4.3830978e-05
5.3030943e-05
6.2981263e-05
7.3633963e-05
8.4943116e-05
9.6872741e-05
0.0001094072
0.00012255392
0.00013635035
0.00015086343
0.00016618389
0.00018241543
0.00019965231
0.00021794705
0.00023726651
0.00025743316
0.00027806018
0.00029848312
0.00031769736
0.00033433589
0.00034670891
0.0003529361
0.00035118123
0.00033995695
0.00031840161
0.00028637866
0.00024428039
0.00019276055
0.00013359813
7.51963e-05
3.3972482e-05
1.409749e-05
6.5148774e-06
3.9157227e-06
3.078282e-06
2.8280125e-06
2.7694624e-06
2.7684308e-06
2.7768585e-06
2.7787846e-06
2.768865e-06
2.736622e-06
2.6885607e-06
2.6603437e-06
2.6563919e-06
2.6387296e-06
2.6080457e-06
2.6203459e-06
2.7091137e-06
2.8355302e-06
2.9279526e-06
2.9497367e-06
2.9136346e-06
2.8334938e-06
2.7225731e-06
2.6129126e-06
2.5345859e-06
2.4984341e-06
2.4993449e-06
2.5370596e-06
2.5728832e-06
2.5580617e-06
2.5244484e-06
2.535068e-06
2.5852977e-06
2.6368721e-06
2.7008418e-06
2.8087076e-06
2.9142013e-06
2.9353432e-06
2.8902491e-06
2.8519466e-06
2.8193474e-06
2.7629029e-06
2.6901908e-06
2.6224123e-06
2.565516e-06
2.5180294e-06
2.4779195e-06
2.4431091e-06
2.4153879e-06
2.3926168e-06
2.3705392e-06
2.3617393e-06
2.3606473e-06
2.3415528e-06
2.3368563e-06
2.3622138e-06
2.3728263e-06
2.3337617e-06
2.2899731e-06
2.2804459e-06
2.3035816e-06
2.3363308e-06
2.3691995e-06
2.398046e-06
2.412362e-06
2.4169876e-06
2.4253989e-06
2.4345023e-06
2.4285481e-06
2.4202842e-06
2.4228838e-06
2.4111724e-06
2.3978439e-06
2.4101552e-06
2.4273898e-06
2.3963213e-06
2.3504872e-06
2.3300928e-06
2.3377423e-06
2.3626161e-06
2.3887649e-06
2.4072844e-06
2.4172571e-06
2.4214325e-06
2.422741e-06
2.4230813e-06
3.5882019e-12
1.3173501e-11
2.5220876e-10
2.3585159e-09
1.3187871e-08
5.3532943e-08
1.7413922e-07
4.7745586e-07
1.132439e-06
2.3578349e-06
4.3660319e-06
7.3016299e-06
1.1220915e-05
1.6119262e-05
2.1966898e-05
2.8728053e-05
3.6366626e-05
4.4844006e-05
5.4114618e-05
6.4129952e-05
7.484423e-05
8.6213611e-05
9.8203984e-05
0.00011080122
0.00012401397
0.00013788088
0.00015247017
0.00016787402
0.00018419752
0.00020153571
0.0002199402
0.00023937397
0.00025965118
0.00028037131
0.00030085042
0.0003200597
0.000336606
0.00034877611
0.00035467457
0.00035246335
0.00034066794
0.00031844922
0.00028569028
0.00024278427
0.00019037018
0.00013029682
7.1624347e-05
3.1454152e-05
1.2884626e-05
6.048755e-06
3.7596816e-06
3.0318701e-06
2.818797e-06
2.773054e-06
2.7759489e-06
2.7849074e-06
2.7862156e-06
2.7751567e-06
2.7411918e-06
2.6923514e-06
2.665629e-06
2.6629542e-06
2.6443043e-06
2.6133234e-06
2.6289315e-06
2.7225304e-06
2.8506624e-06
2.9405055e-06
2.958128e-06
2.9187224e-06
2.8362074e-06
2.7240096e-06
2.6146796e-06
2.5378629e-06
2.5034276e-06
2.5056387e-06
2.5442619e-06
2.5792439e-06
2.5623247e-06
2.5279067e-06
2.5392818e-06
2.590085e-06
2.6416909e-06
2.7060686e-06
2.8146667e-06
2.9195381e-06
2.9379704e-06
2.8906773e-06
2.8522373e-06
2.8200371e-06
2.7632669e-06
2.6898448e-06
2.6216095e-06
2.5645434e-06
2.5169871e-06
2.4769088e-06
2.4421528e-06
2.4143227e-06
2.3913974e-06
2.3696011e-06
2.36114e-06
2.3596623e-06
2.340656e-06
2.3364563e-06
2.3620438e-06
2.3719184e-06
2.3323459e-06
2.2886471e-06
2.2796383e-06
2.3031235e-06
2.3360333e-06
2.3689683e-06
2.3978481e-06
2.4121781e-06
2.4168842e-06
2.425378e-06
2.4344535e-06
2.428502e-06
2.4202394e-06
2.4227193e-06
2.4109968e-06
2.3977866e-06
2.4101616e-06
2.4272255e-06
2.3960456e-06
2.3503275e-06
2.3299916e-06
2.3377144e-06
2.3626331e-06
2.3887867e-06
2.4073048e-06
2.4172724e-06
2.4214371e-06
2.4227449e-06
2.423105e-06
4.2512293e-12
1.4713312e-11
2.7681625e-10
2.5861463e-09
1.4452035e-08
5.8591106e-08
1.9011855e-07
5.1903763e-07
1.2232594e-06
2.526363e-06
4.6364838e-06
7.6867663e-06
1.1721882e-05
1.673003e-05
2.2678511e-05
2.9531001e-05
3.7251952e-05
4.5803999e-05
5.5143262e-05
6.5223273e-05
7.6000558e-05
8.7433496e-05
9.9489998e-05
0.00011215766
0.00012544662
0.00013939688
0.00015407807
0.00016958389
0.00018602079
0.00020348438
0.00022202512
0.00024160192
0.00026202057
0.00028286693
0.00030343803
0.00032268161
0.0003391793
0.00035119506
0.00035681802
0.00035420628
0.00034189402
0.00031905867
0.00028559677
0.00024189811
0.00018858443
0.00012756668
6.8548975e-05
2.9302646e-05
1.1877541e-05
5.6729514e-06
3.636512e-06
2.9961983e-06
2.8130824e-06
2.777727e-06
2.783687e-06
2.7929062e-06
2.7935508e-06
2.7813724e-06
2.7457685e-06
2.6962761e-06
2.6710286e-06
2.6694491e-06
2.6497594e-06
2.6185951e-06
2.6374739e-06
2.7355756e-06
2.8650409e-06
2.9522046e-06
2.9658509e-06
2.9233624e-06
2.8386386e-06
2.7252772e-06
2.6162737e-06
2.5408589e-06
2.5080015e-06
2.5113801e-06
2.5508102e-06
2.5849624e-06
2.5661017e-06
2.5310456e-06
2.5433097e-06
2.5948496e-06
2.6466461e-06
2.7114159e-06
2.8204342e-06
2.9243712e-06
2.9400502e-06
2.8908544e-06
2.8525327e-06
2.8207304e-06
2.7635304e-06
2.6893701e-06
2.6207089e-06
2.563493e-06
2.515884e-06
2.4758527e-06
2.4411477e-06
2.4132012e-06
2.3901412e-06
2.3686572e-06
2.3605303e-06
2.3586332e-06
2.3397495e-06
2.3360666e-06
2.3618573e-06
2.3709546e-06
2.3308525e-06
2.2873022e-06
2.2788376e-06
2.3026683e-06
2.3357341e-06
2.3687357e-06
2.3976484e-06
2.4119893e-06
2.4167788e-06
2.4253568e-06
2.434403e-06
2.4284539e-06
2.4201907e-06
2.4225526e-06
2.4108158e-06
2.3977298e-06
2.410169e-06
2.4270569e-06
2.3957606e-06
2.3501609e-06
2.3298863e-06
2.3376887e-06
2.3626541e-06
2.3888145e-06
2.4073293e-06
2.4172876e-06
2.4214392e-06
2.4227543e-06
4.9672115e-12
1.6335727e-11
3.0241533e-10
2.8227443e-09
1.5765119e-08
6.3834337e-08
2.0661507e-07
5.6167225e-07
1.3154974e-06
2.6956624e-06
4.9053317e-06
8.0664676e-06
1.22132e-05
1.7327642e-05
2.3374851e-05
3.0318262e-05
3.8123018e-05
4.6752971e-05
5.616587e-05
6.6317248e-05
7.7165829e-05
8.8672191e-05
0.00010080631
0.00011355759
0.00012693781
0.00014098842
0.00015578053
0.0001714093
0.00018798233
0.00020559552
0.00022429778
0.00024404346
0.00026462964
0.0002856284
0.00030631787
0.00032562288
0.00034210065
0.00035399313
0.00035937426
0.00035639725
0.00034360223
0.000320179
0.00028603303
0.00024154748
0.00018732464
0.00012532923
6.5892539e-05
2.745022e-05
1.1032126e-05
5.3654027e-06
3.5372829e-06
2.9681609e-06
2.8097378e-06
2.7829478e-06
2.7913096e-06
2.8005885e-06
2.8005436e-06
2.7872726e-06
2.7501139e-06
2.7000791e-06
2.6762708e-06
2.6756205e-06
2.6548652e-06
2.6236279e-06
2.6457134e-06
2.7479821e-06
2.878441e-06
2.9628744e-06
2.9727468e-06
2.9273978e-06
2.8406373e-06
2.7262295e-06
2.6175634e-06
2.5434766e-06
2.5121004e-06
2.5165691e-06
2.5567536e-06
2.5901433e-06
2.5695436e-06
2.5340297e-06
2.5473046e-06
2.5997004e-06
2.6517295e-06
2.7167211e-06
2.8258126e-06
2.9285926e-06
2.9416224e-06
2.8908698e-06
2.8528647e-06
2.8214034e-06
2.7636706e-06
2.6887619e-06
2.619709e-06
2.5623636e-06
2.5147208e-06
2.4747516e-06
2.440092e-06
2.4120224e-06
2.3888523e-06
2.3677124e-06
2.3599069e-06
2.3575604e-06
2.3388367e-06
2.33569e-06
2.3616511e-06
2.3699304e-06
2.329281e-06
2.285944e-06
2.2780461e-06
2.3022163e-06
2.3354334e-06
2.3685022e-06
2.397447e-06
2.4117959e-06
2.4166713e-06
2.4253355e-06
2.4343512e-06
2.4284038e-06
2.4201381e-06
2.4223838e-06
2.4106292e-06
2.3976738e-06
2.4101771e-06
2.4268839e-06
2.3954662e-06
2.3499869e-06
2.3297773e-06
2.3376659e-06
2.3626803e-06
2.3888488e-06
2.4073562e-06
2.4173006e-06
2.4214411e-06
2.4227697e-06
5.7275567e-12
1.8034287e-11
3.2903051e-10
3.0686301e-09
1.7128415e-08
6.9266034e-08
2.236346e-07
6.053706e-07
1.4092013e-06
2.8659729e-06
5.1734175e-06
8.4427298e-06
1.2698527e-05
1.7917773e-05
2.4063749e-05
3.1099827e-05
3.8991868e-05
4.7704848e-05
5.7197985e-05
6.7428647e-05
7.8357626e-05
8.994763e-05
0.00010217063
0.00011501795
0.00012850302
0.00014266885
0.00015758805
0.00017335714
0.00019008466
0.00020786652
0.00022674975
0.00024668384
0.00026745696
0.0002886276
0.00030945552
0.00032884363
0.00034532596
0.00035712362
0.0003622958
0.00035898994
0.00034574936
0.00032177195
0.00028696748
0.00024170919
0.0001865772
0.00012357949
6.3645989e-05
2.5875827e-05
1.0328885e-05
5.1148022e-06
3.4570574e-06
2.9459184e-06