/*--------------------------------*- C++ -*----------------------------------*\
| =========                 |                                                 |
| \\      /  F ield         | OpenFOAM: The Open Source CFD Toolbox           |
|  \\    /   O peration     | Version:  2506                                  |
|   \\  /    A nd           | Website:  www.openfoam.com                      |
|    \\/     M anipulation  |                                                 |
\*---------------------------------------------------------------------------*/
FoamFile
{
    version     2.0;
    format      ascii;
    arch        "LSB;label=32;scalar=64";
    class       volScalarField;
    location    "1";
    object      Cp;
}
// * * * * * * * * * * * * * * * * * * * * * * * * * * * * * * * * * * * * * //

dimensions      [0 0 0 0 0 0 0];

internalField   nonuniform List<scalar> 
1375
(
0.022065812
0.021604502
0.021839916
0.022069513
0.021510348
0.022039699
0.021746884
0.022001507
0.021882884
0.022189361
0.021937045
0.021733704
0.022034474
0.022425262
0.022539977
0.022113722
0.021877323
0.021763766
0.022162198
0.022535777
0.022744545
0.022492225
0.022072648
0.021846685
0.021841263
0.022332886
0.022359684
0.022973419
0.022729819
0.022454332
0.022055768
0.0218516
0.021958036
0.022414553
0.022322494
0.023044594
0.022979033
0.022713823
0.022448648
0.022058101
0.021897632
0.022087802
0.022332904
0.022509576
0.022961062
0.023087983
0.022983087
0.022702974
0.022462417
0.022092297
0.021978714
0.022187255
0.022212069
0.02275889
0.022631319
0.023007202
0.023106683
0.022981145
0.022708333
0.022489242
0.022162661
0.022080106
0.022251957
0.022104543
0.022848729
0.022007818
0.022698103
0.023032547
0.023098607
0.022967612
0.022723339
0.022530243
0.022260121
0.022188942
0.022284254
0.022007012
0.02277447
0.021414131
0.022108419
0.022755904
0.023040091
0.023073111
0.022946868
0.022743433
0.022584339
0.022376554
0.022297455
0.022284
0.021924698
0.022652124
0.021554429
0.022203659
0.022802457
0.023030247
0.02304599
0.022929958
0.022768387
0.022652225
0.022504497
0.022403884
0.022275545
0.021844656
0.022519333
0.020871324
0.021690223
0.022290672
0.02284231
0.023008203
0.023018556
0.022918168
0.022799104
0.022734933
0.022637115
0.022498485
0.022262098
0.021777086
0.022379505
0.020487196
0.021042005
0.021821473
0.022368143
0.022873611
0.022999259
0.022985606
0.02291044
0.022833467
0.022830121
0.022767801
0.02257878
0.022228029
0.021712895
0.022192926
0.01989841
0.020730261
0.021209018
0.021945966
0.022437646
0.022885324
0.022986776
0.022956178
0.022907305
0.022872093
0.022932565
0.022888052
0.02263953
0.022192993
0.021663083
0.022047682
0.018511479
0.019219821
0.020206529
0.020973847
0.021374097
0.022057242
0.022494824
0.022884058
0.022939337
0.022923768
0.022908365
0.022916568
0.023039493
0.022994299
0.022681126
0.02215776
0.021600461
0.02200628
0.018609999
0.018944002
0.019588756
0.020529492
0.021221057
0.021544085
0.022157857
0.022536413
0.02287872
0.022877764
0.022875297
0.02290877
0.022965501
0.023147719
0.023088092
0.022707937
0.022115531
0.021527006
0.021940873
0.019200549
0.019129635
0.019402581
0.019973552
0.020856752
0.021463303
0.021719638
0.022255202
0.02256295
0.022862066
0.022836231
0.022824852
0.022909166
0.0230154
0.023258288
0.02316481
0.0227276
0.0220679
0.021455628
0.021851436
0.019350279
0.019595592
0.019798245
0.019653485
0.019881104
0.020379696
0.021190603
0.021705437
0.021904469
0.02235415
0.022581009
0.022832458
0.022794344
0.02277712
0.022920895
0.023065407
0.023374391
0.023217298
0.022744739
0.022021017
0.021384698
0.021779397
0.026549422
0.027172393
0.027716644
0.028206586
0.02882472
0.029407498
0.029880555
0.030476078
0.03109482
0.031807895
0.0326515
0.033847908
0.03503594
0.036369369
0.038052212
0.040256664
0.042738411
0.045454966
0.049458029
0.054088538
0.058354795
0.06186817
0.06521717
0.026521475
0.027135785
0.027694125
0.028196921
0.028804762
0.029397677
0.029867143
0.030457412
0.031072745
0.031781216
0.032569361
0.033753675
0.034978543
0.036285529
0.037865214
0.040031252
0.042361875
0.045295036
0.049116313
0.053722601
0.057566373
0.061242955
0.064396263
0.026494886
0.027107081
0.027676402
0.028191233
0.028796594
0.029393943
0.029863316
0.030461442
0.031082505
0.031779073
0.032539373
0.033728263
0.034949148
0.036234164
0.037744642
0.039920143
0.042254111
0.045306649
0.048895434
0.053501039
0.057035989
0.06061186
0.063647314
0.026465898
0.027071618
0.027653769
0.028177676
0.028784356
0.029377673
0.029857124
0.030439804
0.031044492
0.031751818
0.032464767
0.033628148
0.034890172
0.036136873
0.03746571
0.039613104
0.042047791
0.044790073
0.048349149
0.052709393
0.056452602
0.059978718
0.062635512
0.026435337
0.027026194
0.02763449
0.028156751
0.028774766
0.029359922
0.029861751
0.030421288
0.031025005
0.031719785
0.032400874
0.033521646
0.034868171
0.036043273
0.037304653
0.039450381
0.041831481
0.044437809
0.04785346
0.051819688
0.055551362
0.059223375
0.061947433
0.026401672
0.026974634
0.027606854
0.028141764
0.028746857
0.029325235
0.02987551
0.03037694
0.031004551
0.031648821
0.032312199
0.033384006
0.034743988
0.035881805
0.037100964
0.039209738
0.041506982
0.043989203
0.047223015
0.050835667
0.054377693
0.058096629
0.061235876
0.026364163
0.026931143
0.027561035
0.028136701
0.02870634
0.029290881
0.029863887
0.030350802
0.030977961
0.031590601
0.032220833
0.033250159
0.034623891
0.035728082
0.036921868
0.038913111
0.04116429
0.043498017
0.046587119
0.049861281
0.053045779
0.05667424
0.060153623
0.026322638
0.026882369
0.027512147
0.028114201
0.028675788
0.029259126
0.029822302
0.030329555
0.030932882
0.031527699
0.032123526
0.033095568
0.034464415
0.035557438
0.036734372
0.038581687
0.040751395
0.042928375
0.045990561
0.048958129
0.051631303
0.055240606
0.058966812
0.026279456
0.026827283
0.027458487
0.028079755
0.028643468
0.029220622
0.029781358
0.030293066
0.03087733
0.03146106
0.032028129
0.032925346
0.034266313
0.035357548
0.036524919
0.038233379
0.040273802
0.042239894
0.045317219
0.048092065
0.050162899
0.053630116
0.057655565
0.061249712
0.026234172
0.02676872
0.027396981
0.028035065
0.028606527
0.029175469
0.029732946
0.030246353
0.030800079
0.031389565
0.0319424
0.032743802
0.034029794
0.035136239
0.036258231
0.037870779
0.039767949
0.041493396
0.044471233
0.047244799
0.048760656
0.051854984
0.056470298
0.059073802
0.026187456
0.026707646
0.027326514
0.027979121
0.028562205
0.029120653
0.029677136
0.030191307
0.030698836
0.03130288
0.031867543
0.032559507
0.033756515
0.034888592
0.035931257
0.037470751
0.039245803
0.040732363
0.04345836
0.046493229
0.04790468
0.049064458
0.054939494
0.056809431
0.026644846
0.027247425
0.02791007
0.028508065
0.029051743
0.029615662
0.030129779
0.03057981
0.03118967
0.031785721
0.032382309
0.033446507
0.034604107
0.03555896
0.037009209
0.038703498
0.039975277
0.042232654
0.045366188
0.047152105
0.046615632
0.052688126
0.055629765
0.026579963
0.027162475
0.027828082
0.02844029
0.028965083
0.029547018
0.030063078
0.030450173
0.031040071
0.031673867
0.032209486
0.033106804
0.03427625
0.035144861
0.036482109
0.038142096
0.039254092
0.040845169
0.04352157
0.04489378
0.04552918
0.049922271
0.052642658
0.026510431
0.027074439
0.027735409
0.028354809
0.028860198
0.029466084
0.029990211
0.030318643
0.030848056
0.031521341
0.032033941
0.032760704
0.033896527
0.034672068
0.035830095
0.037549618
0.038606538
0.039587042
0.041950864
0.043033125
0.044331985
0.046495562
0.048945153
0.026433579
0.026981785
0.027634497
0.028253836
0.028740663
0.029362995
0.029905673
0.030202133
0.030625332
0.031316749
0.031824707
0.032408223
0.033472917
0.034159488
0.035057726
0.03684202
0.038048687
0.038510247
0.040132565
0.041832102
0.042424357
0.042816362
0.045703423
0.026347847
0.026878231
0.027527518
0.028142195
0.028610303
0.029226086
0.029796553
0.03010493
0.030399146
0.031074588
0.031571256
0.031993168
0.032991387
0.033686299
0.034288608
0.035815464
0.037258243
0.03780716
0.038344776
0.039940139
0.040610986
0.040945891
0.042152731
0.042925849
0.026253092
0.026757994
0.027413799
0.028025852
0.028475939
0.029049957
0.029652152
0.030010129
0.030185883
0.030807211
0.031313368
0.031545041
0.032357613
0.03329073
0.033699631
0.034526638
0.036043206
0.036946659
0.037519906
0.037623163
0.038500165
0.039271008
0.039142392
0.039620614
0.026156665
0.026622467
0.027284908
0.027909371
0.028358991
0.028816639
0.029442132
0.029893342
0.029992605
0.030446426
0.031062407
0.031267492
0.031494218
0.032806522
0.033390935
0.033587618
0.034509108
0.035704078
0.036185004
0.035991633
0.036725042
0.037121484
0.036280717
0.036375261
0.026061802
0.026473977
0.027132164
0.027776565
0.028257685
0.0285593
0.029159247
0.029672275
0.029882134
0.030073753
0.030642893
0.031049488
0.030913313
0.031892548
0.032737695
0.032948448
0.033146731
0.034235849
0.034468157
0.034505929
0.034882841
0.034281621
0.034224065
0.033684155
0.032195466
0.025966436
0.026324124
0.026961633
0.027614685
0.028150155
0.028348311
0.028761352
0.029309431
0.029728616
0.02985135
0.030073763
0.03069094
0.030733626
0.030780647
0.031724162
0.032122961
0.032505995
0.032675111
0.032938617
0.032878493
0.032566148
0.032516559
0.032466065
0.031040959
0.030270233
0.025879386
0.026194874
0.026762238
0.027420054
0.027966882
0.0282309
0.028380713
0.028883191
0.029428725
0.029678401
0.029675454
0.029999289
0.030405392
0.03032504
0.030685726
0.031078673
0.031412443
0.031343809
0.03147413
0.031444785
0.030830102
0.030891086
0.030624256
0.028956867
0.028187632
0.025814842
0.026094688
0.026532098
0.02718069
0.027685745
0.028071028
0.028163398
0.028443075
0.028943521
0.029293282
0.029510118
0.029391613
0.02988413
0.029961544
0.029838005
0.029900466
0.030351253
0.030136468
0.029933028
0.029822916
0.029494953
0.029642086
0.028932166
0.027918785
0.027805657
0.026506041
0.025758366
0.026006251
0.026316097
0.026898908
0.027371369
0.027764415
0.027983471
0.028164834
0.028424603
0.028659677
0.029111491
0.029188155
0.029304172
0.029300043
0.029191154
0.02925831
0.029195671
0.029070497
0.029219659
0.028584635
0.028241287
0.028352633
0.027422762
0.027043111
0.026838901
0.024723816
0.025737275
0.025883127
0.026126118
0.026632914
0.027041895
0.027425711
0.027718764
0.027915524
0.028064145
0.028114939
0.02839454
0.028759629
0.028605485
0.02864042
0.028638769
0.028659025
0.028479164
0.028619801
0.028138904
0.027540252
0.027463275
0.026965139
0.025876157
0.025564688
0.025404486
0.023680829
0.025754392
0.025781665
0.025978707
0.026274698
0.02674183
0.027065442
0.027371081
0.027553274
0.027664573
0.027750836
0.027737674
0.027996985
0.027910491
0.028118539
0.028069697
0.028100856
0.02784772
0.027608995
0.027083092
0.027044282
0.026749039
0.026151169
0.025752859
0.025384694
0.023903914
0.02249091
0.021828162
0.025742935
0.025837363
0.025883048
0.026412193
0.026692054
0.026929652
0.027164178
0.027272209
0.027427181
0.027364217
0.027204066
0.02721163
0.027427145
0.027491253
0.027513651
0.026977868
0.026700428
0.026564359
0.026385909
0.025990445
0.025667624
0.025224342
0.024665385
0.023478076
0.022424794
0.021667565
0.025713358
0.02568163
0.025705976
0.025951672
0.026304624
0.026466159
0.026699957
0.026958692
0.026997941
0.026925718
0.026676616
0.026672041
0.026757043
0.026743561
0.026595189
0.026291684
0.02621487
0.025986586
0.025593317
0.025477187
0.02492621
0.024340839
0.023970385
0.023038766
0.022246089
0.021615725
0.020484435
0.025651693
0.025574981
0.025521901
0.0255212
0.025856475
0.026112621
0.026272424
0.026438188
0.026464478
0.026481041
0.026362184
0.026354097
0.026175158
0.02611248
0.025832627
0.025616638
0.025695005
0.025386574
0.02505521
0.024811783
0.024168154
0.023695032
0.023258576
0.022461311
0.021776635
0.021157552
0.020251664
0.025586227
0.025539332
0.025395937
0.025262584
0.025318806
0.025537582
0.025758253
0.025873322
0.026045072
0.026068782
0.026087607
0.026010061
0.025817322
0.025548437
0.025083014
0.025029359
0.025305284
0.024869497
0.024436114
0.024183576
0.023625955
0.023178886
0.022752418
0.022082106
0.021551968
0.021035811
0.020322207
0.025594883
0.025494488
0.025314589
0.025127422
0.024958908
0.024951866
0.025114194
0.025325401
0.025499358
0.025588678
0.025577581
0.025582647
0.025578324
0.025295702
0.024990907
0.025142942
0.024783867
0.024314772
0.023952521
0.023574271
0.023122193
0.022725115
0.022301395
0.021815922
0.021409533
0.020953579
0.020380136
0.025478547
0.025382256
0.025198918
0.025048564
0.024812324
0.024675024
0.024668304
0.024744723
0.024864307
0.024887146
0.024922287
0.025120809
0.025156062
0.025112878
0.025114547
0.024822073
0.024534805
0.024185143
0.023796026
0.023432818
0.022993212
0.022532001
0.02209925
0.021613279
0.021143554
0.020677156
0.020159822
0.025228517
0.025092447
0.024918382
0.024679838
0.024476474
0.024356482
0.024304373
0.024297682
0.024373487
0.02456995
0.024660538
0.024690754
0.024717037
0.024634059
0.024451944
0.024271709
0.023965175
0.023688747
0.02337789
0.022984102
0.022582549
0.02216165
0.021698543
0.021251614
0.020793516
0.020330029
0.025089121
0.024985998
0.024755348
0.024540446
0.024381019
0.024205331
0.024031713
0.023923141
0.023988758
0.024052559
0.024242934
0.024274789
0.024248006
0.024310639
0.024210443
0.024086887
0.023891517
0.023580771
0.023315898
0.02297093
0.022611871
0.022258409
0.021867139
0.021501422
0.021130324
0.020760484
0.024960996
0.024800144
0.024586071
0.024443515
0.024260866
0.024065997
0.023953909
0.023900101
0.023816279
0.023848492
0.023942748
0.02379902
0.023784894
0.023846394
0.0238521
0.02381808
0.023682372
0.023505275
0.023314204
0.023061853
0.022808426
0.022557822
0.022288633
0.022033296
0.021762908
0.021486968
0.024599331
0.024506411
0.024380556
0.024191458
0.023987373
0.023885572
0.023841016
0.023750546
0.023781795
0.023808102
0.023647796
0.023618682
0.023554454
0.023465019
0.023390998
0.023292531
0.023183679
0.023081823
0.02294323
0.022796842
0.022645807
0.022472587
0.022297828
0.022111541
0.021918328
0.024424297
0.024362267
0.024239255
0.024079309
0.023929999
0.023855598
0.023756119
0.023665588
0.023671358
0.023620932
0.023543033
0.023523022
0.023455295
0.023386379
0.023337186
0.023235803
0.023134733
0.023037812
0.02291657
0.022814046
0.02269508
0.022565098
0.02242204
0.022256356
0.022087695
0.024061999
0.024129174
0.024128013
0.024069574
0.024044505
0.023973268
0.023784235
0.023628111
0.023538535
0.023389517
0.023268776
0.023197765
0.023121084
0.023086577
0.023060826
0.023001465
0.022949614
0.022892791
0.022840384
0.022794502
0.022739086
0.02267887
0.022608526
0.022529633
0.022447564
0.02375228
0.023848428
0.023890529
0.023952905
0.023954492
0.023870628
0.023759442
0.023628515
0.023458645
0.023319388
0.023201891
0.023090363
0.022998524
0.022904735
0.022818732
0.022756669
0.022708081
0.022682579
0.022665276
0.022647769
0.022631206
0.022614494
0.022603223
0.022594543
0.023392776
0.023509155
0.023613501
0.023681717
0.023702679
0.023676109
0.02361867
0.023535713
0.023416282
0.023295573
0.02317682
0.02305352
0.02294259
0.022854829
0.022787325
0.022740461
0.02271503
0.022699924
0.022693671
0.022697554
0.022714733
0.022740566
0.022771216
0.022801082
0.02327258
0.023410032
0.023486798
0.023532231
0.023523561
0.023495494
0.023440392
0.023350845
0.023252176
0.023140589
0.023020196
0.022913914
0.022811212
0.0227203
0.022654239
0.022607287
0.022584528
0.022582508
0.022593112
0.022615106
0.022655222
0.022707633
0.022749793
0.022915471
0.023045922
0.023161478
0.023234455
0.02329246
0.02330571
0.023283932
0.023241797
0.02318484
0.023122445
0.023059563
0.022991007
0.022913042
0.022835656
0.022770816
0.022732619
0.022709029
0.022685626
0.022677364
0.02271203
0.022735945
0.022745085
0.022478868
0.022552658
0.022653817
0.022781727
0.022915138
0.023016437
0.023105545
0.0231765
0.0232252
0.023257192
0.023280418
0.023279117
0.023268729
0.023243669
0.023204213
0.023165553
0.023123141
0.023077794
0.023039856
0.023007606
0.022971067
0.022942297
0.022119538
0.022150056
0.022235986
0.022344358
0.022480067
0.022635467
0.022787046
0.022929212
0.02306037
0.023187116
0.023291145
0.023367653
0.023421365
0.023449717
0.023445599
0.023409654
0.023360533
0.023302385
0.023240414
0.023177012
0.023117126
0.022225106
0.022264852
0.022331398
0.022434976
0.022566569
0.022717961
0.022879511
0.023047435
0.023203241
0.02334924
0.023478526
0.023580582
0.023656351
0.023704041
0.023721025
0.023714114
0.02368822
0.023636482
0.023562377
0.023474757
0.022353836
0.022358405
0.022385829
0.022431769
0.022497036
0.022579409
0.022674281
0.022775856
0.022872032
0.022964824
0.02305313
0.023132497
0.023197611
0.023248117
0.023285136
0.023299415
0.023292695
0.02327481
0.023249025
0.022576853
0.022502244
0.022432248
0.022377525
0.02234379
0.022329455
0.02233939
0.022365397
0.022404867
0.022454679
0.022505925
0.022556941
0.022607948
0.022654885
0.022700766
0.022733449
0.022743513
0.022585947
0.022402344
0.022213244
0.022043479
0.021921828
0.021833471
0.02176828
0.021741713
0.021744407
0.021759017
0.021781765
0.021811478
0.02184315
0.021881484
0.021924662
0.021972581
0.022164525
0.021940205
0.021833086
0.021693427
0.021630192
0.021466487
0.021317357
0.021249999
0.021231224
0.021231431
0.021240393
0.021261787
0.02128656
0.021321931
0.02194127
0.02184176
0.021504293
0.021143918
0.021102863
0.021319785
0.021464869
0.02153596
0.021601602
0.021650751
0.02167062
0.021721356
)
;

boundaryField
{
    Side
    {
        type            empty;
    }
    Inlet
    {
        type            calculated;
        value           nonuniform List<scalar> 
32
(
0.021875989
0.021891788
0.021933555
0.021960145
0.021931992
0.021882906
0.021859044
0.021872829
0.021885078
0.021873479
0.021847344
0.021828485
0.021810657
0.021778552
0.021728958
0.021718389
0.021727005
0.02174379
0.021761265
0.021758097
0.021682911
0.0217143
0.021699811
0.021668411
0.021666429
0.021697045
0.021714419
0.021715598
0.021719071
0.021738749
0.02174301
0.021744036
)
;
    }
    Airfoil
    {
        type            calculated;
        value           nonuniform List<scalar> 0();
    }
    Outlet
    {
        type            calculated;
        value           nonuniform List<scalar> 0();
    }
    procBoundary2to1
    {
        type            processor;
        value           nonuniform List<scalar> 
75
(
0.02193921
0.021891565
0.021962672
0.021962672
0.022178907
0.022178907
0.022299985
0.022299985
0.022598113
0.022598113
0.022754967
0.022754967
0.022954863
0.022954863
0.022997292
0.022997292
0.022896815
0.022896815
0.022557849
0.022557849
0.021900516
0.021900516
0.021269307
0.021269307
0.020518925
0.020696716
0.020696716
0.020243584
0.020243584
0.019610507
0.019610507
0.018089806
0.01885836
0.01885836
0.018142238
0.018142238
0.018569564
0.018569564
0.018550884
0.018845204
0.018845204
0.019232575
0.019232575
0.069731863
0.069022904
0.068958766
0.067133195
0.065682314
0.064839247
0.063463003
0.06202313
0.06202313
0.061349038
0.058156096
0.055493162
0.052726795
0.051334528
0.048425709
0.045845487
0.045845487
0.043321442
0.039083945
0.035168784
0.035168784
0.03240723
0.03027232
0.028495352
0.028495352
0.024205973
0.022997551
0.022654534
0.022654534
0.020764988
0.020389353
0.020389353
)
;
    }
    procBoundary2to3
    {
        type            processor;
        value           nonuniform List<scalar> 
65
(
0.025963416
0.025952385
0.025937731
0.025918499
0.02589986
0.025882191
0.025859837
0.025833854
0.025807111
0.025780847
0.026139621
0.026139621
0.026090288
0.026038275
0.025983442
0.025928009
0.02587501
0.025820446
0.025765051
0.025708464
0.025631165
0.025550817
0.025540278
0.025530917
0.025513169
0.02570116
0.02570116
0.025538124
0.025582464
0.025615964
0.025521834
0.025422063
0.02533654
0.02533654
0.025152625
0.02498816
0.024706208
0.024706208
0.024419224
0.023946942
0.023635707
0.023635707
0.023235863
0.023111792
0.023111792
0.022798447
0.022798447
0.022442746
0.02213122
0.02213122
0.022232729
0.022232729
0.022366952
0.022366952
0.02269473
0.02264526
0.02264526
0.022754417
0.022754417
0.022662369
0.02237179
0.02237179
0.021906969
0.021877217
0.021877217
)
;
    }
    procBoundary2to9
    {
        type            processor;
        value           nonuniform List<scalar> 
23
(
0.026570307
0.027187595
0.027723501
0.028202666
0.028816968
0.029398688
0.029887829
0.03045919
0.031073936
0.031785847
0.032639835
0.033828336
0.035031249
0.036403046
0.038130113
0.040229721
0.042594919
0.045503492
0.049932928
0.054306186
0.058225307
0.061695677
0.064932868
)
;
    }
    procBoundary2to10
    {
        type            processor;
        value           uniform 0.025983055;
    }
}


// ************************************************************************* //
