/*--------------------------------*- C++ -*----------------------------------*\
| =========                 |                                                 |
| \\      /  F ield         | OpenFOAM: The Open Source CFD Toolbox           |
|  \\    /   O peration     | Version:  2506                                  |
|   \\  /    A nd           | Website:  www.openfoam.com                      |
|    \\/     M anipulation  |                                                 |
\*---------------------------------------------------------------------------*/
FoamFile
{
    version     2.0;
    format      ascii;
    arch        "LSB;label=32;scalar=64";
    class       volScalarField;
    location    "0.75";
    object      rho;
}
// * * * * * * * * * * * * * * * * * * * * * * * * * * * * * * * * * * * * * //

dimensions      [1 -3 0 0 0 0 0];

internalField   nonuniform List<scalar> 
1376
(
0.66633844
0.66583128
0.66578644
0.66577433
0.66574331
0.6657246
0.66571781
0.66572833
0.66573166
0.66573131
0.66572928
0.66573347
0.6657363
0.6657374
0.66574358
0.66573883
0.66573808
0.66572107
0.6657332
0.66571717
0.66569523
0.66569015
0.66570672
0.66569759
0.66566985
0.6656454
0.66560092
0.66556648
0.66551674
0.66549099
0.66551247
0.66552004
0.6655009
0.66547558
0.66544847
0.66548618
0.66549523
0.66553728
0.66552335
0.66545049
0.66543472
0.66527718
0.66555051
0.66464616
0.66349393
0.66347702
0.66117448
0.66253083
0.65761141
0.66635359
0.66583638
0.66578711
0.6657877
0.66575539
0.66572967
0.66571716
0.66572965
0.66573264
0.66572535
0.6657351
0.66573387
0.665735
0.6657416
0.66575779
0.66574504
0.66574321
0.66573154
0.66574161
0.66573557
0.66571774
0.66571333
0.6657298
0.66574343
0.66571787
0.66569487
0.66566683
0.66564487
0.66560977
0.66558905
0.66559365
0.66563475
0.66565667
0.66563411
0.66563077
0.6657036
0.66577212
0.66582791
0.66588876
0.66594047
0.66588832
0.66593073
0.66564048
0.66580537
0.66610024
0.66523943
0.6642503
0.66411986
0.65556472
0.66639991
0.66584002
0.66578007
0.6657891
0.66576493
0.66574094
0.66571746
0.66573138
0.6657283
0.66572921
0.66573975
0.66573837
0.66574585
0.66574469
0.66576006
0.66574546
0.66575648
0.66574448
0.66574638
0.66575481
0.66573862
0.6657397
0.6657568
0.6657784
0.6657576
0.6657456
0.66573593
0.66571337
0.66569871
0.66568041
0.66568527
0.66575842
0.66580326
0.66579256
0.66581491
0.6659126
0.66602188
0.66614287
0.66626675
0.66632567
0.66645523
0.66656762
0.66653013
0.66725762
0.66744133
0.66656821
0.66514958
0.66539279
0.65850239
0.66643301
0.66577574
0.66573378
0.6657706
0.66576035
0.66574241
0.66571883
0.66573261
0.6657324
0.66574001
0.66574092
0.66574866
0.66575985
0.66574556
0.66575688
0.66575761
0.66576499
0.66575918
0.66575679
0.66577399
0.66575754
0.66576317
0.66577618
0.66580103
0.66580749
0.66580072
0.66580081
0.66578439
0.66578172
0.66578092
0.66579541
0.66586979
0.66594112
0.6659545
0.66599795
0.66611375
0.6662492
0.66641142
0.66659129
0.66674203
0.66688722
0.66702077
0.66744795
0.66790422
0.66782139
0.66774949
0.66724618
0.66761496
0.66105951
0.66642322
0.66576003
0.66568364
0.66574477
0.66575139
0.66574096
0.66573106
0.6657327
0.6657415
0.66574489
0.66574962
0.66575908
0.66576634
0.6657574
0.6657638
0.66577503
0.66577302
0.66578244
0.66577469
0.66579063
0.66578264
0.66579157
0.6657966
0.66583477
0.66586545
0.66585453
0.66586454
0.66586271
0.66586798
0.66588831
0.66590493
0.66597493
0.66607489
0.66611486
0.66616845
0.6662998
0.66647311
0.66666701
0.66688687
0.66710526
0.66732385
0.6675727
0.66782221
0.66821121
0.66917149
0.6694083
0.66948906
0.66920958
0.66317956
0.66646005
0.66580085
0.6656624
0.66573711
0.66576135
0.66574817
0.6657416
0.66573788
0.66574714
0.66575072
0.66576322
0.66576513
0.66577522
0.66578035
0.66577981
0.66578453
0.66578841
0.6658076
0.6657985
0.66581102
0.66581615
0.6658242
0.66583565
0.66587633
0.66591414
0.66591059
0.6659269
0.66594425
0.66595929
0.6659866
0.66601448
0.6660823
0.6662021
0.66628279
0.66635185
0.66649305
0.6666996
0.66692258
0.66719845
0.6674501
0.66771981
0.66805337
0.6684406
0.66911312
0.66984647
0.67033186
0.6706787
0.67045929
0.66653908
0.66655752
0.66581741
0.66561296
0.66574619
0.66577931
0.66576446
0.66575178
0.66574637
0.66575302
0.66575904
0.66576963
0.66577727
0.66579078
0.66579247
0.6657887
0.66579437
0.66580529
0.66582132
0.66582726
0.66583572
0.66584657
0.66585643
0.66587535
0.66591304
0.66596228
0.66597438
0.66599059
0.66602281
0.66605144
0.66608627
0.66612598
0.66619488
0.66632448
0.66644433
0.6665348
0.6666873
0.66691147
0.66717076
0.66745434
0.66777767
0.66810179
0.66851461
0.66894707
0.66960269
0.67043915
0.67156126
0.67233667
0.67217661
0.66957882
0.66665699
0.66577081
0.6655604
0.66575977
0.66580759
0.66578079
0.66576099
0.66575526
0.66576208
0.66577064
0.66577922
0.66579138
0.6657996
0.66580265
0.66579966
0.66580948
0.66582777
0.66583772
0.66585146
0.66585769
0.66587196
0.66588411
0.66590681
0.66594811
0.66601109
0.66604062
0.66605561
0.66609682
0.66614295
0.66619023
0.66624392
0.66631615
0.66644638
0.66659853
0.66671907
0.66687961
0.66712399
0.66741565
0.66773027
0.66810616
0.66848349
0.66894906
0.66946904
0.67012925
0.67124056
0.67242136
0.67323878
0.67371781
0.67288973
0.66666123
0.66577603
0.6655872
0.66575246
0.66578996
0.66577351
0.66576717
0.66576231
0.66577348
0.66578335
0.66579523
0.66580773
0.66581396
0.66581861
0.66582294
0.66583281
0.6658513
0.66585789
0.66587576
0.66588985
0.6658991
0.66591199
0.66594033
0.6659879
0.666061
0.66610485
0.66612429
0.6661695
0.66623345
0.66629848
0.66636515
0.66644256
0.66656757
0.66674159
0.6668991
0.66707313
0.66732605
0.66764829
0.66800653
0.66839796
0.66883481
0.66931651
0.66997717
0.67072434
0.67180443
0.67310715
0.67459318
0.67539394
0.67573831
0.6667263
0.66583462
0.66556406
0.66573627
0.66579412
0.66578985
0.66577556
0.66577315
0.66578556
0.66580102
0.6658077
0.66581572
0.6658316
0.6658396
0.66584238
0.66585002
0.66586876
0.66587595
0.66590083
0.66592437
0.66593241
0.66594724
0.66597957
0.66603129
0.6661115
0.66616988
0.66619883
0.66624605
0.66631845
0.66640177
0.66648618
0.66657221
0.66669154
0.66687534
0.66706679
0.66725949
0.66752451
0.66786855
0.66825592
0.66868391
0.6691533
0.66973123
0.67037473
0.67121728
0.67237596
0.67405245
0.67547993
0.67688423
0.67843526
0.66680143
0.66585286
0.66557086
0.66573091
0.66578312
0.66577457
0.6657776
0.66578161
0.66579293
0.66581265
0.66582062
0.66582813
0.66584545
0.66585636
0.6658585
0.66586734
0.66588821
0.66590054
0.66592607
0.66595748
0.665971
0.66598841
0.66602129
0.66607309
0.66615851
0.66623355
0.66627195
0.66632147
0.66639835
0.66649735
0.666602
0.66670153
0.66681809
0.66700101
0.66722241
0.66744011
0.66771314
0.66807252
0.66850335
0.66896107
0.66948536
0.67005556
0.67081236
0.6717492
0.67298271
0.67456574
0.67646091
0.67840434
0.68077639
0.66688173
0.66585996
0.6655494
0.66570074
0.66576477
0.66578194
0.66578533
0.66578791
0.66579824
0.66581963
0.66583362
0.66583833
0.66585668
0.66587583
0.66588027
0.66588859
0.66590904
0.66592651
0.66595106
0.6659906
0.66601235
0.66602901
0.66606229
0.66611166
0.66619701
0.66629011
0.66634023
0.66639381
0.66647448
0.66658444
0.66670765
0.666825
0.66694378
0.66712019
0.66735987
0.66761007
0.66789327
0.66826413
0.66871574
0.66921597
0.66977233
0.67040413
0.6712028
0.67212716
0.67346219
0.67519119
0.67739488
0.67961462
0.68293702
0.66693262
0.66587203
0.66552669
0.66567988
0.6657775
0.6658012
0.66579873
0.66579381
0.66580414
0.66582476
0.66584109
0.66584843
0.6658674
0.66589095
0.66590058
0.66590954
0.66593017
0.66595195
0.66597587
0.66602094
0.66605263
0.66606932
0.66610438
0.66615245
0.66623353
0.6663409
0.66640732
0.66646403
0.66654757
0.66666491
0.66680282
0.66693925
0.66706588
0.66723538
0.66748125
0.66776244
0.66806369
0.66844286
0.66891001
0.66944226
0.6700296
0.67072312
0.67150181
0.67260451
0.67394614
0.67580282
0.67804618
0.68075603
0.6848334
0.66704207
0.66588238
0.66549952
0.66565747
0.66576058
0.66579065
0.66579474
0.66579326
0.66580422
0.66582723
0.66584738
0.66585707
0.66587861
0.66590582
0.66592052
0.66592946
0.66594914
0.66597443
0.66599927
0.66604507
0.66608466
0.66610543
0.6661455
0.66619734
0.66627148
0.66638409
0.6664698
0.66653139
0.66661719
0.66673858
0.66688814
0.66704223
0.66718217
0.66734804
0.66759038
0.66789436
0.66822295
0.66860671
0.66908407
0.66964404
0.67027106
0.67098991
0.67185742
0.67293378
0.67433443
0.67627139
0.67870052
0.68184426
0.6865058
0.66711385
0.66586994
0.66545981
0.66561131
0.66573394
0.66578287
0.66578941
0.66579437
0.66580536
0.66582887
0.66585053
0.66586273
0.66588659
0.6659161
0.66593547
0.6659473
0.66596635
0.66599284
0.66601869
0.66606449
0.66611066
0.66613619
0.66617902
0.66623769
0.66630833
0.66641826
0.66652133
0.66659214
0.66668041
0.66680325
0.66696223
0.66713224
0.66728918
0.66745708
0.66769142
0.66800586
0.66836368
0.66876146
0.669243
0.6698152
0.67046904
0.67123173
0.67214638
0.67324835
0.67475975
0.67670543
0.67938344
0.68275186
0.68790926
0.66721119
0.66587587
0.66543177
0.66558694
0.66571945
0.66576374
0.66577933
0.66578952
0.66580462
0.66582971
0.66585361
0.66586469
0.66588637
0.66591895
0.6659446
0.66596124
0.6659822
0.66601176
0.66603981
0.66608509
0.66613526
0.666164
0.66620655
0.66627194
0.66634424
0.66644848
0.66656201
0.66664461
0.66673596
0.66685866
0.66702404
0.66720764
0.66738256
0.6675591
0.66778589
0.66809985
0.66848214
0.66890179
0.66938743
0.66996648
0.67064503
0.67143493
0.67238337
0.67355878
0.67506325
0.67708924
0.67986056
0.6834153
0.68909293
0.66729121
0.66587458
0.66540562
0.66555748
0.66570354
0.66575245
0.66577026
0.66577812
0.66579629
0.66582777
0.66585935
0.66587172
0.66588854
0.66591951
0.66594881
0.66596969
0.66599321
0.666026
0.66605909
0.66610674
0.66616036
0.66619269
0.6662331
0.66630212
0.66637759
0.66647602
0.6665929
0.66668633
0.66678208
0.66690429
0.66707243
0.66726602
0.66745682
0.66764637
0.66786988
0.66817636
0.66857315
0.66901731
0.66951206
0.67009308
0.67077995
0.67159399
0.67258147
0.67379305
0.6753313
0.67743726
0.68026397
0.68406621
0.69003389
0.66735184
0.66588617
0.6653947
0.66553637
0.66569319
0.66574435
0.66577111
0.66577195
0.66579008
0.66582368
0.66586198
0.66587838
0.66589439
0.66592524
0.66595519
0.66597656
0.66600068
0.66603131
0.66606649
0.66611779
0.66617525
0.66621359
0.66625465
0.66632664
0.66640567
0.66649949
0.66661448
0.66671466
0.66681547
0.66693738
0.66710427
0.66730224
0.66750451
0.66770771
0.66793162
0.66822741
0.66862444
0.66908672
0.66959341
0.670177
0.67086338
0.67168331
0.6726888
0.67393598
0.67551669
0.67762436
0.68054651
0.68447789
0.69065048
0.66738197
0.66589753
0.66539374
0.66551768
0.6656729
0.66573627
0.66576317
0.66576849
0.66578252
0.6658124
0.66585451
0.66587941
0.66589942
0.66593212
0.66595956
0.66597901
0.66600363
0.66603535
0.66607067
0.66612032
0.66617803
0.66622045
0.66626312
0.6663374
0.66642028
0.66651171
0.66662222
0.66672408
0.66682895
0.66695135
0.66711427
0.66731135
0.66751955
0.6677329
0.66795865
0.66824402
0.66863169
0.66910131
0.66961835
0.67020324
0.67088465
0.67169503
0.67270317
0.67396894
0.67556601
0.67768739
0.6806344
0.68462934
0.69093241
0.66738765
0.66590285
0.66539598
0.66551538
0.66567079
0.66572932
0.66575344
0.66577345
0.66577899
0.66580555
0.66585086
0.66588238
0.66590424
0.66593456
0.66595955
0.6659788
0.66600356
0.66603638
0.66607073
0.66611968
0.66617691
0.66622073
0.6662645
0.66572952
0.66574036
0.66575146
0.66575097
0.66575043
0.66574675
0.66574425
0.66574451
0.66574387
0.66575154
0.66575494
0.66575655
0.6657461
0.66578047
0.66596793
0.6649709
0.66507597
0.66517896
0.66529056
0.66538454
0.66545335
0.66551126
0.66555054
0.66559881
0.66565189
0.66568734
0.66569766
0.66571191
0.66572294
0.66573416
0.66574869
0.6657553
0.66574845
0.66574432
0.66574065
0.6657382
0.66574126
0.66575287
0.66575528
0.66576283
0.6657459
0.66578441
0.66596867
0.66296434
0.66318673
0.66356108
0.66386861
0.66403437
0.66423231
0.66446557
0.66464557
0.66479681
0.66492599
0.66502863
0.66512723
0.66523256
0.66533499
0.66542351
0.66548854
0.66553803
0.66557485
0.66560406
0.66565443
0.66569143
0.66570896
0.66571515
0.66571546
0.66573886
0.66574799
0.66574145
0.66574341
0.66574072
0.66573511
0.66573272
0.66574189
0.66575431
0.66575565
0.66576916
0.66575056
0.66580914
0.66597704
0.65537519
0.65932097
0.6577899
0.66019293
0.66140409
0.66152491
0.66203551
0.66253782
0.66282803
0.66319069
0.66357286
0.66386863
0.66401611
0.66416049
0.66438828
0.66461111
0.66474835
0.66488513
0.66499837
0.66508109
0.66516335
0.66526474
0.66536515
0.66544459
0.66551444
0.66555987
0.66559445
0.66561432
0.66565868
0.66568815
0.66570238
0.66570961
0.66572292
0.66574651
0.6657446
0.66574131
0.66573839
0.66573415
0.6657308
0.66573407
0.66574459
0.66574905
0.66575305
0.66576852
0.66576641
0.66586203
0.66599224
0.65194065
0.65767609
0.65527995
0.66010731
0.65841331
0.66127286
0.66069705
0.66179637
0.6626662
0.66282459
0.66331267
0.6637136
0.66389409
0.66402195
0.66419941
0.66438982
0.66460028
0.6647411
0.66488167
0.66499027
0.66507864
0.66514358
0.66522537
0.66531143
0.6654003
0.66548388
0.66553568
0.66556793
0.66560303
0.6656342
0.66566704
0.66568023
0.66569075
0.66570579
0.66572304
0.66574524
0.66574468
0.66574604
0.66573755
0.6657304
0.66573171
0.66573604
0.665742
0.66574382
0.66575127
0.66576639
0.665782
0.66592701
0.66601265
0.65185571
0.65746299
0.6563712
0.66008371
0.65881512
0.66140002
0.6619685
0.66233491
0.66298479
0.6633765
0.66374985
0.66392726
0.66407641
0.66429176
0.66445137
0.66457765
0.66474801
0.66489496
0.66500627
0.66509394
0.66514989
0.66520242
0.6652822
0.66537812
0.66546089
0.66551935
0.66556405
0.66559918
0.66562323
0.66564514
0.66568253
0.66570079
0.66569353
0.66571029
0.66572879
0.66574438
0.66573928
0.66573883
0.66573611
0.66573108
0.66573264
0.66573525
0.66573994
0.66574208
0.66574516
0.66576275
0.66579225
0.66597521
0.66601607
0.6518279
0.65796543
0.656934
0.66090617
0.65974249
0.66154863
0.66234828
0.66292149
0.66342536
0.663716
0.6639525
0.66425707
0.66448662
0.66454158
0.66463581
0.66477007
0.66490181
0.66500999
0.6651208
0.66517715
0.66521097
0.66526652
0.66534357
0.66543139
0.66550249
0.66555012
0.66559536
0.66562222
0.66563999
0.66565688
0.66569006
0.66571325
0.66570942
0.66572072
0.66573181
0.66574035
0.66573502
0.66573749
0.66573747
0.66572739
0.66573091
0.66573283
0.66573712
0.66573781
0.66574188
0.66576143
0.6657908
0.66596962
0.66599969
0.65227908
0.65968238
0.65838844
0.66193619
0.66137254
0.66234319
0.66275157
0.66345142
0.66361892
0.66418017
0.66440111
0.66462691
0.66469253
0.66476705
0.66486489
0.66496616
0.66506744
0.66515583
0.66523756
0.66526309
0.66528469
0.66534441
0.66541448
0.66548724
0.66553852
0.66558296
0.66562657
0.66564015
0.66565137
0.66567389
0.66569933
0.66570045
0.66571195
0.665729
0.66573531
0.66574023
0.665735
0.66573631
0.66573502
0.66572779
0.66572796
0.66573112
0.6657313
0.66573043
0.66573935
0.66576185
0.66578457
0.66592039
0.66599604
0.65188342
0.66039797
0.65975944
0.66286664
0.66312051
0.66332094
0.66346427
0.66418357
0.66445791
0.66461625
0.66481844
0.66484812
0.66497517
0.66502111
0.66506522
0.66513378
0.66520625
0.66528271
0.66533451
0.66533737
0.66535817
0.66542195
0.66548541
0.66554992
0.66558748
0.66562068
0.66565459
0.66565679
0.66566597
0.66568786
0.66571683
0.66570647
0.66570817
0.66572239
0.66573396
0.6657406
0.66573382
0.66573846
0.66572901
0.66572797
0.66572109
0.66572828
0.665725
0.66572551
0.66573705
0.66576164
0.66578599
0.66587746
0.6660553
0.65365758
0.66100819
0.65956549
0.66285641
0.66343649
0.66418954
0.6646876
0.66470007
0.6650244
0.6649334
0.66512252
0.66520309
0.66524402
0.66524813
0.66524819
0.66529165
0.66535641
0.66540364
0.6654227
0.66540702
0.66543227
0.66549346
0.66554784
0.66559916
0.66562807
0.66565935
0.66568288
0.66567173
0.66568
0.66570266
0.66572642
0.66571914
0.66572486
0.66572169
0.66573493
0.66573748
0.66573601
0.66574004
0.66572859
0.66573112
0.6657246
0.66572695
0.66572139
0.66572276
0.66573831
0.66576699
0.66579088
0.66588972
0.66624404
)
;

boundaryField
{
    Side
    {
        type            empty;
    }
    Inlet
    {
        type            calculated;
        value           nonuniform List<scalar> 
30
(
0.66586458
0.66587134
0.66587018
0.66587152
0.66587014
0.66586799
0.66587091
0.66587408
0.66587169
0.66586773
0.6658646
0.66586018
0.66585401
0.66584742
0.66583972
0.66583177
0.66582402
0.66581747
0.66581305
0.66581149
0.66575021
0.66575142
0.66575646
0.66576036
0.6657616
0.66575748
0.66575131
0.66574848
0.66578715
0.66584227
)
;
    }
    Airfoil
    {
        type            calculated;
        value           nonuniform List<scalar> 
25
(
0.65761141
0.65556472
0.65850239
0.66105951
0.66317956
0.66653908
0.66957882
0.67288973
0.67573831
0.67843526
0.68077639
0.68293702
0.6848334
0.6865058
0.68790926
0.68909293
0.69003389
0.69065048
0.69093241
0.65194065
0.65185571
0.6518279
0.65227908
0.65188342
0.65365758
)
;
    }
    Outlet
    {
        type            calculated;
        value           nonuniform List<scalar> 0();
    }
    procBoundary7to0
    {
        type            processor;
        value           nonuniform List<scalar> 
50
(
0.66633922
0.66642418
0.66651446
0.66662104
0.66672226
0.66682964
0.66695411
0.66711313
0.66730752
0.66751897
0.667738
0.6679657
0.66824493
0.66862313
0.66909243
0.6696173
0.67020684
0.67088483
0.671684
0.67268573
0.67396071
0.67556824
0.67768592
0.68062174
0.68463245
0.6909676
0.66737786
0.66590514
0.66540396
0.6655253
0.66567162
0.66573031
0.66575548
0.66575941
0.66577323
0.6658061
0.66584987
0.66587963
0.66590178
0.66593267
0.66595843
0.66597978
0.66600494
0.6660372
0.66607281
0.66612342
0.66617836
0.66622132
0.66633922
0.66626651
)
;
    }
    procBoundary7to8
    {
        type            processor;
        value           nonuniform List<scalar> 
53
(
0.66572637
0.66574839
0.66575667
0.66574987
0.66575181
0.66574973
0.6657471
0.66574898
0.66574852
0.66575465
0.66575487
0.66575958
0.66574582
0.66578354
0.6659663
0.66491621
0.66501926
0.66513597
0.66523968
0.66534429
0.66545458
0.66551271
0.66555272
0.66559096
0.66564088
0.66568697
0.6656904
0.66570694
0.66570694
0.66277877
0.66325636
0.66337799
0.66363926
0.66390313
0.66410263
0.66430072
0.66453319
0.66470606
0.66486064
0.66486064
0.65534719
0.65860228
0.65770521
0.65969504
0.65927733
0.66107607
0.66154987
0.66211269
0.66286003
0.66286003
0.65139082
0.65775284
0.65775284
)
;
    }
}


// ************************************************************************* //
