/*--------------------------------*- C++ -*----------------------------------*\
| =========                 |                                                 |
| \\      /  F ield         | OpenFOAM: The Open Source CFD Toolbox           |
|  \\    /   O peration     | Version:  2506                                  |
|   \\  /    A nd           | Website:  www.openfoam.com                      |
|    \\/     M anipulation  |                                                 |
\*---------------------------------------------------------------------------*/
FoamFile
{
    version     2.0;
    format      ascii;
    arch        "LSB;label=32;scalar=64";
    class       volScalarField;
    location    "0.01";
    object      nut;
}
// * * * * * * * * * * * * * * * * * * * * * * * * * * * * * * * * * * * * * //

dimensions      [0 2 -1 0 0 0 0];

internalField   nonuniform List<scalar> 
13763
(
3.5911081e-06
3.5874761e-06
3.5843166e-06
3.5818302e-06
3.5801239e-06
3.5791933e-06
3.5789555e-06
3.5792317e-06
3.5798413e-06
3.5806197e-06
3.5814505e-06
3.5823156e-06
3.5831732e-06
3.5840702e-06
3.5849926e-06
3.5859998e-06
3.5869943e-06
3.5880926e-06
3.5894403e-06
3.5912053e-06
3.5933617e-06
3.5956046e-06
3.5974774e-06
3.5987865e-06
3.5995202e-06
3.599863e-06
3.5999994e-06
3.5999941e-06
3.5999685e-06
3.5999113e-06
3.5998351e-06
3.5997334e-06
3.5996082e-06
3.5995114e-06
3.5995139e-06
3.5997396e-06
3.6000472e-06
3.6002815e-06
3.6003838e-06
3.6003851e-06
3.600339e-06
3.6002812e-06
3.6002189e-06
3.6001531e-06
3.6000877e-06
3.6000405e-06
3.6000302e-06
3.6000628e-06
3.5912199e-06
3.5875716e-06
3.5844077e-06
3.5819187e-06
3.5802112e-06
3.5792806e-06
3.5790439e-06
3.5793215e-06
3.5799339e-06
3.5807136e-06
3.5815453e-06
3.5824091e-06
3.5832641e-06
3.5841608e-06
3.5850817e-06
3.586088e-06
3.5870821e-06
3.5881789e-06
3.5895244e-06
3.5912873e-06
3.5934414e-06
3.5956814e-06
3.597548e-06
3.5988518e-06
3.5995804e-06
3.5999179e-06
3.6000493e-06
3.6000366e-06
3.6000054e-06
3.5999436e-06
3.5998633e-06
3.5997579e-06
3.5996298e-06
3.5995308e-06
3.599526e-06
3.5997495e-06
3.6000562e-06
3.6002907e-06
3.6003938e-06
3.6003965e-06
3.6003524e-06
3.6002969e-06
3.6002373e-06
3.6001742e-06
3.6001114e-06
3.6000636e-06
3.600043e-06
3.6000402e-06
3.6000956e-06
3.6001253e-06
3.5912561e-06
3.5875923e-06
3.5844232e-06
3.5819307e-06
3.580221e-06
3.5792892e-06
3.5790521e-06
3.5793293e-06
3.5799428e-06
3.580722e-06
3.581553e-06
3.5824141e-06
3.583265e-06
3.5841604e-06
3.585079e-06
3.5860838e-06
3.5870775e-06
3.5881735e-06
3.5895175e-06
3.5912795e-06
3.5934326e-06
3.5956716e-06
3.597535e-06
3.598836e-06
3.5995621e-06
3.5998973e-06
3.6000263e-06
3.6000102e-06
3.5999765e-06
3.5999128e-06
3.5998307e-06
3.5997238e-06
3.5995947e-06
3.5994953e-06
3.5994871e-06
3.5997096e-06
3.6000163e-06
3.6002517e-06
3.6003564e-06
3.6003615e-06
3.6003208e-06
3.6002694e-06
3.6002146e-06
3.6001567e-06
3.6000993e-06
3.6000568e-06
3.6000393e-06
3.6000342e-06
3.6000737e-06
3.6001038e-06
3.6001638e-06
3.5912827e-06
3.5876035e-06
3.5844284e-06
3.5819317e-06
3.5802192e-06
3.5792853e-06
3.5790469e-06
3.579323e-06
3.5799364e-06
3.5807144e-06
3.5815437e-06
3.5824013e-06
3.5832474e-06
3.5841408e-06
3.5850568e-06
3.5860601e-06
3.5870537e-06
3.5881499e-06
3.5894933e-06
3.591255e-06
3.5934081e-06
3.5956468e-06
3.5975083e-06
3.5988075e-06
3.599532e-06
3.5998656e-06
3.5999933e-06
3.5999758e-06
3.5999407e-06
3.5998759e-06
3.5997927e-06
3.5996848e-06
3.5995547e-06
3.5994546e-06
3.5994456e-06
3.5996669e-06
3.5999724e-06
3.6002075e-06
3.6003122e-06
3.6003178e-06
3.6002785e-06
3.6002295e-06
3.6001783e-06
3.6001247e-06
3.6000726e-06
3.6000357e-06
3.6000243e-06
3.6000246e-06
3.6000654e-06
3.6000945e-06
3.6001413e-06
3.6001711e-06
3.6001694e-06
3.5913122e-06
3.5876171e-06
3.5844353e-06
3.5819341e-06
3.5802183e-06
3.579282e-06
3.5790418e-06
3.5793163e-06
3.5799288e-06
3.5807052e-06
3.5815322e-06
3.5823858e-06
3.5832262e-06
3.5841168e-06
3.5850291e-06
3.58603e-06
3.5870228e-06
3.588119e-06
3.5894616e-06
3.5912234e-06
3.5933767e-06
3.5956157e-06
3.5974767e-06
3.598775e-06
3.5994989e-06
3.599832e-06
3.5999592e-06
3.5999424e-06
3.5999068e-06
3.5998413e-06
3.5997571e-06
3.5996481e-06
3.5995167e-06
3.5994152e-06
3.5994075e-06
3.5996269e-06
3.5999303e-06
3.6001636e-06
3.6002665e-06
3.6002705e-06
3.6002303e-06
3.6001808e-06
3.6001302e-06
3.6000782e-06
3.6000291e-06
3.5999963e-06
3.5999899e-06
3.5999971e-06
3.6000479e-06
3.6000736e-06
3.6001256e-06
3.6001469e-06
3.6001449e-06
3.6001699e-06
3.6001643e-06
3.5913494e-06
3.587637e-06
3.5844478e-06
3.5819418e-06
3.5802224e-06
3.5792834e-06
3.5790412e-06
3.579314e-06
3.5799251e-06
3.5806996e-06
3.581524e-06
3.5823729e-06
3.5832069e-06
3.5840937e-06
3.5850015e-06
3.585999e-06
3.5869904e-06
3.5880867e-06
3.5894286e-06
3.5911906e-06
3.5933447e-06
3.5955845e-06
3.5974463e-06
3.5987446e-06
3.5994685e-06
3.5998013e-06
3.5999281e-06
3.5999134e-06
3.5998773e-06
3.599811e-06
3.5997256e-06
3.5996151e-06
3.599482e-06
3.5993784e-06
3.5993742e-06
3.5995916e-06
3.5998923e-06
3.6001232e-06
3.6002234e-06
3.6002247e-06
3.6001818e-06
3.6001296e-06
3.600077e-06
3.6000235e-06
3.599974e-06
3.5999419e-06
3.5999377e-06
3.5999505e-06
3.6000098e-06
3.6000314e-06
3.600092e-06
3.6001239e-06
3.6001193e-06
3.6001414e-06
3.6001349e-06
3.6001621e-06
3.600156e-06
3.5913933e-06
3.5876626e-06
3.5844654e-06
3.5819544e-06
3.5802314e-06
3.5792897e-06
3.5790457e-06
3.5793171e-06
3.5799268e-06
3.5806999e-06
3.5815216e-06
3.5823661e-06
3.5831932e-06
3.5840757e-06
3.5849781e-06
3.5859716e-06
3.5869609e-06
3.5880574e-06
3.5893986e-06
3.5911609e-06
3.5933158e-06
3.5955566e-06
3.5974198e-06
3.5987182e-06
3.5994418e-06
3.5997739e-06
3.5998999e-06
3.5998882e-06
3.5998518e-06
3.5997845e-06
3.599698e-06
3.599586e-06
3.5994513e-06
3.5993458e-06
3.599347e-06
3.5995627e-06
3.599861e-06
3.6000896e-06
3.6001872e-06
3.6001854e-06
3.6001393e-06
3.6000835e-06
3.6000275e-06
3.5999704e-06
3.599918e-06
3.5998834e-06
3.5998779e-06
3.5998936e-06
3.5999552e-06
3.5999746e-06
3.600037e-06
3.6000801e-06
3.600072e-06
3.6001069e-06
3.6000974e-06
3.600128e-06
3.6001206e-06
3.6001539e-06
3.6001478e-06
3.6001455e-06
3.5914409e-06
3.5876914e-06
3.5844857e-06
3.5819693e-06
3.5802426e-06
3.5792984e-06
3.5790528e-06
3.5793234e-06
3.5799322e-06
3.5807048e-06
3.5815246e-06
3.5823655e-06
3.5831863e-06
3.5840643e-06
3.584961e-06
3.5859498e-06
3.5869365e-06
3.588033e-06
3.5893733e-06
3.5911354e-06
3.5932907e-06
3.5955318e-06
3.5973966e-06
3.5986946e-06
3.5994174e-06
3.5997486e-06
3.5998736e-06
3.599866e-06
3.5998297e-06
3.599762e-06
3.5996748e-06
3.599562e-06
3.5994263e-06
3.5993195e-06
3.599327e-06
3.5995417e-06
3.5998382e-06
3.6000649e-06
3.6001603e-06
3.6001558e-06
3.6001069e-06
3.6000478e-06
3.5999883e-06
3.5999274e-06
3.5998712e-06
3.5998328e-06
3.5998238e-06
3.59984e-06
3.5998975e-06
3.599918e-06
3.599974e-06
3.6000188e-06
3.6000091e-06
3.6000507e-06
3.6000385e-06
3.6000816e-06
3.600071e-06
3.6001124e-06
3.6001044e-06
3.6000987e-06
3.6001435e-06
3.6001374e-06
3.5914897e-06
3.5877214e-06
3.5845064e-06
3.5819844e-06
3.580254e-06
3.5793072e-06
3.5790601e-06
3.5793304e-06
3.5799385e-06
3.5807114e-06
3.5815304e-06
3.5823688e-06
3.5831842e-06
3.5840581e-06
3.5849491e-06
3.5859328e-06
3.5869161e-06
3.5880125e-06
3.5893512e-06
3.5911125e-06
3.5932674e-06
3.5955082e-06
3.5973749e-06
3.5986723e-06
3.5993942e-06
3.5997246e-06
3.599849e-06
3.5998471e-06
3.5998118e-06
3.5997445e-06
3.5996573e-06
3.5995445e-06
3.5994083e-06
3.5993006e-06
3.5993144e-06
3.5995284e-06
3.5998236e-06
3.6000489e-06
3.6001426e-06
3.6001363e-06
3.6000854e-06
3.600024e-06
3.5999621e-06
3.5998983e-06
3.5998391e-06
3.5997972e-06
3.5997845e-06
3.5997997e-06
3.5998499e-06
3.599874e-06
3.5999195e-06
3.5999571e-06
3.599949e-06
3.5999854e-06
3.5999733e-06
3.6000164e-06
3.6000042e-06
3.6000539e-06
3.600043e-06
3.6000336e-06
3.6000884e-06
3.6000796e-06
3.5915395e-06
3.5877522e-06
3.5845271e-06
3.581999e-06
3.5802645e-06
3.5793149e-06
3.5790662e-06
3.5793362e-06
3.5799437e-06
3.5807175e-06
3.5815364e-06
3.5823732e-06
3.5831842e-06
3.5840545e-06
3.58494e-06
3.5859183e-06
3.5868977e-06
3.5879937e-06
3.5893304e-06
3.5910903e-06
3.5932443e-06
3.5954842e-06
3.5973534e-06
3.5986508e-06
3.5993724e-06
3.5997028e-06
3.5998276e-06
3.5998327e-06
3.5997993e-06
3.5997329e-06
3.5996463e-06
3.5995336e-06
3.5993971e-06
3.5992887e-06
3.5993075e-06
3.5995209e-06
3.5998151e-06
3.6000394e-06
3.6001322e-06
3.600125e-06
3.6000732e-06
3.6000107e-06
3.5999476e-06
3.5998823e-06
3.5998212e-06
3.5997771e-06
3.5997616e-06
3.5997755e-06
3.5998188e-06
3.5998468e-06
3.5998826e-06
3.59991e-06
3.5999053e-06
3.5999302e-06
3.5999208e-06
3.5999524e-06
3.5999417e-06
3.5999836e-06
3.5999723e-06
3.5999625e-06
3.6000159e-06
3.6000051e-06
3.5915914e-06
3.5877846e-06
3.5845486e-06
3.5820139e-06
3.5802748e-06
3.5793221e-06
3.5790714e-06
3.5793409e-06
3.5799474e-06
3.5807221e-06
3.5815411e-06
3.582377e-06
3.5831845e-06
3.5840515e-06
3.5849318e-06
3.5859045e-06
3.5868794e-06
3.5879749e-06
3.5893093e-06
3.5910674e-06
3.5932203e-06
3.5954597e-06
3.5973326e-06
3.598631e-06
3.5993533e-06
3.5996848e-06
3.5998112e-06
3.5998238e-06
3.5997924e-06
3.5997269e-06
3.5996407e-06
3.5995279e-06
3.599391e-06
3.5992819e-06
3.5993038e-06
3.5995165e-06
3.5998102e-06
3.6000341e-06
3.6001265e-06
3.6001191e-06
3.6000671e-06
3.6000044e-06
3.599941e-06
3.5998752e-06
3.5998133e-06
3.599768e-06
3.5997509e-06
3.5997636e-06
3.5998021e-06
3.5998328e-06
3.5998622e-06
3.5998813e-06
3.5998798e-06
3.599894e-06
3.5998877e-06
3.599906e-06
3.5998983e-06
3.5999248e-06
3.5999158e-06
3.5999084e-06
3.5999452e-06
3.5999356e-06
3.5916463e-06
3.5878195e-06
3.5845716e-06
3.5820298e-06
3.5802858e-06
3.5793296e-06
3.5790765e-06
3.579345e-06
3.5799502e-06
3.5807255e-06
3.5815445e-06
3.5823798e-06
3.5831843e-06
3.5840483e-06
3.5849236e-06
3.5858904e-06
3.5868605e-06
3.5879556e-06
3.5892876e-06
3.5910441e-06
3.5931962e-06
3.5954357e-06
3.597314e-06
3.5986146e-06
3.5993388e-06
3.5996723e-06
3.5998005e-06
3.59982e-06
3.5997901e-06
3.599725e-06
3.5996385e-06
3.5995252e-06
3.5993875e-06
3.5992777e-06
3.5993008e-06
3.5995129e-06
3.5998066e-06
3.6000304e-06
3.600123e-06
3.6001158e-06
3.600064e-06
3.6000016e-06
3.5999382e-06
3.5998722e-06
3.5998098e-06
3.5997638e-06
3.5997458e-06
3.5997576e-06
3.5997937e-06
3.5998252e-06
3.5998515e-06
3.5998659e-06
3.599866e-06
3.5998738e-06
3.5998694e-06
3.5998788e-06
3.5998734e-06
3.5998873e-06
3.599881e-06
3.5998761e-06
3.5998962e-06
3.5998892e-06
3.5917037e-06
3.5878568e-06
3.5845964e-06
3.5820471e-06
3.580298e-06
3.5793382e-06
3.5790824e-06
3.5793495e-06
3.5799531e-06
3.5807286e-06
3.5815473e-06
3.5823818e-06
3.5831838e-06
3.5840449e-06
3.5849153e-06
3.5858764e-06
3.5868414e-06
3.5879362e-06
3.5892662e-06
3.5910215e-06
3.5931736e-06
3.5954142e-06
3.5972993e-06
3.5986031e-06
3.5993297e-06
3.5996652e-06
3.5997951e-06
3.5998196e-06
3.5997903e-06
3.5997246e-06
3.5996373e-06
3.599523e-06
3.5993846e-06
3.5992741e-06
3.5992971e-06
3.5995089e-06
3.5998029e-06
3.600027e-06
3.6001199e-06
3.600113e-06
3.6000614e-06
3.5999991e-06
3.5999356e-06
3.5998694e-06
3.5998065e-06
3.59976e-06
3.5997413e-06
3.5997524e-06
3.5997876e-06
3.5998186e-06
3.5998438e-06
3.5998564e-06
3.5998566e-06
3.5998617e-06
3.5998579e-06
3.5998631e-06
3.5998587e-06
3.5998661e-06
3.5998614e-06
3.5998579e-06
3.5998684e-06
3.5998634e-06
3.5917615e-06
3.5878957e-06
3.5846225e-06
3.5820653e-06
3.5803109e-06
3.5793475e-06
3.5790891e-06
3.5793547e-06
3.5799568e-06
3.5807324e-06
3.5815505e-06
3.5823843e-06
3.5831839e-06
3.5840422e-06
3.5849081e-06
3.5858636e-06
3.5868236e-06
3.5879184e-06
3.5892468e-06
3.5910015e-06
3.5931546e-06
3.5953972e-06
3.5972898e-06
3.598597e-06
3.5993258e-06
3.5996627e-06
3.5997933e-06
3.5998205e-06
3.5997905e-06
3.5997237e-06
3.5996352e-06
3.5995199e-06
3.5993807e-06
3.5992699e-06
3.5992922e-06
3.599504e-06
3.5997985e-06
3.6000229e-06
3.6001162e-06
3.6001094e-06
3.6000577e-06
3.5999952e-06
3.5999312e-06
3.5998646e-06
3.5998012e-06
3.5997541e-06
3.5997349e-06
3.5997455e-06
3.5997804e-06
3.5998107e-06
3.5998355e-06
3.5998477e-06
3.5998476e-06
3.5998519e-06
3.5998481e-06
3.599852e-06
3.599848e-06
3.5998529e-06
3.599849e-06
3.5998462e-06
3.5998526e-06
3.5998489e-06
3.5918169e-06
3.5879345e-06
3.5846487e-06
3.5820834e-06
3.5803237e-06
3.5793566e-06
3.5790958e-06
3.5793598e-06
3.5799612e-06
3.5807369e-06
3.5815548e-06
3.5823881e-06
3.5831857e-06
3.5840413e-06
3.5849031e-06
3.5858535e-06
3.5868086e-06
3.5879037e-06
3.5892311e-06
3.5909859e-06
3.5931404e-06
3.5953855e-06
3.5972853e-06
3.5985954e-06
3.5993253e-06
3.5996625e-06
3.5997929e-06
3.5998205e-06
3.5997891e-06
3.5997208e-06
3.5996311e-06
3.5995151e-06
3.5993756e-06
3.5992649e-06
3.5992864e-06
3.5994983e-06
3.5997932e-06
3.6000179e-06
3.6001112e-06
3.6001042e-06
3.6000521e-06
3.5999891e-06
3.5999246e-06
3.5998574e-06
3.5997934e-06
3.5997459e-06
3.5997263e-06
3.5997368e-06
3.5997717e-06
3.5998018e-06
3.5998263e-06
3.5998385e-06
3.5998386e-06
3.5998427e-06
3.5998394e-06
3.5998428e-06
3.5998395e-06
3.5998434e-06
3.5998404e-06
3.5998387e-06
3.5998431e-06
3.5998406e-06
3.5918676e-06
3.5879723e-06
3.5846743e-06
3.5821007e-06
3.5803353e-06
3.5793645e-06
3.5791013e-06
3.5793639e-06
3.5799652e-06
3.5807415e-06
3.5815597e-06
3.582393e-06
3.5831895e-06
3.5840428e-06
3.5849012e-06
3.585847e-06
3.5867979e-06
3.5878933e-06
3.5892201e-06
3.5909753e-06
3.5931314e-06
3.5953788e-06
3.5972845e-06
3.5985962e-06
3.5993262e-06
3.5996625e-06
3.5997917e-06
3.5998181e-06
3.599785e-06
3.5997155e-06
3.5996251e-06
3.5995088e-06
3.5993695e-06
3.599259e-06
3.5992799e-06
3.5994919e-06
3.5997871e-06
3.6000118e-06
3.6001047e-06
3.6000973e-06
3.6000446e-06
3.5999811e-06
3.599916e-06
3.5998484e-06
3.5997842e-06
3.5997365e-06
3.5997169e-06
3.5997276e-06
3.5997627e-06
3.5997934e-06
3.599818e-06
3.5998302e-06
3.5998314e-06
3.5998353e-06
3.5998334e-06
3.5998363e-06
3.5998345e-06
3.5998375e-06
3.5998359e-06
3.5998359e-06
3.5998387e-06
3.5998375e-06
3.5919132e-06
3.588009e-06
3.5846996e-06
3.5821171e-06
3.5803456e-06
3.5793708e-06
3.5791049e-06
3.579366e-06
3.5799675e-06
3.5807449e-06
3.581564e-06
3.5823982e-06
3.5831946e-06
3.5840463e-06
3.5849022e-06
3.5858444e-06
3.5867916e-06
3.5878873e-06
3.5892136e-06
3.5909691e-06
3.5931265e-06
3.5953755e-06
3.5972853e-06
3.5985972e-06
3.5993262e-06
3.599661e-06
3.5997885e-06
3.5998129e-06
3.5997784e-06
3.5997083e-06
3.5996177e-06
3.5995017e-06
3.5993628e-06
3.5992527e-06
3.599273e-06
3.599485e-06
3.5997801e-06
3.6000045e-06
3.600097e-06
3.600089e-06
3.6000358e-06
3.599972e-06
3.5999067e-06
3.5998391e-06
3.599775e-06
3.5997277e-06
3.5997085e-06
3.5997201e-06
3.5997555e-06
3.5997879e-06
3.5998127e-06
3.599825e-06
3.5998281e-06
3.599832e-06
3.5998319e-06
3.5998344e-06
3.5998343e-06
3.5998364e-06
3.5998362e-06
3.5998375e-06
3.5998389e-06
3.5998386e-06
3.5919553e-06
3.5880456e-06
3.5847255e-06
3.5821338e-06
3.5803553e-06
3.5793758e-06
3.5791066e-06
3.5793657e-06
3.5799672e-06
3.5807457e-06
3.5815662e-06
3.582402e-06
3.5831993e-06
3.5840504e-06
3.5849048e-06
3.5858443e-06
3.5867887e-06
3.5878844e-06
3.58921e-06
3.5909655e-06
3.5931237e-06
3.5953737e-06
3.5972855e-06
3.5985967e-06
3.599324e-06
3.5996569e-06
3.5997829e-06
3.5998053e-06
3.59977e-06
3.5997e-06
3.5996099e-06
3.5994944e-06
3.5993559e-06
3.599246e-06
3.5992657e-06
3.5994774e-06
3.5997724e-06
3.5999963e-06
3.6000884e-06
3.6000802e-06
3.6000269e-06
3.5999632e-06
3.5998983e-06
3.5998313e-06
3.5997679e-06
3.5997214e-06
3.5997033e-06
3.5997161e-06
3.5997521e-06
3.5997867e-06
3.5998121e-06
3.5998246e-06
3.5998297e-06
3.5998335e-06
3.5998351e-06
3.599837e-06
3.5998381e-06
3.5998394e-06
3.5998399e-06
3.5998412e-06
3.5998416e-06
3.5998409e-06
3.5919971e-06
3.5880839e-06
3.5847535e-06
3.5821519e-06
3.5803658e-06
3.5793806e-06
3.5791073e-06
3.5793636e-06
3.5799644e-06
3.5807434e-06
3.5815653e-06
3.5824031e-06
3.5832021e-06
3.5840532e-06
3.5849071e-06
3.5858449e-06
3.5867873e-06
3.5878826e-06
3.5892073e-06
3.5909625e-06
3.5931209e-06
3.5953713e-06
3.5972836e-06
3.5985933e-06
3.5993189e-06
3.5996502e-06
3.5997752e-06
3.5997963e-06
3.5997611e-06
3.5996916e-06
3.5996022e-06
3.5994872e-06
3.5993488e-06
3.5992388e-06
3.5992581e-06
3.5994695e-06
3.5997642e-06
3.5999881e-06
3.6000801e-06
3.6000721e-06
3.6000193e-06
3.5999564e-06
3.5998924e-06
3.5998265e-06
3.5997643e-06
3.5997192e-06
3.5997025e-06
3.5997166e-06
3.5997533e-06
3.5997901e-06
3.5998162e-06
3.5998288e-06
3.5998353e-06
3.5998388e-06
3.5998411e-06
3.5998425e-06
3.5998434e-06
3.5998438e-06
3.5998434e-06
3.599843e-06
3.5998428e-06
3.5998401e-06
3.5920425e-06
3.5881259e-06
3.5847851e-06
3.582173e-06
3.5803783e-06
3.5793866e-06
3.5791082e-06
3.5793607e-06
3.5799597e-06
3.5807383e-06
3.581561e-06
3.5824004e-06
3.5832014e-06
3.5840531e-06
3.5849071e-06
3.5858439e-06
3.5867851e-06
3.5878798e-06
3.5892033e-06
3.590958e-06
3.5931164e-06
3.5953669e-06
3.5972786e-06
3.5985869e-06
3.5993112e-06
3.5996415e-06
3.5997664e-06
3.599787e-06
3.5997523e-06
3.5996837e-06
3.5995948e-06
3.59948e-06
3.5993414e-06
3.5992311e-06
3.5992502e-06
3.5994615e-06
3.5997564e-06
3.5999807e-06
3.6000733e-06
3.6000662e-06
3.6000145e-06
3.5999529e-06
3.5998904e-06
3.599826e-06
3.5997654e-06
3.5997218e-06
3.5997063e-06
3.5997215e-06
3.5997588e-06
3.599797e-06
3.5998234e-06
3.5998358e-06
3.5998424e-06
3.5998453e-06
3.5998466e-06
3.599847e-06
3.599846e-06
3.5998455e-06
3.5998428e-06
3.5998391e-06
3.5998384e-06
3.599833e-06
3.5920955e-06
3.5881731e-06
3.5848209e-06
3.5821977e-06
3.5803937e-06
3.5793948e-06
3.5791104e-06
3.5793582e-06
3.5799542e-06
3.5807312e-06
3.5815537e-06
3.582394e-06
3.5831966e-06
3.584049e-06
3.5849034e-06
3.5858398e-06
3.5867805e-06
3.5878742e-06
3.5891965e-06
3.5909507e-06
3.593109e-06
3.5953597e-06
3.5972706e-06
3.5985779e-06
3.5993016e-06
3.5996319e-06
3.5997573e-06
3.5997782e-06
3.5997443e-06
3.5996764e-06
3.5995876e-06
3.5994726e-06
3.5993337e-06
3.5992231e-06
3.5992427e-06
3.5994546e-06
3.5997503e-06
3.5999755e-06
3.6000693e-06
3.6000636e-06
3.6000135e-06
3.5999537e-06
3.5998929e-06
3.5998301e-06
3.5997709e-06
3.5997285e-06
3.5997139e-06
3.5997294e-06
3.5997667e-06
3.5998048e-06
3.5998309e-06
3.5998426e-06
3.5998476e-06
3.5998492e-06
3.5998478e-06
3.5998469e-06
3.5998427e-06
3.5998412e-06
3.5998352e-06
3.599828e-06
3.5998271e-06
3.5998195e-06
3.592159e-06
3.5882261e-06
3.5848608e-06
3.5822256e-06
3.5804117e-06
3.5794051e-06
3.5791144e-06
3.579357e-06
3.579949e-06
3.5807233e-06
3.5815444e-06
3.5823846e-06
3.5831879e-06
3.5840406e-06
3.5848953e-06
3.5858316e-06
3.5867722e-06
3.5878647e-06
3.5891858e-06
3.5909398e-06
3.5930984e-06
3.5953496e-06
3.59726e-06
3.5985673e-06
3.5992914e-06
3.5996225e-06
3.599749e-06
3.5997703e-06
3.599737e-06
3.5996693e-06
3.5995804e-06
3.5994651e-06
3.5993259e-06
3.5992154e-06
3.5992365e-06
3.5994497e-06
3.5997469e-06
3.5999737e-06
3.6000692e-06
3.6000653e-06
3.600017e-06
3.5999589e-06
3.5998996e-06
3.599838e-06
3.5997796e-06
3.5997375e-06
3.5997229e-06
3.5997376e-06
3.5997741e-06
3.5998105e-06
3.5998352e-06
3.5998456e-06
3.5998473e-06
3.5998471e-06
3.5998421e-06
3.5998396e-06
3.5998319e-06
3.5998295e-06
3.5998208e-06
3.5998117e-06
3.5998111e-06
3.5998034e-06
3.5922343e-06
3.5882848e-06
3.5849039e-06
3.5822556e-06
3.5804315e-06
3.579417e-06
3.5791198e-06
3.5793571e-06
3.5799446e-06
3.5807155e-06
3.5815342e-06
3.582373e-06
3.583176e-06
3.5840283e-06
3.584883e-06
3.5858191e-06
3.5867599e-06
3.5878512e-06
3.5891713e-06
3.5909253e-06
3.5930848e-06
3.5953373e-06
3.5972481e-06
3.5985563e-06
3.5992818e-06
3.5996141e-06
3.5997416e-06
3.5997633e-06
3.5997301e-06
3.5996624e-06
3.5995733e-06
3.5994579e-06
3.599319e-06
3.5992092e-06
3.5992327e-06
3.599448e-06
3.5997473e-06
3.599976e-06
3.6000734e-06
3.6000712e-06
3.6000245e-06
3.5999675e-06
3.599909e-06
3.5998477e-06
3.5997891e-06
3.5997462e-06
3.5997303e-06
3.5997431e-06
3.5997779e-06
3.599811e-06
3.5998335e-06
3.599842e-06
3.5998398e-06
3.5998375e-06
3.5998289e-06
3.5998251e-06
3.5998151e-06
3.5998124e-06
3.5998033e-06
3.5997951e-06
3.5997956e-06
3.5997909e-06
3.5923211e-06
3.5883487e-06
3.5849493e-06
3.5822867e-06
3.5804518e-06
3.5794294e-06
3.5791258e-06
3.5793579e-06
3.5799411e-06
3.5807082e-06
3.5815239e-06
3.5823603e-06
3.583162e-06
3.5840131e-06
3.5848671e-06
3.5858027e-06
3.5867439e-06
3.587834e-06
3.5891533e-06
3.590908e-06
3.5930691e-06
3.5953238e-06
3.5972362e-06
3.5985462e-06
3.5992734e-06
3.5996068e-06
3.5997348e-06
3.5997566e-06
3.5997233e-06
3.5996555e-06
3.5995666e-06
3.5994517e-06
3.5993139e-06
3.5992057e-06
3.5992324e-06
3.5994503e-06
3.5997517e-06
3.5999824e-06
3.6000814e-06
3.6000804e-06
3.6000344e-06
3.5999777e-06
3.5999189e-06
3.5998567e-06
3.5997966e-06
3.5997517e-06
3.5997334e-06
3.5997432e-06
3.5997755e-06
3.5998044e-06
3.5998243e-06
3.5998307e-06
3.5998249e-06
3.5998211e-06
3.5998104e-06
3.5998063e-06
3.5997965e-06
3.5997948e-06
3.5997881e-06
3.5997842e-06
3.599787e-06
3.5997877e-06
3.5924181e-06
3.5884173e-06
3.5849962e-06
3.582318e-06
3.5804718e-06
3.5794413e-06
3.5791315e-06
3.5793588e-06
3.5799378e-06
3.5807013e-06
3.5815139e-06
3.5823474e-06
3.5831467e-06
3.5839958e-06
3.5848486e-06
3.5857833e-06
3.5867247e-06
3.5878138e-06
3.5891328e-06
3.5908888e-06
3.5930525e-06
3.5953104e-06
3.5972254e-06
3.5985377e-06
3.5992664e-06
3.5996004e-06
3.5997283e-06
3.59975e-06
3.5997167e-06
3.5996493e-06
3.5995612e-06
3.5994477e-06
3.5993117e-06
3.5992056e-06
3.5992359e-06
3.5994565e-06
3.5997599e-06
3.5999919e-06
3.6000917e-06
3.600091e-06
3.6000446e-06
3.599987e-06
3.5999266e-06
3.5998622e-06
3.5997995e-06
3.5997515e-06
3.5997298e-06
3.5997361e-06
3.5997656e-06
3.5997904e-06
3.5998079e-06
3.5998129e-06
3.5998052e-06
3.5998012e-06
3.5997911e-06
3.5997885e-06
3.599782e-06
3.5997828e-06
3.5997814e-06
3.5997842e-06
3.5997899e-06
3.5997969e-06
3.5925237e-06
3.5884904e-06
3.5850451e-06
3.5823497e-06
3.5804914e-06
3.5794523e-06
3.5791362e-06
3.5793589e-06
3.5799342e-06
3.5806945e-06
3.5815042e-06
3.5823346e-06
3.5831311e-06
3.5839777e-06
3.5848285e-06
3.5857619e-06
3.5867036e-06
3.5877919e-06
3.5891111e-06
3.5908693e-06
3.5930363e-06
3.5952983e-06
3.5972164e-06
3.5985308e-06
3.5992604e-06
3.5995943e-06
3.5997217e-06
3.5997435e-06
3.5997109e-06
3.5996447e-06
3.5995583e-06
3.5994469e-06
3.5993132e-06
3.5992096e-06
3.5992432e-06
3.5994659e-06
3.5997705e-06
3.6000029e-06
3.6001024e-06
3.6001006e-06
3.6000527e-06
3.5999928e-06
3.5999297e-06
3.599862e-06
3.5997957e-06
3.5997441e-06
3.5997188e-06
3.5997217e-06
3.5997488e-06
3.5997709e-06
3.5997872e-06
3.5997921e-06
3.5997853e-06
3.5997829e-06
3.5997768e-06
3.5997774e-06
3.5997769e-06
3.5997814e-06
3.5997867e-06
3.5997968e-06
3.5998053e-06
3.5998174e-06
3.5926366e-06
3.5885682e-06
3.5850965e-06
3.5823826e-06
3.5805111e-06
3.579463e-06
3.5791402e-06
3.5793582e-06
3.5799298e-06
3.5806874e-06
3.5814945e-06
3.5823221e-06
3.5831156e-06
3.5839594e-06
3.5848079e-06
3.5857399e-06
3.5866816e-06
3.5877697e-06
3.5890896e-06
3.5908506e-06
3.5930216e-06
3.5952878e-06
3.597209e-06
3.5985249e-06
3.5992547e-06
3.599588e-06
3.5997149e-06
3.5997377e-06
3.5997067e-06
3.5996426e-06
3.5995587e-06
3.5994499e-06
3.5993185e-06
3.5992172e-06
3.5992531e-06
3.5994769e-06
3.5997816e-06
3.6000132e-06
3.6001111e-06
3.600107e-06
3.6000562e-06
3.599993e-06
3.5999262e-06
3.5998547e-06
3.5997845e-06
3.5997293e-06
3.5997009e-06
3.5997016e-06
3.5997275e-06
3.5997493e-06
3.5997665e-06
3.5997733e-06
3.5997707e-06
3.5997721e-06
3.5997725e-06
3.5997776e-06
3.5997843e-06
3.5997927e-06
3.5998043e-06
3.5998198e-06
3.5998301e-06
3.5998446e-06
3.5927559e-06
3.588651e-06
3.5851512e-06
3.5824174e-06
3.5805319e-06
3.5794739e-06
3.5791439e-06
3.5793569e-06
3.5799247e-06
3.5806797e-06
3.5814848e-06
3.5823099e-06
3.5831007e-06
3.5839417e-06
3.5847877e-06
3.5857183e-06
3.5866602e-06
3.5877484e-06
3.5890695e-06
3.5908336e-06
3.5930087e-06
3.595279e-06
3.5972026e-06
3.5985193e-06
3.5992489e-06
3.5995816e-06
3.5997086e-06
3.5997335e-06
3.5997052e-06
3.599644e-06
3.5995628e-06
3.5994565e-06
3.5993271e-06
3.5992272e-06
3.599264e-06
3.5994875e-06
3.599791e-06
3.6000206e-06
3.6001156e-06
3.6001081e-06
3.6000535e-06
3.5999863e-06
3.5999155e-06
3.5998402e-06
3.5997666e-06
3.5997087e-06
3.5996787e-06
3.5996792e-06
3.5997061e-06
3.5997308e-06
3.5997513e-06
3.5997621e-06
3.5997663e-06
3.5997729e-06
3.5997809e-06
3.5997906e-06
3.5998037e-06
3.5998151e-06
3.5998304e-06
3.5998482e-06
3.5998589e-06
3.5998729e-06
3.5928814e-06
3.5887392e-06
3.58521e-06
3.582455e-06
3.5805544e-06
3.5794859e-06
3.5791481e-06
3.5793556e-06
3.5799192e-06
3.5806715e-06
3.5814749e-06
3.5822979e-06
3.5830863e-06
3.5839249e-06
3.5847687e-06
3.5856979e-06
3.5866401e-06
3.5877288e-06
3.5890512e-06
3.5908184e-06
3.5929974e-06
3.5952709e-06
3.5971965e-06
3.5985136e-06
3.599243e-06
3.5995757e-06
3.5997037e-06
3.5997319e-06
3.5997071e-06
3.5996492e-06
3.5995705e-06
3.5994659e-06
3.5993376e-06
3.599238e-06
3.5992738e-06
3.5994956e-06
3.5997966e-06
3.6000229e-06
3.6001141e-06
3.6001025e-06
3.6000437e-06
3.5999724e-06
3.5998979e-06
3.5998197e-06
3.5997441e-06
3.5996856e-06
3.5996562e-06
3.5996593e-06
3.5996896e-06
3.5997204e-06
3.5997465e-06
3.5997626e-06
3.5997747e-06
3.5997866e-06
3.5998011e-06
3.5998143e-06
3.5998309e-06
3.5998436e-06
3.5998596e-06
3.5998764e-06
3.5998861e-06
3.5998977e-06
3.5930132e-06
3.5888332e-06
3.5852733e-06
3.5824957e-06
3.5805791e-06
3.5794993e-06
3.5791531e-06
3.5793547e-06
3.5799138e-06
3.5806632e-06
3.5814649e-06
3.5822862e-06
3.5830726e-06
3.5839092e-06
3.584751e-06
3.585679e-06
3.5866217e-06
3.587711e-06
3.5890345e-06
3.5908045e-06
3.5929866e-06
3.5952629e-06
3.59719e-06
3.5985076e-06
3.5992374e-06
3.5995712e-06
3.5997013e-06
3.5997338e-06
3.5997127e-06
3.5996576e-06
3.5995807e-06
3.5994767e-06
3.5993481e-06
3.5992473e-06
3.5992806e-06
3.5994992e-06
3.5997967e-06
3.6000189e-06
3.6001058e-06
3.6000898e-06
3.600027e-06
3.5999525e-06
3.5998756e-06
3.5997962e-06
3.599721e-06
3.5996644e-06
3.5996387e-06
3.599647e-06
3.599683e-06
3.5997219e-06
3.5997544e-06
3.599776e-06
3.5997949e-06
3.5998108e-06
3.5998291e-06
3.5998436e-06
3.5998606e-06
3.5998727e-06
3.5998865e-06
3.5999002e-06
3.5999084e-06
3.5999168e-06
3.593152e-06
3.5889331e-06
3.5853411e-06
3.5825397e-06
3.5806061e-06
3.5795143e-06
3.5791592e-06
3.5793544e-06
3.5799086e-06
3.580655e-06
3.5814548e-06
3.5822746e-06
3.5830593e-06
3.5838943e-06
3.5847345e-06
3.5856616e-06
3.5866048e-06
3.5876945e-06
3.5890188e-06
3.5907909e-06
3.5929755e-06
3.5952541e-06
3.5971831e-06
3.5985019e-06
3.5992332e-06
3.5995692e-06
3.5997024e-06
3.5997392e-06
3.5997214e-06
3.5996682e-06
3.5995917e-06
3.599487e-06
3.5993565e-06
3.5992532e-06
3.5992825e-06
3.5994969e-06
3.5997902e-06
3.600008e-06
3.6000906e-06
3.6000708e-06
3.6000051e-06
3.5999289e-06
3.5998519e-06
3.599774e-06
3.599702e-06
3.5996503e-06
3.5996309e-06
3.5996464e-06
3.5996891e-06
3.5997362e-06
3.5997746e-06
3.5998003e-06
3.5998232e-06
3.5998407e-06
3.5998592e-06
3.5998729e-06
3.5998875e-06
3.5998977e-06
3.5999082e-06
3.5999182e-06
3.5999249e-06
3.5999307e-06
3.5932985e-06
3.5890394e-06
3.5854137e-06
3.582587e-06
3.5806351e-06
3.5795306e-06
3.5791661e-06
3.5793546e-06
3.5799037e-06
3.5806468e-06
3.5814447e-06
3.582263e-06
3.5830461e-06
3.5838798e-06
3.5847186e-06
3.5856448e-06
3.5865885e-06
3.5876783e-06
3.5890029e-06
3.5907766e-06
3.5929635e-06
3.5952444e-06
3.5971761e-06
3.5984975e-06
3.5992316e-06
3.5995707e-06
3.5997071e-06
3.5997477e-06
3.5997321e-06
3.5996793e-06
3.5996016e-06
3.5994946e-06
3.5993608e-06
3.5992538e-06
3.5992782e-06
3.5994879e-06
3.5997768e-06
3.5999906e-06
3.6000698e-06
3.6000477e-06
3.5999811e-06
3.5999058e-06
3.5998314e-06
3.599758e-06
3.5996921e-06
3.5996475e-06
3.5996358e-06
3.5996589e-06
3.5997077e-06
3.5997611e-06
3.599803e-06
3.5998306e-06
3.5998539e-06
3.5998705e-06
3.5998865e-06
3.5998979e-06
3.5999088e-06
3.5999168e-06
3.599924e-06
3.5999311e-06
3.5999368e-06
3.5999408e-06
3.5934537e-06
3.5891525e-06
3.5854913e-06
3.5826376e-06
3.5806664e-06
3.5795482e-06
3.5791736e-06
3.579355e-06
3.5798987e-06
3.5806383e-06
3.5814344e-06
3.5822511e-06
3.5830326e-06
3.583865e-06
3.5847026e-06
3.5856278e-06
3.5865718e-06
3.5876614e-06
3.5889858e-06
3.5907609e-06
3.5929502e-06
3.5952343e-06
3.5971701e-06
3.5984954e-06
3.5992333e-06
3.5995758e-06
3.5997151e-06
3.599758e-06
3.599743e-06
3.5996889e-06
3.5996085e-06
3.5994976e-06
3.5993595e-06
3.599248e-06
3.5992671e-06
3.5994724e-06
3.5997575e-06
3.5999685e-06
3.600046e-06
3.6000239e-06
3.5999592e-06
3.5998877e-06
3.5998191e-06
3.5997527e-06
3.5996946e-06
3.599658e-06
3.5996537e-06
3.5996828e-06
3.5997356e-06
3.5997918e-06
3.5998344e-06
3.5998611e-06
3.5998819e-06
3.599896e-06
3.599908e-06
3.5999167e-06
3.5999241e-06
3.5999303e-06
3.5999352e-06
3.5999405e-06
3.5999455e-06
3.599948e-06
3.5936183e-06
3.589273e-06
3.5855741e-06
3.5826916e-06
3.5806997e-06
3.5795669e-06
3.5791818e-06
3.5793555e-06
3.5798935e-06
3.5806295e-06
3.5814234e-06
3.5822384e-06
3.5830184e-06
3.5838494e-06
3.5846856e-06
3.5856097e-06
3.5865537e-06
3.5876428e-06
3.5889669e-06
3.5907438e-06
3.5929363e-06
3.5952247e-06
3.5971661e-06
3.5984965e-06
3.5992385e-06
3.599584e-06
3.5997253e-06
3.5997686e-06
3.5997522e-06
3.5996951e-06
3.5996105e-06
3.5994947e-06
3.5993515e-06
3.5992353e-06
3.5992498e-06
3.5994515e-06
3.5997344e-06
3.5999445e-06
3.600023e-06
3.6000039e-06
3.5999442e-06
3.5998794e-06
3.5998186e-06
3.5997605e-06
3.5997103e-06
3.5996806e-06
3.5996815e-06
3.5997137e-06
3.5997674e-06
3.5998228e-06
3.5998633e-06
3.5998875e-06
3.5999042e-06
3.5999151e-06
3.5999233e-06
3.5999299e-06
3.5999349e-06
3.5999401e-06
3.5999437e-06
3.5999477e-06
3.5999516e-06
3.5999517e-06
3.5937931e-06
3.5894013e-06
3.5856624e-06
3.5827493e-06
3.5807351e-06
3.5795869e-06
3.5791903e-06
3.579356e-06
3.5798879e-06
3.5806199e-06
3.5814115e-06
3.5822247e-06
3.5830029e-06
3.5838324e-06
3.5846669e-06
3.5855896e-06
3.5865337e-06
3.5876221e-06
3.5889463e-06
3.5907258e-06
3.5929227e-06
3.5952169e-06
3.5971652e-06
3.5985012e-06
3.5992469e-06
3.5995943e-06
3.5997357e-06
3.5997774e-06
3.5997576e-06
3.5996961e-06
3.5996063e-06
3.5994851e-06
3.5993368e-06
3.5992163e-06
3.5992276e-06
3.5994277e-06
3.5997108e-06
3.599923e-06
3.6000055e-06
3.5999924e-06
3.5999403e-06
3.5998839e-06
3.5998315e-06
3.599781e-06
3.5997369e-06
3.5997112e-06