/*--------------------------------*- C++ -*----------------------------------*\
| =========                 |                                                 |
| \\      /  F ield         | OpenFOAM: The Open Source CFD Toolbox           |
|  \\    /   O peration     | Version:  2506                                  |
|   \\  /    A nd           | Website:  www.openfoam.com                      |
|    \\/     M anipulation  |                                                 |
\*---------------------------------------------------------------------------*/
FoamFile
{
    version     2.0;
    format      ascii;
    arch        "LSB;label=32;scalar=64";
    class       volScalarField;
    location    "0.016";
    object      Co;
}
// * * * * * * * * * * * * * * * * * * * * * * * * * * * * * * * * * * * * * //

dimensions      [0 0 0 0 0 0 0];

internalField   nonuniform List<scalar> 
13763
(
0.027423192
0.041147488
0.05360587
0.051001347
0.042858098
0.037134815
0.03891672
0.039454074
0.037272235
0.033448415
0.030169279
0.03159782
0.033625985
0.033666973
0.032031334
0.031010827
0.029952845
0.029955349
0.029444876
0.029964707
0.030245975
0.031000143
0.032435554
0.033711187
0.037051269
0.036875901
0.039438334
0.042513952
0.040781993
0.052292201
0.046025028
0.050108163
0.046779932
0.048535196
0.045339721
0.043788295
0.040216994
0.03762603
0.033832599
0.032008862
0.02995697
0.028232223
0.026444289
0.024828406
0.023357254
0.022032102
0.020787654
0.019642724
0.025967405
0.038953919
0.050794063
0.04834942
0.040630666
0.035206432
0.03691761
0.037439102
0.035372356
0.031745005
0.028632498
0.029996614
0.03193151
0.031975449
0.03042572
0.029457736
0.028455627
0.028460521
0.027979203
0.028476017
0.028746905
0.029465895
0.030834465
0.03204913
0.035230999
0.035063886
0.037511866
0.04043247
0.03879578
0.04974365
0.043787513
0.04767342
0.044511335
0.04618253
0.043145357
0.041672464
0.038277357
0.035813198
0.032201796
0.030465893
0.028513476
0.02687327
0.025172422
0.023635124
0.022235399
0.020974593
0.019790542
0.018701144
0.017683099
0.016720469
0.024578775
0.036859479
0.048110053
0.045818052
0.038505206
0.033366001
0.035009667
0.035516278
0.03355938
0.030119839
0.027166191
0.028468719
0.030314907
0.030361666
0.028893966
0.027976284
0.027027469
0.027034588
0.026581242
0.027056044
0.027317304
0.028002959
0.029307927
0.030465056
0.033496165
0.033337602
0.03567594
0.038449399
0.036904596
0.047311775
0.041653668
0.045352051
0.042349137
0.043939099
0.041053638
0.039655608
0.036428605
0.034085427
0.030647512
0.028995407
0.027137836
0.025578274
0.023960463
0.022498079
0.021166451
0.019966983
0.018840509
0.017804044
0.016835396
0.015919433
0.015080036
0.023266914
0.034878989
0.045571739
0.043423296
0.036493817
0.031623737
0.033203126
0.033695285
0.031841915
0.02857994
0.025776374
0.02702024
0.028782057
0.028831144
0.027440952
0.026570732
0.025672223
0.025681215
0.025254221
0.025707898
0.025959849
0.026613646
0.027858012
0.028960292
0.031848012
0.031697362
0.033931318
0.036564722
0.035107111
0.045000026
0.039625071
0.043145069
0.040293288
0.041805709
0.039064413
0.03773745
0.034670192
0.032442004
0.02916901
0.027596535
0.025829111
0.02434619
0.022807322
0.02141616
0.020149277
0.019008131
0.017936407
0.01695028
0.016028609
0.015157031
0.01435824
0.013612997
0.012932108
0.02202124
0.032996853
0.04315936
0.041146962
0.034581683
0.029967224
0.031485343
0.031963681
0.030208538
0.027115342
0.024454312
0.025642275
0.027323732
0.027374881
0.026058338
0.025233205
0.024382467
0.024393157
0.02399119
0.024424671
0.024667724
0.025291123
0.026477718
0.027527727
0.030278865
0.030135692
0.032270201
0.034770186
0.033395552
0.042798664
0.037693308
0.041043445
0.038335496
0.039774032
0.03716997
0.035910673
0.032995504
0.030876826
0.027760892
0.026264239
0.024582648
0.0231727
0.02170901
0.02038567
0.019180446
0.01809484
0.017075257
0.016137068
0.015260137
0.01443083
0.013670713
0.012961525
0.012313631
0.01172221
0.01114246
0.020836409
0.031205147
0.040862826
0.038979705
0.032761116
0.028389971
0.029849667
0.030314873
0.02865315
0.025720674
0.023195251
0.02432995
0.025934843
0.02598788
0.024741454
0.023959258
0.023153983
0.023166266
0.022788139
0.023202347
0.02343694
0.024031363
0.025162899
0.02616311
0.028784119
0.028648069
0.030687828
0.033060722
0.03176512
0.040701624
0.035853106
0.039041472
0.036470518
0.037838684
0.035365343
0.034170517
0.031400228
0.029385891
0.026419589
0.024995165
0.023395337
0.022054902
0.020662829
0.019404099
0.018257612
0.017224914
0.016255
0.015362476
0.014528164
0.013739124
0.013015849
0.012341006
0.011724508
0.011161768
0.010610023
0.010040247
0.0094976634
0.019715067
0.029507694
0.038686915
0.036925736
0.031035282
0.026894459
0.028298491
0.028751071
0.027177611
0.024397383
0.022000306
0.02308429
0.024616332
0.024670924
0.02349089
0.022749315
0.021987047
0.02200069
0.021645095
0.02204084
0.022267297
0.022834051
0.023913118
0.024865877
0.027363052
0.027233657
0.029183202
0.031435116
0.030214553
0.038707155
0.034102818
0.03713721
0.034696453
0.035997574
0.033648489
0.032514915
0.029882398
0.027967281
0.025143312
0.023787558
0.022265483
0.020991158
0.019667203
0.018469927
0.017379313
0.016396943
0.015474281
0.0146252
0.013831434
0.013080704
0.012392485
0.011750353
0.011163725
0.010628242
0.01010315
0.0095608351
0.0090443858
0.0085660302
0.0081228364
0.0077152625
0.018651564
0.027896109
0.036620923
0.034975127
0.029396004
0.025473774
0.026824713
0.027265247
0.025775384
0.023139712
0.020864381
0.021900061
0.02336272
0.023418621
0.022301601
0.021598564
0.020877085
0.020891925
0.020557696
0.020935775
0.021154442
0.021694783
0.022723832
0.023631363
0.026010601
0.025887472
0.027751075
0.029887764
0.028738551
0.036808511
0.032436571
0.035324321
0.033007458
0.034244687
0.032013851
0.030938534
0.02843717
0.026616498
0.023928045
0.022637649
0.021189584
0.01997819
0.018719085
0.017580316
0.016542894
0.015608439
0.014730765
0.013923045
0.013167885
0.012453632
0.011798795
0.011187814
0.010629627
0.010120093
0.0096203827
0.0091042169
0.0086126546
0.0081573418
0.0077354857
0.0073475269
0.0069904378
0.006659529
0.017644272
0.026367964
0.034661706
0.033124876
0.027840691
0.024125654
0.025425965
0.025854969
0.024444152
0.02194554
0.019785529
0.020775215
0.022171819
0.02222876
0.021171463
0.020504927
0.01982207
0.019837923
0.019523914
0.019885074
0.020096257
0.020611373
0.021592744
0.022457163
0.024724121
0.02460686
0.026388602
0.028415562
0.027334142
0.035001835
0.03085097
0.033599085
0.031400045
0.03257638
0.030458017
0.02943807
0.027061502
0.025330679
0.022771203
0.021542981
0.020165332
0.019013819
0.017816426
0.016733334
0.015746534
0.014857679
0.014022822
0.013254469
0.012536054
0.011856521
0.011233461
0.010652131
0.010121018
0.0096361856
0.0091606391
0.0086693684
0.0082014993
0.0077681258
0.0073665853
0.0069973024
0.0066573954
0.0063423972
0.016690501
0.024919277
0.03280417
0.031370224
0.026365352
0.022846684
0.024098758
0.024516653
0.023180628
0.020811909
0.018761094
0.019707005
0.021040729
0.021098462
0.02009775
0.019465774
0.018819478
0.018836177
0.018541294
0.018886253
0.019090252
0.019581278
0.020517206
0.021340536
0.023500615
0.023388841
0.025092629
0.027015112
0.025998099
0.033282966
0.029342368
0.031957548
0.029870538
0.030988843
0.028977441
0.028010109
0.025752258
0.024106898
0.021670156
0.020501072
0.019190408
0.018095861
0.016957184
0.015927066
0.014988435
0.01414297
0.013348857
0.012617966
0.011934517
0.011288027
0.010695211
0.010142102
0.0096367554
0.0091754345
0.0087228883
0.0082553143
0.0078099995
0.0073975113
0.0070153101
0.0066638063
0.0063402564
0.0060404051
0.015784041
0.023540842
0.031036522
0.029700252
0.024961068
0.021629379
0.022835431
0.023242698
0.021977823
0.019732698
0.017785695
0.018689922
0.019963711
0.020022109
0.019075238
0.018476158
0.017864635
0.017882105
0.017605429
0.017934916
0.01813207
0.01860012
0.019492728
0.020276901
0.022335146
0.022228588
0.023858092
0.025681033
0.024725362
0.031645506
0.027905239
0.030393788
0.028413487
0.029476513
0.027567001
0.026649784
0.024505034
0.022941094
0.020621302
0.019508556
0.0182617
0.017221419
0.016138677
0.015159027
0.014266284
0.013462154
0.012706856
0.012011651
0.011361514
0.010746501
0.010182497
0.0096562704
0.0091754702
0.0087365471
0.0083059117
0.0078609107
0.0074370812
0.0070444882
0.0066807095
0.0063461418
0.0060381734
0.0057527509
0.01492519
0.022233087
0.029359263
0.028115314
0.023627953
0.020473722
0.021635904
0.022032942
0.020835473
0.01870756
0.01685893
0.017723493
0.0189402
0.018999065
0.018103249
0.017535353
0.01695678
0.016974891
0.01671546
0.017030139
0.017220733
0.017666842
0.018518157
0.019265005
0.021226288
0.021124624
0.022683377
0.024411519
0.023514166
0.030087104
0.026537454
0.028905437
0.027026631
0.028036996
0.026224411
0.025354845
0.023317722
0.021831262
0.019622805
0.018563667
0.017377527
0.016388888
0.015359384
0.014427768
0.013578702
0.012813915
0.012095564
0.011434329
0.0108159
0.010230851
0.0096942767
0.0091936414
0.0087362095
0.0083186097
0.0079088344
0.0074853246
0.0070819512
0.0067083009
0.006362063
0.006043621
0.0057504888
0.005478805
0.014113052
0.020994683
0.027770677
0.026613746
0.022364516
0.01937837
0.020498758
0.020885942
0.019752144
0.017735145
0.015979541
0.016806382
0.017968753
0.018027853
0.017180346
0.016641929
0.016094504
0.016113096
0.015869947
0.016170431
0.016354705
0.016779848
0.017591802
0.018303069
0.020172069
0.020074954
0.021566334
0.023204206
0.022362231
0.028604797
0.025236381
0.027489601
0.025707235
0.026667431
0.024946965
0.024122662
0.022187889
0.020775121
0.01867259
0.017664423
0.01653602
0.015596497
0.014617634
0.013731711
0.012924196
0.012196838
0.011513639
0.010884724
0.010296465
0.0097399288
0.0092294563
0.0087531728
0.00831798
0.0079206737
0.0075307508
0.0071276961
0.0067437939
0.0063881743
0.0060586335
0.0057555419
0.0054765329
0.005217928
0.01334373
0.019819913
0.026263402
0.025188696
0.021165117
0.018338558
0.019419094
0.019796838
0.018723324
0.016811469
0.015144006
0.015934969
0.017045575
0.01710474
0.016303033
0.015792554
0.01527464
0.015293602
0.015065871
0.015352764
0.015530975
0.015936093
0.016710521
0.017387864
0.019168986
0.019076133
0.020503333
0.022055225
0.021265899
0.027193928
0.023997965
0.02614191
0.024451266
0.025363672
0.023730834
0.022949566
0.021112204
0.019769576
0.017767898
0.016808233
0.015734774
0.014841994
0.013911336
0.013068908
0.012300946
0.011609218
0.010959483
0.010361334
0.0098017979
0.0092724075
0.0087867865
0.008333687
0.0079196688
0.0075416852
0.0071706642
0.006787087
0.0064217254
0.0060832753
0.0057696343
0.0054811604
0.0052156006
0.0049694508
0.012614971
0.018705529
0.024833244
0.023836235
0.020026471
0.017351477
0.018394015
0.018762729
0.017746296
0.015934091
0.014350138
0.015106983
0.01616828
0.016227352
0.015469064
0.014985063
0.014495114
0.014514341
0.014301209
0.014575091
0.014747485
0.015133476
0.015872129
0.016517133
0.018214575
0.018125718
0.019491776
0.020961771
0.020222501
0.025851079
0.022819218
0.02485912
0.023255701
0.024122597
0.022573102
0.021832755
0.020088105
0.018812233
0.016906582
0.015993067
0.014971893
0.014123599
0.013238825
0.012437798
0.011707488
0.011049675
0.010431795
0.0098629354
0.0093307418
0.008827195
0.0083652338
0.0079342059
0.0075403469
0.0071807608
0.006827737
0.0064627055
0.006114998
0.0057928966
0.0054943957
0.005219841
0.0049670879
0.0047327982
0.011924612
0.01764838
0.023476127
0.022552543
0.018945395
0.016414406
0.017420718
0.017780815
0.01681844
0.015100663
0.013595841
0.014320249
0.015334577
0.015393419
0.014676297
0.014217393
0.013753947
0.01377335
0.013574044
0.013835476
0.014002294
0.01437002
0.015074573
0.01568875
0.017306516
0.017221405
0.018529228
0.019921229
0.01922955
0.02457306
0.021697344
0.023638196
0.022117726
0.022941289
0.021471065
0.02076963
0.019113212
0.017900872
0.016086647
0.015217043
0.014245622
0.013439663
0.012598559
0.011836939
0.011142465
0.010516934
0.0099293768
0.0093883961
0.0088822303
0.0084032845
0.0079638468
0.0075538313
0.0071791621
0.0068370895
0.0065012
0.0061538252
0.0058229255
0.0055163894
0.0052323032
0.0049710011
0.0047304413
0.0045074438
0.011270569
0.016645399
0.022188069
0.021333878
0.017918763
0.015524676
0.016496436
0.016848315
0.015937159
0.014308857
0.012879042
0.013572605
0.014542184
0.014600664
0.013922577
0.013487463
0.013049147
0.013068642
0.012882435
0.013131951
0.013293421
0.013643706
0.01431575
0.01490054
0.016442434
0.016360839
0.017613182
0.018930892
0.018284468
0.023356574
0.020629459
0.022476006
0.021034421
0.021816732
0.020421908
0.019757485
0.018185054
0.017033184
0.015306019
0.014478202
0.013554128
0.012788463
0.011988931
0.011264822
0.010604464
0.010009663
0.0094509724
0.0089365318
0.008455145
0.0079996205
0.0075816273
0.0071916178
0.006835219
0.0065098202
0.0061902444
0.0058596814
0.0055447853
0.0052530704
0.0049827097
0.0047340268
0.0045050776
0.0042928327
0.010651551
0.015694701
0.02096662
0.020177918
0.016944558
0.014680551
0.015619355
0.015963389
0.015100702
0.013557072
0.012198266
0.012862523
0.013789458
0.013847443
0.013206326
0.012793733
0.012379216
0.01239871
0.012224889
0.012462989
0.012619318
0.012952937
0.013593984
0.01415075
0.015620391
0.015542078
0.016741565
0.017988511
0.0173851
0.022198822
0.019613088
0.021369841
0.020003255
0.020746284
0.019423159
0.018793922
0.017301413
0.01620709
0.014562823
0.013774763
0.012895741
0.012168418
0.011408454
0.01072005
0.010092164
0.0095266148
0.0089954026
0.0085062262
0.008048428
0.0076152003
0.0072176239
0.0068466604
0.0065076571
0.0061981336
0.0058940897
0.0055795339
0.0052798764
0.0050022747
0.004744984
0.0045083176
0.0042904246
0.0040884193
0.010067015
0.014795538
0.019810841
0.019083688
0.016021995
0.013881234
0.014788654
0.015125182
0.014308233
0.012844506
0.011552753
0.012189153
0.013075523
0.013132844
0.012526647
0.0121353
0.011743261
0.011762631
0.011600481
0.011827626
0.011978987
0.012296668
0.012908162
0.0134382
0.014839082
0.014763793
0.015912941
0.017092494
0.016529905
0.021097795
0.018646445
0.020317727
0.019022358
0.019727977
0.018472959
0.017877126
0.016460607
0.015421003
0.013855612
0.013105342
0.012269151
0.011578285
0.010855953
0.010201509
0.0096045117
0.0090667862
0.0085617142
0.0080965722
0.0076612158
0.007249203
0.006871054
0.0065182118
0.006195763
0.0059013481
0.0056120849
0.005312764
0.005027611
0.0047634432
0.0045185938
0.0042933661
0.0040859981
0.0038937407
0.0095139793
0.013943535
0.018715035
0.018045817
0.015146826
0.013122997
0.014000552
0.01432994
0.013556288
0.012168111
0.010939823
0.011549734
0.012397502
0.012454028
0.011880887
0.011509639
0.011138896
0.011158062
0.011006941
0.011223591
0.011370177
0.011672632
0.012255949
0.012760503
0.014095916
0.014023446
0.015124643
0.016240011
0.015716216
0.020050102
0.017726588
0.019316504
0.018088824
0.018758837
0.017568565
0.017004478
0.015660258
0.014672723
0.013182431
0.012468108
0.011672664
0.011016484
0.010329964
0.0097078392
0.0091402382
0.0086289927
0.0081487995
0.0077065325
0.0072925363
0.0069007165
0.0065410605
0.0062054661
0.0058987744
0.0056187432
0.0053435521
0.0050587345
0.0047873903
0.0045360122
0.0043030076
0.0040886707
0.0038913234
0.0037083471
0.0089903445
0.013135626
0.017675184
0.017060524
0.014315948
0.012403189
0.013252292
0.0135749
0.012842304
0.01152562
0.010357467
0.010942164
0.011753172
0.011808815
0.011266997
0.010914785
0.010564242
0.010583137
0.010442461
0.010649063
0.010791062
0.011078972
0.011635423
0.012115677
0.013388739
0.013318907
0.014374415
0.015428636
0.01494173
0.019052813
0.016850962
0.018363408
0.01720009
0.017836218
0.016707524
0.016173622
0.014898225
0.013960261
0.012541502
0.011861387
0.011104718
0.01048155
0.0098291222
0.0092377649
0.0086981493
0.0082121126
0.007755605
0.0073351158
0.0069414555
0.0065688616
0.0062268134
0.0059076421
0.0056159519
0.0053496161
0.0050878247
0.0048168162
0.0045586211
0.0043194216
0.0040976962
0.0038937297
0.0037059247
0.0035317865
0.0084958421
0.012371455
0.016690885
0.016127376
0.013528889
0.011721377
0.012543403
0.012859563
0.012165767
0.010916515
0.0098051729
0.010365865
0.011141929
0.011196558
0.010684324
0.010350068
0.010018628
0.010037162
0.0099063228
0.010103282
0.010240853
0.010514855
0.011045688
0.011502762
0.012716473
0.012649073
0.013661062
0.014657043
0.01420516
0.018104219
0.016018035
0.017456737
0.016354543
0.016958414
0.015888212
0.015382971
0.014173026
0.013282206
0.011931536
0.01128394
0.01056414
0.0099723674
0.0093523695
0.0087902819
0.0082772907
0.007815237
0.0073812648
0.0069814967
0.0066071867
0.0062528884
0.0059275969
0.0056240556
0.0053466427
0.0050933402
0.0048443023
0.0045864385
0.0043407606
0.0041131546
0.0039021667
0.0037080732
0.0035293526
0.0033636287
0.008028436
0.011648041
0.015758256
0.015242722
0.012782593
0.011075043
0.011871219
0.012181272
0.011524214
0.01033866
0.00928103
0.0098188336
0.010561685
0.010615187
0.010130928
0.009813629
0.0095002824
0.0095183764
0.009396828
0.0095845394
0.0097178398
0.0099785484
0.010484951
0.010919915
0.012077115
0.012011966
0.012982492
0.01392299
0.01350438
0.017201618
0.015225454
0.01659395
0.015549829
0.016122995
0.01510838
0.014630373
0.0134827
0.01263674
0.011350909
0.010734243
0.01004951
0.0094876048
0.008898468
0.0083642348
0.0078765815
0.0074373517
0.0070248274
0.0066447805
0.0062888882
0.0059520048
0.0056426642
0.0053539998
0.0050901779
0.0048492828
0.0046123866
0.0043670379
0.0041332774
0.0039167098
0.0037159455
0.0035312525
0.0033611818
0.0032034699
0.007586622
0.0109632
0.014874466
0.014403932
0.012074772
0.010462359
0.011233784
0.01153805
0.010915786
0.0097904044
0.0087835917
0.0092995427
0.010010856
0.010063126
0.0096053219
0.0093040399
0.0090078383
0.0090254285
0.0089126518
0.0090914962
0.0092206834
0.009468689
0.0099517956
0.010365673
0.011469066
0.011406005
0.012337034
0.013224682
0.012837688
0.016342822
0.014471304
0.015772972
0.014784026
0.015327974
0.014366185
0.013914052
0.012825627
0.012022353
0.010798266
0.010211015
0.0095596354
0.0090261431
0.0084663714
0.0079586448
0.0074951037
0.0070775937
0.0066854807
0.0063242024
0.0059858386
0.0056655306
0.0053713724
0.0050968686
0.0048459834
0.0046168986
0.0043915603
0.0041581244
0.0039357088
0.00372965
0.003538619
0.0033628756
0.0032010401
0.003050956
0.0071696907
0.010315923
0.014038279
0.013609841
0.011404246
0.009882489
0.010630148
0.010928913
0.01033957
0.0092708798
0.0083120575
0.0088071202
0.0094885343
0.0095394478
0.0091066038
0.0088204099
0.0085404193
0.0085574291
0.0084529113
0.0086232427
0.0087484506
0.0089843083
0.0094451997
0.0098389607
0.010891141
0.010829992
0.011723397
0.0125607
0.012203718
0.015526057
0.013754018
0.014992077
0.014055506
0.014571638
0.013660016
0.013232437
0.01220036
0.011437679
0.010272369
0.0097130755
0.0090934038
0.0085869272
0.0080550862
0.0075725732
0.0071319694
0.0067351206
0.0063624258
0.0060190035
0.0056973172
0.005392781
0.0051130699
0.0048520422
0.0046134668
0.0043956205
0.0041812832
0.0039591861
0.0037475692
0.0035515137
0.003369748
0.0032025241
0.0030485283
0.0029057061
0.0067757138
0.009703393
0.013245997
0.012857007
0.010768012
0.0093328776
0.010057766
0.010351312
0.0097932005
0.0087780532
0.0078646221
0.0083396599
0.0089927461
0.0090421968
0.008632941
0.0083609919
0.0080963607
0.0081127408
0.0080160143
0.0081781759
0.0082995463
0.0085237928
0.008963495
0.0093380635
0.01034147
0.010282089
0.011139645
0.011928982
0.011600514
0.014748834
0.013071423
0.014248925
0.013362117
0.013851772
0.012987825
0.012583576
0.011605112
0.010881064
0.0097717426
0.0092390439
0.0086495316
0.0081687571
0.0076634967
0.0072049809
0.0067862078
0.0064090233
0.0060548111
0.0057283844
0.005422573
0.0051330502
0.0048670925
0.0046188933
0.0043920368
0.0041848894
0.0039810254
0.0037697245
0.0035683895
0.0033818587
0.0032089151
0.0030498036
0.0029032728
0.0027673653
0.0064039877
0.0091246308
0.012496417
0.012144317
0.010165128
0.008812507
0.0095157487
0.0098043016
0.0092758001
0.0083110833
0.0074405475
0.0078963521
0.0085226674
0.0085705324
0.008183524
0.0079249916
0.0076748849
0.0076905747
0.0076011855
0.0077555019
0.007873158
0.0080863027
0.0085057975
0.0088620569
0.0098190405
0.0097612723
0.010584681
0.011328321
0.011026924
0.014009656
0.012422205
0.01354207
0.012702496
0.013166944
0.012348267
0.011966164
0.011038682
0.010351382
0.0092953639
0.0087879445
0.0082270999
0.0077707618
0.0072907835
0.0068550945
0.0064570882
0.0060986093
0.0057619801
0.0054517225
0.0051610148
0.0048857771
0.0046329067
0.0043969144
0.0041812106
0.0039842448
0.0037903472
0.0035893219
0.0033977733
0.0032203088
0.0030557628
0.0029043735
0.0027649487
0.0026356238
0.0060531212
0.0085776276
0.011786889
0.011469303
0.0095935845
0.0083195745
0.0090023309
0.0092860452
0.0087856595
0.0078685451
0.0070384965
0.0074757588
0.0080768248
0.0081229928
0.0077569672
0.0075110791
0.0072747139
0.0072896707
0.0072071904
0.00735397
0.007468037
0.0076705672
0.0080707876
0.008409576
0.0093223555
0.0092660675
0.010056941
0.010757045
0.010481354
0.013306479
0.011804571
0.012869571
0.012074851
0.0125153
0.011739625
0.011378546
0.010499555
0.0098472165
0.0088419693
0.0083585876
0.007824998
0.0073918988
0.0069359741
0.0065220045
0.0061437577
0.0058030769
0.0054831792
0.0051883078
0.0049119732
0.0046503308
0.0044099166
0.004185542
0.0039804535
0.003793179
0.0036087683
0.0034175244
0.0032352925
0.0030664593
0.0029099082
0.0027658709
0.0026332117
0.0025101541
0.0057220349
0.008060906
0.011115293
0.010830139
0.0090518097
0.0078526271
0.0085160985
0.0087950938
0.0083213393
0.0074492421
0.0066574282
0.0070767135
0.0076540357
0.007698399
0.0073521534
0.0071181778
0.0068948112
0.006908995
0.0068330228
0.0069725615
0.0070831523
0.0072755353
0.0076573704
0.0079794886
0.0088501827
0.0087952423
0.0095551188
0.010213738
0.0099624572
0.01263758
0.011217017
0.012229792
0.011477653
0.011895251
0.011160421
0.010819299
0.0099864291
0.0093673542
0.008410469
0.0079499422
0.0074422631
0.0070312622
0.0065982212
0.0062049163
0.00584547
0.0055217232
0.0052177456
0.0049375149
0.0046748577
0.0044261538
0.0041975943
0.0039842767
0.0037892916
0.0036112411
0.0034358603
0.0032539274
0.0030805647
0.0029199484
0.0027710084
0.0026339704
0.0025077524
0.0023906617
0.0054097604
0.0075731032
0.010479821
0.010225155
0.0085384465
0.0074102836
0.0080557649
0.0083301196
0.0078815856
0.0070520651
0.0062964
0.0066981758
0.0072532331
0.0072956846
0.0069680632
0.0067453078
0.0065342284
0.0065476075
0.006477756
0.006610335
0.0067175633
0.006900243
0.0072645406
0.0075707495
0.0084013718
0.008347659
0.0090780037
0.0096970972
0.0094689907
0.012001349
0.010658128
0.011621196
0.010909477
0.011305313
0.010609268
0.01028709
0.0094980772
0.0089106525
0.0079998323
0.0075610331
0.0070779831
0.0066879915
0.0062767195
0.0059030746
0.0055615144
0.0052538779
0.0049650473
0.0046987469
0.0044491043
0.0042127129
0.0039954349
0.0037926397
0.0036072701
0.0034379986
0.0032712123
0.0030981421
0.0029332222
0.0027804279
0.0026387335
0.0025083588
0.0023882728
0.0022768629
0.0051153658
0.0071128751
0.0098786287
0.0096526697
0.0080521375
0.0069914179
0.007620243
0.0078899193
0.0074652395
0.0066760261
0.0059544953
0.0063391443
0.006873399
0.0069138231
0.0066037282
0.0063915268
0.0061920558
0.0062046037
0.0061405074
0.0062663898
0.0063703553
0.0065437579
0.0068913258
0.0071823511
0.0079748241
0.0079222191
0.0086244265
0.0092058509
0.0089997452
0.011396237
0.01012655
0.011042303
0.010368942
0.010744046
0.010084828
0.0097806306
0.0090333178
0.0084760047
0.007609063
0.0071909187
0.0067312766
0.0063612576
0.0059706923
0.00561575
0.0052912054
0.0049988947
0.0047244746
0.0044714278
0.0042341681
0.004009493
0.0038029508
0.0036101689
0.0034339502
0.0032730338
0.0031144273
0.0029497931
0.0027929099
0.0026475614
0.0025127646
0.0023887333
0.0022744851
0.0021684834
0.0048379089
0.0066788525
0.0093099985
0.0091109072
0.0075914723
0.0065949547
0.0072083777
0.0074733211
0.0070711522
0.006319993
0.0056308085
0.0059986197
0.00651349
0.0065517895
0.0062581494
0.0060558814
0.0058673751
0.0058790744
0.0058203852
0.0059398285
0.0060406336
0.0062051637
0.0065367713
0.0068133055
0.0075694542
0.0075178495
0.0081932496
0.0087387817
0.0085535575
0.010820744
0.0096209652
0.010491688
0.0098547261
0.01021008
0.0095858283
0.0092986892
0.008591023
0.0080623574
0.0072372177
0.0068387065
0.0064013118
0.0060502765
0.0056794072
0.0053422563
0.0050338984
0.0047561668
0.0044954559
0.0042550183
0.0040295405
0.0038160137
0.0036196876
0.0034364339
0.0032689238
0.0031159588
0.002965137
0.0028085324
0.002659299
0.0025210379
0.0023928071
0.0022748144
0.0021661236
0.0020652706
0.0045767001
0.0062700663
0.00877277
0.0085985213
0.0071555936
0.0062198738
0.0068192396
0.007079287
0.0066984347
0.0059831888
0.0053246581
0.0056758901
0.0061727904
0.0062088212
0.0059306102
0.0057376679
0.0055594961
0.0055703312
0.0055167147
0.0056299531
0.0057276853
0.0058837317
0.0062001141
0.0064628179
0.0071843913
0.0071336734
0.0077835365
0.008294865
0.0081294507
0.010273605
0.0091402659
0.0099681334
0.0093656884
0.0097022199
0.0091111453
0.0088401842
0.008170199
0.0076687772
0.0068834512
0.006503595
0.0060873347
0.005754336
0.0054021948
0.0050819632
0.0047889984
0.0045251308
0.0042774585
0.0040490138
0.0038347428
0.0036318215
0.0034452145
0.0032710258
0.0031118013
0.0029664019
0.0028229873
0.002674024
0.0025320713
0.0024005558
0.0022785745
0.0021663295
0.0020629285
0.0019669764
0.004330645
0.0058849644
0.0082648169
0.0081131154
0.0067429508
0.0058644189
0.0064511866
0.0067062258
0.0063455424
0.0056643682
0.0050350299
0.0053698431
0.005850174
0.0058837576
0.005620045
0.0054358271
0.0052674017
0.0052773756
0.005228517
0.005335786
0.0054305386
0.0055784694
0.0058803221
0.0061298289
0.0068184762
0.0067685504
0.0073940802
0.0078728118
0.0077261998
0.0097532542
0.0086830826
0.0094701625
0.0089004652
0.0092190564
0.0086594706
0.0084038632
0.0077697
0.0072941984
0.0065468139
0.0061846902
0.0057885151
0.0054726573
0.0051383298
0.0048341929
0.0045558716
0.0043051926
0.0040699244
0.0038528894
0.003649281
0.0034564514
0.0032790932
0.0031135307
0.0029621911
0.0028239919
0.0026876268
0.0025459363
0.0024109143
0.0022858202
0.0021697882
0.0020630148
0.0019646497
0.0018733635
0.0040988911
0.0055224416
0.0077843923
0.0076531121
0.0063524139
0.0055269747
0.0061026925
0.0063531112
0.0060112512
0.0053625148
0.0047611651
0.0050797684
0.0055444757
0.0055757275
0.0053255758
0.005149518
0.0049902834
0.0049994003
0.0049550099
0.0050565335
0.0051483891
0.0052885616
0.005576549
0.0058134587
0.0064707479
0.0064215252
0.0070238653
0.0074715279
0.0073427618
0.0092583543
0.008248251
0.008996508
0.0084578738
0.0087593644
0.0082296685
0.0079886329
0.0073885243
0.0069376903
0.0062264705
0.0058812056
0.0055041172
0.00520455
0.0048871667
0.0045983417
0.0043339509
0.0040958181
0.0038723508
0.0036661712
0.0034727082
0.0032894819
0.0031209249
0.0029635712
0.0028197355
0.0026883891
0.0025587334
0.0024239648
0.0022955402
0.0021765592
0.0020661906
0.0019646263
0.0018710553
0.0017842111
0.0038809323
0.0051818695
0.0073302654
0.0072185165
0.0059832741
0.0052065054
0.0057722344
0.0060192224
0.0056948226
0.0050771185
0.0045024319
0.0048051578
0.0052550023
0.005284114
0.0050466377
0.0048781237
0.0047275484
0.0047358207
0.0046956188
0.0047915965
0.0048806423
0.0050133907
0.0052881435
0.0055130363
0.0061404684
0.0060918592
0.0066721066
0.0070901568
0.0069783216
0.0087878398
0.0078348323
0.0085461442
0.0080369609
0.0083221444
0.0078207988
0.0075935771
0.007025829
0.0065984604
0.0059217042
0.0055924601
0.0052335014
0.0049494087
0.0046481364
0.0043738727
0.0041227305
0.0038965286
0.0036842842
0.0034884295
0.0033046171
0.0031305262
0.0029703423
0.0028207978
0.0026841023
0.0025592761
0.002436005
0.0023078234
0.0021856775
0.0020725147
0.0019675367
0.0018709305
0.001781923
0.0016993071
0.0036759658
0.0048622099
0.0069007748
0.0068084468
0.005634646
0.0049014357
0.0054575261
0.0057027835
0.0053949785
0.0048073169
0.0042579582
0.0045451447
0.0049808059
0.0050079536
0.0047823184
0.0046208139
0.0044784083
0.0044858466
0.0044495752
0.0045402149
0.0046265172
0.0047521652
0.0050142872
0.0052277089
0.0058267026
0.0057786282
0.0063378229
0.0067276427
0.0066318731
0.0083404171
0.0074417089
0.0081178536
0.0076365904
0.0079062207
0.007431774
0.0072176497
0.0066806587
0.006275621
0.00563172
0.0053177065
0.0049759702
0.0047065785
0.0044206279
0.0041602147
0.0039216741
0.0037068201
0.0035052511
0.0033192182
0.0031445869
0.0029791881
0.0028269709
0.0026848573
0.0025549562
0.0024363347
0.0023191397
0.0021972276
0.0020810578
0.0019734328
0.0018735863
0.0017816999
0.0016970366
0.0016184461
0.0034834018
0.0045626108
0.0064949469
0.0064221318
0.0053063463
0.0046116184
0.0051571202
0.0054019975
0.0051105703
0.0045519378
0.0040271125
0.0042991479
0.0047210315
0.0047465338
0.0045319494
0.0043769685
0.00424227
0.0042488853
0.0042162916
0.0043017794
0.0043854298
0.0045042796
0.0047543392
0.004956822
0.0055287359
0.005481119
0.0060202561
0.0063831642
0.0063026366
0.0079150668
0.0070679978
0.0077106695
0.0072558659
0.0075106586
0.007061718
0.0068600026
0.0063522293
0.0059684392
0.0053558582
0.0050563203
0.0047309391
0.0044755077
0.0042041236
0.0039568812
0.0037303241
0.0035262601
0.003334843
0.003158151
0.002992252
0.0028351212
0.0026904828
0.002555438
0.0024320013
0.0023192829
0.0022078691
0.0020919231
0.0019814406
0.0018790859
0.0017841232
0.0016967292
0.0016162008
0.0015414418
0.0033025288
0.0042820134
0.0061119877
0.0060587169
0.0049980092
0.0043370113
0.0048708143
0.0051161047
0.004840897
0.0043099079
0.0038087614
0.0040662921
0.0044749436
0.0044990804
0.0042948305
0.0041459013
0.0040184809
0.0040242969
0.0039951574
0.0040756762
0.0041567342
0.0042690705
0.0045076177
0.0046996614
0.0052457808
0.0051985539
0.0057185801
0.0060558274
0.0059897588
0.0075106953
0.0067127468
0.0073235495
0.0068938157
0.0071344452
0.0067096905
0.0065197297
0.0060397135
0.0056761458
0.0050934273
0.0048076473
0.0044977976
0.0042556215
0.003998086
0.003763368
0.0035482067
0.0033544027
0.0031726397
0.0030048312
0.0028472379
0.002697972
0.0025605434
0.0024322233
0.0023149368
0.0022078348
0.0021019213
0.001991653
0.0018865833
0.0017892445