/*--------------------------------*- C++ -*----------------------------------*\
| =========                 |                                                 |
| \\      /  F ield         | OpenFOAM: The Open Source CFD Toolbox           |
|  \\    /   O peration     | Version:  2506                                  |
|   \\  /    A nd           | Website:  www.openfoam.com                      |
|    \\/     M anipulation  |                                                 |
\*---------------------------------------------------------------------------*/
FoamFile
{
    version     2.0;
    format      ascii;
    arch        "LSB;label=32;scalar=64";
    class       volVectorField;
    location    "0.028";
    object      wallShearStress;
}
// * * * * * * * * * * * * * * * * * * * * * * * * * * * * * * * * * * * * * //

dimensions      [1 -1 -2 0 0 0 0];

internalField   uniform (0 0 0);

boundaryField
{
    Side
    {
        type            empty;
    }
    Inlet
    {
        type            calculated;
        value           uniform (0 0 0);
    }
    Airfoil
    {
        type            calculated;
        value           nonuniform List<vector> 
65
(
(-3.1415631 -0.38690926 3.8240875e-39)
(-3.1114906 -0.38447147 1.5184754e-32)
(-3.0819106 -0.38201185 3.1401855e-16)
(-3.0528687 -0.37954451 1.3068834e-27)
(-3.0243206 -0.37706068 1.382662e-27)
(-2.9969608 -0.37474834 -7.6122849e-23)
(-2.9688476 -0.37268305 3.2114968e-16)
(-2.9390054 -0.3703576 3.2307395e-16)
(-2.9089995 -0.36791182 -7.7496399e-23)
(-2.8790496 -0.36537694 -3.2707118e-16)
(-2.8493116 -0.36277663 -7.847996e-23)
(-2.8198581 -0.36010808 7.8991033e-23)
(-2.7908897 -0.35741115 -1.6676335e-16)
(-2.7622902 -0.35465786 1.6790058e-16)
(-2.7351426 -0.35202016 1.6123849e-22)
(-2.7081256 -0.34973807 -1.6232033e-22)
(-2.6792853 -0.34731955 9.9125207e-33)
(-2.6497501 -0.34470283 1.7280654e-16)
(-2.6202515 -0.34198964 -1.7412652e-16)
(-2.5909434 -0.33920023 -1.7548755e-16)
(-2.5618945 -0.33633719 1.768874e-16)
(-2.5333418 -0.33344096 -1.7833543e-16)
(-2.5051343 -0.33048064 1.7982974e-16)
(-2.4784178 -0.32764059 1.8137526e-16)
(-2.4517861 -0.32515924 3.2918856e-25)
(-2.4233012 -0.32252093 -1.7608249e-22)
(-2.3941261 -0.31968887 1.7770852e-22)
(-2.3649138 -0.31675854 1.5046328e-36)
(-2.335736 -0.31373174 -1.8995487e-16)
(-2.3067824 -0.31063651 9.2459915e-27)
(-2.2780795 -0.30746543 -3.8768025e-16)
(-2.2499922 -0.3042824 -1.8681948e-22)
(-2.2229758 -0.30132378 -1.8887461e-22)
(-2.1948227 -0.29856501 -2.0027636e-16)
(-2.1648216 -0.295476 -2.0192172e-33)
(-2.1346719 -0.29224939 2.0503464e-16)
(-2.1044565 -0.28891052 -1.5046328e-36)
(-2.0743565 -0.28546832 0)
(-2.0444926 -0.28193647 2.1298843e-16)
(-2.015237 -0.27836985 0)
(-1.9871925 -0.27506146 -2.0882369e-22)
(-1.9578574 -0.27194945 2.2217234e-16)
(-1.926584 -0.26848608 -2.2555849e-16)
(-1.8952239 -0.26486147 -2.1941924e-22)
(-1.8638377 -0.26111453 2.2210198e-22)
(-1.8328892 -0.25726825 1.3719686e-32)
(-1.8022601 -0.25331455 -2.2996993e-22)
(-1.7734269 -0.24950264 2.3475447e-22)
(-1.744616 -0.24612223 -1.2522526e-16)
(-1.7139497 -0.24251405 2.5560423e-16)
(-1.6830035 -0.23874745 1.3055961e-16)
(-1.6522749 -0.23489807 2.7284634e-33)
(-1.6220324 -0.23096498 1.3674171e-16)
(-1.592892 -0.22704053 1.4022765e-16)
(-1.5659839 -0.22348566 -1.4404095e-16)
(-1.5381807 -0.22020974 1.4822972e-16)
(-1.5095294 -0.21671452 5.3984712e-25)
(-1.481406 -0.21312607 3.7555634e-33)
(-1.4559136 -0.20973484 -1.6383864e-16)
(-1.4284346 -0.2057808 -6.5036031e-22)
(-1.4134487 -0.20386409 6.7977938e-22)
(-1.3693839 -0.19802897 9.3687423e-17)
(-1.3723675 -0.19883371 -3.0092655e-36)
(-1.2252545 -0.17770725 -1.0652331e-16)
(-1.2046139 -0.17440873 1.7927539e-21)
)
;
    }
    Outlet
    {
        type            calculated;
        value           nonuniform List<vector> 0();
    }
    procBoundary5to4
    {
        type            processor;
        value           uniform (0 0 0);
    }
    procBoundary5to6
    {
        type            processor;
        value           uniform (0 0 0);
    }
    procBoundary5to12
    {
        type            processor;
        value           uniform (0 0 0);
    }
    procBoundary5to13
    {
        type            processor;
        value           uniform (0 0 0);
    }
}


// ************************************************************************* //
