/*--------------------------------*- C++ -*----------------------------------*\
| =========                 |                                                 |
| \\      /  F ield         | OpenFOAM: The Open Source CFD Toolbox           |
|  \\    /   O peration     | Version:  2506                                  |
|   \\  /    A nd           | Website:  www.openfoam.com                      |
|    \\/     M anipulation  |                                                 |
\*---------------------------------------------------------------------------*/
FoamFile
{
    version     2.0;
    format      ascii;
    arch        "LSB;label=32;scalar=64";
    class       volScalarField;
    location    "0.028";
    object      p;
}
// * * * * * * * * * * * * * * * * * * * * * * * * * * * * * * * * * * * * * //

dimensions      [1 -1 -2 0 0 0 0];

internalField   nonuniform List<scalar> 
13761
(
44718.339
44575.048
44424.774
44267.591
44103.633
43933.267
43756.769
43574.726
43387.785
43196.72
43002.431
42805.902
42608.19
42410.409
42213.703
42019.185
41827.926
41640.92
41459.072
41283.173
41113.884
40951.735
40797.121
40650.305
40511.432
40380.533
40257.543
40142.314
40034.628
39934.205
39840.727
39753.838
39673.161
39598.306
39528.875
39464.477
39404.705
39349.22
39297.663
39249.683
39204.968
39163.22
39124.165
39087.574
39053.23
39020.938
38990.532
38961.874
38934.851
38909.381
38885.418
38862.962
38842.075
38822.896
38805.657
38790.632
38778.028
38767.362
38757.722
38749.061
38741.897
38736.314
38732.242
38729.539
38728.019
38727.484
38727.739
38728.601
38729.911
38731.532
38733.353
38735.284
38737.257
38739.222
38741.142
38742.991
38744.752
38746.415
38747.977
38749.434
38750.789
38752.044
38753.204
38754.272
38755.253
38756.153
38756.975
38757.724
38758.404
38759.019
38759.573
38760.068
38760.509
38760.898
38761.237
38761.529
38761.776
38761.982
38762.148
38762.276
38762.373
38762.444
38762.501
38762.553
38762.605
44721.606
44578.439
44428.253
44271.108
44107.126
43936.66
43759.974
43577.637
43390.287
43198.682
43003.712
42806.353
42607.659
42408.742
42210.749
42014.8
41821.98
41633.295
41449.669
41271.912
41100.706
40936.601
40780.015
40631.228
40490.405
40357.593
40232.743
40115.721
40006.318
39904.269
39809.263
39720.955
39638.977
39562.946
39492.474
39427.175
39366.663
39310.591
39258.616
39210.401
39165.609
39124.032
39085.359
39049.369
39015.86
38984.648
38955.569
38928.488
38903.286
38879.86
38858.115
38837.963
38819.312
38802.052
38786.046
38771.115
38757.077
38743.691
38731.093
38719.397
38708.653
38698.705
38689.468
38680.904
38672.995
38665.736
38659.124
38653.151
38647.805
38643.064
38638.901
38635.279
38632.16
38629.501
38627.258
38625.387
38623.846
38622.595
38621.596
38620.814
38620.218
38619.778
38619.47
38619.27
38619.159
38619.12
38619.136
38619.196
38619.288
38619.402
38619.531
38619.668
38619.807
38619.943
38620.074
38620.195
38620.304
38620.399
38620.475
38620.532
38620.567
38620.586
38620.596
38620.602
38620.606
44581.927
44431.839
44274.744
44110.749
43940.198
43763.338
43580.724
43392.98
43200.851
43005.217
42807.045
42607.383
42407.342
42208.072
42010.7
41816.322
41625.958
41440.55
41260.926
41087.791
40921.714
40763.134
40612.353
40469.553
40334.799
40208.059
40089.212
39978.064
39874.361
39777.804
39688.06
39604.77
39527.563
39456.061
39389.889
39328.677
39272.078
39219.755
39171.384
39126.662
39085.337
39047.143
39011.853
38979.254
38949.174
38921.438
38895.89
38872.392
38850.817
38831.043
38812.957
38796.45
38781.417
38767.761
38755.392
38744.258
38734.263
38725.67
38718.548
38712.925
38708.578
38705.306
38702.937
38701.308
38700.273
38699.705
38699.492
38699.543
38699.783
38700.153
38700.607
38701.111
38701.638
38702.171
38702.696
38703.206
38703.693
38704.156
38704.592
38705.001
38705.383
38705.739
38706.068
38706.374
38706.655
38706.914
38707.152
38707.369
38707.567
38707.746
38707.907
38708.051
38708.179
38708.291
38708.387
38708.469
38708.537
38708.59
38708.63
38708.658
38708.676
38708.688
38708.697
38708.705
44585.509
44435.529
44278.495
44114.501
43943.878
43766.858
43583.983
43395.863
43203.227
43006.947
42807.978
42607.365
42406.215
42205.681
42006.896
41810.967
41618.927
41431.736
41250.241
41075.165
40907.103
40746.511
40593.714
40448.912
40312.188
40183.528
40062.824
39949.898
39844.51
39746.372
39655.164
39570.539
39492.137
39419.593
39352.541
39290.623
39233.497
39180.834
39132.319
39087.659
39046.585
39008.843
38974.197
38942.431
38913.35
38886.767
38862.51
38840.413
38820.325
38802.096
38785.585
38770.654
38757.174
38745.017
38734.061
38724.204
38715.317
38707.691
38701.147
38695.606
38690.87
38686.804
38683.317
38680.325
38677.762
38675.572
38673.709
38672.135
38670.814
38669.716
38668.813
38668.08
38667.493
38667.034
38666.682
38666.422
38666.239
38666.121
38666.055
38666.033
38666.046
38666.086
38666.148
38666.226
38666.315
38666.411
38666.511
38666.612
38666.712
38666.81
38666.902
38666.989
38667.069
38667.142
38667.205
38667.261
38667.306
38667.342
38667.367
38667.381
38667.389
38667.392
38667.393
38667.393
44589.185
44439.323
44282.361
44118.379
43947.699
43770.534
43587.413
43398.933
43205.808
43008.899
42809.149
42607.601
42405.356
42203.57
42003.381
41805.907
41612.194
41423.218
41239.845
41062.819
40892.756
40730.134
40575.297
40428.467
40289.744
40159.131
40036.537
39921.798
39814.687
39714.932
39622.223
39536.226
39456.594
39382.97
39315.001
39252.337
39194.64
39141.586
39092.863
39048.179
39007.258
38969.838
38935.675
38904.54
38876.216
38850.5
38827.197
38806.122
38787.101
38769.968
38754.563
38740.737
38728.352
38717.279
38707.402
38698.633
38690.915
38684.532
38679.259
38674.975
38671.5
38668.677
38666.435
38664.659
38663.268
38662.19
38661.366
38660.746
38660.29
38659.964
38659.739
38659.594
38659.51
38659.474
38659.474
38659.504
38659.554
38659.621
38659.7
38659.787
38659.88
38659.976
38660.074
38660.172
38660.268
38660.362
38660.453
38660.54
38660.622
38660.699
38660.77
38660.835
38660.894
38660.946
38660.991
38661.029
38661.06
38661.084
38661.1
38661.109
38661.114
38661.115
38661.115
38661.115
44592.955
44443.221
44286.342
44122.385
43951.659
43774.363
43591.012
43402.188
43208.591
43011.069
42810.556
42608.088
42404.763
42201.737
42000.154
41801.141
41605.757
41414.994
41229.737
41050.751
40878.672
40714
40557.101
40408.216
40267.463
40134.864
40010.343
39893.751
39784.877
39683.46
39589.204
39501.787
39420.872
39346.112
39277.16
39213.675
39155.323
39101.778
39052.73
39007.88
38966.943
38929.649
38895.739
38864.968
38837.1
38811.914
38789.196
38768.745
38750.368
38733.884
38719.12
38705.916
38694.122
38683.598
38674.219
38665.882
38658.538
38652.403
38647.299
38643.066
38639.532
38636.558
38634.05
38631.937
38630.158
38628.663
38627.409
38626.36
38625.484
38624.756
38624.153
38623.657
38623.252
38622.923
38622.659
38622.451
38622.289
38622.167
38622.077
38622.015
38621.976
38621.956
38621.95
38621.957
38621.973
38621.997
38622.026
38622.058
38622.093
38622.128
38622.164
38622.198
38622.23
38622.259
38622.285
38622.308
38622.326
38622.34
38622.349
38622.353
38622.353
38622.352
38622.35
38622.347
44596.821
44447.223
44290.437
44126.516
43955.758
43778.346
43594.779
43405.627
43211.574
43013.456
42812.196
42608.823
42404.432
42200.179
41997.211
41796.664
41599.612
41407.061
41219.914
41038.957
40864.847
40698.107
40539.122
40388.153
40245.339
40110.719
39984.232
39865.746
39755.063
39651.935
39556.077
39467.18
39384.913
39308.94
39238.92
39174.514
39115.388
39061.218
39011.687
38966.489
38925.33
38887.925
38854.003
38823.302
38795.571
38770.571
38748.075
38727.867
38709.742
38693.508
38678.986
38666.009
38654.423
38644.088
38634.878
38626.69
38619.48
38613.424
38608.384
38604.212
38600.755
38597.864
38595.451
38593.44
38591.763
38590.365
38589.2
38588.226
38587.412
38586.73
38586.159
38585.681
38585.282
38584.949
38584.672
38584.442
38584.253
38584.098
38583.973
38583.873
38583.794
38583.733
38583.687
38583.654
38583.632
38583.619
38583.614
38583.613
38583.618
38583.625
38583.635
38583.646
38583.658
38583.67
38583.68
38583.69
38583.697
38583.702
38583.705
38583.705
38583.703
38583.7
38583.697
38583.693
44451.329
44294.647
44130.773
43959.995
43782.481
43598.713
43409.249
43214.755
43016.058
42814.068
42609.806
42404.362
42198.893
41994.549
41792.475
41593.757
41399.416
41210.373
41027.435
40851.279
40682.45
40521.355
40368.276
40223.369
40086.69
39958.198
39837.772
39725.23
39620.336
39522.815
39432.367
39348.67
39271.393
39200.199
39134.751
39074.714
39019.759
38969.563
38923.812
38882.201
38844.434
38810.224
38779.297
38751.389
38726.249
38703.637
38683.326
38665.106
38648.777
38634.155
38621.069
38609.363
38598.895
38589.539
38581.187
38573.789
38567.492
38562.198
38557.76
38554.046
38550.896
38548.223
38545.953
38544.021
38542.375
38540.97
38539.769
38538.741
38537.86
38537.104
38536.455
38535.898
38535.42
38535.009
38534.657
38534.355
38534.097
38533.877
38533.69
38533.533
38533.4
38533.29
38533.198
38533.123
38533.062
38533.013
38532.975
38532.944
38532.922
38532.905
38532.892
38532.884
38532.878
38532.874
38532.871
38532.869
38532.866
38532.863
38532.86
38532.856
38532.851
38532.847
38532.843
44455.54
44298.971
44135.156
43964.371
43786.767
43602.813
43413.052
43218.135
43018.874
42816.169
42611.033
42404.551
42197.877
41992.167
41788.572
41588.19
41392.057
41201.112
41016.182
40837.965
40667.029
40503.799
40348.579
40201.546
40062.772
39932.232
39809.821
39695.367
39588.646
39489.395
39397.319
39312.104
39233.422
39160.938
39094.313
39033.211
38977.298
38926.244
38879.727
38837.43
38799.046
38764.279
38732.844
38704.466
38678.885
38655.853
38635.139
38616.525
38599.809
38584.804
38571.339
38559.257
38548.417
38538.691
38529.974
38522.211
38515.528
38509.872
38505.094
38501.086
38497.676
38494.768
38492.287
38490.164
38488.344
38486.78
38485.432
38484.268
38483.261
38482.387
38481.628
38480.968
38480.392
38479.89
38479.452
38479.071
38478.738
38478.449
38478.197
38477.979
38477.79
38477.628
38477.489
38477.37
38477.268
38477.183
38477.111
38477.051
38477.001
38476.96
38476.926
38476.899
38476.877
38476.859
38476.845
38476.833
38476.824
38476.816
38476.809
38476.803
38476.798
38476.793
38476.788
44459.856
44303.411
44139.666
43968.885
43791.205
43607.08
43417.036
43221.711
43021.903
42818.498
42612.503
42404.996
42197.13
41990.063
41784.952
41582.908
41384.982
41192.129
41005.196
40824.904
40651.839
40486.45
40329.062
40179.869
40038.962
39906.33
39781.884
39665.464
39556.855
39455.802
39362.016
39275.189
39194.993
39121.095
39053.153
38990.829
38933.78
38881.673
38834.175
38790.962
38751.72
38716.142
38683.936
38654.821
38628.531
38604.813
38583.433
38564.171
38546.823
38531.201
38517.135
38504.467
38493.057
38482.778
38473.523
38465.232
38458.008
38451.848
38446.594
38442.167
38438.379
38435.127
38432.331
38429.92
38427.836
38426.03
38424.461
38423.094
38421.901
38420.858
38419.943
38419.14
38418.433
38417.812
38417.265
38416.783
38416.359
38415.986
38415.658
38415.37
38415.118
38414.898
38414.707
38414.54
38414.396
38414.272
38414.166
38414.075
38413.998
38413.932
38413.878
38413.832
38413.795
38413.764
38413.739
38413.718
38413.702
38413.69
38413.68
38413.672
38413.665
38413.66
38413.655
44464.278
44307.966
44144.302
43973.538
43795.795
43611.511
43421.201
43225.483
43025.143
42821.054
42614.215
42405.697
42196.65
41988.234
41781.615
41577.911
41378.19
41183.423
40994.476
40812.092
40636.879
40469.307
40309.72
40158.333
40015.254
39880.488
39753.957
39635.513
39524.951
39422.023
39326.445
39237.908
39156.089
39080.652
39011.252
38947.546
38889.189
38835.837
38787.154
38742.81
38702.481
38665.859
38632.646
38602.555
38575.319
38550.684
38528.413
38508.285
38490.099
38473.666
38458.815
38445.391
38433.253
38422.275
38412.35
38403.411
38395.543
38388.785
38382.978
38378.069
38373.858
38370.228
38367.093
38364.38
38362.024
38359.972
38358.181
38356.613
38355.238
38354.028
38352.962
38352.021
38351.188
38350.452
38349.799
38349.221
38348.709
38348.255
38347.853
38347.497
38347.184
38346.908
38346.665
38346.452
38346.267
38346.105
38345.964
38345.843
38345.739
38345.651
38345.575
38345.511
38345.458
38345.414
38345.378
38345.349
38345.327
38345.309
38345.296
38345.287
38345.28
38345.274
38345.268
44312.638
44149.065
43978.33
43800.537
43616.108
43425.545
43229.45
43028.594
42823.836
42616.168
42406.651
42196.436
41986.68
41778.557
41573.196
41371.678
41174.99
40984.02
40799.528
40622.146
40452.366
40290.552
40136.937
39991.646
39854.701
39726.035
39605.511
39492.932
39388.055
39290.599
39200.258
39116.708
39039.608
38968.613
38903.374
38843.541
38788.767
38738.71
38693.034
38651.414
38613.538
38579.105
38547.829
38519.44
38493.686
38470.33
38449.154
38429.953
38412.543
38396.753
38382.429
38369.43
38357.631
38346.921
38337.23
38328.62
38321.171
38314.728
38309.258
38304.558
38300.492
38296.968
38293.905
38291.236
38288.902
38286.858
38285.061
38283.479
38282.083
38280.848
38279.753
38278.782
38277.919
38277.151
38276.469
38275.861
38275.321
38274.84
38274.414
38274.036
38273.701
38273.405
38273.144
38272.915
38272.715
38272.54
38272.387
38272.256
38272.143
38272.046
38271.964
38271.895
38271.838
38271.791
38271.753
38271.724
38271.702
38271.686
38271.675
38271.666
38271.66
38271.655
44317.428
44153.957
43983.261
43805.43
43620.871
43430.069
43233.612
43032.254
42826.843
42618.36
42407.858
42196.485
41985.399
41775.778
41568.762
41365.444
41166.83
40973.825
40787.21
40607.64
40435.626
40271.555
40115.678
39968.136
39828.967
39698.116
39575.455
39460.796
39353.897
39254.482
39162.245
39076.858
38997.98
38925.262
38858.349
38796.888
38740.528
38688.924
38641.739
38598.645
38559.329
38523.492
38490.847
38461.128
38434.081
38409.474
38387.089
38366.725
38348.197
38331.336
38315.989
38302.015
38289.288
38277.698
38267.166
38257.735
38249.515
38242.366
38236.273
38231.032
38226.487
38222.537
38219.096
38216.088
38213.453
38211.137
38209.097
38207.296
38205.703
38204.29
38203.034
38201.918
38200.923
38200.036
38199.245
38198.539
38197.91
38197.348
38196.848
38196.403
38196.008
38195.658
38195.348
38195.075
38194.834
38194.623
38194.44
38194.28
38194.142
38194.023
38193.923
38193.837
38193.766
38193.708
38193.661
38193.625
38193.598
38193.579
38193.565
38193.556
38193.55
38193.544
44322.336
44158.977
43988.332
43810.476
43625.799
43434.774
43237.968
43036.125
42830.075
42620.791
42409.317
42196.797
41984.389
41773.276
41564.607
41359.488
41158.941
40963.889
40775.136
40593.357
40419.085
40252.727
40094.553
39944.722
39803.284
39670.199
39545.347
39428.544
39319.554
39218.103
39123.882
39036.563
38955.8
38881.241
38812.527
38749.303
38691.214
38637.913
38589.062
38544.336
38503.421
38466.021
38431.851
38400.647
38372.161
38346.16
38322.43
38300.773
38281.005
38262.96
38246.482
38231.433
38217.687
38205.13
38193.678
38183.353
38174.287
38166.365
38159.582
38153.745
38148.674
38144.257
38140.399
38137.022
38134.056
38131.444
38129.14
38127.101
38125.294
38123.689
38122.261
38120.988
38119.852
38118.838
38117.932
38117.122
38116.398
38115.751
38115.174
38114.659
38114.2
38113.793
38113.431
38113.111
38112.829
38112.581
38112.364
38112.175
38112.011
38111.87
38111.75
38111.647
38111.562
38111.492
38111.436
38111.392
38111.359
38111.337
38111.322
38111.311
38111.304
38111.298
44327.364
44164.127
43993.545
43815.676
43630.894
43439.658
43242.519
43040.204
42833.53
42623.459
42411.026
42197.37
41983.649
41771.05
41560.729
41353.807
41151.32
40954.212
40763.305
40579.296
40402.74
40234.065
40073.56
39921.401
39777.652
39642.284
39515.186
39396.181
39285.035
39181.475
39085.191
38995.852
38913.11
38836.608
38765.985
38700.88
38640.94
38585.815
38535.17
38488.679
38446.032
38406.936
38371.111
38338.295
38308.244
38280.73
38255.541
38232.481
38211.369
38192.039
38174.338
38158.127
38143.278
38129.679
38117.236
38105.953
38095.971
38087.214
38079.677
38073.193
38067.551
38062.627
38058.32
38054.542
38051.219
38048.29
38045.701
38043.407
38041.372
38039.561
38037.949
38036.51
38035.224
38034.075
38033.047
38032.127
38031.303
38030.566
38029.907
38029.319
38028.794
38028.326
38027.911
38027.542
38027.217
38026.93
38026.678
38026.458
38026.267
38026.102
38025.96
38025.84
38025.74
38025.657
38025.59
38025.539
38025.501
38025.474
38025.457
38025.445
38025.437
38025.431
44332.512
44169.408
43998.899
43821.029
43636.155
43444.722
43247.264
43044.492
42837.209
42626.364
42412.985
42198.204
41983.177
41769.097
41557.127
41348.399
41143.967
40944.79
40751.712
40565.453
40386.589
40215.568
40052.697
39898.171
39752.069
39614.371
39484.976
39363.713
39250.351
39144.616
39046.199
38954.765
38869.963
38791.431
38718.808
38651.729
38589.839
38532.79
38480.246
38431.886
38387.403
38346.506
38308.921
38274.391
38242.676
38213.551
38186.808
38162.254
38139.711
38119.013
38100.009
38082.559
38066.536
38051.825
38038.329
38026.031
38015.067
38005.417
37997.064
37989.879
37983.62
37978.149
37973.356
37969.146
37965.439
37962.166
37959.27
37956.703
37954.421
37952.391
37950.58
37948.963
37947.518
37946.225
37945.067
37944.029
37943.1
37942.268
37941.523
37940.856
37940.261
37939.73
37939.257
37938.838
37938.466
37938.138
37937.849
37937.596
37937.376
37937.186
37937.022
37936.883
37936.767
37936.67
37936.593
37936.532
37936.488
37936.458
37936.438
37936.425
37936.416
37936.409
44174.822
44004.397
43826.536
43641.584
43449.968
43252.204
43048.989
42841.11
42629.506
42415.192
42199.296
41982.973
41767.417
41553.799
41343.262
41136.877
40935.62
40740.357
40551.827
40370.629
40197.231
40031.962
39875.031
39726.533
39586.461
39454.721
39331.147
39215.513
39107.546
39006.934
38913.341
38826.413
38745.786
38671.093
38601.969
38538.058
38479.011
38424.495
38374.19
38327.794
38285.021
38245.601
38209.282
38175.828
38145.019
38116.65
38090.532
38066.487
38044.354
38023.981
38005.23
37987.972
37972.09
37957.486
37944.121
37932.121
37921.521
37912.294
37904.355
37897.434
37891.376
37886.062
37881.389
37877.269
37873.628
37870.404
37867.542
37864.998
37862.731
37860.709
37858.902
37857.286
37855.839
37854.543
37853.381
37852.339
37851.405
37850.569
37849.82
37849.15
37848.553
37848.02
37847.546
37847.125
37846.753
37846.426
37846.138
37845.887
37845.67
37845.483
37845.323
37845.189
37845.078
37844.989
37844.919
37844.868
37844.833
37844.81
37844.796
37844.786
37844.778
44180.369
44010.038
43832.2
43647.181
43455.394
43257.338
43053.695
42845.233
42632.882
42417.646
42200.646
41983.034
41766.007
41550.742
41338.394
41130.049
40926.701
40729.235
40538.413
40354.856
40179.052
40011.35
39851.978
39701.044
39558.554
39424.422
39298.49
39180.535
39070.285
38967.427
38871.625
38782.521
38699.748
38622.938
38551.723
38485.746
38424.658
38368.126
38315.835
38267.483
38222.79
38181.49
38143.335
38108.096
38075.556
38045.514
38017.784
37992.192
37968.575
37946.786
37926.686
37908.146
37891.048
37875.291
37860.819
37847.737
37836.136
37825.982
37817.239
37809.614
37802.931
37797.061
37791.893
37787.332
37783.298
37779.722
37776.547
37773.721
37771.203
37768.955
37766.945
37765.147
37763.536
37762.093
37760.798
37759.637
37758.596
37757.663
37756.827
37756.079
37755.41
37754.813
37754.282
37753.81
37753.391
37753.022
37752.698
37752.415
37752.168
37751.956
37751.775
37751.622
37751.495
37751.393
37751.313
37751.254
37751.214
37751.188
37751.172
37751.161
37751.153
44186.051
44015.826
43838.02
43652.946
43461.002
43262.667
43058.609
42849.578
42636.494
42420.346
42202.252
41983.358
41764.865
41547.954
41333.793
41123.48
40918.029
40718.344
40525.209
40339.266
40161.027
39990.859
39829.009
39675.599
39530.649
39394.083
39265.75
39145.429
39032.852
38927.708
38829.658
38738.342
38653.393
38574.439
38501.112
38433.052
38369.91
38311.355
38257.069
38206.755
38160.135
38116.946
38076.945
38039.907
38005.619
37973.885
37944.523
37917.36
37892.237
37869.007
37847.531
37827.681
37809.34
37792.4
37776.795
37762.602
37749.959
37738.834
37729.242
37720.875
37713.531
37707.073
37701.382
37696.354
37691.904
37687.956
37684.447
37681.323
37678.537
37676.049
37673.824
37671.832
37670.048
37668.448
37667.013
37665.726
37664.571
37663.535
37662.607
37661.776
37661.032
37660.368
37659.776
37659.25
37658.783
37658.37
37658.007
37657.688
37657.411
37657.172
37656.967
37656.794
37656.651
37656.534
37656.443
37656.376
37656.33
37656.301
37656.282
37656.27
37656.261
44191.87
44021.76
43843.998
43658.881
43466.791
43268.192
43063.731
42854.145
42640.339
42423.292
42204.113
41983.945
41763.989
41545.433
41329.454
41117.166
40909.599
40707.678
40512.209
40323.855
40143.151
39970.484
39806.119
39650.196
39502.746
39363.705
39232.929
39110.205
38995.265
38887.802
38787.475
38693.927
38606.788
38525.684
38450.246
38380.114
38314.937
38254.382
38198.133
38145.892
38097.381
38052.339
38010.525
37971.717
37935.705
37902.297
37871.314
37842.588
37815.963
37791.293
37768.441
37747.278
37727.688
37709.56
37692.816
37677.504
37663.795
37651.673
37641.197
37632.059
37624.028
37616.957
37610.719
37605.203
37600.316
37595.977
37592.119
37588.681
37585.614
37582.873
37580.422
37578.226
37576.259
37574.494
37572.912
37571.491
37570.217
37569.074
37568.049
37567.131
37566.309
37565.574
37564.919
37564.335
37563.817
37563.359
37562.955
37562.6
37562.291
37562.023
37561.793
37561.599
37561.437
37561.305
37561.202
37561.126
37561.073
37561.04
37561.019
37561.006
37560.996
44027.842
43850.135
43664.987
43472.764
43273.911
43069.061
42858.932
42644.417
42426.481
42206.226
41984.791
41763.376
41543.176
41325.376
41111.104
40901.408
40697.234
40499.408
40308.617
40125.417
39950.217
39783.302
39624.827
39474.839
39333.285
39200.03
39074.867
38957.535
38847.727
38745.107
38649.317
38559.986
38476.743
38399.217
38327.047
38259.881
38197.385
38139.241
38085.15
38034.831
37988.024
37944.486
37903.993
37866.338
37831.329
37798.79
37768.554
37740.471
37714.396
37690.197
37667.747
37646.929
37627.633
37609.771
37593.362
37578.588
37565.47
37554.095
37544.173
37535.443
37527.747
37520.948
37514.931
37509.595
37504.854
37500.635
37496.873
37493.514
37490.512
37487.825
37485.418
37483.26
37481.324
37479.588
37478.029
37476.631
37475.376
37474.25
37473.242
37472.339
37471.531
37470.811
37470.168
37469.597
37469.092
37468.645
37468.253
37467.91
37467.612
37467.356
37467.139
37466.958
37466.81
37466.694
37466.608
37466.549
37466.511
37466.488
37466.472
37466.461
44034.074
43856.432
43671.263
43478.92
43279.826
43074.599
42863.939
42648.726
42429.912
42208.59
41985.893
41763.022
41541.177
41321.551
41105.286
40893.448
40687.002
40486.797
40293.541
40107.816
39930.05
39760.548
39599.484
39446.92
39302.816
39167.047
39039.415
38919.664
38807.493
38702.569
38604.536
38513.026
38427.668
38348.091
38273.935
38204.848
38140.494
38080.554
38024.726
37972.728
37924.295
37879.181
37837.158
37798.015
37761.558
37727.606
37695.995
37666.572
37639.196
37613.736
37590.07
37568.084
37547.671
37528.74
37511.283
37495.478
37481.393
37469.131
37458.44
37449.023
37440.71
37433.359
37426.845
37421.062
37415.92
37411.339
37407.252
37403.6
37400.334
37397.409
37394.787
37392.437
37390.328
37388.435
37386.736
37385.211
37383.842
37382.615
37381.515
37380.53
37379.649
37378.862
37378.161
37377.537
37376.983
37376.494
37376.064
37375.687
37375.36
37375.077
37374.837
37374.636
37374.472
37374.342
37374.245
37374.178
37374.136
37374.11
37374.093
37374.081
44040.457
43862.89
43677.711
43485.258
43285.935
43080.342
42869.163
42653.262
42433.579
42211.198
41987.245
41762.921
41539.428
41317.971
41099.703
40885.709
40676.972
40474.363
40278.616
40090.333
39909.966
39737.841
39574.151
39418.975
39272.285
39133.969
39003.84
38881.648
38767.099
38659.866
38559.595
38465.924
38378.482
38296.902
38220.823
38149.895
38083.781
38022.162
37964.735
37911.213
37861.329
37814.833
37771.492
37731.087
37693.419
37658.301
37625.56
37595.037
37566.587
37540.075
37515.378
37492.383
37470.986
37451.096
37432.688
37415.922
37400.929
37387.818
37376.391
37366.323
37357.427
37349.554
37342.572
37336.369
37330.847
37325.924
37321.527
37317.596
37314.077
37310.923
37308.095
37305.557
37303.279
37301.234
37299.397
37297.749
37296.269
37294.942
37293.752
37292.687
37291.734
37290.883
37290.124
37289.449
37288.849
37288.32
37287.853
37287.443
37287.087
37286.779
37286.517
37286.296
37286.115
37285.972
37285.864
37285.79
37285.742
37285.714
37285.695
37285.682
43869.507
43684.329
43491.776
43292.234
43086.287
42874.599
42658.021
42437.478
42214.043
41988.838
41763.062
41537.92
41314.625
41094.344
40878.176
40667.128
40462.092
40263.823
40072.951
39889.948
39715.164
39548.81
39390.984
39241.673
39100.779
38968.125
38843.472
38726.534
38616.988
38514.489
38418.677
38329.186
38245.652
38167.717
38095.031
38027.259
37964.082
37905.194
37850.31
37799.158
37751.486
37707.056
37665.646
37627.049
37591.071
37557.531
37526.262
37497.106
37469.919
37444.565
37420.921
37398.876
37378.33
37359.238
37341.727
37325.99
37312.14
37300.057
37289.4
37279.974
37271.626
37264.219
37257.637
37251.778
37246.553
37241.887
37237.715
37233.979
37230.632
37227.629
37224.935
37222.516
37220.345
37218.394
37216.644
37215.072
37213.663
37212.399
37211.268
37210.256
37209.352
37208.546
37207.829
37207.193
37206.63
37206.134
37205.699
37205.319
37204.991
37204.711
37204.474
37204.279
37204.124
37204.008
37203.926
37203.874
37203.843
37203.824
37203.81
43876.285
43691.117
43498.474
43298.724
43092.433
42880.246
42663
42441.604
42217.124
41990.67
41763.443
41536.648
41311.508
41089.202
40870.846
40657.465
40449.976
40249.158
40055.662
39869.989
39692.508
39523.453
39362.94
39210.974
39067.471
38932.266
38805.133
38685.792
38573.933
38469.214
38371.281
38279.775
38194.335
38114.604
38040.237
37970.899
37906.271
37846.048
37789.944
37737.685
37689.016
37643.697
37601.503
37562.224
37525.663
37491.632
37459.96
37430.484
37403.049
37377.512
37353.737
37331.596
37310.972
37291.785
37274.103
37258.142
37243.989
37231.602
37220.643
37210.917
37202.272
37194.578
37187.72
37181.597
37176.125
37171.227
37166.839
37162.904
37159.373
37156.204
37153.357
37150.801
37148.505
37146.443
37144.591
37142.931
37141.442
37140.108
37138.915
37137.849
37136.898
37136.051
37135.298
37134.632
37134.043
37133.525
37133.071
37132.676
37132.335
37132.044
37131.799
37131.597
37131.436
37131.314
37131.23
37131.176
37131.144
37131.124
37131.111
43883.231
43698.084
43505.363
43305.415
43098.791
42886.116
42668.213
42445.974
42220.454
41992.757
41764.08
41535.632
41308.641
41084.299
40863.739
40648.007
40438.041
40234.644
40038.495
39850.116
39669.902
39498.11
39334.874
39180.218
39034.075
38896.294
38766.66
38644.907
38530.729
38423.797
38323.761
38230.267
38142.959
38061.484
37985.499
37914.67
37848.677
37787.217
37730
37676.751
37627.214
37581.144
37538.313
37498.508
37461.527
37427.182
37395.296
37365.707
37338.258
37312.807
37289.218
37267.364
37247.128
37228.415
37211.237
37195.797
37182.114
37170.181
37159.675
37150.392
37142.183
37134.914
37128.467
37122.743
37117.653
37113.122
37109.084
37105.482
37102.268
37099.397
37096.832
37094.54
37092.493
37090.663
37089.029
37087.571
37086.27
37085.111
37084.079
37083.162
37082.348
37081.627
37080.989
37080.428
37079.934
37079.502
37079.126
37078.8
37078.521
37078.283
37078.084
37077.921
37077.791
37077.693
37077.624
37077.58
37077.553
37077.536
37077.525
43890.369
43705.253
43512.467
43312.337
43105.394
42892.245
42673.697
42450.628
42224.08
41995.148
41765.027
41534.927
41306.083
41079.699
40856.924
40638.824
40426.359
40220.359
40021.527
39830.41
39647.429
39472.864
39306.87
39149.493
39000.68
38860.297
38728.143
38603.962
38487.462
38378.318
38276.19
38180.728
38091.582
38008.4
37930.842
37858.574
37791.276
37728.643
37670.381
37616.214
37565.88
37519.129
37475.729
37435.459
37398.112
37363.493
37331.42
37301.721
37274.235
37248.814
37225.316
37203.613
37183.586
37165.135
37148.257
37133.168
37119.846
37108.286
37098.178
37089.309
37081.524
37074.686
37068.673
37063.382
37058.719
37054.606
37050.974
37047.763
37044.924
37042.411
37040.185
37038.213
37036.466
37034.918
37033.546
37032.331
37031.255
37030.303
37029.462
37028.72
37028.065
37027.488
37026.982
37026.539
37026.152
37025.815
37025.523
37025.272
37025.058
37024.877
37024.725
37024.602
37024.504
37024.429
37024.375
37024.339
37024.316
37024.301
37024.288
43712.646
43519.81
43319.512
43112.267
42898.661
42679.485
42455.6
42228.037
41997.883
41766.326
41534.579
41303.883
41075.454
40850.455
40629.973
40414.992
40206.365
40004.822
39810.937
39625.157
39447.786
39279.001
39118.87
38967.358
38824.348
38689.653
38563.031
38444.198
38332.841
38228.625
38131.208
38040.24
37955.374
37876.27
37802.594
37734.023
37670.249
37610.976
37555.919
37504.811
37457.397
37413.436
37372.7
37334.972
37300.05
37267.741
37237.864
37210.25
37184.737
37161.175
37139.42
37119.341
37100.827
37083.858
37068.663
37055.237
37043.583
37033.403
37024.465
37016.612
37009.708
37003.631
36998.274
36993.548
36989.373
36985.68
36982.412
36979.516
36976.949
36974.672
36972.652
36970.859
36969.268
36967.855
36966.602
36965.491
36964.506
36963.634
36962.863
36962.182
36961.582
36961.053
36960.589
36960.184
36959.83
36959.523
36959.259
36959.032
36958.84
36958.68
36958.548
36958.444
36958.364
36958.306
36958.268
36958.242
36958.225
36958.211
43720.269
43527.398
43326.949
43119.418
42905.371
42685.584
42460.9
42232.337
42000.971
41767.989
41534.601
41302.055
41071.577
40844.346
40621.47
40403.953
40192.678
39988.398
39791.716
39603.105
39422.894
39251.286
39088.368
38934.128
38788.464
38651.206
38522.125
38400.947
38287.369
38181.062
38081.69
37988.906
37902.365
37821.724
37746.649
37676.814
37611.905
37551.62
37495.669
37443.776
37395.679
37351.127
37309.885
37271.727
37236.44
37203.826
37173.696
37145.872
37120.187
37096.486
37074.622
37054.46
37035.886
37018.856
37003.573
36990.058
36978.323
36968.098
36959.134
36951.268
36944.359
36938.282
36932.931
36928.212
36924.044
36920.358
36917.094
36914.201
36911.634
36909.356
36907.332
36905.533
36903.935
36902.514
36901.251
36900.13
36899.134
36898.251
36897.469
36896.776
36896.165
36895.626
36895.151
36894.736
36894.373
36894.057
36893.784
36893.55
36893.352
36893.185
36893.049
36892.94