/*--------------------------------*- C++ -*----------------------------------*\
| =========                 |                                                 |
| \\      /  F ield         | OpenFOAM: The Open Source CFD Toolbox           |
|  \\    /   O peration     | Version:  2506                                  |
|   \\  /    A nd           | Website:  www.openfoam.com                      |
|    \\/     M anipulation  |                                                 |
\*---------------------------------------------------------------------------*/
FoamFile
{
    version     2.0;
    format      ascii;
    arch        "LSB;label=32;scalar=64";
    class       volScalarField;
    location    "0.0295";
    object      Ma;
}
// * * * * * * * * * * * * * * * * * * * * * * * * * * * * * * * * * * * * * //

dimensions      [0 0 0 0 0 0 0];

internalField   nonuniform List<scalar> 
13761
(
0.2996613
0.29965948
0.299659
0.29965964
0.29966019
0.29995633
0.29965947
0.29995745
0.29965766
0.29995887
0.29965486
0.29996025
0.29965177
0.29996177
0.29964959
0.30008216
0.29996337
0.29964899
0.30008715
0.29996501
0.29965011
0.30009074
0.29996683
0.29965416
0.30009578
0.29996849
0.29965946
0.30009924
0.29997016
0.29966268
0.30010392
0.29997186
0.29966291
0.30092749
0.30010723
0.29997367
0.29966158
0.30093277
0.30011193
0.2999755
0.29966014
0.30093678
0.3001149
0.29997729
0.29965971
0.30094216
0.30011943
0.29997896
0.2996594
0.30094634
0.30012222
0.29998043
0.29965894
0.30095195
0.30012679
0.29998169
0.29965824
0.30103597
0.3009564
0.30012948
0.29998257
0.29965753
0.30104956
0.3009622
0.30013397
0.29998331
0.29965673
0.3010581
0.30096681
0.30013652
0.29998445
0.29965568
0.30107167
0.30097269
0.3001408
0.29998625
0.2996547
0.30108061
0.3009774
0.30014314
0.29998837
0.29965385
0.30089312
0.30109412
0.3009833
0.30014706
0.29999034
0.29965292
0.30090153
0.30110334
0.30098805
0.30014912
0.29999204
0.29965235
0.30091305
0.30111675
0.300994
0.30015297
0.29999374
0.2996515
0.30092124
0.30112616
0.30099884
0.30015495
0.29999565
0.29965026
0.30093145
0.30113947
0.30100484
0.30015852
0.29999775
0.29964868
0.30093836
0.30114899
0.30100983
0.30016012
0.29999993
0.29964776
0.30024999
0.30094804
0.30116215
0.30101582
0.30016349
0.30000223
0.29964762
0.30025629
0.30095546
0.30117171
0.30102089
0.30016508
0.30000477
0.29964687
0.3002615
0.3009654
0.30118472
0.30102687
0.30016827
0.30000757
0.29964459
0.30026872
0.30097321
0.30119427
0.301032
0.30016968
0.3000105
0.29964183
0.300273
0.30098273
0.30120716
0.30103801
0.30017267
0.30001342
0.29963931
0.29954379
0.30028113
0.30099071
0.30121668
0.30104324
0.30017396
0.30001615
0.29963776
0.29954383
0.30028425
0.30100022
0.3012295
0.30104937
0.30017705
0.30001858
0.2996372
0.29954344
0.30029353
0.30100878
0.30123896
0.30105478
0.30017862
0.30002048
0.29963658
0.29954829
0.30029589
0.30101841
0.30125165
0.30106106
0.30018195
0.30002161
0.29963503
0.29955022
0.30030597
0.3010275
0.30126105
0.30106658
0.30018411
0.30002184
0.29963241
0.29955221
0.30030817
0.30103715
0.3012736
0.30107284
0.30018775
0.30002009
0.29962976
0.30013628
0.29955521
0.30031841
0.30104669
0.30128292
0.30107834
0.3001904
0.30001681
0.29962817
0.30013708
0.29955933
0.30032084
0.30105641
0.30129532
0.30108445
0.30019422
0.30001591
0.30013902
0.29956054
0.30033047
0.30106627
0.30130455
0.30108992
0.30019701
0.30001944
0.30014013
0.29956053
0.30033379
0.30107612
0.30131681
0.30109587
0.30020068
0.30002611
0.30014209
0.29956004
0.30034267
0.30108623
0.30132595
0.30110138
0.30020322
0.30003393
0.30145083
0.30014344
0.29955962
0.30034705
0.30109622
0.30133809
0.30110725
0.30020633
0.30004109
0.3014629
0.30014508
0.2995592
0.30035517
0.30110637
0.30134711
0.30111283
0.30020843
0.30004684
0.30147465
0.30014616
0.29956345
0.30036068
0.30111661
0.30135913
0.3011187
0.30021098
0.30005101
0.30148699
0.30014872
0.29956504
0.30036803
0.30112671
0.30136803
0.30112433
0.30021292
0.30005407
0.30149882
0.30015046
0.29956592
0.30037462
0.30113724
0.30138001
0.30113017
0.30021519
0.3015106
0.30015392
0.29956764
0.30038141
0.30114735
0.30138883
0.30113586
0.30021705
0.30162578
0.30152237
0.30015689
0.29957048
0.30038884
0.30115823
0.30140083
0.30114171
0.30021925
0.30164445
0.3015344
0.30016088
0.29957168
0.30039493
0.30116831
0.30140958
0.30114741
0.30022108
0.30166188
0.30154611
0.30016425
0.2995714
0.30040319
0.30117943
0.30142159
0.30115319
0.30022334
0.30168043
0.30155784
0.30016796
0.29957
0.30040882
0.30118948
0.30143028
0.30115888
0.30022524
0.30169868
0.30156929
0.30017096
0.29956851
0.30041796
0.30120077
0.30144225
0.30116461
0.30022743
0.30124417
0.30171724
0.30158089
0.30017503
0.29956734
0.30042319
0.30121067
0.3014509
0.30117025
0.30022939
0.30125733
0.30173626
0.3015922
0.30017762
0.29956991
0.30043315
0.30122209
0.30146281
0.30117595
0.30126484
0.30175491
0.30160329
0.30018167
0.29957563
0.30043822
0.30123191
0.30147142
0.30118153
0.30127694
0.30177427
0.30161471
0.30018421
0.29957841
0.30044863
0.30124336
0.30148327
0.30118715
0.30128382
0.30179283
0.30162577
0.30018862
0.2995779
0.30045347
0.30125326
0.30149186
0.30119265
0.30202698
0.30129492
0.30181245
0.30163645
0.30019115
0.2995761
0.30046429
0.30126481
0.30150366
0.30119818
0.30204507
0.30130117
0.30183074
0.30164753
0.30019515
0.29957602
0.30046924
0.30127468
0.30151223
0.30120356
0.3020628
0.30131201
0.30185009
0.30165782
0.30019816
0.29957714
0.30048054
0.30128629
0.30152398
0.30120895
0.3020827
0.30131812
0.30186842
0.30166884
0.30020133
0.29957809
0.30048572
0.30129625
0.30153251
0.30275957
0.30209933
0.30132899
0.30188757
0.30167861
0.30020495
0.2995783
0.30049711
0.30130782
0.30154424
0.30278242
0.30212051
0.30133645
0.30190612
0.30168972
0.30020785
0.29957941
0.30050251
0.30131783
0.30155274
0.30280689
0.30213621
0.30134799
0.30192533
0.30169882
0.30021231
0.29957997
0.30051381
0.30132935
0.30156446
0.30282973
0.30215781
0.30135766
0.30194382
0.30170965
0.30021532
0.29957896
0.30051952
0.3013394
0.30157297
0.30285427
0.30217255
0.30137187
0.3019629
0.30171837
0.30021995
0.29958055
0.30053069
0.30135101
0.30158464
0.3028024
0.3028766
0.3021939
0.30138567
0.30198148
0.30172849
0.30022289
0.2995841
0.30053658
0.30136113
0.30159312
0.30282291
0.30290147
0.30220807
0.30139948
0.30199974
0.30173697
0.30022809
0.29958455
0.3005474
0.30137282
0.30160469
0.30285406
0.30292301
0.30222869
0.30141164
0.30201836
0.30174671
0.30023101
0.29958194
0.3005537
0.30138295
0.30287336
0.30294831
0.30224312
0.30142134
0.30203648
0.30175474
0.30023629
0.29958125
0.30056458
0.30139476
0.30368436
0.30290593
0.30296945
0.30226346
0.30143269
0.30205483
0.30176431
0.30023942
0.29958063
0.30057149
0.30140505
0.30370431
0.30292479
0.30299463
0.30227872
0.3014423
0.30207324
0.30177183
0.3002446
0.29958255
0.30058299
0.30141689
0.30374222
0.30295768
0.30301615
0.30229803
0.30145573
0.30209161
0.30178106
0.30024725
0.29958556
0.30059109
0.30142733
0.30376292
0.30297725
0.30304072
0.30231438
0.30146719
0.30211006
0.30178821
0.30025235
0.29958609
0.30060357
0.30143922
0.30446796
0.30379959
0.30300945
0.30306233
0.30233194
0.30148072
0.30212872
0.30179691
0.30025466
0.29958209
0.30061293
0.30144974
0.3045091
0.30382193
0.30303059
0.30308681
0.30234939
0.30149186
0.302147
0.30180388
0.30025921
0.29958115
0.30062644
0.30146149
0.30453493
0.30385689
0.30306126
0.30310778
0.30236558
0.30150471
0.30216569
0.3018123
0.30026228
0.29958268
0.3006364
0.3045762
0.30388093
0.30308425
0.30313282
0.30238427
0.30151607
0.30218415
0.30181935
0.30026687
0.29958337
0.30064971
0.30534374
0.30460147
0.30391456
0.30311348
0.30315295
0.30239979
0.30152867
0.3022027
0.30182763
0.30026914
0.29958063
0.30065897
0.30537354
0.30464331
0.30393954
0.30313794
0.3031784
0.3024191
0.30154095
0.30222115
0.30183495
0.30027318
0.29957999
0.30067141
0.30541818
0.30466806
0.3039729
0.30316595
0.30319821
0.30243427
0.30155297
0.30223998
0.30184332
0.30027563
0.29958005
0.30068008
0.30545049
0.30470964
0.3039978
0.30319156
0.3032239
0.30245431
0.30156616
0.30225823
0.30185077
0.30027933
0.29958121
0.3006923
0.30645348
0.30549183
0.30473514
0.30403155
0.30321862
0.30324334
0.30246877
0.30157796
0.30227729
0.30185938
0.30028171
0.29957955
0.3007014
0.30649219
0.30552644
0.30477505
0.30405614
0.30324514
0.30326925
0.30248968
0.30159148
0.3022952
0.3018672
0.30028501
0.29957994
0.30654326
0.30556399
0.30480205
0.30408972
0.30327124
0.30328865
0.30250379
0.30160338
0.30231452
0.30187618
0.30028712
0.29957907
0.30658105
0.30560214
0.30483992
0.30411477
0.30329849
0.30331393
0.30252491
0.30161697
0.30233208
0.30188452
0.30029045
0.2995804
0.30754976
0.30663203
0.30563488
0.30486881
0.3041475
0.30332421
0.30333422
0.30253949
0.30162897
0.30235121
0.30189361
0.30029276
0.29957897
0.30760306
0.30666905
0.30567692
0.30490436
0.30417283
0.30335129
0.30335767
0.30256016
0.30164262
0.30236876
0.30190244
0.30029572
0.29957989
0.30766145
0.30671949
0.30570602
0.30493579
0.30420527
0.30337724
0.30337978
0.30257554
0.30165479
0.30238751
0.301911
0.30029761
0.29957851
0.30871457
0.30771097
0.30675696
0.30574996
0.30496888
0.30422985
0.30340385
0.30340119
0.30259569
0.3016686
0.30240494
0.30192013
0.30030012
0.29957971
0.30878516
0.30777232
0.30680582
0.30577777
0.30500276
0.30426272
0.30342982
0.30342463
0.30261175
0.30168116
0.30242355
0.30192839
0.30030189
0.30883948
0.30781814
0.30684432
0.30582213
0.30503418
0.30428613
0.30345625
0.30344463
0.30263144
0.30169488
0.3024406
0.30193749
0.30030413
0.31015617
0.30890826
0.30788066
0.30689194
0.30584967
0.30506991
0.30431971
0.30348182
0.30346905
0.30264825
0.30170784
0.30245936
0.3019458
0.30030573
0.31021456
0.30896314
0.30792573
0.3069302
0.3058941
0.3050999
0.30434194
0.30350822
0.30348755
0.30266725
0.30172131
0.30247599
0.30195468
0.30030823
0.31029199
0.30903002
0.30798594
0.30697832
0.30592172
0.30513788
0.30437672
0.3035334
0.30351272
0.30268478
0.30173469
0.30249466
0.30196291
0.30030929
0.31171402
0.31035296
0.30908561
0.30803313
0.30701487
0.30596606
0.30516563
0.30439719
0.30355953
0.30353043
0.30270295
0.30174804
0.30251123
0.30197145
0.3003119
0.31179785
0.31042492
0.30915024
0.30808894
0.30706412
0.30599402
0.30520623
0.30443373
0.30358448
0.30355551
0.30272094
0.30176171
0.3025295
0.30197959
0.30031277
0.31187187
0.31049049
0.30920726
0.30813932
0.30709927
0.30603784
0.3052324
0.30445271
0.30361042
0.30357354
0.30273847
0.30177524
0.30254602
0.3019879
0.31347614
0.31194915
0.31055628
0.30926894
0.30819064
0.30714845
0.30606662
0.30527425
0.30449003
0.3036351
0.30359793
0.3027563
0.301789
0.30256405
0.30199604
0.31356175
0.31202615
0.3106253
0.3093278
0.30824363
0.30718318
0.30610973
0.30530092
0.30450885
0.30366103
0.3036173
0.30277347
0.30180294
0.30258041
0.30200435
0.31365466
0.31209852
0.3106882
0.30938657
0.30829178
0.30723246
0.30613895
0.30534252
0.304546
0.30368572
0.30364086
0.30279089
0.30181674
0.30259818
0.30201274
0.31525916
0.31374105
0.31217668
0.31075635
0.30944662
0.30834595
0.30726542
0.30618209
0.30537055
0.30456527
0.30371155
0.30366159
0.3028076
0.30183075
0.30261458
0.3020213
0.31535857
0.31383165
0.31224561
0.31082054
0.30950342
0.30839236
0.30731628
0.30621071
0.30541232
0.30460212
0.30373663
0.30368499
0.30282476
0.30184489
0.30263187
0.30203011
0.31708187
0.31547105
0.31391556
0.31232336
0.31088508
0.30956408
0.30844713
0.30734686
0.30625448
0.30544036
0.30462191
0.30376225
0.30370666
0.30284099
0.30185888
0.30264835
0.30203889
0.31719829
0.31556551
0.31400616
0.31239077
0.31095132
0.30961939
0.30849152
0.30739882
0.30628196
0.3054835
0.3046581
0.30378741
0.3037296
0.30285763
0.30187331
0.30266537
0.31888035
0.31732984
0.31567752
0.31408665
0.31246571
0.31101269
0.30968035
0.30854757
0.30742821
0.30632657
0.30551033
0.30467888
0.30381326
0.30375266
0.30287389
0.30188739
0.30268169
0.31902252
0.31744199
0.3157718
0.31417618
0.31253383
0.31108046
0.30973412
0.30858971
0.30748002
0.30635291
0.30555415
0.30471339
0.30383741
0.30377437
0.30288945
0.30190179
0.30269857
0.31915579
0.31757369
0.3158779
0.31425558
0.31260451
0.31113965
0.30979535
0.30864599
0.30750971
0.30639804
0.30558026
0.30473592
0.30386421
0.30379905
0.30290606
0.30191615
0.30271452
0.32107423
0.31929814
0.31768357
0.31597501
0.31434182
0.31267372
0.31120911
0.30984735
0.30868802
0.30755968
0.30642368
0.3056233
0.30476814
0.30388677
0.30381953
0.30292054
0.30193041
0.30273146
0.32123242
0.31942932
0.31781184
0.31607413
0.31442039
0.31274077
0.31126549
0.30990913
0.30874172
0.30759148
0.30646903
0.30564953
0.3047923
0.30391438
0.30384547
0.30293718
0.30194502
0.30274723
0.32299267
0.32138627
0.31956811
0.31792138
0.31617242
0.31450524
0.31281044
0.31133632
0.30995887
0.30878629
0.30763805
0.3064941
0.30569135
0.30482239
0.3039361
0.30386539
0.30295125
0.30195929
0.30276391
0.32316609
0.32154128
0.31969988
0.31804476
0.31626568
0.31457925
0.31287463
0.31139042
0.31002143
0.30883551
0.30767331
0.30653979
0.30571765
0.30484753
0.30396345
0.30389166
0.30296729
0.30197394
0.32514545
0.32333418
0.32169473
0.31983526
0.31815557
0.31636538
0.31466562
0.31294421
0.31146097
0.31006914
0.3088836
0.30771546
0.30656486
0.30575907
0.30487636
0.30398546
0.303912
0.3029814
0.30198861
0.32689518
0.32532134
0.32350609
0.32184387
0.31996692
0.31827317
0.31645133
0.31473361
0.31300734
0.31151613
0.31013173
0.30892893
0.30775478
0.30660975
0.30578527
0.30490173
0.30401177
0.30393784
0.30299661
0.30200281
0.32711466
0.3255298
0.32367302
0.32199863
0.32009973
0.31838566
0.31655412
0.31482081
0.313074
0.31158284
0.31017821
0.3089788
0.30779255
0.30663649
0.30582695
0.30493004
0.30403455
0.30395893
0.30301073
0.30201807
0.32906716
0.32732974
0.32570083
0.32384043
0.32214297
0.32022888
0.31849655
0.31663282
0.31488645
0.31314007
0.31164143
0.31024029
0.30902253
0.30783493
0.306679
0.30585329
0.30495557
0.30405957
0.30398415
0.30302515
0.30203204
0.32932407
0.32754603
0.32590972
0.32400904
0.32229733
0.32035941
0.31861082
0.31673628
0.31496998
0.31320011
0.31170359
0.31028554
0.30907163
0.30787034
0.30670851
0.30589507
0.30498333
0.3040834
0.30400602
0.30303909
0.30204749
0.33094005
0.32956945
0.3277571
0.3260786
0.32417246
0.32243854
0.32048519
0.31871427
0.31681111
0.31503794
0.31327143
0.31176424
0.31034689
0.30911555
0.30791345
0.30674792
0.30592143
0.30500911
0.30410689
0.30403044
0.30305289
0.33270997
0.33123737
0.32982128
0.32797059
0.32628332
0.32433904
0.32258909
0.32061292
0.31882982
0.31691155
0.31511417
0.31332514
0.31182423
0.31039211
0.30916307
0.30794839
0.30678019
0.30596324
0.30503644
0.30413207
0.30405314
0.30306648
0.33420207
0.33304108
0.33151949
0.33006438
0.32817595
0.32645211
0.32449952
0.32272833
0.32073671
0.31892719
0.31698543
0.31518683
0.31339877
0.3118842
0.31045025
0.3092069
0.30799163
0.30681661
0.30598921
0.30506235
0.30415388
0.30407677
0.30307981
0.33449209
0.33335528
0.33181118
0.33030816
0.32838898
0.3266481
0.32466044
0.32287417
0.3208597
0.31904183
0.31708107
0.3152551
0.31345125
0.31194435
0.31049864
0.30925381
0.30802567
0.30685114
0.30603162
0.30508938
0.30418035
0.30410015
0.30309293
0.33614472
0.33488559
0.33367859
0.33209148
0.33055002
0.32858687
0.32681921
0.32481867
0.32301025
0.32098264
0.31913615
0.3171559
0.31533097
0.31352141
0.31200233
0.31055089
0.30929644
0.30807029
0.3068849
0.30605648
0.30511552
0.30420092
0.30412308
0.30310585
0.33793487
0.33642014
0.3351861
0.33399895
0.33237179
0.33078447
0.32880027
0.32700493
0.32497492
0.32315383
0.32110021
0.31924685
0.31724614
0.31539486
0.31357788
0.31206307
0.31060366
0.30934364
0.30810238
0.30692115
0.30610027
0.30514224
0.30422802
0.30414698
0.30311845
0.33914563
0.33835499
0.33682385
0.33557305
0.33431742
0.33265236
0.33102299
0.32898938
0.32717876
0.32512931
0.32328368
0.32122153
0.31934056
0.31732224
0.3154697
0.31364117
0.31211877
0.31065053
0.30938515
0.30814918
0.30695271
0.30612314
0.30516836
0.30424837
0.30416931
0.30313096
0.34084491
0.33947814
0.33865727
0.33710582
0.33588467
0.33463714
0.33291951
0.33124938
0.32920306
0.3273552
0.32528415
0.32342739
0.32133502
0.31944577
0.31740698
0.31553325
0.31370392
0.31218043
0.31070619
0.30943205
0.30817923
0.30698979
0.30616873
0.30519484
0.30427531
0.30419334
0.34311523
0.34121168
0.33990585
0.33908938
0.33750505
0.3362631
0.33495368
0.33319951
0.3314823
0.32938303
0.32752894
0.32543142
0.32355016
0.32145215
0.31953877
0.31748365
0.31560446
0.3137593
0.31223314
0.31074961
0.30947241
0.30822738
0.30702028
0.30618971
0.30522032
0.30429617
0.30421572
0.34432324
0.34348238
0.34153014
0.34023316
0.33939331
0.33779827
0.33658431
0.33526296
0.3334536
0.33170252
0.32959664
0.32769937
0.32558722
0.32369386
0.32156476
0.31963974
0.31756381
0.31566974
0.31382895
0.31229714
0.31080604
0.30951965
0.30825624
0.30705775
0.30623621
0.30524664
0.30432252
0.30423927
0.34710721
0.34603763
0.34476109
0.3438862
0.34192045
0.34067233
0.33983222
0.3381924
0.33695704
0.33557874
0.33372962
0.33192803
0.32976858
0.32786968
0.32572598
0.32381125
0.32167476
0.31973007
0.31764072
0.31573577
0.31387677
0.31234526
0.31084806
0.30955743
0.30830418
0.30708762
0.30625677
0.30527104
0.30434404
0.30426223
0.34821094
0.34752295
0.34645459
0.34516361
0.34423934
0.34224084
0.34099615
0.34014237
0.33849857
0.33728293
0.33587186
0.33397222
0.33214399
0.32997973
0.32803527
0.32588262
0.32395257
0.32178858
0.31982966
0.31771686
0.31580466
0.31395126
0.31241267
0.31090349
0.30960651
0.30833236
0.30712595
0.30630234
0.30529718
0.30436955
0.30428518
0.34974764
0.34922037
0.34867951
0.34797039
0.34689438
0.34560275
0.34465074
0.3426524
0.34144816
0.34058231
0.33888782
0.33765267
0.33618544
0.33424158
0.33236093
0.33014655
0.32820161
0.32601376
0.32406662
0.32189072
0.31991526
0.31779358
0.31586367
0.3139952
0.31245664
0.31094547
0.30964069
0.30837902
0.30715489
0.30632399
0.30532073
0.30439187
0.30430868
0.35090687
0.35084058
0.3502363
0.34969341
0.34911753
0.34839057
0.34731301
0.34599784
0.34499143
0.34297076
0.34177378
0.34090269
0.33920634
0.33797817
0.33645989
0.33447424
0.33257461
0.33035234
0.32836184
0.32616917
0.32420426
0.32200501
0.32001504
0.31786691
0.31593747
0.31407049
0.31252523
0.3109988
0.30969196
0.30840697
0.30719426
0.30636745
0.30534615
0.30441623
0.35155241
0.3516751
0.35141703
0.35137585
0.35074771
0.35019497
0.34957561
0.34882193
0.34774682
0.3464429
0.34541519
0.34340508
0.34223607
0.34133848
0.33959103
0.33834716
0.33676926
0.3347343
0.33278146
0.33051753
0.32852493
0.32629483
0.32431476
0.32210118
0.32009617
0.31794163
0.31599011
0.31411559
0.31256881
0.31104172
0.3097225
0.30845204
0.30722164
0.30639062
0.30536967
0.30443986
0.35018114
0.35142914
0.35177738
0.3521036
0.35220936
0.35192436
0.35189855
0.35124813
0.35069032
0.35002635
0.34924887
0.34815634
0.3468258
0.34574468
0.34372382
0.34257165
0.34166932
0.33991865
0.3386674
0.33702605
0.33495787
0.33299404
0.33071579
0.32868086
0.326447
0.32444991
0.32221402
0.32019511
0.31801447
0.31606642
0.31418722
0.31263386
0.31109206
0.30977611
0.30848029
0.3072621
0.30643224
0.30539364
0.30446273
0.34813293
0.34877451
0.35008086
0.35088458
0.35208721
0.35235806
0.35264063
0.35273985
0.35243482
0.35242152
0.3517618
0.35119584
0.35047711
0.34967392
0.34859152
0.34727938
0.34618505
0.3441783
0.34304164
0.34209634
0.34029941
0.33903516
0.33732948
0.3352069
0.33318937
0.33088145
0.32883887
0.32656916
0.32455593
0.32230627
0.32027295
0.31808526
0.31611738
0.31423596
0.3126811
0.31113715
0.30980313
0.30852416
0.30728762
0.30645642
0.30541777
0.304488
0.34380053
0.34509375
0.34637651
0.34714247
0.34777314
0.34860069
0.34938338
0.35078955
0.35157378
0.35272667
0.35293096
0.35318826
0.35327965
0.35296667
0.35295581
0.35228366
0.35171268
0.35093435
0.35009339
0.34898847
0.34765125
0.3465097
0.34449959
0.34339125
0.34243956
0.34063244
0.33934449
0.33756986
0.33542315
0.33340092
0.33107106
0.32899452
0.32671761
0.32468933
0.32241716
0.32036991
0.31815943
0.3161903
0.31430188
0.31274041
0.31118318
0.30985879
0.3085527
0.30732939
0.30649687
0.30544001
0.30450946
0.33441276
0.3351784
0.33570098
0.33665674
0.33770602
0.33898678
0.34035064
0.34213565
0.3440056
0.345259
0.34659828
0.34753128
0.34831163
0.34925671
0.35017413
0.35156551
0.35229466
0.35333693
0.35348255
0.35373095
0.3538213
0.3534934
0.35347605
0.35279451
0.35221422
0.35138058
0.35051948
0.34942931
0.34811484
0.3469714
0.34497311
0.3438624
0.3428576
0.34101202
0.33971073
0.3378636
0.33566043
0.33358668
0.331237
0.32914404
0.32683709
0.3247918
0.32250577
0.3204464
0.31822564
0.31624565
0.31435601
0.31279086
0.31123209
0.30988366
0.30859562
0.30735327
0.30652186
0.30546478
0.30453596
0.15919954
0.16827166
0.18717772
0.20689615
0.21864069
0.22713885
0.2348192
0.24199888
0.24958603
0.25969718
0.27254319
0.28356776
0.29201782
0.29824242
0.30297682
0.30819587
0.31435497
0.31960115
0.32392011
0.32683087
0.32868403
0.32956046
0.32942361
0.32804798
0.3267216
0.32678694
0.32746568
0.32808286
0.32994187
0.33159708
0.33158107
0.33169426
0.33276866
0.33296479
0.33367699
0.33473064
0.33541699
0.33645046
0.3378891
0.33962187
0.34122322
0.34278786
0.34432086
0.34540725
0.34688819
0.34801333
0.34893369
0.35008514
0.35104953
0.35237183
0.35299626
0.35394653
0.35404683
0.35431195
0.35439716
0.35405779
0.35402004
0.35333431
0.35273447
0.35182898
0.35093199
0.34981046
0.34847776
0.34729623
0.34530528
0.34422925
0.34321142
0.34134526
0.34000477
0.3380913
0.3358707
0.33379567
0.33142027
0.32930212
0.32698251
0.32492244
0.32261512
0.32053961
0.31830109
0.31631087
0.31441502
0.31284712
0.31127271
0.30993966
0.30862474
0.30739592
0.30656121
0.30548557
0.14636717
0.14904415
0.15219287
0.15619612
0.16201272
0.17252875
0.19474603
0.21153692
0.22187477
0.22958394
0.2369369
0.24470851
0.25376458
0.26499512
0.2761687
0.28591685
0.2936947
0.29954733
0.30510069
0.31246931
0.31831129
0.32282582
0.32615543
0.3284179
0.32985284
0.33018552
0.3299327
0.32838954
0.32737764
0.327422
0.3279695
0.32834004
0.33013938
0.33119572
0.33101673
0.33113269
0.33260682
0.33311819
0.33366312
0.33448145
0.33583019
0.33698723
0.33821776
0.3398501
0.34139631
0.34290143
0.34449085
0.34573226
0.34733225
0.34855885
0.34966481
0.35101362
0.35198577
0.3531799
0.35370928
0.35455332
0.3546208
0.35489493
0.35494843
0.35459625
0.35452598
0.35384208
0.35323618
0.35227879
0.35137127
0.3502612
0.34895117
0.34778203
0.34578885
0.34470006
0.34362195
0.34172568
0.34036801
0.33837246
0.33609761
0.33397425
0.3315843
0.3294427
0.32709879
0.32502267
0.32269937
0.32061644
0.31836404
0.31637237
0.31447473
0.31289726
0.31132511
0.30996397
0.30866598
0.30741899
0.30658749
0.3055106
0.14180889
0.14406086
0.14646835
0.14909252
0.1520293
0.15544381
0.15979562
0.16627586
0.17776526
0.19819602
0.21327179
0.22270715
0.2302253
0.23857735
0.24780515
0.2579393
0.26792813
0.27754142
0.2866274
0.29426403
0.30090866
0.30802108
0.31414519
0.31955869
0.32389328
0.32684323
0.32877763
0.32991755
0.33033867
0.32991157
0.3282803
0.3272981
0.32712004
0.3273366
0.32772387
0.32969408
0.33032137
0.3300988
0.33083827
0.33225962
0.33288256
0.3336484
0.33459053
0.3362042
0.33760505
0.33897531
0.34067796
0.34219324
0.34363197
0.34512759
0.34635584
0.34795193
0.3492367
0.35053775
0.35201331
0.35291779
0.35400801
0.3544385
0.35520644
0.35524322
0.3555442
0.35555511
0.35518119
0.35506669
0.35437561
0.35375626
0.35272516
0.3517744
0.35063202
0.34930732
0.3481148
0.34613152
0.3450879
0.34398189
0.34205302
0.34064312
0.33859112
0.33630414
0.33418022
0.3317636
0.32960337
0.32724266
0.32514924
0.32280826
0.32070493
0.31843826
0.3164307
0.31452775
0.31295353
0.31136263
0.31001865
0.30869637
0.30746139
0.30662553
0.30553046
0.13621588
0.13823891
0.14034498
0.14256246
0.14493181
0.14751375
0.150405
0.15377433
0.1579433
0.16343119
0.1715107
0.18564715
0.20400086
0.21563183
0.22409084
0.23218081
0.2413062
0.25075064
0.26087361
0.2699206
0.27878823
0.28750721
0.29523851
0.30243895
0.30893426
0.31436928
0.31979135
0.32455236
0.32800256
0.33018506
0.33141396
0.33141894
0.33030704
0.32842569
0.32711263
0.32654429
0.32662041
0.32758219
0.33000793
0.33043217
0.33039665
0.33161828
0.33255185
0.33344758
0.334556
0.33578425
0.33724863
0.33849362
0.3399384
0.34137632
0.34264571
0.34413068
0.34587016
0.34720999
0.34876598
0.35009569
0.351506
0.35297733
0.35381534
0.35484915
0.35518861
0.35588182
0.3558723
0.35615757
0.35610712
0.35572193
0.35556896
0.35486438
0.35426956
0.35319228
0.35223945
0.35109642
0.34979327
0.34861666
0.34661885
0.34556185
0.34438768
0.34243392
0.34100152
0.33885786
0.33652128
0.33435281
0.33192467
0.32973542
0.32735484
0.32524871
0.32288932
0.32078335
0.3185013
0.31649575
0.3145899
0.31300134
0.31141511
0.31004396
0.3087356
0.30748427
0.30665346
0.30555523
0.12513284
0.12694157
0.12877483
0.13064259
0.13255679
0.13453251
0.13658964
0.13875513
0.14106662
0.14357862
0.14637289
0.14957881
0.15341479
0.1582766
0.16498115
0.17525008
0.19201314
0.20924168
0.21867502
0.22708674
0.23573863
0.24488268
0.25407649
0.26282426
0.27185156
0.28111811
0.28922657
0.29654138
0.30317457
0.30902696
0.31489693
0.32186749
0.32737086
0.33051223
0.33216512
0.33244064
0.33134755
0.32931391
0.32713151
0.32565907
0.32511507
0.32623077
0.32803367
0.33031839
0.33051414
0.33074109
0.33239425
0.33278669
0.33397119
0.33524506
0.33647135
0.33807246
0.33929132
0.34081056
0.34244946
0.34385336
0.34531321
0.3469405
0.34815274
0.34967356
0.35110228
0.3524994
0.3539131
0.35469459
0.35571123
0.35597766
0.35662248
0.3565772
0.3568431
0.35671931
0.35631123
0.35611513
0.35538051
0.35478512
0.3536362
0.35264278
0.35146282
0.35014891
0.34895689
0.34697776
0.34597198
0.3447477
0.34274937
0.34125789
0.33906903
0.33672658
0.33455678
0.33210017
0.32989731
0.32749762
0.32537104
0.32299528
0.32086648
0.31857206
0.3165511
0.31464188
0.31305791
0.31145338
0.31009618
0.30876719
0.30752585
0.30669006
0.30557496
0.11007992
0.11189933
0.11368753
0.11545466
0.11720943
0.11895979
0.12071345
0.12247839
0.12426317
0.12607766
0.1279337
0.12984569
0.13183198
0.13391669
0.136132
0.13852268
0.14115335
0.14412181
0.1475848
0.15180846
0.15728177
0.1650028
0.17710418
0.1958085
0.21239512
0.22176994
0.23163061
0.24101368
0.25043116
0.25952579
0.26801414
0.27611736
0.28399747
0.29152959
0.29884777
0.30529044
0.31141896
0.31801829
0.32432945
0.32931822
0.33201208
0.33304311
0.33251522
0.33102068
0.32874572
0.32660516
0.32563671
0.32594925
0.3282319
0.33037988
0.33166614
0.33146075
0.33225496
0.33398362
0.33457684
0.33592071
0.33671202
0.33772639
0.33968429
0.34076094
0.34221813
0.34365336
0.3449558
0.34638989
0.34793917
0.34912986
0.35070776
0.35217948
0.35350915
0.3548281
0.35559836
0.35658864
0.35679109
0.35735941
0.35725723
0.35746946
0.35726652
0.356847
0.35661615
0.35586517
0.35531373
0.35413461
0.35313854
0.35194627
0.35064963
0.34946387
0.34746796
0.34645065
0.34515242
0.34312992
0.34160796
0.33932202
0.33693359
0.33472421
0.33225987
0.33002269
0.32760596
0.32546938
0.32307729
0.32094788
0.31863663
0.31661534
0.31470063
0.31310432
0.31150263
0.31012297
0.30880446
0.30754788
0.30671987
0.0070617406
0.012337824
0.018142583
0.02449835
0.031363488
0.038554556
0.045746154
0.052605359
0.058933757
0.06467755
0.069855234
0.074506294
0.07867346
0.082401007
0.085736892
0.088732081
0.091438241
0.093904193
0.096174635
0.098289099
0.10028035
0.10217532
0.10399642
0.10576187
0.10748694
0.10918468
0.11086647
0.11254277
0.11422351
0.11591851
0.11763798
0.11939295
0.12119612
0.12306263
0.12501075
0.12706312
0.12924882
0.13160639
0.13418862
0.13707071
0.14036442
0.14424456
0.14900152
0.15516555
0.16381825
0.17708015
0.19678584
0.21359127
0.22491032
0.23695601
0.24755295
0.25652487
0.26502345
0.27241674
0.27973666
0.28699247
0.29406299
0.3010137
0.30820257
0.31543903
0.32195331
0.32788997
0.33211873
0.33387711
0.33415236
0.33310287
0.33115131
0.32883582
0.32715681
0.32680351
0.32807033
0.33111395
0.33287164
0.33287483
0.33255633
0.33406805
0.33558928
0.33599899
0.33697244
0.33793533
0.33902605
0.34055275
0.34159214
0.34305387
0.34477932
0.34612753
0.34753907
0.34897716
0.35015554
0.35178839
0.35327336
0.35449322
0.35577833
0.35653109
0.35750143
0.35766363
0.35817407
0.35799976
0.35816555
0.35788612
0.35744355
0.35716383
0.35635516
0.35582355
0.35457471
0.35354249
0.35231404
0.35101362
0.34981909
0.34784376
0.34687811
0.34550782
0.34342858
0.34184865
0.3395268
0.33714089
0.33492699
0.33243156
0.33018466
0.3277469
0.32558776
0.32317591
0.32102408
0.31870413
0.31667211
0.31475679
0.31316012
0.31154322
0.3101728
0.30883749
0.30758898
0.30675489
0.0021339803
0.006670504
0.011688561
0.017229973
0.023311079
0.02988339
0.036758623
0.043614256
0.05012895
0.056112629
0.061521576
0.066385793
0.07075083
0.074660827
0.078157603
0.08128437
0.08408909
0.086621628
0.088929557
0.091056449
0.093040682
0.094913941
0.09670215
0.098426764
0.10010533
0.10175264
0.10338142
0.10500281
0.10662717
0.10826444
0.10992457
0.1116181
0.11335656
0.11515322
0.11702409
0.11898861
0.12107127
0.12330398
0.12572945
0.12840689
0.1314216
0.13490165
0.13904848
0.14419883
0.15095029
0.16062778
0.17562771
0.19636723
0.21361687
0.22569265
0.23897654
0.25087623
0.26032552
0.26783271
0.27471647
0.28142656
0.2884393
0.29564907
0.30342933
0.31127701
0.31893464
0.32544289
0.33106379
0.33457377
0.33580566
0.33594332
0.33459711
0.33250397
0.3303817
0.32923303
0.32924835
0.33115446
0.33392418
0.33498897
0.33470385
0.33469729
0.33643358
0.33725122
0.33733326
0.33808473
0.33938454
0.34073817
0.34178658
0.34285771
0.3442923
0.34581836
0.3469908
0.34842561
0.34995683
0.35127078
0.35293332
0.35432616
0.35546964
0.35674979
0.35749695
0.3584341
0.35853899
0.35895286
0.35868543
0.35879122
0.3584476
0.35799916
0.35769582
0.35685259
0.35637109
0.35509992
0.35406259
0.35281699
0.35152828
0.35032675
0.34833462
0.34736038
0.34591383
0.34380927
0.34218535
0.33976707
0.33733778
0.33508918
0.33259017
0.33030575
0.32785305
0.32568576
0.32326278
0.32110951
0.31876933
0.31673205
0.31480836
0.31320595
0.31158892
0.31020081
0.30887238
0.30760891
0.30678646
0.0020733968
0.0064848577
0.011364503
0.016749102
0.022649738
0.029012163
0.035644412
0.042228823
0.048460637
0.054171115
0.059330082
0.063972772
0.068143955
0.071883225
0.075227481
0.078216592
0.080896071
0.083314518