/*--------------------------------*- C++ -*----------------------------------*\
| =========                 |                                                 |
| \\      /  F ield         | OpenFOAM: The Open Source CFD Toolbox           |
|  \\    /   O peration     | Version:  2506                                  |
|   \\  /    A nd           | Website:  www.openfoam.com                      |
|    \\/     M anipulation  |                                                 |
\*---------------------------------------------------------------------------*/
FoamFile
{
    version     2.0;
    format      ascii;
    arch        "LSB;label=32;scalar=64";
    class       volScalarField;
    location    "0.0295";
    object      rho;
}
// * * * * * * * * * * * * * * * * * * * * * * * * * * * * * * * * * * * * * //

dimensions      [1 -3 0 0 0 0 0];

internalField   nonuniform List<scalar> 
13761
(
0.66304461
0.6630508
0.66305473
0.66305625
0.6630559
0.66862553
0.66305449
0.66862619
0.66305301
0.66862721
0.66305155
0.66862845
0.66304994
0.66863013
0.66304712
0.66413141
0.66863228
0.66304046
0.66413149
0.668635
0.66303172
0.66413124
0.66863811
0.66302302
0.66413107
0.6686405
0.66301583
0.66413138
0.66864127
0.66301157
0.66413177
0.66864101
0.66300996
0.66757869
0.66413219
0.6686413
0.66301023
0.66758052
0.66413264
0.66864225
0.66301086
0.66758218
0.66413293
0.66864316
0.66301045
0.66758372
0.66413312
0.66864398
0.663009
0.66758516
0.66413312
0.66864498
0.66300611
0.66758645
0.66413326
0.66864649
0.66300379
0.66517711
0.66758762
0.66413347
0.66864955
0.66300312
0.6651781
0.66758874
0.6641336
0.66865321
0.66300639
0.66517894
0.66758995
0.66413408
0.66865533
0.6630102
0.66517967
0.66759137
0.66413488
0.66865535
0.66301258
0.66518044
0.66759314
0.66413558
0.66865504
0.66301372
0.66655472
0.66518133
0.66759515
0.66413594
0.66865548
0.663014
0.666556
0.66518246
0.66759725
0.66413594
0.66865649
0.66301359
0.66655733
0.6651838
0.66759926
0.66413553
0.66865705
0.66301332
0.66655878
0.66518539
0.66760121
0.66413493
0.66865762
0.66301317
0.66656014
0.66518724
0.66760314
0.66413445
0.66865823
0.66301211
0.66656156
0.66518936
0.66760483
0.66413388
0.66865953
0.66301044
0.66533322
0.66656278
0.66519164
0.66760586
0.66413285
0.66866167
0.66300841
0.66533306
0.66656402
0.66519387
0.66760646
0.66413229
0.66866273
0.66300603
0.66533298
0.66656507
0.66519583
0.66760709
0.66413098
0.66866349
0.66300414
0.66533294
0.6665662
0.66519724
0.66760828
0.66412988
0.66866519
0.66300276
0.665333
0.66656717
0.66519796
0.66760987
0.66412856
0.6686674
0.66299984
0.66592554
0.66533314
0.66656836
0.66519817
0.66761047
0.66412173
0.66866946
0.66299659
0.66592412
0.66533331
0.66656951
0.66519799
0.66761057
0.66411679
0.66867181
0.66299554
0.66592252
0.66533322
0.66657096
0.66519771
0.66761134
0.66411678
0.66867295
0.66299657
0.66592059
0.66533314
0.66657237
0.66519743
0.66761272
0.66412187
0.6686757
0.66299869
0.66591816
0.66533209
0.66657422
0.66519728
0.66761445
0.66412556
0.66867918
0.66300329
0.66591533
0.66533006
0.66657602
0.66519734
0.66761627
0.66412705
0.66867937
0.66300831
0.66585545
0.66591234
0.66532895
0.66657783
0.66519776
0.66761855
0.66412798
0.66867655
0.66301138
0.66585417
0.66590931
0.66533031
0.66657926
0.66519864
0.66762072
0.66412674
0.66867487
0.66585267
0.66590616
0.66533251
0.66658103
0.66519961
0.66762642
0.66412759
0.66867595
0.6658512
0.66590313
0.66533354
0.66658269
0.66520053
0.66763151
0.66411947
0.66867854
0.66584956
0.66590057
0.66533341
0.66658446
0.66520215
0.66763221
0.66411083
0.66868147
0.66647759
0.66584802
0.66589845
0.66533334
0.66658593
0.66520397
0.66762999
0.66410846
0.66868392
0.66647867
0.66584638
0.66589659
0.66533342
0.66658754
0.66520556
0.66762924
0.66411402
0.66868609
0.66647979
0.66584483
0.66589461
0.66533365
0.66658895
0.66520692
0.66762968
0.6641238
0.66868778
0.66648088
0.66584318
0.66589239
0.6653338
0.66659057
0.66520816
0.66763082
0.6641303
0.66868762
0.666482
0.66584155
0.66588983
0.66533404
0.66659203
0.66520925
0.66763235
0.66413274
0.6664831
0.66583983
0.6658872
0.66533425
0.66659371
0.66521023
0.66763396
0.66413367
0.66602136
0.66648423
0.66583812
0.66588452
0.66533461
0.66659523
0.66521107
0.66763558
0.66413414
0.66602258
0.66648534
0.66583634
0.66588198
0.6653349
0.66659692
0.66521193
0.6676372
0.6641342
0.66602384
0.66648646
0.66583455
0.66587944
0.66533529
0.66659845
0.66521284
0.66763879
0.66413404
0.6660251
0.66648758
0.66583269
0.6658771
0.6653356
0.66660015
0.66521384
0.66764033
0.66413395
0.66602639
0.66648872
0.66583083
0.66587493
0.66533606
0.66660174
0.66521484
0.66764179
0.66413408
0.66581922
0.66602768
0.66648985
0.66582891
0.66587305
0.66533645
0.66660353
0.66521589
0.66764308
0.66413457
0.66581787
0.66602898
0.66649097
0.66582701
0.6658712
0.66533698
0.66660524
0.66521695
0.66764424
0.66581668
0.66603029
0.66649209
0.66582507
0.66586938
0.66533742
0.66660712
0.66521808
0.6676454
0.66581537
0.6660316
0.66649321
0.66582313
0.6658674
0.66533795
0.6666089
0.6652192
0.66764675
0.66581419
0.66603294
0.66649435
0.66582122
0.66586533
0.6653384
0.6666108
0.66522038
0.66764831
0.66607898
0.66581289
0.66603427
0.66649549
0.66581931
0.66586298
0.66533894
0.66661256
0.66522156
0.66764996
0.66607875
0.66581173
0.66603565
0.66649664
0.66581744
0.66586036
0.6653394
0.66661442
0.66522274
0.6676516
0.66607839
0.66581047
0.66603702
0.6664978
0.66581555
0.66585722
0.66533996
0.66661615
0.66522384
0.66765329
0.66607816
0.66580935
0.66603844
0.66649897
0.66581369
0.66585383
0.66534045
0.66661799
0.66522501
0.66607944
0.66607781
0.66580808
0.66603984
0.66650013
0.66581177
0.66585028
0.66534109
0.66661973
0.66522617
0.66608138
0.66607751
0.66580688
0.6660413
0.6665013
0.66580988
0.665847
0.6653417
0.66662158
0.6652273
0.66608319
0.66607712
0.66580555
0.66604274
0.66650245
0.6658079
0.66584383
0.66534244
0.66662333
0.66522832
0.66608515
0.66607673
0.66580434
0.66604423
0.6665036
0.66580595
0.66584095
0.66534315
0.6666252
0.66522901
0.66608705
0.66607628
0.66580305
0.66604571
0.66650473
0.66580391
0.6658381
0.665344
0.666627
0.66522918
0.66573932
0.66608907
0.66607582
0.66580185
0.66604723
0.66650586
0.66580189
0.66583549
0.66534482
0.66662894
0.66522995
0.66573894
0.66609105
0.6660753
0.66580055
0.66604874
0.666507
0.66579976
0.66583284
0.66534577
0.66663082
0.66523127
0.66573858
0.66609313
0.6660748
0.66579931
0.66605026
0.66650813
0.66579767
0.66583027
0.66534666
0.66663285
0.6657383
0.66609515
0.66607419
0.665798
0.66605176
0.66650928
0.66579548
0.66582746
0.66534761
0.66663482
0.66585157
0.66573807
0.66609727
0.66607365
0.66579678
0.66605327
0.66651044
0.66579337
0.66582452
0.66534844
0.6666369
0.66585152
0.66573783
0.66609935
0.66607297
0.66579553
0.66605479
0.66651162
0.66579116
0.66582133
0.66534927
0.66663891
0.66585148
0.66573762
0.6661015
0.66607239
0.66579434
0.66605631
0.6665128
0.66578904
0.66581813
0.66534999
0.66664102
0.66585138
0.66573738
0.66610363
0.66607165
0.6657931
0.66605786
0.66651398
0.66578677
0.66581492
0.66535075
0.66664305
0.66581131
0.66585118
0.66573717
0.66610579
0.66607106
0.66579187
0.6660594
0.66651515
0.66578455
0.66581191
0.66535149
0.66664518
0.66581276
0.66585102
0.66573693
0.66610797
0.6660703
0.66579061
0.66606096
0.66651632
0.66578216
0.66580904
0.66535234
0.66664724
0.66581426
0.66585073
0.66573678
0.66611015
0.6660697
0.6657894
0.66606253
0.6665175
0.66577984
0.66580632
0.66535321
0.66581576
0.66585055
0.66573656
0.66611235
0.66606894
0.66578818
0.66606411
0.6665187
0.66577741
0.66580361
0.66535419
0.66563162
0.66581725
0.6658502
0.66573647
0.66611456
0.66606829
0.66578699
0.66606572
0.66651991
0.66577512
0.66580087
0.66535516
0.66563205
0.6658188
0.66585
0.66573628
0.66611679
0.66606749
0.66578577
0.66606736
0.66652111
0.66577273
0.66579807
0.66535618
0.66563248
0.66582031
0.6658496
0.66573628
0.66611907
0.66606673
0.66578456
0.66606904
0.66652226
0.66577052
0.66579525
0.66535717
0.6656329
0.66582187
0.66584939
0.66573617
0.66612134
0.66606585
0.66578332
0.66607075
0.66652333
0.6657682
0.66579245
0.66535817
0.66565822
0.66563331
0.66582341
0.66584891
0.66573623
0.66612369
0.66606498
0.66578209
0.66607246
0.66652432
0.66576603
0.66578963
0.66535913
0.66566013
0.6656337
0.66582497
0.66584864
0.66573617
0.666126
0.66606407
0.66578087
0.66607415
0.66652522
0.66576366
0.66578682
0.66566164
0.66563412
0.66582656
0.66584806
0.66573623
0.66612838
0.66606317
0.66577969
0.66607581
0.66652605
0.66576133
0.66578394
0.66566355
0.66563449
0.6658281
0.66584772
0.66573616
0.66613071
0.66606223
0.66577853
0.66607746
0.66652683
0.66575868
0.66578107
0.66547245
0.66566502
0.6656349
0.66582973
0.66584705
0.66573617
0.6661331
0.66606133
0.6657774
0.6660791
0.66652763
0.66575597
0.66577812
0.66547426
0.6656669
0.66563524
0.66583124
0.66584666
0.66573609
0.66613544
0.66606031
0.66577626
0.66608075
0.66652854
0.66575296
0.66577521
0.66547626
0.66566837
0.66563565
0.66583289
0.66584594
0.66573607
0.66613786
0.66605932
0.66577515
0.66608245
0.66652965
0.66575002
0.66577222
0.66535093
0.66547806
0.66567017
0.66563598
0.6658344
0.66584553
0.665736
0.66614025
0.66605817
0.66577406
0.66608421
0.66653098
0.66574705
0.66576926
0.66535188
0.66548007
0.66567159
0.66563636
0.66583607
0.66584477
0.66573603
0.66614272
0.66605704
0.66577302
0.66608606
0.6665324
0.6657444
0.66535274
0.66548188
0.66567331
0.66563669
0.66583759
0.66584432
0.66573602
0.66614522
0.66605578
0.66577202
0.66608798
0.66653372
0.66574174
0.6653016
0.66535372
0.66548387
0.66567468
0.66563712
0.66583928
0.66584352
0.66573613
0.66614777
0.66605456
0.66577107
0.66608997
0.66653484
0.66573921
0.66530229
0.66535466
0.66548571
0.66567636
0.66563744
0.66584082
0.66584298
0.66573621
0.66615036
0.66605323
0.66577016
0.66609196
0.66653575
0.66573644
0.66530276
0.66535564
0.66548771
0.66567766
0.66563799
0.66584249
0.66584213
0.66573641
0.66615302
0.66605197
0.6657693
0.66609395
0.66653657
0.66573372
0.66516647
0.66530348
0.66535665
0.66548957
0.6656793
0.66563829
0.66584404
0.66584149
0.66573654
0.66615565
0.66605057
0.6657685
0.66609593
0.66653738
0.66573079
0.66516595
0.66530397
0.66535766
0.66549161
0.6656806
0.66563895
0.66584567
0.66584067
0.66573682
0.66615841
0.66604917
0.66576772
0.66609793
0.66653822
0.66572799
0.66516534
0.66530482
0.66535873
0.66549352
0.66568217
0.66563922
0.66584724
0.66583991
0.665737
0.66616107
0.66604762
0.66576696
0.6661
0.66653906
0.66513561
0.66516481
0.66530526
0.66535979
0.66549554
0.66568351
0.66563995
0.66584882
0.66583912
0.6657373
0.66616387
0.66604603
0.66576619
0.66610212
0.66653992
0.66513557
0.66516431
0.66530622
0.6653609
0.6654975
0.66568502
0.66564023
0.66585043
0.66583835
0.66573758
0.66616651
0.66604429
0.6657654
0.66610428
0.66654074
0.66513521
0.66516378
0.66530665
0.66536208
0.66549949
0.66568636
0.66564101
0.66585203
0.66583754
0.66573792
0.66616931
0.66604252
0.66576458
0.66610648
0.66654151
0.66498102
0.66513519
0.66516341
0.66530766
0.6653632
0.66550151
0.66568785
0.66564137
0.66585372
0.66583677
0.66573827
0.66617192
0.66604061
0.66576378
0.66610871
0.66654225
0.66498184
0.66513486
0.66516295
0.66530822
0.66536447
0.66550349
0.66568918
0.66564215
0.66585534
0.66583592
0.66573869
0.66617472
0.66603869
0.66576302
0.66611098
0.66654303
0.66487013
0.66498268
0.6651348
0.66516268
0.66530924
0.66536568
0.66550558
0.6656907
0.66564268
0.66585711
0.66583508
0.66573909
0.66617737
0.6660367
0.66576232
0.66611328
0.66654391
0.66486878
0.66498361
0.66513444
0.66516238
0.66530997
0.66536702
0.66550753
0.66569199
0.66564346
0.66585872
0.6658342
0.66573961
0.66618018
0.66603473
0.66576165
0.66611563
0.66474958
0.66486784
0.66498465
0.66513431
0.66516223
0.66531103
0.66536835
0.66550968
0.66569349
0.66564414
0.66586054
0.66583328
0.66574011
0.66618291
0.66603274
0.66576099
0.66611797
0.66474881
0.66486649
0.66498567
0.66513386
0.6651621
0.66531191
0.66536976
0.66551164
0.66569476
0.66564491
0.66586212
0.66583239
0.6657407
0.6661857
0.66603078
0.66576034
0.66612032
0.66474915
0.66486546
0.66498698
0.66513375
0.66516215
0.66531305
0.6653712
0.6655139
0.66569617
0.66564564
0.66586395
0.66583143
0.66574126
0.66618848
0.66602879
0.66575969
0.66612266
0.66461884
0.66474865
0.66486399
0.66498793
0.66513325
0.66516221
0.66531403
0.66537263
0.66551581
0.66569741
0.66564639
0.66586553
0.66583055
0.66574188
0.66619124
0.66602679
0.66575906
0.66612503
0.66462029
0.66474895
0.66486288
0.66498945
0.66513316
0.66516238
0.6653153
0.66537415
0.66551818
0.66569872
0.66564707
0.66586735
0.66582957
0.66574245
0.66619398
0.66602476
0.66575846
0.66612743
0.6644374
0.66462063
0.66474875
0.66486138
0.66499023
0.66513263
0.66516261
0.6653163
0.66537561
0.66552011
0.66569994
0.66564783
0.66586893
0.66582869
0.66574303
0.66619669
0.66602272
0.66575788
0.66612987
0.66443879
0.66462201
0.66474915
0.66486033
0.66499177
0.66513253
0.6651629
0.66531761
0.66537717
0.66552255
0.66570112
0.66564844
0.66587076
0.66582769
0.66574362
0.66619936
0.66602064
0.66575733
0.66421482
0.66444001
0.66462223
0.66474922
0.66485893
0.66499245
0.66513208
0.66516318
0.66531869
0.66537869
0.66552448
0.6657023
0.66564923
0.66587229
0.66582679
0.66574423
0.66620201
0.66601856
0.66575682
0.66402843
0.66421353
0.66444187
0.66462347
0.66474964
0.66485802
0.66499386
0.66513189
0.66516361
0.66531998
0.66538028
0.66552697
0.66570333
0.6656499
0.66587414
0.66582574
0.66574491
0.66620463
0.66601647
0.66575633
0.66402277
0.66421339
0.66444328
0.6646237
0.66474977
0.66485692
0.66499445
0.66513145
0.66516388
0.66532115
0.66538192
0.66552892
0.66570443
0.66565073
0.66587564
0.6658248
0.66574559
0.66620725
0.66601437
0.66575588
0.66389918
0.66401753
0.66421259
0.66444559
0.66462479
0.66475021
0.66485618
0.66499569
0.66513111
0.66516436
0.66532243
0.66538351
0.66553143
0.66570537
0.66565149
0.66587747
0.66582368
0.66574636
0.66620983
0.66601228
0.66575543
0.6638861
0.66401324
0.66421297
0.66444679
0.66462522
0.66475027
0.66485549
0.66499621
0.66513057
0.66516463
0.66532364
0.66538533
0.66553339
0.66570639
0.6656524
0.66587896
0.66582268
0.66574711
0.6662124
0.6660102
0.66575499
0.66383332
0.66387385
0.66400884
0.66421249
0.66444914
0.66462622
0.66475069
0.66485507
0.66499747
0.66513006
0.66516508
0.6653249
0.66538686
0.66553592
0.66570727
0.66565319
0.66588077
0.6658215
0.66574791
0.66621493
0.66600814
0.66385998
0.66381028
0.66386271
0.66400571
0.66421282
0.66445
0.66462684
0.66475064
0.66485463
0.66499824
0.66512937
0.66516544
0.66532611
0.66538882
0.66553787
0.66570823
0.66565418
0.66588226
0.66582042
0.66574865
0.66621747
0.66600609
0.66383626
0.66383125
0.66378894
0.66385191
0.66400223
0.66421326
0.66445206
0.66462777
0.66475092
0.66485466
0.66499967
0.6651288
0.66516591
0.66532737
0.66539031
0.66554044
0.66570901
0.66565497
0.66588407
0.66581921
0.6657494
0.66621995
0.66600405
0.66381395
0.66380176
0.66376763
0.66384251
0.66399996
0.66421377
0.66445266
0.66462847
0.6647507
0.66485422
0.66500088
0.66512803
0.66516633
0.66532854
0.66539232
0.66554233
0.66570997
0.66565595
0.66588558
0.6658181
0.66575011
0.66622248
0.666002
0.66376926
0.66378824
0.6637729
0.66374815
0.66383326
0.66399723
0.66421526
0.66445429
0.6646293
0.66475087
0.66485455
0.66500258
0.66512748
0.66516693
0.66532977
0.66539389
0.66554489
0.66571062
0.66565677
0.66588741
0.66581694
0.66575082
0.66622495
0.66599991
0.66362604
0.66374775
0.66376297
0.66374353
0.66372884
0.66382595
0.66399544
0.66421629
0.6644544
0.66462998
0.66475051
0.66485433
0.66500417
0.6651267
0.66516743
0.66533088
0.66539586
0.66554678
0.6657116
0.66565767
0.66588897
0.66581588
0.66575162
0.66622747
0.66599772
0.66345097
0.66361711
0.66372234
0.6637355
0.66371604
0.66371124
0.66381849
0.66399324
0.6642185
0.66445574
0.6646307
0.66475054
0.66485476
0.66500615
0.66512622
0.66516822
0.66533204
0.66539756
0.66554934
0.66571217
0.66565858
0.66589083
0.6658148
0.66575235
0.66622993
0.6659954
0.66317476
0.6634484
0.66360514
0.66369861
0.66370753
0.66368819
0.66369407
0.66381361
0.66399157
0.66421992
0.66445608
0.66463124
0.66475019
0.66485478
0.66500786
0.66512552
0.66516884
0.66533313
0.66539951
0.66555132
0.66571313
0.66565944
0.66589244
0.66581379
0.66575329
0.66623245
0.66286875
0.66318943
0.66344699
0.66359019
0.66367126
0.66367842
0.66366276
0.66367814
0.66380777
0.66398905
0.6642226
0.66445751
0.66463185
0.66475027
0.66485528
0.66501001
0.66512507
0.66516981
0.66533425
0.6654013
0.66555392
0.66571364
0.6656604
0.66589428
0.66581269
0.66575412
0.66623489
0.66255115
0.662896
0.66319892
0.66344192
0.66357422
0.66364589
0.66364781
0.66363677
0.66366321
0.66380452
0.66398714
0.66422418
0.66445867
0.66463219
0.66474995
0.66485547
0.66501176
0.66512449
0.66517052
0.66533539
0.6654032
0.66555598
0.66571456
0.66566127
0.66589594
0.66581165
0.66575522
0.66623736
0.66190434
0.66220941
0.66258198
0.6629231
0.66320905
0.66343688
0.66355369
0.66361782
0.6636171
0.66361313
0.6636492
0.66379959
0.66398583
0.66422718
0.66446025
0.66463278
0.66475026
0.66485609
0.6650139
0.6651241
0.66517167
0.66533654
0.66540506
0.66555866
0.66571496
0.66566229
0.66589773
0.66581051
0.66575617
0.66623977
0.66161605
0.66192252
0.66223832
0.66261189
0.6629438
0.66321295
0.66342909
0.66353376
0.66359091
0.66358476
0.66358903
0.66363653
0.66379669
0.66398444
0.66422897
0.66446194
0.6646329
0.66474987
0.6648565
0.66501563
0.66512356
0.66517245
0.66533779
0.66540694
0.6655608
0.6657158
0.66566325
0.66589945
0.66580946
0.6657574
0.66624219
0.6612517
0.6614162
0.66162978
0.66193876
0.66226429
0.66264064
0.66296496
0.66321814
0.66341757
0.66350873
0.66356277
0.66355342
0.66356734
0.66362461
0.66379237
0.66398464
0.66423217
0.66446352
0.66463342
0.66475039
0.66485715
0.66501775
0.66512322
0.66517375
0.665339
0.66540896
0.66556357
0.66571613
0.66566439
0.66590122
0.66580829
0.6657585
0.66624454
0.66088946
0.66105191
0.66124864
0.6614282
0.66165066
0.66196189
0.66229249
0.66266578
0.66297819
0.66321746
0.66340626
0.66348465
0.66353432
0.66352128
0.66354525
0.66361433
0.66378981
0.66398418
0.66423425
0.66446531
0.66463316
0.66475006
0.66485782
0.66501934
0.66512264
0.66517461
0.66534034
0.66541076
0.6655658
0.66571686
0.66566535
0.66590294
0.66580725
0.66575986
0.66066918
0.66076357
0.66087494
0.66104279
0.66124849
0.66144107
0.66167101
0.66198472
0.66231989
0.66269056
0.66299144
0.66321479
0.66338951
0.66345621
0.66350574
0.66349138
0.66352537
0.66360444
0.66378645
0.66398562
0.6642376
0.66446679
0.66463341
0.66475063
0.66485837
0.66502146
0.66512226
0.66517596
0.66534166
0.66541292
0.66556863
0.66571721
0.66566658
0.66590469
0.66580605
0.66576113
0.66037162
0.66040848
0.66052934
0.66064925
0.66074777
0.66086342
0.66103689
0.66125106
0.66145679
0.66169947
0.66201385
0.66234634
0.66270876
0.66299717
0.66320825
0.66337336
0.66342828
0.66347546
0.66346187
0.66350553
0.66359675
0.66378418
0.663986
0.66424014
0.66446838
0.66463253
0.66475021
0.66485925
0.66502279
0.66512195
0.66517693
0.66534305
0.66541474
0.66557093
0.66571789
0.66566753
0.66590638
0.665805
0.66576257
0.66007548
0.66016499
0.66025818
0.66033781
0.6603831
0.66050457
0.66062945
0.66073387
0.66085605
0.6610345
0.66125387
0.66147114
0.66172609
0.66204423
0.66237263
0.6627268
0.66300199
0.6631978
0.66335113
0.66339745
0.66344551
0.66343529
0.66348744
0.66358922
0.66378161
0.66398813
0.66424379
0.66446955
0.66463244
0.66475053
0.66485976
0.66502468
0.66512171
0.66517831
0.66534455
0.66541702
0.66557377
0.66571828
0.66566878
0.66590811
0.66580383
0.66576393
0.65979869
0.65986763
0.65991978
0.65998525
0.66001955
0.66003097
0.66012413
0.66022172
0.66030841
0.6603635
0.66048388
0.66061262
0.66072271
0.66085274
0.66103524
0.66126162
0.66149262
0.6617614
0.66207766
0.66239436
0.66273717
0.6630017
0.66318499
0.66332854
0.66336671
0.66341324
0.66340938
0.66347001
0.66358445
0.66377908
0.66398935
0.6642468
0.66447069
0.6646313
0.66474997
0.66486072
0.66502579
0.66512188
0.66517937
0.66534592
0.6654189
0.66557613
0.66571892
0.66566964
0.66590978
0.6658028
0.66576535
0.65959863
0.65956178
0.65959097
0.65963936
0.65963704
0.65968114
0.65974936
0.65973825
0.65973671
0.65980965
0.65986609
0.65993493
0.65997987
0.65999262
0.66008668
0.66018762
0.66028057
0.66034655
0.66046318
0.66059728
0.66071527
0.66085207
0.66103635
0.66126713
0.66151007
0.66179646
0.66211185
0.66241637
0.66274754
0.66299991
0.66316641
0.6633005
0.66333494
0.66338167
0.663386
0.66345323
0.66357939
0.66377573
0.66399215
0.66425077
0.66447137
0.66463117
0.66475009
0.66486148
0.66502754
0.66512158
0.66518077
0.66534757
0.66542135
0.66557897
0.6657193
0.66567086
0.66591152
0.66580172
0.66576674
0.65055035
0.65053516
0.65051977
0.65050417
0.65048859
0.65047392
0.65046317
0.65046904
0.6505633
0.6510019
0.65196888
0.6534513
0.65519626
0.65700538
0.65837524
0.65902663
0.65921855
0.659276
0.65930995
0.65934346
0.65936557
0.65937182
0.65935423
0.65934839
0.6593801
0.6594199
0.6594206
0.65939997
0.65942846
0.65947303
0.65947608
0.65944362
0.6594716
0.6595258
0.65954301
0.65950777
0.65952789
0.65957744
0.65958314
0.65961974
0.65969263
0.65969046
0.65968129
0.65975992
0.65981944
0.65989049
0.65994429
0.65996162
0.66005305
0.66015727
0.66025747
0.66033197
0.66044543
0.66058541
0.66071041
0.66085403
0.66104202
0.66128156
0.66153773
0.66183471
0.66214478
0.66243158
0.66275118
0.66299527
0.66314596
0.66327161
0.66330258
0.66334751
0.66336295
0.66343815
0.66357623
0.66377216
0.66399413
0.664254
0.66447208
0.66463018
0.66474972
0.66486253
0.66502869
0.66512193
0.66518186
0.6653489
0.66542332
0.66558142
0.66571988
0.66567166
0.66591325
0.66580071
0.65050377
0.65048744
0.65047105
0.65045462
0.65043811
0.65042141
0.65040441
0.65038709
0.65036975
0.65035347
0.65034173
0.65034932
0.65045789
0.65094505
0.6519333
0.65332991
0.65508175
0.65697067
0.65836572
0.65902492
0.65921509
0.65925591
0.65927697
0.6593052
0.65933467
0.65934007
0.65932059
0.65930278
0.65932521
0.65936375
0.65936814
0.65934422
0.65936909
0.6594168
0.65942413
0.65938556
0.65941073
0.65946668
0.65948633
0.65945851
0.65946739
0.65952068
0.65953435
0.65955898
0.65963701
0.65964825
0.65963103
0.65971514
0.65978006
0.65984915
0.65991298
0.65993249
0.66002261
0.66013022
0.66023495
0.66031836
0.66042906
0.6605759
0.66070729
0.66085672
0.66104745
0.66129624
0.66156517
0.66187112
0.66217787
0.66244866
0.66275352
0.66298663
0.66311863
0.66323886
0.66327081
0.66331449
0.66334187
0.66342276
0.66357233
0.66376978
0.66399772
0.66425796
0.66447266
0.66463009
0.6647498
0.66486375
0.66503052
0.66512179
0.66518331
0.66535055
0.6654259
0.66558421
0.6657202
0.66567285
0.66591494
0.66579971
0.65054085
0.65052834
0.6505156
0.65050276
0.65048994
0.65047721
0.65046462
0.65045216
0.65043979
0.65042746
0.65041523
0.65040341
0.65039296
0.65038677
0.65039677
0.65049629
0.65095863
0.65184955
0.6532588
0.65508871
0.65698531
0.65835667
0.65898143
0.6591541
0.65918148
0.65919899
0.6592378
0.65927904
0.65928722
0.65926552
0.65924065
0.65925957
0.65930016
0.65931051
0.65928709
0.65930716
0.65935765
0.65936771
0.65933001
0.65935178
0.65940884
0.65943236
0.65940603
0.65941059
0.65946515
0.65948702
0.65950938
0.65958807
0.65960893
0.65958933
0.65967212
0.659743
0.65981277
0.65988163
0.65991025
0.65999461
0.66010769
0.66021589
0.66030612
0.66041648
0.66056789
0.66070415
0.66086285
0.66106283
0.6613225
0.66159781
0.66190425
0.66220603
0.66246091
0.66275145
0.66297704
0.66309064
0.66320535
0.66323733
0.66327965
0.66332144
0.66341011
0.66356898
0.66376666
0.66400054
0.66426123
0.66447322
0.66462956
0.66474978
0.66486509
0.66503179
0.66512213
0.66518444
0.66535193
0.66542797
0.6655868
0.66572072
0.66567366
0.66591668
0.66579867
0.65064012
0.65063153
0.65062223
0.65061228
0.65060175
0.65059074
0.65057938
0.65056776
0.65055601
0.65054418
0.65053229
0.65052032
0.65050824
0.6504961
0.65048416
0.65047331
0.65046626
0.65047429
0.65056347
0.65098564
0.65187939
0.65346733
0.65530566
0.65705299
0.65832574
0.65889247
0.65905876
0.65909497
0.65912367
0.65917806
0.65921526
0.65922533
0.65920703
0.65918523
0.6592039
0.65924361
0.659258
0.65923613
0.65924989
0.65929938
0.65931638
0.65928088
0.65929448
0.65935272
0.65938046
0.65936422
0.65936014
0.65941537
0.65944506
0.65945971
0.65954319
0.65957765
0.65955106
0.65963587
0.65971081
0.659778
0.65985512
0.65988996
0.65997088
0.66008674
0.66019819
0.6602952
0.66040547
0.66056044
0.66070315
0.66087209
0.66108088
0.66135112
0.66162933
0.66193429
0.66223544
0.66247405
0.66274661
0.66295999
0.66305794
0.66316996
0.66320511
0.66324694
0.66330233
0.66339654
0.66356564
0.66376566
0.66400503
0.66426496
0.66447396
0.6646296
0.66474994
0.66486686
0.66503369
0.66512206
0.66518583
0.66535351
0.66543065
0.66558957
0.66572095
0.66567485
0.66591832
0.66579771
0.65064553
0.65063733
0.65062847
0.65061891
0.65060862
0.65059758
0.65058581
0.65057332
0.65056015
0.65054638
0.65053212
0.65051748
0.65050258
0.65048752
0.65047234
0.65045703
0.65044154
0.65042579
0.65040981
0.65039386
0.65037896
0.65036833
0.65037538
0.65047594
0.6509596
0.65201914
0.65352951
0.65530629
0.65709784
0.65834589
0.65888787
0.65903272
0.65907112
0.65909784
0.65913737
0.65916894
0.65917832
0.65916408
0.65914362
0.65915796
0.65919677
0.65921433
0.65919316
0.65919828
0.65924605
0.65926902
0.65923274
0.65924031
0.65929899
0.65933517
0.6593223
0.65931543
0.65936819
0.6594045
0.65942012
0.65949993
0.65954321
0.65951687
0.65959817
0.65968036
0.65974651
0.6598299
0.65987347
0.6599497
0.66006925
0.66018197
0.6602858
0.66039564
0.66055542
0.66070824
0.6608919
0.66111113
0.66138672
0.66165899
0.66195603
0.66225786
0.66248317
0.66273757
0.66294077
0.66302717
0.6631335
0.66317039
0.6632136
0.66328458
0.66338629
0.66356228
0.66376371
0.66400874
0.66426821
0.66447462
0.66462958
0.66475034
0.66486842
0.66503505
0.66512223
0.66518706
0.665355
0.66543275
0.6655923
0.66572139
0.6656757
0.66592007
0.66579664
0.65064062
0.65063422
0.65062738
0.65062006
0.65061224
0.65060387
0.65059494
0.6505854
0.65057522
0.65056436
0.65055281
0.65054054
0.65052757
0.65051396
0.65049977
0.65048506
0.65046988
0.65045435
0.65043857
0.65042267
0.65040671
0.65039075
0.65037476
0.65035865
0.65034237
0.65032593
0.65030968
0.65029478
0.65028482
0.65029456
0.65040766
0.65093686
0.65196148
0.65342725
0.65523182
0.65709516
0.6583466
0.65888543
0.65902386
0.65904621
0.65905942
0.65909105
0.65913298
0.65914269
0.65912531
0.65909865
0.65911006
0.65914662
0.65916781
0.65914957
0.65914695
0.65919302
0.65922045
0.65918857
0.65918895
0.65925162
0.65929036
0.65928362
0.65927321
0.65932705
0.65936715
0.65937892
0.65945913
0.65951553
0.65949237
0.6595676
0.65965574
0.65971965
0.65980692
0.65985886
0.65993169
0.66005409
0.66016671
0.66027568
0.66038748
0.66055217
0.66071585
0.6609148
0.66114428
0.66142127
0.66168608
0.66197789
0.66228263
0.6624923
0.66272209
0.66291389
0.66299416
0.6630968
0.6631375
0.663183
0.6632669
0.66337491
0.66356004
0.66376421
0.66401389
0.66427159
0.66447545
0.66462977
0.66475068
0.66487057
0.66503698
0.6651222
0.66518841
0.66535658
0.66543548
0.66559507
0.66572153
0.66567694
0.66592163
0.65068676
0.65068684
0.65068707
0.65068743
0.65068781
0.65068813
0.65068826
0.65068814
0.65068772
0.65068699
0.65068595
0.65068461
0.65068296
0.65068101
0.65067877
0.65067622
0.65067338
0.65067023
0.65066678
0.65066303
0.65065896
0.65065458
0.65064989
0.65064487
0.65063952
0.65063383
0.65062778
0.65062137
0.65061458
0.65060738
0.65059977
0.65059172
0.65058322
0.65057425
0.6505648
0.65055488
0.65054449
0.65053367
0.65052246
0.65051094
0.65049921
0.65048737
0.65047552
0.65046375
0.65045211
0.65044061
0.65042919
0.65041785
0.65040663
0.65039577
0.65038618
0.65038062
0.65039023
0.65048255
0.6509486
0.6518868
0.65340592
0.65530029
0.65711497
0.65833166
0.65884339
0.65896679
0.65898184
0.6589965
0.65903601
0.6590798
0.65908594
0.6590684
0.65904598
0.65906048
0.6590923
0.65911702
0.65910544
0.65909687
0.65914018
0.65917334
0.65915145
0.65914245
0.65920302
0.6592489
0.65924702
0.6592379
0.6592854
0.65932975
0.65934535
0.65942091
0.65948696
0.65947051
0.65953611
0.65963136
0.65969293
0.65978485
0.65984493
0.65991409
0.66004081
0.66015289
0.66026459
0.6603861
0.6605588
0.6607368
0.66094909
0.66118216
0.66145435
0.66170746
0.66199081
0.66229919
0.66249854
0.66270541
0.66288657
0.66296381
0.66305827
0.66310214
0.66315349
0.66325124
0.66336681
0.66355722
0.66376354
0.66401835
0.66427467
0.66447621
0.66462996
0.66475127
0.66487237
0.66503838
0.66512224
0.66518974
0.6653582
0.66543754
0.66559787
0.66572189
0.66567783
0.66592332
0.65071223
0.65071198
0.65071154
0.65071086
0.65071009
0.6507092
0.65070834
0.65070748
0.6507067
0.65070595
0.65070524
0.65070453
0.6507038
0.65070302
0.65070217
0.65070124
0.65070019
0.650699
0.65069767
0.65069615
0.65069444
0.65069251
0.65069033
0.65068789
0.65068515
0.65068209
0.65067867
0.65067488
0.65067068
0.65066602
0.65066087
0.65065519
0.65064892
0.65064201
0.65063441
0.65062606
0.65061695
0.65060709
0.65059652
0.65058527
0.65057342
0.65056106
0.6505483
0.65053527
0.65052205
0.65050872
0.65049527
0.65048169
0.65046792
0.65045401
0.65044033
0.65042782
0.65041931
0.65042655
0.65051857
0.6509709
0.65201846
0.65364984
0.65549083
0.65718888
0.65832097
0.65876834
0.65888705
0.65891232
0.65893952
0.658986
0.65902308
0.65902614
0.65901107
0.65899516
0.65901141
0.65904634
0.65907232
0.65906777
0.65905142
0.6590928
0.65913202
0.65911463
0.65909542
0.6591587
0.65921191
0.65921343
0.65920194
0.65924908
0.65929559
0.65931438
0.65938907
0.65946377
0.65946037
0.65951207
0.65960999
0.65967287
0.6597648
0.6598336
0.65990097
0.66002747
0.66014011
0.66025707
0.66038825
0.66056711
0.66076212
0.66098543
0.66121736
0.66148341
0.66173018
0.6620062
0.66231225
0.66249934
0.66267999
0.66285413
0.66293206
0.66302128
0.66306884
0.66312653
0.66323446
0.66335772
0.6635563
0.66376531
0.66402397
0.66427789
0.66447715
0.6646302
0.66475179
0.66487478
0.66504032
0.6651223
0.66519102
0.66535977
0.66544031
0.66560068
0.665722
0.66567911
0.66592478
0.6506897
0.65068985
0.65069017
0.65069066
0.6506913
0.65069204
0.65069277
0.6506934
0.65069384
0.65069402
0.65069394
0.65069359
0.65069296
0.65069205
0.65069086
0.65068939
0.65068762
0.65068555
0.65068316
0.65068045
0.65067739
0.65067397
0.65067017
0.65066598
0.65066136
0.6506563
0.65065077