/*--------------------------------*- C++ -*----------------------------------*\
| =========                 |                                                 |
| \\      /  F ield         | OpenFOAM: The Open Source CFD Toolbox           |
|  \\    /   O peration     | Version:  2506                                  |
|   \\  /    A nd           | Website:  www.openfoam.com                      |
|    \\/     M anipulation  |                                                 |
\*---------------------------------------------------------------------------*/
FoamFile
{
    version     2.0;
    format      ascii;
    arch        "LSB;label=32;scalar=64";
    class       volVectorField;
    location    "0.00018";
    object      wallShearStress;
}
// * * * * * * * * * * * * * * * * * * * * * * * * * * * * * * * * * * * * * //

dimensions      [1 -1 -2 0 0 0 0];

internalField   uniform (0 0 0);

boundaryField
{
    Side
    {
        type            empty;
    }
    Inlet
    {
        type            calculated;
        value           uniform (0 0 0);
    }
    Airfoil
    {
        type            calculated;
        value           nonuniform List<vector> 
92
(
(-395.62193 320.57653 6.6668017e-18)
(-398.81899 334.24563 -2.5190459e-18)
(-399.35253 339.34105 -3.7351094e-24)
(-398.79551 335.63516 3.7397834e-24)
(-400.90303 337.20122 4.2397995e-18)
(-402.07519 339.34782 -2.4878632e-18)
(-402.40663 340.50834 2.3509887e-38)
(-402.04673 339.94283 4.2099983e-18)
(-400.55056 334.12548 -6.6077644e-18)
(-400.98199 338.65913 -9.3099153e-35)
(-400.18893 334.56367 1.7632415e-38)
(-400.65495 332.06661 -2.429973e-18)
(-400.92949 325.96272 6.4572728e-18)
(-403.03799 335.19812 -3.6027132e-24)
(-402.86686 336.65629 3.595371e-24)
(-402.26987 334.0084 3.5070386e-24)
(-401.22155 318.00867 -3.9415662e-18)
(-401.74978 316.63704 -6.2874676e-18)
(-401.85637 323.28968 -2.7938614e-26)
(-402.86716 323.82005 3.4598006e-24)
(-402.96484 317.16755 -2.3427195e-18)
(-406.50182 328.24526 2.3644082e-18)
(-406.19879 332.21652 6.3640687e-18)
(-404.02665 319.79785 3.4554215e-24)
(-403.77452 313.55356 3.3498996e-24)
(-403.43352 311.57143 -3.345006e-24)
(-406.79336 331.0107 -5.7980125e-41)
(-406.04054 327.33859 1.8901949e-35)
(-406.81052 312.35471 -6.0938683e-18)
(-411.22692 322.28609 3.4276763e-24)
(-411.4592 332.36784 -3.4150569e-24)
(-408.07904 318.69742 -3.3751204e-24)
(-407.46594 324.08921 -3.8712949e-18)
(-404.03514 319.88139 -1.5375645e-18)
(-401.99504 317.32485 2.2969224e-18)
(-401.45794 309.88392 -2.2758336e-18)
(-401.47167 304.10416 3.2617198e-24)
(-403.13151 302.49743 2.2050598e-35)
(-406.77646 309.12863 -3.2936198e-24)
(-408.17867 316.6929 6.6376983e-24)
(-409.76992 324.98199 -3.3373947e-24)
(-407.36682 318.40205 -6.0765387e-18)
(-404.83271 307.96207 3.718015e-18)
(-404.53332 307.23618 -3.7126153e-18)
(-405.74402 312.23854 2.2652547e-18)
(-405.57151 305.58346 2.2509443e-18)
(-409.06047 315.16464 -2.2703337e-18)
(-408.83486 313.78796 3.286926e-24)
(-408.61237 308.22259 -2.2420775e-44)
(-409.41393 312.32416 -3.2458703e-24)
(-408.74784 306.84767 -1.3862018e-26)
(-411.35346 316.32545 2.2681132e-18)
(-413.23217 326.43879 3.8354019e-18)
(-414.88598 334.47484 -1.0866435e-35)
(-414.65985 335.37483 3.8975704e-18)
(-414.09952 321.29666 -6.6589863e-24)
(-413.38549 314.23452 2.2537763e-18)
(-412.40824 304.95028 2.2378307e-18)
(-415.77519 324.13516 3.3658011e-24)
(-415.2351 330.89053 -3.3623022e-24)
(-414.93526 332.33789 -2.2904134e-18)
(-414.00007 315.07085 5.8774718e-38)
(-417.197 320.03398 3.7783019e-18)
(-417.81302 316.53241 3.3459384e-24)
(-420.3787 333.40317 -3.3394064e-24)
(-417.54331 316.10122 3.3077357e-24)
(-419.65574 323.30234 1.8898741e-26)
(-418.47999 321.36739 -1.5658685e-26)
(-418.21047 319.29963 2.2626428e-18)
(-418.13186 315.49509 0)
(-418.53926 321.3089 -1.5302389e-18)
(-416.68788 319.49432 2.4238694e-35)
(-413.56658 315.77897 -2.2654677e-18)
(-411.10935 300.16125 3.2493166e-24)
(-410.02448 287.98766 3.5659109e-18)
(-411.53628 288.2072 -3.5726742e-18)
(-415.05467 297.93998 -3.6492479e-18)
(-416.02113 302.15995 0)
(-418.16362 307.18877 8.8162076e-39)
(-416.12528 292.36122 3.6142847e-18)
(-415.89355 288.78796 -2.2221368e-18)
(-415.66522 289.90747 6.5333034e-27)
(-415.09622 287.2347 -2.2240721e-18)
(-416.4568 292.10402 -4.4081038e-39)
(-416.97828 292.56838 -1.1188798e-18)
(-417.61039 293.14489 1.8223979e-18)
(-417.14824 289.91373 1.8124284e-18)
(-418.09782 294.42617 -1.12452e-18)
(-418.64874 299.27075 1.8532734e-18)
(-419.54933 304.16832 -7.3582774e-19)
(-416.8677 289.46139 1.0757488e-40)
(-416.35954 280.03568 3.1438834e-24)
)
;
    }
    Outlet
    {
        type            calculated;
        value           nonuniform List<vector> 0();
    }
    procBoundary11to3
    {
        type            processor;
        value           uniform (0 0 0);
    }
    procBoundary11to4
    {
        type            processor;
        value           uniform (0 0 0);
    }
    procBoundary11to10
    {
        type            processor;
        value           uniform (0 0 0);
    }
    procBoundary11to12
    {
        type            processor;
        value           uniform (0 0 0);
    }
}


// ************************************************************************* //
