/*--------------------------------*- C++ -*----------------------------------*\
| =========                 |                                                 |
| \\      /  F ield         | OpenFOAM: The Open Source CFD Toolbox           |
|  \\    /   O peration     | Version:  2506                                  |
|   \\  /    A nd           | Website:  www.openfoam.com                      |
|    \\/     M anipulation  |                                                 |
\*---------------------------------------------------------------------------*/
FoamFile
{
    version     2.0;
    format      ascii;
    arch        "LSB;label=32;scalar=64";
    class       volScalarField;
    location    "0.25";
    object      yPlus;
}
// * * * * * * * * * * * * * * * * * * * * * * * * * * * * * * * * * * * * * //

dimensions      [0 0 0 0 0 0 0];

internalField   uniform 0;

boundaryField
{
    Side
    {
        type            empty;
    }
    Inlet
    {
        type            calculated;
        value           uniform 0;
    }
    Airfoil
    {
        type            calculated;
        value           nonuniform List<scalar> 
26
(
884.67211
883.55429
880.44684
875.46784
869.01951
861.53109
853.21939
844.31384
835.13972
825.93869
817.21945
808.99953
801.6692
795.33594
790.3521
787.67778
786.3816
789.10944
793.18101
801.24061
811.59939
813.93673
816.92382
823.72887
834.81102
844.13933
)
;
    }
    Outlet
    {
        type            calculated;
        value           nonuniform List<scalar> 0();
    }
    procBoundary0to1
    {
        type            processor;
        value           uniform 0;
    }
    procBoundary0to7
    {
        type            processor;
        value           uniform 0;
    }
}


// ************************************************************************* //
