/*--------------------------------*- C++ -*----------------------------------*\
| =========                 |                                                 |
| \\      /  F ield         | OpenFOAM: The Open Source CFD Toolbox           |
|  \\    /   O peration     | Version:  2506                                  |
|   \\  /    A nd           | Website:  www.openfoam.com                      |
|    \\/     M anipulation  |                                                 |
\*---------------------------------------------------------------------------*/
FoamFile
{
    version     2.0;
    format      ascii;
    arch        "LSB;label=32;scalar=64";
    class       volVectorField;
    location    "0.00043";
    object      wallShearStress;
}
// * * * * * * * * * * * * * * * * * * * * * * * * * * * * * * * * * * * * * //

dimensions      [1 -1 -2 0 0 0 0];

internalField   uniform (0 0 0);

boundaryField
{
    Side
    {
        type            empty;
    }
    Inlet
    {
        type            calculated;
        value           nonuniform List<vector> 0();
    }
    Airfoil
    {
        type            calculated;
        value           nonuniform List<vector> 
50
(
(-292.4197 -1997.7017 1.880791e-37)
(-614.2237 -1531.8912 -4.41694e-18)
(-809.35834 -1275.8924 -1.0598336e-17)
(-1420.2423 -307.11511 -5.9766253e-18)
(-1615.5893 -180.22586 4.3707894e-18)
(-1660.1317 213.68246 0)
(-1852.7318 377.99359 3.2672899e-39)
(-1792.4374 485.30091 -4.8632904e-40)
(-1680.1428 498.01402 -2.2381412e-35)
(-1293.8813 417.47772 5.9694344e-18)
(-1374.8861 207.75947 -1.880791e-37)
(-1424.7468 80.044609 4.2177219e-18)
(-1541.5332 5.8632752 -1.880791e-37)
(-1538.7136 98.534832 7.9030422e-18)
(-1657.0427 237.6994 2.3149739e-22)
(-1780.2069 272.40867 -2.2606309e-22)
(-1840.2705 224.34244 3.8560347e-35)
(-1833.9496 240.19201 0)
(-1643.8315 351.83072 -3.2132158e-18)
(-1327.0483 566.02829 -2.6609298e-18)
(-1665.7003 371.58906 4.7284354e-23)
(-1876.0719 379.54441 -3.333565e-18)
(-1957.726 623.91336 -5.9661205e-18)
(-1976.5967 699.47242 1.6896293e-22)
(-2161.6355 792.90156 -1.6256794e-22)
(-1930.7503 1022.1375 2.0702751e-35)
(-1929.67 1010.7919 -3.8915291e-39)
(-2463.5783 850.00708 2.9972011e-18)
(-2614.3494 799.67912 -1.9479622e-22)
(-2689.493 909.0156 -3.0858635e-18)
(-2470.9253 1229.7426 -5.6184276e-18)
(-478.5764 339.94098 1.880791e-37)
(10.872584 44.211536 -5.6437918e-19)
(-2247.0007 837.56741 4.8006266e-18)
(-3119.068 1064.9046 3.0155306e-18)
(-3181.8207 1169.1487 1.6004378e-22)
(-3158.3449 1216.4953 -1.5777861e-22)
(-3195.2589 1242.5961 2.228117e-18)
(-3007.684 1280.5875 2.6169844e-23)
(-2614.5893 1256.8966 2.4486689e-18)
(-1472.3756 798.23071 -1.8722563e-18)
(-837.14969 471.80963 -2.313969e-18)
(-52.719619 49.040399 2.0243921e-23)
(6.0699591 15.294915 -1.8691457e-23)
(5.5131331 12.401459 -6.1422945e-19)
(-294.46581 151.12836 8.2465182e-19)
(-2820.7944 1229.6817 2.2624952e-18)
(-2944.8388 1274.1977 -7.8836244e-19)
(-2958.3354 1269.0009 3.6049503e-18)
(-2925.1723 1253.6428 -3.6782521e-18)
)
;
    }
    Outlet
    {
        type            calculated;
        value           nonuniform List<vector> 0();
    }
    procBoundary25to1
    {
        type            processor;
        value           uniform (0 0 0);
    }
    procBoundary25to9
    {
        type            processor;
        value           uniform (0 0 0);
    }
    procBoundary25to49
    {
        type            processor;
        value           uniform (0 0 0);
    }
    procBoundary25to52
    {
        type            processor;
        value           uniform (0 0 0);
    }
}


// ************************************************************************* //
