/*--------------------------------*- C++ -*----------------------------------*\
| =========                 |                                                 |
| \\      /  F ield         | OpenFOAM: The Open Source CFD Toolbox           |
|  \\    /   O peration     | Version:  2506                                  |
|   \\  /    A nd           | Website:  www.openfoam.com                      |
|    \\/     M anipulation  |                                                 |
\*---------------------------------------------------------------------------*/
FoamFile
{
    version     2.0;
    format      ascii;
    arch        "LSB;label=32;scalar=64";
    class       volScalarField;
    location    "0.05";
    object      alphat;
}
// * * * * * * * * * * * * * * * * * * * * * * * * * * * * * * * * * * * * * //

dimensions      [1 -1 -1 0 0 0 0];

internalField   nonuniform List<scalar> 
19257
(
0.1319149
0.13110733
0.13052369
0.13025236
0.13016771
0.13017278
0.13018894
0.13020268
0.1302217
0.13023548
0.13024261
0.13025344
0.13026363
0.13027069
0.13027863
0.1302827
0.13029136
0.13029538
0.13029795
0.13029877
0.13030161
0.13030718
0.1303059
0.13030913
0.13031299
0.13032532
0.1303374
0.13035964
0.13038336
0.13042705
0.1305033
0.13060233
0.13073769
0.12671003
0.10912081
0.08675881
0.066837194
0.05907047
0.044638809
0.033168179
0.033176903
0.018854863
0.015716925
0.016138739
0.0098834594
0.0097570163
0.0035266467
0.0085794934
0.00061839284
0.13190128
0.13115063
0.13057003
0.13026961
0.13017579
0.13017556
0.13019122
0.13020316
0.13022287
0.1302385
0.13024473
0.13025468
0.13026492
0.13027359
0.13028171
0.13028514
0.13029268
0.13029857
0.13030136
0.13030289
0.130307
0.13031275
0.13031387
0.13031594
0.13032241
0.1303338
0.13034982
0.13037201
0.13039742
0.13044173
0.13051419
0.13060858
0.13074143
0.13095221
0.10254003
0.08186252
0.067563158
0.053862901
0.046666138
0.037928003
0.027563094
0.025704522
0.020014789
0.014000662
0.013890982
0.0091783236
0.0058303837
0.0044485644
0.00063306627
0.13196839
0.13125936
0.1306569
0.13030728
0.13018388
0.13018108
0.13019498
0.13020478
0.13022409
0.13024155
0.13024699
0.13025593
0.1302674
0.13027672
0.13028381
0.13028664
0.13029397
0.13030125
0.13030513
0.13030735
0.13031211
0.13031752
0.13032144
0.13032325
0.13033072
0.13034069
0.13036128
0.13038122
0.13040927
0.13045376
0.13052227
0.13061115
0.13074433
0.13078529
0.10887579
0.090248403
0.070314734
0.055706947
0.044994482
0.03536728
0.029594886
0.021973234
0.016538349
0.013261754
0.0087455022
0.0066704121
0.0065871962
0.0026098779
0.00066399693
0.13200764
0.13135655
0.13074739
0.13035202
0.13019242
0.13018688
0.13020021
0.13020773
0.13022565
0.1302443
0.13025082
0.13025917
0.13027065
0.13027896
0.13028523
0.13028911
0.1302962
0.13030447
0.13030944
0.13031226
0.13031809
0.13032322
0.13032861
0.13033076
0.13033925
0.13035275
0.13037253
0.13039231
0.13042212
0.13046845
0.13053317
0.13061823
0.1307446
0.13093934
0.10867018
0.085612703
0.071085727
0.058524845
0.044984652
0.037876209
0.027632936
0.022791342
0.018013611
0.013315467
0.011095911
0.0081736622
0.0056329937
0.0033774098
0.00065394544
0.13206148
0.1314672
0.13085528
0.13040715
0.13020799
0.13019449
0.13020587
0.13021137
0.13022793
0.13024738
0.13025514
0.13026193
0.13027291
0.13028191
0.1302876
0.13029357
0.13029985
0.13030878
0.13031342
0.13031807
0.13032495
0.13032985
0.13033594
0.13034139
0.13034976
0.13036513
0.13038334
0.13040464
0.13043477
0.13048223
0.13054384
0.13062634
0.13074849
0.1309376
0.11102087
0.091490546
0.071178086
0.05641221
0.045724871
0.035510783
0.029880834
0.021908889
0.017054657
0.013704426
0.01022383
0.0065179323
0.006567296
0.0027471561
0.00070598817
0.13211758
0.13157661
0.13096864
0.13047165
0.13023482
0.13020577
0.13020912
0.13021408
0.13022951
0.13024806
0.13025766
0.13026418
0.13027501
0.13028538
0.13029086
0.13029803
0.13030353
0.13031232
0.13031723
0.1303245
0.1303327
0.13033669
0.13034472
0.13035192
0.13036075
0.13037533
0.13039613
0.13042051
0.1304492
0.13049702
0.13055705
0.13063536
0.13075326
0.13093257
0.11257506
0.090140159
0.074985744
0.058616989
0.047626452
0.036527787
0.028675165
0.022860335
0.017760913
0.01273077
0.0092329477
0.0070818845
0.0040282906
0.0031235509
0.0007244471
0.13217505
0.13167922
0.1310861
0.13054661
0.13027544
0.13022074
0.13021139
0.13021581
0.13023005
0.13024718
0.13025916
0.13026809
0.13027954
0.13028898
0.13029379
0.13030191
0.13030762
0.13031558
0.13032281
0.13033277
0.13034028
0.13034415
0.130353
0.1303611
0.13037158
0.13038952
0.13041175
0.13043536
0.13046479
0.13051099
0.13057255
0.13064789
0.13075974
0.13093226
0.11504774
0.092719205
0.074633391
0.059642362
0.046757236
0.037987335
0.028763934
0.022484827
0.017127137
0.012817863
0.0096909177
0.0070587386
0.0057492236
0.0029234005
0.00075018896
0.13224857
0.13176486
0.13120172
0.13063449
0.13032851
0.13023599
0.13021433
0.13022017
0.13023251
0.13024648
0.13026131
0.13027322
0.13028346
0.13029211
0.13029708
0.1303055
0.13031287
0.13032035
0.13032937
0.13034114
0.13034751
0.13035216
0.13036076
0.13037106
0.13038332
0.13040408
0.13042719
0.13045075
0.13048088
0.13052741
0.1305891
0.1306632
0.13076844
0.13093226
0.11768785
0.09451348
0.075313557
0.061801397
0.047577391
0.037577075
0.030281597
0.022175654
0.017404736
0.013434161
0.0089578715
0.0069299523
0.0041095469
0.0028737489
0.00081376709
0.1323287
0.13183435
0.1313039
0.13072839
0.13038858
0.13025338
0.13021603
0.13022498
0.13023483
0.1302457
0.13026194
0.13027641
0.13028784
0.13029607
0.1303022
0.13031125
0.13032013
0.13032658
0.13033548
0.13034806
0.13035588
0.13036009
0.13037015
0.1303822
0.1303952
0.13041765
0.13044142
0.13046589
0.13049762
0.13054494
0.13060657
0.13067983
0.13077986
0.13093647
0.11978031
0.096552252
0.076444622
0.061484554
0.049397525
0.038219791
0.029335137
0.024246169
0.01673941
0.012664483
0.0097140812
0.0064846819
0.0049441243
0.0024846179
0.00080888858
0.1324009
0.13190045
0.13139526
0.13082318
0.13045304
0.1302721
0.13022311
0.13023148
0.1302384
0.1302475
0.13026452
0.13028141
0.13029416
0.13030135
0.13030885
0.13031726
0.13032649
0.1303327
0.13034135
0.13035341
0.13036467
0.13036944
0.13037935
0.13039231
0.13040676
0.13043097
0.13045694
0.13048253
0.13051417
0.13056164
0.13062415
0.13069765
0.13079294
0.13094033
0.12192726
0.098102441
0.078908301
0.061912902
0.049800024
0.039155859
0.030370539
0.022677784
0.018374459
0.012707501
0.0090418645
0.0065752262
0.0043619815
0.0026920471
0.00084089643
0.13244419
0.13197156
0.13148858
0.1309159
0.13051843
0.1302972
0.13023626
0.13023848
0.13023941
0.13024769
0.1302677
0.13028618
0.13029989
0.13030746
0.13031469
0.13032303
0.13033218
0.13033985
0.13034806
0.13035922
0.13037259
0.13037891
0.13038965
0.13040427
0.13041921
0.130444
0.13047256
0.13050062
0.13053267
0.13057894
0.13064122
0.13071498
0.13080781
0.13094725
0.12457505
0.099283034
0.079964654
0.063313467
0.050215853
0.039516462
0.030395115
0.023483441
0.017354102
0.012810909
0.0100084
0.0064049109
0.004266395
0.0023959922
0.00081191042
0.13246704
0.13202699
0.13157347
0.13100035
0.13057563
0.13031806
0.13024463
0.1302447
0.13024108
0.13025044
0.13027176
0.13028937
0.13030273
0.13031224
0.13032031
0.13032971
0.13033873
0.13034708
0.13035509
0.13036533
0.13037937
0.13038868
0.13040005
0.13041647
0.1304312
0.13045588
0.13048671
0.13051672
0.13054933
0.13059469
0.13065685
0.13073168
0.13082291
0.13095579
0.12797624
0.10160086
0.080773456
0.065025724
0.050438641
0.040320863
0.031546168
0.023350918
0.017817597
0.013273931
0.0088201107
0.0065688491
0.0041887895
0.0026085595
0.00086544168
0.13246706
0.13207103
0.13165083
0.13106833
0.13061981
0.13033876
0.13025531
0.13024927
0.13025013
0.13026092
0.13027933
0.13029346
0.13030599
0.13031763
0.13032674
0.13033665
0.13034572
0.13035421
0.13036192
0.13037124
0.13038521
0.13039767
0.13041009
0.13042804
0.13044282
0.13046641
0.13049906
0.13053212
0.13056612
0.1306103
0.13067172
0.13074795
0.13083915
0.13096654
0.12979513
0.10381254
0.081775344
0.065339709
0.052100843
0.039786276
0.031301625
0.02419615
0.017684016
0.012946854
0.0094848702
0.0065560438
0.0038876103
0.0024930328
0.00084673687
0.13243737
0.13211109
0.13169508
0.13112241
0.13065804
0.13037112
0.13026483
0.13025666
0.1302677
0.13027791
0.13029005
0.13030082
0.13031232
0.1303247
0.1303347
0.13034457
0.13035277
0.13036052
0.13036815
0.13037746
0.13039123
0.13040596
0.13041982
0.1304386
0.13045422
0.13047632
0.13050966
0.13054537
0.13058219
0.13062629
0.13068588
0.13076198
0.13085379
0.13097688
0.13117273
0.1047489
0.083631255
0.065658566
0.052403047
0.041045393
0.031441009
0.023844053
0.017976139
0.013093234
0.0093462266
0.0061223337
0.0042303835
0.0022977736
0.00085616077
0.1323711
0.13213161
0.13173013
0.13116745
0.13069417
0.13040232
0.13028277
0.13027428
0.13028121
0.13029222
0.1303004
0.13030926
0.13032077
0.13033353
0.13034294
0.13035135
0.1303586
0.13036593
0.13037386
0.13038385
0.13039782
0.13041366
0.13042871
0.13044774
0.13046442
0.13048539
0.13051848
0.13055618
0.13059563
0.13064076
0.13069904
0.13077458
0.1308668
0.13098714
0.13117394
0.1060319
0.083909049
0.066728243
0.052393171
0.041298836
0.031593389
0.024188234
0.017811352
0.013009897
0.009293164
0.0062528473
0.0038473871
0.0024525423
0.00086463755
0.13228071
0.13213853
0.13175401
0.13120011
0.13072668
0.13042947
0.13030828
0.13029401
0.13029263
0.13030189
0.13030806
0.13031666
0.13032874
0.13034159
0.13035001
0.13035676
0.13036337
0.13037082
0.13037941
0.13039021
0.1304043
0.13042027
0.13043614
0.13045569
0.13047354
0.13049371
0.13052594
0.13056484
0.13060662
0.13065325
0.13070998
0.13078394
0.13087632
0.13099485
0.13117426
0.10765857
0.084603705
0.067345038
0.053125206
0.041476039
0.032130099
0.024142078
0.018034146
0.013122824
0.0091515149
0.0063482086
0.0038111984
0.0023854369
0.00084164331
0.13218339
0.13213346
0.13176802
0.13121856
0.13075232
0.13045951
0.13033153
0.13030638
0.1303009
0.13030835
0.13031431
0.13032289
0.13033503
0.13034744
0.130355
0.13036091
0.13036782
0.13037614
0.1303854
0.13039642
0.13041002
0.13042542
0.13044162
0.1304616
0.13048048
0.13050031
0.13053148
0.1305709
0.13061419
0.13066229
0.13071819
0.13079019
0.13088226
0.13099991
0.13117272
0.10980533
0.086745475
0.068552791
0.05445907
0.042520513
0.032697607
0.024810698
0.018336212
0.013324131
0.0094175655
0.0062697163
0.0039241532
0.0023637248
0.00084748007
0.13209907
0.13212229
0.1317745
0.13122689
0.13077192
0.13048987
0.13034946
0.13030998
0.13030545
0.13031258
0.13031865
0.13032733
0.13033914
0.13035069
0.13035765
0.13036333
0.13037095
0.1303803
0.13039002
0.13040101
0.13041413
0.13042849
0.13044451
0.13046484
0.13048465
0.13050479
0.13053529
0.13057489
0.13061919
0.13066843
0.13072426
0.13079479
0.13088721
0.13100638
0.13117724
0.11260254
0.088521619
0.070105611
0.055442119
0.043466713
0.033408069
0.025201116
0.018694602
0.013550025
0.0095473291
0.0064056894
0.0040225478
0.0024565032
0.00088129714
0.13204454
0.13211258
0.13177652
0.13123228
0.13078522
0.13050589
0.13035952
0.1303157
0.13031056
0.13031527
0.1303211
0.13032969
0.13034112
0.1303521
0.13035903
0.13036466
0.13037229
0.13038192
0.13039175
0.13040276
0.13041569
0.13042922
0.13044507
0.13046586
0.13048638
0.13050688
0.13053692
0.13057681
0.13062254
0.13067369
0.13073133
0.1308024
0.13089631
0.13101946
0.13119448
0.11077673
0.08700322
0.068732136
0.054336539
0.042504841
0.032644456
0.024607474
0.018192425
0.013198424
0.0092649386
0.0062199886
0.0038320664
0.0023573437
0.0008493033
0.13202663
0.13210964
0.13177742
0.13123461
0.13079026
0.13051207
0.13036292
0.13031723
0.13031148
0.13031562
0.13032132
0.13032988
0.13034113
0.13035195
0.13035893
0.13036456
0.13037194
0.13038161
0.13039131
0.13040228
0.13041509
0.1304283
0.13044318
0.13046409
0.13048507
0.13050632
0.13053657
0.13057711
0.13062432
0.13067701
0.13073674
0.13080928
0.13090525
0.1310327
0.1312131
0.10807402
0.084976157
0.067168158
0.053049564
0.041458194
0.031804889
0.023939832
0.017696842
0.012814117
0.0089671953
0.005961727
0.0036471348
0.0021769195
0.00082994335
0.13204456
0.13211255
0.13177639
0.13123244
0.13078571
0.13050595
0.13035836
0.13031458
0.13030867
0.1303135
0.13031917
0.13032791
0.13033951
0.13035031
0.1303571
0.1303628
0.13037056
0.13038068
0.13039013
0.13040094
0.13041353
0.13042617
0.13044228
0.13046342
0.13048423
0.13050567
0.13053522
0.13057474
0.13062115
0.13067244
0.13073079
0.13080092
0.13089368
0.13101835
0.13119506
0.11068858
0.087038253
0.068808855
0.054377617
0.042526367
0.032639568
0.024596729
0.018187635
0.013206066
0.009289639
0.0061733246
0.0038668369
0.0023456092
0.00082539487
0.13209907
0.13212227
0.13177437
0.1312268
0.13077203
0.13048976
0.1303489
0.13031023
0.13030387
0.13031107
0.13031691
0.13032574
0.13033775
0.13034897
0.13035588
0.13036151
0.13036904
0.13037908
0.13038805
0.13039897
0.13041146
0.13042382
0.13044002
0.13046113
0.13048198
0.13050376
0.1305327
0.13057117
0.13061676
0.1306666
0.13072352
0.13079172
0.13088174
0.13100388
0.13117832
0.11240733
0.088743946
0.070333499
0.05563592
0.043480932
0.03340456
0.025134688
0.018691018
0.013554866
0.0094991807
0.0065703348
0.0038081459
0.0025421309
0.00093831367
0.13218339
0.13213339
0.13176785
0.13121832
0.13075223
0.13045926
0.13033148
0.13030673
0.13029996
0.1303074
0.13031322
0.13032182
0.13033432
0.13034646
0.13035419
0.13035983
0.13036649
0.13037562
0.13038392
0.13039527
0.13040773
0.13041993
0.13043632
0.13045737
0.13047824
0.13050011
0.13052837
0.13056627
0.1306116
0.13066079
0.1307174
0.13078538
0.13087496
0.13099735
0.13117509
0.10964574
0.086887927
0.069050483
0.054542671
0.042685741
0.032598952
0.024776051
0.018228242
0.01335478
0.009628534
0.0057616186
0.004366618
0.0020898297
0.00079193809
0.13228071
0.13213842
0.13175376
0.13119975
0.1307264
0.13042929
0.13030827
0.13029366
0.13029185
0.13030133
0.13030735
0.13031579
0.13032851
0.13034122
0.13034995
0.13035618
0.13036299
0.13037138
0.13037884
0.13039016
0.13040215
0.13041437
0.13043122
0.1304521
0.13047272
0.13049421
0.13052174
0.13055934
0.13060423
0.13065274
0.13070966
0.13077835
0.13086879
0.13099318
0.13117825
0.10725961
0.085133586
0.067478933
0.0533961
0.041436554
0.032134597
0.023933148
0.018149538
0.013145621
0.0087784809
0.0072697766
0.003168564
0.0028346704
0.0008715399
0.1323711
0.13213142
0.13172975
0.13116705
0.1306939
0.13040235
0.13028217
0.13027337
0.13028098
0.13029211
0.1302997
0.13030849
0.1303208
0.13033315
0.13034283
0.13035065
0.13035906
0.13036687
0.13037327
0.13038387
0.13039513
0.13040741
0.1304246
0.13044505
0.13046524
0.13048612
0.13051321
0.13055051
0.13059373
0.13064151
0.13069901
0.13076844
0.13085971
0.13098671
0.13118061
0.10612583
0.084361022
0.066934953
0.052598533
0.041375183
0.031241367
0.024328737
0.017560995
0.013048902
0.0098595508
0.0054924239
0.0049068799
0.0020045474
0.0008717349
0.13243734
0.13211078
0.13169458
0.13112203
0.13065797
0.13037098
0.13026344
0.13025613
0.13026774
0.13027818
0.13028938
0.13030007
0.13031234
0.13032412
0.13033475
0.13034422
0.13035412
0.13036122
0.13036726
0.13037711
0.13038749
0.13039936
0.13041645
0.13043622
0.13045597
0.13047618
0.13050337
0.13054011
0.13058062
0.13062728
0.13068485
0.1307545
0.13084689
0.13097813
0.13118191
0.1050649
0.083690327
0.06620276
0.052716184
0.040596589
0.031792608
0.023513967
0.01819738
0.012984897
0.0089847154
0.0064494035
0.0037685378
0.0023567702
0.00081328818
0.13246697
0.13207054
0.1316503
0.13106802
0.13061919
0.13033774
0.13025391
0.13024959
0.13025033
0.13026092
0.13027885
0.13029302
0.13030612
0.13031734
0.13032688
0.13033695
0.13034783
0.13035472
0.13036123
0.13037035
0.13037969
0.13039094
0.13040739
0.13042622
0.13044519
0.13046504
0.13049279
0.13052763
0.13056586
0.13061305
0.13067044
0.13073954
0.13083316
0.13096984
0.12918219
0.10353222
0.0823378
0.06575052
0.05164919
0.040192873
0.030962808
0.02376922
0.017679285
0.013142419
0.0096207416
0.0068178012
0.003037369
0.0028623839
0.00087761425
0.1324669
0.13202648
0.13157289
0.13100029
0.13057488
0.13031563
0.13024458
0.13024547
0.13024128
0.13024986
0.13027105
0.13028863
0.13030209
0.13031219
0.13032008
0.13033054
0.13034104
0.13034758
0.1303545
0.13036313
0.13037175
0.13038297
0.13039878
0.13041638
0.13043368
0.13045314
0.13048102
0.13051339
0.13054979
0.13059657
0.13065279
0.13072223
0.1308187
0.13096272
0.12682954
0.10180134
0.081344207
0.064610126
0.050819372
0.040050861
0.030736759
0.023834768
0.017320047
0.013464063
0.0091984432
0.0054333375
0.0045991575
0.0022711199
0.00087553393
0.132444
0.13197105
0.13148802
0.1309163
0.130517
0.13029331
0.13023756
0.13024087
0.1302391
0.13024694
0.13026679
0.13028474
0.13029892
0.13030779
0.13031455
0.13032412
0.13033399
0.1303395
0.13034609
0.13035455
0.13036325
0.13037459
0.13038992
0.13040646
0.13042172
0.1304408
0.13046787
0.13049694
0.13053204
0.13057921
0.13063504
0.13070569
0.13080634
0.13095828
0.12446777
0.099956667
0.079525187
0.063563519
0.050161048
0.039014247
0.030538951
0.023040794
0.018440035
0.012625353
0.0096204414
0.007091192
0.0051299458
0.0022829274
0.00082707378
0.13240064
0.13189989
0.13139523
0.13082355
0.13045008
0.13026923
0.13022602
0.1302324
0.1302384
0.1302469
0.13026317
0.13027933
0.13029398
0.13030236
0.13030951
0.13031834
0.13032794
0.13033163
0.13033851
0.13034664
0.13035528
0.13036584
0.13038067
0.13039584
0.13040952
0.13042852
0.13045404
0.13047995
0.13051466
0.13056115
0.13061652
0.13068931
0.13079446
0.13095338
0.12202837
0.097533917
0.07842828
0.062120036
0.049317594
0.038578625
0.030642279
0.023057701
0.016852395
0.013036446
0.0092155972
0.0071479953
0.0031396354
0.0028172026
0.00076342413
0.13232842
0.13183404
0.13130387
0.13072855
0.13038492
0.13025316
0.13021774
0.13022419
0.13023478
0.130245
0.1302596
0.13027487
0.13028796
0.13029634
0.13030316
0.13031161
0.13032145
0.13032471
0.13033248
0.13033988
0.13034842
0.13035795
0.13037171
0.13038438
0.1303979
0.13041615
0.13043871
0.13046337
0.13049848
0.13054381
0.13059828
0.13067388
0.13078589
0.13095205
0.1194614
0.096281357
0.076982235
0.06179908
0.048569647
0.038963658
0.028533597
0.02317306
0.017686592
0.013062843
0.0097860891
0.0061894442
0.0047889355
0.0021484337
0.0009150366
0.13224827
0.13176429
0.13120125
0.13063419
0.13032486
0.13023781
0.13021473
0.13021939
0.13023215
0.13024576
0.13025865
0.13027309
0.13028451
0.13029177
0.13029813
0.13030582
0.13031483
0.13031843
0.13032513
0.13033269
0.13034183
0.13035269
0.13036239
0.13037168
0.13038575
0.13040442
0.13042352
0.13044467
0.13048034
0.13052622
0.1305824
0.13066191
0.13077791
0.13094797
0.11750058
0.09421602
0.075768519
0.060307815
0.048290778
0.036555937
0.031555072
0.022654262
0.017493862
0.012646396
0.010243208
0.0058507836
0.0073191744
0.0023786424
0.00075923774
0.13217481
0.13167871
0.13108545
0.13054579
0.13027228
0.13022322
0.13021077
0.13021533
0.13022938
0.13024559
0.13025672
0.13026924
0.13028053
0.13028861
0.13029447
0.13030142
0.13030828
0.13031244
0.13031788
0.13032607
0.13033422
0.13034597
0.13035289
0.13036015
0.13037307
0.13039143
0.13040743
0.13042719
0.13046502
0.13051069
0.13056671
0.13065011
0.13077211
0.13094785
0.11448522
0.093021883
0.074550641
0.059561821
0.046414136
0.038830732
0.02737844
0.022186057
0.016626882
0.0142006
0.0085686518
0.0072959442
0.004564628
0.0027243258
0.00068779771
0.13211737
0.13157616
0.13096803
0.1304703
0.1302324
0.13020822
0.13020785
0.13021388
0.13022846
0.13024547
0.13025606
0.13026575
0.13027606
0.13028566
0.13029166
0.1302975
0.13030235
0.13030642
0.13031234
0.13031906
0.1303301
0.13033894
0.13034355
0.13035
0.13036159
0.13037633
0.13039325
0.13041577
0.13044975
0.13049265
0.13055322
0.1306422
0.13076747
0.13094398
0.11426964
0.091017937
0.072985297
0.059138365
0.048284521
0.03620234
0.031169982
0.023574524
0.018026834
0.012753089
0.0091960743
0.0086315744
0.003955809
0.0030258709
0.0008027781
0.13206117
0.13146674
0.13085478
0.13040533
0.1302061
0.13019693
0.13020386
0.13021157
0.13022649
0.13024366
0.13025468
0.13026329
0.13027295
0.13028271
0.1302883
0.1302936
0.13029758
0.1303017
0.13030808
0.13031377
0.13032597
0.13033348
0.13033431
0.13034066
0.13035079
0.13036403
0.13037792
0.1304009
0.13043587
0.1304772
0.13054133
0.13063441
0.13076337
0.1309428
0.11005135
0.089523546
0.074442729
0.057557277
0.045275058
0.036937346
0.027524435
0.020725491
0.01767099
0.01264341
0.010841795
0.0065479431
0.0049417642
0.0033454661
0.00069943053
0.13200733
0.13135604
0.13074691
0.13035022
0.13019123
0.13018895
0.13019819
0.13020819
0.13022346
0.13024023
0.13025098
0.13026044
0.13027148
0.13028017
0.13028499
0.13029131
0.13029302
0.1302977
0.13030458
0.13031147
0.13031918
0.13032693
0.13032542
0.13033167
0.13034017
0.13035291
0.13036522
0.13038626
0.13041971
0.13046393
0.13053311
0.13062849
0.13075724
0.13094115
0.10892901
0.089770082
0.0680839
0.057145512
0.046998766
0.036680644
0.029246305
0.023944193
0.018009569
0.013375624
0.011490538
0.0076763669
0.0071426343
0.0032844423
0.000630568
0.13196804
0.13125884
0.13065639
0.13030585
0.13018311
0.13018275
0.13019301
0.13020509
0.13022098
0.13023741
0.13024827
0.13025796
0.13026839
0.13027799
0.13028305
0.13028852
0.13028828
0.13029427
0.1303013
0.13030859
0.13031423
0.13031968
0.13031714
0.13032216
0.13033068
0.13034112
0.13035309
0.1303753
0.13040434
0.13044974
0.13052625
0.13062388
0.13075113
0.1309402
0.10967417
0.085846295
0.076493469
0.058988826
0.046194318
0.035682249
0.029778736
0.022124327
0.01688774
0.013948577
0.009431879
0.0077066112
0.0067443787
0.0037960248
0.00067789975
0.13190091
0.13114991
0.13056913
0.13026835
0.13017541
0.1301769
0.13018973
0.13020314
0.13021906
0.13023502
0.13024583
0.13025677
0.13026609
0.13027411
0.13028061
0.1302868
0.1302855
0.13029327
0.13029773
0.13030359
0.13030942
0.1303116
0.13031041
0.130315
0.13032299
0.13032928
0.13034348
0.13036382
0.13038821
0.13044131
0.13052479
0.13061915
0.13074386
0.13094337
0.10409995
0.091166559
0.065355319
0.053481554
0.043493177
0.037034571
0.02730722
0.021699312
0.018136648
0.014491507
0.013072655
0.0070254532
0.0067606852
0.0051314644
0.00067126691
0.1319146
0.13110678
0.13052287
0.13025104
0.13016739
0.13017384
0.13018825
0.13020221
0.13021751
0.13023242
0.13024431
0.13025711
0.13026508
0.13027165
0.1302778
0.13028465
0.13028329
0.13029206
0.13029669
0.13029928
0.1303053
0.13030545
0.13030367
0.13030757
0.13031312
0.13031839
0.13033334
0.13035297
0.13037462
0.13042837
0.13051399
0.13060975
0.13073245
0.12667064
0.10357077
0.080103096
0.073570816
0.058656877
0.047842898
0.037442702
0.03007597
0.02550268
0.018267563
0.014082406
0.0093226893
0.0079330788
0.0083871296
0.0066697115
0.00061882654
0.0021374109
0.0086333763
0.01699997
0.022797323
0.045668693
0.046745031
0.054437767
0.066392939
0.078113631
0.091128026
0.10312386
0.11881707
0.12768998
0.11816298
0.13389401
0.13415545
0.13386574
0.13331222
0.13273911
0.13217674
0.13167948
0.13133308
0.13108824
0.13087478
0.13072155
0.13062845
0.13057031
0.13052165
0.13048534
0.13045918
0.13044405
0.13042629
0.13041032
0.13039741
0.13037851
0.13035469
0.13032936
0.13030378
0.13027655
0.1302464
0.13021508
0.1302227
0.130204
0.13020235
0.13017876
0.13019446
0.13016807
0.1301816
0.13024007
0.0019357558
0.011640886
0.020377051
0.036068666
0.046941153
0.060145224
0.069003107
0.078428446
0.090117275
0.10395638
0.11668819
0.12556844
0.13029641
0.13277675
0.13388726
0.13407704
0.13372469
0.13312885
0.13256543
0.13204879
0.13158944
0.13124817
0.13103325
0.13083739
0.13068742
0.13060275
0.1305533
0.13050603
0.13047194
0.13044685
0.13043426
0.13041863
0.13040237
0.13039019
0.13037312
0.1303514
0.13032715
0.13030201
0.13027672
0.13024767
0.13021511
0.13022321
0.13020579
0.13020282
0.13018089
0.13019443
0.13016831
0.13018242
0.13024621
0.0018708202
0.011853356
0.022036529
0.038670355
0.053148905
0.055184018
0.056285979
0.06621702
0.073978386
0.083237971
0.092116585
0.11040711
0.10441209
0.12808043
0.13372072
0.13389495
0.13357161
0.13300022
0.13243611
0.13196033
0.13152924
0.13118333
0.13097923
0.13080604
0.13066178
0.13058183
0.13053661
0.13049382
0.13046102
0.13043684
0.13042484
0.13041152
0.13039535
0.13038333
0.13036803
0.13034832
0.13032512
0.13030057
0.13027648
0.13024913
0.13021648
0.13022329
0.13020727
0.13020317
0.13018288
0.13019504
0.13016848
0.1301836
0.13024188
0.0018078927
0.011720501
0.022405754
0.039595144
0.049640107
0.065418986
0.074495744
0.083546662
0.094370401
0.10626406
0.11738648
0.1257973
0.13028113
0.13257408
0.13362308
0.13374657
0.13342099
0.13288149
0.13232111
0.13185799
0.13146832
0.13113408
0.13092219
0.13076634
0.1306363
0.13056159
0.13051953
0.13047925
0.13044805
0.13042837
0.1304159
0.13040397
0.13038839
0.13037654
0.13036295
0.13034514
0.13032299
0.13029914
0.13027596
0.13025044
0.13021872
0.13022308
0.13020839
0.13020398
0.13018462
0.13019618
0.13016913
0.13018505
0.130241
0.0017511066
0.011974582
0.024324523
0.041507181
0.057355156
0.068620092
0.06886368
0.079716776
0.078122546
0.089062157
0.098378851
0.11241244
0.10374762
0.1219017
0.13345142
0.13356875
0.13327759
0.13276469
0.13221746
0.13175916
0.13139212
0.13109034
0.13087419
0.13072435
0.13060736
0.13054176
0.13050273
0.13046462
0.13043593
0.13041818
0.13040844
0.130397
0.13038285
0.13036985
0.13035784
0.13034188
0.13032088
0.13029772
0.13027512
0.13025123
0.13022147
0.13022282
0.13020892
0.13020452
0.13018602
0.13019745
0.13016978
0.13018712
0.13024007
0.0017018881
0.011854585
0.024695765
0.041873609
0.058161383
0.071068099
0.078607197
0.090571483
0.092770021
0.10878423
0.11540234
0.11991284
0.1301235
0.13236582
0.13333663
0.13341907
0.13312959
0.1326196
0.13210151
0.13167278
0.13131733
0.13104495
0.1308381
0.13068946
0.13057863
0.13052074
0.13048696
0.13045057
0.13042475
0.13040945
0.13039974
0.13039116
0.13037825
0.13036458
0.1303525
0.13033843
0.13031873
0.13029627
0.13027407
0.13025141
0.13022424
0.1302222
0.13020902
0.13020484
0.13018746
0.13019866
0.13017073
0.13018931
0.13023918
0.0016497041
0.012110072
0.025807479
0.042502367
0.059955338
0.073364257
0.070902153
0.086960484
0.078947432
0.093155622
0.098410788
0.10427734
0.10040747
0.12701538
0.13316369
0.13324983
0.13299525
0.13249201
0.13200448
0.13161187
0.13125807
0.13099258
0.13080107
0.13066145
0.13055635
0.13049873
0.13047028
0.1304369
0.13041469
0.1304008
0.1303922
0.13038335
0.13037173
0.13036053
0.13034818
0.13033448
0.13031652
0.13029484
0.1302729
0.13025101
0.13022691
0.13022155
0.13020872
0.13020509
0.13018897
0.13019957
0.13017236
0.13019191
0.13023868
0.0016006622
0.011968027
0.025838311
0.042300922
0.060327812
0.074628371
0.073262207
0.092553398
0.083886236
0.097788197
0.10905527
0.11611996
0.11848555
0.13213217
0.13305695
0.13313475
0.13287915
0.13239004
0.13192118
0.13154274
0.13120342
0.13094798
0.13076038
0.13063178
0.13054021
0.13048055
0.1304534
0.13042332
0.13040591
0.13039249
0.13038501
0.13037644
0.13036576
0.13035502
0.13034469
0.13033097
0.13031415
0.13029346
0.13027165
0.13025063
0.13022886
0.13022089
0.13020847
0.13020504
0.13018984
0.1302001
0.13017456
0.13019441
0.1302384
0.0015522718
0.012268324
0.026658216
0.042474144
0.060352947
0.075297771
0.069954095
0.092176959
0.079935726
0.087766291
0.09211729
0.12060941
0.10892573
0.11389984
0.13291675
0.13303303
0.13275975
0.13228897
0.13185234
0.13147078
0.13114474
0.13091075
0.13072585
0.1306018
0.13052326
0.13046653
0.13043871
0.13041031
0.1303972
0.13038478
0.13037809
0.13036964
0.13035985
0.13035018
0.13033963
0.13032808
0.13031142
0.1302921
0.13027039
0.13025004
0.13022983
0.1302201
0.13020827
0.13020464
0.13019056
0.13020056
0.1301764
0.13019745
0.13023774
0.0015121107
0.012096504
0.026764115
0.042241126
0.059132786
0.075301384
0.069686098
0.090156227
0.082734367
0.094919674
0.091352258
0.12464254
0.12969853
0.12815177
0.12133242
0.13294227
0.13267638
0.13219575
0.13178292
0.13140009
0.13107823
0.1308618
0.13069294
0.1305792
0.13050484
0.13045213
0.13042529
0.13039957
0.13038734
0.13037715
0.13037154
0.13036306
0.13035415
0.13034545
0.130335
0.13032425
0.13030851
0.13029035
0.13026913
0.13024922
0.13023031
0.13021916
0.13020768
0.13020421
0.13019086
0.13020066
0.13017716
0.13020121
0.1302368
0.0014885413
0.012595995
0.028140273
0.042677272
0.054047458
0.075213383
0.065503173
0.085532419
0.07627042
0.094831487
0.077503781
0.098067598
0.12054088
0.13144647
0.12528462
0.1327783
0.13259401
0.13210782
0.13167677
0.13131921
0.13102365
0.13080912
0.13065591
0.13056253
0.13048992
0.13043878
0.13041044
0.13039103
0.13037735
0.13036937
0.13036524
0.13035699
0.13034865
0.13034096
0.13033023
0.13032042
0.13030624
0.13028831
0.1302675
0.13024821
0.13023031
0.13021816
0.13020659
0.13020397
0.13019045
0.13020046
0.13017761
0.13020541
0.13023588
0.0014357704
0.0099887835
0.023542328
0.041919505
0.051776318
0.074901467
0.071059529
0.088349655
0.075617353
0.096012855
0.080879423
0.085930867
0.09795798
0.13128691
0.1322285
0.13253506
0.13245018
0.13203724
0.13158815
0.1312334
0.1309744
0.13077001
0.13062225
0.13054302
0.13047397
0.13042868
0.1303949
0.13038129
0.13036825
0.13036193
0.13035859
0.1303515
0.13034348
0.13033668
0.13032564
0.13031631
0.13030326
0.1302868
0.13026558
0.13024711
0.13022994
0.1302175
0.13020563
0.13020356
0.13018997
0.13020035
0.13017856
0.13020957
0.13023504
0.0014008834
0.0077771546
0.029759924
0.039975309
0.044542755
0.074668126
0.06187739
0.09278116
0.077439359
0.086699248
0.083311307
0.098022694
0.084873605
0.11101134
0.1321354
0.13238304
0.13226524
0.13194122
0.13153162
0.13116379
0.13091507
0.13073316
0.13060205
0.13052395
0.13045102
0.13041731
0.1303822
0.13036952
0.13035892
0.13035567
0.13035172
0.13034613
0.1303387
0.13033255
0.13032154
0.13031215
0.13030048
0.13028413
0.13026477
0.13024507
0.13022932
0.13021729
0.13020469
0.13020292
0.13018942
0.13020014
0.13017977
0.13021378
0.13023423
0.0014277297
0.010107084
0.021715363
0.03107196
0.062154767
0.07421646
0.056256354
0.074317942
0.074063145
0.085136492
0.076546459
0.11056468
0.099906712
0.11923823
0.11614762
0.13234195
0.13217528
0.13180356
0.13146541
0.131118
0.13086333
0.13068686
0.13058406
0.13050844
0.13042915
0.13039799
0.13037146
0.13035862
0.13034886
0.13034971
0.13034535
0.13034054
0.13033416
0.13032851
0.13031807
0.13030828
0.13029752