/*--------------------------------*- C++ -*----------------------------------*\
| =========                 |                                                 |
| \\      /  F ield         | OpenFOAM: The Open Source CFD Toolbox           |
|  \\    /   O peration     | Version:  2506                                  |
|   \\  /    A nd           | Website:  www.openfoam.com                      |
|    \\/     M anipulation  |                                                 |
\*---------------------------------------------------------------------------*/
FoamFile
{
    version     2.0;
    format      ascii;
    arch        "LSB;label=32;scalar=64";
    class       volScalarField;
    location    "0.05";
    object      k;
}
// * * * * * * * * * * * * * * * * * * * * * * * * * * * * * * * * * * * * * //

dimensions      [0 2 -2 0 0 0 0];

internalField   nonuniform List<scalar> 
19257
(
11.260562
10.208246
9.6444526
9.4573631
9.4298708
9.4295366
9.4303308
9.4312493
9.4321939
9.4328902
9.4333673
9.4339808
9.4346253
9.4351734
9.4357318
9.4361818
9.4368235
9.4373168
9.43782
9.4383495
9.439053
9.4400725
9.4409169
9.4422377
9.4439178
9.4470461
9.4510719
9.4561469
9.4624792
9.4724217
9.4880681
9.5097464
9.5392635
9.5821588
9.6308683
9.687119
9.7519741
9.8244515
9.9139357
10.022211
10.14353
10.316349
10.525673
10.791812
11.153347
11.630938
12.461449
14.432245
14.256987
11.243266
10.246667
9.6813419
9.4674348
9.4306525
9.4297209
9.430434
9.4312161
9.4321921
9.4329777
9.4334193
9.4340096
9.4346277
9.4351925
9.4357557
9.4361982
9.4367852
9.4373205
9.437832
9.4383687
9.4390957
9.4400826
9.4410114
9.4422144
9.4439232
9.4467714
9.4508541
9.4558674
9.4619423
9.4716422
9.4861771
9.5063507
9.5346128
9.5755077
9.6239423
9.6774805
9.7390253
9.811945
9.8946193
9.9954741
10.123263
10.271956
10.46847
10.747115
11.082608
11.549125
12.008078
14.286042
13.855753
11.324126
10.35187
9.7502277
9.4888016
9.43255
9.4300387
9.4305674
9.4311653
9.432146
9.433038
9.4334659
9.4340105
9.4346365
9.4352247
9.4357587
9.4361817
9.4367064
9.4372936
9.4378182
9.4383694
9.4391066
9.4400002
9.4410547
9.4422165
9.4438093
9.4462417
9.4503063
9.4550616
9.4609979
9.4702749
9.4836936
9.5021294
9.5293515
9.56809
9.6131591
9.6645756
9.7243459
9.7934409
9.8754156
9.9737097
10.092434
10.244308
10.436795
10.693346
11.062105
11.468006
12.004238
14.154781
13.554147
11.36633
10.434295
9.82042
9.5163525
9.4362276
9.4304604
9.4307547
9.4311497
9.4321139
9.4330865
9.4335501
9.4340643
9.434687
9.4352662
9.4357474
9.4361636
9.4366723
9.4372881
9.4378293
9.4384035
9.4391598
9.4399806
9.4410434
9.4421915
9.443758
9.4461925
9.4498519
9.4543345
9.4603738
9.4692373
9.4817269
9.4989285
9.5240849
9.5605889
9.6047149
9.6554174
9.7127326
9.7791359
9.8587404
9.952349
10.069307
10.212929
10.393406
10.64276
10.952742
11.331974
11.841541
13.692464
13.325119
11.414901
10.524299
9.9016534
9.5544941
9.4436065
9.4310904
9.4308793
9.431115
9.4320427
9.4331181
9.4336492
9.4341277
9.4347276
9.4353073
9.4357379
9.4362063
9.4367037
9.4373084
9.4378552
9.4384402
9.4392447
9.4400204
9.4410304
9.4422806
9.4438088
9.4461164
9.4493866
9.4537039
9.4597076
9.4680384
9.4796728
9.4960266
9.5195872
9.5541813
9.5964148
9.6448545
9.7010525
9.7666685
9.8421478
9.934949
10.044314
10.185103
10.362724
10.601376
10.912163
11.267518
11.721829
13.522175
13.153159
11.457831
10.610313
9.9879417
9.6032709
9.4564569
9.4322231
9.4308357
9.4310345
9.4319448
9.4330648
9.4337074
9.4341805
9.4347626
9.4353434
9.4357729
9.4362575
9.4367465
9.4373264
9.4378452
9.4385091
9.4393501
9.4400597
9.4410699
9.4423507
9.443922
9.4459508
9.4490602
9.4533916
9.4589957
9.4670725
9.4779091
9.4931762
9.5153954
9.5474524
9.5885455
9.6361231
9.6898087
9.7530358
9.8269531
9.916042
10.025315
10.159566
10.331352
10.568281
10.864153
11.191856
11.680229
13.275986
13.008578
11.498296
10.693891
10.078278
9.6631756
9.4768827
9.4344426
9.4307697
9.4309407
9.4318255
9.432937
9.4337121
9.4342595
9.4348463
9.4353827
9.4358115
9.4363154
9.4367964
9.4373597
9.4379075
9.4386332
9.4394085
9.4401418
9.441151
9.4423404
9.4439064
9.4460609
9.4489762
9.4529967
9.4584146
9.4659533
9.4764077
9.4907097
9.5115272
9.5417261
9.581126
9.6270065
9.679974
9.7407405
9.8137096
9.8991224
10.004728
10.136784
10.305625
10.529836
10.81242
11.130422
11.556892
13.090652
12.906448
11.536853
10.772993
10.169527
9.7328816
9.5063773
9.4388032
9.4308513
9.4310199
9.4317802
9.4327757
9.4337028
9.4343704
9.4349406
9.4354405
9.4358444
9.436368
9.4368772
9.4374294
9.4380177
9.4387633
9.4394688
9.4402136
9.4411704
9.4423681
9.4439555
9.4461573
9.4489713
9.4526693
9.4578085
9.4650471
9.4749856
9.4885668
9.5079681
9.5362066
9.574205
9.6185664
9.6702357
9.7290329
9.7995661
9.8841179
9.9855139
10.113313
10.278121
10.497629
10.77193
11.078097
11.501757
12.945342
12.823779
11.572423
10.845956
10.258696
9.8096097
9.5456967
9.4468346
9.4313387
9.4312843
9.431791
9.432622
9.4336273
9.4344276
9.4350464
9.4355147
9.435933
9.4364717
9.4370224
9.4375322
9.4381312
9.4388847
9.4395562
9.4402508
9.4412768
9.4425097
9.4440265
9.4461776
9.4488518
9.4523832
9.4573197
9.4642617
9.4737217
9.4865651
9.5047968
9.5314589
9.5678997
9.6106536
9.6605899
9.71862
9.786159
9.8685647
9.9695628
10.090965
10.252826
10.471994
10.733158
11.029164
11.431849
12.787815
12.763479
11.605115
10.912987
10.343803
9.8899775
9.5942061
9.4606564
9.4328696
9.4316453
9.4319393
9.4325717
9.433598
9.4345204
9.435175
9.4356243
9.4360754
9.4365809
9.4371492
9.4376467
9.4382393
9.4389745
9.4397262
9.4403935
9.4413561
9.4425764
9.4441186
9.4462988
9.4489581
9.4522829
9.4568847
9.4634708
9.4725462
9.4847969
9.5018584
9.5267157
9.5618923
9.6034205
9.6514389
9.7082154
9.7743902
9.8540393
9.9519022
10.075304
10.226923
10.440722
10.696766
10.987478
11.386363
12.656164
12.71854
11.63366
10.973807
10.423477
9.9705839
9.6499305
9.4819932
9.4361548
9.4321535
9.4321044
9.4325088
9.4335879
9.4345976
9.4352991
9.4357687
9.4362198
9.4367034
9.4372689
9.4378011
9.438364
9.4390644
9.4398766
9.4405587
9.4415338
9.442749
9.4442148
9.4463456
9.4490353
9.4523634
9.4567354
9.4629092
9.471499
9.4831458
9.4993224
9.5226479
9.5563428
9.5966822
9.6434295
9.6981756
9.7631802
9.8409406
9.9362922
10.055522
10.209009
10.41499
10.664566
10.949944
11.33927
12.538907
12.683079
11.658262
11.02756
10.495858
10.048218
9.7097132
9.5103978
9.4418505
9.4328069
9.4322857
9.432616
9.4336456
9.4345939
9.4353101
9.4358536
9.436359
9.436866
9.4373935
9.4379365
9.4384866
9.4391422
9.4399737
9.440724
9.4416939
9.4429585
9.4443742
9.4464109
9.4490288
9.4522268
9.4564346
9.4623411
9.4705687
9.4817263
9.4970591
9.5190746
9.55133
9.590258
9.6360015
9.6891107
9.7526955
9.8287539
9.9211726
10.038624
10.187955
10.38992
10.635665
10.91719
11.302049
12.447569
12.65544
11.678755
11.074145
10.560194
10.119959
9.770108
9.5445177
9.4513133
9.4337261
9.4327967
9.4330589
9.4338515
9.4346017
9.4353074
9.435954
9.4365036
9.4370533
9.4375703
9.4380923
9.4386192
9.4392469
9.44007
9.4408986
9.4418621
9.4431362
9.4445117
9.4464879
9.4491292
9.4523287
9.4563544
9.4619493
9.4698467
9.4806323
9.4953163
9.5161605
9.547034
9.5845071
9.6290121
9.6813198
9.7426199
9.8180219
9.9094511
10.022649
10.170263
10.370651
10.609738
10.887595
11.269199
12.376372
12.634187
11.694792
11.11335
10.615209
10.183866
9.8281864
9.5823815
9.4643989
9.4356506
9.4336125
9.4337162
9.4341571
9.4347055
9.4353904
9.4361184
9.4367213
9.4372701
9.437749
9.4382365
9.4387489
9.4393623
9.4401747
9.4410711
9.4420548
9.4433262
9.4446619
9.4465157
9.4491022
9.4523111
9.456345
9.4617308
9.4692368
9.4795682
9.4936961
9.5135219
9.5428328
9.5793451
9.6224764
9.673937
9.7343675
9.8069427
9.8972496
10.010209
10.15397
10.349914
10.585636
10.86162
11.240912
12.310649
12.618672
11.705967
11.145208
10.661241
10.238904
9.8813204
9.6204177
9.4808013
9.4392434
9.4341865
9.4342207
9.434443
9.4348703
9.4355659
9.4363387
9.4369437
9.4374597
9.4378971
9.4383525
9.438861
9.4394856
9.4402941
9.4412185
9.4422175
9.4434754
9.4448145
9.4465876
9.4491108
9.4522906
9.4562661
9.4614963
9.4687133
9.4786745
9.4922786
9.5112903
9.5391479
9.5745236
9.6168874
9.6669633
9.7267496
9.7981854
9.8865646
9.9970184
10.139949
10.333347
10.565135
10.839264
11.220959
12.26822
12.608533
11.712823
11.170058
10.698351
10.284164
9.9271727
9.6558588
9.4987938
9.4437742
9.4347214
9.4345249
9.4346177
9.4350111
9.4357394
9.4365458
9.437135
9.4376003
9.4380115
9.4384635
9.4389866
9.4396301
9.4404319
9.4413496
9.4423599
9.4436136
9.4449569
9.4466565
9.4491026
9.4522508
9.4561965
9.4612962
9.468188
9.4777514
9.4908911
9.509154
9.5358354
9.5700689
9.6115852
9.6608836
9.7196044
9.7904011
9.8769124
9.9864253
10.126747
10.317098
10.548023
10.823812
11.206591
12.248521
12.603182
11.716357
11.188404
10.726743
10.319165
9.9639755
9.6864713
9.5156854
9.4483974
9.4352705
9.4346955
9.4347601
9.4351344
9.4358726
9.4366886
9.4372611
9.4377023
9.4381214
9.4385971
9.4391347
9.439776
9.4405511
9.441444
9.4424506
9.443695
9.4450394
9.4466793
9.4490288
9.452118
9.4560184
9.4610376
9.4677116
9.4769229
9.4896497
9.507259
9.5327677
9.5663312
9.6071762
9.6561186
9.7141991
9.7841537
9.8701089
9.9779399
10.117341
10.306126
10.538089
10.816643
11.199964
12.231689
12.601454
11.717798
11.200856
10.746628
10.343809
9.9906992
9.7101037
9.5294109
9.4522342
9.435717
9.434796
9.4348548
9.4352268
9.4359576
9.4367577
9.4373198
9.4377547
9.4381963
9.4387032
9.4392518
9.4398865
9.440635
9.4414826
9.4424715
9.4437105
9.4450696
9.4467008
9.4490185
9.4521035
9.4560114
9.4610146
9.4675775
9.4765922
9.4891248
9.5064962
9.5315076
9.5648936
9.6057472
9.6545382
9.7126766
9.782449
9.8680945
9.9760342
10.115144
10.304046
10.538166
10.818035
11.20265
12.228966
12.60381
11.718283
11.208011
10.758204
10.358333
10.006672
9.7242744
9.5380638
9.4550994
9.4362126
9.4348464
9.4349011
9.4352686
9.4359834
9.4367686
9.4373381
9.4377744
9.4382187
9.4387366
9.4392896
9.4399251
9.440665
9.4414884
9.4424638
9.4437789
9.4452638
9.4470115
9.4494108
9.4525918
9.4566228
9.4617675
9.4684778
9.477622
9.4903801
9.5081503
9.5336723
9.5672546
9.6082831
9.6573729
9.7158888
9.7862459
9.8725448
9.9813163
10.121931
10.313298
10.546138
10.823655
11.208813
12.255444
12.61135
11.718417
11.210284
10.761779
10.362723
10.011427
9.7284293
9.5405209
9.4558446
9.4362991
9.4348196
9.4348709
9.435236
9.435942
9.4367219
9.4372985
9.4377389
9.4381815
9.4387063
9.4392606
9.4399018
9.4406375
9.4415034
9.4422449
9.4441413
9.4457292
9.4474729
9.4498377
9.4530233
9.4571218
9.4623866
9.4692889
9.4786742
9.4917981
9.510154
9.5364614
9.5703712
9.6117086
9.6611534
9.7201635
9.7911732
9.8783576
9.9884161
10.130742
10.324918
10.557056
10.833366
11.221559
12.292145
12.617171
11.718283
11.20801
10.758199
10.358344
10.006677
9.7242239
9.5379978
9.4551963
9.436367
9.4350502
9.4351097
9.4354759
9.436192
9.4369797
9.4375663
9.4380261
9.4384957
9.4390455
9.4396034
9.4402504
9.4409954
9.4418038
9.4428247
9.4440831
9.4454883
9.4471661
9.4494528
9.4525406
9.4565215
9.4616125
9.4682906
9.4773358
9.4900029
9.507788
9.533336
9.5669213
9.6079473
9.6569554
9.7153783
9.7856316
9.8718755
9.9806571
10.121304
10.312617
10.54529
10.822415
11.206954
12.253899
12.610084
11.717798
11.200855
10.746622
10.343811
9.9907
9.7100761
9.5293552
9.4522795
9.4357446
9.4348477
9.4349073
9.4352889
9.4360288
9.4368266
9.4374071
9.4378563
9.4383157
9.4388583
9.439399
9.4400496
9.4407894
9.4415897
9.4426096
9.4438896
9.4453008
9.4469732
9.4492082
9.4522184
9.4561099
9.46107
9.4675976
9.47643
9.4888016
9.506219
9.5313179
9.5647097
9.6054906
9.6541052
9.711993
9.78161
9.8670484
9.9749887
10.114005
10.302956
10.536645
10.815447
11.201154
12.223586
12.600597
11.716357
11.188402
10.726736
10.319159
9.9639713
9.6864544
9.5156601
9.4484299
9.4352487
9.4346776
9.434745
9.4351263
9.4358797
9.4366924
9.437284
9.4377207
9.4381459
9.4386542
9.4391763
9.4398439
9.4405865
9.4413912
9.442429
9.4437266
9.4451729
9.4468861
9.4491455
9.4522021
9.4561665
9.4612147
9.4678734
9.476876
9.4894658
9.5072188
9.5329009
9.5664594
9.6072685
9.6558054
9.7136696
9.7831762
9.8690051
9.9766651
10.116497
10.304744
10.53559
10.814703
11.196331
12.234497
12.598795
11.712823
11.170053
10.698342
10.284153
9.9271621
9.6558512
9.4987797
9.4437737
9.4346839
9.4344977
9.4345862
9.4349762
9.4357243
9.4365282
9.4371318
9.4375772
9.4380057
9.4384865
9.4389864
9.4396556
9.4403881
9.4411997
9.44226
9.4435688
9.445041
9.4467885
9.4490884
9.45222
9.4562842
9.4614665
9.4683587
9.477702
9.4907775
9.50926
9.5361603
9.570524
9.6118248
9.6608387
9.7190987
9.789583
9.8757149
9.9856963
10.125156
10.315869
10.546821
10.820639
11.206674
12.245317
12.600908
11.705967
11.1452
10.661228
10.238892
9.8813111
9.6204169
9.4807748
9.4392114
9.4341688
9.4342007
9.4344041
9.4348318
9.4355456
9.4363031
9.4369203
9.4374134
9.4378936
9.4383533
9.4388237
9.4394658
9.4401742
9.4409925
9.4420805
9.4434034
9.4448949
9.4466603
9.4490025
9.4522011
9.4563433
9.4617115
9.4688893
9.4786091
9.4921906
9.5114602
9.5397195
9.5751288
9.617243
9.6669976
9.7262697
9.7972024
9.8859076
9.9955022
10.140021
10.332112
10.561859
10.835978
11.217109
12.272292
12.606904
11.69479
11.113338
10.615192
10.183854
9.828185
9.5823735
9.4643446
9.4356256
9.4336105
9.4337084
9.4341204
9.4346677
9.4353673
9.4360743
9.4366925
9.4372292
9.4377673
9.4382206
9.4386912
9.4393137
9.4400008
9.4408135
9.441906
9.4432237
9.4447283
9.4465065
9.4489098
9.4521643
9.4563051
9.461781
9.469217
9.479347
9.4935357
9.5137801
9.5434969
9.5799505
9.6229736
9.6737869
9.7336142
9.8063444
9.8954347
10.009187
10.152504
10.349727
10.583194
10.856505
11.237355
12.335525
12.61904
11.678751
11.074126
10.560176
10.11995
9.7700867
9.5444802
9.4512567
9.4337312
9.4327948
9.4330411
9.4338176
9.4345709
9.435287
9.43592
9.4364874
9.4370426
9.4376092
9.4380666
9.4385637
9.4391721
9.4398238
9.4406148
9.4417064
9.4430276
9.4445446
9.4463738
9.4488689
9.4521522
9.4563853
9.4621235
9.4698553
9.4803574
9.4951781
9.5164906
9.547691
9.5852728
9.6293578
9.6810036
9.7422776
9.8166072
9.9079463
10.022895
10.169447
10.367901
10.605461
10.880557
11.265947
12.385692
12.635489
11.658258
11.02754
10.495839
10.04822
9.7096827
9.5103085
9.4418543
9.4328262
9.4322757
9.4325825
9.4336027
9.4345529
9.4352623
9.4358255
9.4363236
9.4368619
9.4374332
9.4379103
9.438426
9.4390068
9.4396341
9.4404602
9.4415782
9.4429065
9.4444068
9.4462629
9.4488187
9.452153
9.4565133
9.4624357
9.4704256
9.4814239
9.4970452
9.5196327
9.5522345
9.5909959
9.6361451
9.6890525
9.7519122
9.8274884
9.9211812
10.037196
10.188973
10.386105
10.629526
10.911561
11.301373
12.466107
12.657282
11.633655
10.973786
10.42346
9.9705999
9.649874
9.4818571
9.4361719
9.4322518
9.4320714
9.4324678
9.4335323
9.4345289
9.4352391
9.4357586
9.4361906
9.43671
9.4372918
9.4377503
9.4382574
9.4388466
9.4394958
9.4403434
9.4414831
9.4427966
9.4442473
9.4461561
9.4487969
9.452132
9.4566354
9.4628999
9.4713034
9.4828916
9.4994694
9.523467
9.5572186
9.5971289
9.6436952
9.697902
9.7622565
9.8400904
9.9354849
10.05501
10.204372
10.413151
10.660815
10.945423
11.330195
12.566365
12.685198
11.605109
10.912966
10.343806
9.8899893
9.5941003
9.4605397
9.4329371
9.4316956
9.4319503
9.4325287
9.43352
9.4344286
9.4351394
9.435634
9.4360722
9.4365981
9.4371732
9.4375739
9.4381084
9.4386992
9.4393231
9.4401904
9.4413469
9.4426461
9.4441307
9.4460994
9.4487335
9.4521261
9.456892
9.4634398
9.4722533
9.4845062
9.5020468
9.5274733
9.5625796
9.6039043
9.6517338
9.7076548
9.7736536
9.8535955
9.9503955
10.073138
10.229382
10.439733
10.693601
10.980896
11.398706
12.682991
12.720546
11.57242
10.845944
10.258696
9.8096136
9.5455588
9.4468471
9.4313456
9.4312457
9.4317891
9.4325859
9.4335205
9.4343503
9.4350225
9.4354926
9.4359491
9.4364715
9.4370291
9.4374209
9.4379802
9.4385342
9.4391937
9.4401003
9.4412567
9.4425281
9.4440325
9.4460124
9.4486883
9.4523276
9.457361
9.4641229
9.4732727
9.4862968
9.5052329
9.5323734
9.5685466
9.610977
9.6602897
9.7176211
9.785684
9.8670562
9.9697249
10.092665
10.252038
10.46638
10.728446
11.024032
11.443094
12.831311
12.768838
11.53685
10.772971
10.169509
9.7328635
9.5062365
9.4388786
9.430852
9.430971
9.4317575
9.432738
9.4335878
9.4343322
9.4349469
9.4353996
9.4358607
9.4363536
9.4368889
9.4373089
9.437822
9.4383628
9.4392079
9.4401712
9.4411844
9.4423449
9.443921
9.4460918
9.4488246
9.4523941
9.4576396
9.4648438
9.4746699
9.488592
9.5085448
9.537108
9.5747512
9.6186415
9.6694536
9.7286548
9.7984172
9.88393
9.9843278
10.112451
10.275474
10.497201
10.764573
11.073124
11.451051
13.007798
12.836037
11.498302
10.693875
10.078257
9.6631427
9.4767579
9.4345354
9.4307309
9.4308939
9.4317874
9.4328621
9.4336016
9.4342659
9.4348591
9.4353532
9.4358003
9.4362785
9.4367657
9.4372057
9.437667
9.4383204
9.4391734
9.440179
9.4410768
9.4422117
9.4438495
9.4460354
9.4487688
9.4525843
9.4583196
9.465881
9.4760763
9.4908849
9.5123156
9.5428652
9.5816207
9.62675
9.6792491
9.7402943
9.8129762
9.8985438
10.006552
10.137236
10.305972
10.522574
10.806687
11.125537
11.531372
13.218334
12.920177
11.457844
10.610301
9.9879255
9.6032219
9.4563526
9.4323183
9.4307787
9.430993
9.4318901
9.4329594
9.4336254
9.4342018
9.4347728
9.4353233
9.4357524
9.436216
9.4366524
9.4370891
9.4375828
9.4382698
9.4392061
9.4401659
9.4409536
9.4421283
9.4437603
9.4459158
9.4489911
9.4532778
9.4589094
9.4666374
9.4777399
9.4937085
9.5163699
9.5483074
9.5884057
9.6354625
9.6898147
9.7524821
9.8263403
9.9164627
10.02318
10.157583
10.330205
10.560719
10.856551
11.173886
11.678324
13.405885
13.035649
11.414908
10.524281
9.9016366
9.5544304
9.4435195
9.4311848
9.4307869
9.4310893
9.4319694
9.4329679
9.4336019
9.4341347
9.4347187
9.4353
9.4357163
9.4361676
9.4365756
9.4370117
9.4375893
9.4382425
9.4392492
9.4401921
9.4408616
9.4420334
9.4437124
9.4460667
9.4491951
9.453571
9.4596112
9.4677478
9.4794756
9.4965616
9.5207587
9.5545275
9.5961549
9.644772
9.7000933
9.7655262
9.8426963
9.9343985
10.046839
10.18822
10.359559
10.604564
10.894011
11.244619
11.812137
13.655566
13.186284
11.366341
10.434276
9.8204041
9.5162853
9.4361746
9.4305289
9.4306676
9.4311401
9.4320147
9.4329276
9.4335391
9.434071
9.4346872
9.435274
9.4357048
9.4361796
9.4364922
9.4369528
9.4376136
9.4382996
9.4392128
9.4401398
9.440812
9.4419474
9.4436898
9.4463166
9.4495306
9.4537884
9.4601821
9.4690364
9.481676
9.4998392
9.5251258
9.5609771
9.6043838
9.6544036
9.713153
9.7799816
9.8587661
9.9537418
10.06893
10.211304
10.391906
10.645934
10.935383
11.323424
11.800187
13.878677
13.371871
11.324135
10.351854
9.7502106
9.4887465
9.4325203
9.4300903
9.4304808
9.4311492
9.4320169
9.4328774
9.4334827
9.4340436
9.4346396
9.43524
9.4357039
9.4361867
9.436448
9.436993
9.4376278
9.4383552
9.4392148
9.4400833
9.4407298
9.4418496
9.4437768
9.4464935
9.4497847
9.4543967
9.4607109
9.4700385
9.4841665
9.5033517
9.5297088
9.5676879
9.6126344
9.6652396
9.7235933
9.7933576
9.8758341
9.9749236
10.090749
10.239727
10.432985
10.685803
11.032272
11.425142
11.889566
14.08026
13.605629
11.243276
10.24664
9.6813064
9.4673835
9.4306167
9.4297553
9.4303618
9.4311848
9.4320316
9.4328307
9.4334397
9.4340573
9.434645
9.4351784
9.4356879
9.436215
9.4364651
9.4370887
9.4376529
9.4383441
9.4391795
9.4399759
9.4407579
9.441928
9.4440601
9.4466566
9.4502705
9.4550333
9.4612844
9.4716246
9.4874624
9.5072815
9.5343181
9.5752972
9.6232015
9.676234
9.7398433
9.8130972
9.8985318
9.9979742
10.123434
10.283109
10.480112
10.738268
11.081743
11.573923
12.144211
14.373991
13.91034
11.260587
10.208227
9.6444188
9.4573052
9.4298455
9.4295609
9.4302867
9.4312052
9.4320264
9.4327693
9.4333953
9.4340694
9.4346354
9.4351871
9.4356541
9.4361665
9.4364952
9.4371532
9.4377348
9.4383363
9.4392012
9.4399747
9.4407133
9.4419532
9.4440803
9.4467708
9.4506609
9.455666
9.4619181
9.4725595
9.4892814
9.5102638
9.5381332
9.5822262
9.632146
9.6887599
9.7514236
9.8268048
9.913617
10.017853
10.147244
10.309231
10.519346
10.793312
11.185905
11.68062
12.159862
14.594199
14.285192
36.540958
23.314178
14.209987
13.082452
13.020813
12.934325
12.783107
12.545946
12.287237
12.007821
11.714597
11.406087
11.118513
10.878066
10.633973
10.401699
10.195509
10.017553
9.8767498
9.7577203
9.6632652
9.599904
9.5570697
9.5224363
9.4984934
9.483331
9.4736622
9.4667222
9.4611557
9.4570343
9.4544703
9.4517699
9.449677
9.4480305
9.4459287
9.4437866
9.4415871
9.4393979
9.4373295
9.4353294
9.4337251
9.4343392
9.4336095
9.4330891
9.4321047
9.4324268
9.4316781
9.4320679
9.4889236
36.447993
20.387638
13.823256
12.946059
13.061839
12.877921
12.713202
12.446816
12.175551
11.889334
11.601108
11.29923
11.019233
10.76741
10.555268
10.34888
10.154894
9.9822966
9.845998
9.7358336
9.6486824
9.5883835
9.5506732
9.5187556
9.4951904
9.481121
9.4725102
9.4647037
9.4593117
9.4559319
9.4536721
9.4511604
9.4490318
9.4475241
9.4455627
9.4435184
9.4415045
9.4393865
9.4374305
9.4354548
9.4337449
9.4344132
9.4337525
9.4331744
9.4322597
9.4324586
9.4317006
9.4321546
9.4912031
36.707011
19.066268
13.555931
13.036895
13.080144
12.861983
12.701036
12.397339
12.10927
11.805986
11.518515
11.223469
10.967132
10.729755
10.509594
10.309029
10.125545
9.9604166
9.8251666
9.7229556
9.6415575
9.5814077
9.5453674
9.515934
9.4929076
9.4794155
9.4710923
9.4638759
9.4586422
9.4544054
9.4527326
9.4505764
9.4484709
9.4470275
9.445248
9.443279
9.4414188
9.439383
9.4375162
9.4355996
9.4338367
9.4344528
9.4338719
9.4332512
9.4324045
9.4325083
9.4317189
9.4321943
9.489628
36.54998
19.164313
13.733393
13.02075
13.095203
12.773868
12.601514
12.304475
12.02358
11.705642
11.419308
11.134513
10.892657
10.670206
10.476426
10.279078
10.100167
9.9428775
9.8089749
9.7096109
9.6342226
9.5757611
9.5389869
9.5118384
9.490435
9.4776489
9.4697201
9.4626518
9.4575141
9.4538885
9.4511728
9.4498724
9.4478684
9.4465057
9.4449483
9.4430623
9.4413123
9.4393758
9.4375805
9.435753
9.4339802
9.4344762
9.4339674
9.4333445
9.4325534
9.4326007
9.4317789
9.4323029
9.489472
36.289076
18.412234
13.656024
13.062039
13.060799
12.707505
12.538538
12.231029
11.961768
11.628276
11.344587
11.068043
10.848587
10.628794
10.436623
10.248857
10.078178
9.9262002
9.7943248
9.6964997
9.6249815
9.5708872
9.5337117
9.5078882
9.4879939
9.4760054
9.4683678
9.4615584
9.4565787
9.4530458
9.45067
9.4485526
9.4466523
9.4458915
9.4446294
9.4428644
9.4411842
9.4393598
9.4376211
9.4358864
9.4341671
9.4344891
9.434027
9.4334332
9.4326894
9.4327042
9.4318434
9.4323957
9.4893468
36.059418
18.619251
13.796966
13.048873
13.068851
12.646539
12.46049
12.140089
11.887652
11.558474
11.27884
11.008586
10.792448
10.572202
10.407077
10.22101
10.05277
9.9041067
9.7783553
9.6858268
9.6166062
9.5663987
9.5299466
9.5044878
9.4855245
9.4742551
9.4670437
9.4604227
9.4556864
9.452362
9.4498969
9.4482078
9.4464224
9.4446514
9.444201
9.4426672
9.4410313
9.4393339
9.4376423
9.4359997
9.434376
9.4344675
9.4340611
9.4335095
9.4328203
9.4328108
9.431932
9.4325245
9.4892223
35.446395
18.058258
13.756238
13.068095
13.022215
12.595278
12.406116
12.053405
11.824406
11.515783
11.236643
10.956046
10.755944
10.537589
10.366577
10.186942
10.028773
9.8853082
9.7663572
9.6793364
9.6098373
9.5608693
9.5263123
9.5016201
9.4834819
9.4724623
9.4657639
9.4592635
9.4549003
9.4517033
9.4493219
9.4475935
9.4459725
9.44441
9.4430313
9.4423914
9.4408581
9.4392985
9.4376497
9.4360893
9.4345803
9.4344241
9.434072
9.4335708
9.4329429
9.4329171
9.4320548
9.4326574
9.4891012
35.120421
18.282827
13.833091
13.068087
13.005579
12.55702
12.342907
11.968709
11.74689
11.473734
11.201235
10.899086
10.695219
10.494963
10.34205
10.163469
10.007732
9.8696512
9.7554861
9.6716337
9.6037502
9.556017
9.5225625
9.4991541
9.4822414
9.4709942
9.4645524
9.4581951
9.4542407
9.4510968
9.4488166
9.4470838
9.4455696
9.4439864
9.4428403
9.4412914
9.4406629
9.4392458
9.4376513
9.4361615
9.4347669
9.4343637
9.4340651
9.4336118
9.4330521
9.433011
9.4321991
9.4328044
9.4889775
34.462255
17.640503
13.801954
13.101865
12.956147
12.500965
12.278827
11.897439
11.670672
11.423689
11.17087
10.855162
10.643596
10.464605
10.315911
10.142694
9.9872102
9.8550168
9.7465163
9.663341
9.5979665
9.5522717
9.5189255
9.4966193
9.481252
9.4699007
9.4633627
9.4572323
9.4536
9.4505091
9.4483527
9.4465864
9.4451464
9.4436431
9.442441
9.4411853
9.4404015
9.4391583
9.4376481
9.4362129
9.4349304
9.4342905
9.4340433
9.433631
9.4331391
9.433094
9.4323321
9.4329744
9.4888313
34.314734
17.753837
13.883034
13.113611
12.939293
12.451178
12.217552
11.841675
11.598997
11.353595
11.125578
10.827568
10.604088
10.42411
10.28326
10.125503
9.9727379
9.8422341
9.7377019
9.653938
9.5906643
9.5477249
9.5154628
9.4943462
9.4800623
9.4690331
9.4621855
9.4564515
9.4528885
9.4499431
9.4479119
9.4461152
9.4447297
9.4433081
9.4420718
9.4409755
9.4393101
9.4389713
9.4376369
9.4362412
9.435056
9.4342348
9.4339854
9.4336361
9.4331938
9.4331658
9.4324208
9.4331766
9.4886566
33.58908
16.877201
13.872358
13.175673
12.916081
12.405918
12.157461
11.78739
11.535487
11.287096
11.06635
10.811878
10.588703
10.392107
10.237094
10.098151
9.9577615
9.8284927
9.7236638
9.6437573
9.5840397
9.5423606
9.5121297
9.4928829
9.4787631
9.4683101
9.4609632
9.455815
9.4521205
9.4493864
9.4474649
9.4456712
9.4443212
9.4429929
9.4416885
9.4407443
9.4392205
9.4378468
9.4375374
9.4362507
9.4351455
9.4342105
9.4338761
9.4336385
9.4332246
9.4332205
9.4324952
9.4333943
9.4884709
33.583218
17.00352
13.949728
13.221908
12.906376
12.377074
12.102152
11.730028
11.468706
11.226185
10.993252
10.769765
10.573468
10.361769
10.194301
10.059462
9.9354335
9.816799
9.7108299
9.6336863
9.5786734
9.5378868
9.508934
9.4914575
9.477197
9.4676033
9.4596942
9.4550887
9.4513297
9.4488535
9.4469786
9.4452682
9.443924
9.4427001
9.4413315
9.4404573
9.439072
9.4377501
9.4364271
9.4362512
9.4351999
9.4342147
9.4337708
9.4336267
9.4332382
9.433261
9.4325813
9.4336079
9.4882836
32.695617
15.669086
13.867194
13.245289
12.898123
12.341024
12.052754
11.668053
11.400419
11.170607
10.931446
10.712617
10.534602
10.334144
10.174928
10.034251
9.9091883
9.8034777
9.7020299
9.6249335
9.5724766
9.5340569
9.5069084
9.4899553
9.4750172
9.4665715
9.4586768
9.4541446
9.4504981
9.4483891
9.4464553
9.4448938
9.4435513
9.4424254
9.4410312
9.4401314
9.4389537
9.4375498
9.4363875
9.4351212
9.4352224
9.4342775
9.433692
9.4335718
9.4332344
9.4332914
9.4326709
9.4338112
9.488096
33.181418
15.784891
13.91586
13.207945
12.861792
12.308594
11.996577
11.609095
11.342685
11.11598
10.881702
10.668632
10.481912
10.293956
10.168365
10.024874
9.8958907
9.7847953
9.6939021
9.6187821
9.5666935
9.5293398
9.5054522
9.4885069
9.4729781
9.4647072
9.4577673
9.4532648
9.449629
9.44792
9.4459428
9.4445137
9.4432167
9.4421596
9.4407936
9.4398034
9.4388284
9.4373782
9.4363187
9.4351044
9.4341086
9.4343177
9.4336511
9.4334606
9.4332088
9.433306
9.4327455
9.4339955
9.4879031
31.706936
14.562864
13.809273
13.163934
12.827654
12.277576
11.936365
11.54111
11.291598
11.065086
10.830758
10.637316
10.44302
10.26563
10.143406
10.002862
9.8950867
9.7708343
9.6802187
9.6111274
9.5616948
9.5252732
9.5032326
9.4860255
9.4715716
9.4627469
9.4566841
9.4526137
9.448913
9.4473483
9.4454774
9.4441065
9.4429231
9.441902
9.4406035
9.4395125
9.438674
9.4372469
9.4362109
9.4351098
9.4340918
9.4332436
9.4336367
9.4333382
9.4331367
9.4333122
9.4327769
9.4341529
9.4877059
30.914875
14.691882
13.915251
13.08651
12.790378
12.261169
11.898703
11.480367
11.228749
11.020097
10.777436
10.600682
10.405517
10.247698
10.10879
9.9726853
9.8742241
9.7621618
9.6672659
9.5995765
9.5555613
9.5230065
9.5009882
9.4825117
9.4702377
9.4615782
9.4555484
9.4520117
9.4484977
9.446742
9.4450406
9.4436929
9.4426633
9.4416652
9.4404403
9.4392789
9.4384708
9.4371555
9.4360956
9.4350983
9.434097
9.4332841
9.4325618
9.4332067
9.4329772
9.4333018
9.4327628
9.434294
9.4874933
29.711066
14.769084
13.870421
13.046408
12.725068
12.250341
11.859377
11.442787
11.156191
10.971215
10.72595
10.564472
10.365611
10.220962
10.087643
9.9593482
9.8416667
9.7444065
9.6578111
9.5906076
9.5480712
9.5215717
9.4989324
9.4797619
9.4685829
9.460911
9.4547379
9.4513083
9.4482387
9.4463187
9.444638
9.4433049
9.4424163
9.4414534
9.4402838
9.4391003
9.4382222
9.4370893
9.4359872
9.4350765
9.4340926
9.4333288
9.4325523
9.4321777
9.4327061
9.4332407
9.4327158
9.4344494
9.4872469
28.397697
14.954449
13.934635
13.04505
12.653147
12.232463
11.770231
11.418167
11.100985
10.925115
10.674719
10.530558
10.33374
10.18585
10.059684
9.9536706
9.8301362
9.7248471
9.648143
9.5860238
9.5429756
9.5198793
9.4966889
9.4782099
9.4667558
9.4603319
9.4541894
9.4505913
9.4479135
9.4460978
9.4443135
9.4429721
9.4421438
9.4412501
9.4401179
9.4389588
9.4379644
9.4370347
9.4358999
9.4350358
9.4340882
9.4333533
9.4326176
9.4321558
9.431649
9.4330385
9.4326512
9.434648
9.4869552
27.184843
14.991498
13.944584
13.075093
12.623563
12.214796
11.690827
11.384572
11.053714
10.884343
10.621879
10.497324
10.302056
10.160198
10.027245
9.9268322
9.8224108
9.719347
9.6394903
9.583456
9.540928
9.5168358
9.4945899
9.4774452
9.4649013
9.4594837
9.453586
9.4498333
9.4473981
9.44593
9.4440364
9.442742
9.441811
9.4410095
9.4399352
9.4388315
9.4377383
9.4369657
9.4358405
9.4349699
9.4340791
9.4333705
9.4326593
9.4321641
9.4315768
9.431925
9.4324988
9.434877
9.4866325
26.39791
15.607562
13.926011
13.00538
12.599912
12.199906
11.643799
11.360812
11.009574
10.845272
10.568142
10.46103
10.263319
10.134351
10.011172
9.906592
9.7984628
9.7123606
9.6339594
9.5808039
9.5401012
9.5131851
9.4923266
9.4768107
9.4634187
9.4578408
9.4527426
9.4488287
9.4466923
9.4456257
9.443706
9.4425949
9.4414699
9.4406982
9.4397465
9.4387006
9.4375627
9.4368519
9.4357969
9.4348912
9.4340487
9.4333784
9.4326689
9.4322431
9.4314814
9.4318557
9.4313055
9.4350268
9.4861534
25.313331
15.523812
13.888176
12.924757
12.509608
12.127109
11.589158
11.343207
10.980407
10.806978
10.531516
10.413048
10.226868
10.099655
9.9930271
9.8938035
9.7858336
9.6949933
9.624157
9.5731829
9.5373205
9.5099324
9.4903347
9.4747995
9.4625951
9.4559461
9.4517432
9.4477722
9.4458005
9.4450082
9.4432248
9.4424313
9.4412219
9.4403408
9.4395173
9.4385519
9.4374356
9.4367055
9.4357464
9.4348251
9.4340228
9.4333805
9.4326627
9.4323233
9.4314581
9.4316634
9.4312423
9.4340575
9.485085
24.589594