/*--------------------------------*- C++ -*----------------------------------*\
| =========                 |                                                 |
| \\      /  F ield         | OpenFOAM: The Open Source CFD Toolbox           |
|  \\    /   O peration     | Version:  2506                                  |
|   \\  /    A nd           | Website:  www.openfoam.com                      |
|    \\/     M anipulation  |                                                 |
\*---------------------------------------------------------------------------*/
FoamFile
{
    version     2.0;
    format      ascii;
    arch        "LSB;label=32;scalar=64";
    class       volScalarField;
    location    "0.05";
    object      p;
}
// * * * * * * * * * * * * * * * * * * * * * * * * * * * * * * * * * * * * * //

dimensions      [1 -1 -2 0 0 0 0];

internalField   nonuniform List<scalar> 
19257
(
46991.951
47018.454
47034.24
47035.223
47034.577
47039.548
47044.85
47048.195
47053.94
47058.181
47059.929
47062.918
47065.832
47067.54
47069.352
47069.717
47071.848
47072.2
47072.002
47070.908
47070.388
47070.36
47068.141
47066.659
47064.833
47061.85
47057.514
47055.92
47053.211
47050.052
47048.172
47044.851
47042.678
47043.107
47042.113
47040.095
47037.152
47037.061
47038.292
47037.471
47032.053
47030.715
47024.264
46999.57
46973.573
46937.098
46629.653
46552.232
46005.876
46992.673
47015.428
47031.44
47034.952
47036.798
47040.466
47045.679
47048.504
47054.552
47059.527
47060.851
47063.609
47066.532
47068.723
47070.595
47070.822
47072.651
47073.705
47073.62
47072.813
47072.783
47073.001
47071.525
47070.016
47069.255
47067.044
47064.084
47062.56
47061.482
47059.35
47059.07
47057.84
47057.413
47060.177
47062.275
47064.669
47066.329
47068.473
47073.547
47082.098
47087.263
47092.343
47093.893
47096.711
47095.739
47079.167
46878.286
46745.62
46098.459
46993.227
47015.245
47029.681
47034.684
47038.342
47041.825
47046.782
47049.201
47055.249
47060.926
47061.925
47064.355
47067.587
47070.034
47071.634
47071.764
47073.5
47075.112
47075.431
47074.925
47075.182
47075.576
47074.981
47073.448
47073.453
47072.252
47070.957
47069.341
47069.599
47068.687
47069.562
47070.433
47072.17
47076.67
47081.493
47088.004
47094.813
47100.263
47109.029
47123.552
47136.033
47152.367
47166.899
47183.541
47201.972
47190.87
47115.439
46967.74
46179.324
46994.846
47017.551
47029.434
47035.888
47039.506
47042.766
47048.213
47050.385
47056.114
47062.253
47063.503
47065.644
47068.902
47071.264
47072.542
47073.049
47074.667
47076.723
47077.473
47077.225
47077.823
47078.47
47078.353
47077.192
47077.711
47078.034
47077.746
47076.807
47077.358
47078.366
47080.145
47082.501
47086.382
47092.77
47100.051
47110.022
47121.635
47132.146
47144.711
47160.546
47181.57
47205.336
47231.809
47258.803
47283.379
47296.133
47240.623
47152.867
46515.585
46997.974
47022.273
47031.503
47037.701
47040.417
47044.03
47049.815
47051.993
47057.416
47063.563
47065.231
47066.86
47070.023
47072.666
47073.747
47074.854
47076.234
47078.623
47079.46
47079.86
47080.873
47081.425
47081.921
47081.713
47082.469
47083.938
47084.53
47084.624
47085.196
47088.128
47090.921
47094.129
47099.995
47108.634
47118.093
47130.462
47145.947
47161.465
47178.073
47198.588
47224.373
47257.719
47297.747
47339.115
47383.937
47416.701
47410.59
47345.021
46800.075
47003.416
47027.891
47034.2
47039.752
47041.562
47045.92
47051.201
47053.48
47058.457
47064.132
47066.42
47067.97
47071.182
47074.148
47075.226
47076.7
47077.87
47080.38
47081.482
47082.721
47084.181
47084.485
47086.038
47086.429
47087.359
47089.461
47091.75
47092.976
47093.875
47097.741
47102.045
47106.019
47113.189
47123.977
47135.917
47150.566
47168.846
47188.942
47210.59
47236.577
47266.727
47306.135
47355.616
47409.871
47462.397
47519.084
47559.609
47531.139
47108.777
47009.966
47032.779
47038.25
47041.742
47043.161
47048.552
47052.38
47054.661
47059.261
47064.179
47067.205
47069.597
47072.996
47075.673
47076.623
47078.486
47079.747
47082.041
47083.863
47086.225
47087.543
47087.778
47089.806
47090.847
47092.402
47095.814
47099.368
47101.168
47102.804
47107.554
47113.487
47118.443
47126.278
47138.839
47153.406
47169.824
47190.451
47214.103
47240.514
47271.507
47306.053
47350.039
47407.056
47475.218
47549.02
47629.675
47695.291
47706.755
47438.887
47020.816
47033.298
47042.483
47044.335
47045.579
47051.381
47053.608
47056.665
47060.659
47064.236
47068.193
47071.657
47074.698
47077.147
47078.127
47080.236
47082.042
47084.11
47086.52
47089.762
47090.886
47091.41
47093.471
47095.513
47097.684
47102.322
47106.603
47109.332
47112.115
47117.856
47125.179
47131.317
47139.583
47153.311
47170.295
47188.732
47211.676
47237.54
47268.069
47304.192
47344.061
47392.684
47456.826
47537.594
47626.501
47721.197
47825.847
47872.785
47740.258
47034.267
47030.385
47044.655
47046.635
47048.486
47053.65
47053.649
47058.439
47061.86
47064.301
47068.759
47073.18
47076.627
47078.909
47080.314
47082.622
47084.941
47086.616
47089.047
47092.738
47094.652
47095.108
47097.496
47100.203
47102.946
47108.546
47113.671
47117.365
47121.402
47128.305
47136.855
47144.421
47153.146
47167.607
47186.612
47207.21
47232.293
47260.475
47293.93
47334.25
47379.724
47432.176
47501.888
47589.461
47693.4
47810.261
47934.691
48036.103
48038.907
47045.149
47029.353
47046.312
47048.739
47051.542
47055.148
47054.836
47060.383
47063.074
47065.165
47070.081
47075.4
47079.127
47081.011
47083.008
47085.137
47087.635
47089.263
47091.635
47095.202
47098.365
47099.056
47101.627
47104.869
47108.281
47114.638
47120.761
47125.489
47130.429
47138.373
47148.28
47157.405
47166.842
47181.711
47202.277
47225.1
47252.348
47283.086
47318.118
47361.956
47412.165
47468.799
47542.725
47639.681
47758.757
47892.221
48042.868
48192.437
48297.494
47046.943
47034.023
47052.522
47051.918
47054.157
47055.893
47056.728
47061.614
47062.8
47065.395
47071.723
47077.519
47081.534
47083.461
47085.423
47087.665
47090.188
47092.252
47094.486
47097.717
47101.679
47103.039
47105.949
47109.944
47113.739
47120.524
47127.786
47133.657
47139.321
47147.906
47159.069
47169.856
47180.279
47195.445
47217.184
47242.143
47271.509
47305.024
47341.659
47387.606
47442.233
47503.421
47581.053
47686.678
47813.215
47963.812
48133.253
48333.336
48537.144
47044.007
47038.902
47060.239
47055.137
47053.551
47053.009
47057.513
47062.319
47062.631
47066.275
47073.546
47078.985
47082.886
47085.504
47087.77
47090.413
47092.933
47095.237
47097.371
47100.331
47104.627
47107.142
47110.361
47115.054
47118.875
47125.853
47134.297
47141.495
47147.968
47156.873
47168.918
47181.384
47193.089
47208.563
47231.096
47258.058
47289.554
47325.711
47364.655
47411.695
47469.472
47535.545
47617.224
47726.111
47863.438
48028.887
48222.458
48469.143
48749.391
47037.518
47044.588
47070.212
47056.602
47049.726
47048.633
47057.747
47062.813
47064.39
47069.555
47076.34
47080.722
47084.407
47087.812
47090.42
47093.274
47095.799
47098.159
47100.236
47102.906
47107.215
47110.913
47114.597
47119.981
47123.93
47130.699
47140.002
47148.551
47156.111
47165.288
47177.805
47191.748
47204.984
47220.862
47243.857
47272.491
47306.117
47344.85
47386.295
47434.442
47494.095
47564.466
47649.936
47763.432
47909.858
48083.221
48302.911
48580.132
48937.402
47026.614
47053.948
47074.983
47057.251
47046.235
47046.913
47058.086
47064.147
47068.472
47074.589
47079.96
47083.657
47087.205
47090.873
47093.645
47096.431
47098.654
47100.765
47102.845
47105.541
47109.813
47114.358
47118.596
47124.403
47128.788
47135.231
47144.969
47154.693
47163.539
47173.217
47185.945
47200.982
47215.852
47232.31
47255.453
47285.327
47320.88
47362.14
47406.122
47455.986
47516.701
47590.042
47679.95
47797.379
47948.481
48134.245
48370.611
48686.51
49102.853
47008.059
47062.625
47080.888
47059.062
47043.998
47048.542
47060.167
47065.829
47072.106
47079.031
47083.49
47087.094
47090.862
47094.568
47096.944
47099.155
47101.012
47102.995
47105.236
47108.224
47112.608
47117.594
47122.301
47128.303
47133.152
47139.295
47149.132
47159.8
47169.975
47180.484
47193.35
47209.101
47225.529
47242.832
47265.917
47296.55
47333.749
47377.258
47423.92
47475.358
47537.273
47612.939
47706.498
47827.626
47983.527
48179.538
48428.664
48778.81
49240.989
46985.963
47070.343
47086.822
47060.704
47043.096
47051.523
47062.84
47068.067
47075.478
47082.497
47086.505
47090.285
47094.273
47097.895
47099.759
47101.329
47102.959
47105.02
47107.545
47110.858
47115.307
47120.399
47125.422
47131.635
47136.981
47142.941
47152.618
47163.913
47175.206
47186.748
47199.826
47215.989
47233.771
47252.184
47275.248
47306.178
47344.758
47390.06
47439.212
47492.443
47555.239
47632.622
47729.572
47854.104
48014.128
48216.943
48481.073
48850.595
49355.691
46963.947
47075.803
47091.574
47061.413
47042.903
47053.911
47065.157
47070.226
47078.366
47085.364
47089.328
47093.093
47096.971
47100.281
47101.754
47103.017
47104.773
47107.185
47109.977
47113.39
47117.681
47122.553
47127.692
47134.1
47139.903
47145.875
47155.359
47167.041
47179.166
47191.671
47205.051
47221.369
47240.177
47259.828
47283.075
47314.022
47353.581
47400.249
47451.289
47506.282
47569.717
47648.353
47747.917
47875.33
48038.928
48246.558
48522.179
48908.949
49447.146
46945.81
47078.87
47094.701
47061.686
47043.577
47055.802
47066.774
47072.095
47080.519
47087.445
47091.398
47095.04
47098.621
47101.545
47102.805
47104.014
47106.059
47108.867
47111.839
47115.243
47119.348
47123.863
47128.97
47135.531
47141.696
47147.781
47157.106
47168.993
47181.71
47194.96
47208.69
47224.896
47244.222
47264.994
47288.557
47319.365
47359.388
47406.874
47459.11
47515.326
47579.209
47658.29
47759.545
47889.172
48054.87
48266.1
48548.948
48949.481
49509.056
46934.607
47080.132
47096.487
47062.107
47044.606
47057.33
47067.817
47073.522
47082.012
47088.705
47092.538
47096.096
47099.482
47102.162
47103.404
47104.591
47106.662
47109.591
47112.615
47116.036
47120.07
47124.285
47129.354
47136.049
47142.43
47148.613
47157.76
47169.704
47182.78
47196.439
47210.465
47226.406
47245.755
47267.263
47291.142
47321.769
47361.947
47409.695
47462.41
47519.134
47582.985
47662.052
47764.001
47894.765
48061.27
48273.584
48559.957
48968.678
49539.729
46930.919
47080.434
47097.063
47062.374
47045.133
47057.968
47068.134
47073.98
47082.453
47089.019
47092.82
47096.408
47099.772
47102.408
47103.662
47104.834
47106.83
47109.775
47112.758
47116.159
47120.144
47124.165
47129.244
47136.019
47142.489
47148.806
47157.835
47169.745
47182.986
47196.748
47210.949
47226.658
47245.804
47267.68
47291.839
47322.509
47362.787
47410.44
47463.064
47519.716
47583.372
47662.402
47764.59
47895.789
48062.164
48273.68
48560.859
48972.291
49547.311
46934.608
47080.128
47096.466
47062.089
47044.615
47057.273
47067.66
47073.62
47081.972
47088.623
47092.408
47096.031
47099.507
47102.133
47103.341
47104.552
47106.676
47109.762
47112.647
47115.987
47119.879
47123.775
47128.905
47135.719
47142.244
47148.774
47157.749
47169.557
47182.839
47196.518
47210.771
47226.318
47245.201
47267.205
47291.656
47322.664
47363.06
47410.344
47462.452
47518.642
47582.122
47661.332
47763.679
47895.02
48060.754
48270.632
48557.022
48966.91
49538.469
46945.811
47078.86
47094.658
47061.65
47043.572
47055.666
47066.619
47072.197
47080.433
47087.32
47091.199
47094.93
47098.645
47101.486
47102.779
47103.991
47106.058
47109.111
47111.839
47115.237
47119.104
47122.925
47128.109
47134.917
47141.471
47148.15
47156.978
47168.552
47181.743
47195.169
47209.262
47224.578
47243.087
47264.92
47289.616
47321.24
47361.687
47408.144
47459.094
47514.209
47577.331
47656.717
47758.937
47889.729
48053.371
48260.116
48542.486
48945.96
49510.171
46963.949
47075.78
47091.506
47061.344
47042.857
47053.732
47065.115
47070.241
47078.24
47085.21
47089.136
47092.92
47096.965
47100.227
47101.845
47103.05
47104.813
47107.532
47110.051
47113.626
47117.507
47121.296
47126.562
47133.338
47139.864
47146.491
47154.974
47166.197
47179.118
47192.07
47205.775
47220.678
47238.602
47259.889
47284.691
47316.884
47356.906
47401.904
47451.013
47504.409
47566.759
47645.926
47747.155
47876.054
48036.443
48235.112
48514.937
48901.441
49443.437
46985.963
47070.304
47086.726
47060.588
47042.986
47051.41
47062.815
47067.88
47075.311
47082.36
47086.338
47090.061
47094.282
47097.884
47099.939
47101.353
47103.155
47105.566
47107.778
47111.323
47115.044
47118.856
47124.29
47130.991
47137.377
47143.76
47151.826
47162.727
47175.132
47187.384
47200.587
47214.935
47232.066
47252.559
47277.491
47309.974
47348.75
47391.631
47438.401
47489.683
47551.169
47629.442
47729.086
47854.869
48008.192
48204.071
48464.531
48848.354
49350.33
47008.056
47062.559
47080.746
47058.922
47043.9
47048.524
47059.921
47065.558
47072.016
47078.994
47083.248
47086.835
47090.865
47094.44
47096.968
47098.999
47101.357
47103.502
47105.289
47108.522
47111.974
47115.801
47121.33
47127.833
47134.007
47140.068
47147.838
47158.438
47169.939
47181.388
47194.076
47207.73
47223.908
47243.624
47268.928
47301.274
47338.024
47378.313
47422.329
47471.471
47531.91
47609.384
47706.175
47828.384
47974.974
48160.411
48409.251
48761.433
49240.704
47026.598
47053.838
47074.801
47057.108
47046.212
47046.826
47057.559
47064.023
47068.469
47074.672
47079.695
47083.379
47087.16
47090.623
47093.638
47096.327
47099.216
47101.072
47102.662
47105.544
47108.627
47112.266
47117.713
47123.925
47129.855
47135.589
47143.258
47153.372
47163.643
47174.394
47186.47
47199.206
47214.354
47233.553
47259.368
47290.76
47324.855
47362.371
47403.556
47450.662
47510.274
47586.326
47680.231
47796.574
47937.786
48108.499
48355.474
48659.744
49098.564
47037.471
47044.421
47070.024
47056.481
47049.52
47048.209
47057.224
47062.926
47064.489
47069.53
47076.109
47080.534
47084.398
47087.675
47090.436
47093.379
47096.568
47098.334
47100.037
47102.585
47105.253
47108.644
47113.797
47119.582
47125.091
47130.526
47138.182
47147.407
47156.376
47166.551
47177.744
47189.371
47203.584
47222.679
47248.729
47278.065
47309.201
47343.923
47382.384
47427.606
47486.789
47560.412
47650.784
47761.412
47893.962
48060.215
48272.46
48584.487
48935.721
47043.936
47038.725
47060.033
47055.111
47053.28
47052.116
47057.438
47062.533
47062.742
47066.101
47073.242
47078.671
47082.593
47085.431
47087.659
47090.718
47093.756
47095.376
47097.131
47099.448
47101.84
47105.126
47109.928
47115.151
47119.932
47125.101
47132.545
47140.445
47148.296
47157.872
47167.881
47178.398
47191.932
47211.217
47236.674
47262.99
47291.209
47323.203
47359.103
47403.215
47461.347
47532.356
47617.005
47721.737
47842.751
48001.557
48185.111
48473.432
48759.005
47046.844
47033.841
47052.335
47052.051
47053.599
47054.547
47057.195
47062.252
47062.773
47065.171
47071.348
47076.972
47081.132
47083.558
47085.378
47088.048
47090.795
47092.084
47093.736
47095.937
47098.218
47101.397
47105.957
47110.737
47114.659
47119.487
47126.388
47132.771
47139.628
47148.348
47157.056
47166.659
47179.777
47199.154
47222.873
47245.666
47271.217
47300.63
47334.327
47377.622
47434.074
47501.598
47580.504
47677.81
47791.619
47929.036
48113.402
48302.608
48549.643
47045.009
47029.162
47046.303
47048.855
47050.458
47054.312
47055.726
47060.531
47063.064
47064.983
47069.565
47074.603
47078.978
47081.354
47083.274
47085.497
47088.113
47088.842
47090.574
47092.671
47094.895
47097.683
47101.968
47106.109
47109.242
47113.787
47119.864
47124.715
47130.668
47138.294
47145.736
47154.638
47167.474
47186.385
47207.264
47226.592
47249.735
47276.731
47308.753
47350.862
47405.42
47466.269
47540.492
47628.349
47733.224
47857.171
48009.943
48152.735
48302.592
47034.108
47030.279
47044.633
47046.65
47047.226
47053.558
47054.302
47058.107
47061.821
47064.02
47067.868
47072.583
47076.598
47078.945
47080.71
47082.77
47085.369
47085.89
47087.875
47089.779
47091.917
47094.117
47098.005
47101.063
47103.911
47108.006
47112.617
47116.091
47121.506
47128.086
47134.344
47142.619
47155.104
47172.86
47190.247
47206.46
47227.492
47252.284
47282.71
47323.366
47374.379
47430.47
47496.427
47577.059
47666.272
47782.054
47892.451
48063.251
48047.539
47020.637
47033.1
47042.317
47044.152
47044.325
47052.091
47053.681
47056.285
47060.508
47063.916
47067.195
47071.522
47075.003
47076.978
47078.576
47080.407
47082.677
47083.258
47084.987
47086.709
47088.606
47091.273
47093.847
47095.627
47098.455
47102.232
47105.002
47107.144
47112.186
47117.723
47122.914
47130.741
47142.695
47158.528
47172.092
47185.726
47204.845
47227.614
47256.102
47295.182
47341.302
47390.513
47450.282
47520.81
47597.669
47684.338
47767.557
47878.236
47792.951
47009.781
47032.607
47038.001
47041.387
47042.12
47049.466
47052.097
47054.398
47059.031
47063.495
47066.281
47069.893
47073.311
47075.535
47076.92
47078.456
47079.948
47080.789
47082.079
47083.77
47085.015
47088.099
47089.746
47090.673
47092.803
47096.201
47097.603
47098.474
47102.923
47107.296
47111.579
47119.012
47130.069
47143.304
47153.117
47164.893
47182.124
47202.619
47229.33
47265.128
47305.907
47346.693
47400.03
47457.54
47521.328
47579.456
47674.054
47647.299
47450.76
47003.215
47027.741
47033.987
47039.2
47040.772
47046.817
47050.639
47053.366
47058.137
47063.13
47065.728
47068.423
47071.508
47074.251
47075.52
47076.638
47077.441
47078.374
47079.605
47080.797
47082.707
47084.752
47085.725
47086.134
47087.555
47089.401
47090.049
47090.696
47093.952
47096.741
47100.587
47107.549
47117.162
47127.188
47133.537
47144.192
47159.717
47177.952
47202.283
47235.043
47267.878
47301.694
47344.83
47395.831
47434.357
47476.829
47539.447
47539.423
47094.336
46997.737
47022.11
47031.329
47036.989
47039.787
47044.884
47049.086
47052.062
47056.907
47062.183
47064.956
47067.239
47070.119
47072.948
47074.044
47074.905
47075.335
47076.159
47077.517
47078.44
47080.651
47081.839
47081.624
47082.106
47082.565
47083.003
47082.265
47082.969
47085.342
47086.235
47090.107
47096.151
47103.648
47110.143
47113.743
47123.531
47136.804
47152.37
47174.603
47201.92
47226.159
47251.174
47286.03
47324.464
47343.212
47372.469
47359.203
47408.195
46843.818
46994.611
47017.369
47029.263
47035.191
47039.068
47043.485
47047.424
47050.521
47055.342
47060.633
47063.481
47066.004
47069.182
47071.69
47072.593
47073.716
47073.435
47074.241
47075.727
47076.838
47077.859
47078.938
47077.614
47078.231
47077.661
47076.742
47075.204
47075.679
47076.374
47076.215
47079.918
47084.459
47089.383
47092.343
47094.255
47102.953
47113.76
47127.452
47146.62
47166.925
47182.547
47199.047
47225.002
47244.717
47246.086
47238.664
47197.654
47222.656
46589.926
46992.969
47015.059
47029.493
47034.15
47038.064
47042.377
47046.063
47049.307
47054.119
47059.274
47062.272
47064.994
47067.961
47070.48
47071.478
47072.499
47071.447
47072.546
47074.051
47075.067
47075.413
47075.698
47074.009
47074.089
47072.856
47070.656
47068.578
47068.613
47067.682
47066.929
47069.525
47072.545
47074.408
47074.079
47075.12
47082.758
47090.113
47101.57
47116.552
47129.568
47132.228
47140.729
47158.702
47163.726
47162.342
47112.021
47047.775
47096.802
46237.53
46992.414
47015.166
47031.114
47034.482
47036.649
47040.905
47045.147
47048.487
47053.149
47058.126
47061.203
47064.336
47066.916
47068.955
47070.294
47071.461
47069.958
47071.677
47072.271
47072.848
47073.143
47072.28
47070.686
47070.228
47068.209
47064.641
47062.434
47061.274
47058.716
47058.565
47059.241
47059.812
47059.438
47055.673
47056.44
47061.696
47066.536
47074.444
47084.076
47087.677
47083.005
47082.528
47088.109
47075.92
47053.386
47012.137
46827.266
46840.076
46142.644
46991.69
47018.25
47033.921
47034.703
47034.477
47039.888
47044.589
47047.99
47052.394
47057.019
47060.435
47063.957
47066.248
47067.781
47069.103
47070.317
47068.765
47070.916
47071.123
47070.831
47071.063
47069.198
47067.586
47066.565
47063.512
47059.003
47056.288
47053.852
47050.175
47049.647
47048.798
47046.722
47043.472
47038.266
47038.514
47040.799
47042.979
47046.977
47046.678
47041.504
47029.775
47020.078
47015.901
46988.744
46939.33
46888.507
46579.871
46670.536
46134.902
47576.128
47502.187
47473.981
47404.914
47381.604
47347.991
47316.875
47288.565
47262.544
47238.818
47216.969
47197.169
47179.762
47162.135
47147.849
47137.043
47125.731
47114.967
47105.383
47098.595
47094.706
47093.158
47092.057
47090.352
47088.675
47088.686
47088.471
47088.433
47088.404
47089.376
47090.376
47090.804
47090.244
47089.232
47086.663
47083.856
47080.163
47075.435
47069.642
47064.371
47057.558
47054.962
47048.929
47050.192
47043.866
47049.854
47041.154
47044.73
47045.006
47309.693
47318.146
47296.567
47297.474
47279.553
47266.147
47249.985
47232.751
47214.861
47197.148
47180.214
47164.432
47149.953
47138.175
47126.797
47114.597
47105.815
47098.884
47093.613
47091.264
47089.226
47086.24
47084.577
47083.746
47082.843
47083.606
47084.557
47085.447
47085.795
47087.025
47088.491
47089.379
47088.804
47087.915
47085.521
47082.861
47079.324
47074.671
47069.255
47063.827
47057.318
47054.675
47048.921
47049.799
47043.898
47049.456
47041.099
47044.978
47044.808
47181.083
47183.148
47188.573
47182.936
47180.084
47173.914
47166.803
47159.603
47151.55
47142.673
47133.208
47124.005
47115.348
47106.908
47099.443
47094.12
47089.857
47086.742
47084.569
47082.377
47079.941
47076.973
47076.053
47077.197
47077.543
47079.113
47081.122
47082.665
47083.262
47084.869
47086.834
47087.997
47087.403
47086.607
47084.432
47081.888
47078.499
47073.994
47068.833
47063.397
47057.017
47054.406
47048.907
47049.317
47043.93
47049.078
47041.048
47045.262
47044.604
47033.851
47064.831
47062.225
47083.446
47087.05
47092.378
47094.015
47094.389
47093.521
47091.673
47088.772
47085.481
47081.967
47078.794
47075.923
47073.214
47071.288
47070.398
47070.356
47069.948
47070.03
47068.855
47068.772
47070.854
47072.589
47074.885
47077.592
47079.719
47080.856
47082.851
47085.263
47086.561
47085.975
47085.287
47083.379
47080.938
47077.682
47073.352
47068.349
47062.98
47056.737
47054.099
47048.889
47048.972
47043.842
47048.721
47040.959
47045.587
47044.38
46960.355
46967.418
46984.484
46994.981
47006.274
47016.609
47023.8
47030.472
47034.777
47038.572
47041.817
47044.014
47045.07
47047.098
47048.836
47049.929
47050.983
47053.099
47055.981
47057.932
47059.915
47060.984
47061.84
47063.977
47066.865
47070.539
47074.019
47076.553
47078.377
47080.899
47083.665
47085.018
47084.537
47083.99
47082.35
47080.019
47076.877
47072.731
47067.822
47062.497
47056.504
47053.78
47048.782
47048.579
47043.678
47048.375
47040.804
47046.016
47044.103
46858.143
46892.364
46897.02
46920.461
46932.072
46948.066
46960.172
46972.542
46982.58
46991.488
46998.908
47006.085
47012.098
47017.502
47022.116
47027.296
47032.156
47036.307
47040.517
47044.85
47048.76
47052.21
47055.226
47058.025
47061.482
47066.155
47070.58
47073.614
47076.063
47079.081
47082.125
47083.463
47083.104
47082.745
47081.339
47079.13
47076.094
47072.105
47067.276
47061.976
47056.332
47053.366
47048.638
47048.163
47043.593
47048.027
47040.622
47046.479
47043.815
46810.39
46810.251
46833.068
46852.776
46866.237
46885.783
46898.753
46915.626
46930.014
46943.764
46955.91
46968.387
46978.982
46987.702
46995.907
47004.044
47011.44
47017.986
47023.613
47031.093
47038.535
47043.679
47048.37
47053.02
47057.148
47061.746
47066.868
47070.901
47073.898
47077.244
47080.539
47081.899
47081.677
47081.551
47080.352
47078.257
47075.336
47071.47
47066.724
47061.412
47056.181
47052.986
47048.428
47047.813
47043.581
47047.641
47040.559
47046.937
47043.579
46719.624
46775.781
46763.266
46791.974
46805.004
46828.691
46843.788
46862.385
46878.985
46896.5
46912.495
46928.436
46945.376
46960.07
46970.578
46980.671
46990.88
47001.307
47009.065
47017.68
47028.218
47035.84
47041.156
47047.13
47052.878
47057.773
47063.123
47068.143
47071.874
47075.42
47078.91
47080.376
47080.309
47080.404
47079.396
47077.396
47074.592
47070.828
47066.158
47060.926
47055.883
47052.669
47048.257
47047.476
47043.42
47047.205
47040.625
47047.355
47043.308
46696.48
46665.219
46710.542
46734.483
46750.446
46778.306
46794.699
46815.749
46833.958
46854.06
46873.324
46890.529
46908.304
46929.451
46947.685
46961.268
46971.92
46984.472
46995.671
47005.01
47016.692
47027.91
47035.353
47041.451
47047.986
47054.21
47060.023
47065.412
47069.905
47073.736
47077.295
47078.874
47079.006
47079.304
47078.463
47076.555
47073.857
47070.185
47065.586
47060.451
47055.449
47052.363
47048.099
47047.13
47043.255
47046.814
47040.455
47047.89
47042.8
46586.029
46643.909
46658.35
46690.032
46695.814
46730.115
46746.616
46773.04
46795.243
46816.867
46840.229
46863.316
46878.109
46897.042
46920.989
46942.136
46955.982
46968.514
46982.242
46994.86
47006.499
47018.859
47029.625
47037.023
47043.205
47050.233
47057.282
47062.968
47067.845
47072.041
47075.759
47077.405
47077.752
47078.258
47077.53
47075.745
47073.132
47069.533
47065.016
47059.976
47055.045
47052.011
47047.891
47046.84
47043.035
47046.45
47039.904
47048.647
47042.111
46557.785
46574.547
46604.147
46648.492
46639.61
46683.913
46698.595
46727.567
46754.046
46779.088
46803.315
46834.399
46857.374
46872.394
46892.872
46919.552
46941.679
46956.638
46969.081
46984.1
46998.449
47010.752
47022.717
47032.501
47039.525
47046.339
47054.321
47060.79
47065.878
47070.323
47074.313
47076.039
47076.559
47077.263
47076.581
47074.953
47072.425
47068.868
47064.451
47059.487
47054.615
47051.589
47047.69
47046.654
47042.655
47046.101
47039.352
47049.499
47041.357
46437.396
46645.976
46525.816
46616.849
46597.845
46644.463
46660.903
46686.221
46712.628
46744.292
46768.853
46797.562
46831.03
46859.687
46875.276
46896.45
46922.709
46945.176
46959.013
46972.913
46989.88
47004.543
47016.579
47027.334
47036.143
47043.294
47051.28
47058.517
47064.167
47068.69
47072.865
47074.759
47075.454
47076.295
47075.621
47074.16
47071.748
47068.2
47063.885
47058.997
47054.19
47051.231
47047.504
47046.507
47042.254
47045.837
47039.092
47050.327
47040.571
46593.095
46263.707
46452.84
46564.029
46551.309
46600.191
46621.818
46652.865
46676.187
46710.977
46742.268
46771.075
46799.15
46837.399
46865.844
46882.063
46902.363
46928.922
46950.344
46964.494
46980.845
46997.844
47011.891
47022.749
47032.392
47040.544
47048.555
47056.266
47062.448
47067.258
47071.45
47073.469
47074.414
47075.33
47074.695
47073.385
47071.083
47067.534
47063.298
47058.569
47053.813
47050.913
47047.247
47046.426
47041.824
47045.602
47039.044
47051.206
47039.759
46204.629
46571.605
46427.444
46523.73
46510.835
46546.914
46573.171
46619.788
46650.158
46680.972
46715.583
46752.277
46777.846
46809.639
46842.953
46875.949
46893.1
46912.424
46938.432
46957.838
46973.556
46990.718
47006.946
47019.294
47028.884
47037.602
47046.245
47054.213
47060.669
47065.925
47070.137
47072.162
47073.347
47074.351
47073.841
47072.657
47070.4
47066.872
47062.669
47058.159
47053.499
47050.657
47046.934
47046.413
47041.285
47045.272
47039.023
47052.293
47038.912
46348.376
46472.267
46376.15
46453.662
46460.874
46505.568
46531.547
46576.293
46618.612
46658.746
46689.337
46728.196
46762.897
46793.535
46818.755
46855.024
46887.916
46906.035
46927
46949.779
46968.164
46984.661
47001.631
47015.897
47025.936
47034.755
47043.976
47052.477
47058.975
47064.496
47068.891
47070.953
47072.224
47073.357
47073.051
47071.998
47069.704
47066.223
47062.021
47057.772
47053.193
47050.485
47046.618
47046.432
47040.762
47044.939
47038.718
47053.548
47038.011
46308.913
46373.655
46346.505
46395.491
46429.67
46502.019
46524.176
46548.505
46582.586
46634.223
46669.376
46705.938
46743.815
46783.676
46808.814
46832.757
46868.311
46903.016
46921.885
46942.429
46962.659
46979.984
46996.61
47012.382
47023.465
47032.191
47041.866
47050.862
47057.51
47063.087
47067.567
47069.917
47071.178
47072.391
47072.303
47071.403
47069.023
47065.587
47061.42
47057.35
47052.84
47050.408
47046.32
47046.536
47040.322
47044.592
47038.104
47054.924
47037.043
46237.335
46345.586
46322.776
46353.76
46392.88
46458.519
46502.501
46555.975
46569.134
46613.57
46650.108
46691.247
46723.832
46766.747
46803.153
46827.46
46855.857
46889.811
46917.942
46937.819
46957.827
46976.046
46992.646
47009.061
47021.314
47030.204
47039.969
47049.241
47056.207
47061.893
47066.224
47068.961
47070.324
47071.541
47071.594
47070.813
47068.344
47064.959
47060.865
47056.872
47052.473
47050.287
47046.132
47046.612
47039.88
47044.222
47037.365
47056.419
47035.992
46217.855
46284.033
46267.519
46369.598
46366.018
46424.619
46450.699
46520.786
46566.816
46607.104
46638.502
46680.606
46713.642
46751.765
46788.113
46824.743
46852.824
46881.564
46909.756
46934.17
46953.649
46972.79
46990.194
47006.026
47019.137
47028.6
47038.362
47047.675
47054.922
47060.904
47065.072
47067.909
47069.597
47070.911
47070.93
47070.161
47067.63
47064.363
47060.3
47056.397
47052.145
47050.191
47045.947
47046.569
47039.476
47043.892
47036.65
47057.948
47034.819
46146.944
46221.966
46221.362
46327.85
46356.847
46412.447
46427.603
46491.869
46533.658
46588.989
46631.962
46676.061
46708.852
46747.948
46776.06
46813.725
46850.743
46878.244
46905.605
46930.353
46950.142
46969.934
46988.476
47003.922
47016.782
47026.996
47037.077
47046.298
47053.776
47059.972
47064.121
47066.733
47068.938
47070.368
47070.298
47069.46
47066.895
47063.823
47059.713
47056.003
47051.843
47050.107
47045.642
47046.566
47039.139
47043.482
47036.02
47059.411
47033.495
46100.343
46240.293
46235.393
46289.497
46301.362
46390.454
46425.655
46487.528
46518.385
46573.089
46614.429
46669.514
46707.264
46741.955
46773.563
46808.002
46843.837
46875.675
46904.84
46928.911
46948.628
46967.736
46986.638
47002.606
47014.803
47025.399
47036.073
47045.263
47052.843
47059.023
47063.152
47065.732
47068.134
47069.728
47069.826
47068.82
47066.172
47063.348
47059.237
47055.649
47051.445
47050.006
47045.236
47046.636
47038.825
47042.833
47035.51
47060.785
47032.063
46137.71
46169.151
46207.438
46275.523
46270.162
46348.161
46398.255
46479.806
46507.995
46574.711
46602.687
46662.872
46697.345
46733.462
46775.962
46811.973
46843.237
46874.115
46902.002
46927.597
46948.486
46966.627
46984.854
47001.643
47014.398
47023.999
47035.163
47044.545
47051.978
47057.93
47062.256
47065.012
47067.371
47069.148
47069.436
47068.315
47065.522
47062.908
47058.633
47055.265
47051.209
47049.887
47044.86
47046.634
47038.526
47041.978
47035.123
47062.105
47030.501
45991.224
46101.68