/*--------------------------------*- C++ -*----------------------------------*\
| =========                 |                                                 |
| \\      /  F ield         | OpenFOAM: The Open Source CFD Toolbox           |
|  \\    /   O peration     | Version:  2506                                  |
|   \\  /    A nd           | Website:  www.openfoam.com                      |
|    \\/     M anipulation  |                                                 |
\*---------------------------------------------------------------------------*/
FoamFile
{
    version     2.0;
    format      ascii;
    arch        "LSB;label=32;scalar=64";
    class       volScalarField;
    location    "0.05";
    object      yPlus;
}
// * * * * * * * * * * * * * * * * * * * * * * * * * * * * * * * * * * * * * //

dimensions      [0 0 0 0 0 0 0];

internalField   uniform 0;

boundaryField
{
    Side
    {
        type            empty;
    }
    Inlet
    {
        type            calculated;
        value           uniform 0;
    }
    Airfoil
    {
        type            calculated;
        value           nonuniform List<scalar> 
117
(
929.43937
923.63644
913.8441
911.82625
915.0497
917.64961
922.53691
930.93967
939.79179
949.5542
960.31588
971.10751
982.14745
992.57159
1002.325
1011.1672
1018.6043
1024.3162
1027.8995
1029.1188
1027.8254
1024.1794
1018.3323
1010.8023
1001.9388
992.15863
981.67467
970.7678
959.90076
949.36442
939.44191
930.5928
922.86957
917.05823
913.00934
911.68915
913.19448
917.97849
928.55089
1496.3173
1487.681
1490.5735
1484.2618
1469.7247
1461.3078
1454.4508
1451.235
1436.8646
1427.2206
1405.1589
1398.7104
1370.628
1350.5011
1325.83
1301.6147
1278.3255
1258.2629
1236.4815
1217.5015
1205.9561
1176.8189
1159.1435
1135.1507
1113.6898
1093.1422
1072.5518
1052.9113
1034.1388
1017.4108
1002.6412
986.98002
975.36581
966.20252
957.09289
948.01987
944.10019
945.03551
940.64747
935.77512
938.22665
942.48083
948.4789
958.06681
966.16292
978.22557
994.50766
1009.4131
1025.0143
1041.7322
1061.6209
1081.4199
1100.9175
1121.2638
1143.6286
1158.9799
1185.6683
1207.2105
1228.2837
1249.5753
1273.39
1293.6
1316.8085
1331.6451
1361.4613
1368.4521
1385.2813
1395.1005
1418.3526
1425.3597
1437.5834
1444.9962
1459.1979
1469.2531
1474.1992
1482.2478
1482.8549
1496.7097
)
;
    }
    Outlet
    {
        type            calculated;
        value           uniform 0;
    }
}


// ************************************************************************* //
