/*--------------------------------*- C++ -*----------------------------------*\
| =========                 |                                                 |
| \\      /  F ield         | OpenFOAM: The Open Source CFD Toolbox           |
|  \\    /   O peration     | Version:  2506                                  |
|   \\  /    A nd           | Website:  www.openfoam.com                      |
|    \\/     M anipulation  |                                                 |
\*---------------------------------------------------------------------------*/
FoamFile
{
    version     2.0;
    format      ascii;
    arch        "LSB;label=32;scalar=64";
    class       volVectorField;
    location    "0.005";
    object      wallShearStress;
}
// * * * * * * * * * * * * * * * * * * * * * * * * * * * * * * * * * * * * * //

dimensions      [1 -1 -2 0 0 0 0];

internalField   uniform (0 0 0);

boundaryField
{
    Side
    {
        type            empty;
    }
    Inlet
    {
        type            calculated;
        value           uniform (0 0 0);
    }
    Airfoil
    {
        type            calculated;
        value           nonuniform List<vector> 
142
(
(-32.403466 -10.349981 -3.6603574e-21)
(-23.880359 -7.5677389 1.2112989e-16)
(-24.625173 -7.75177 1.2165092e-16)
(-23.21218 -7.2620172 -2.4455993e-16)
(-22.943484 -7.1431963 -2.4074124e-35)
(-22.332423 -6.9268252 1.2335845e-16)
(-22.182506 -6.8621482 1.8901802e-21)
(-21.898312 -6.7634274 1.2438792e-16)
(-21.786131 -6.7255316 3.0092655e-33)
(-21.726321 -6.7107191 -2.5065053e-16)
(-21.694028 -6.7116549 1.9205623e-21)
(-21.722351 -6.7383129 1.2633665e-16)
(-21.770434 -6.7783599 -1.9342224e-21)
(-21.872078 -6.8425033 -2.5455238e-16)
(-21.991436 -6.9199937 1.2774375e-16)
(-22.160488 -7.0213505 -1.9570822e-21)
(-22.344704 -7.1363206 -6.0185311e-36)
(-22.574853 -7.2754343 -1.2912399e-16)
(-22.81972 -7.4295994 0)
(-23.107342 -7.608938 1.3004305e-16)
(-23.407598 -7.8048094 3.9848347e-21)
(-23.745881 -8.026987 1.3099124e-16)
(-24.092268 -8.267041 -4.0200481e-21)
(-24.487875 -8.5408266 -1.3196236e-16)
(-24.89043 -8.8357421 0)
(-25.228354 -9.1276352 2.6600267e-16)
(-25.275966 -9.2859466 1.3351494e-16)
(-25.157795 -9.3406614 6.0666793e-33)
(-25.140269 -9.4337136 -1.3461006e-16)
(-25.16649 -9.544654 -1.2037062e-35)
(-25.211079 -9.6644641 3.2521271e-33)
(-25.274249 -9.7934555 1.2037062e-35)
(-25.337037 -9.9245946 -1.3671277e-16)
(-25.419506 -10.065855 -1.372363e-16)
(-25.49338 -10.206302 2.7551603e-16)
(-25.585497 -10.356747 -1.3828337e-16)
(-25.668036 -10.506168 4.2368809e-21)
(-25.765524 -10.664673 -2.7865858e-16)
(-25.854748 -10.822875 0)
(-25.955837 -10.989284 -1.4037428e-16)
(-26.05027 -11.156272 1.4089703e-16)
(-26.153997 -11.330767 4.3147948e-21)
(-26.252494 -11.50669 1.4193667e-16)
(-26.358327 -11.689676 1.4246228e-16)
(-26.459931 -11.8748 -4.3625058e-21)
(-26.56764 -12.066851 1.4350925e-16)
(-26.672069 -12.261792 0)
(-26.782012 -12.463835 4.4101431e-21)
(-26.888839 -12.669212 -4.428591e-21)
(-27.000275 -12.881757 1.4558394e-16)
(-27.11164 -13.099648 4.4599986e-21)
(-27.230903 -13.327896 1.4662888e-16)
(-27.344992 -13.559439 -1.4714938e-16)
(-27.460322 -13.797389 1.2037062e-35)
(-27.571124 -14.039086 -4.5212583e-21)
(-27.684319 -14.288275 -1.4871036e-16)
(-27.793571 -14.541981 2.3035423e-24)
(-27.905087 -14.803707 4.571581e-21)
(-28.013149 -15.070759 1.2037062e-35)
(-28.122808 -15.346157 -1.5079105e-16)
(-28.229408 -15.627726 1.5131622e-16)
(-28.337136 -15.918144 -1.5183719e-16)
(-28.442461 -16.215845 -3.0334875e-25)
(-28.547531 -16.522459 1.5287575e-16)
(-28.651592 -16.838025 -4.6801736e-21)
(-28.752903 -17.161996 2.3192682e-24)
(-28.856303 -17.497782 4.714455e-21)
(-28.952137 -17.840111 1.5497078e-16)
(-29.055341 -18.198731 0)
(-29.142987 -18.560007 0)
(-29.248024 -18.945494 1.5655098e-16)
(-29.321968 -19.324686 1.5709255e-16)
(-29.431573 -19.74211 -2.4074124e-35)
(-29.484217 -20.136703 -4.82569e-21)
(-29.595432 -20.587008 1.7688844e-24)
(-29.619035 -20.992595 9.7192524e-21)
(-29.728405 -21.47618 -4.8770167e-21)
(-29.725123 -21.896409 -7.8722386e-33)
(-29.828803 -22.414588 -1.6088179e-16)
(-29.802965 -22.855598 -4.8148249e-35)
(-29.89029 -23.404782 3.239888e-16)
(-29.845286 -23.872949 -9.9213718e-21)
(-29.906519 -24.450039 4.2933652e-25)
(-29.842759 -24.95033 4.9952645e-21)
(-29.873818 -25.556839 -5.0126986e-21)
(-29.785279 -26.089607 5.029908e-21)
(-29.775096 -26.721285 1.6540293e-16)
(-29.668687 -27.298985 -1.6598234e-16)
(-29.598276 -27.943844 1.6656766e-16)
(-29.47122 -28.571804 4.8148249e-35)
(-29.340404 -29.234741 -3.3549224e-16)
(-29.173711 -29.903205 3.2354815e-24)
(-28.972149 -30.578871 1.6893437e-16)
(-28.741963 -31.265432 5.1764301e-21)
(-28.457747 -31.938294 -1.0385223e-20)
(-28.1681 -32.653125 -1.7074685e-16)
(-27.79232 -33.318208 -2.1666712e-34)
(-27.433596 -34.056524 1.6613497e-33)
(-26.956967 -34.703584 -1.5454459e-33)
(-26.508968 -35.44452 -5.373151e-21)
(-25.928373 -36.067363 3.4759365e-16)
(-25.349324 -36.752853 5.31686e-21)
(-24.66416 -37.346115 -5.3480111e-21)
(-23.91834 -37.908842 5.352936e-21)
(-23.133925 -38.462747 0)
(-22.248765 -38.920178 -8.8321564e-17)
(-21.317546 -39.348543 -5.4007467e-21)
(-20.303895 -39.675041 -1.7786687e-16)
(-19.245441 -39.96268 -1.0894457e-20)
(-18.127959 -40.181464 8.9548387e-17)
(-16.955165 -40.347237 -5.4969161e-21)
(-15.705972 -40.316352 9.0158078e-17)
(-14.402565 -40.102926 1.8092182e-16)
(-13.064455 -39.717047 9.0771858e-17)
(-11.717119 -39.200685 9.1081346e-17)
(-10.371377 -38.554957 1.5602687e-23)
(-9.051411 -37.840831 4.5841073e-17)
(-7.7629842 -37.062153 -9.1977413e-17)
(-6.5161648 -36.251717 -4.2195761e-21)
(-5.3220305 -35.471917 1.3737647e-21)
(-4.1698421 -34.668096 -1.5046328e-36)
(-3.0674104 -33.911675 -4.6540301e-17)
(-2.0049953 -33.124679 -5.9339429e-24)
(-22.00699 -5.476786 3.0513953e-33)
(-21.974881 -5.5311071 2.0241452e-37)
(-21.902557 -5.5677296 4.1056411e-41)
(-21.823251 -5.5948854 -8.5613605e-33)
(-21.71527 -5.6069485 -1.0303065e-16)
(-21.604097 -5.6105589 -1.5963766e-21)
(-21.469875 -5.6007148 2.1250244e-16)
(-21.329414 -5.5820204 0)
(-21.174429 -5.5525975 1.672066e-21)
(-21.022979 -5.5175083 -1.6987301e-21)
(-20.842232 -5.4685641 -1.1053627e-33)
(-20.690488 -5.42151 1.751697e-21)
(-20.536429 -5.3684676 -1.7798887e-21)
(-20.408185 -5.3172048 -1.1841172e-16)
(-20.233555 -5.2491717 -5.428715e-33)
(-20.108966 -5.1895703 2.2863606e-24)
(-19.49133 -4.9956849 1.8873228e-21)
(-16.906557 -4.3055476 -1.919793e-21)
(-26.209348 -6.668526 -1.2722287e-16)
)
;
    }
    Outlet
    {
        type            calculated;
        value           nonuniform List<vector> 0();
    }
    procBoundary8to0
    {
        type            processor;
        value           uniform (0 0 0);
    }
    procBoundary8to1
    {
        type            processor;
        value           uniform (0 0 0);
    }
    procBoundary8to2
    {
        type            processor;
        value           uniform (0 0 0);
    }
    procBoundary8to7
    {
        type            processor;
        value           uniform (0 0 0);
    }
    procBoundary8to9
    {
        type            processor;
        value           uniform (0 0 0);
    }
}


// ************************************************************************* //
