/*--------------------------------*- C++ -*----------------------------------*\
| =========                 |                                                 |
| \\      /  F ield         | OpenFOAM: The Open Source CFD Toolbox           |
|  \\    /   O peration     | Version:  2506                                  |
|   \\  /    A nd           | Website:  www.openfoam.com                      |
|    \\/     M anipulation  |                                                 |
\*---------------------------------------------------------------------------*/
FoamFile
{
    version     2.0;
    format      ascii;
    arch        "LSB;label=32;scalar=64";
    class       volScalarField;
    location    "0.012";
    object      Ma;
}
// * * * * * * * * * * * * * * * * * * * * * * * * * * * * * * * * * * * * * //

dimensions      [0 0 0 0 0 0 0];

internalField   nonuniform List<scalar> 
13761
(
0.30262304
0.30655506
0.3145671
0.31469862
0.30667689
0.30274561
0.29351308
0.29038068
0.31482555
0.30679227
0.30286529
0.29360662
0.29044492
0.29500351
0.30631872
0.31494958
0.30690865
0.30298564
0.29370413
0.29051403
0.29501876
0.30634595
0.31002759
0.3054008
0.31508259
0.30703447
0.30311625
0.2938078
0.29058757
0.2950313
0.30637139
0.31010181
0.30562192
0.27064691
0.23297165
0.31521874
0.30716603
0.30325363
0.29391781
0.29066586
0.29504676
0.30639935
0.31017826
0.30585115
0.27122193
0.23346486
0.22720437
0.23517636
0.31536119
0.30730588
0.30340014
0.29403463
0.29074913
0.29506273
0.30642733
0.31025991
0.30609481
0.27183132
0.2339907
0.22763594
0.23544008
0.26293734
0.28615814
0.31550829
0.30745332
0.3035555
0.29415876
0.29083775
0.29508057
0.30645676
0.31034469
0.30635026
0.272476
0.23455069
0.22809608
0.2357213
0.26303157
0.28629714
0.28976719
0.27938205
0.2528753
0.31566099
0.30760945
0.30372074
0.29429071
0.29093209
0.29509978
0.30648673
0.31043434
0.30661984
0.27315713
0.23514627
0.22858617
0.23602114
0.26313202
0.286444
0.2899749
0.27974434
0.25322131
0.23329532
0.20416087
0.31581869
0.30777435
0.30389632
0.29443107
0.29103259
0.2951209
0.30651769
0.31052793
0.30690308
0.27387626
0.23577934
0.2291077
0.23634089
0.26324006
0.286599
0.29019408
0.28013095
0.25359094
0.23352428
0.20446496
0.19887657
0.18468003
0.31598159
0.30794877
0.30408307
0.29458047
0.29113973
0.29514387
0.30654924
0.31062639
0.30720121
0.27463495
0.23645195
0.22966243
0.236682
0.26335542
0.28676297
0.2904279
0.28054374
0.25398546
0.23377094
0.20479329
0.1993021
0.18510218
0.16351287
0.17119833
0.31614934
0.30813313
0.30428171
0.29473961
0.29125404
0.29516906
0.30658143
0.31072932
0.30751447
0.27543499
0.23716662
0.23025252
0.23704619
0.26347925
0.2869358
0.29067426
0.28098438
0.25440674
0.23403726
0.20514586
0.19976015
0.18555475
0.16375137
0.17130618
0.17324303
0.16489085
0.31632183
0.30832809
0.30449316
0.29490927
0.29137614
0.29519657
0.30661402
0.31083732
0.30784388
0.27627844
0.23792597
0.23088032
0.2374353
0.2636117
0.28711844
0.29093635
0.28145517
0.25485731
0.23432545
0.20552486
0.20025325
0.18604039
0.16400254
0.17142328
0.17332411
0.16482882
0.15814032
0.18481579
0.21718852
0.31649862
0.30853414
0.30471831
0.2950903
0.29150665
0.29522674
0.30664683
0.31095021
0.30818986
0.27716711
0.23873265
0.23154822
0.23785126
0.26375373
0.28731077
0.29121302
0.28195819
0.25534034
0.23463726
0.20593278
0.20078412
0.18656168
0.16426993
0.17155111
0.17341399
0.16476705
0.1582976
0.18557252
0.21791948
0.22062693
0.21162237
0.31667934
0.30875197
0.30495817
0.29528358
0.29164629
0.29525979
0.30667957
0.31106834
0.30855326
0.27810281
0.2395894
0.23225877
0.23829621
0.26390575
0.28751356
0.29150662
0.28249577
0.25585949
0.23497423
0.20637236
0.20135583
0.18712139
0.1645577
0.17169036
0.17351244
0.16470574
0.15846002
0.18632521
0.21864843
0.22148243
0.21349897
0.15514696
0.1116561
0.1048384
0.31686338
0.30898222
0.30521385
0.29549015
0.29179586
0.2952961
0.3067119
0.31119167
0.30893472
0.27908747
0.24049927
0.23301476
0.2387725
0.26406874
0.28772681
0.29181673
0.28307035
0.25641898
0.23533792
0.20684697
0.20197178
0.18772271
0.16487021
0.17184213
0.17362065
0.1646458
0.15862848
0.18708008
0.21938034
0.22235182
0.21542009
0.15786126
0.11313082
0.1061986
0.117228
0.12776565
0.074473173
0.31705005
0.30922561
0.30548657
0.29571108
0.29195622
0.29533597
0.30674337
0.31132043
0.30933513
0.28012295
0.24146552
0.23381918
0.23928272
0.26424328
0.2879512
0.29214531
0.28368462
0.25702353
0.23573001
0.20735988
0.2026357
0.18836903
0.1652116
0.17200705
0.17373937
0.16458817
0.15880458
0.18784343
0.22011927
0.2232394
0.21738694
0.160841
0.1147677
0.10770745
0.1183363
0.12812754
0.07503802
0.3172384
0.30948287
0.30577769
0.29594762
0.29212839
0.29537981
0.30677339
0.31145461
0.30975531
0.28121108
0.24249175
0.23467526
0.23982976
0.26443048
0.28818674
0.29249241
0.28434135
0.25767884
0.23615215
0.2079145
0.20335172
0.18906424
0.16558578
0.17218672
0.17387002
0.16453405
0.15899045
0.18862078
0.22086864
0.22414937
0.21940079
0.16411627
0.11658492
0.10937882
0.11952398
0.12853239
0.075651719
0.31742737
0.30975478
0.30608865
0.29620109
0.29231343
0.29542801
0.30680123
0.31159439
0.31019626
0.2823535
0.24358184
0.23558643
0.24041677
0.26463115
0.288434
0.29285974
0.28504343
0.25839036
0.23660658
0.20851369
0.20412426
0.1898124
0.16599591
0.17238168
0.17401326
0.16448497
0.15918879
0.18941613
0.22163083
0.22508587
0.22146268
0.1677248
0.11860493
0.11122691
0.12078954
0.1289839
0.076315695
0.31761593
0.310042
0.30642099
0.29647292
0.29251255
0.29548107
0.30682591
0.31173978
0.31065889
0.28355148
0.24473989
0.23655618
0.24104709
0.26484648
0.28869284
0.2932475
0.28579361
0.25916186
0.23709436
0.20915986
0.20495801
0.19061786
0.16644489
0.17259429
0.17417087
0.16444309
0.15940252
0.19023135
0.22240671
0.22605284
0.22357276
0.17170907
0.12085332
0.1132654
0.12213108
0.12948565
0.07703186
0.31780301
0.31034516
0.30677629
0.2967647
0.29272708
0.29553949
0.30684624
0.31189097
0.3111443
0.28480598
0.24597041
0.23758824
0.24172433
0.26507753
0.28896365
0.29365722
0.28659487
0.25999583
0.23761461
0.20985461
0.20585806
0.19148529
0.16693546
0.17282582
0.17434301
0.16441065
0.15963484
0.19106623
0.22319547
0.22705371
0.22573039
0.17611847
0.12336082
0.11550652
0.12354865
0.13004084
0.077803434
0.31798598
0.31066488
0.30715623
0.29707824
0.29295858
0.29560387
0.30686077
0.31204812
0.31165366
0.2861179
0.24727855
0.23868677
0.24245263
0.26532574
0.28924624
0.2940894
0.28745049
0.26089666
0.23816776
0.21059945
0.2068303
0.1924201
0.16747212
0.17307757
0.17453197
0.16439134
0.15988896
0.19191836
0.22399427
0.22809209
0.22793413
0.18100916
0.12616593
0.11796155
0.12504432
0.13065249
0.078635825
0.31816279
0.31100181
0.30756243
0.29741555
0.29320875
0.29567478
0.30686764
0.31221161
0.31218816
0.28748763
0.24866967
0.23985599
0.24323635
0.26559254
0.28954082
0.29454553
0.28836381
0.26187196
0.23876031
0.21139588
0.20788096
0.19342807
0.16806005
0.17335144
0.17473892
0.16438756
0.16016796
0.19278268
0.22479733
0.22916973
0.23018062
0.1864357
0.12931638
0.12063866
0.12662235
0.13132287
0.07953675
0.31833262
0.31135667
0.30799644
0.29777892
0.29347954
0.2957529
0.30686484
0.31238191
0.31274871
0.28891489
0.25014924
0.24110012
0.24408021
0.26587949
0.28984689
0.2950262
0.289338
0.26293079
0.23940294
0.2122468
0.20901672
0.19451538
0.16870539
0.17365175
0.17496321
0.16440529
0.16047428
0.19365145
0.22559552
0.23027762
0.23247101
0.19243287
0.13287293
0.12354214
0.12829044
0.13205338
0.080516517
0.31849459
0.31173029
0.30845996
0.2981709
0.29377316
0.295839
0.30684987
0.3125597
0.31333582
0.29039892
0.25172304
0.24242341
0.24498931
0.26618825
0.29016437
0.29553293
0.29037637
0.2640815
0.24010076
0.2131585
0.21024475
0.19568895
0.1694155
0.17397808
0.17521169
0.16444489
0.1608101
0.19451401
0.22637721
0.23140332
0.23480558
0.19898027
0.1369161
0.12667724
0.13005836
0.1328447
0.081588771
0.31864754
0.31212379
0.30895498
0.29859418
0.29409213
0.29593397
0.30682003
0.31274557
0.31394879
0.29193818
0.25339706
0.24382992
0.24596906
0.26652042
0.29049232
0.29606653
0.29148175
0.26533273
0.24085027
0.21414249
0.21157218
0.19695631
0.17019856
0.17432929
0.17547584
0.16451547
0.16117713
0.19535625
0.22712903
0.23253957
0.23717628
0.20594724
0.141553
0.13005103
0.13194003
0.13369668
0.082770459
0.31879028
0.3125388
0.30948378
0.2990516
0.29443923
0.29603895
0.3067723
0.31294024
0.31458476
0.29353039
0.25517802
0.24532365
0.24702512
0.26687759
0.29083008
0.29662859
0.29265629
0.26669349
0.241649
0.21521351
0.21300593
0.19832581
0.17106486
0.17471956
0.17577345
0.16461715
0.16157923
0.19616273
0.22783518
0.23368059
0.23957157
0.21306562
0.14692612
0.1336771
0.13395755
0.13460671
0.084081863
0.31892209
0.31297711
0.31004885
0.29954596
0.29481765
0.29615545
0.30670414
0.31314359
0.31523815
0.29517286
0.25707375
0.24690862
0.24816326
0.26726122
0.29117602
0.29722066
0.2939007
0.26816967
0.24250331
0.21638602
0.21455232
0.19980718
0.17202547
0.17515033
0.17608635
0.16475969
0.16202063
0.19691956
0.22848226
0.23481713
0.24198005
0.21999914
0.15321463
0.13758296
0.13614571
0.13556129
0.085546622
0.31904308
0.31343999
0.31065226
0.30008012
0.29523096
0.29628573
0.30661398
0.31335462
0.31590085
0.29686264
0.25909323
0.24858857
0.24938891
0.26767272
0.29152836
0.29784478
0.29521543
0.26976135
0.24342603
0.21767341
0.21621713
0.20141106
0.1730936
0.17563596
0.17643916
0.16495551
0.16250882
0.19761943
0.22905431
0.23594165
0.24439478
0.22649248
0.1605966
0.141821
0.13855138
0.1365629
0.087191356
0.31915512
0.31392705
0.3112947
0.30065738
0.29568316
0.29643299
0.30650156
0.31357203
0.31656401
0.29859705
0.26124624
0.25036627
0.25070679
0.2681136
0.29188407
0.29850288
0.29660062
0.27146387
0.24443155
0.21909032
0.21800593
0.20314934
0.17428377
0.17616611
0.17682453
0.16519309
0.16305082
0.1982639
0.22954105
0.2370457
0.24681602
0.23244628
0.16909506
0.14650466
0.14124372
0.13763739
0.089044507
0.31926268
0.31443574
0.31197376
0.30128211
0.29617873
0.29660167
0.30636719
0.31379673
0.31722162
0.30037326
0.26354252
0.25224231
0.25212048
0.26858562
0.29223939
0.2991977
0.29805503
0.27327261
0.24554788
0.22065634
0.21992478
0.20503542
0.17561646
0.1767508
0.1772502
0.1655209
0.16365533
0.19886813
0.22993862
0.2381204
0.24924966
0.23784325
0.1784259
0.15176361
0.14436536
0.13883028
0.091135066
0.31937422
0.31496185
0.3126816
0.30196062
0.29672264
0.29679714
0.30620944
0.31403053
0.3178733
0.30218626
0.26599217
0.25421443
0.25363265
0.2690909
0.29258853
0.2999321
0.29957584
0.27517161
0.24681966
0.22240061
0.22198067
0.20708333
0.17711257
0.177407
0.17774968
0.16589854
0.16432821
0.19947254
0.23025193
0.23915576
0.25170776
0.24263506
0.18807754
0.15771072
0.14812913
0.14021001
0.093492386
0.3195036
0.31550111
0.31340389
0.30270206
0.29732036
0.29702507
0.3060227
0.31427953
0.318523
0.30402525
0.26860804
0.25627857
0.25524569
0.26963185
0.29292418
0.30071024
0.3011581
0.27712659
0.24828619
0.22435584
0.22418146
0.20930938
0.17879869
0.17813426
0.17829548
0.16637593
0.16511384
0.20013628
0.23049547
0.24013812
0.25420514
0.24713581
0.19732984
0.16421295
0.15266627
0.141874
0.096147176
0.31966707
0.31604976
0.31412538
0.30351805
0.2979775
0.29729008
0.3057967
0.31455069
0.3191723
0.30587076
0.27140987
0.25843011
0.25696233
0.2702109
0.29323628
0.30153703
0.30279708
0.27909446
0.24997545
0.22654583
0.22653518
0.21173178
0.18070645
0.17897223
0.17896569
0.16699428
0.16606675
0.20093307
0.23068677
0.24104319
0.25673793
0.25152597
0.20589107
0.17058548
0.15757497
0.14394661
0.099133819
0.31987436
0.31660701
0.31484818
0.30441505
0.29869886
0.2975934
0.30551613
0.3148499
0.31981203
0.30769634
0.27442961
0.26066591
0.25878606
0.27083048
0.29351276
0.30241978
0.30448603
0.28104065
0.25192393
0.22898786
0.2290498
0.21437295
0.18286804
0.17991597
0.17973612
0.16768274
0.16714808
0.20192565
0.23084265
0.24182792
0.25929019
0.25585927
0.21399983
0.17623035
0.16204722
0.14654852
0.10249533
0.32011402
0.31718154
0.31559593
0.30539052
0.29948685
0.29793139
0.30519645
0.31515464
0.32043977
0.30947482
0.27768906
0.26300866
0.26072039
0.27149281
0.2937381
0.30336945
0.30621562
0.28292438
0.2541442
0.23170024
0.23173273
0.2172589
0.18532866
0.18099538
0.18061416
0.16857149
0.16850519
0.20313041
0.2309872
0.24239145
0.26183457
0.26013876
0.22210157
0.18137553
0.16597055
0.1497483
0.10628852
0.32035998
0.31778522
0.31638784
0.30643283
0.30034301
0.29830254
0.30486622
0.31543811
0.32104752
0.31117503
0.28121383
0.26547771
0.26276673
0.27220113
0.29389367
0.30440221
0.30797869
0.28472617
0.25662796
0.23469533
0.23458844
0.22041944
0.18813124
0.18226365
0.1817121
0.16966598
0.17019784
0.20459735
0.23101894
0.24282486
0.26414062
0.26430022
0.23055236
0.18667412
0.16975181
0.15356671
0.11058355
0.32060917
0.31840755
0.31720388
0.30754189
0.30126886
0.2987054
0.30451964
0.31570699
0.32163382
0.31283407
0.28492804
0.26808339
0.26492338
0.27296074
0.29395063
0.3055407
0.30977599
0.28643741
0.25936049
0.23797544
0.23761588
0.22388445
0.19131918
0.18370546
0.18296178
0.17089915
0.17210497
0.20634986
0.23067519
0.2430732
0.26611043
0.26818183
0.23947253
0.19282839
0.1737975
0.15801035
0.11545897
0.32087501
0.31902685
0.31802173
0.30873
0.30226377
0.29912996
0.30415072
0.31595453
0.3221848
0.31446882
0.28875557
0.27084077
0.26718329
0.27377909
0.29386814
0.30681651
0.31162881
0.28811683
0.26237072
0.24154447
0.24080535
0.22768175
0.19494238
0.18538192
0.18442017
0.17236054
0.1744803
0.20829225
0.23006754
0.24322393
0.26761919
0.27157335
0.24857335
0.20056325
0.17846172
0.16309211
0.1209944
0.32112314
0.31965506
0.31886282
0.30998791
0.3033263
0.29957744
0.30376809
0.31616543
0.32268125
0.31606681
0.2926942
0.27377189
0.26952658
0.27466747
0.29357031
0.30826516
0.31358109
0.2898374
0.26568185
0.24540392
0.24414013
0.2318324
0.19902703
0.18730251
0.1860596
0.17401008
0.17745826
0.21031848
0.22950431
0.24336643
0.26863371
0.27423796
0.25687198
0.21078163
0.18412718
0.16884177
0.12726333
0.32136164
0.32027228
0.31970482
0.31131875
0.30444998
0.30000382
0.30339496
0.31636193
0.32310312
0.31756194
0.29674474
0.27690678
0.27191885
0.27565988
0.2929412
0.30991689
0.31571858
0.29174171
0.26933519
0.24954148
0.24760783
0.23635121
0.20360736
0.18951297
0.18786225
0.17598284
0.18074983
0.21237466
0.22926125
0.24352384
0.26909913
0.27619026
0.2640133
0.22306381
0.19131734
0.17531067
0.13433147
0.32162207
0.32086566
0.32054435
0.31272334
0.30562752
0.30039029
0.30303366
0.31653254
0.32344046
0.31893571
0.3008203
0.28029581
0.27437854
0.27666704
0.29192995
0.31176335
0.31814004
0.29400252
0.27329432
0.25387444
0.25122413
0.24123654
0.20870867
0.19215024
0.18998912
0.17845433
0.1842276
0.21427484
0.22924795
0.24377838
0.26906451
0.27723542
0.26954864
0.23575154
0.20063291
0.18256071
0.1422704
0.32191385
0.32141481
0.3213728
0.3142084
0.30685228
0.30066771
0.30271314
0.3166685
0.32368951
0.32018652
0.30489341
0.28403118
0.27671134
0.27703604
0.29061856
0.31374084
0.32094992
0.29690032
0.27740422
0.2582145
0.25502289
0.24647899
0.21435184
0.19534107
0.19265739
0.18146666
0.1880912
0.21612029
0.22911122
0.2443532
0.26888073
0.27755802
0.27290024
0.24676867
0.21229293
0.19069158
0.15114231
0.3222197
0.32188322
0.32218426
0.31578549
0.30810117
0.30071574
0.30246608
0.31674681
0.3238261
0.32128781
0.30897103
0.28831959
0.27858029
0.27685115
0.28930363
0.3154956
0.32413389
0.3006703
0.28141563
0.26230784
0.259041
0.25205651
0.22052609
0.19905587
0.19581579
0.18494028
0.19239812
0.21778721
0.22906202
0.24516256
0.26860352
0.27743072
0.2745615
0.25423776
0.2248276
0.19994709
0.1609724
0.32248565
0.32227546
0.32296823
0.31749608
0.30934738
0.30057198
0.30228959
0.31674576
0.32383208
0.32213538
0.31231907
0.29392833
0.28007261
0.27612944
0.28813721
0.31680816
0.32750778
0.30532058
0.28500144
0.26598174
0.26328756
0.25794388
0.22725036
0.20337391
0.19952945
0.18902372
0.19691962
0.21924344
0.22925109
0.24612586
0.26807517
0.27699481
0.27536496
0.25872481
0.23430343
0.21033726
0.17186368
0.32268431
0.32258023
0.32370113
0.31944208
0.31046453
0.30012663
0.3021981
0.31665076
0.3237274
0.32262532
0.31496627
0.29986032
0.28215648
0.27569285
0.28729032
0.31748813
0.33084366
0.31115197
0.28776739
0.26872412
0.26782358
0.26407586
0.23460221
0.20846392
0.20415702
0.19392157
0.20149476
0.22055221
0.22975667
0.2475491
0.26724752
0.27634675
0.27574284
0.26160446
0.24033861
0.22006632
0.18397709
0.322828
0.32273189
0.32433147
0.3216605
0.31132152
0.29938342
0.30224131
0.31645495
0.323563
0.32283373
0.31647093
0.30417721
0.28728516
0.27584318
0.28709524
0.3172394
0.33297938
0.31753801
0.28923605
0.2705596
0.27273483
0.27035546
0.24277548
0.21431009
0.2096088
0.19951492
0.20612617
0.22158541
0.23041616
0.24933705
0.26644192
0.27577646
0.2761286
0.26493843
0.24601774
0.22776553
0.19657366
0.32293834
0.32279714
0.32472437
0.32344237
0.31219026
0.29913036
0.30232241
0.31615675
0.32333371
0.32282392
0.31739658
0.3074661
0.29267024
0.27903915
0.28761119
0.31645694
0.33378698
0.32226909
0.29079288
0.2724331
0.27786038
0.27676055
0.25193239
0.22123887
0.21608138
0.20606157
0.21077412
0.2224356
0.23117451
0.25125784
0.26549769
0.27527301
0.27632382
0.26825016
0.25225803
0.23574898
0.20826742
0.323017
0.32282589
0.32487322
0.32430655
0.31269884
0.2993609
0.30241078
0.31577174
0.32302187
0.32267735
0.31776985
0.30942183
0.29682607
0.28335141
0.28842858
0.31583546
0.33375137
0.32420827
0.29274158
0.27537432
0.28293345
0.28326951
0.26200738
0.22942153
0.22378041
0.21348677
0.21512218
0.2231489
0.23194325
0.25264215
0.2646136
0.2747773
0.27628141
0.27054598
0.25799367
0.2440026
0.22004796
0.32309548
0.32282757
0.32493487
0.32470916
0.31318772
0.30007293
0.30254248
0.31534604
0.32263827
0.32242548
0.31779461
0.31052931
0.29934899
0.28551545
0.28864271
0.31551766
0.3324278
0.32405199
0.29535872
0.2797595
0.28791616
0.28987028
0.27277951
0.23852384
0.23214862
0.2213046
0.21933177
0.22343765
0.23334289
0.25418157
0.26415557
0.27407124
0.27578123
0.27187331
0.26197611
0.25144741
0.23241716
0.323187
0.3227892
0.32496608
0.32506836
0.31386817
0.30081528
0.30270471
0.31490336
0.32214757
0.32203281
0.31757433
0.31082007
0.30045473
0.28660315
0.28891064
0.31507736
0.33107709
0.3229761
0.29806216
0.28362269
0.29265343
0.29659054
0.28397237
0.24854514
0.2411044
0.22940974
0.22314257
0.22332657
0.23513909
0.25561408
0.26409772
0.27378578
0.27547149
0.27304433
0.26547212
0.2580872
0.24483272
0.3233314
0.32280952
0.3248982
0.32526284
0.31479666
0.30157767
0.30282796
0.31445675
0.32156898
0.32154842
0.31723714
0.31073533
0.30086786
0.28758437
0.2896286
0.31465069
0.33062956
0.32279932
0.29944857
0.28625104
0.2970292
0.30332452
0.29520799
0.25917385
0.25058295
0.23778095
0.22653797
0.22308554
0.23715196
0.25688353
0.26428811
0.27374517
0.27539768
0.27430646
0.26888004
0.26358707
0.255265
0.32351377
0.32287583
0.32473093
0.32517761
0.31544354
0.30231625
0.30309619
0.3140874
0.32093501
0.32095112
0.31678706
0.31052609
0.30115537
0.2887552
0.29039437
0.31383494
0.32948214
0.32254517
0.30039244
0.28831044
0.30046299
0.309762
0.30624259
0.27023861
0.2605099
0.24659663
0.22942087
0.22319387
0.23917843
0.25806845
0.26481482
0.27399407
0.2756274
0.27501966
0.27118786
0.26828872
0.26559612
0.3237251
0.32297049
0.32441494
0.32477332
0.31561961
0.30300391
0.30347964
0.31380298
0.32032499
0.3202926
0.31623896
0.31028467
0.30156507
0.28994961
0.29105709
0.31297953
0.32778636
0.32190371
0.30188675
0.28981195
0.30221735
0.31571536
0.31707497
0.28074428
0.26876739
0.25394662
0.23239208
0.2241491
0.24115197
0.25860907
0.26527395
0.27425339
0.27596682
0.27585618
0.27357787
0.27320835
0.27487004
0.32391648
0.32308569
0.32417575
0.32424703
0.31565688
0.30366694
0.30391393
0.31357708
0.31975169
0.3196816
0.31571387
0.31001093
0.30191412
0.29099063
0.29156659
0.31208558
0.32614533
0.32109916
0.30359705
0.29146492
0.30132178
0.32002705
0.32757697
0.29357641
0.27756309
0.26298383
0.23587543
0.22638593
0.24328119
0.25811621
0.26620697
0.2744887
0.27644374
0.27683121
0.27553632
0.27593267
0.28057869
0.32407366
0.3232403
0.32417552
0.32408646
0.31583985
0.30443452
0.30444602
0.31336872
0.31916778
0.3190722
0.31525484
0.30975244
0.30210189
0.29193661
0.29233723
0.31152534
0.3244334
0.31947242
0.30406234
0.29300265
0.3011463
0.32175594
0.33514479
0.31061497
0.28729314
0.27046798
0.23981992
0.23172949
0.24564968
0.25735351
0.26707396
0.27440409
0.27677575
0.27778499
0.27740686
0.27928653
0.28463275
0.32418911
0.32341529
0.32423609
0.32411487
0.31631132
0.30541623
0.30516561
0.31323135
0.31856795
0.31836963
0.31466678
0.30944802
0.30233394
0.29299758
0.29325744
0.31082533
0.32275107
0.31805381
0.30412362
0.2943386
0.30132114
0.32081307
0.33842143
0.32478108
0.29466655
0.2724651
0.24486185
0.23876838
0.24816178
0.25784868
0.26779955
0.27467818
0.27738103
0.27877189
0.27973469
0.28242656
0.28913751
0.32428311
0.32363144
0.32420003
0.32389607
0.31695091
0.30656607
0.30593713
0.31318346
0.3180508
0.31775293
0.31402391
0.30896559
0.30247769
0.29415723
0.29398939
0.30979403
0.32112029
0.31684799
0.30369267
0.2951661
0.30108061
0.31874843
0.33733765
0.33334477
0.29791877
0.26922022
0.25094843
0.24702434
0.25091973
0.25771384
0.26878784
0.27509515
0.27767307
0.27976119
0.2812549
0.28386449
0.2908122
0.32440453
0.32389319
0.32433397
0.32391293
0.31764359
0.30766001
0.30664924
0.31322018
0.3177678
0.31742926
0.31380277
0.30888922
0.30275668
0.29503818
0.29456834
0.30882916
0.31943429
0.31564324
0.30386053
0.29689213
0.30205339
0.31698529
0.3320702
0.33094321
0.30183071
0.26631521
0.25254355
0.25409531
0.25577646
0.25828119
0.26918919
0.27573024
0.27860946
0.28148264
0.28337839
0.28716583
0.29294003
0.32451759
0.32411077
0.32447994
0.32400243
0.31842909
0.30881112
0.30739758
0.31329861
0.31744322
0.31710793
0.3136474
0.3089545
0.30334061
0.29651223
0.29608402
0.3083352
0.31778141
0.31432824
0.30466269
0.299093
0.30353287
0.31630631
0.32739063
0.32456157
0.30154147
0.26889562
0.25401621
0.25744281
0.25936822
0.26199661
0.27004146
0.27641613
0.27988113
0.2825379
0.28439778
0.28830834
0.29435548
0.32459168
0.32420713
0.32446017
0.32381968
0.31908104
0.30999252
0.30825929
0.31353904
0.31730317
0.3168446
0.31342259
0.30884033
0.30356885
0.2974998
0.29684722
0.30722815
0.3161632
0.31346582
0.30547956
0.30086149
0.30454075
0.31542976
0.32419405
0.32000992
0.29992627
0.27331115
0.25863481
0.25922623
0.261684
0.26476999
0.27087646
0.27620252
0.28114734
0.28420244
0.28682553
0.29050133
0.29607241
0.32458792
0.32418626
0.32434639
0.32352085
0.31939197
0.31104105
0.30905856
0.31382609
0.31743535
0.31698128
0.31354134
0.30902239
0.30408116
0.29863436
0.29805065
0.30694426
0.31485875
0.31260481
0.30539487
0.30145657
0.30466449
0.31459376
0.32243018
0.31741672
0.29923757
0.27734287
0.26361157
0.26155532
0.26377309
0.26694579
0.27212625
0.27751833
0.28123289
0.28469123
0.28797445
0.29151453
0.29800204
0.32457576
0.32414475
0.32425406
0.32322898
0.31946313
0.31191873
0.30982712
0.31396407
0.31738779
0.31715433
0.31392835
0.30964271
0.30503794
0.30002574
0.2991288
0.3064293
0.31329895
0.31142711
0.30494693
0.30163687
0.30433648
0.31282287
0.31958435
0.31507275
0.29910881
0.28028032
0.26823278
0.26516271
0.26600449
0.26865893
0.27388303
0.27861431
0.28188919
0.28584286
0.28935807
0.29322295
0.29876834
0.32459707
0.32413218
0.32419205
0.32304461
0.31950462
0.31276379
0.31056936
0.3140767
0.31727943
0.31735433
0.31439024
0.31027064
0.30594498
0.30135593
0.30039665
0.30638522
0.31205237
0.31041573
0.30493836
0.30226179
0.30439966
0.31121394
0.31623123
0.31158693
0.29832982
0.28300378
0.27220294
0.26867469
0.26890157
0.27057078
0.27476399
0.27925992
0.28265504
0.28627486
0.29014348
0.29403768
0.29951377
0.3245974
0.32412781
0.32411133
0.32284689
0.31948684
0.31346053
0.31120776
0.3141435
0.31713193
0.31748005
0.31495667
0.31114729
0.30716691
0.30301112
0.30185616
0.30650759
0.31115722
0.30983865
0.30537209
0.30298254
0.3044189
0.30952703
0.31320948
0.30870034
0.29734822
0.28470832
0.27529261
0.27153938
0.27156511
0.27290497
0.27607758
0.27998044
0.28362501
0.28721765
0.29072786
0.29478129
0.29946009
0.32457248
0.32411346
0.32399225
0.32268879
0.3195095
0.31417237
0.31189157
0.31415581
0.31679743
0.31719377
0.31506344
0.31161034
0.30799384
0.30425213
0.30303611
0.30693663
0.31055582
0.30941643
0.30569897
0.30366403
0.30446977
0.30780704
0.31045771
0.30637005
0.29661934
0.28607768
0.27815065
0.27444572
0.2739061
0.27501543
0.27767534
0.28092106
0.28408892
0.28772468
0.2912566
0.2947768
0.29926607
0.32451617
0.32404825
0.32376473
0.32245465
0.31943025
0.31486691
0.31255793
0.31422916
0.31646903
0.31690123
0.31502906
0.3119848
0.308835
0.30572064
0.30466198
0.3074682
0.31012006
0.30907317
0.30608343
0.3042904
0.30462485
0.30653577
0.30809668
0.30422537
0.29604292
0.28750805
0.28069764
0.27698429
0.276295
0.27695071
0.27900855
0.28209161
0.28489285
0.28800024
0.29156468
0.29508686
0.29882464
0.32454177
0.32398526
0.32356781
0.32231473
0.31940607
0.31547225
0.31331796
0.31447164
0.31620106
0.31660332
0.31490419
0.31210589
0.30917788
0.30646577
0.30561666
0.30802272
0.31032011
0.30956986
0.30691786
0.30513139
0.304959
0.30571039
0.30619438
0.30295134
0.29597877
0.28855713
0.28315056
0.2797868
0.27859906
0.27911553
0.28056113
0.28281182
0.28555546
0.2885834
0.29155563
0.29491492
0.29834799
0.3245147
0.32386324
0.32336581
0.32211104
0.31932869
0.3158615
0.31393759
0.3147662
0.31595432
0.31626868
0.31477093
0.31225601
0.30962024
0.30731292
0.30660488
0.30827497
0.31006535
0.30970534
0.30773542
0.30622513
0.30575971
0.30563421
0.30510853
0.30206999
0.29634305
0.29010113
0.28549904
0.28250358
0.28113292
0.28137214
0.28239326
0.28404231
0.28632134
0.28889581
0.29166111
0.29448359
0.29741206
0.32464782
0.32374287
0.32315332
0.32190113
0.31922671
0.31604216
0.31442611
0.31506998
0.31578662
0.31593057
0.31461452
0.31244628
0.31009712
0.30803543
0.30740518
0.30843783
0.30986381
0.30976672
0.30834326
0.30704694
0.30665693
0.30622979
0.30511792
0.30227115
0.2975199
0.29226784
0.28821246
0.28552812
0.28408681
0.28385688
0.28449783
0.28578384
0.28744799
0.28948714
0.29168663
0.29410711
0.29652038
0.32466308
0.32356587
0.32290643
0.32174537
0.31927381
0.31638935
0.31486618
0.31529176
0.31574925
0.31561873
0.31439763
0.3125398
0.31048542
0.30866445
0.30810581
0.3087164
0.30959812
0.30956961
0.30868077
0.30743523
0.30700538
0.30658666
0.3054347
0.30292461
0.29908001
0.29488949
0.29140426
0.28907518
0.28759717
0.28701358
0.28737137
0.28816542
0.28939608
0.2908776
0.29238503
0.29430332
0.29623406
0.32345858
0.32270211
0.32166382
0.31933257
0.3166349
0.31510005
0.31538409
0.3156886
0.31540309
0.31421862
0.31258125
0.31080519
0.30918605
0.30867314
0.30894289
0.30941766
0.30941044
0.30880237
0.30770102
0.30695199
0.30643496
0.30531313
0.303101
0.30008732
0.29688616
0.29403074
0.29201869
0.29077905
0.29018112
0.29033242
0.29096976
0.291962
0.29305989
0.29425295
0.29563344
0.29718119
0.32328269
0.32233431
0.32150484
0.31950099
0.3170099
0.31544235
0.3154969
0.31562218
0.3151629
0.31404481
0.31258783
0.31100259
0.30959158
0.3091059
0.30917466
0.30928562
0.30924157
0.3087921
0.3078839
0.30705233
0.30620559
0.30510787
0.30325465
0.30075852
0.29819493
0.29600125
0.294248
0.29312179
0.29260678
0.29268319
0.29319763
0.29408938
0.29515332
0.29628263
0.29750358
0.29877406
0.32327491
0.32208726
0.32138167
0.31969209
0.31736901
0.3157366
0.31557267
0.31555811
0.31495208
0.31397881
0.31264032
0.31123514
0.30994447
0.30938752
0.30929655
0.30924933
0.30915268
0.30872233
0.30796032
0.30711306
0.30608469
0.30486485
0.30334246
0.30136762
0.29931693
0.29753861
0.296085
0.29508386
0.29458558
0.29464749
0.29500695
0.29571606
0.29662092
0.29773553
0.29889411
0.2999965
0.32343997
0.32199003
0.32119663
0.31973874
0.31776209
0.31611727
0.31569836
0.31548469
0.31482149
0.31393732
0.31274541
0.31146978
0.31033931
0.30967678
0.30940595
0.30930573
0.30908147
0.30867187
0.30797634
0.30702904
0.3059603
0.30484787
0.30349907
0.30192377
0.30030227
0.29888025
0.2976652
0.29676322
0.29623912
0.2962012
0.29646268
0.29698579
0.29774869
0.29868853
0.2996677
0.30058968
0.32357784
0.32210517
0.32113537
0.3197007
0.31803853
0.31642349
0.31588177
0.31546645
0.3147662
0.3138436
0.31285
0.31169749
0.31070364
0.30995163
0.30956505
0.30932583
0.30908286
0.3086559
0.30792365
0.30698897
0.30595461
0.30491161
0.30376972
0.30252178
0.30127751
0.30004744
0.29905213
0.29829767
0.29779786
0.29769322
0.29784664
0.29823829
0.29882062
0.29953886
0.30032112
0.30102449
0.32366217
0.32218585
0.32123527
0.31978811
0.31833833
0.31674354
0.31607155
0.31543329
0.31477591
0.3138767
0.31296295
0.31187614
0.31097637
0.31019613
0.30972958
0.30937509
0.30906849
0.30858394
0.30783583
0.30693718
0.30600738
0.30511935
0.30421535
0.30319444
0.30214445
0.30113854
0.30021606
0.29951468
0.29910666
0.29899577
0.29909153
0.29941346
0.29985564
0.30039154
0.30094944
0.30152402
0.32368334
0.32219827
0.32128163
0.3199048
0.3185765
0.31703385
0.31628833
0.31552395
0.31484725
0.3139975
0.31316612
0.31217329
0.31129898
0.31051461
0.30996498
0.30951562
0.30910464
0.30855203
0.30781384
0.30696376
0.30613295
0.30539111
0.30465878
0.30385224
0.30294634
0.30209941
0.30131153
0.30071128
0.30029819
0.30021866
0.30026821
0.30053809
0.30086023
0.30130693
0.30171771
0.30214709
0.32371778
0.32224238
0.32132642
0.31996865
0.3187745
0.31734316
0.31649886
0.31564161
0.31495511
0.3141137
0.31334405
0.31241496
0.31158002
0.31078445
0.31016754
0.30964932
0.30915568
0.30853713
0.30784588
0.30713546
0.30641895
0.30580754
0.30513282
0.30438972
0.30354499
0.30278541
0.3021101
0.30165167
0.30133026
0.30125954
0.30134572
0.3015699
0.30181032
0.30211917
0.30240355
0.30271086
0.32372165
0.32232171
0.32141092
0.32006722
0.31894308
0.31760341
0.31673373
0.31582837
0.31517979
0.31436298
0.31363012
0.31273541
0.31193344
0.31110883
0.31048396
0.30986733
0.30932566
0.30872044
0.30810481
0.30749555
0.30688305
0.30629033
0.30564544
0.30493129
0.30415457
0.30347756
0.30294238
0.30258012
0.30235345
0.30233402
0.3024088
0.30255653
0.30270366
0.30287308
0.30302071
0.30321974
0.32364364
0.32230438
0.32136543
0.32011473
0.31906529
0.31776913
0.31692921
0.31601771