/*--------------------------------*- C++ -*----------------------------------*\
| =========                 |                                                 |
| \\      /  F ield         | OpenFOAM: The Open Source CFD Toolbox           |
|  \\    /   O peration     | Version:  2506                                  |
|   \\  /    A nd           | Website:  www.openfoam.com                      |
|    \\/     M anipulation  |                                                 |
\*---------------------------------------------------------------------------*/
FoamFile
{
    version     2.0;
    format      ascii;
    arch        "LSB;label=32;scalar=64";
    class       volScalarField;
    location    "0.012";
    object      T;
}
// * * * * * * * * * * * * * * * * * * * * * * * * * * * * * * * * * * * * * //

dimensions      [0 0 0 1 0 0 0];

internalField   nonuniform List<scalar> 
13761
(
248.18363
247.9495
247.67733
247.66989
247.94309
248.17821
248.38002
248.55817
247.66375
247.93778
248.17369
248.37612
248.55458
248.72094
248.88671
247.6573
247.9322
248.16894
248.37202
248.55082
248.71716
248.88261
249.05616
249.24286
247.65047
247.92627
248.16391
248.36767
248.54683
248.71318
248.87829
249.05125
249.23727
249.43741
249.64902
247.64321
247.91998
248.15856
248.36306
248.54262
248.70897
248.87373
249.04608
249.23137
249.43085
249.642
249.85943
250.07581
247.63552
247.9133
248.15287
248.35816
248.53816
248.70453
248.86892
249.04062
249.22514
249.42389
249.63454
249.85183
250.06847
250.27617
250.46683
247.62734
247.90619
248.14683
248.35295
248.53343
248.69984
248.86385
249.03487
249.21857
249.41655
249.62664
249.84374
250.06064
250.26907
250.46086
250.62879
250.76761
250.87395
247.61865
247.89862
248.14039
248.34743
248.52842
248.69488
248.85851
249.02881
249.21164
249.40878
249.61827
249.83513
250.05227
250.26145
250.45441
250.62389
250.76446
250.87266
250.94656
250.98468
247.60942
247.89058
248.13354
248.34155
248.52311
248.68965
248.85289
249.02243
249.20433
249.40057
249.60939
249.82599
250.04335
250.25328
250.44746
250.61855
250.76097
250.87114
250.94709
250.98735
250.98888
250.94479
247.59962
247.88201
248.12624
248.33529
248.51748
248.68413
248.84696
249.01572
249.19663
249.39191
249.59999
249.81626
250.03383
250.24452
250.43997
250.61275
250.75712
250.86937
250.94747
250.98998
250.9941
250.95318
250.85439
250.6808
247.58919
247.87289
248.11847
248.32864
248.51151
248.67829
248.84073
249.00866
249.18852
249.38275
249.59004
249.80593
250.02367
250.23512
250.4319
250.60644
250.75287
250.86734
250.94772
250.9926
250.99941
250.96183
250.86752
250.69956
250.44486
250.10829
247.57809
247.86317
248.11018
248.32155
248.50517
248.67212
248.83416
249.00124
249.17999
249.37309
249.57949
249.79494
250.01282
250.22504
250.42319
250.59958
250.74819
250.86501
250.9478
250.9952
251.00482
250.97075
250.88111
250.71905
250.47055
250.13831
249.74644
249.32766
248.8938
247.56629
247.85281
248.10134
248.314
248.49844
248.66561
248.82724
248.99343
249.171
249.3629
249.56832
249.78326
250.00123
250.21423
250.41379
250.59212
250.74303
250.86233
250.9477
250.99775
251.01032
250.97993
250.89517
250.73932
250.49744
250.17005
249.77983
249.35989
248.92444
248.45607
247.90752
247.55372
247.84175
248.09189
248.30595
248.49129
248.65872
248.81997
248.98523
249.16155
249.35215
249.55651
249.77084
249.98886
250.20262
250.40363
250.58398
250.73732
250.85927
250.94737
251.00023
251.0159
250.98933
250.90968
250.76037
250.52558
250.20364
249.81548
249.39457
248.95753
248.48906
247.94364
247.21918
245.94534
243.70409
247.54034
247.82996
248.08181
248.29735
248.48368
248.65144
248.81231
248.97661
249.15161
249.34082
249.544
249.75765
249.97565
250.19015
250.39264
250.57511
250.73101
250.85577
250.94678
251.00262
251.02153
250.99894
250.92461
250.78221
250.55503
250.23917
249.85358
249.43191
248.99329
248.52479
247.98282
247.26979
246.03746
243.9857
248.89242
249.00997
249.01806
247.52608
247.81736
248.07103
248.28817
248.4756
248.64373
248.80425
248.96756
249.14117
249.32888
249.53078
249.74363
249.96154
250.17676
250.38077
250.56543
250.72402
250.85176
250.94587
251.00487
251.02718
251.00871
250.93993
250.8048
250.58582
250.27676
249.89432
249.47214
249.03198
248.56351
248.02535
247.32475
246.13928
244.25843
248.89752
249.01254
249.0194
247.51089
247.8039
248.05949
248.27836
248.46699
248.63559
248.79577
248.95807
249.13021
249.31631
249.5168
249.72874
249.94647
250.16237
250.36792
250.55486
250.71628
250.84718
250.94458
251.00694
251.03283
251.01863
250.95556
250.82808
250.61794
250.31652
249.93791
249.51554
249.07387
248.60551
248.07154
247.3846
246.25187
244.52602
248.91646
249.01522
249.02074
247.49469
247.78951
248.04714
248.26787
248.45781
248.62696
248.78685
248.94811
249.11871
249.30309
249.50203
249.71293
249.93039
250.14692
250.35401
250.54331
250.7077
250.84194
250.94285
251.00878
251.03842
251.02864
250.97147
250.85198
250.65136
250.3585
249.98457
249.56241
249.11929
248.6511
248.12174
247.44979
246.37455
244.80253
248.9315
249.01787
249.02206
247.47741
247.77412
248.0339
248.25663
248.44802
248.61782
248.77746
248.93767
249.10665
249.28919
249.48644
249.69616
249.91322
250.1303
250.33894
250.53067
250.69817
250.83595
250.9406
251.01033
251.04392
251.03871
250.98756
250.87638
250.68597
250.40276
250.03449
249.61307
249.16858
248.70062
248.17631
247.52086
246.50706
245.10043
248.94641
249.02053
249.02338
247.45898
247.75764
248.01971
248.24458
248.43757
248.60813
248.76759
248.92674
249.09403
249.27459
249.46999
249.67836
249.89489
250.11246
250.32263
250.51685
250.6876
250.82912
250.93774
251.01151
251.04927
251.04877
251.00378
250.90116
250.72164
250.44923
250.08786
249.66786
249.22213
248.75447
248.23564
247.59826
246.64958
245.42389
248.95834
249.02322
249.02473
247.4393
247.74
248.00448
248.23166
248.42641
248.59785
248.7572
248.91529
249.08082
249.25928
249.45266
249.65951
249.87535
250.09328
250.30495
250.50172
250.67585
250.82131
250.93416
251.01224
251.0544
251.05877
251.02002
250.92616
250.75817
250.49785
250.14483
249.72715
249.2804
248.81311
248.3002
247.68252
246.80246
245.77264
248.96677
249.02595
249.02609
247.41829
247.7211
247.98812
248.21777
248.41446
248.58694
248.74626
248.90331
249.06701
249.24324
249.43442
249.63954
249.85452
250.07269
250.2858
250.48515
250.66279
250.81241
250.92975
251.01243
251.05924
251.06866
251.03622
250.95124
250.79532
250.5484
250.20549
249.79134
249.34391
248.87703
248.3705
247.77414
246.96611
246.14373
248.97305
249.02875
249.0275
247.39586
247.70083
247.97053
248.20284
248.40165
248.57534
248.73474
248.89077
249.05259
249.22645
249.41524
249.61842
249.83232
250.05057
250.26505
250.46699
250.64826
250.80225
250.92436
251.01195
251.06371
251.07836
251.05229
250.97621
250.83279
250.60058
250.26982
249.86079
249.4132
248.94682
248.44708
247.87363
247.14068
246.52973
248.97688
249.03165
249.02894
247.37189
247.67908
247.9516
248.18676
248.38791
248.56299
248.72261
248.87767
249.03756
249.20892
249.39511
249.59611
249.80869
250.02684
250.24257
250.4471
250.63211
250.79067
250.91784
251.01067
251.06769
251.08779
251.06814
251.00091
250.87023
250.65397
250.33763
249.93582
249.4889
249.02314
248.53058
247.9815
247.326
246.92631
248.97879
249.03463
249.03044
247.34628
247.65574
247.93121
248.16943
248.37314
248.54983
248.70982
248.86398
249.02191
249.19062
249.374
249.57256
249.78357
250.00138
250.21822
250.42531
250.61413
250.77747
250.91
251.00843
251.07106
251.09688
251.08371
251.0252
250.90727
250.70798
250.40854
250.01662
249.57165
249.10674
248.62169
248.09824
247.52158
247.32298
248.97905
249.03771
249.03201
247.31892
247.63067
247.90923
248.15072
248.35724
248.53578
248.69632
248.84968
249.00562
249.17157
249.35192
249.54776
249.7569
249.97411
250.19187
250.40144
250.59414
250.76244
250.90063
251.00503
251.07367
251.10552
251.09892
251.04893
250.94356
250.76193
250.48186
250.10317
249.66209
249.19845
248.72117
248.22433
247.72642
247.70938
248.97782
249.04088
249.03366
247.28966
247.60374
247.88552
248.13048
248.3401
248.52074
248.68206
248.83474
248.98871
249.15177
249.32886
249.52168
249.72862
249.94492
250.16337
250.3753
250.5719
250.74533
250.88949
251.00027
251.07534
251.11358
251.11371
251.07202
250.97877
250.81502
250.55661
250.19511
249.76076
249.2992
248.82991
248.36021
247.93901
248.06923
248.97566
249.04412
249.03541
247.25839
247.57479
247.85991
248.10858
248.32157
248.50462
248.66696
248.81913
248.97116
249.13124
249.30484
249.49432
249.69869
249.91373
250.13257
250.34669
250.54717
250.72588
250.8763
250.99387
251.07586
251.12092
251.12799
251.09441
251.01266
250.86647
250.63143
250.29152
249.86795
249.40993
248.94884
248.50622
248.157
248.38589
248.97292
249.04742
249.03726
247.22497
247.54366
247.83223
248.08484
248.3015
248.4873
248.65096
248.80281
248.95297
249.10998
249.27988
249.46568
249.66707
249.88044
250.09934
250.31542
250.5197
250.70379
250.86075
250.98553
251.07495
251.12735
251.14169
251.1161
251.0451
250.91557
250.70471
250.39075
249.98338
249.53147
249.07893
248.66257
248.37714
248.64668
248.97038
249.05076
249.03925
247.18924
247.51017
247.80228
248.05906
248.27972
248.46863
248.63395
248.78573
248.93414
249.08804
249.25402
249.43579
249.63377
249.845
250.06353
250.28126
250.48922
250.67874
250.84248
250.97489
251.0723
251.13261
251.15467
251.1371
251.0761
250.96183
250.77473
250.49028
250.1058
249.66423
249.22101
248.82909
248.59507
248.84781
248.96873
249.05414
249.0414
247.15107
247.47415
247.76987
248.03103
248.25603
248.44845
248.61581
248.76783
248.91465
249.06543
249.2273
249.40468
249.59878
249.80736
250.02503
250.24403
250.45542
250.65036
250.8211
250.96156
251.06752
251.1364
251.16677
251.15743
251.10584
251.00512
250.84001
250.5868
250.23229
249.80755
249.37535
249.0048
248.80511
248.99476
248.96863
249.05757
249.04372
247.1103
247.43538
247.73476
248.00052
248.23021
248.42656
248.59641
248.74903
248.8945
249.04219
249.19979
249.37244
249.56215
249.76749
249.98373
250.20351
250.41803
250.61829
250.79616
250.94505
251.06015
251.13833
251.17773
251.17707
251.13456
251.04571
250.89973
250.67679
250.3579
249.95853
249.5407
249.18709
249.00016
249.09792
248.97054
249.06107
249.04625
247.06677
247.39368
247.69671
247.96725
248.202
248.40275
248.57557
248.72924
248.87364
249.01837
249.17157
249.33914
249.52394
249.72541
249.93956
250.15953
250.37675
250.58213
250.76719
250.92484
251.04966
251.1379
251.18717
251.1959
251.16257
251.08425
250.95402
250.75758
250.476
250.11062
249.71255
249.37021
249.17216
249.16905
248.97467
249.06468
249.04902
247.02033
247.34881
247.65545
247.93095
248.1711
248.37675
248.55309
248.70832
248.85205
248.99398
249.14273
249.30491
249.48427
249.68119
249.89249
250.11195
250.3313
250.54146
250.73367
250.90033
251.03541
251.13451
251.19459
251.21364
251.19002
251.12159
251.00408
250.82853
250.58047
250.2535
249.88109
249.5441
249.31458
249.21924
248.98126
249.06846
249.05207
246.97083
247.30058
247.61071
247.89129
248.13719
248.34825
248.52873
248.6861
248.82964
248.96906
249.11338
249.26989
249.44329
249.63492
249.84254
250.06066
250.28143
250.49588
250.69504
250.87086
251.01669
251.12743
251.19936
251.22985
251.21689
251.15849
251.0518
250.8916
250.669
250.3769
250.03236
249.6963
249.42616
249.25754
248.9906
249.07252
249.05542
246.91813
247.24874
247.56219
247.84792
248.0999
248.3169
248.50218
248.66238
248.8063
248.9436
249.0836
249.23427
249.4012
249.58678
249.7898
250.0056
250.22692
250.445
250.65075
250.83573
250.99269
251.11581
251.20063
251.24383
251.24283
251.19537
251.09901
250.95049
250.74493
250.47776
250.15643
249.81949
249.5127
249.29063
249.00314
249.07703
249.05914
246.86209
247.19308
247.50959
247.80048
248.05881
248.28229
248.47307
248.63687
248.7819
248.9176
249.05352
249.19824
249.35825
249.53702
249.73444
249.94683
250.16764
250.38846
250.60022
250.79417
250.9625
251.09866
251.19741
251.25466
251.26715
251.2321
251.1469
251.00885
250.81498
250.56295
250.25637
249.91811
249.58467
249.32336
249.01942
249.08223
249.06329
246.80262
247.1334
247.45259
247.74854
248.01347
248.24395
248.44097
248.60923
248.75619
248.89097
249.02322
249.16202
249.31474
249.48595
249.67672
249.88449
250.10354
250.32599
250.54294
250.74542
250.92514
251.07486
251.18853
251.2612
251.28883
251.26799
251.19561
251.06885
250.88517
250.64306
250.34476
250.00483
249.65288
249.3599
249.04025
249.08847
249.06796
246.73963
247.06949
247.39087
247.69171
247.96337
248.20134
248.40538
248.57904
248.7289
248.8636
248.99274
249.12583
249.27101
249.43398
249.61705
249.81885
250.0347
250.25742
250.47842
250.6887
250.87958
251.04318
251.17262
251.26206
251.30656
251.30192
251.24444
251.13087
250.95844
250.72547
250.43317
250.09161
249.72569
249.40419
249.06696
249.09634
249.0733
246.67308
247.00119
247.32414
247.62953
247.90798
248.15387
248.36569
248.54575
248.69962
248.83527
248.9621
249.08987
249.22746
249.38161
249.55592
249.75035
249.96138
250.18274
250.40634
250.62333
250.82477
251.00226
251.14812
251.25558
251.31871
251.33238
251.29213
251.19411
251.0351
250.81285
250.52739
250.18555
249.80855
249.45979
249.10166
249.10675
249.07952
246.60297
246.92837
247.2521
247.56157
247.84671
248.10085
248.32119
248.50872
248.66783
248.80565
248.93119
249.05431
249.18447
249.32939
249.49399
249.67961
249.88406
250.10215
250.32655
250.54872
250.75972
250.95071
251.11333
251.23986
251.32334
251.35755
251.33706
251.25723
251.11424
250.9052
250.62893
250.28949
249.9045
249.52973
249.14739
249.12122
249.08697
246.52938
246.85096
247.17453
247.48739
247.77896
248.04156
248.2711
248.46717
248.63285
248.77426
248.89981
249.01924
249.14241
249.27796
249.43203
249.60744
249.80344
250.01613
250.23914
250.46453
250.68354
250.88713
251.06639
251.21273
251.31811
251.37513
251.37717
251.31853
251.19457
251.00166
250.73759
250.40408
250.01513
249.61692
249.20816
249.14219
249.09629
246.45244
246.76896
247.09121
247.40661
247.70412
247.9752
248.2145
248.42016
248.59384
248.74045
248.86757
248.9846
249.1016
249.22795
249.37094
249.53486
249.72053
249.92548
250.14458
250.37072
250.59561
250.81027
251.00543
251.1718
251.30032
251.38234
251.40984
251.37582
251.27443
251.10114
250.85275
250.52918
250.14107
249.72405
249.28885
249.17361
249.10863
246.37239
246.68244
247.00206
247.31887
247.6216
247.90096
248.15039
248.36661
248.54974
248.70332
248.83385
248.95015
249.06223
249.17995
249.31167
249.46308
249.63662
249.83141
250.04376
250.26769
250.49569
250.71912
250.92867
251.11457
251.26689
251.37576
251.43169
251.42607
251.3515
251.2021
250.97358
250.66444
250.28248
249.85307
249.39456
249.22144
249.12626
246.28955
246.59161
246.90705
247.22392
247.53086
247.81799
248.07771
248.30529
248.49929
248.66171
248.79777
248.9154
249.02425
249.13445
249.25519
249.39346
249.55329
249.73554
249.9381
250.15644
250.38411
250.61319
250.83466
251.03861
251.21452
251.35145
251.43849
251.46521
251.42231
251.30207
251.09865
250.80922
250.4392
250.00505
249.52974
249.29383
249.15354
246.20439
246.49679
246.80633
247.12162
247.43143
247.7255
247.99532
248.23484
248.44101
248.61419
248.75809
248.87947
248.98732
249.0917
249.20236
249.3274
249.47238
249.6399
249.82964
250.03868
250.26198
250.49271
250.72254
250.94186
251.13992
251.30508
251.42514
251.48791
251.48192
251.39707
251.22535
250.96221
250.61074
250.18049
249.69749
249.40031
249.19855
246.11749
246.39848
246.7002
247.012
247.323
247.62277
247.90212
248.15379
248.37321
248.55899
248.71317
248.84106
248.95066
249.05158
249.15379
249.26625
249.39587
249.54693
249.72096
249.91688
250.13132
250.3589
250.59242
250.82302
251.04025
251.23224
251.38593
251.48762
251.5236
251.48109
251.34917
251.12076
250.79604
250.37939
249.89953
249.55011
249.27458
246.02959
246.29735
246.58917
246.89531
247.20544
247.50925
247.79706
248.06065
248.29401
248.49402
248.66093
248.79834
248.91291
249.01342
249.10966
249.21107
249.32567
249.45928
249.61524
249.7944
249.99528
250.21427
250.44572
250.68203
250.91363
251.12904
251.31499
251.45675
251.53876
251.54549
251.46265
251.27963
250.99259
250.60138
250.13671
249.75044
249.39998
245.94158
246.19426
246.47399
246.77205
247.07892
247.38459
247.67926
247.95396
248.20143
248.41694
248.59884
248.74888
248.87202
248.97584
249.06947
249.16242
249.26343
249.37961
249.51598
249.67529
249.8581
250.06277
250.28558
250.52066
250.75992
250.99296
251.20709
251.38742
251.51727
251.57883
251.55448
251.42941
251.19444
250.84456
250.40961
250.00677
249.59613
245.8545
246.09028
246.35565
246.64306
246.94391
247.24882
247.54812
247.83244
248.09353
248.3252
248.52398
248.68962
248.82515
248.93653
249.03179
249.11999
249.21014
249.31025
249.42674
249.56415
249.72503
249.90988
250.11711
250.34299
250.58142
250.82382
251.05894
251.27274
251.44853
251.56734
251.60901
251.55464
251.38906
251.10161
250.71718
250.32461
249.8867
245.76954
245.98669
246.23547
246.50951
246.80131
247.10237
247.40346
247.69513
247.96852
248.21622
248.4331
248.61691
248.76859
248.89212
248.99399
249.08228
249.1657
249.25267
249.35064
249.46562
249.602
249.76237
249.94739
250.15569
250.38359
250.6249
250.8706
251.1086
251.32353
251.49676
251.60715
251.633
251.55385
251.35352
251.04912
250.70489
250.29142
245.68803
245.88499
246.115
246.37293
246.6525
246.94622
247.24563
247.5416
247.825
248.08759
248.32284
248.52664
248.6978
248.83809
248.95203
249.04621
249.12844
249.20698
249.28972
249.38375
249.49495
249.62781
249.78515
249.96802
250.17536
250.40375
250.64704
250.89596
251.13772
251.3557
251.52976
251.63753
251.65546
251.56343
251.3705
251.11867
250.78429
245.6114
245.78683
245.9961
246.23529
246.49933
246.78197
247.07572
247.37212
247.66222
247.93738
248.19004
248.41453
248.60761
248.7688
248.90034
249.00683
249.09464
249.17115
249.24412
249.32108
249.40894
249.51367
249.64
249.79122
249.96887
250.17243
250.39896
250.64262
250.89412
251.14023
251.3637
251.54384
251.65676
251.68104
251.61894
251.49337
251.28159
245.54117
245.69402
245.88087
246.09887
246.3442
246.61188
246.89562
247.1879
247.48038
247.76448
248.03213
248.27649
248.49258
248.67775
248.83186
248.95719
249.0581
249.14049
249.21122
249.27761
249.34692
249.42604
249.52112
249.63733
249.77851
249.94692
250.14282
250.36402
250.60526
250.85762
251.10813
251.33973
251.53092
251.6615
251.72929
251.7422
251.67519
245.47886
245.60846
245.77155
245.96629
246.18999
246.43893
246.70812
246.99123
247.28088
247.56903
247.84762
248.10921
248.34754
248.5581
248.73846
248.88845
249.01004
249.10707
249.18483
249.24961
249.30831
249.36796
249.43548
249.51729
249.61907
249.74538
249.8994
250.08242
250.29328
250.5277
250.77783
251.03158
251.27199
251.48225
251.65827
251.798
251.87384
245.426
245.53206
245.67053
245.84038
246.03996
246.2667
246.51691
246.7856
247.06658
247.35278
247.63671
247.91089
248.16841
248.40344
248.61162
248.79043
248.93932
249.05968
249.15462
249.2287
249.28756
249.33761
249.38565
249.43858
249.50313
249.58554
249.69124
249.82451
249.98789
250.18161
250.403
250.64567
250.89861
251.1502
251.39665
251.63141
251.82616
245.38402
245.46669
245.58016
245.72408
245.89763
246.09927
246.3265
246.57564
246.84188
247.1194
247.40171
247.68193
247.95318
248.20897
248.44363
248.65271
248.83332
248.98429
249.10617
249.20121
249.27304
249.32653
249.36747
249.40229
249.43782
249.48104
249.53881
249.6175
249.72259
249.85816
250.02625
250.22599
250.45285
250.70162
250.97103
251.25435
251.52567
245.35423
245.41406
245.5027
245.62026
245.76659
245.94097
246.14193
246.36699
246.61267
246.87456
247.14748
247.42565
247.70286
247.97276
248.22913
248.46631
248.67957
248.86543
249.02191
249.14858
249.24657
249.31843
249.36801
249.40027
249.4211
249.43712
249.45548
249.4836
249.5288
249.59792
249.69673
249.82903
249.99624
250.19967
250.44219
250.71976
251.01222
245.33777
245.37572
245.44018
245.5316
245.65029
245.79616
245.96852
246.1659
246.386
246.62576
246.88143
247.14862
247.42235
247.69708
247.9669
248.22582
248.46809
248.68862
248.88325
249.04905
249.18442
249.28917
249.36451
249.413
249.43852
249.44615
249.4421
249.43353
249.42834
249.4348
249.46109
249.51439
249.60073
249.72681
249.89964
250.11911
250.37264
245.33555
245.35294
245.39434
245.46044
245.55184
245.66889
245.81145
245.9788
246.16955
246.3818
246.61313
246.86061
247.12072
247.38928
247.66142
247.93171
248.1944
248.4437
248.67416
248.88098
249.06017
249.20885
249.32529
249.40908
249.46119
249.48409
249.48177
249.45975
249.42502
249.38586
249.35137
249.33071
249.333
249.3685
249.44719
249.57242
249.73844
245.34828
245.34669
245.36657
245.40868
245.47384
245.56264
245.67533
245.81165
245.97088
246.15194
246.35345
246.57376
246.8108
247.06193
247.32376
247.59216
247.86226
248.1287
248.38586
248.62809
248.84998
249.04659
249.21364
249.34776
249.44666
249.50945
249.53681
249.53128
249.49737
249.44168
249.3726
249.2998
249.23409
249.18783
249.17293
249.19552
249.25492
245.37638
245.35765
245.35783
245.37775
245.41826
245.48016
245.56389
245.66951
245.79668
245.94483
246.11326
246.30123
246.5078
246.73171
246.97113
247.22351
247.48553
247.75311
248.02156
248.28564
248.53983
248.77838
248.99557
249.18588
249.34428
249.46654
249.54961
249.59207
249.59456
249.56013
249.49442
249.40554
249.30415
249.20341
249.11656
249.0528
249.01643
245.42006
245.38615
245.36872
245.36853
245.38646
245.42336
245.47985
245.55614
245.65214
245.76753
245.90198
246.05521
246.22699
246.41699
246.62458
246.84868
247.08757
247.33889
247.59956
247.86585
248.13333
248.39697
248.65119
248.88993
249.10685
249.29558
249.4501
249.56521
249.6371
249.66401
249.64673
249.5891
249.49853
249.38599
249.26405
249.14384
249.03439
245.47926
245.43223
245.39941
245.38145
245.37917
245.39343
245.4249
245.47397
245.5407
245.62492
245.72646
245.84521
245.98121
246.13452
246.30518
246.493
246.69749
246.91775
247.15242
247.39958
247.65671
247.9206
248.18726
248.45188
248.70886
248.95181
249.17383
249.36778
249.52677
249.64477
249.71728
249.74215
249.72054
249.65722
249.55957
249.43588
249.29523
245.55377
245.49565
245.4497
245.41645
245.39657
245.39082
245.3999
245.42431
245.46424
245.51971
245.59064
245.67702
245.77888
245.89635
246.02957
246.17862
246.34351
246.52414
246.72023
246.93132
247.15661
247.39492
247.64449
247.90285
248.16668
248.43173
248.69275
248.94354
249.17722
249.38647
249.56406
249.70354
249.80019
249.85156
249.85715
249.81803
249.73711
245.64317
245.57593
245.51906
245.47301
245.43825
245.41537
245.40499
245.4076
245.42354
245.45301
245.49611
245.55297
245.62368
245.70831
245.80687
245.91932
246.04557
246.18553
246.33917
246.5065
246.68759
246.88248
247.09108
247.31305
247.54757
247.79325
248.04791
248.30846
248.57085
248.83007
249.08026
249.31508
249.52819
249.7137
249.86619
249.9808
250.05369
245.74696
245.67245
245.60671
245.5502
245.50327
245.46627
245.43959
245.42362
245.41869
245.42514
245.44329
245.47349
245.51606
245.57118
245.63888
245.71899
245.81114
245.91492
246.02989
246.15574
246.29235
246.4398
246.59836
246.76847
246.95066
247.14539
247.35296
247.57331
247.80588
248.04942
248.3019
248.56043
248.8214
249.08046
249.33256
249.57207
249.79285
245.86453
245.78456
245.71176
245.64684
245.59018
245.54195
245.50227
245.47124
245.44903
245.4359
245.43228
245.43872
245.45582
245.4841
245.52387
245.57515
245.63761
245.71069
245.79362
245.88557
245.98576
246.09353
246.20848
246.33048
246.45971
246.59671
246.74231
246.8976
247.06383
247.24227
247.43405
247.63995
247.86026
248.09452
248.34141
248.59863
248.86253
245.99501
245.91161
245.83344
245.7618
245.69735
245.64031
245.59063
245.54811
245.51257
245.484
245.46262
245.44893
245.44366
245.4476
245.46147
245.48574
245.52054
245.56566
245.62055
245.68435
245.75602
245.83441
245.91835
246.00672
246.09863
246.19343
246.29086
246.39111
246.49484
246.60322
246.71787
246.84076
246.97403
247.11974
247.27973
247.45544
247.64721
246.13699
246.05277
245.97117
245.89431
245.82347
245.75927
245.70178
245.6507
245.60557
245.56595
245.53163
245.50275
245.47974
245.46333
245.45432
245.45353
245.4616
245.47892
245.50562
245.54147
245.58596
245.6383
245.69741
245.76205
245.83081
245.90225
245.97499
246.0478
246.11975
246.19028
246.25931
246.32727
246.39507
246.46401
246.53575
246.61224
246.69505
246.20651
246.12426
246.04407
245.96809
245.89768
245.83346
245.77541
245.72312
245.67595
245.63328
245.5947
245.56008
245.52958
245.50363
245.48281
245.46778
245.45923
245.45774
245.46382
245.47777
245.49973
245.52958
245.56696
245.61123
245.66153
245.71677
245.77568
245.83687
245.89895
245.96055
246.02045
246.07761
246.13122
246.1808
246.2262
246.26717
246.36954
246.29096
246.21061
246.13152
246.05594
245.98537
245.92056
245.86159
245.80813
245.75955
245.71518
245.67437
245.63666
245.60172
245.56943
245.53985
245.51319
245.48981
245.4702
245.45494
245.44467
245.44004
245.44165
245.45004
245.46561
245.48862
245.51909
245.55686
245.60151
245.65241
245.70869
245.76927
245.83292
245.89838
245.96432
246.02908
246.53543
246.46682
246.39161
246.3134
246.23523
246.1595
246.08791
246.02148
245.96066
245.90543
245.85543
245.8101
245.76872
245.73052
245.69472
245.66057
245.62745
245.59489
245.56259
245.53049
245.49877
245.46781
245.43825
245.41088
245.38664
245.3666
245.35184
245.34345
245.34239
245.34951
245.36542
245.39043
245.42462
245.46779
245.51955
245.57888
246.69359
246.64284
246.58037
246.50984
246.43461
246.35765
246.28144
246.20791
246.13852
246.07421
246.01552
245.9626
245.91524
245.87294
245.83493
245.80022
245.76773
245.73632
245.70488
245.67244
245.63819
245.60157
245.56229
245.52034
245.47603
245.42995
245.38297
245.33617
245.29082
245.24824
245.20978
245.1767
245.15012
245.13109
245.12047
245.11866
246.82923
246.80464
246.76386
246.71013
246.64659
246.57624
246.50179
246.4257
246.35008
246.27674
246.20716
246.1425
246.08352
246.03063
245.98384
245.94278
245.90677
245.87486
245.8459
245.81864
245.79179
245.76409
245.73441
245.70177
245.66543
245.6249
245.57999
245.5308
245.47769
245.42128
245.36238
245.30192
245.24092
245.1805
245.12183
245.06589
246.92509
246.93348
246.92273
246.89534
246.85389
246.80091
246.73885
246.67002
246.59663
246.52076
246.44436
246.36921
246.29689
246.22873
246.16574
246.1086
246.05765
246.0129
245.97405
245.94055
245.91162
245.88631
245.86356
245.84225
245.82126
245.79953
245.77609
245.75011
245.72094
245.6881
245.65129
245.61041
245.56552
245.51687
245.46488
245.41002
246.96452
247.00967
247.03452
247.04083
247.0305
247.00546
246.96762
246.91881
246.86082
246.79542
246.72435
246.64934
246.57209
246.49421
246.4172
246.34242
246.27102
246.20399
246.14207
246.08583
246.03558
245.99148
245.95344
245.92123
245.89444
245.87251
245.85477
245.84048
245.82882
245.81895
245.81001
245.80118
245.79169
245.78087
245.76816
245.75297
246.93477
247.01673
247.07888
247.12223
247.14809
247.15786
247.15299
247.13487
247.10484
247.06418
247.01413
246.95595
246.89085
246.82006
246.74479
246.66624
246.58558
246.50396
246.42252
246.34234
246.26446
246.18989
246.11953
246.05422
245.99465
245.94142
245.89495
245.85553
245.82325
245.79806
245.77972
245.76786
245.76196
245.76147
245.76577
245.77399
246.82905
246.94443
247.04191
247.12165
247.18426
247.23067
247.26197
247.27929
247.28377
247.27649
247.25843
247.23052
247.19358
247.14837
247.09556
247.0358
246.96969
246.89787
246.82096
246.73968
246.65478
246.56711
246.47758
246.38719
246.29697
246.20798
246.12129
246.03792
245.95885
245.88495
245.81698
245.75555
245.70114
245.65417
245.61495
245.58347
246.64704
246.78932
246.91718
247.02972
247.12661
247.20802
247.27447
247.32676
247.36586
247.39279
247.40861
247.41431
247.41079
247.39885
247.37913
247.35213
247.31824
247.27775
247.23084
247.1777
247.11849
247.0534
246.98267
246.90663
246.82567
246.7403
246.65108
246.55868
246.46381
246.36724
246.26973
246.17207
246.07502
245.97937
245.88595
245.79543
246.39577
246.55475
246.70465
246.84353
246.96997
247.08306
247.18237
247.26789
247.33995
247.39918
247.44642
247.48265
247.50892
247.52629
247.53573
247.53817
247.53439
247.52505
247.51067
247.49165
247.46828
247.44077
247.40924
247.37376
247.33438
247.29111
247.24399
247.19307
247.1384
247.08009
247.01826
246.95307
246.88473
246.81348
246.73966
246.66362
246.09242
246.25358
246.41236
246.56634
246.71335
246.85155
246.97946
247.09597
247.20036
247.29227
247.37168
247.43889
247.49444
247.53907
247.57366
247.59919
247.61668
247.62716
247.63161
247.63101
247.62624
247.6181
247.60732
247.59452
247.58023
247.56487
247.54877
247.53219
247.51528
247.49814
247.48079
247.46322
247.44537
247.42716
247.40852
247.38931
245.76768
245.91373
246.06368
246.21548
246.36703
246.51628
246.66131
246.80032
246.93176
247.05429
247.16685
247.26868
247.35926
247.43837
247.50602
247.56243
247.60803
247.64339
247.66921
247.68632
247.69561
247.698
247.69449
247.68602
247.67357
247.65804
247.64028
247.62108
247.60115
247.5811
247.56147
247.54268
247.5251
247.50903
247.49473
247.48223
245.46321
245.57927
245.70286
245.83287
245.96801
246.10686
246.24787
246.38947
246.53008
246.66813
246.80217
246.93082
247.05288
247.16731
247.27324
247.36997
247.45701
247.534
247.6008
247.6574
247.70397
247.7408
247.76832
247.78704
247.79757
247.80059
247.79682
247.78699
247.77186
247.75219
247.72868
247.70203
247.67289
247.64192
247.60974
247.5768
245.21895
245.29866
245.38598
245.48071
245.58247
245.69074
245.80484
245.92393
246.0471
246.1733
246.30145
246.43045
246.55918
246.68655
246.81155
246.93318
247.05056
247.16288
247.26942
247.36958
247.46285
247.54887
247.62736
247.69816
247.7612
247.81653
247.86428
247.90464
247.93787
247.96431
247.9843
247.99825
248.00657
248.00975
248.00823
248.00238
245.05577
245.10329
245.15605
245.21434
245.2783
245.348
245.42343
245.50444
245.59078
245.6821
245.77797
245.87788
245.98125
246.08749
246.19595
246.30599
246.41696
246.52821
246.63911
246.74905
246.85745
246.96378
247.06753
247.16828
247.26564
247.35927
247.44889
247.53428
247.61528
247.69175
247.76364
247.83091
247.89359
247.95175
248.00547
248.05467
244.96744
244.9933
245.02165
245.05279
245.08697
245.12443
245.16536
245.20992
245.25818
245.31019
245.36591
245.42527
245.48813
245.55434
245.62369
245.69596
245.77088
245.84818
245.92758
246.00876
246.09141
246.1752
246.25983
246.34496
246.43029
246.51551