/*--------------------------------*- C++ -*----------------------------------*\
| =========                 |                                                 |
| \\      /  F ield         | OpenFOAM: The Open Source CFD Toolbox           |
|  \\    /   O peration     | Version:  2506                                  |
|   \\  /    A nd           | Website:  www.openfoam.com                      |
|    \\/     M anipulation  |                                                 |
\*---------------------------------------------------------------------------*/
FoamFile
{
    version     2.0;
    format      ascii;
    arch        "LSB;label=32;scalar=64";
    class       volVectorField;
    location    "0.012";
    object      U;
}
// * * * * * * * * * * * * * * * * * * * * * * * * * * * * * * * * * * * * * //

dimensions      [0 1 -1 0 0 0 0];

internalField   nonuniform List<vector> 
13761
(
(66.285382 -0.016894621 0)
(66.997489 0.087925827 0)
(67.642914 0.054495307 1.8908608e-20)
(67.646632 0.056131586 -1.0282008e-20)
(67.00111 0.089482837 -1.5527286e-22)
(66.290129 -0.015208635 0)
(65.535984 0.15055619 -6.9410697e-23)
(64.890758 0.33491758 6.561923e-23)
(67.650169 0.057467285 9.8101567e-21)
(67.004542 0.090797185 1.4836332e-22)
(66.294547 -0.01382436 0)
(65.538478 0.15178099 0)
(64.893819 0.33619314 7.9998598e-21)
(64.216472 0.25910981 -3.7744635e-21)
(63.383309 0.28894668 7.2971143e-21)
(67.653635 0.058901636 0)
(67.007892 0.092195618 1.4934137e-22)
(66.298876 -0.012336983 1.7940443e-20)
(65.540791 0.15311302 2.7131133e-22)
(64.896798 0.33755902 -8.3965994e-21)
(64.220279 0.26076955 6.172375e-23)
(63.385785 0.29098449 -7.6069883e-21)
(62.468526 0.04133976 1.4648138e-20)
(61.654229 -0.20905369 -7.2413196e-21)
(67.657051 0.060433885 3.0959046e-22)
(67.011179 0.093684614 -3.8651913e-20)
(66.303137 -0.010751252 -1.8273837e-20)
(65.542936 0.1545466 0)
(64.899715 0.33901626 0)
(64.22397 0.26253417 -1.636107e-20)
(63.387885 0.29314896 1.2170359e-22)
(62.472402 0.043596396 -1.5174477e-20)
(61.657902 -0.20732506 7.5815514e-21)
(60.984567 0.18108425 2.2272084e-20)
(60.376061 0.45814228 0)
(67.660432 0.062058472 -1.5364012e-22)
(67.014417 0.095260561 7.6862014e-20)
(66.307343 -0.0090697184 -1.4497342e-22)
(65.544916 0.15606861 1.3986241e-22)
(64.902578 0.34055925 -3.4628571e-20)
(64.227549 0.26440487 -1.6378315e-20)
(63.3896 0.29543522 -1.2530853e-22)
(62.476006 0.04601381 0)
(61.661471 -0.20549403 0)
(60.986691 0.18246464 -1.5474465e-20)
(60.379121 0.45991304 0)
(59.602115 0.34688727 1.4606628e-20)
(58.571134 0.066507952 1.4012248e-20)
(67.663802 0.063778579 -7.7805578e-20)
(67.017627 0.096926749 3.8234097e-20)
(66.311512 -0.0072881439 3.7115207e-20)
(65.546739 0.15768389 3.6478033e-20)
(64.905404 0.34219215 7.0150225e-20)
(64.231033 0.26638853 3.3878235e-20)
(63.390937 0.29785705 -3.2950004e-20)
(62.479351 0.048549444 0)
(61.664946 -0.20353869 -3.2271579e-20)
(60.988829 0.18389748 0)
(60.382264 0.46178123 -1.5666697e-20)
(59.603618 0.34970862 -1.5299471e-20)
(58.571729 0.069930011 -2.9434502e-20)
(57.493915 -0.29232735 0)
(56.451681 -0.14359678 -6.8113522e-21)
(67.667189 0.06560112 1.5347315e-19)
(67.020833 0.098689276 -2.968788e-22)
(66.315668 -0.0053994327 -3.6857822e-20)
(65.54842 0.15939771 -3.6612705e-20)
(64.908214 0.34392041 -3.5558236e-20)
(64.234438 0.26849346 3.4526936e-20)
(63.391902 0.30042432 6.7630399e-20)
(62.482448 0.051233313 1.2999521e-22)
(61.668335 -0.20145788 3.3174412e-20)
(60.990992 0.18545749 1.2982679e-22)
(60.38551 0.46377945 1.6200342e-20)
(59.604817 0.35273657 -1.5869483e-20)
(58.57167 0.073625348 1.5369929e-20)
(57.494287 -0.28879888 5.8114695e-23)
(56.451965 -0.1405548 1.4245517e-20)
(55.463161 0.29256914 -1.3465922e-20)
(54.415211 0.7958003 6.1370989e-21)
(53.276236 1.0253287 1.6730588e-20)
(67.670622 0.067533316 -7.5451008e-20)
(67.024062 0.10055443 -2.2120257e-26)
(66.319839 -0.0033961643 0)
(65.549972 0.16121674 2.8618187e-22)
(64.911029 0.34575016 7.1441967e-20)
(64.237786 0.27072852 -3.507947e-20)
(63.392505 0.30314847 -3.4466686e-20)
(62.485314 0.05407377 3.4129426e-20)
(61.671648 -0.19924352 -3.4279329e-20)
(60.993192 0.18712242 0)
(60.388877 0.46590677 -3.3822083e-20)
(59.605719 0.35593661 1.6489745e-20)
(58.570952 0.077505925 0)
(57.49397 -0.28501837 0)
(56.451672 -0.13736105 1.50467e-20)
(55.463969 0.29571206 -5.5264925e-23)
(54.414808 0.79939936 0)
(53.27631 1.0297732 -8.0537942e-27)
(52.07648 0.6288108 1.1483245e-20)
(50.781766 0.24594931 -5.6292651e-21)
(67.674136 0.06958246 7.4547657e-20)
(67.027347 0.10252863 -7.430526e-20)
(66.324055 -0.0012707302 -5.7800979e-22)
(65.551414 0.16314799 2.863625e-22)
(64.913878 0.34768774 -7.2378591e-20)
(64.241101 0.27310303 -7.1194121e-20)
(63.392762 0.30604025 -1.3705898e-22)
(62.487968 0.05708451 -3.490536e-20)
(61.674902 -0.19688873 3.5046138e-20)
(60.995445 0.18890016 2.7597016e-22)
(60.392389 0.46817297 3.4669546e-20)
(59.60633 0.35934326 3.4322753e-20)
(58.569566 0.081629995 3.3195103e-20)
(57.492948 -0.28101482 1.2671092e-22)
(56.450786 -0.13391154 -4.7340634e-27)
(55.464341 0.29897542 -5.7995957e-23)
(54.413899 0.80316051 1.360863e-20)
(53.275992 1.0345266 -1.2397817e-20)
(52.078301 0.6343117 -2.4289251e-20)
(50.785115 0.25215207 -1.1923722e-20)
(49.290897 -0.060985536 -1.1266986e-20)
(47.584154 -0.015121383 -2.2381864e-23)
(67.67777 0.071756195 -7.2595937e-20)
(67.030725 0.10461857 5.7138777e-22)
(66.328351 0.00098489791 -7.3609607e-20)
(65.552768 0.16519884 -2.8575513e-22)
(64.916792 0.34973977 -7.2087739e-20)
(64.244415 0.27562682 7.1728545e-20)
(63.392692 0.30911052 0)
(62.490435 0.060275773 0)
(61.678113 -0.19438522 3.6005696e-20)
(60.99777 0.19079209 0)
(60.396071 0.4705861 3.58643e-20)
(59.606665 0.36297141 -3.5080411e-20)
(58.567509 0.086012672 -6.916668e-20)
(57.491209 -0.27675385 3.9362698e-26)
(56.449298 -0.13022799 -1.656538e-20)
(55.464274 0.30254627 6.0713863e-23)
(54.412478 0.80725811 5.5862063e-23)
(53.275288 1.0395833 -5.1258343e-23)
(52.080006 0.64027211 2.570889e-20)
(50.78853 0.25887666 1.2614474e-20)
(49.296245 -0.053511147 1.1911744e-20)
(47.589787 -0.0075922225 -1.217161e-20)
(45.999755 0.30012715 0)
(44.560767 0.48861025 5.7464877e-21)
(67.68157 0.074062939 -1.409762e-19)
(67.034236 0.10683156 1.4323456e-19)
(66.332768 0.0033796354 7.2704186e-20)
(65.554061 0.16737757 7.2427469e-20)
(64.919808 0.35191354 1.4563856e-19)
(64.24776 0.27831082 2.8301749e-22)
(63.392321 0.31237126 -7.2616239e-20)
(62.492747 0.063657571 2.8254676e-22)
(61.681302 -0.19172323 -3.6730306e-20)
(61.000187 0.1928057 -7.4255178e-20)
(60.399952 0.47315735 -3.6849096e-20)
(59.606736 0.36684288 -2.8488646e-22)
(58.564781 0.090681525 3.5800636e-20)
(57.488742 -0.27221821 -4.0922332e-26)
(56.447196 -0.12629131 1.3328077e-22)
(55.463765 0.30637447 3.2502897e-20)
(54.410537 0.81165053 -1.5000657e-20)
(53.2742 1.044975 1.3822519e-20)
(52.081619 0.64653995 -1.3537432e-20)
(50.792046 0.26595964 1.33321e-20)
(49.301844 -0.045458935 0)
(47.595689 0.00044994123 1.2920395e-20)
(46.004651 0.3076882 1.288061e-20)
(44.56237 0.49565144 -6.1099647e-21)
(43.278054 0.68235698 -2.3081756e-23)
(41.916118 0.6187495 2.3676022e-23)
(67.685588 0.076511746 4.3044592e-26)
(67.037931 0.10917551 -1.4065823e-19)
(66.337355 0.0059231364 2.7847072e-22)
(65.555325 0.16969288 7.203752e-20)
(64.922969 0.35421679 -7.2729163e-20)
(64.25118 0.28116691 5.6736551e-22)
(63.391681 0.3158358 7.2633359e-20)
(62.494942 0.067241131 8.283727e-26)
(61.684498 -0.18889229 -2.9171226e-22)
(61.002724 0.19495003 7.5768487e-20)
(60.40407 0.47589932 0)
(59.606567 0.37097839 0)
(58.561388 0.095659579 -1.4439806e-22)
(57.485544 -0.26738407 -3.6210429e-20)
(56.444479 -0.12209077 0)
(55.462818 0.31048279 -3.3908645e-20)
(54.408078 0.81636292 0)
(53.272745 1.0507245 -1.4535534e-20)
(52.083171 0.65321181 0)
(50.795711 0.27350872 -1.407316e-20)
(49.307754 -0.036899815 5.2508019e-23)
(47.601925 0.0090943149 1.3647594e-20)
(46.009679 0.3157552 -1.3658797e-20)
(44.5636 0.50318291 1.3028335e-20)
(43.275095 0.69008779 -2.4585969e-23)
(41.910593 0.62811495 -2.5237655e-23)
(40.219786 0.44460627 0)
(38.133019 0.27507829 -2.7058716e-23)
(36.083114 0.094847341 2.6520121e-23)
(67.689883 0.079112185 2.6527751e-19)
(67.041867 0.11165865 1.0697861e-21)
(66.342166 0.008625513 1.3912563e-19)
(65.556597 0.1721537 -1.4198743e-19)
(64.926325 0.35665731 -1.4365107e-19)
(64.254724 0.2842074 -2.8335423e-22)
(63.390813 0.31951778 -7.2960623e-20)
(62.497068 0.071038282 -7.3662883e-20)
(61.687731 -0.18588165 7.5381357e-20)
(61.005411 0.19723447 7.7050263e-20)
(60.408464 0.47882506 0)
(59.606188 0.3753984 0)
(58.557345 0.1009681 -3.8045002e-20)
(57.481618 -0.26223052 2.7966314e-26)
(56.441146 -0.11760926 -3.6791073e-20)
(55.461441 0.31487701 0)
(54.405105 0.82140518 1.2829343e-22)
(53.27094 1.056857 -3.0753251e-20)
(52.084701 0.66030972 1.1720117e-22)
(50.79958 0.28155026 -5.7956186e-23)
(49.314042 -0.027752627 5.5525738e-23)
(47.608568 0.018366236 -5.669973e-23)
(46.014903 0.32447752 1.1299555e-22)
(44.564486 0.51133941 -1.3818987e-20)
(43.271234 0.69840351 6.6896861e-21)
(41.903844 0.63822854 0)
(40.213426 0.45737837 -7.100541e-21)
(38.128699 0.28939689 -7.4158013e-21)
(36.081818 0.10779355 0)
(34.490666 -0.011505061 6.6503011e-21)
(33.372136 0.060264644 -6.0212269e-21)
(67.694521 0.081874556 -5.0228706e-22)
(67.046109 0.11428971 5.2019679e-22)
(66.347263 0.011497616 -1.3638071e-19)
(65.557923 0.17476963 -5.4682964e-22)
(64.929935 0.35924336 1.4219803e-19)
(64.258447 0.28744544 -1.4415104e-19)
(63.389767 0.32343183 1.457609e-19)
(62.49918 0.075061652 1.4902473e-19)
(61.69104 -0.1826798 -2.9061193e-26)
(61.008283 0.19966842 -1.5614654e-19)
(60.413181 0.48194839 -7.8721182e-20)
(59.605633 0.38012499 0)
(58.552672 0.10662987 3.8883894e-20)
(57.476968 -0.25673618 3.8994727e-20)
(56.437203 -0.11282644 -1.4857242e-22)
(55.459645 0.31957662 0)
(54.401629 0.82679983 0)
(53.268811 1.0633976 6.3932344e-20)
(52.086255 0.66787494 1.2311343e-22)
(50.803716 0.29013244 6.7187223e-26)
(49.320785 -0.017979059 -1.1732884e-22)
(47.615701 0.028313931 -1.5342431e-20)
(46.020402 0.33386427 0)
(44.565071 0.52013591 0)
(43.266472 0.70737295 -1.4263317e-20)
(41.895849 0.6490663 1.468544e-20)
(40.205884 0.47116765 -5.9303226e-23)
(38.123493 0.30483856 7.9286751e-21)
(36.080136 0.12172419 0)
(34.493262 -0.00099676353 -7.0819361e-21)
(33.376858 0.068270399 0)
(32.416442 0.33385532 5.990272e-21)
(31.202637 0.7481073 4.5525873e-23)
(29.681879 1.1380247 -2.3615045e-23)
(67.699581 0.084809998 -1.2406367e-19)
(67.050732 0.11707816 0)
(66.352717 0.014551308 -5.2173845e-22)
(65.559354 0.17755091 1.0729245e-21)
(64.933867 0.3619837 -1.0980214e-21)
(64.262417 0.29089547 2.870671e-19)
(63.388603 0.32759415 7.2817606e-20)
(62.501343 0.07932584 -7.4506952e-20)
(61.694468 -0.17927407 -1.5397502e-19)
(61.011383 0.20226158 1.5825171e-19)
(60.418274 0.48528431 7.9491064e-20)
(59.604949 0.38518315 0)
(58.547401 0.11267136 7.9526524e-20)
(57.471611 -0.25087717 3.103535e-22)
(56.43266 -0.1077204 3.9220504e-20)
(55.457451 0.32460591 -1.4818654e-22)
(54.397666 0.83257447 -3.533847e-20)
(53.266392 1.0703729 -3.3544628e-20)
(52.087888 0.67593985 1.289995e-22)
(50.808194 0.29929429 -2.5610281e-22)
(49.328075 -0.0075246456 1.237627e-22)
(47.623426 0.038985829 1.6197331e-20)
(46.026268 0.34397294 1.6212082e-20)
(44.565407 0.52963052 -1.2048461e-22)
(43.260819 0.71704488 -1.5067758e-20)
(41.886595 0.6607199 -1.5475695e-20)
(40.197154 0.48592957 8.074316e-21)
(38.117424 0.32139176 0)
(36.078134 0.13669044 -8.2131868e-21)
(34.496106 0.010265633 2.9404153e-23)
(33.382091 0.076817158 0)
(32.420712 0.34294788 -6.4612772e-21)
(31.20383 0.7599847 2.446041e-23)
(29.679855 1.1534069 3.2605351e-21)
(27.833497 1.3471623 3.745235e-21)
(25.9426 1.8438004 -3.2160717e-23)
(23.105084 2.3819016 6.0506826e-21)
(67.70515 0.087930592 -2.3891918e-19)
(67.055824 0.12003415 1.2499554e-19)
(66.35861 0.017799428 5.0740157e-22)
(65.560951 0.18050862 -5.2444725e-22)
(64.938197 0.36488773 1.387031e-19)
(64.26671 0.29457318 -5.5299762e-22)
(63.387392 0.33202225 -1.4468782e-19)
(62.503636 0.083846748 0)
(61.698068 -0.17565077 3.2650746e-26)
(61.014758 0.20502382 -7.9575957e-20)
(60.423806 0.48884888 3.1475745e-22)
(59.60419 0.39060038 -8.0839087e-20)
(58.541572 0.11912183 -1.6302559e-19)
(57.465569 -0.2446273 -3.1768713e-22)
(56.427538 -0.10226814 4.0617738e-20)
(55.454884 0.32999106 -1.5295255e-22)
(54.393243 0.83875867 3.7239098e-20)
(53.263729 1.0778118 -1.3608494e-22)
(52.089669 0.68453554 3.4381062e-20)
(50.813103 0.30907386 -3.4223552e-20)
(49.336019 0.0036614953 -3.3499984e-20)
(47.631859 0.050438246 1.3329519e-22)
(46.032616 0.35485629 -1.7020245e-20)
(44.565566 0.53987867 0)
(43.254297 0.72748171 1.5956172e-20)
(41.87608 0.67325415 0)
(40.187242 0.50178857 -6.7009696e-23)
(38.110532 0.33917976 1.777709e-20)
(36.0759 0.1527788 8.7484734e-21)
(34.499308 0.022417974 6.2419045e-23)
(33.387938 0.086116494 -5.6998965e-23)
(32.425492 0.35268605 0)
(31.205214 0.77277255 -6.7251349e-21)
(29.677661 1.1700427 0)
(27.82979 1.3661024 0)
(25.931397 1.8677371 0)
(23.125728 2.4916752 -1.296102e-20)
(67.711331 0.091249378 2.3000707e-19)
(67.061486 0.12316853 -1.2157143e-19)
(66.365036 0.021255955 -1.3618254e-25)
(65.562784 0.18365475 5.1116033e-22)
(64.943019 0.36796543 -4.9354098e-26)
(64.271416 0.2984956 -1.3941359e-19)
(63.386221 0.33673507 0)
(62.506153 0.088641613 -1.4787252e-19)
(61.701902 -0.17179503 2.3048611e-19)
(61.018467 0.20796536 3.1023917e-22)
(60.42985 0.49265932 -6.3340956e-22)
(59.603427 0.39640697 8.2333115e-20)
(58.535241 0.12601387 8.2908472e-20)
(57.458875 -0.2379579 -3.2381185e-22)
(56.421864 -0.096445278 -1.2413438e-19)
(55.451982 0.33575899 3.1459409e-22)
(54.388394 0.84538352 0)
(53.260876 1.0857454 3.6238828e-20)
(52.091678 0.69369593 -3.5994906e-20)
(50.818547 0.31951259 7.199765e-20)
(49.344744 0.015632394 -1.3686833e-22)
(47.641141 0.062733673 -5.3711029e-20)
(46.039579 0.36658051 -1.398422e-22)
(44.565638 0.55094883 -1.71687e-20)
(43.246948 0.73875097 0)
(41.864315 0.68674887 -1.7446434e-20)
(40.176171 0.51882764 1.8260314e-20)
(38.102876 0.35829424 -1.8925273e-20)
(36.073545 0.17007173 0)
(34.503 0.035497383 6.6150631e-23)
(33.394518 0.096164591 -7.8181112e-21)
(32.430882 0.36332948 2.8694886e-23)
(31.206862 0.78672017 1.4432868e-20)
(29.675335 1.1881069 -5.9288383e-23)
(27.825767 1.3866943 3.4010556e-23)
(25.919754 1.8935738 0)
(23.148713 2.6216342 1.3914414e-20)
(67.718241 0.094780339 2.2055616e-19)
(67.067836 0.12649284 1.231655e-25)
(66.372105 0.024935898 -4.7574628e-22)
(65.564939 0.18700208 0)
(64.948437 0.37122726 -1.326936e-19)
(64.276641 0.30268112 1.3733797e-19)
(63.385195 0.34175277 0)
(62.509003 0.093728733 1.4645444e-19)
(61.706042 -0.16769099 -1.5273988e-19)
(61.022576 0.21109681 -3.0952775e-22)
(60.436491 0.49673408 8.1549604e-20)
(59.602743 0.40263598 0)
(58.528479 0.13338313 0)
(57.451576 -0.23083793 3.2896817e-22)
(56.415676 -0.090226474 1.6841036e-19)
(55.448791 0.34193765 -8.2900047e-20)
(54.383168 0.85248139 0)
(53.257908 1.0942067 -3.728228e-20)
(52.094015 0.70345799 -2.9236024e-22)
(50.824649 0.33065565 -3.7472208e-20)
(49.354397 0.0284447 3.6752888e-20)
(47.651436 0.075938987 3.7662315e-20)
(46.04732 0.37921928 0)
(44.565738 0.56291776 1.8057571e-20)
(43.238832 0.75092793 1.3900248e-22)
(41.851335 0.70128449 -1.4402417e-22)
(40.163984 0.53714788 -1.9250189e-20)
(38.094539 0.37884275 7.7938357e-23)
(36.071208 0.18865987 -7.5935825e-23)
(34.507339 0.049573548 -6.9971036e-23)
(33.401972 0.10702596 8.2987565e-21)
(32.437 0.3748792 0)
(31.208864 0.80186598 -1.8667916e-26)
(29.672926 1.2077003 0)
(27.821455 1.4090394 3.6720125e-23)
(25.907698 1.9215441 -8.1403891e-23)
(23.17432 2.7107533 -7.2754397e-21)
(67.726017 0.098538356 8.2291494e-22)
(67.075012 0.13001917 -8.7191067e-22)
(66.379939 0.028855194 9.1798067e-22)
(65.567511 0.19056397 1.2323748e-19)
(64.954576 0.37468396 0)
(64.282504 0.30714914 -1.3327574e-19)
(63.384435 0.34709629 -5.4199261e-22)
(62.512315 0.099126694 5.6458769e-22)
(61.710573 -0.16332215 -5.9069247e-22)
(61.027164 0.21442877 0)
(60.443827 0.50109229 -6.3347717e-22)
(59.602243 0.40932257 8.3069729e-20)
(58.521379 0.14126762 8.4747654e-20)
(57.443737 -0.22323494 -3.3266927e-22)
(56.409028 -0.083586581 -4.2314563e-26)
(55.445374 0.34855431 1.6834708e-19)
(54.37763 0.86008447 8.1297362e-20)
(53.254912 1.1032291 3.0346776e-22)
(52.096794 0.71385953 -3.0306931e-22)
(50.831554 0.34254934 0)
(49.365151 0.042156707 0)
(47.662936 0.090122606 0)
(46.056032 0.39284937 0)
(44.566011 0.57586637 1.4798488e-22)
(43.23004 0.76409229 -2.9260745e-22)
(41.837199 0.71694274 1.9585253e-20)
(40.150754 0.5568441 -1.5881176e-22)
(38.085637 0.40092724 2.1310844e-20)
(36.069061 0.20863217 -8.0083898e-23)
(34.512508 0.064710047 0)
(33.41046 0.11875037 -1.7378392e-20)
(32.443981 0.38741601 -6.5120495e-23)
(31.211326 0.81831702 -8.2785866e-21)
(29.670503 1.2289544 -6.876318e-23)
(27.816895 1.4333076 7.9167458e-23)
(25.895277 1.951564 1.1235824e-20)
(23.202936 2.8042291 -6.1283814e-23)
(67.734814 0.1025394 -2.0057148e-19)
(67.083174 0.13376037 0)
(66.388681 0.033031147 8.8374578e-22)
(65.570614 0.19435484 -1.1955879e-19)
(64.961576 0.37834679 -4.8774653e-22)
(64.289146 0.31192059 0)
(63.384086 0.35278788 0)
(62.516238 0.10485486 5.5499203e-22)
(61.715591 -0.15867073 -5.8260524e-22)
(61.032321 0.21797307 1.5584304e-19)
(60.451969 0.50575473 -2.4230982e-19)
(59.602047 0.41650478 -8.1957278e-20)
(58.514053 0.14970825 -1.6865375e-19)
(57.435436 -0.21511388 3.352063e-22)
(56.401988 -0.076498557 -8.6929805e-20)
(55.441807 0.35563807 -8.5795444e-20)
(54.37186 0.868227 -8.2571775e-20)
(53.251997 1.1128477 -3.124067e-22)
(52.10015 0.72494085 0)
(50.839427 0.35524324 -3.1568707e-22)
(49.377202 0.056830939 3.1270642e-22)
(47.675859 0.10535837 0)
(46.065937 0.40755428 1.6027481e-22)
(44.566632 0.5898836 -2.0667562e-26)
(43.220688 0.77833171 -3.0713617e-22)
(41.821992 0.73381235 2.059342e-20)
(40.136579 0.5780153 2.1239583e-20)
(38.076315 0.42465406 -2.2010003e-20)
(36.067309 0.23008226 0)
(34.518719 0.080979882 0)
(33.420167 0.13140335 1.8372156e-20)
(32.45198 0.40100883 6.9186894e-23)
(31.214375 0.83617467 -6.9123246e-23)
(29.668149 1.2520062 7.3910055e-23)
(27.812144 1.4596659 8.5280817e-23)
(25.882597 1.9837842 -1.2134775e-20)
(23.234926 2.9010263 -6.4842939e-23)
(67.744818 0.1068008 1.9208527e-19)
(67.09251 0.13773036 -7.9991296e-22)
(66.398497 0.037482847 -2.352048e-25)
(65.574382 0.19839041 8.9659619e-22)
(64.969604 0.38222788 0)
(64.296729 0.31701861 -4.9507567e-22)
(63.384319 0.35885201 -1.356743e-25)
(62.520949 0.11093432 -1.3857148e-19)
(61.721212 -0.15371688 1.465511e-19)
(61.038153 0.221743 -1.5302189e-19)
(60.461048 0.51074461 -6.2263735e-22)
(59.602302 0.42422527 6.4155156e-22)
(58.506639 0.1587507 8.3541e-20)
(57.426775 -0.20643538 6.7239268e-22)
(56.394638 -0.068932107 -8.7592738e-20)
(55.438182 0.36322142 1.3337721e-25)
(54.365958 0.87694704 1.2844122e-25)
(53.249293 1.1231016 1.3212763e-25)
(52.104244 0.73674767 1.5547831e-25)
(50.848461 0.36879364 -3.2595514e-22)
(49.390786 0.072538135 0)
(47.69047 0.12172942 4.2390195e-20)
(46.077306 0.42342865 3.3338177e-22)
(44.567817 0.6050711 1.6150851e-22)
(43.210929 0.79374668 4.0986334e-20)
(41.805829 0.751995 -1.6740817e-22)
(40.121589 0.60077406 -2.2482947e-20)
(38.066753 0.45014357 1.819865e-22)
(36.066198 0.25311608 0)
(34.526221 0.098467632 0)
(33.431307 0.1450633 0)
(32.461183 0.41575191 -7.3370029e-23)
(31.218163 0.8555683 9.5141967e-21)
(29.665969 1.2770187 1.0156891e-20)
(27.807277 1.4883076 -1.1831374e-20)
(25.869834 2.0184441 1.013227e-22)
(23.27066 2.9964527 0)
(67.756243 0.11134126 -1.8297696e-19)
(67.103243 0.14194393 0)
(66.409577 0.042230954 0)
(65.578969 0.20268711 0)
(64.978856 0.38633956 0)
(64.305443 0.32246785 -2.4454868e-19)
(63.385336 0.36531457 -1.2992832e-19)
(62.526654 0.11738742 1.3522872e-19)
(61.727569 -0.14843944 -1.4232361e-19)
(61.044785 0.2257524 2.3496986e-25)
(60.471217 0.51608654 -1.2278096e-21)
(59.603186 0.43252988 1.6318927e-19)
(58.499305 0.16844375 -6.5410533e-22)
(57.417878 -0.19715756 6.7126429e-22)
(56.387086 -0.06085534 8.7536819e-20)
(55.434617 0.37133822 8.7327776e-20)
(54.360049 0.88628422 -1.3032069e-25)
(53.24696 1.134031 -1.3471345e-25)
(52.109265 0.74932727 -8.4304797e-20)
(50.858886 0.38325919 -3.3568983e-22)
(49.406176 0.089352292 6.7254341e-22)
(47.707074 0.13932299 -4.4601874e-20)
(46.090456 0.44057334 -3.4562584e-22)
(44.569833 0.62153878 4.4757097e-26)
(43.20096 0.81044571 1.6770796e-22)
(41.788871 0.77159891 -2.2218561e-20)
(40.105962 0.62523844 0)
(38.057185 0.47752064 2.4389372e-20)
(36.066026 0.27784285 0)
(34.535306 0.11726118 0)
(33.444128 0.15981291 2.0309471e-20)
(32.471803 0.43174976 1.5523694e-22)
(31.222873 0.87664004 -3.016047e-20)
(29.664099 1.3041675 -2.1772182e-20)
(27.802404 1.519436 1.2605582e-20)
(25.857199 2.0557853 1.0838347e-22)
(23.310413 3.0834268 -1.4223396e-22)
(67.769342 0.11618063 -6.7981301e-22)
(67.115633 0.14641672 0)
(66.422144 0.047297821 -1.9900818e-19)
(65.584559 0.20726243 2.1172025e-19)
(64.989559 0.39069449 -8.7694061e-22)
(64.315507 0.32829455 2.3805261e-19)
(63.387374 0.37220273 1.259483e-19)
(62.533596 0.12423773 -1.3305632e-19)
(61.734816 -0.14281552 0)
(61.052362 0.2300161 0)
(60.482652 0.52180663 1.5430215e-19)
(59.604905 0.44146752 -6.2618386e-22)
(58.492257 0.178839 6.473529e-22)
(57.408902 -0.18723602 0)
(56.379461 -0.052234019 0)
(55.431252 0.38002537 -5.4064609e-27)
(54.354287 0.8962808 8.676442e-20)
(53.245188 1.1456768 -3.3344804e-22)
(52.115436 0.76272736 1.4988397e-26)
(50.870966 0.39869973 8.8764504e-20)
(49.423688 0.10735033 -3.4655268e-22)
(47.726028 0.15823128 -3.5680047e-22)
(46.105762 0.45909676 3.5684828e-22)
(44.572998 0.63940624 3.4788652e-22)
(43.191033 0.82854653 -3.4873408e-22)
(41.771328 0.79273936 1.8221257e-22)
(40.089922 0.65153175 -1.9186149e-22)
(38.047896 0.5069141 -2.5444123e-20)
(36.067144 0.30437488 0)
(34.546307 0.137452 -1.7860576e-22)
(33.458913 0.17574005 3.3549978e-22)
(32.484088 0.44911465 -1.6382281e-22)
(31.228721 0.89954312 2.1532236e-20)
(29.662705 1.3336418 3.475226e-20)
(27.797663 1.5532684 0)
(25.844938 2.0960249 -1.1555593e-22)
(23.354392 3.1586887 2.9451598e-22)
(67.784413 0.12134043 0)
(67.129992 0.15116549 -1.7754101e-19)
(66.436456 0.052708068 1.8993874e-19)
(65.591369 0.21213497 -2.0184967e-19)
(65.00198 0.39530574 2.1464785e-19)
(64.327176 0.33452716 0)
(63.390712 0.3795459 -2.4153592e-19)
(62.542057 0.13151136 1.2696316e-19)
(61.743134 -0.13681978 1.3805683e-19)
(61.061054 0.23454968 1.4322812e-19)
(60.49556 0.527933 2.4628183e-25)
(59.607706 0.45109197 -6.1451124e-22)
(58.485739 0.18999332 -1.6400719e-19)
(57.400032 -0.17662183 -2.0032342e-25)
(56.371922 -0.04303029 6.7900175e-22)
(55.428255 0.38932377 -8.8009539e-20)
(54.348858 0.9069833 -8.7322557e-20)
(53.244203 1.1580823 6.7559865e-22)
(52.123017 0.77699839 5.2085957e-25)
(50.885011 0.41517918 -9.0616445e-20)
(49.443694 0.12661555 9.0735719e-20)
(47.747749 0.17855525 -1.6763577e-25)
(46.123663 0.47911945 3.669781e-22)
(44.577696 0.65880785 0)
(43.181457 0.84818129 -9.24245e-20)
(41.753463 0.81554437 3.7809986e-22)
(40.073753 0.67978907 5.0248174e-20)
(38.03923 0.538464 -2.6236494e-20)
(36.069965 0.33283445 4.00263e-22)
(34.559612 0.15914112 -6.2108907e-27)
(33.475987 0.19294265 -2.2637359e-20)
(32.498326 0.46797205 0)
(31.235964 0.92444922 -1.769257e-22)
(29.661996 1.3656533 -2.4661661e-20)
(27.793243 1.5900462 0)
(25.833348 2.139363 1.5593068e-20)
(23.402706 3.2230867 1.5142897e-22)
(67.801809 0.1268435 -3.1622799e-19)
(67.146688 0.15620801 1.7010442e-19)
(66.452817 0.058488479 0)
(65.599654 0.21732424 0)
(65.016434 0.40018646 -2.0721831e-19)
(64.340751 0.3411959 -2.5729979e-25)
(63.395682 0.38737501 2.3275045e-19)
(62.552369 0.13923652 1.9319707e-21)
(61.752734 -0.13042476 -1.3268109e-19)
(61.071061 0.23936861 -2.7925785e-19)
(60.510176 0.53449477 0)
(59.611882 0.46146098 -1.5380838e-19)
(58.480046 0.20196817 1.6098855e-19)
(57.391499 -0.16526251 1.977673e-25)
(56.364661 -0.033204303 -1.3444204e-21)
(55.425833 0.39927681 6.8409164e-22)
(54.343988 0.91844059 -6.8361061e-22)
(53.244278 1.1712913 6.8102665e-22)
(52.132312 0.79219074 8.9663106e-20)
(50.90138 0.43276199 -1.4279393e-21)
(49.466626 0.14723377 7.2675617e-22)
(47.772726 0.20040106 4.8360006e-20)
(46.14468 0.50077096 -4.8480494e-20)
(44.584392 0.67989043 3.6880542e-22)
(43.172618 0.86949383 9.4938593e-20)
(41.735613 0.84015043 3.9066454e-22)
(40.05781 0.71015122 -5.3244366e-20)
(38.03161 0.57231452 2.736808e-20)
(36.074975 0.36334744 0)
(34.575665 0.18243467 0)
(33.495725 0.21152547 0)
(32.514849 0.48845671 -1.8088399e-22)
(31.244907 0.95154374 1.8698706e-22)
(29.662229 1.4004301 -2.6664466e-20)
(27.78939 1.6300268 2.4054386e-22)
(25.822801 2.1859698 -1.2992809e-25)
(23.455392 3.2805713 -1.9784186e-20)
(67.821954 0.1327143 5.9591947e-19)
(67.166163 0.16156315 0)
(66.471581 0.064668538 -1.3451408e-21)
(65.609718 0.22285092 1.4415741e-21)
(65.033294 0.40534986 0)
(64.356581 0.34833311 -8.2144114e-22)
(63.402673 0.39572274 2.2540389e-19)
(62.564923 0.14744396 -9.3038283e-22)
(61.763861 -0.1236001 0)
(61.082619 0.24448886 9.6936221e-26)
(60.52678 0.5415225 1.4155541e-19)
(59.617776 0.47263691 1.1700941e-21)
(58.475527 0.21483054 0)
(57.383577 -0.15310081 0)
(56.357911 -0.022712991 0)
(55.424227 0.40993156 -6.7786324e-22)
(54.339949 0.93070514 8.7915602e-20)
(53.245735 1.1853487 0)
(52.143678 0.80835517 -7.0048795e-22)
(50.920492 0.45151379 7.2206429e-22)
(49.492986 0.16929464 -9.4658923e-20)
(47.801524 0.22388269 -4.8845278e-20)
(46.169418 0.52419368 7.0957299e-26)
(44.593634 0.7028173 -4.8289264e-20)
(43.164984 0.8926436 -4.8539754e-20)
(41.718188 0.86670597 -4.0188234e-22)
(40.042522 0.74276778 0)
(38.025535 0.60861699 -4.4063451e-22)
(36.082737 0.39604656 4.2642405e-22)
(34.594975 0.20744732 -2.5466938e-20)
(33.518551 0.23160367 1.8999049e-22)
(32.534044 0.51071702 -1.8911348e-22)
(31.255909 0.9810312 2.5022502e-20)
(29.663718 1.4382232 2.8296221e-20)
(27.786418 1.6734901 -2.5567308e-22)
(25.813761 2.236002 -1.7244938e-20)
(23.512478 3.3363063 -3.1406478e-22)
(67.845355 0.13897898 -2.8045418e-19)
(67.188946 0.16725117 0)
(66.493169 0.071280857 -1.2776627e-21)
(65.621926 0.22873663 -1.7426727e-19)
(65.053001 0.41080913 -1.4702943e-21)
(64.375078 0.3559735 2.0260127e-19)
(63.412148 0.40462375 -2.1437338e-19)
(62.580178 0.15616757 -8.9398662e-22)
(61.776805 -0.11631211 9.5544204e-22)
(61.096005 0.24992647 1.3032941e-19)
(60.545694 0.54904795 -1.3907617e-19)
(59.625795 0.48468734 1.4763014e-19)
(58.472597 0.22865449 -1.5381869e-19)
(57.376593 -0.14007366 0)
(56.351947 -0.011510755 -1.6634772e-19)
(55.423729 0.42133733 1.7107323e-19)
(54.337069 0.94383207 -8.6578425e-20)
(53.248955 1.2003008 0)
(52.157535 0.82554352 0)
(50.942839 0.47150189 7.2736864e-22)
(49.523363 0.19289179 -9.6529811e-20)
(47.834807 0.24912201 -9.8950711e-20)
(46.19859 0.54954365 4.972552e-20)
(44.60608 0.7277703 4.83882e-20)
(43.159122 0.91780768 7.8109302e-22)
(41.701696 0.89537262 0)
(40.028417 0.77779781 -4.3609164e-22)
(38.021602 0.64753051 5.828469e-20)
(36.093905 0.4310723 4.3723376e-22)
(34.618126 0.23430378 -4.0913599e-22)
(33.544956 0.25330409 -3.9311659e-22)
(32.556358 0.5349164 -2.442907e-20)
(31.269395 1.0131374 -2.6687028e-20)
(29.66685 1.4793084 -2.3196425e-22)
(27.78474 1.7207384 2.7068769e-22)
(25.806815 2.2896077 -3.7038089e-20)
(23.574299 3.3946579 -1.5303341e-25)
(67.872625 0.14566513 2.6630718e-19)
(67.215677 0.17329356 0)
(66.518077 0.078361447 -1.2118574e-21)
(65.636715 0.23500394 1.6818972e-19)
(65.07608 0.41657704 1.7913755e-19)
(64.39673 0.3641538 -1.9179309e-19)
(63.424657 0.41411408 2.0497672e-19)
(62.598676 0.16544421 -2.2007555e-19)
(61.791903 -0.10852345 9.169141e-22)
(61.111548 0.25569756 0)
(60.567293 0.55710358 -1.3199498e-19)
(59.636416 0.49768452 -1.4054407e-19)
(58.471748 0.24352066 -1.1560862e-21)
(57.370943 -0.12611227 1.5551892e-19)
(56.347104 0.00045064469 1.6249681e-19)
(55.424685 0.43354561 -5.9920192e-27)
(54.335738 0.95787832 0)
(53.254393 1.2161939 6.7892581e-22)
(52.174373 0.84380726 -7.0063338e-22)
(50.968991 0.49279341 -9.2516867e-20)
(49.558441 0.21812078 -1.5061929e-21)
(47.873345 0.27624719 1.5581334e-21)
(46.233028 0.57699007 -7.8394589e-22)
(44.622504 0.7549503 -4.9789082e-20)
(43.155716 0.94518127 -7.938477e-22)
(41.686748 0.92632415 8.3806513e-22)
(40.016124 0.81540689 0)
(38.020514 0.68921808 -1.1801577e-19)
(36.109231 0.46857017 -4.4615787e-22)
(34.645778 0.26313801 2.7231379e-20)
(33.575495 0.27676551 0)
(32.582307 0.56123358 2.6165831e-20)
(31.285867 1.0481092 4.3278384e-22)
(29.672095 1.5239854 -3.1766639e-20)
(27.784878 1.7720942 0)
(25.802701 2.3469272 3.8374645e-20)
(23.641334 3.4581873 2.083369e-20)
(67.904516 0.15280215 -2.5067038e-19)
(67.247132 0.17971338 0)
(66.546902 0.085950591 -2.9497517e-19)
(65.654615 0.24167632 -3.5735919e-25)
(65.103159 0.42266582 -3.3781869e-19)
(64.422114 0.37291328 -1.4264212e-21)
(63.440856 0.42423167 -2.1661909e-25)
(62.621057 0.17531492 2.0785956e-19)
(61.809552 -0.1001921 -2.220604e-19)
(61.129636 0.26181833 -2.4125981e-19)
(60.592019 0.56572266 1.2139643e-25)
(59.650202 0.51170618 1.3542712e-19)
(58.473563 0.2595178 1.4194423e-19)
(57.367093 -0.11114038 -3.0033271e-19)
(56.343777 0.013222928 -1.2352268e-21)
(55.427504 0.44661031 -3.2565378e-19)
(54.336424 0.97290315 -1.6949266e-19)
(53.262586 1.2330751 -1.3431934e-21)
(52.194767 0.86319882 1.3915347e-21)
(50.999617 0.51545678 9.3675377e-20)
(49.599016 0.24508097 1.9156571e-19)
(47.918039 0.30539496 1.5618694e-21)
(46.273705 0.60671881 9.9968347e-20)
(44.643823 0.78458185 5.0170452e-20)
(43.155582 0.97498249 0)
(41.674077 0.95975094 -5.5185788e-20)
(40.006392 0.85577111 -9.655176e-26)
(38.023092 0.73385064 1.211856e-19)
(36.129577 0.50869532 -5.8438766e-20)
(34.678686 0.29409775 0)
(33.610808 0.30214266 5.3174749e-20)
(32.612488 0.58986679 0)
(31.305912 1.0862204 2.8848771e-20)
(29.680026 1.5725844 -5.7272824e-26)
(27.7875 1.8279056 -3.8315967e-20)
(25.802322 2.4081111 0)
(23.714241 3.5271173 0)
(67.941948 0.16042096 -1.8560359e-21)