/*--------------------------------*- C++ -*----------------------------------*\
| =========                 |                                                 |
| \\      /  F ield         | OpenFOAM: The Open Source CFD Toolbox           |
|  \\    /   O peration     | Version:  2506                                  |
|   \\  /    A nd           | Website:  www.openfoam.com                      |
|    \\/     M anipulation  |                                                 |
\*---------------------------------------------------------------------------*/
FoamFile
{
    version     2.0;
    format      ascii;
    arch        "LSB;label=32;scalar=64";
    class       volVectorField;
    location    "0.023";
    object      wallShearStress;
}
// * * * * * * * * * * * * * * * * * * * * * * * * * * * * * * * * * * * * * //

dimensions      [1 -1 -2 0 0 0 0];

internalField   uniform (0 0 0);

boundaryField
{
    Side
    {
        type            empty;
    }
    Inlet
    {
        type            calculated;
        value           uniform (0 0 0);
    }
    Airfoil
    {
        type            calculated;
        value           nonuniform List<vector> 
92
(
(-2.4874343 0.30311879 4.1515945e-16)
(-1.8182997 0.22199391 -2.0652605e-16)
(-1.4259364 0.17298642 -1.9587892e-22)
(-1.7947035 0.20773507 1.9545282e-22)
(-3.2855217 0.38020072 2.0470285e-16)
(-4.6058173 0.53114396 -2.0499888e-16)
(-5.1453568 0.59920269 -3.0092655e-36)
(-5.3919964 0.62758752 2.0396294e-16)
(-4.6506023 0.54109578 -4.0658073e-16)
(-3.3164279 0.39048637 -1.8594252e-32)
(-1.978507 0.23696043 7.5231638e-37)
(-0.82468523 0.10116285 -1.9962902e-16)
(-0.56820406 0.063730118 3.9734064e-16)
(-1.994662 0.2233295 -1.8988953e-22)
(-3.8500796 0.42994945 1.8922402e-22)
(-4.7524421 0.53122247 1.8973207e-22)
(-5.1968421 0.58016678 -1.9845721e-16)
(-4.702554 0.52762639 -3.9615802e-16)
(-3.3762586 0.38462362 5.0189353e-25)
(-1.6893897 0.1978675 1.8754911e-22)
(-0.074226261 0.018255641 -1.9525665e-16)
(0.39673339 -0.038908102 1.9418926e-16)
(-1.2559588 0.13549703 3.8792e-16)
(-3.1911215 0.34284792 1.8523855e-22)
(-4.060908 0.43877484 1.8557304e-22)
(-4.5150261 0.48738728 -1.8516807e-22)
(-4.5972553 0.49700881 -1.2540567e-38)
(-4.4093555 0.47506205 -9.7951593e-34)
(-4.1627118 0.44742762 -3.8652108e-16)
(-3.9941587 0.42786058 1.8394797e-22)
(-3.8487319 0.41113543 -1.8370594e-22)
(-3.7554079 0.39981861 -1.8326411e-22)
(-3.7494579 0.39663482 -1.9184759e-16)
(-3.8776616 0.40790824 1.8312075e-22)
(-4.0599194 0.42443036 1.913518e-16)
(-4.1983793 0.4369803 -1.9112133e-16)
(-4.309272 0.44679019 1.8205057e-22)
(-4.3743069 0.451652 -1.4319398e-33)
(-4.3994773 0.45210367 -1.8160137e-22)
(-4.4111862 0.45149772 3.6279237e-22)
(-4.4361382 0.45220679 -1.8120328e-22)
(-4.4875341 0.45550864 -3.7959549e-16)
(-4.5550177 0.46045652 1.8961866e-16)
(-4.606773 0.46359178 -1.8943747e-16)
(-4.6308529 0.46390385 1.8925055e-16)
(-4.6530861 0.46388643 1.8906829e-16)
(-4.7096449 0.46710346 -1.8890776e-16)
(-4.7845235 0.47218454 1.8002753e-22)
(-4.8300583 0.47407233 -2.8698593e-42)
(-4.8465424 0.47327494 -1.7972573e-22)
(-4.8792436 0.47430352 2.5274509e-26)
(-4.9519308 0.47923564 1.8823366e-16)
(-5.0231313 0.48382413 1.8813496e-16)
(-5.0646569 0.4855036 4.9878753e-33)
(-5.1157427 0.48788111 1.8791768e-16)
(-5.1996739 0.49339664 -3.5829209e-22)
(-5.2667582 0.4970719 1.8778468e-16)
(-5.2901805 0.4967783 1.8770099e-16)
(-5.3144065 0.49613102 1.7889925e-22)
(-5.3866569 0.49973142 -1.7886658e-22)
(-5.4781474 0.50512536 -1.8751322e-16)
(-5.5314818 0.5075227 7.5231638e-36)
(-5.5522581 0.50703221 1.874331e-16)
(-5.5826218 0.50727049 1.7869559e-22)
(-5.6419686 0.50983268 -1.7869675e-22)
(-5.7089403 0.51293508 1.7866053e-22)
(-5.768723 0.51527201 -1.6672462e-26)
(-5.8328214 0.51792106 -1.3897767e-26)
(-5.8894272 0.51977796 1.8734894e-16)
(-5.915256 0.51877153 -2.2569492e-36)
(-5.9398705 0.51746833 2.3784767e-24)
(-6.0065317 0.51949832 1.2180002e-33)
(-6.0895851 0.52310462 -1.8741896e-16)
(-6.1424587 0.52467948 1.7878854e-22)
(-6.1753212 0.52441519 1.8750948e-16)
(-6.216414 0.52466723 -1.8756285e-16)
(-6.2669335 0.52556531 -1.8762936e-16)
(-6.3147431 0.52611292 -7.5231638e-37)
(-6.3717315 0.52724682 2.2569492e-36)
(-6.431069 0.52846892 1.8788628e-16)
(-6.4669064 0.52764778 -1.8797898e-16)
(-6.4986242 0.52628884 2.2850131e-26)
(-6.5619826 0.52730157 -1.8818564e-16)
(-6.6237873 0.52799063 3.7615819e-37)
(-6.6519064 0.52626157 -9.4221042e-17)
(-6.6755141 0.52464104 9.4285462e-17)
(-6.7293939 0.52518924 9.4361165e-17)
(-6.7860804 0.52577391 -9.4445201e-17)
(-6.8143771 0.52413571 9.4524985e-17)
(-6.8396851 0.52207122 -1.7948234e-22)
(-6.8877068 0.52149887 1.9585354e-38)
(-6.9434563 0.52134562 1.8077715e-22)
)
;
    }
    Outlet
    {
        type            calculated;
        value           nonuniform List<vector> 0();
    }
    procBoundary11to3
    {
        type            processor;
        value           uniform (0 0 0);
    }
    procBoundary11to4
    {
        type            processor;
        value           uniform (0 0 0);
    }
    procBoundary11to10
    {
        type            processor;
        value           uniform (0 0 0);
    }
    procBoundary11to12
    {
        type            processor;
        value           uniform (0 0 0);
    }
}


// ************************************************************************* //
