/*--------------------------------*- C++ -*----------------------------------*\
| =========                 |                                                 |
| \\      /  F ield         | OpenFOAM: The Open Source CFD Toolbox           |
|  \\    /   O peration     | Version:  2506                                  |
|   \\  /    A nd           | Website:  www.openfoam.com                      |
|    \\/     M anipulation  |                                                 |
\*---------------------------------------------------------------------------*/
FoamFile
{
    version     2.0;
    format      ascii;
    arch        "LSB;label=32;scalar=64";
    class       volScalarField;
    location    "3";
    object      p;
}
// * * * * * * * * * * * * * * * * * * * * * * * * * * * * * * * * * * * * * //

dimensions      [1 -1 -2 0 0 0 0];

internalField   nonuniform List<scalar> 
1375
(
45820.586
45997.465
45990.129
46154.558
46160.921
46316.16
45880.027
46014.941
46015.141
46148.973
46171.627
46277.448
46314.123
46411.139
46446.403
46533.22
46573.094
46637.501
46679.29
46725.476
45932.862
46043.336
46042.053
46154.606
46177.995
46270.968
46309.033
46389.739
46433.02
46503.768
46549.096
46607.917
46651.429
46698.443
46737.957
46774.573
46807.22
46836.229
46861.985
46884.736
46904.702
45991.539
46084.588
46082.283
46177.82
46196.044
46279.145
46314.088
46386.515
46428.592
46492.306
46536.643
46591.861
46635.145
46681.33
46720.979
46758.472
46792.224
46822.59
46849.812
46874.031
46895.411
46914.233
46930.726
46945.15
46957.724
46968.658
46054.652
46134.27
46131.725
46214.075
46228.881
46299.704
46331.151
46395.13
46434.076
46492.248
46534.199
46585.944
46627.775
46672.357
46711.286
46748.652
46782.548
46813.423
46841.352
46866.378
46888.612
46908.282
46925.579
46940.739
46953.981
46965.495
46975.486
46984.144
46991.628
46998.09
47003.662
46116.859
46185.718
46182.883
46254.892
46268.621
46329.564
46357.332
46413.176
46448.73
46501.169
46540.294
46588.273
46627.933
46670.398
46707.973
46744.462
46777.794
46808.497
46836.488
46861.736
46884.312
46904.389
46922.12
46937.707
46951.351
46963.237
46973.563
46982.514
46990.251
46996.929
47002.684
47007.638
47011.899
47015.561
47018.706
47021.407
46176.188
46235.537
46233.362
46296.411
46309.294
46362.87
46388.225
46437.286
46469.856
46516.788
46552.989
46597.043
46634.226
46674.18
46709.961
46745.031
46777.288
46807.295
46834.831
46859.822
46882.311
46902.415
46920.249
46935.982
46949.791
46961.853
46972.352
46981.461
46989.343
46996.15
47002.017
47007.067
47011.41
47015.141
47018.345
47021.094
47023.451
47025.471
47027.193
47028.676
47029.899
47031.036
46231.828
46285.161
46283.039
46338.693
46350.422
46398.002
46421.488
46465.119
46495.095
46537.254
46570.606
46610.896
46645.461
46682.709
46716.387
46749.664
46780.462
46809.354
46836.022
46860.365
46882.403
46902.203
46919.847
46935.475
46949.237
46961.293
46971.812
46980.956
46988.88
46995.732
47001.643
47006.735
47011.116
47014.881
47018.114
47020.888
47023.266
47025.304
47027.038
47028.537
47029.759
47030.914
47031.678
47032.765
47033.142
47034.432
47034.465
47036.146
47034.117
46286.015
46333.317
46331.661
46381.446
46392.069
46434.525
46456.231
46495.222
46522.884
46560.916
46591.645
46628.443
46660.426
46694.924
46726.355
46757.613
46786.69
46814.163
46839.646
46863.035
46884.328
46903.552
46920.76
46936.065
46949.593
46961.483
46971.886
46980.952
46988.826
46995.647
47001.54
47006.624
47011.001
47014.767
47018.002
47020.78
47023.161
47025.204
47026.937
47028.444
47029.657
47030.825
47031.566
47032.667
47033.023
47034.321
47034.352
47036.098
47033.945
46338.402
46380.501
46379.56
46424.402
46434.186
46472.281
46492.29
46527.189
46552.67
46587.009
46615.269
46648.812
46678.273
46710.043
46739.16
46768.259
46795.437
46821.265
46845.324
46867.519
46887.83
46906.253
46922.82
46937.62
46950.751
46962.337
46972.507
46981.397
46989.139
46995.861
47001.681
47006.711
47011.049
47014.785
47017.999
47020.761
47023.128
47025.164
47026.886
47028.393
47029.59
47030.767
47031.481
47032.591
47032.924
47034.227
47034.251
47036.069
47033.796
46388.921
46426.275
46426.311
46466.855
46476.026
46510.481
46528.947
46560.342
46583.765
46614.805
46640.705
46671.226
46698.232
46727.342
46754.127
46780.999
46806.168
46830.202
46852.667
46873.491
46892.64
46910.087
46925.85
46939.995
46952.599
46963.764
46973.603
46982.233
46989.772
46996.337
47002.037
47006.973
47011.24
47014.921
47018.092
47020.821
47023.161
47025.178
47026.88
47028.38
47029.554
47030.736
47031.42
47032.536
47032.842
47034.151
47034.161
47036.058
47033.668
46471.241
46472.074
46508.77
46517.554
46548.792
46565.94
46594.261
46615.814
46643.847
46667.525
46695.186
46719.812
46746.312
46770.765
46795.364
46818.453
46840.584
46861.334
46880.657
46898.505
46914.843
46929.676
46943.048
46955.02
46965.672
46975.098
46983.4
46990.679
46997.038
47002.577
47007.387
47011.554
47015.159
47018.268
47020.951
47023.251
47025.24
47026.912
47028.4
47029.546
47030.728
47031.379
47032.499
47032.777
47034.092
47034.081
47036.061
47033.56
46515.529
46516.59
46550.144
46558.479
46586.994
46602.872
46628.559
46648.331
46673.682
46695.225
46720.22
46742.518
46766.483
46788.611
46810.925
46831.891
46852.055
46871.008
46888.738
46905.191
46920.323
46934.132
46946.645
46957.904
46967.971
46976.922
46984.84
46991.812
46997.927
47003.272
47007.928
47011.974
47015.483
47018.516
47021.139
47023.39
47025.342
47026.978
47028.448
47029.561
47030.742
47031.358
47032.478
47032.728
47034.049
47034.01
47036.075
47033.468
46558.449
46559.826
46590.714
46598.776
46624.831
46639.6
46662.899
46681.026
46703.896
46723.422
46745.881
46765.926
46787.415
46807.245
46827.273
46846.102
46864.267
46881.378
46897.464
46912.462
46926.327
46939.051
46950.646
46961.137
46970.569
46979
46986.495
46993.125
46998.966
47004.091
47008.573
47012.48
47015.878
47018.823
47021.377
47023.569
47025.48
47027.073
47028.522
47029.598
47030.773
47031.353
47032.47
47032.691
47034.02
47033.95
47036.096
47033.391
46600.492
46602.159
46630.866
46638.668
46662.586
46676.296
46697.43
46713.932
46734.493
46752.043
46772.063
46789.877
46808.929
46826.465
46844.204
46860.88
46877.022
46892.257
46906.663
46920.165
46932.723
46944.32
46954.955
46964.639
46973.4
46981.276
46988.319
46994.582
47000.126
47005.012
47009.303
47013.057
47016.333
47019.179
47021.656
47023.783
47025.646
47027.192
47028.616
47029.652
47030.82
47031.361
47032.475
47032.665
47034.003
47033.899
47036.124
47033.326
46641.89
46643.628
46670.473
46677.961
46699.984
46712.66
46731.79
46746.721
46765.106
46780.71
46798.363
46813.968
46830.622
46845.886
46861.354
46875.887
46890.008
46903.372
46916.096
46928.095
46939.335
46949.791
46959.45
46968.309
46976.381
46983.687
46990.259
46996.139
47001.372
47006.007
47010.095
47013.686
47016.832
47019.573
47021.967
47024.023
47025.836
47027.331
47028.727
47029.72
47030.879
47031.381
47032.491
47032.649
47033.997
47033.855
47036.156
47033.273
46682.748
46684.737
46709.896
46717.077
46737.313
46749.081
46766.243
46779.448
46795.798
46809.458
46824.758
46838.142
46852.402
46865.393
46878.596
46890.99
46903.093
46914.598
46925.646
46936.147
46946.069
46955.383
46964.062
46972.09
46979.464
46986.189
46992.283
46997.769
47002.682
47007.057
47010.935
47014.357
47017.367
47019.997
47022.303
47024.286
47026.044
47027.485
47028.852
47029.801
47030.949
47031.412
47032.517
47032.643
47034
47033.821
46723.138
46725.237
46749.058
46755.827
46774.342
46784.777
46800.353
46812.269
46826.377
46837.958
46850.912
46862.05
46873.934
46884.662
46895.628
46905.91
46916.028
46925.715
46935.124
46944.157
46952.789
46960.981
46968.695
46975.902
46982.585
46988.732
46994.347
46999.439
47004.029
47008.141
47011.806
47015.054
47017.925
47020.442
47022.659
47024.564
47026.267
47027.652
47028.987
47029.891
47031.027
47031.45
47032.551
47032.644
46765.296
46787.77
46794.217
46810.997
46820.348
46834.345
46844.685
46856.545
46866.035
46876.62
46885.493
46895.005
46903.49
46912.254
46920.468
46928.654
46936.579
46944.4
46952.013
46959.397
46966.502
46973.279
46979.688
46985.695
46991.275
46996.419
47001.121
47005.391
47009.241
47012.693
47015.767
47018.498
47020.9
47023.026
47024.854
47026.499
47027.828
47029.131
47029.989
47031.111
47031.496
47032.59
46805.496
46826.59
46832.662
46848.098
46856.364
46868.458
46876.854
46886.464
46893.802
46901.965
46908.516
46915.642
46921.884
46928.467
46934.649
46940.949
46947.166
46953.449
46959.691
46965.87
46971.924
46977.794
46983.427
46988.776
46993.804
46998.485
47002.805
47006.758
47010.348
47013.589
47016.49
47019.081
47021.367
47023.402
47025.151
47026.739
47028.011
47029.28
47030.094
47031.2
46845.592
46865.48
46870.879
46885.254
46892.34
46902.157
46908.469
46915.775
46920.848
46926.546
46930.746
46935.504
46939.534
46943.992
46948.217
46952.712
46957.303
46962.125
46967.067
46972.103
46977.16
46982.168
46987.062
46991.782
46996.278
47000.515
47004.463
47008.11
47011.447
47014.48
47017.211
47019.664
47021.836
47023.781
47025.452
47026.982
47028.198
47029.433
47030.202
46885.849
46904.677
46909.494
46922.391
46927.874
46935.363
46939.532
46944.399
46947.075
46950.246
46952.077
46954.487
46956.353
46958.752
46961.103
46963.881
46966.936
46970.381
46974.1
46978.062
46982.179
46986.374
46990.568
46994.691
46998.682
47002.492
47006.085
47009.436
47012.528
47015.36
47017.925
47020.243
47022.304
47024.159
47025.754
47027.227
47028.387
47029.587
46926.776
46944.717
46948.79
46959.654
46963.113
46968.264
46970.117
46972.365
46972.501
46973.082
46972.512
46972.596
46972.344
46972.758
46973.312
46974.464
46976.071
46978.221
46980.793
46983.746
46986.98
46990.409
46993.942
46997.499
47001.009
47004.414
47007.666
47010.732
47013.588
47016.225
47018.629
47020.816
47022.767
47024.535
47026.055
47027.471
46968.383
46985.38
46988.239
46996.669
46997.845
47000.523
46999.797
46999.267
46996.762
46994.731
46991.77
46989.592
46987.306
46985.841
46984.706
46984.348
46984.613
46985.567
46987.08
46989.101
46991.518
46994.235
46997.152
47000.18
47003.239
47006.261
47009.19
47011.986
47014.617
47017.066
47019.316
47021.376
47023.221
47024.905
47026.352
47010.783
47026.494
47027.575
47033.289
47032.001
47031.9
47028.324
47024.874
47019.663
47015.021
47009.718
47005.37
47001.159
46997.938
46995.241
46993.5
46992.537
46992.397
46992.942
46994.11
46995.777
46997.839
47000.187
47002.724
47005.361
47008.025
47010.65
47013.192
47015.608
47017.881
47019.982
47021.921
47023.665
47025.267
47068.198
47066.917
47069.64
47065.575
47062.32
47055.633
47049.138
47041.164
47033.935
47026.359
47019.949
47013.93
47009.083
47004.953
47001.953
46999.871
46998.738
46998.402
46998.79
46999.77
47001.229
47003.051
47005.133
47007.379
47009.707
47012.048
47014.348
47016.563
47018.666
47020.627
47022.45
47024.096
47110.321
47106.163
47105.558
47098.252
47091.481
47081.471
47071.848
47061.101
47051.354
47041.613
47033.281
47025.588
47019.262
47013.838
47009.707
47006.618
47004.589
47003.457
47003.14
47003.494
47004.403
47005.743
47007.405
47009.288
47011.304
47013.378
47015.453
47017.477
47019.421
47021.248
47022.96
47152.709
47145.085
47140.693
47129.641
47119.036
47105.552
47092.778
47079.31
47067.172
47055.416
47045.331
47036.121
47028.473
47021.901
47016.766
47012.781
47009.955
47008.112
47007.161
47006.951
47007.36
47008.26
47009.537
47011.085
47012.813
47014.64
47016.504
47018.35
47020.143
47021.844
47195.229
47183.358
47174.623
47159.328
47144.642
47127.612
47111.739
47095.677
47081.327
47067.747
47056.099
47045.553
47036.736
47029.163
47023.149
47018.378
47014.85
47012.376
47010.86
47010.143
47010.102
47010.604
47011.53
47012.771
47014.233
47015.831
47017.499
47019.178
47020.831
47022.413
47237.598
47220.532
47206.872
47186.887
47167.974
47147.426
47128.598
47110.14
47093.806
47078.62
47065.611
47053.918
47044.089
47035.66
47028.887
47023.433
47019.292
47016.265
47014.248
47013.08
47012.636
47012.777
47013.385
47014.347
47015.565
47016.952
47018.439
47019.963
47021.484
47279.363
47256.054
47236.906
47211.888
47188.749
47164.834
47143.287
47122.697
47104.641
47088.088
47073.919
47061.266
47050.585
47041.437
47034.016
47027.977
47023.307
47019.797
47017.34
47015.773
47014.968
47014.787
47015.107
47015.815
47016.81
47018.003
47019.323
47020.703
47319.675
47289.291
47264.153
47233.945
47206.761
47179.755
47155.812
47133.403
47113.909
47096.235
47081.103
47067.664
47056.287
47046.546
47038.58
47032.047
47026.923
47022.994
47020.153
47018.235
47017.11
47016.639
47016.701
47017.178
47017.971
47018.987
47020.152
47357.477
47319.35
47287.866
47252.618
47221.79
47192.106
47166.17
47142.297
47121.664
47103.119
47087.222
47073.161
47061.233
47051.015
47042.601
47035.657
47030.15
47025.865
47022.692
47020.467
47019.061
47018.334
47018.165
47018.436
47019.046
47019.901
47020.926
47391.17
47345.137
47307.452
47267.719
47233.813
47201.968
47174.477
47149.509
47128.023
47108.839
47092.371
47077.832
47065.481
47054.889
47046.114
47038.834
47033.009
47028.424
47024.968
47022.478
47020.827
47019.876
47019.503
47019.59
47020.036
47020.746
47420.221
47366.084
47322.719
47279.329
47242.979
47209.544
47180.925
47155.213
47133.13
47113.509
47096.64
47081.758
47069.09
47058.215
47049.153
47041.606
47035.52
47030.686
47026.991
47024.276
47022.414
47021.268
47020.716
47020.642
47020.942
47380.924
47333.056
47287.267
47249.224
47214.859
47185.539
47159.435
47136.994
47117.13
47100.007
47084.919
47072.035
47060.964
47051.691
47043.945
47037.657
47032.628
47028.741
47025.842
47023.805
47022.497
47021.793
47021.58
47021.755
47182.994
47197.237
47205.737
47252.588
47358.366
47413.22
47175.667
47188.575
47199.74
47242.765
47319.63
47353.564
47167.767
47179.239
47192.203
47229.501
47283.289
47302.801
47159.592
47170.021
47183.598
47214.142
47250.51
47261.084
47150.986
47160.497
47173.438
47197.078
47220.848
47225.252
47142.259
47150.816
47162.246
47179.668
47194.518
47194.719
47133.411
47140.836
47150.199
47162.335
47170.858
47168.141
47124.563
47130.704
47137.829
47145.69
47149.746
47145.114
47120.476
47125.418
47129.895
47130.764
47124.88
47110.354
47113.339
47115.224
47113.859
47107.241
47100.459
47101.772
47101.71
47098.81
47091.775
47090.983
47090.944
47089.474
47085.582
47078.427
47082.024
47080.927
47078.469
47073.985
47066.925
47071.842
47068.736
47063.959
47057.166
47063.698
47060.209
47055.364
47048.948
47056.536
47052.875
47048.127
47042.17
47046.652
47042.121
47036.67
47041.481
47037.248
47032.326
47037.272
47033.388
47028.997
47030.43
47026.559
47028.257
47024.88
47023.84
47023.325
)
;

boundaryField
{
    Side
    {
        type            empty;
    }
    Inlet
    {
        type            totalPressure;
        rho             rho;
        psi             none;
        gamma           1;
        p0              uniform 50000;
        value           nonuniform List<scalar> 9(47036.298 47036.244 47036.198 47036.159 47036.126 47036.1 47036.079 47036.062 47036.05);
    }
    Airfoil
    {
        type            zeroGradient;
    }
    Outlet
    {
        type            fixedValue;
        value           nonuniform List<scalar> 0();
    }
    procBoundary1to0
    {
        type            processor;
        value           nonuniform List<scalar> 
56
(
45735.344
45986.217
45952.413
46207.035
46149.425
46414.32
46322.895
46322.895
46465.984
46475.258
46587.878
46614.014
46683.151
46722.453
46763.638
46763.496
46763.496
46797.876
46828.073
46854.649
46878.033
46898.56
46916.5
46922.213
46922.213
46937.523
46950.9
46962.532
46972.689
46978.145
46978.145
46986.372
46993.491
46999.646
47004.961
47008.462
47008.462
47012.594
47016.148
47019.205
47021.833
47023.724
47023.724
47025.71
47027.407
47028.865
47030.08
47031.196
47031.82
47031.82
47032.889
47033.288
47034.565
47034.592
47036.218
47034.309
)
;
    }
    procBoundary1to2
    {
        type            processor;
        value           nonuniform List<scalar> 
71
(
47036.192
47033.229
47034.013
47036.192
47033.794
47034.013
47032.653
47031.546
47032.653
47032.635
47031.546
47031.29
47031.29
47030.314
47028.577
47030.314
47029.742
47028.577
47027.713
47027.713
47026.643
47026.643
47025.619
47025.619
47024.514
47024.514
47023.451
47023.451
47023.921
47022.955
47022.955
47022.102
47022.102
47021.4
47021.4
47022.053
47021.644
47021.644
47021.522
47021.522
47022.223
47023.231
47159.614
47154.788
47149.867
47144.407
47138.266
47131.698
47124.752
47117.581
47115.723
47115.723
47106.986
47098.405
47090.099
47082.137
47073.719
47073.719
47066.116
47059.29
47050.325
47050.325
47045.047
47040.644
47033.937
47033.937
47031.378
47026.757
47026.757
47025.821
47023.231
)
;
    }
    procBoundary1to8
    {
        type            processor;
        value           nonuniform List<scalar> 
35
(
46437.54
46437.54
46484.384
46529.185
46572.699
46615.684
46657.724
46698.916
46763.24
46763.24
46803.416
46843.57
46883.811
46924.762
46966.713
47009.551
47054.224
47054.224
47098.676
47144.091
47190.469
47237.72
47285.686
47333.59
47380.081
47423.893
47463.705
47441.111
47441.111
47187.7
47204.357
47211.654
47260.313
47393.426
47491.309
)
;
    }
}


// ************************************************************************* //
