/*--------------------------------*- C++ -*----------------------------------*\
| =========                 |                                                 |
| \\      /  F ield         | OpenFOAM: The Open Source CFD Toolbox           |
|  \\    /   O peration     | Version:  2506                                  |
|   \\  /    A nd           | Website:  www.openfoam.com                      |
|    \\/     M anipulation  |                                                 |
\*---------------------------------------------------------------------------*/
FoamFile
{
    version     2.0;
    format      ascii;
    arch        "LSB;label=32;scalar=64";
    class       volVectorField;
    location    "0.00024";
    object      wallShearStress;
}
// * * * * * * * * * * * * * * * * * * * * * * * * * * * * * * * * * * * * * //

dimensions      [1 -1 -2 0 0 0 0];

internalField   uniform (0 0 0);

boundaryField
{
    Side
    {
        type            empty;
    }
    Inlet
    {
        type            calculated;
        value           uniform (0 0 0);
    }
    Airfoil
    {
        type            calculated;
        value           nonuniform List<vector> 
107
(
(-394.54436 325.84993 -4.2872313e-18)
(-396.13399 320.63893 -2.510964e-18)
(-397.55171 330.14216 3.7108054e-24)
(-397.65765 324.05798 -6.6925974e-18)
(-398.39519 326.55796 2.4873634e-18)
(-396.92008 321.10909 -3.6519243e-24)
(-396.19176 319.54823 3.6111643e-24)
(-1.075671 16.628717 -1.1046634e-18)
(-1.5082424 16.730837 5.7983024e-25)
(-0.99350609 10.223297 6.0979288e-25)
(-1.0843557 14.478125 5.9289762e-19)
(-0.97353071 12.971301 -1.4693679e-39)
(-1.2752021 15.97399 -2.9648906e-35)
(-0.99426003 12.501489 -1.1771457e-18)
(-1.2974656 16.211088 1.1754944e-38)
(-1.1429866 12.545463 5.8774718e-39)
(-1.0011941 13.139246 1.2017316e-18)
(-1.2017309 15.283892 1.0856246e-18)
(-1.3052426 14.658998 1.1766644e-18)
(-1.1452019 12.095934 0)
(-0.70001175 10.066578 6.0169134e-25)
(-1.2529839 16.522309 1.149389e-18)
(-1.4862912 16.017217 -1.0676189e-18)
(-1.2285887 12.770602 1.1307667e-18)
(-1.1754384 11.959477 6.0951135e-25)
(-0.68844239 7.385309 -1.2342933e-18)
(-0.92043593 11.222884 1.2213168e-18)
(-0.87085231 10.044184 -5.8774718e-39)
(-1.0576165 12.212262 -6.6139092e-20)
(-1.0576349 11.585525 3.0164884e-25)
(-1.0726734 11.487332 -1.1554017e-18)
(-0.8168065 9.7207459 3.0284118e-25)
(-1.1155143 13.571319 -2.3014072e-18)
(-1.1741281 14.290977 1.1003315e-18)
(-1.3563255 16.236086 -2.2036e-18)
(-1.4068412 15.651932 2.8800678e-25)
(-1.4322463 15.622402 -1.1754944e-38)
(-1.4485648 15.719076 1.1497903e-18)
(-1.4920719 16.004742 -2.2068878e-18)
(-1.509246 16.023805 -1.0595503e-18)
(-1.5060601 15.891127 -1.1488544e-18)
(-1.4831968 15.585859 -1.0680316e-18)
(-1.4970203 15.717952 8.5681985e-20)
(-1.5153865 15.816785 8.6286786e-20)
(-1.5141704 15.71677 -8.5807499e-20)
(-1.5069944 15.704039 5.0763724e-35)
(-1.5325967 15.792895 1.1554061e-18)
(-1.51959 15.485084 1.160564e-18)
(-1.5457665 15.276468 1.1652658e-18)
(-1.6181081 16.020899 -1.165464e-18)
(-1.5455411 15.518738 3.0501702e-28)
(-1.6777787 16.234488 -8.9270604e-20)
(-1.6810001 16.02887 8.8248913e-20)
(-1.6066257 15.446478 -1.1044678e-18)
(-1.5171299 14.72545 1.1208994e-18)
(-1.3911207 14.760127 1.1231383e-18)
(-1.4368445 15.532718 1.0962002e-18)
(-1.4920961 15.09468 -1.4822583e-25)
(-1.5084016 14.931372 1.1754944e-38)
(-1.4451263 14.246645 1.1138407e-18)
(-1.420597 13.759959 -1.4938976e-25)
(-1.4730363 14.018626 1.1976269e-18)
(-1.4766513 14.028844 8.2049506e-36)
(-1.5017127 14.213435 -1.1995306e-18)
(-1.4791143 13.946519 -1.2040009e-18)
(-1.4846208 13.932962 -1.2062081e-18)
(-1.476708 13.83867 -1.1314047e-18)
(-1.4606664 13.633711 -1.1364694e-18)
(-1.4549514 13.538792 -7.5950824e-26)
(-1.4396427 13.381542 -1.1445964e-18)
(-1.4271944 13.165423 1.2250903e-18)
(-1.437888 13.13824 -1.1533885e-18)
(-1.4817031 13.507583 -1.150081e-18)
(-1.4524398 13.202831 1.157357e-18)
(-1.4596534 13.218393 1.5034573e-35)
(-1.4825712 13.396034 -1.2368285e-18)
(-1.5126251 13.606233 9.6478278e-27)
(-1.5529323 13.875388 -1.1587059e-18)
(-1.5447908 13.779908 -1.9401569e-26)
(-1.5955386 14.189075 1.7516231e-46)
(-1.5903864 14.077551 1.793662e-42)
(-1.5854427 13.979403 8.1394432e-20)
(-1.6044437 14.065238 1.793662e-42)
(-1.6119967 14.120961 -7.8563311e-26)
(-1.62334 14.135982 7.8820254e-26)
(-1.6447 14.231193 -7.89902e-26)
(-1.653866 14.294869 -1.2669501e-18)
(-1.6773184 14.444848 8.5658415e-20)
(-1.6987695 14.554619 7.1746481e-43)
(-1.7078 14.570851 -1.7632415e-38)
(-1.7168248 14.619577 1.2814345e-18)
(-1.7304513 14.625201 -1.6097773e-25)
(-1.7407705 14.620972 1.6151797e-25)
(-1.728637 14.569324 8.6246039e-30)
(-1.738046 14.536829 1.3355366e-29)
(-1.7204434 14.451825 -1.6335901e-25)
(-1.7491421 14.669314 -1.638374e-25)
(-1.7731365 14.692809 1.6452345e-25)
(-1.7875183 14.752848 9.1132426e-20)
(-1.7714207 14.517906 -1.235872e-18)
(-1.7937112 14.756188 -3.3344841e-25)
(-1.7451078 14.274757 1.2496124e-18)
(-1.7838353 14.503693 9.1171725e-20)
(-1.7509019 14.226264 3.3741685e-25)
(-1.7698251 14.358372 1.3562141e-18)
(-1.8520687 14.359311 -3.4003684e-25)
(-1.8356086 14.491398 3.4206307e-25)
)
;
    }
    Outlet
    {
        type            calculated;
        value           nonuniform List<vector> 0();
    }
    procBoundary4to3
    {
        type            processor;
        value           uniform (0 0 0);
    }
    procBoundary4to5
    {
        type            processor;
        value           uniform (0 0 0);
    }
    procBoundary4to11
    {
        type            processor;
        value           uniform (0 0 0);
    }
    procBoundary4to12
    {
        type            processor;
        value           uniform (0 0 0);
    }
}


// ************************************************************************* //
