/*--------------------------------*- C++ -*----------------------------------*\
| =========                 |                                                 |
| \\      /  F ield         | OpenFOAM: The Open Source CFD Toolbox           |
|  \\    /   O peration     | Version:  2506                                  |
|   \\  /    A nd           | Website:  www.openfoam.com                      |
|    \\/     M anipulation  |                                                 |
\*---------------------------------------------------------------------------*/
FoamFile
{
    version     2.0;
    format      ascii;
    arch        "LSB;label=32;scalar=64";
    class       volScalarField;
    location    "2.75";
    object      T;
}
// * * * * * * * * * * * * * * * * * * * * * * * * * * * * * * * * * * * * * //

dimensions      [0 0 0 1 0 0 0];

internalField   nonuniform List<scalar> 
1376
(
245.74329
245.73964
245.73228
245.7272
245.72308
245.71796
245.71018
245.70104
245.6929
245.68649
245.6832
245.78649
245.77584
245.76798
245.76084
245.75202
245.7401
245.7275
245.71678
245.70881
245.7026
245.8053
245.79618
245.78993
245.78438
245.77723
245.76636
245.75338
245.74173
245.73278
245.72553
245.7591
245.75756
245.75798
245.7595
245.75904
245.75514
245.74821
245.74102
245.734
245.73064
245.69407
245.69627
245.70017
245.70641
245.71261
245.71442
245.71383
245.71277
245.71051
245.71253
245.64615
245.64834
245.65198
245.6582
245.66545
245.67041
245.67329
245.67567
245.67643
245.68181
245.6182
245.61918
245.62133
245.62584
245.63184
245.6367
245.64025
245.64347
245.64508
245.65133
245.60349
245.60347
245.60443
245.60729
245.61142
245.61492
245.61772
245.6204
245.6218
245.62714
245.59652
245.59576
245.5962
245.59793
245.60032
245.60226
245.60402
245.60575
245.60658
245.61039
245.59379
245.59255
245.59278
245.59386
245.59508
245.59574
245.59647
245.59728
245.59766
245.6
245.59337
245.59171
245.59186
245.59261
245.59311
245.5929
245.59287
245.59292
245.59301
245.59423
245.59689
245.59419
245.59211
245.59211
245.59263
245.5927
245.59214
245.59163
245.59114
245.59093
245.59149
245.59824
245.59552
245.59307
245.59279
245.59309
245.59301
245.59232
245.59162
245.5909
245.59031
245.5905
245.5993
245.5968
245.59425
245.59352
245.59367
245.5935
245.59279
245.59209
245.59129
245.59043
245.59045
245.59982
245.59769
245.59526
245.59422
245.5942
245.59393
245.59322
245.59256
245.59175
245.59081
245.59076
245.59978
245.59801
245.59592
245.5948
245.5946
245.59418
245.59343
245.59278
245.59203
245.59111
245.59106
245.59924
245.59785
245.5962
245.59514
245.59475
245.59413
245.59333
245.59267
245.59202
245.59118
245.59119
245.59838
245.59735
245.59603
245.59506
245.59453
245.59372
245.5929
245.59225
245.59175
245.59103
245.5911
245.59735
245.59652
245.59534
245.59442
245.59383
245.593
245.59224
245.59159
245.5912
245.59065
245.59077
245.59613
245.5953
245.59429
245.59347
245.59282
245.59209
245.59141
245.59072
245.59043
245.59003
245.59017
245.59476
245.59389
245.59324
245.59267
245.59189
245.59116
245.5904
245.58972
245.58962
245.58932
245.58941
245.59363
245.59273
245.59237
245.59205
245.59119
245.59032
245.58934
245.58885
245.58899
245.58875
245.58874
245.59267
245.59177
245.59154
245.59142
245.59074
245.58975
245.58862
245.5884
245.58857
245.58832
245.58827
245.59209
245.5912
245.59094
245.59086
245.59034
245.58928
245.5884
245.58835
245.58835
245.58795
245.58786
245.59152
245.5909
245.59063
245.59044
245.58987
245.58888
245.58841
245.58843
245.58826
245.58762
245.58755
245.59141
245.59092
245.59063
245.59043
245.59008
245.5894
245.58854
245.58829
245.58845
245.58828
245.58743
245.58731
245.59075
245.59013
245.59015
245.59
245.58968
245.58911
245.58834
245.58797
245.58834
245.58811
245.58735
245.58716
245.5899
245.58979
245.58969
245.58959
245.58945
245.58871
245.58766
245.58758
245.58827
245.58778
245.58722
245.58706
245.58975
245.58948
245.58909
245.58925
245.58909
245.58813
245.58709
245.58745
245.58784
245.58726
245.58691
245.5869
245.58937
245.58897
245.58896
245.58899
245.58845
245.58759
245.58689
245.58728
245.58712
245.58684
245.58658
245.58663
245.58837
245.58842
245.58873
245.58867
245.58787
245.58723
245.5871
245.5872
245.58682
245.5864
245.58606
245.58631
245.58754
245.58758
245.58785
245.58802
245.58766
245.58709
245.58701
245.58737
245.58711
245.58658
245.5862
245.58573
245.58605
245.5869
245.58711
245.58717
245.58696
245.58643
245.58634
245.58682
245.58735
245.58713
245.58663
245.58601
245.58571
245.58577
245.58643
245.58669
245.58657
245.586
245.58595
245.58629
245.58666
245.58677
245.58676
245.58652
245.58598
245.58585
245.5858
245.58629
245.58628
245.58601
245.58583
245.58565
245.58584
245.58624
245.58631
245.58603
245.58609
245.58588
245.58583
245.58569
245.58564
245.58573
245.58583
245.58586
245.58585
245.58584
245.58592
245.58565
245.58541
245.58544
245.58534
245.58527
245.58545
245.58551
245.58547
245.58529
245.58527
245.58556
245.58566
245.58556
245.58554
245.58524
245.58505
245.58509
245.58497
245.58505
245.58504
245.58515
245.58501
245.584
245.58444
245.5845
245.58485
245.58519
245.5851
245.58507
245.58508
245.58474
245.58469
245.58479
245.585
245.58496
245.5847
245.58445
245.58348
245.58381
245.58407
245.58422
245.5846
245.58471
245.58449
245.58473
245.5848
245.5847
245.58485
245.58491
245.58468
245.58431
245.58421
245.58303
245.58297
245.58309
245.58348
245.58363
245.58382
245.58435
245.58442
245.5845
245.58475
245.58468
245.58463
245.58448
245.58427
245.58418
245.58418
245.58223
245.58235
245.58261
245.58277
245.58301
245.58326
245.58348
245.58368
245.58399
245.58405
245.58401
245.58399
245.5837
245.58367
245.58375
245.58367
245.58361
245.58221
245.58229
245.58243
245.58241
245.5825
245.58261
245.58284
245.58297
245.58291
245.58305
245.58301
245.58295
245.583
245.58307
245.58322
245.5832
245.58304
245.58196
245.58189
245.58186
245.58195
245.58195
245.58182
245.58185
245.58178
245.58176
245.58179
245.58174
245.58172
245.58178
245.58192
245.5821
245.58218
245.58229
245.58229
245.58154
245.58153
245.58132
245.58129
245.58119
245.58117
245.58099
245.58099
245.58098
245.58091
245.58089
245.58089
245.58077
245.58061
245.58053
245.58051
245.58052
245.58062
245.58076
245.58037
245.58027
245.58029
245.58022
245.58007
245.57997
245.57988
245.57974
245.57967
245.5797
245.57971
245.57965
245.5796
245.5796
245.57952
245.57949
245.57949
245.57957
245.57974
245.57997
245.57891
245.5789
245.57893
245.57894
245.57899
245.57904
245.57907
245.57914
245.57925
245.57934
245.57942
245.57949
245.57957
245.57956
245.57948
245.57933
245.57921
245.579
245.57893
245.57898
245.5791
245.57929
245.57937
245.5795
245.5796
245.5797
245.57982
245.57991
245.58006
245.58019
245.58029
245.58041
245.58051
245.5806
245.58069
245.58073
245.58074
245.58076
245.58079
245.58081
245.58081
245.58079
245.5808
245.58085
245.58082
245.57826
245.57827
245.57829
245.57831
245.57834
245.57837
245.5785
245.57862
245.57867
245.57879
245.57888
245.57891
245.57899
245.57906
245.57907
245.57918
245.57923
245.57923
245.57926
245.57931
245.57931
245.57925
245.57915
245.57893
245.57875
245.57109
245.57121
245.57133
245.57141
245.57149
245.57154
245.57156
245.57156
245.57159
245.57161
245.5717
245.57181
245.57189
245.57198
245.57213
245.5723
245.57231
245.57231
245.57236
245.57232
245.57219
245.57204
245.57191
245.5718
245.57177
245.57176
245.57165
245.68092
245.6999
245.72087
245.72496
245.70638
245.67663
245.64759
245.6248
245.60912
245.59942
245.59407
245.59158
245.59076
245.59071
245.59099
245.59122
245.59129
245.59112
245.59071
245.59006
245.58929
245.58862
245.58816
245.58781
245.58753
245.58721
245.58691
245.58679
245.58688
245.58688
245.58665
245.58634
245.58594
245.58571
245.58551
245.58525
245.58485
245.58447
245.58431
245.58408
245.58341
245.58276
245.58214
245.58081
245.58023
245.57955
245.58077
245.57865
245.57165
245.67788
245.69659
245.71608
245.71906
245.70014
245.67141
245.64387
245.62246
245.60782
245.59878
245.59379
245.5915
245.59071
245.59064
245.59089
245.59107
245.5911
245.59083
245.59032
245.58964
245.5889
245.58828
245.58789
245.58762
245.5874
245.58722
245.58702
245.58682
245.58671
245.58669
245.58651
245.58626
245.58596
245.58564
245.58548
245.58524
245.58497
245.58471
245.58439
245.58373
245.58314
245.58251
245.5819
245.58093
245.58047
245.57978
245.58074
245.57859
245.57169
245.67386
245.69248
245.71086
245.71293
245.69397
245.66637
245.64032
245.62019
245.60647
245.598
245.59335
245.59122
245.59046
245.59036
245.59055
245.59065
245.5906
245.59023
245.58968
245.58904
245.58838
245.58784
245.5875
245.58731
245.58719
245.5871
245.58696
245.5868
245.58674
245.58652
245.58626
245.58609
245.58594
245.58568
245.58561
245.58558
245.58541
245.58483
245.58427
245.58343
245.58289
245.58216
245.58168
245.58108
245.5806
245.57999
245.58069
245.57842
245.5717
245.66971
245.68843
245.70586
245.70706
245.68806
245.66151
245.63683
245.61788
245.60499
245.59706
245.59273
245.59075
245.59004
245.58996
245.59013
245.5902
245.59015
245.5898
245.58925
245.58863
245.58802
245.58752
245.5872
245.58706
245.58698
245.5869
245.58674
245.58652
245.58634
245.58618
245.58617
245.58617
245.58624
245.58628
245.58629
245.58602
245.58538
245.5847
245.58401
245.58322
245.58252
245.58195
245.58164
245.5812
245.58076
245.58019
245.58065
245.57818
245.57175
245.66613
245.68505
245.70152
245.7018
245.68259
245.65688
245.63337
245.61548
245.60337
245.59595
245.59194
245.59009
245.58944
245.58936
245.58953
245.58962
245.58961
245.58931
245.5888
245.58818
245.58755
245.58704
245.58673
245.58658
245.58652
245.58649
245.58648
245.58642
245.58633
245.58632
245.58648
245.58657
245.58672
245.5867
245.58631
245.58586
245.58524
245.58447
245.58372
245.58289
245.58231
245.58202
245.58166
245.58133
245.58097
245.58041
245.58056
245.57803
245.57189
245.66279
245.68196
245.69763
245.69693
245.67751
245.6525
245.63004
245.61314
245.60181
245.59491
245.59115
245.58942
245.58884
245.58878
245.58892
245.58899
245.58899
245.58869
245.58819
245.5876
245.58705
245.58662
245.58634
245.58622
245.58619
245.58623
245.58633
245.58641
245.58644
245.58643
245.58642
245.58646
245.58641
245.58631
245.58611
245.58564
245.58503
245.58431
245.58355
245.58272
245.58236
245.58221
245.5817
245.58143
245.58114
245.58056
245.58054
245.57792
245.57201
245.65953
245.6789
245.69399
245.69239
245.67289
245.64854
245.62702
245.611
245.60037
245.59404
245.59075
245.58922
245.58863
245.58851
245.58858
245.5886
245.58857
245.5883
245.58782
245.58724
245.58671
245.58632
245.58608
245.58592
245.58581
245.58576
245.58579
245.58589
245.58592
245.58581
245.58567
245.58565
245.58603
245.58624
245.58593
245.58538
245.58476
245.58398
245.58337
245.58283
245.58251
245.58227
245.58184
245.58162
245.58127
245.58064
245.58061
245.57775
245.57219
245.65677
245.67621
245.69087
245.68859
245.66916
245.64545
245.62474
245.60944
245.59937
245.59344
245.59042
245.58907
245.58866
245.58863
245.58864
245.58859
245.58839
245.58802
245.58748
245.58687
245.58632
245.58592
245.58565
245.58547
245.5853
245.58518
245.58511
245.58512
245.58523
245.58546
245.58565
245.58583
245.58587
245.58595
245.58553
245.58498
245.58441
245.58385
245.58352
245.58318
245.58277
245.58233
245.58195
245.58175
245.58146
245.58076
245.58073
245.57773
245.57236
245.6543
245.67376
245.68809
245.6853
245.66604
245.64299
245.62305
245.60843
245.59889
245.5933
245.59038
245.58906
245.58862
245.58859
245.58867
245.58867
245.58839
245.58792
245.58729
245.58665
245.58612
245.58572
245.58548
245.58535
245.58526
245.58521
245.58519
245.58518
245.58542
245.58571
245.58563
245.58561
245.58548
245.58519
245.58512
245.58476
245.58436
245.58401
245.58378
245.58346
245.58289
245.58234
245.58199
245.58183
245.5816
245.58088
245.58083
245.5777
245.57245
245.65201
245.67146
245.68539
245.68204
245.66293
245.64049
245.62128
245.60732
245.59829
245.593
245.59021
245.58895
245.58856
245.58849
245.58852
245.58852
245.58827
245.58779
245.5872
245.58659
245.58608
245.58572
245.58551
245.58539
245.5853
245.58521
245.58522
245.58543
245.5855
245.58549
245.58551
245.58535
245.58516
245.58512
245.58511
245.58486
245.58445
245.58416
245.5838
245.58334
245.58288
245.58233
245.58205
245.58197
245.58167
245.58098
245.58098
245.57753
245.57253
245.65005
245.66944
245.68283
245.67883
245.65986
245.63802
245.61952
245.60614
245.5975
245.59251
245.58996
245.58883
245.58845
245.58837
245.58835
245.5883
245.58805
245.58758
245.58701
245.58645
245.58598
245.58565
245.58546
245.58538
245.5854
245.58541
245.58535
245.58534
245.58536
245.58538
245.58549
245.58539
245.58519
245.58505
245.58499
245.58485
245.58443
245.58398
245.58349
245.58305
245.58273
245.58234
245.58215
245.58207
245.58176
245.58113
245.58126
245.57748
245.5726
245.64825
245.66764
245.68042
245.67569
245.65685
245.63562
245.61782
245.60504
245.59682
245.59205
245.58961
245.58854
245.58816
245.58806
245.58803
245.58793
245.58765
245.5872
245.58667
245.58619
245.58582
245.58556
245.58539
245.58528
245.58525
245.5853
245.5854
245.58547
245.58544
245.58532
245.58518
245.58511
245.58496
245.58491
245.58492
245.58477
245.58432
245.58375
245.58329
245.58302
245.58258
245.5821
245.58211
245.5821
245.58184
245.58129
245.58152
245.57755
245.57261
245.60381
245.59599
245.59146
245.58913
245.58809
245.5877
245.58756
245.5875
245.58737
245.58707
245.58666
245.58622
245.58581
245.58549
245.5853
245.58525
245.58525
245.58522
245.58518
245.58523
245.58528
245.58522
245.58509
245.58496
245.58495
245.58497
245.58489
245.58481
245.58463
245.58418
245.58361
245.58304
245.58264
245.58224
245.58185
245.58203
245.58207
245.58183
245.58141
245.58171
245.57769
245.57259
245.58541
245.58522
245.58505
245.58494
245.58494
245.58503
245.5851
245.58512
245.58501
245.58494
245.58501
245.5851
245.58498
245.58494
245.58477
245.58445
245.58422
245.5839
245.58339
245.58282
245.58236
245.58205
245.58178
245.58188
245.58191
245.58181
245.58152
245.58186
245.57786
245.57254
245.58512
245.58524
245.58509
245.58477
245.58464
245.58462
245.58459
245.58447
245.58419
245.58383
245.5833
245.58278
245.58233
245.58198
245.58173
245.58172
245.58176
245.58185
245.58163
245.58197
245.57802
245.57252
245.58447
245.58422
245.58379
245.58325
245.5828
245.58237
245.582
245.58172
245.58165
245.58173
245.5819
245.58166
245.58208
245.57832
245.57253
245.58279
245.58244
245.58208
245.5818
245.58168
245.58172
245.58188
245.58167
245.58211
245.57851
245.57258
245.58179
245.58178
245.58184
245.5817
245.58208
245.5786
245.57264
245.58178
245.58173
245.58201
245.57859
245.57276
245.58192
245.5786
245.57284
245.57287
)
;

boundaryField
{
    Side
    {
        type            empty;
    }
    Inlet
    {
        type            totalTemperature;
        gamma           1.4;
        T0              uniform 250;
        value           nonuniform List<scalar> 
48
(
245.57957
245.57961
245.57966
245.57972
245.5798
245.5799
245.58002
245.58017
245.58033
245.58041
245.58041
245.58041
245.58043
245.58043
245.58042
245.58041
245.58042
245.58041
245.5804
245.58039
245.58039
245.58036
245.58033
245.58033
245.58033
245.58035
245.58034
245.58031
245.58027
245.58023
245.58021
245.58019
245.58019
245.58023
245.58031
245.58043
245.58053
245.58055
245.58056
245.58056
245.58056
245.58056
245.58056
245.58056
245.58055
245.58054
245.58058
245.58064
)
;
    }
    Airfoil
    {
        type            zeroGradient;
    }
    Outlet
    {
        type            inletOutlet;
        inletValue      nonuniform List<scalar> 0();
        value           nonuniform List<scalar> 0();
    }
    procBoundary10to2
    {
        type            processor;
        value           uniform 245.75358;
    }
    procBoundary10to3
    {
        type            processor;
        value           nonuniform List<scalar> 
23
(
245.6838
245.6873
245.69419
245.70253
245.71076
245.7169
245.721
245.72576
245.7333
245.7333
245.79286
245.6817
245.67894
245.67505
245.67071
245.66675
245.66309
245.65975
245.65716
245.65495
245.65285
245.65092
245.64905
)
;
    }
    procBoundary10to9
    {
        type            processor;
        value           nonuniform List<scalar> 
66
(
245.74926
245.80101
245.81703
245.76157
245.69186
245.64382
245.61704
245.60353
245.59756
245.59564
245.59579
245.59579
245.5983
245.59958
245.60047
245.60085
245.60075
245.6001
245.59898
245.59768
245.59632
245.59506
245.59427
245.59371
245.59296
245.59209
245.59209
245.59145
245.59127
245.59057
245.58977
245.58944
245.58846
245.58846
245.58745
245.58664
245.58625
245.58625
245.5861
245.58564
245.58515
245.58515
245.58383
245.58348
245.58348
245.58275
245.58275
245.58227
245.58225
245.58225
245.58198
245.58198
245.58147
245.58147
245.58035
245.58038
245.58038
245.57892
245.57892
245.57913
245.57925
245.57925
245.57823
245.57824
245.57824
245.57095
)
;
    }
    procBoundary10to11
    {
        type            processor;
        value           nonuniform List<scalar> 
58
(
245.64641
245.66576
245.67789
245.67247
245.65379
245.63316
245.61603
245.61603
245.60254
245.59508
245.59078
245.58858
245.58757
245.58716
245.587
245.58691
245.58673
245.58643
245.58605
245.58569
245.58569
245.58474
245.58459
245.58455
245.58453
245.58451
245.58456
245.58472
245.58495
245.58495
245.58485
245.5849
245.5848
245.58473
245.58465
245.58453
245.58454
245.58454
245.58427
245.58415
245.58375
245.58327
245.58327
245.5829
245.58256
245.58224
245.58196
245.58196
245.58202
245.58187
245.58187
245.58176
245.58163
245.58163
245.58181
245.57866
245.57866
245.573
)
;
    }
}


// ************************************************************************* //
