/*--------------------------------*- C++ -*----------------------------------*\
| =========                 |                                                 |
| \\      /  F ield         | OpenFOAM: The Open Source CFD Toolbox           |
|  \\    /   O peration     | Version:  2506                                  |
|   \\  /    A nd           | Website:  www.openfoam.com                      |
|    \\/     M anipulation  |                                                 |
\*---------------------------------------------------------------------------*/
FoamFile
{
    version     2.0;
    format      ascii;
    arch        "LSB;label=32;scalar=64";
    class       volScalarField;
    location    "1.35";
    object      nut;
}
// * * * * * * * * * * * * * * * * * * * * * * * * * * * * * * * * * * * * * //

dimensions      [0 2 -1 0 0 0 0];

internalField   nonuniform List<scalar> 
1376
(
0.19042053
0.19035317
0.19030635
0.19027684
0.19025305
0.19023918
0.19022764
0.19022626
0.19022286
0.19022803
0.19024458
0.19027053
0.19030817
0.19036089
0.19043319
0.19053169
0.19066555
0.19084657
0.19109707
0.19145285
0.19198858
0.1925573
0.19034127
0.19031388
0.19028947
0.19027843
0.19026788
0.19026686
0.19026362
0.19026849
0.19028582
0.19031248
0.19035052
0.19040367
0.19047637
0.1905754
0.19070978
0.1908917
0.19114312
0.1915003
0.1920377
0.19263092
0.19034898
0.19032523
0.19031612
0.19030686
0.19030568
0.19030305
0.19030791
0.19032587
0.19035323
0.19039174
0.19044545
0.19051866
0.19061829
0.19075332
0.19093626
0.19118876
0.19154746
0.1920869
0.19268796
0.19036166
0.19035221
0.19034484
0.19034342
0.19034181
0.19034705
0.19036555
0.19039366
0.19043281
0.19048727
0.19056118
0.19066158
0.19079747
0.19098169
0.19123556
0.19159617
0.19213804
0.19275321
0.19038185
0.19038064
0.19038015
0.19038607
0.19040504
0.19043393
0.19047387
0.19052925
0.19060402
0.19070534
0.1908423
0.19102797
0.19128347
0.19164628
0.19219099
0.19281947
0.19041759
0.19041817
0.19042505
0.19044452
0.19047422
0.19051511
0.19057154
0.19064737
0.19074979
0.190888
0.19107528
0.19133269
0.19169802
0.19224593
0.19288872
0.19045601
0.19046405
0.19048418
0.19051469
0.19055667
0.19061426
0.19069134
0.19079506
0.19093467
0.19112378
0.19138333
0.19175154
0.19230298
0.19296063
0.19050311
0.19052407
0.19055545
0.19059865
0.19065749
0.19073603
0.19084125
0.19098246
0.19117355
0.19143554
0.19180693
0.19236227
0.19303539
0.19054218
0.19056413
0.19059652
0.19064106
0.19070126
0.19078142
0.19088837
0.19103141
0.19122465
0.19148944
0.19186423
0.19242392
0.19311309
0.1906044
0.19063804
0.19068399
0.1907457
0.19082763
0.19093652
0.19108163
0.19127723
0.19154504
0.19192357
0.192488
0.19319341
0.19068027
0.19072766
0.19079105
0.19087485
0.19098587
0.1911333
0.19133148
0.19160256
0.19198517
0.19255476
0.19327714
0.19077217
0.19083741
0.19092317
0.19103651
0.19118649
0.19138752
0.19166215
0.19204912
0.19262428
0.1933641
0.19088476
0.19097262
0.19108846
0.19124122
0.19144538
0.19172387
0.19211553
0.19269666
0.19345456
0.19102333
0.19114184
0.19129762
0.19150519
0.19178779
0.19218453
0.19277206
0.19354833
0.19119684
0.19135586
0.19156709
0.19185418
0.19225638
0.19285073
0.19364622
0.19141603
0.19163123
0.19192314
0.19233119
0.19293277
0.19374807
0.19169768
0.19199479
0.19240905
0.19301836
0.19385398
0.19206928
0.19249013
0.19310769
0.1939641
0.19257466
0.19320099
0.19407872
0.19329845
0.1941979
0.016207319
0.016568077
0.016946464
0.017314679
0.017626798
0.017956806
0.018389986
0.018808397
0.019079081
0.019223638
0.019469876
0.019985415
0.020627823
0.021208547
0.021644301
0.022001032
0.022378329
0.022745868
0.023024549
0.023251357
0.023597505
0.024128232
0.024729203
0.019233546
0.019649038
0.019999319
0.020414196
0.020914153
0.021404867
0.021834948
0.022138848
0.022332108
0.022535352
0.022872694
0.023379573
0.023990869
0.024548977
0.024933637
0.025202229
0.025473311
0.025726243
0.025883568
0.026005958
0.026313857
0.026888612
0.027554949
0.021816138
0.021817352
0.022012451
0.022354893
0.02243757
0.022516038
0.022759926
0.023164968
0.023513364
0.023752724
0.024026569
0.024460701
0.025088824
0.025751054
0.026309598
0.026802151
0.027303288
0.02775176
0.028076932
0.028412499
0.029035704
0.029971164
0.030991277
0.03946963
0.038985762
0.038840562
0.038848118
0.038200154
0.03760098
0.03726723
0.037243907
0.036985833
0.036452001
0.03602433
0.035771417
0.035711389
0.035668544
0.035570577
0.035537758
0.035611176
0.035641894
0.035505686
0.035421627
0.035794546
0.036588362
0.037553057
0.060745674
0.060171249
0.060099495
0.060466031
0.059888514
0.059132756
0.058565038
0.0581742
0.057459639
0.056546638
0.055675188
0.054950514
0.05431816
0.053624594
0.05286138
0.052211886
0.051719576
0.051190755
0.050443831
0.049689496
0.049408736
0.049663814
0.050195677
0.079906838
0.079535849
0.079786086
0.080646251
0.080816705
0.080439527
0.080058894
0.079623577
0.078714868
0.077575861
0.076430724
0.075403498
0.074438264
0.073459886
0.072453521
0.071543273
0.070767654
0.069952469
0.068904041
0.067793838
0.067100798
0.066970831
0.067163789
0.097767847
0.097752459
0.098343736
0.099467372
0.10010917
0.10021488
0.10020058
0.099822073
0.098722401
0.097383783
0.09586181
0.094569391
0.093345743
0.092265936
0.091313078
0.090432533
0.089618268
0.088777433
0.087757717
0.086654725
0.085862016
0.085558886
0.085553133
0.11637059
0.11659329
0.11715892
0.11799692
0.11848842
0.1186777
0.11879944
0.11836702
0.1171509
0.11566619
0.11376284
0.11211648
0.11076416
0.10964161
0.10882218
0.10808986
0.1073696
0.10667646
0.10591852
0.10506219
0.10434081
0.10393077
0.10373699
0.13391085
0.13442708
0.13498302
0.13541639
0.13576932
0.13579798
0.13571288
0.13565729
0.13511834
0.13391253
0.13241604
0.13036728
0.12847171
0.12707396
0.12593443
0.12519248
0.12457852
0.12398749
0.12351999
0.12311869
0.12258291
0.12195687
0.12141465
0.12099643
0.14913764
0.15031859
0.15104551
0.15134746
0.15143497
0.15121134
0.15088857
0.15058302
0.1499465
0.14882793
0.14747703
0.14562674
0.14383118
0.14246626
0.14133724
0.14059612
0.14001356
0.13952224
0.13926261
0.13915872
0.1388563
0.13825958
0.13756049
0.13692217
0.16209827
0.16340328
0.1639422
0.16406839
0.16409021
0.16389399
0.16354003
0.16311334
0.16246931
0.16151961
0.16042454
0.15905661
0.15772573
0.15649468
0.15548109
0.15475454
0.15415947
0.15371868
0.15357673
0.15360601
0.1533793
0.15275447
0.15193718
0.15114904
0.17286115
0.1737568
0.17400226
0.17399296
0.17395249
0.17379243
0.17349114
0.17303977
0.17242078
0.17173315
0.17098745
0.17015405
0.1692798
0.16842722
0.16766646
0.16699136
0.16638916
0.16597094
0.16584828
0.16585403
0.16560258
0.16497241
0.16414075
0.18115843
0.1815011
0.18152405
0.18145214
0.1813629
0.18119831
0.18094569
0.18056517
0.18006661
0.17957051
0.17912735
0.17870582
0.17826811
0.1777652
0.17719935
0.17660987
0.17606546
0.17568286
0.17552483
0.17544581
0.17517841
0.17462659
0.17389629
0.18705081
0.18719642
0.18714306
0.18701122
0.18684153
0.18664336
0.18642387
0.18614286
0.18578608
0.18544464
0.1851714
0.18493962
0.18469103
0.18435647
0.18393402
0.18346993
0.18302778
0.18268785
0.1824895
0.18235636
0.18213404
0.18172972
0.18116611
0.19071557
0.1908522
0.19086404
0.19075045
0.1905941
0.19043462
0.19028927
0.1901621
0.19000031
0.18977667
0.18953788
0.18932388
0.18912136
0.18890125
0.18863065
0.18831275
0.18796915
0.1876268
0.18732992
0.18711907
0.18698111
0.18683221
0.18657622
0.1861772
0.19325054
0.1932316
0.19310641
0.19291
0.19271317
0.19257938
0.19250934
0.19245143
0.19236684
0.19222973
0.19205309
0.19185927
0.19165779
0.1914508
0.19122887
0.19099132
0.19073664
0.19046788
0.19021161
0.19001076
0.18988212
0.1897784
0.1896143
0.18933789
0.19441275
0.19435271
0.19419685
0.1939901
0.19381081
0.19369817
0.19364411
0.19360273
0.19354133
0.19344084
0.19330079
0.19313867
0.19297378
0.19281228
0.19264669
0.19247063
0.19227717
0.19206465
0.19185022
0.19166852
0.19154019
0.19143831
0.19130408
0.19110065
0.19448987
0.19442881
0.19433644
0.19421837
0.19410107
0.19401598
0.19394802
0.19387988
0.19380808
0.19371672
0.19359978
0.19347333
0.19335444
0.19324366
0.19313109
0.19300791
0.19286987
0.19271489
0.19255114
0.19239962
0.19227363
0.19215835
0.19202369
0.19185597
0.19406195
0.19399705
0.19393097
0.19385955
0.19380424
0.19375433
0.19370057
0.19363447
0.19356128
0.19348479
0.19339598
0.19329799
0.19320156
0.19310954
0.1930224
0.19293837
0.19285015
0.19275411
0.1926477
0.19253375
0.19242041
0.19230931
0.19219067
0.19205556
0.19190712
0.19331626
0.1932343
0.19317227
0.19313175
0.19308152
0.19304912
0.19302376
0.19298275
0.19292201
0.19284806
0.19276694
0.19269091
0.19262177
0.19254884
0.19246917
0.19238608
0.19230157
0.19221975
0.19214046
0.19206149
0.19197882
0.19188439
0.19177172
0.19164462
0.19151355
0.19250399
0.19246136
0.19243272
0.19239582
0.1923511
0.19231249
0.19228142
0.19224371
0.19219056
0.19212451
0.19205769
0.19200337
0.19195231
0.1918884
0.19180928
0.19172077
0.19163109
0.19154923
0.19147619
0.19140843
0.1913371
0.19125046
0.19114459
0.19102874
0.19091475
0.19190159
0.19186177
0.1918319
0.1918034
0.19175692
0.19171001
0.19167528
0.19163734
0.1915924
0.19153855
0.19148113
0.19143207
0.19138817
0.19133891
0.19127582
0.19119776
0.19110714
0.19101294
0.19092585
0.19084842
0.1907783
0.19070538
0.19061784
0.19051474
0.19040707
0.19030473
0.19139685
0.19136114
0.1913392
0.19130908
0.19126563
0.19122475
0.19118151
0.19112767
0.19107041
0.19101878
0.19097307
0.19092989
0.19088325
0.19082752
0.19076202
0.19068774
0.19060512
0.19051662
0.19042725
0.19034249
0.19026358
0.19018343
0.19009312
0.1899927
0.18989008
0.18979153
0.19103573
0.19099986
0.19096865
0.19093562
0.19089576
0.19085225
0.19080262
0.19074586
0.19068642
0.19063284
0.19058563
0.19053832
0.1904842
0.19042013
0.19035211
0.1902819
0.19020785
0.19012832
0.19004342
0.18995689
0.18987184
0.18978688
0.1896974
0.18960204
0.18950304
0.18940327
0.1907838
0.19075903
0.19072329
0.19068745
0.19065335
0.1906163
0.19057549
0.19052821
0.1904748
0.19041725
0.19036175
0.19030876
0.19025362
0.19019486
0.19012954
0.19005984
0.18998908
0.18991626
0.18983899
0.18975697
0.18967233
0.18958725
0.18950187
0.18941499
0.18932464
0.18922958
0.18912986
0.19059183
0.19056443
0.19052982
0.19048694
0.19044488
0.19040502
0.19036174
0.19031673
0.19027107
0.1902209
0.19016662
0.19011473
0.19005885
0.18999398
0.1899255
0.18985595
0.18978679
0.18971584
0.18964057
0.18956055
0.18947729
0.18939216
0.18930574
0.18921789
0.18912746
0.18903381
0.19048143
0.19045272
0.19042224
0.19038577
0.19034397
0.19030319
0.19025949
0.19021517
0.19017049
0.19012405
0.19007892
0.19003162
0.18997555
0.18991503
0.18984951
0.18978223
0.18971619
0.18965011
0.18958045
0.18950655
0.18942879
0.18934757
0.18926263
0.18917397
0.18908187
0.18898712
0.18889065
0.19038908
0.19035666
0.19032097
0.19028245
0.19024346
0.19020528
0.19016613
0.19012367
0.19007786
0.19003111
0.1899814
0.18992968
0.18987412
0.1898143
0.18975074
0.18968613
0.18962101
0.18955364
0.18948185
0.18940706
0.18932994
0.18924983
0.18916598
0.18907752
0.18898491
0.1888892
0.18879135
0.19031706
0.19028175
0.19024507
0.19020643
0.19016699
0.1901278
0.19008759
0.19004564
0.19000236
0.18995576
0.18990551
0.18985176
0.18979398
0.18973428
0.18967307
0.18960934
0.18954417
0.18947573
0.18940373
0.18932913
0.18925237
0.18917285
0.18908975
0.18900227
0.18891051
0.18881478
0.18871672
0.19027058
0.1902361
0.19019968
0.19016103
0.19012045
0.19007916
0.19003692
0.18999335
0.18994849
0.18990118
0.18985095
0.18979775
0.18974234
0.18968567
0.1896267
0.18956395
0.18949707
0.18942536
0.18935112
0.18927526
0.18919866
0.18912062
0.18904001
0.18895504
0.18886443
0.18876783
0.18866729
0.19023928
0.19020317
0.19016568
0.19012731
0.19008812
0.19004864
0.19000787
0.18996463
0.18991789
0.18986721
0.18981322
0.18975646
0.18969963
0.18964196
0.18958264
0.18952045
0.18945462
0.18938634
0.18931488
0.18924094
0.18916428
0.18908542
0.18900429
0.18892041
0.1888323
0.18873886
0.18863952
0.19021632
0.19018019
0.19014161
0.19010129
0.19006012
0.19001838
0.18997597
0.18993248
0.18988716
0.18983996
0.18979009
0.18973691
0.1896804
0.18962039
0.18955745
0.18949285
0.18942721
0.18936026
0.18929078
0.1892182
0.18914202
0.18906299
0.18898049
0.18889536
0.18880701
0.18871489
0.19020048
0.19016352
0.19012513
0.19008533
0.19004422
0.19000163
0.18995762
0.18991203
0.18986478
0.18981568
0.18976455
0.18971123
0.18965548
0.18959714
0.18953666
0.18947403
0.18940935
0.18934284
0.18927371
0.18920098
0.18912463
0.18904541
0.18896321
0.18887764
0.18878899
0.18869701
0.19018858
0.19015122
0.19011239
0.19007189
0.19002974
0.18998621
0.18994174
0.18989659
0.18985031
0.18980211
0.18975131
0.1896974
0.18964074
0.18958217
0.18952192
0.18946048
0.18939727
0.18933152
0.18926258
0.18918986
0.18911365
0.18903418
0.18895195
0.188867
0.18877921
0.18868834
0.19018641
0.19014786
0.1901078
0.19006656
0.19002455
0.18998193
0.18993841
0.18989357
0.18984665
0.18979709
0.18974467
0.18968951
0.1896319
0.18957241
0.18951173
0.18944993
0.18938605
0.18931962
0.18925032
0.18917819
0.18910334
0.18902596
0.18894558
0.18886189
0.18877496
0.19018326
0.1901453
0.19010633
0.19006614
0.19002455
0.18998135
0.1899364
0.18988954
0.18984068
0.18978984
0.1897371
0.1896826
0.18962645
0.18956864
0.18950903
0.18944721
0.1893828
0.18931576
0.18924633
0.18917488
0.18910108
0.18902435
0.18894456
0.18886172
0.18877599
0.1901891
0.19015159
0.1901129
0.19007284
0.19003116
0.18998753
0.18994172
0.18989372
0.18984379
0.18979231
0.18973949
0.18968537
0.18962976
0.18957227
0.18951264
0.18945064
0.18938623
0.18931949
0.18925074
0.18918
0.18910709
0.18903108
0.18895192
0.18886993
0.18878505
0.19020483
0.19016619
0.1901262
0.19008481
0.19004196
0.18999765
0.18995184
0.18990448
0.18985547
0.18980477
0.18975229
0.18969802
0.18964184
0.18958375
0.18952376
0.18946186
0.18939808
0.18933231
0.18926423
0.18919357
0.18912008
0.18904374
0.18896477
0.18888351
0.19023012
0.19019073
0.19015014
0.19010831
0.19006516
0.19002062
0.18997452
0.18992679
0.18987736
0.18982617
0.18977324
0.18971858
0.18966225
0.18960422
0.18954442
0.1894827
0.18941892
0.18935288
0.18928456
0.18921382
0.18914072
0.18906519
0.18898723
0.18890674
0.1902674
0.19022743
0.19018622
0.19014374
0.19009995
0.1900548
0.1900082
0.18996009
0.18991038
0.18985903
0.18980604
0.1897514
0.18969511
0.18963705
0.18957711
0.18951514
0.18945107
0.18938479
0.18931636
0.18924574
0.18917297
0.18909799
0.18902074
0.1903198
0.19027933
0.19023762
0.1901946
0.19015024
0.19010449
0.19005733
0.19000872
0.18995863
0.18990705
0.18985389
0.18979909
0.18974254
0.18968418
0.18962389
0.18956164
0.18949742
0.18943127
0.18936315
0.18929299
0.18922075
0.18914623
0.19039177
0.19035074
0.19030849
0.19026498
0.19022014
0.19017396
0.1901264
0.19007742
0.19002697
0.18997503
0.18992153
0.1898664
0.18980958
0.18975099
0.18969061
0.18962843
0.18956442
0.18949854
0.1894307
0.1893608
0.18928873
0.18921449
0.19048977
0.19044804
0.19040517
0.19036111
0.19031577
0.19026913
0.19022114
0.19017177
0.19012096
0.19006868
0.19001489
0.18995953
0.18990259
0.18984398
0.18978365
0.18972153
0.18965757
0.18959171
0.18952391
0.1894541
0.18938226
0.19062319
0.19058071
0.19053709
0.19049229
0.19044624
0.19039889
0.19035024
0.1903003
0.19024899
0.19019627
0.1901421
0.19008644
0.19002924
0.18997046
0.18991003
0.18984787
0.18978396
0.18971823
0.18965065
0.18958115
0.19080337
0.19075984
0.19071527
0.19066958
0.19062274
0.19057472
0.19052546
0.19047494
0.19042314
0.19037002
0.19031552
0.19025958
0.19020215
0.1901432
0.1900827
0.19002059
0.18995684
0.18989135
0.1898241
0.19105302
0.19100825
0.19096245
0.19091561
0.19086764
0.19081854
0.19076831
0.19071691
0.1906643
0.19061046
0.19055534
0.19049887
0.19044103
0.19038175
0.19032105
0.19025885
0.19019514
0.19140753
0.19136115
0.1913138
0.19126548
0.19121613
0.19116571
0.19111422
0.19106162
0.19100788
0.19095296
0.19089683
0.19083945
0.19078081
0.19072086
0.19065958
0.19059693
0.19194134
0.19189251
0.1918427
0.19179189
0.1917401
0.19168729
0.1916334
0.19157842
0.19152233
0.1914651
0.19140674
0.19134721
0.19128649
0.19122457
0.19250097
0.19243857
0.19237396
0.19230769
0.19223988
0.19217056
0.19209976
0.19202748
0.19195372
0.19187844
0.19180167
0.19172344
)
;

boundaryField
{
    Side
    {
        type            empty;
    }
    Inlet
    {
        type            calculated;
        value           nonuniform List<scalar> 
32
(
0.19947651
0.19947482
0.19947314
0.19947162
0.1994703
0.19946831
0.19946595
0.19946432
0.19946327
0.19946209
0.19946112
0.19946126
0.19946353
0.19946654
0.19946893
0.1994717
0.19947418
0.19947605
0.19947767
0.19947861
0.19947829
0.19948
0.19948108
0.19948161
0.19948197
0.19948207
0.19948176
0.19948088
0.19947965
0.19947831
0.1994769
0.19947508
)
;
    }
    Airfoil
    {
        type            nutkWallFunction;
        blending        stepwise;
        value           nonuniform List<scalar> 0();
    }
    Outlet
    {
        type            calculated;
        value           nonuniform List<scalar> 0();
    }
    procBoundary9to2
    {
        type            processor;
        value           nonuniform List<scalar> 
23
(
0.024822448
0.024313371
0.023856406
0.02348524
0.023159775
0.022804986
0.022391673
0.021959452
0.021548674
0.02112525
0.020644478
0.020123868
0.019604506
0.019165413
0.018890233
0.01873217
0.018533767
0.018173401
0.017690332
0.017263359
0.016994773
0.016759883
0.016454297
)
;
    }
    procBoundary9to8
    {
        type            processor;
        value           nonuniform List<scalar> 
75
(
0.19051057
0.19051057
0.19044516
0.19038588
0.19038588
0.19037573
0.19037573
0.19038238
0.19038238
0.19039892
0.19038719
0.19038719
0.1904178
0.1904178
0.19045444
0.19045444
0.19049369
0.19049369
0.19053106
0.19058144
0.19058144
0.19064512
0.19064512
0.19072331
0.19072331
0.19081751
0.19081751
0.19093315
0.19093315
0.19107549
0.19107549
0.19125352
0.19125352
0.19147818
0.19147818
0.19176654
0.19176654
0.19214671
0.19214671
0.19266278
0.19266278
0.19340033
0.19432186
0.015921791
0.018740555
0.021913348
0.040011626
0.061465368
0.080560709
0.098184921
0.11650256
0.11650256
0.13368043
0.14784178
0.16020259
0.17131763
0.18042392
0.18674554
0.18674554
0.19057867
0.19320218
0.19439366
0.19450862
0.19450862
0.19410486
0.19336864
0.19255056
0.19255056
0.19195626
0.19143269
0.19105873
0.19105873
0.19080353
0.19061518
0.19061518
)
;
    }
    procBoundary9to10
    {
        type            processor;
        value           nonuniform List<scalar> 
66
(
0.025264661
0.028104596
0.03184601
0.038425009
0.050672099
0.067265231
0.085415028
0.1034158
0.12050375
0.1362746
0.15038402
0.16331134
0.16331134
0.17312213
0.1805032
0.18564881
0.18894865
0.19083061
0.19166374
0.19175489
0.19138407
0.1908037
0.19020549
0.18969404
0.18930126
0.18902413
0.18893543
0.18893543
0.1887915
0.18869161
0.18861681
0.18856496
0.18853607
0.18861889
0.18861889
0.18860187
0.18859417
0.18868513
0.18868513
0.18868768
0.18869725
0.18879988
0.18879988
0.18882358
0.18894112
0.18894112
0.1890694
0.1890694
0.189138
0.18930839
0.18930839
0.18950968
0.18950968
0.18975507
0.19012989
0.18975507
0.19006303
0.19012989
0.19053289
0.19116143
0.19053289
0.19109711
0.19164377
0.19116143
0.19156258
0.19164377
)
;
    }
}


// ************************************************************************* //
