/*--------------------------------*- C++ -*----------------------------------*\
| =========                 |                                                 |
| \\      /  F ield         | OpenFOAM: The Open Source CFD Toolbox           |
|  \\    /   O peration     | Version:  2506                                  |
|   \\  /    A nd           | Website:  www.openfoam.com                      |
|    \\/     M anipulation  |                                                 |
\*---------------------------------------------------------------------------*/
FoamFile
{
    version     2.0;
    format      ascii;
    arch        "LSB;label=32;scalar=64";
    class       volScalarField;
    location    "0.0065";
    object      Co;
}
// * * * * * * * * * * * * * * * * * * * * * * * * * * * * * * * * * * * * * //

dimensions      [0 0 0 0 0 0 0];

internalField   nonuniform List<scalar> 
13761
(
0.00053916851
0.001670045
0.0029053673
0.0042317031
0.005575808
0.0068154055
0.0078769634
0.0087661048
0.0095179791
0.010165689
0.010734236
0.011241887
0.011701571
0.00054970212
0.0017000597
0.0029524608
0.0042932825
0.0056482794
0.0068940366
0.007957296
0.0088450532
0.009593663
0.010237138
0.01080123
0.011304521
0.011760136
0.012177623
0.012564274
0.01292578
0.013266641
0.01359049
0.013900295
0.014198481
0.014487316
0.014768871
0.015044916
0.015317181
0.0155873
0.015856755
0.00055890112
0.0017265641
0.0029946399
0.0043493072
0.0057156143
0.0069693877
0.008037433
0.0089275314
0.0096768113
0.010319796
0.010882614
0.011384068
0.011837397
0.012252352
0.012636465
0.012995587
0.013334391
0.013656652
0.013968187
0.014276479
0.014580714
0.014877825
0.015169236
0.015456268
0.01574009
0.016021785
0.016302367
0.016582754
0.016863847
0.017146541
0.01743175
0.017720395
0.0005679965
0.0017537363
0.0030401746
0.0044132861
0.0057972134
0.0070662138
0.0081460163
0.0090445087
0.0097994217
0.010445904
0.011010696
0.011512956
0.011974355
0.012406072
0.012809342
0.013189416
0.013550607
0.013896215
0.014228819
0.01455052
0.014863232
0.015168651
0.015468178
0.015763132
0.016054717
0.016343949
0.016631885
0.01691945
0.017207582
0.017497227
0.017789334
0.01808487
0.018384817
0.018690181
0.019002076
0.019321708
0.00016803212
0.00051365555
0.00088629696
0.0012894759
0.0017213178
0.0021762531
0.0026393867
0.0030885201
0.0035046208
0.0038792557
0.0042132431
0.0045116615
0.0047802246
0.00502403
0.0052473735
0.0054537063
0.0056456885
0.005825549
0.0059951023
0.0061556368
0.0063083047
0.0064541759
0.0065939289
0.0067281802
0.006857541
0.0069823083
0.0071028994
0.0072195171
0.0073323418
0.0074414971
0.0075470578
0.0076490305
0.0077474867
0.0078423647
0.0079337072
0.0080217176
0.0081065278
0.0081882546
0.0082650294
0.008317084
0.0083408626
0.0083538941
0.0083645096
0.0083734065
0.008380793
0.0083867451
0.0083914184
0.008394991
0.0083975008
0.0083988445
0.008398915
0.0083976926
0.00016675984
0.00051007702
0.00087912814
0.0012777949
0.0017052774
0.0021553933
0.0026132173
0.0030566454
0.0034669046
0.0038358858
0.0041646123
0.0044582136
0.0047223966
0.0049622337
0.0051819935
0.0053850804
0.0055742021
0.0057514725
0.0059186765
0.0060770838
0.0062278439
0.0063720076
0.0065102449
0.0066431606
0.0067713495
0.0068951175
0.0070148649
0.0071307863
0.0072430513
0.007351775
0.0074570185
0.007558788
0.0076571437
0.0077520249
0.007843475
0.0079316972
0.0080168621
0.0080992044
0.0081775249
0.0082340706
0.0082605531
0.0082745175
0.0082854691
0.0082945741
0.0083021517
0.0083083601
0.0083133536
0.0083172199
0.0083199102
0.0083213517
0.0083216277
0.0083209445
0.0083195186
0.0083172784
0.0083139596
0.0083093528
0.0083035926
0.0082970596
0.0082899644
0.0082820966
0.0082730352
0.0082625915
0.0001654162
0.00050628686
0.00087105403
0.0012640184
0.0016862114
0.0021308108
0.0025826491
0.0030197434
0.0034236165
0.0037864508
0.0041094701
0.0043978557
0.0046572883
0.0048928209
0.0051086786
0.0053082341
0.0054941781
0.0056685821
0.0058331903
0.0059892914
0.0061379819
0.0062803165
0.0064169418
0.0065484367
0.0066753572
0.0067980142
0.0069167917
0.0070318832
0.0071434544
0.0072516164
0.0073564284
0.0074578962
0.0075560775
0.0076509166
0.0077424561
0.0078308942
0.0079164141
0.0079992984
0.0080787879
0.008139739
0.0081693172
0.0081846462
0.0081966089
0.0082067837
0.0082154117
0.0082225779
0.0082283711
0.0082328527
0.0082360406
0.0082380315
0.0082390843
0.0082393914
0.0082389193
0.0082373541
0.0082344776
0.0082304175
0.0082255811
0.0082202562
0.0082142711
0.0082071328
0.0081985994
0.0081890315
0.0081790782
0.0081686412
0.0081566292
0.0081422644
0.0081261676
0.00016386141
0.00050197648
0.00086453842
0.0012526001
0.0016651335
0.0021004526
0.0025449224
0.0029744552
0.0033708358
0.0037265344
0.004042951
0.0043252825
0.0045791718
0.0048096425
0.0050208684
0.0052161957
0.0053982837
0.0055693037
0.0057309812
0.0058846346
0.0060313786
0.0061721905
0.0063076658
0.0064383213
0.0065646381
0.0066868831
0.0068053835
0.0069203151
0.0070318182
0.007139998
0.0072449139
0.0073465804
0.0074450539
0.0075403036
0.0076323873
0.0077215044
0.0078078632
0.0078917927
0.0079728806
0.0080388298
0.0080724644
0.0080893873
0.0081020893
0.0081128043
0.0081218783
0.0081294616
0.0081356799
0.0081406797
0.0081446305
0.0081477492
0.0081502069
0.0081519024
0.0081525444
0.0081518692
0.0081499838
0.0081472469
0.0081439008
0.0081398039
0.0081345404
0.0081279279
0.0081203934
0.0081125306
0.008104229
0.0080944519
0.0080823479
0.0080684194
0.0080538032
0.0080383856
0.0080209591
0.008001685
0.0079824499
0.00016194771
0.00049677759
0.00085688795
0.0012432781
0.0016548445
0.0020856715
0.002520761
0.0029386432
0.0033218119
0.0036633619
0.0039650792
0.0042361944
0.0044829403
0.0047072111
0.0049128518
0.0051031772
0.005280808
0.0054478734
0.005605982
0.0057564608
0.005900416
0.0060387078
0.0061720211
0.0063009152
0.0064258436
0.0065470941
0.0066649366
0.0067795107
0.0068909225
0.0069992301
0.007104457
0.0072065945
0.0073056648
0.0074016436
0.0074945883
0.007584678
0.0076721215
0.0077572427
0.007839827
0.0079106045
0.007949228
0.0079688631
0.0079837132
0.0079965596
0.0080076635
0.0080171969
0.0080254107
0.008032613
0.00803904
0.0080447732
0.008049713
0.0080535898
0.0080562388
0.0080577405
0.0080583825
0.0080582893
0.0080572316
0.0080548425
0.008051028
0.0080461764
0.0080407994
0.0080347509
0.0080272072
0.008017543
0.0080061101
0.0079938445
0.0079808284
0.0079659331
0.0079487797
0.0079309842
0.0079138894
0.0078965895
0.0078783886
0.0078606892
0.00015956034
0.00048972392
0.00084514183
0.001226888
0.0016339595
0.0020605294
0.0024916834
0.0029060494
0.0032862998
0.0036256876
0.0039260365
0.0041925945
0.0044308705
0.0046457062
0.0048410731
0.0050233792
0.0051965238
0.0053601258
0.0055148103
0.0056617373
0.0058018991
0.0059361738
0.0060653788
0.0061902085
0.0063112201
0.0064288205
0.0065433391
0.006654978
0.0067638763
0.0068701017
0.0069736659
0.0070745404
0.0071727019
0.007268096
0.0073607367
0.0074507421
0.0075382653
0.0076235196
0.0077062464
0.007779604
0.0078209487
0.007840099
0.007854206
0.0078672584
0.0078797693
0.0078918304
0.0079033455
0.0079142587
0.0079244145
0.0079335626
0.0079414656
0.007947995
0.0079532749
0.0079575487
0.0079609466
0.0079632845
0.0079642488
0.0079637974
0.0079623012
0.0079601837
0.0079573434
0.0079530517
0.007946728
0.007938523
0.0079290561
0.0079185664
0.0079063198
0.0078917425
0.0078759544
0.0078605421
0.0078449692
0.0078280625
0.0078111237
0.0077953211
0.0077789741
0.0077607485
0.0077411615
0.00015720615
0.0004820452
0.00083089962
0.0012050687
0.0016039116
0.0020250696
0.0024543832
0.0028682621
0.003248982
0.0035894888
0.0038914421
0.0041600732
0.0044009755
0.0046191307
0.0048186726
0.0050029105
0.0051744883
0.0053354496
0.0054873442
0.0056313722
0.005768597
0.0058999715
0.0060262659
0.0061481479
0.0062661697
0.006380731
0.0064921998
0.0066008192
0.0067067716
0.0068101741
0.0069110854
0.0070095134
0.0071054655
0.0071989051
0.0072898558
0.0073784407
0.0074648256
0.007549278
0.007631787
0.0077081167
0.007755236
0.0077777141
0.0077940355
0.0078086411
0.0078219681
0.0078341619
0.0078454538
0.0078560701
0.0078657545
0.0078742585
0.0078815564
0.0078877788
0.0078931087
0.0078975564
0.0079009068
0.0079028396
0.0079032629
0.0079025071
0.0079010082
0.0078987937
0.0078954181
0.0078904451
0.0078839214
0.0078762095
0.0078674832
0.0078572407
0.0078446676
0.0078301553
0.0078153434
0.0078005897
0.007784744
0.0077684109
0.0077532047
0.0077380287
0.0077210107
0.0077024062
0.007682657
0.0076619146
0.0076413322
0.00015550899
0.00047648142
0.00082124339
0.0011940917
0.0015950827
0.002017284
0.0024456676
0.0028585724
0.0032383729
0.0035781142
0.003879434
0.0041475316
0.0043879299
0.0046054932
0.004804266
0.0049874843
0.0051577312
0.005317072
0.0054671767
0.0056094005
0.0057449716
0.0058749053
0.0059999327
0.0061206784
0.0062376356
0.0063511397
0.0064615236
0.006569001
0.0066737371
0.0067758467
0.0068753943
0.0069724006
0.0070668931
0.007158846
0.0072483019
0.0073354013
0.0074203208
0.0075033723
0.0075847686
0.007662327
0.0077142171
0.0077391219
0.0077567392
0.0077724159
0.0077862926
0.0077984268
0.0078089498
0.00781806
0.0078258953
0.0078327463
0.0078388342
0.007844227
0.007848862
0.0078525041
0.0078548807
0.0078558611
0.0078556289
0.0078545316
0.0078526169
0.0078495122
0.007844913
0.0078389211
0.0078319007
0.0078240096
0.0078148247
0.0078034927
0.0077899287
0.0077755244
0.0077612208
0.0077461442
0.0077301734
0.0077149403
0.0077002989
0.007684353
0.0076669125
0.0076483746
0.0076281785
0.0076069072
0.0075859434
0.0075661616
0.007548598
0.00015440599
0.00047302259
0.00081498427
0.0011848492
0.001582889
0.002001998
0.0024271656
0.0028368586
0.0032136499
0.003550752
0.0038498626
0.0041161546
0.0043550918
0.0045714523
0.0047692157
0.0049515659
0.0051210322
0.0052796481
0.0054290625
0.0055706073
0.0057054637
0.0058346732
0.0059589884
0.0060790356
0.0061953258
0.0063081848
0.0064179377
0.0065247822
0.0066288735
0.0067303188
0.0068291827
0.0069254864
0.0070192691
0.0071105163
0.0071992775
0.0072857084
0.0073699938
0.0074524606
0.0075334244
0.0076118188
0.0076679258
0.0076940179
0.0077107473
0.0077254461
0.0077387569
0.0077507094
0.0077613324
0.0077707082
0.0077788989
0.0077859973
0.0077921027
0.0077972024
0.0078012051
0.0078039579
0.0078054133
0.0078057004
0.0078050557
0.0078035254
0.0078008201
0.0077967261
0.0077915049
0.007785537
0.0077788144
0.0077708112
0.0077607749
0.0077485553
0.0077352073
0.0077217953
0.0077077245
0.0076923978
0.0076771794
0.0076627888
0.0076476537
0.0076310729
0.0076136368
0.0075946932
0.0075739945
0.0075526732
0.0075316595
0.007512044
0.0074945936
0.0074786682
0.00015323145
0.00046945957
0.00080882603
0.0011758026
0.0015706827
0.0019863888
0.0024079488
0.0028139524
0.0031871979
0.0035210869
0.0038173939
0.0040812876
0.0043181928
0.0045328508
0.0047291961
0.0049103615
0.0050788445
0.0052366521
0.0053854567
0.0055265412
0.0056609928
0.0057897899
0.005913648
0.006033158
0.006148855
0.006261085
0.0063702024
0.0064764149
0.0065798919
0.0066807445
0.0067790305
0.0068747711
0.0069680031
0.0070587112
0.0071469525
0.0072328888
0.0073167192
0.007398794
0.0074795083
0.0075584627
0.0076189824
0.0076471269
0.007663328
0.0076768643
0.0076890346
0.0077001177
0.0077103573
0.0077198887
0.0077286616
0.0077364883
0.0077431748
0.007748578
0.0077526573
0.0077553937
0.00775686
0.0077571611
0.007756278
0.0077540014
0.0077502208
0.0077452704
0.007739667
0.0077334264
0.0077260547
0.0077170171
0.00770622
0.0076943265
0.0076820943
0.0076690895
0.0076545719
0.0076396145
0.0076255534
0.0076113621
0.0075956714
0.0075788983
0.0075609346
0.0075412303
0.0075204704
0.00749928
0.007478501
0.0074593352
0.0074417387
0.0074250192
0.0074089383
0.0073932544
0.00015214503
0.00046614133
0.0008026765
0.0011663633
0.0015579639
0.0019702398
0.0023881605
0.0027904544
0.0031601189
0.0034907234
0.0037841103
0.0040454551
0.0042801711
0.0044929585
0.0046877167
0.0048675526
0.0050349348
0.0051918443
0.0053399093
0.0054803289
0.0056141566
0.0057423339
0.0058655355
0.0059843252
0.0060992467
0.0062106582
0.0063189334
0.0064242972
0.0065269295
0.00662696
0.0067244662
0.0068194798
0.0069120469
0.0070021523
0.0070898547
0.0071753166
0.0072587298
0.0073404475
0.0074208967
0.0075000529
0.0075646193
0.0075954333
0.0076115854
0.007624589
0.0076363324
0.0076471425
0.0076572308
0.0076666607
0.0076753443
0.0076831451
0.0076899489
0.0076956095
0.007700006
0.0077030659
0.0077048364
0.0077053283
0.0077044228
0.0077020547
0.0076984589
0.0076939775
0.0076886047
0.0076819639
0.0076738529
0.0076643592
0.0076537254
0.007642266
0.0076298603
0.0076161279
0.0076017621
0.0075881166
0.0075747565
0.0075601564
0.0075442775
0.007527423
0.0075088742
0.0074888183
0.0074679156
0.0074466896
0.0074264523
0.0074076795
0.0073897247
0.0073722169
0.0073550953
0.0073384446
0.0073231549
0.00015095562
0.00046254944
0.00079658205
0.0011574857
0.0015460009
0.0019549788
0.0023693879
0.0027680701
0.0031342251
0.0034615797
0.0037520546
0.0040108235
0.00424326
0.0044540435
0.0046470423
0.0048253377
0.0049913695
0.0051470973
0.0052941077
0.0054335703
0.0055665185
0.005693885
0.0058163329
0.0059344274
0.0060487052
0.0061595109
0.0062672021
0.006371994
0.0064740656
0.0065735373
0.0066704804
0.006764924
0.0068569202
0.0069464602
0.0070336047
0.0071185237
0.0072014179
0.0072826469
0.0073626562
0.0074416371
0.0075096088
0.0075436894
0.0075603383
0.0075734921
0.0075855766
0.0075967712
0.0076071171
0.00761659
0.0076251346
0.0076327084
0.0076392539
0.0076446237
0.0076487005
0.0076514389
0.0076528735
0.0076529636
0.0076516536
0.0076490787
0.0076454734
0.0076408652
0.0076351267
0.0076282742
0.0076204177
0.0076114231
0.0076011449
0.0075896769
0.0075770627
0.0075636981
0.0075505414
0.0075376649
0.0075239124
0.007508992
0.0074933774
0.0074763809
0.0074574097
0.0074370247
0.0074159124
0.0073951244
0.007375486
0.0073566253
0.0073381459
0.0073199685
0.0073019206
0.0072845057
0.0072688886
0.0072558252
0.00014986689
0.00045922649
0.00079088119
0.0011486388
0.0015337077
0.0019394471
0.0023504397
0.0027456348
0.0031084071
0.0034326424
0.0037203146
0.0039765931
0.0042068197
0.0044156421
0.004606897
0.0047836177
0.0049482264
0.0051026574
0.0052484594
0.0053867941
0.0055186661
0.0056449804
0.0057663819
0.0058834314
0.0059966658
0.0061064359
0.006213115
0.0063169394
0.0064181
0.0065167336
0.0066129272
0.0067067173
0.0067981525
0.0068872191
0.0069739703
0.0070585665
0.0071411993
0.0072222198
0.0073020835
0.0073811259
0.0074524036
0.0074909044
0.0075089523
0.0075227713
0.0075354074
0.0075469612
0.0075574513
0.0075669057
0.0075753474
0.007582774
0.0075891357
0.0075943149
0.0075982606
0.0076009526
0.0076023477
0.0076023255
0.0076008529
0.0075980644
0.0075940789
0.0075889455
0.0075828557
0.0075759441
0.0075680064
0.0075587992
0.0075485263
0.007537439
0.0075255442
0.0075131758
0.0075007229
0.007487702
0.0074736723
0.0074590207
0.0074433906
0.0074257629
0.0074062182
0.0073856534
0.0073649837
0.0073449154
0.0073254258
0.0073062635
0.0072874087
0.0072684971
0.0072494824
0.0072315081
0.0072158443
0.0072025654
0.0071910312
0.0071809223
0.00014868221
0.00045565456
0.00078483143
0.0011399418
0.0015220915
0.0019246466
0.0023322329
0.0027239056
0.0030832376
0.0034042599
0.0036890051
0.0039426391
0.0041704816
0.0043771381
0.0045664161
0.0047413432
0.0049043226
0.0050572776
0.0052017295
0.0053388209
0.0054695644
0.0055948634
0.0057153567
0.0058316185
0.0059441637
0.0060533232
0.0061594489
0.0062627468
0.0063633883
0.0064615025
0.0065571693
0.0066504268
0.0067413344
0.0068298904
0.0069161632
0.0070003208
0.0070825609
0.0071632403
0.0072428185
0.0073217112
0.0073955429
0.0074385582
0.0074577437
0.0074715244
0.0074838838
0.0074950423
0.0075051431
0.0075143193
0.0075226077
0.0075299476
0.0075362305
0.007541327
0.0075451715
0.00754767
0.0075487373
0.0075483622
0.007546692
0.0075439318
0.0075402029
0.0075355932
0.0075301338
0.0075235748
0.0075157422
0.0075069446
0.0074974597
0.0074869965
0.0074754673
0.0074635439
0.0074514696
0.007438703
0.0074250614
0.00741039
0.0073939064
0.0073753696
0.0073555605
0.0073353311
0.0073152688
0.0072955884
0.0072762432
0.0072571041
0.0072377098
0.0072176991
0.0071979005
0.0071797808
0.0071639588
0.0071501707
0.0071379746
0.0071268852
0.0071172277
0.00014761329
0.00045238577
0.00077920639
0.0011313576
0.0015103219
0.0019098292
0.0023142007
0.002702596
0.0030587456
0.0033768217
0.0036589156
0.0039101739
0.0041358858
0.0043406266
0.0045281578
0.0047014704
0.0048629388
0.0050144553
0.0051575214
0.0052932849
0.0054227434
0.0055468018
0.0056661005
0.0057812096
0.0058926559
0.0060007792
0.0061059335
0.0062083338
0.0063081598
0.0064055415
0.0065005615
0.0065932552
0.0066836719
0.0067718076
0.0068577214
0.0069415746
0.007023562
0.0071040361
0.0071834606
0.0072623247
0.007338283
0.0073862364
0.0074070581
0.0074211345
0.0074336856
0.0074451408
0.0074556514
0.0074652645
0.0074738868
0.0074813614
0.0074875638
0.0074923759
0.0074957078
0.0074974587
0.0074976655
0.007496534
0.0074943293
0.0074912159
0.0074872476
0.0074824504
0.0074768154
0.0074703384
0.0074632308
0.0074555473
0.0074467654
0.0074365738
0.0074256401
0.0074146193
0.0074031193
0.0073906028
0.0073769616
0.0073617032
0.007344366
0.0073254204
0.0073057498
0.007285869
0.0072662411
0.0072471011
0.0072282044
0.0072088061
0.0071883265
0.0071674692
0.007147487
0.007129159
0.0071129017
0.0070988711
0.0070861064
0.0070736803
0.007062741
0.0070557924
0.00014649
0.00044899373
0.00077345005
0.001122878
0.0014988348
0.0018952214
0.0022962642
0.0026812186
0.0030340104
0.0033489642
0.0036282213
0.0038769302
0.0041003433
0.0043029917
0.0044886217
0.0046602052
0.0048200856
0.0049701502
0.0051118855
0.0052464143
0.00537473
0.0054977147
0.0056160071
0.0057301826
0.0058407438
0.0059480135
0.0060523432
0.0061539523
0.0062530229
0.0063496866
0.0064440313
0.0065360995
0.0066259466
0.0067135682
0.006799027
0.0068824844
0.0069641355
0.0070443342
0.0071235521
0.0072023668
0.0072798073
0.0073328155
0.007355659
0.0073702025
0.0073831114
0.0073949969
0.0074059393
0.0074159059
0.0074247539
0.0074323338
0.0074385466
0.0074432671
0.007446402
0.0074479392
0.0074480667
0.0074470348
0.0074449636
0.0074418383
0.0074376577
0.0074325278
0.0074266762
0.0074203259
0.0074134801
0.0074056932
0.0073966458
0.0073868538
0.0073769332
0.0073665095
0.0073549546
0.0073423204
0.0073284838
0.0073127461
0.0072949823
0.0072760226
0.0072565693
0.0072371737
0.0072183242
0.0071998618
0.0071809224
0.0071606277
0.007139311
0.0071181914
0.0070979435
0.0070792712
0.0070630713
0.0070488054
0.0070348645
0.007021207
0.0070096381
0.0070020068
0.0069984643
0.00014544182
0.00044580021
0.00076798408
0.001114445
0.0014871516
0.001880455
0.0022782313
0.0026598523
0.0030094097
0.0033213594
0.003597899
0.0038441645
0.0040653709
0.0042660208
0.0044498247
0.0046197154
0.0047780299
0.004926636
0.0050669925
0.0052002326
0.0053273384
0.0054491878
0.0055664157
0.0056795778
0.0057891817
0.0058955587
0.0059990551
0.0060998802
0.0061982127
0.0062941843
0.0063878756
0.0064793304
0.0065686061
0.0066557023
0.0067406861
0.0068237196
0.0069050014
0.0069848931
0.0070638833
0.0071426245
0.0072209772
0.0072790299
0.0073042827
0.0073192243
0.0073322235
0.0073441212
0.0073549888
0.007364809
0.0073734845
0.0073808911
0.0073869033
0.0073913717
0.007394245
0.0073956029
0.0073956705
0.0073946414
0.0073925996
0.0073896177
0.0073858205
0.0073813615
0.0073763413
0.0073706416
0.0073639527
0.007356108
0.0073474593
0.0073384523
0.007328822
0.0073181275
0.0073065363
0.0072941531
0.0072802036
0.0072639789
0.0072459736
0.0072271658
0.0072082251
0.0071897381
0.0071717055
0.007153384
0.0071338292
0.0071128498
0.00709123
0.0070697155
0.0070491026
0.0070307248
0.0070146095
0.0069992718
0.0069841507
0.0069699932
0.0069578735
0.0069491305
0.0069445069
0.0001442855
0.00044232481
0.00076211993
0.0011061295
0.0014761181
0.0018663588
0.0022608607
0.0026391061
0.0029853754
0.0032942701
0.0035680422
0.0038118113
0.0040307712
0.0042293914
0.004411341
0.0045795362
0.0047362877
0.0048834382
0.005022443
0.0051544134
0.0052803248
0.0054010514
0.0055172153
0.0056293786
0.005738039
0.0058435236
0.0059461694
0.0060461848
0.0061437471
0.006238985
0.0063319841
0.0064227886
0.0065114572
0.0065979923
0.0066824601
0.0067650297
0.0068459042
0.0069254507
0.0070041737
0.0070827744
0.0071616098
0.0072245468
0.0072528551
0.0072685233
0.0072819563
0.0072942896
0.0073055553
0.0073157002
0.007324583
0.0073320382
0.0073379351
0.0073421862
0.0073448408
0.0073460228
0.0073458997
0.0073446128
0.0073423162
0.007339225
0.0073355204
0.0073312631
0.0073263914
0.0073207248
0.0073141487
0.0073067995
0.007298883
0.0072902745
0.007280701
0.0072703181
0.0072592557
0.0072468694
0.0072322872
0.0072156158
0.0071977272
0.0071792872
0.0071609866
0.0071432755
0.0071256825
0.0071071927
0.007087159
0.0070658088
0.0070436817
0.007021799
0.0070016152
0.0069836089
0.0069666308
0.0069501371
0.0069344992
0.0069198615
0.0069069456
0.0068973975
0.0068917764
0.0068888222
0.00014322056
0.00043909609
0.00075662121
0.0010978179
0.0014647021
0.0018518728
0.0022431267
0.0026180536
0.0029610973
0.0032670033
0.0035380747
0.0037794185
0.0039961859
0.0041928152
0.0043729513
0.0045394807
0.0046946932
0.0048404194
0.004978089
0.0051088135
0.0052335622
0.0053531898
0.0054683135
0.0055795013
0.0056872446
0.0057918601
0.0058936866
0.0059929351
0.0060897824
0.0061843537
0.0062767305
0.0063669567
0.0064550848
0.0065411173
0.0066251215
0.0067072622
0.0067877428
0.00686693
0.0069453373
0.0070236877
0.0071026161
0.0071698378
0.0072015445
0.0072177847
0.0072313496
0.0072438215
0.0072552196
0.0072654703
0.0072744247
0.0072819254
0.0072878748
0.0072922329
0.0072950632
0.00729646
0.0072965677
0.0072955752
0.0072937153
0.0072911911
0.0072880504
0.0072841861
0.0072794608
0.0072737804
0.0072672471
0.0072600752
0.0072522722
0.0072436597
0.0072342901
0.0072242588
0.0072131288
0.0072001353
0.007185055
0.0071684325
0.0071507165
0.0071325257
0.0071147599
0.0070976742
0.0070803622
0.007061679
0.0070412164
0.0070192213
0.0069966305
0.0069751405
0.0069555217
0.006936972
0.0069189975
0.0069019902
0.0068857923
0.0068704461
0.0068570975
0.0068469141
0.0068399896
0.0068358731
0.0068334025
0.00014217226
0.00043591837
0.00075120767
0.0010895161
0.0014532067
0.0018373138
0.0022253251
0.0025969477
0.0029368105
0.0032397756
0.0035081846
0.0037471334
0.0039617431
0.0041564137
0.0043347569
0.0044996362
0.0046533147
0.0047976061
0.0049339529
0.0050634465
0.0051870395
0.0053055822
0.0054196939
0.0055299259
0.0056367678
0.0057405407
0.0058415745
0.0059400823
0.0060362359
0.0061301627
0.0062219466
0.0063116276
0.0063992601
0.0064848446
0.0065684471
0.0066502276
0.0067303886
0.0068092959
0.0068874558
0.0069655979
0.0070445072
0.0071154665
0.0071510797
0.0071678813
0.0071813005
0.0071935549
0.0072047159
0.0072147521
0.0072235367
0.007230904
0.0072367249
0.0072409214
0.0072435322
0.0072446671
0.0072445667
0.0072435782
0.0072420552
0.0072401922
0.0072379049
0.0072349369
0.0072310636
0.0072262144
0.0072205247
0.0072140614
0.0072066155
0.0071980931
0.0071887015
0.0071785031
0.0071670502
0.0071538348
0.0071388369
0.0071222054
0.0071043668
0.0070865255
0.0070695742
0.0070530807
0.0070357579
0.0070167035
0.0069955984
0.0069730139
0.0069506745
0.0069298564
0.006910071
0.0068907749
0.0068722977
0.0068546708
0.0068377367
0.0068221141
0.0068085655
0.0067974003
0.0067890946
0.0067838032
0.0067808275
0.0067785068
0.00014110584
0.00043268443
0.00074570385
0.0010813286
0.0014420146
0.0018230609
0.0022078837
0.0025762603
0.0029129803
0.003213039
0.0034788194
0.0037154054
0.0039278808
0.0041206079
0.0042971788
0.0044604295
0.004612604
0.0047555049
0.0048905568
0.0050188289
0.0051412796
0.0052587519
0.005371859
0.0054811512
0.0055871088
0.0056900547
0.0057903198
0.0058881111
0.0059836035
0.0060769229
0.0061681511
0.0062573269
0.0063445056
0.0064296872
0.0065129326
0.0065944005
0.0066742895
0.0067529602
0.0068309143
0.0069088813
0.0069877191
0.0070618137
0.0071019944
0.0071198653
0.0071335634
0.0071460699
0.0071574541
0.0071676375
0.0071764393
0.0071836576
0.007189168
0.007192944
0.0071951119
0.0071958891
0.0071956123
0.0071946583
0.0071933018
0.0071915919
0.0071893679
0.0071864396
0.0071827798
0.0071784476
0.0071733908
0.0071672805
0.007159867
0.0071514457
0.0071423916
0.0071324998
0.0071211426
0.0071079376
0.0070928086
0.0070759266
0.0070583781
0.0070414725
0.0070253183
0.0070089505
0.006991374
0.0069718414
0.006950077
0.0069274345
0.0069057474
0.0068852792
0.0068652397
0.0068455452
0.006826345
0.0068078524
0.0067906581
0.0067750721
0.0067609935
0.00674869
0.0067390449
0.0067328235
0.0067295345
0.0067263532
0.0067224696
0.00014006083
0.00042951531
0.00074030099
0.0010735816
0.0014311519
0.0018087786
0.0021904365
0.0025556064
0.0028892454
0.0031864613
0.0034496732
0.0036839401
0.0038943229
0.0040851567
0.0042599911
0.0044216411
0.0045723352
0.0047138516
0.0048476078
0.0049746612
0.0050959567
0.0052123264
0.0053243746
0.0054326564
0.0055376577
0.0056396996
0.0057391156
0.0058361149
0.0059308741
0.006023522
0.0061141395
0.0062027703
0.006289462
0.0063742152
0.0064570898
0.0065382394
0.0066178573
0.0066962938
0.0067740475
0.006851835
0.0069305356
0.0070071339
0.0070522995
0.0070714114
0.007085232
0.007097706
0.0071089767
0.0071189603
0.0071274955
0.0071344332
0.0071397201
0.0071434035
0.0071456634
0.0071467504
0.0071469995
0.0071467131
0.0071460324
0.0071449125
0.00714323
0.0071408865
0.0071377881
0.0071336704
0.0071282027
0.0071213402
0.0071135752
0.0071054379
0.0070967588
0.0070868415
0.0070752379
0.0070618544
0.007046591
0.0070299986
0.0070133588
0.0069973439
0.0069815097
0.0069651672
0.0069473812
0.0069271484
0.0069049274
0.0068827176
0.006861701
0.0068414703
0.0068213309
0.0068009872
0.0067807853
0.0067617979
0.0067447466
0.0067290609
0.0067141335
0.0067005884
0.0066899173
0.0066832732
0.0066791261
0.0066749556
0.0066706509
0.00013899908
0.0004262949
0.00073481531
0.00106572
0.0014204098
0.0017948764
0.0021734393
0.002535472
0.0028660835
0.0031604967
0.0034211692
0.0036531491
0.0038614603
0.0040504026
0.0042234962
0.0043835348
0.0045327363
0.0046728602
0.0048053103
0.0049311384
0.0050512823
0.0051665718
0.0052776186
0.0053849599
0.0054890705
0.0055902753
0.0056888999
0.0057851583
0.0058792269
0.0059712358
0.0060612704
0.0061493733
0.0062355953
0.0063199397
0.0064024656
0.0064833176
0.0065626833
0.0066409091
0.006718481
0.0067961049
0.0068746944
0.0069531796
0.0070035711
0.0070241674
0.007037989
0.0070501893
0.0070610806
0.0070706279
0.0070787325
0.0070852974
0.0070902975
0.0070937759
0.0070959009
0.0070969249
0.0070971932
0.0070970312
0.0070966544
0.0070961559
0.0070954482
0.0070941851
0.0070917859
0.0070877088
0.0070819646
0.0070751943
0.007067974
0.0070601475
0.0070511325
0.0070407656
0.0070291383
0.00701594
0.0070010055
0.0069851314
0.0069693012
0.0069537554
0.0069383086
0.0069221342
0.0069037069
0.0068826273
0.0068605182
0.0068391171
0.0068187211
0.0067986751
0.0067781226
0.0067567861
0.0067357918
0.0067167735
0.0066999707
0.006683867
0.0066678223
0.0066532364
0.0066421932
0.0066347851
0.0066292808
0.0066247162
0.0066200325
0.0066157305
0.00013796009
0.00042314361
0.00072944214
0.0010580064
0.0014097562
0.0017810218
0.0021565383
0.0025154846
0.0028431315
0.0031348101
0.0033930106
0.0036227586
0.003829043
0.004016134
0.0041875315
0.0043460008
0.0044937299
0.0046324711
0.0047636096
0.0048881953
0.0050071601
0.0051213187
0.0052312706
0.0053375617
0.0054406764
0.0055409383
0.0056386807
0.0057341177
0.0058274275
0.0059187422
0.0060081461
0.0060956849
0.0061814101
0.0062653229
0.0063474801
0.006428025
0.0065071433
0.0065851749
0.0066626052
0.0067401493
0.0068187812
0.006898647
0.0069546241
0.0069775125
0.0069919545
0.0070045992
0.0070158906
0.0070257459
0.007034038
0.0070406653
0.0070456054
0.0070489274
0.0070508711
0.007051785
0.0070520766
0.0070520856
0.0070520096
0.0070518488
0.0070512779
0.0070496762
0.007046523
0.0070418082
0.0070360644
0.0070297167
0.0070225894
0.0070143568
0.0070051563
0.0069952062
0.0069840218
0.0069709505
0.0069563372
0.0069411515
0.0069259753
0.0069110154
0.0068959389
0.0068792111
0.0068597534
0.0068384869
0.0068171101
0.0067965138
0.006776615
0.0067566027
0.0067352939
0.0067129002
0.0066915406
0.0066729539
0.0066561698
0.0066390788
0.0066220496
0.0066071979
0.0065956946
0.0065868291
0.0065804492
0.0065757399
0.0065702117
0.0065646583
0.0065628863
0.00013692087
0.00041999132
0.00072407135
0.0010503058
0.0013992112
0.0017673669
0.0021398637
0.0024957544
0.0028204566
0.0031094086
0.0033651344
0.0035926483
0.0037969001
0.003982136
0.0041518192
0.0043086933
0.0044549369
0.0045922797
0.0047220979
0.004845432
0.0049632109
0.0050762493
0.0051851482
0.0052904409
0.0053926052
0.0054919674
0.0055888511
0.0056834742
0.005776019
0.0058666179
0.0059553623
0.0060423038
0.0061274946
0.0062109404
0.0062926989
0.0063729094
0.0064517528
0.0065295672
0.0066068394
0.006684292
0.0067629489
0.006843686
0.0069052909
0.006930976
0.006946018
0.0069589411
0.0069704022
0.0069803311
0.006988638
0.0069952582
0.0070002006
0.0070035863
0.0070057271
0.007007032
0.00700792
0.0070086751
0.0070093527
0.0070097116
0.0070092356
0.0070074024
0.0070040482
0.0069993493
0.0069935105
0.0069865409
0.0069785426
0.0069699719
0.0069611049
0.0069513401
0.0069398208
0.0069266485
0.0069126225
0.0068982576
0.0068837892
0.0068693301
0.0068538403
0.0068360449
0.0068161643
0.0067953601
0.0067746464
0.0067546932
0.0067353539
0.0067150504
0.0066925406
0.0066693596
0.0066484578
0.0066303437
0.0066127889
0.0065946155
0.0065773701
0.0065624027
0.006549729
0.0065396625
0.0065329138
0.0065276309
0.0065211188
0.0065148797
0.0065123554
0.00013590889
0.00041691591
0.00071881609
0.0010427491
0.0013887877
0.0017538395
0.0021233871
0.0024763011
0.002798143
0.0030844569
0.0033377903
0.0035631376
0.0037654294
0.0039488725
0.0041169007
0.0042722331
0.0044170281
0.0045530005
0.0046815068
0.0048035898
0.0049201756
0.0050320607
0.0051398458
0.0052440589
0.0053451765
0.0054435286
0.0055394473
0.0056331487
0.0057248134
0.005814582
0.0059025481
0.0059887645
0.0060732893
0.0061561348
0.0062373608
0.0063171112
0.0063955704
0.0064730728
0.006550108
0.0066274037