/*--------------------------------*- C++ -*----------------------------------*\
| =========                 |                                                 |
| \\      /  F ield         | OpenFOAM: The Open Source CFD Toolbox           |
|  \\    /   O peration     | Version:  2506                                  |
|   \\  /    A nd           | Website:  www.openfoam.com                      |
|    \\/     M anipulation  |                                                 |
\*---------------------------------------------------------------------------*/
FoamFile
{
    version     2.0;
    format      ascii;
    arch        "LSB;label=32;scalar=64";
    class       volScalarField;
    location    "0.0065";
    object      k;
}
// * * * * * * * * * * * * * * * * * * * * * * * * * * * * * * * * * * * * * //

dimensions      [0 2 -2 0 0 0 0];

internalField   nonuniform List<scalar> 
13761
(
0.4909825
0.35116909
2.260051
8.9974501
23.466301
43.57036
63.297875
79.340559
91.54176
100.73198
107.75015
113.22218
117.57455
0.49922902
0.35657137
2.293878
9.1270953
23.769508
44.040586
63.864063
79.951787
92.173058
101.37619
108.40912
113.90612
118.30844
121.9228
124.9603
127.57326
129.86815
131.92737
133.81104
135.56204
137.20943
138.77001
140.25023
141.64693
142.94599
144.11782
0.50055269
0.35530503
2.2823945
9.0812336
23.655443
43.848397
63.611729
79.658728
91.854508
101.04636
108.08332
113.60124
118.04265
121.71442
124.83035
127.54137
129.95732
132.1511
134.17391
136.06371
137.84747
139.54134
141.15185
142.67747
144.10776
145.42385
146.59897
147.5896
148.35618
148.8484
149.00685
148.75559
0.50348662
0.35589817
2.2838465
9.0855731
23.661656
43.851138
63.610252
79.660748
91.873518
101.0999
108.19054
113.78042
118.30875
122.07748
125.29427
128.10303
130.59781
132.86229
134.9553
136.91872
138.78065
140.55587
142.24839
143.8523
145.35247
146.72551
147.94027
148.95841
149.73526
150.22166
150.3645
150.10694
149.39054
148.13822
146.28564
143.74772
0.044123756
0.017800237
0.093522863
0.3795432
1.099539
2.5293525
4.8344433
7.8478085
11.09936
14.1285
16.693208
18.741412
20.314314
21.482158
22.313855
22.867388
23.190254
23.32251
23.297895
23.142419
22.874324
22.504844
22.041373
21.487989
20.846074
20.114758
19.291455
18.37265
17.35448
16.23333
15.006385
13.671757
12.228055
10.673196
9.0022755
7.206541
5.2778395
3.2433105
1.3517546
0.32679151
0.10590332
0.081205837
0.076786375
0.073857603
0.07150898
0.069546743
0.067448382
0.064961998
0.06272025
0.061619231
0.061588433
0.06330568
0.044675391
0.018120076
0.095489914
0.38757978
1.1226611
2.5812632
4.9286034
7.9889556
11.281612
14.341702
16.928413
18.992257
20.576582
21.753183
22.592261
23.15097
23.476567
23.607231
23.575582
23.407598
23.123617
22.737354
22.257293
21.688618
21.033759
20.292737
19.463628
18.543256
17.52771
16.413001
15.195557
13.872359
12.440682
10.8971
9.2358605
7.4480015
5.5245516
3.4839553
1.5311706
0.38344502
0.11356547
0.082827191
0.077916184
0.074758166
0.07214186
0.070026488
0.067954589
0.065550073
0.063233446
0.061900072
0.061642482
0.062978424
0.065683071
0.068381178
0.070517179
0.071936994
0.072573896
0.071830481
0.066581437
0.060545574
0.055577259
0.052227504
0.045106682
0.018415533
0.097396203
0.39539163
1.1451854
2.6320013
5.0211045
8.1286003
11.463565
14.556825
17.168451
19.251141
20.849973
22.037829
22.885563
23.451791
23.783907
23.918283
23.884962
23.709401
23.41261
23.010514
22.513654
21.928438
21.258376
20.504477
19.665646
18.739276
17.721697
16.608816
15.396607
14.081305
12.659275
11.126112
9.4751822
7.6968182
5.7806589
3.737197
1.730791
0.45287688
0.12316454
0.084600599
0.079109003
0.075758841
0.072865524
0.070542969
0.068437861
0.066108349
0.063760728
0.062235637
0.061809493
0.062774807
0.065218536
0.067956679
0.070276
0.07195915
0.072860164
0.072736685
0.068250629
0.062067567
0.05678382
0.052988766
0.050789586
0.050153896
0.050916764
0.051630461
0.0512974
0.045406348
0.018661875
0.099051801
0.4021916
1.1648283
2.6763868
5.1024067
8.2521259
11.625793
14.750372
17.386599
19.489078
21.104492
22.30687
23.16792
23.744735
24.086693
24.230862
24.205488
24.033234
23.733408
23.321904
22.811172
22.209952
21.52366
20.754813
19.903484
18.967892
17.944835
16.830298
15.619966
14.309475
12.894423
11.369637
9.727822
7.9586957
6.0504946
4.0066715
1.95439
0.53919969
0.13572753
0.086605421
0.080351621
0.076853311
0.073691671
0.071119719
0.068919452
0.06663933
0.064296931
0.062634131
0.062085313
0.062694256
0.064817151
0.06750779
0.069964595
0.071919233
0.073090663
0.073318511
0.069852121
0.063620569
0.058090987
0.053864209
0.05122429
0.050356092
0.050906717
0.05161643
0.051140676
0.050869255
0.05496339
0.059193689
0.061721244
0.04540463
0.018841903
0.10052155
0.40828307
1.182521
2.7167656
5.1775772
8.3688983
11.783273
14.943676
17.610685
19.739983
21.379198
22.602871
23.482707
24.078777
24.438247
24.59647
24.580495
24.412427
24.110605
23.691135
23.167822
22.550831
21.84708
21.060606
20.192902
19.2434
18.209788
17.088547
15.875423
14.565701
13.154319
11.635301
10.000613
8.2393294
6.3385189
4.2959889
2.2055755
0.64642223
0.15189128
0.088852318
0.081627253
0.07802789
0.074622892
0.071773087
0.069417723
0.06714673
0.064832849
0.063074324
0.062406499
0.062691487
0.064507605
0.06705663
0.069603608
0.071784959
0.073212506
0.073682042
0.071302975
0.065180938
0.059484136
0.054857913
0.051743104
0.05059027
0.050909942
0.051598929
0.050968951
0.050614113
0.054771611
0.059051168
0.061671993
0.062366571
0.062452618
0.062219777
0.045052983
0.01895133
0.10182539
0.41376412
1.1985796
2.7539174
5.247987
8.4802956
11.935931
15.133663
17.833561
19.991856
21.656424
22.901676
23.798954
24.413089
24.78736
24.95703
24.950009
24.788966
24.492388
24.07557
23.55107
22.928717
22.215906
21.417689
20.536905
19.574451
18.529398
17.399336
16.180712
14.869025
13.458962
11.943945
10.315187
8.5610002
6.6673093
4.6272527
2.5051284
0.79120618
0.17610227
0.09174265
0.082953975
0.079283762
0.075676247
0.072532953
0.069965825
0.067650683
0.065365872
0.063540682
0.062730189
0.062733197
0.064272665
0.066614166
0.069196897
0.071556266
0.073230169
0.073913751
0.072515189
0.066732498
0.0609498
0.055974973
0.052369639
0.050864016
0.050945198
0.051581929
0.050786667
0.050348542
0.054565075
0.05889462
0.061616843
0.062357295
0.062454003
0.062234883
0.06200477
0.061659367
0.061410812
0.045088648
0.01912467
0.1031847
0.41939492
1.2149443
2.79128
5.31752
8.5881245
12.080881
15.310966
18.038612
20.221324
21.907929
23.17327
24.091204
24.720478
25.107837
25.290308
25.297184
25.151156
24.8697
24.466397
23.951904
23.334753
22.622127
21.819604
20.930999
19.958464
18.902461
17.761943
16.534515
15.216487
13.80292
12.287195
10.66016
8.9095506
7.0202468
4.9815294
2.8348487
0.97179371
0.20997168
0.095426974
0.084274912
0.080550499
0.076802106
0.073377526
0.070559025
0.068141699
0.06586764
0.064006001
0.063059992
0.062889151
0.064117444
0.066212679
0.068766468
0.071260163
0.073201767
0.074065279
0.073420028
0.068225899
0.062445578
0.057196148
0.053117067
0.051188393
0.051057313
0.05157606
0.050598285
0.050082769
0.054348445
0.058729695
0.061558032
0.062348924
0.062454006
0.062249779
0.062020336
0.061657695
0.061405136
0.061166377
0.061027257
0.045554911
0.019355722
0.10453773
0.42491865
1.2308578
2.8270721
5.3826892
8.6866621
12.210265
15.466466
18.216841
20.420957
22.12915
23.417199
24.355326
25.003461
25.408666
25.607045
25.627139
25.492521
25.222032
24.829606
24.325976
23.71888
23.01385
22.215366
21.327022
20.351408
19.289846
18.142373
16.907721
15.583198
14.164604
12.645731
11.017523
9.2675372
7.3799793
5.3411839
3.1757969
1.1826051
0.25480862
0.100062
0.085552413
0.081767541
0.077949105
0.074279051
0.071190921
0.068617587
0.066321981
0.064445674
0.063410018
0.063161516
0.064063282
0.065879663
0.068335232
0.070915473
0.073095706
0.07415993
0.074020428
0.069612917
0.063932329
0.05850016
0.053984907
0.051595633
0.051250704
0.051578967
0.050410531
0.049827253
0.054123829
0.058560093
0.061495392
0.062339412
0.062452793
0.062265503
0.062037774
0.061659044
0.061398448
0.061154032
0.061003064
0.061229723
0.061470194
0.046081493
0.019587206
0.10582906
0.43018147
1.2460184
2.8611055
5.4443383
8.7791668
12.330697
15.610022
18.380135
20.602588
22.32914
23.636277
24.596263
25.26689
25.694983
25.916313
25.958886
25.844743
25.591418
25.212785
24.719774
24.120626
23.421293
22.626095
21.738405
20.76082
19.694985
18.541531
17.299956
15.968382
14.543339
13.019177
11.387189
9.6350668
7.7467308
5.7063958
3.5256864
1.4242343
0.31425082
0.10616966
0.086806246
0.082908371
0.079091035
0.075225214
0.071865846
0.069091873
0.066734562
0.064851755
0.063768548
0.063475967
0.06406291
0.065619973
0.067916997
0.070534258
0.072899379
0.074201009
0.074369862
0.070857057
0.065384231
0.059872009
0.054973846
0.052114658
0.051505825
0.051593409
0.050235927
0.049589025
0.053888052
0.058385753
0.061428278
0.062326314
0.062448612
0.062281968
0.062059046
0.061663713
0.061391788
0.061137489
0.060979389
0.061192114
0.061422951
0.061612793
0.046573091
0.019802609
0.10702989
0.43507415
1.2601029
2.8926575
5.5012095
8.8637533
12.439425
15.737521
18.522421
20.757721
22.49681
23.817257
24.792043
25.477821
25.922377
26.161722
26.223576
26.129485
25.896235
25.536847
25.061353
24.477139
23.789856
23.003932
22.122757
21.148991
20.084492
18.930302
17.686481
16.351782
14.923336
13.395981
11.761359
10.007369
8.1178426
6.075468
3.8817574
1.6940842
0.39164421
0.11439166
0.088072512
0.083952815
0.080204193
0.076202856
0.072586107
0.069579859
0.067118302
0.06522262
0.064114973
0.063780758
0.064088657
0.065425715
0.067521348
0.070130866
0.072639306
0.07419596
0.074546427
0.071932109
0.06678027
0.061294327
0.056079676
0.052761637
0.051814423
0.051618783
0.050097016
0.049371892
0.053639121
0.058206629
0.061356788
0.062309201
0.062441343
0.062299116
0.062084434
0.061670901
0.061384718
0.061120496
0.060956941
0.061157323
0.061375019
0.061568377
0.061731756
0.061673974
0.047066999
0.020025827
0.1082901
0.44021362
1.2749067
2.9258395
5.5610636
8.9528833
12.5542
15.87236
18.673006
20.921644
22.673132
24.005909
24.993302
25.695158
26.157937
26.417094
26.499838
26.426822
26.21354
25.872051
25.411825
24.840188
24.16286
23.384245
22.507755
21.536163
20.4716
19.315561
18.068717
16.730504
15.2987
13.768634
12.132222
10.377396
8.4876877
6.4442875
4.2407649
1.9878237
0.49020816
0.12559456
0.089417854
0.084897056
0.081274838
0.077202797
0.073354348
0.070096961
0.067488523
0.065561015
0.06443887
0.064067526
0.064186472
0.065299874
0.06715928
0.069722121
0.072337653
0.074135979
0.074610895
0.072822557
0.068099616
0.06274554
0.057288183
0.053520923
0.052177567
0.051675253
0.05001709
0.049176218
0.05337735
0.058023099
0.061281681
0.062288213
0.062432138
0.062316075
0.062113749
0.061679687
0.061377296
0.061103761
0.060935297
0.061126315
0.061328454
0.061516914
0.061728697
0.061718448
0.060699435
0.047535927
0.020235425
0.1094692
0.44502075
1.2887448
2.9568002
5.6166801
9.035128
12.659044
15.993914
18.806634
21.064658
22.824498
24.165857
25.163056
25.875366
26.349398
26.62131
26.718307
26.661081
26.465027
26.141699
25.699771
25.14561
24.484134
23.719238
22.853965
21.890872
20.832082
19.679324
18.433754
17.09548
15.663033
14.132431
12.496078
10.742087
8.8537179
6.8107909
4.600824
2.3004798
0.61271698
0.14089509
0.0909351
0.085747235
0.082293866
0.07821935
0.074174571
0.070658896
0.067863624
0.065876196
0.06474172
0.064342949
0.064376648
0.065245047
0.066842872
0.069323734
0.072005385
0.074001856
0.074617484
0.073516779
0.069318582
0.064197839
0.058576724
0.054365496
0.052600144
0.051789864
0.049991802
0.048999417
0.053104535
0.057836477
0.061204448
0.062263342
0.062420781
0.062330399
0.062146569
0.06168949
0.061370004
0.061087483
0.060913777
0.06109812
0.061284318
0.061460643
0.061725451
0.061751076
0.060801549
0.059489758
0.048011624
0.020462134
0.11077656
0.45035791
1.3041191
2.9912475
5.6787479
9.1273991
12.777604
16.132759
18.960917
21.231313
23.001818
24.352963
25.359416
26.082083
26.568734
26.854596
26.966445
26.924625
26.744078
26.435998
26.00868
25.468054
24.818591
24.063813
23.20646
22.248923
21.193333
20.041648
18.795479
17.455593
16.021298
14.489371
12.852798
11.099937
9.2137668
7.1728107
4.9599281
2.6266216
0.76098444
0.16163711
0.092743695
0.086515732
0.08324974
0.07924268
0.075047888
0.071279342
0.06826473
0.066183092
0.0650302
0.0646117
0.064618683
0.065235431
0.066579593
0.068944211
0.071652196
0.073809511
0.074596835
0.074000453
0.070415237
0.065619349
0.059920784
0.055276305
0.053087659
0.051975289
0.049991428
0.048838361
0.052822653
0.057648022
0.061125789
0.06223437
0.062405753
0.062340263
0.062182424
0.061700151
0.06136314
0.061071683
0.060892004
0.06107182
0.061243081
0.061402248
0.061716463
0.061772835
0.06090406
0.059526575
0.05878914
0.058859754
0.048469996
0.020677151
0.11201139
0.45539889
1.3186383
3.0237503
5.7371696
9.2138618
12.887984
16.260976
19.102075
21.382375
23.161294
24.520539
25.535731
26.268115
26.764337
27.060633
27.184018
27.154981
26.988458
26.69539
26.283736
25.759204
25.125793
24.38619
23.542355
22.596015
21.548827
20.402552
19.158943
17.81927
16.383643
14.849819
13.211735
11.458442
9.5730923
7.5334016
5.3188405
2.9619001
0.93561234
0.18931802
0.094978684
0.08719378
0.084126651
0.080249063
0.075962337
0.071961091
0.06870812
0.066495471
0.065308993
0.06487219
0.064862834
0.065242733
0.066371474
0.068587102
0.071286387
0.073574579
0.074520779
0.07425838
0.07136577
0.06697309
0.061294608
0.056247346
0.053643168
0.052227482
0.050010308
0.048692591
0.052531908
0.057458008
0.06104542
0.062201638
0.062386127
0.062345338
0.062220138
0.061711944
0.061357338
0.061056418
0.060869991
0.061046799
0.06120433
0.061343075
0.061698722
0.061784818
0.061006673
0.059572494
0.058773239
0.058785316
0.061454752
0.048931571
0.020904248
0.11333836
0.46081834
1.3342436
3.0586789
5.7999745
9.3069435
13.007141
16.399897
19.255588
21.547056
23.335069
24.702193
25.724524
26.46374
26.967884
27.272842
27.405566
27.386782
27.231786
26.951726
26.554362
26.044656
25.425906
24.700428
23.869771
22.935161
21.897745
20.758874
19.520108
18.18282
16.747557
15.212805
13.573389
11.819197
9.9338648
7.8948079
5.6791425
3.3045406
1.1372485
0.22581884
0.097827556
0.087765914
0.084905862
0.081205492
0.076890663
0.072691012
0.06919717
0.066819142
0.065575681
0.065116665
0.065085315
0.065279506
0.066212359
0.068253016
0.070912114
0.073300132
0.074391012
0.074326147
0.072139245
0.068219296
0.062665694
0.057278133
0.054267488
0.052536222
0.050057534
0.048564647
0.052229496
0.05726659
0.060962925
0.062166062
0.062363028
0.062346486
0.062257201
0.061725736
0.061353651
0.061041724
0.060847656
0.061022418
0.061167748
0.061283842
0.061673319
0.061790123
0.061107901
0.059627846
0.058758304
0.058715281
0.061342394
0.064008973
0.049395727
0.021130381
0.11465615
0.46620398
1.3497669
3.0934644
5.862601
9.3999212
13.126501
16.539677
19.411029
21.715207
23.514387
24.892088
25.925039
26.675363
27.191353
27.508858
27.654693
27.649191
27.507037
27.239127
26.853486
26.3559
25.749961
25.037402
24.219069
23.295542
22.267405
21.135539
19.901196
18.565698
17.129861
15.592768
13.950091
12.192648
10.30482
8.2641586
6.0461317
3.6560897
1.3672755
0.27365455
0.10158479
0.088226903
0.085557442
0.082087133
0.077801324
0.073444589
0.069719409
0.067148723
0.065820754
0.065334481
0.065280747
0.065370565
0.066089863
0.067941049
0.070533159
0.072985341
0.074226966
0.074318226
0.07270708
0.069330673
0.06399692
0.058366651
0.054963314
0.052896088
0.050132191
0.048457676
0.051911168
0.057074539
0.06087716
0.062128112
0.062340452
0.062345559
0.062289366
0.061742273
0.061352394
0.061027715
0.060825065
0.06099824
0.06113332
0.061224922
0.061641994
0.061791346
0.06120642
0.059688688
0.058740814
0.058649202
0.061226651
0.063946858
0.065645159
0.049842442
0.021346767
0.11591479
0.47134529
1.3645698
3.1265627
5.9219605
9.4875329
13.238066
16.668948
19.552903
21.866323
23.672801
25.056895
26.096148
26.853379
27.375251
27.698906
27.851803
27.85508
27.724232
27.470404
27.101145
26.620925
26.032427
25.337287
24.536114
23.629059
22.616101
21.497446
20.273713
18.945762
17.514261
15.978552
14.33498
12.575334
10.685017
8.6421872
6.4212611
4.01717
1.6265551
0.33596222
0.10669297
0.088620193
0.08604202
0.082878085
0.078668828
0.07419442
0.070249869
0.067469275
0.066033676
0.065519648
0.065451201
0.065499647
0.065994447
0.067653035
0.070157523
0.072638555
0.074017581
0.074249084
0.073055746
0.070294327
0.065253161
0.05950533
0.055734871
0.053309451
0.050233843
0.048374322
0.051572421
0.056882666
0.060786878
0.062088871
0.062320637
0.062342037
0.062311927
0.061761351
0.061352759
0.061014812
0.060802566
0.060973946
0.061100651
0.061166936
0.061605602
0.061789933
0.061300941
0.059753831
0.058722085
0.058586079
0.061107816
0.063882251
0.065622537
0.050297025
0.021571162
0.11723148
0.47672851
1.380092
3.1613591
5.9846192
9.5806168
13.357733
16.80937
19.709364
22.035766
23.853375
25.247463
26.295858
27.061363
27.593535
27.928219
28.092359
28.106506
27.985667
27.740943
27.380433
26.909886
26.332673
25.650039
24.862112
23.968492
22.968597
21.862036
20.648821
19.32926
17.903619
16.371109
14.728318
12.967656
11.075393
9.0303874
6.8063263
4.3895485
1.9161679
0.41675475
0.1138103
0.08903229
0.08634217
0.083554989
0.079479347
0.074923691
0.070769972
0.067770766
0.066212605
0.065673914
0.065600161
0.065628643
0.065924446
0.067390431
0.069793351
0.072269421
0.073748895
0.074073206
0.073205245
0.071092192
0.066406803
0.060677419
0.05658275
0.053780133
0.050367169
0.048319506
0.051207707
0.056691894
0.060692178
0.062049581
0.062302236
0.06233664
0.062324789
0.061782433
0.061355766
0.061003236
0.060780215
0.060949073
0.061069386
0.06111122
0.061564124
0.061784185
0.06139029
0.059824508
0.058708239
0.058526219
0.060985879
0.063816056
0.065596763
0.066338274
0.050726584
0.021775494
0.11841393
0.48155805
1.3940029
3.1924662
6.0403684
9.6627922
13.462215
16.930255
19.84184
22.176687
24.000981
25.401048
26.455589
27.228229
27.765533
28.105298
28.275294
28.296793
28.185484
27.952626
27.605922
27.149945
26.587308
25.919429
25.14658
24.2683
23.283747
22.19212
20.992917
19.685893
18.27082
16.74658
15.109701
13.352867
11.46291
9.4192294
7.1949222
4.7696084
2.233568
0.52007421
0.12381238
0.089547892
0.08649937
0.084093321
0.080228391
0.075627839
0.071279915
0.06805895
0.066365997
0.065802067
0.065728044
0.065734767
0.065884632
0.067150908
0.069445218
0.071888296
0.073432645
0.073813546
0.073232398
0.071698735
0.067442001
0.061858296
0.057502851
0.05431106
0.050538212
0.048298875
0.050811424
0.056503144
0.060593682
0.06201013
0.062283259
0.062330075
0.062331726
0.061804941
0.061362094
0.060992756
0.060758003
0.060923441
0.061039644
0.061058699
0.061517246
0.061774939
0.061472846
0.059901549
0.058703411
0.058472132
0.060861026
0.063748476
0.065567647
0.066329132
0.066433648
0.051165942
0.021992402
0.11968637
0.48676262
1.4090106
3.22609
6.1008475
9.7525143
13.577441
17.065369
19.992268
22.339365
24.173933
25.582894
26.645151
27.424192
27.970244
28.319354
28.498686
28.528898
28.425174
28.198684
27.857585
27.407703
26.852545
26.193424
25.430336
24.562614
23.589203
22.509039
21.321285
20.025312
18.620489
17.105359
15.476255
13.725885
11.841326
9.8022327
7.5811153
5.1525816
2.5733251
0.64936819
0.1378107
0.090259383
0.086587387
0.084495106
0.080913782
0.076305858
0.071785303
0.068345304
0.066505336
0.065907604
0.065833419
0.06581766
0.065873988
0.066933143
0.069116699
0.071508501
0.073097507
0.073524804
0.073220359
0.072105463
0.068348223
0.063018689
0.05848927
0.054906243
0.050752293
0.048301958
0.050380909
0.056315316
0.060491788
0.061969874
0.062262416
0.062321475
0.062335199
0.061828089
0.06137091
0.060983254
0.06073629
0.060897223
0.061011442
0.06100958
0.061465168
0.06176477
0.061546167
0.059984958
0.058704403
0.058426259
0.060733293
0.063679282
0.065536728
0.066318287
0.066439823
0.06595693
0.051575891
0.022185638
0.12080235
0.49132452
1.422162
3.255512
6.1535758
9.8302142
13.676219
17.179644
20.117457
22.472428
24.313109
25.727416
26.795093
27.580454
28.130226
28.482752
28.666022
28.701258
28.604243
28.386415
28.055718
27.616965
27.072864
26.424826
25.673104
24.817176
23.856022
22.788495
21.613583
20.330402
18.938028
17.434726
15.816632
14.076402
12.201224
10.170892
7.957487
5.5321945
2.9275376
0.80677575
0.15715875
0.091282813
0.086647258
0.084779823
0.081528905
0.07695885
0.072285356
0.068636275
0.066640525
0.065994113
0.065919309
0.065886895
0.065877066
0.066739236
0.068813116
0.071140621
0.072762978
0.073236549
0.073147286
0.072335842
0.069110439
0.064127724
0.059534498
0.055570813
0.051014437
0.048339435
0.049924348
0.056124765
0.060387678
0.061928726
0.06223893
0.062309332
0.062336351
0.061851685
0.061381601
0.060974713
0.060715217
0.06087104
0.060984851
0.060963697
0.061408164
0.061754471
0.061608466
0.060074856
0.058712451
0.05838827
0.060603332
0.063608527
0.065505147
0.066312465
0.066444927
0.065965448
0.065731292
0.051998496
0.022394501
0.12202848
0.49634003
1.4366282
3.2879236
6.2118625
9.9166646
13.787261
17.309917
20.262575
22.629409
24.479971
25.902686
26.977411
27.768198
28.326056
28.687136
28.878738
28.921567
28.830899
28.617931
28.290868
27.855578
27.315787
26.673056
25.927467
25.078389
24.12474
23.065337
21.89912
20.625127
19.242323
17.748847
16.140726
14.410567
12.545598
10.525674
8.3225848
5.9053012
3.2888254
0.99297767
0.1834237
0.092736774
0.086680169
0.084940257
0.082052929
0.077592672
0.072779985
0.068933984
0.066779942
0.066069666
0.06599188
0.065954747
0.065893829
0.06657114
0.068539651
0.070791921
0.072433079
0.072954036
0.072971703
0.072431453
0.069714939
0.065158194
0.060627364
0.056310685
0.05132305
0.048422846
0.049476499
0.05592777
0.060282871
0.061887017
0.062212506
0.06229275
0.06233612
0.061876019
0.061393997
0.060966851
0.060694594
0.060845544
0.060960151
0.060920679
0.061345992
0.061743808
0.061659717
0.060170306
0.058728477
0.058355989
0.060472114
0.063536418
0.065472841
0.066309298
0.066450557
0.06597284
0.065728452
0.052391941
0.022581613
0.12311447
0.50078129
1.4494329
3.3165798
6.2632287
9.9923964
13.883641
17.421602
20.385168
22.759987
24.616832
26.045083
27.125403
27.922677
28.484481
28.849045
29.044574
29.092179
29.007581
28.802353
28.484558
28.059202
27.529011
26.895338
26.158554
25.318239
24.373441
23.323048
22.166031
20.901443
19.52826
18.044638
16.44665
14.726995
12.873045
10.864819
8.6740565
6.2684116
3.6498795
1.2064459
0.21823276
0.094741561
0.086681938
0.084976811
0.082425664
0.078195123
0.073273987
0.069239611
0.066929165
0.066143099
0.066055928
0.066023587
0.065928127
0.066427613
0.06829808
0.070470617
0.072110445
0.072671526
0.072723017
0.07244652
0.070161442
0.066087328
0.061750393
0.057130569
0.051668472
0.048489213
0.049091502
0.055721681
0.060178084
0.061845657
0.062184173
0.062271901
0.062333993
0.061900409
0.061407957
0.060959543
0.060674511
0.060820661
0.060937041
0.06088031
0.061278657
0.061733099
0.061700688
0.060269486
0.058749731
0.058327375
0.060340064
0.063463214
0.065439208
0.066305953
0.066456936
0.065979854
0.065725548
0.065769822
0.052800807
0.022787078
0.12432977
0.50575556
1.4637819
3.3487328
6.3210476
10.078171
13.993906
17.551149
20.529749
22.91672
24.783808
26.220889
27.308744
28.111987
28.681976
29.055275
29.259289
29.314758
29.236992
29.037134
28.723295
28.301183
27.774584
27.145208
26.413126
25.577731
24.63799
23.592785
22.441132
21.182162
19.814959
18.337819
16.746994
15.035401
13.190677
11.19312
9.0146187
6.6219723
4.0064784
1.4445969
0.26335977
0.097482809
0.086646013
0.084962032
0.082581036
0.078700131
0.073767303
0.069557135
0.067088523
0.066212224
0.066103289
0.066072612
0.065948271
0.066301155
0.068081967
0.070181389
0.071798501
0.072384439
0.072461885
0.072427658
0.070459852
0.0668885
0.062876741
0.058031685
0.052046411
0.04850101
0.048797563
0.055505052
0.060074059
0.061806294
0.062155796
0.062247396
0.062327556
0.061923332
0.061423656
0.060952969
0.060655049
0.06079576
0.060914912
0.060842846
0.061206684
0.061722472
0.061732728
0.060371419
0.058774939
0.058301441
0.060207802
0.063389164
0.065403661
0.066301334
0.066463724
0.065986166
0.065722868
0.065764487
0.065978974
0.053182829
0.022973143
0.12541988
0.51021586
1.4766465
3.3775311
6.3727036
10.154426
14.091176
17.664254
20.654452
23.050223
24.924501
26.368085
27.462534
28.273261
28.848481
29.226506
29.435607
29.496874
29.425992
29.234421
28.930163
28.51826
28.001344
27.380636
26.656539
25.828612
24.895884
23.857252
22.711747
21.458557
20.09689
18.625265
17.040259
15.335217
13.498286
11.510299
9.3435378
6.9641782
4.3544354
1.7027708
0.32028876
0.10120882
0.086547577
0.084902329
0.082592886
0.079002203
0.074222408
0.069879176
0.0672475
0.066251881
0.066116788
0.066082512
0.065945931
0.066178288
0.067874896
0.069916624
0.07149721
0.072091522
0.072207551
0.072333418
0.070619659
0.06752789
0.063967584
0.059015752
0.052462912
0.048499401
0.048579243
0.055278882
0.059971525
0.061769927
0.062128551
0.06221978
0.062316098
0.061943635
0.061441136
0.060947168
0.060635966
0.060770256
0.060893782
0.060808408
0.061131582
0.061709292
0.061758925
0.060475812
0.058804117
0.058279262
0.060076645
0.063313992
0.065366333
0.066295445
0.066469452
0.065992078
0.065721445
0.065757518
0.06597456
0.053576439
0.023176966
0.12663842
0.51520539
1.4910462
3.409809
6.4307723
10.240644
14.202187
17.794997
20.800834
23.209516
25.094946
26.548436
27.651676
28.469858
29.054761
29.443106
29.662397
29.733402
29.671425
29.487453
29.189402
28.782695
28.27097
27.655882
26.937321
26.114532
25.186339
24.151505
23.008992
21.757999
20.397852
18.927324
17.343417
15.640067
13.80616
11.823344
9.6645652
7.2956097
4.6913081
1.9746935
0.38973149
0.10615482
0.08637689
0.084728924
0.082567497
0.079088075
0.074550714
0.070156971
0.0673776
0.066255483
0.066112654
0.066075642
0.065920565
0.066047652
0.067659239
0.069659792
0.07120119
0.071790897
0.071937135
0.072135265
0.070664964
0.067977235
0.064971406
0.060091807
0.052926435
0.048501824
0.048406239
0.055045298
0.059869503
0.061736158
0.062102807
0.062190192
0.062300763
0.061960705
0.061459819
0.060942287
0.060617283
0.060744121
0.060873732
0.060775868
0.061055215
0.061691528
0.061781072
0.060581976
0.058837617
0.05826372
0.059947272
0.063237005
0.065328304
0.066288763
0.066472756
0.065998566
0.065721521
0.065749533
0.065968141
0.065815011
0.053951085
0.023363288
0.12773959
0.51971382
1.504054
3.4389386
6.4830334
10.317835
14.300789
17.909938
20.928015
23.346293
25.239871
26.700985
27.812109
28.639222
29.230967
29.625924
29.852367
29.931352
29.878533
29.705208
29.419188
29.025309
28.525962
27.922048
27.213612
26.399903
25.479665
24.451545
23.314376
22.067258
20.709496
19.23998
17.656034
15.952174
14.118126
12.136567
9.9814129
7.618483
5.0171834
2.2544737
0.47172687
0.11253634
0.086154433
0.084376873
0.082505125
0.079087257
0.074695726
0.070330658
0.067441021
0.066248576
0.066087611
0.066042374
0.0658516
0.065904737
0.067426675
0.069398653
0.070903938
0.071479003
0.071636298
0.07186588
0.070661151
0.068237736
0.065831395
0.061270408
0.053438574
0.048527405
0.048254948
0.054805034
0.059766218
0.061704006
0.062078534
0.062159807
0.062282674
0.061974816
0.061479155
0.060938992
0.060599283
0.060717284
0.060854182
0.060743995
0.060979755
0.061668986
0.061798295
0.06068922
0.058875929
0.058255858
0.059819233
0.063157958
0.065290516
0.066281562
0.066474484
0.066006744
0.065722777
0.065740216
0.06596082
0.065813022
0.065909565
0.054365311
0.023571017
0.12896706
0.524739
1.5185488
3.4713913
6.5412976
10.404129
14.411666
18.040347
21.073938
23.505112
25.409962
26.881262
28.00167
28.837021
29.439196
29.845057
30.082267
30.171594
30.128381
29.963575
29.684976
29.297797
28.805467
28.209461
27.509308
26.703677
25.790823
24.768997
23.636739
22.392945
21.036825
19.567306
17.98191
16.27557
14.438692
12.454881
10.299035
7.9372569
5.3352452
2.5386383
0.56613303
0.12056796
0.085949958
0.083868465
0.082354187
0.079062518
0.074722906
0.070407975
0.067450037
0.06623193
0.066025664
0.065967519
0.065737234
0.065748811
0.067178087
0.069130689
0.070604183
0.071157648
0.071309497
0.071567573
0.07062485
0.068350515
0.066507509
0.062545707
0.053998971
0.048593808
0.048120638
0.054558375
0.059660571
0.061672027
0.062054992
0.062129001
0.062262452
0.061987127
0.061498646
0.060937582
0.060581998
0.060689198
0.060834773
0.060712596
0.06090672
0.061641246
0.061809727
0.060797124
0.05891911
0.058253844
0.059691946
0.063077226
0.065252988
0.066273682
0.066475878
0.066017392
0.065725139
0.065729887
0.065953284
0.06581296
0.065900729
0.054767863
0.023761083
0.13006677
0.52923606
1.5315173
3.5003917
6.5931973
10.480566
14.509062
18.153668
21.199171
23.639701
25.552536
27.03136
28.159588
29.003813
29.613118
30.025941
30.270768
30.368698
30.335418
30.182165
29.916709
29.543839
29.065873
28.483352
27.795737
27.001801
26.099723
25.0875
23.963311
22.725675
21.373493
19.905538
18.319409
16.610393
14.769545
12.78138
10.621791
8.2573341
5.6512823
2.8278628
0.67385561
0.13058837
0.085831158
0.083266065
0.082047527
0.079010969
0.074722311
0.070439672
0.067447507
0.066195583
0.065927213
0.065853961
0.065593336
0.065579615
0.066916244
0.068857375
0.070305602
0.070834257
0.070971111
0.071262038
0.070514337
0.06837828
0.066999571
0.063876053
0.054607474
0.04870821
0.048008895
0.054305299
0.059550937
0.061638205
0.062031126
0.062098259
0.062240927
0.06199777
0.061517389
0.060937585
0.06056555
0.060659486
0.06081587
0.060681473
0.060836228
0.061608116
0.061816207
0.060904735
0.058966973
0.058255451
0.059564897
0.062995448
0.06521504
0.066264625
0.066477574
0.066030641
0.065727142
0.065718876
0.065946162
0.06581447
0.065888646
0.066638036
0.055187056
0.023966241
0.13126894
0.53415545
1.5457091
3.5321533
6.6501501
10.564778
14.617093
18.280562
21.340998
23.793912
25.717577
27.206243
28.343565
29.196043
29.815315
30.239106
30.495217
30.604492
30.582286
30.439375
30.183392
29.819289
29.350072
28.776952
28.099322
27.315445
26.423049
25.419735
24.303294
23.071852
21.723939
20.258027
18.671569
16.959935
15.114569
13.120698
10.955124
8.5849989
5.972126
3.1255127
0.79711212
0.14310048
0.085851152
0.082622094
0.081589012