/*--------------------------------*- C++ -*----------------------------------*\
| =========                 |                                                 |
| \\      /  F ield         | OpenFOAM: The Open Source CFD Toolbox           |
|  \\    /   O peration     | Version:  2506                                  |
|   \\  /    A nd           | Website:  www.openfoam.com                      |
|    \\/     M anipulation  |                                                 |
\*---------------------------------------------------------------------------*/
FoamFile
{
    version     2.0;
    format      ascii;
    arch        "LSB;label=32;scalar=64";
    class       volScalarField;
    location    "0.00033";
    object      Cy;
}
// * * * * * * * * * * * * * * * * * * * * * * * * * * * * * * * * * * * * * //

dimensions      [0 1 0 0 0 0 0];

internalField   nonuniform List<scalar> 
3463
(
-0.66940405
-0.72079661
-0.77655791
-0.53773655
-0.57797308
-0.62162995
-0.66899793
-0.72039251
-0.77615601
-0.83665983
-8.2932602
-8.9928072
-9.7518219
-10.575359
-0.53732276
-0.57756087
-0.62121947
-0.66858933
-0.71998594
-0.77575164
-0.83625786
-0.9019076
-0.97313812
-1.0504239
-1.1342797
-1.2252641
-1.3239831
-1.4310944
-7.0541429
-7.6483897
-8.2931534
-8.9927281
-9.7517728
-10.575343
-0.46563791
-0.49981943
-0.53690654
-0.57714626
-0.62080659
-0.66817834
-0.719577
-0.77534492
-0.83585354
-0.90150589
-0.97273925
-1.0500281
-1.1338873
-1.2248753
-1.3235982
-1.4307137
-6.0014807
-6.5062768
-7.0539862
-7.6482567
-8.2930461
-8.9926487
-9.7517236
-10.575326
-0.40467512
-0.4337117
-0.46521651
-0.49939939
-0.53648799
-0.57672932
-0.6203914
-0.66776504
-0.71916576
-0.77493591
-0.83544696
-0.90110194
-0.97233816
-1.0496301
-1.1334926
-1.2244843
-1.3232112
-1.430331
-1.5465572
-1.672664
-1.8094914
-1.9579509
-4.7119965
-5.1072081
-5.5360176
-6.0012811
-6.5060974
-7.0538287
-7.648123
-8.2929382
-8.9925688
-9.7516742
-10.57531
-0.35282016
-0.37748624
-0.40424904
-0.43328678
-0.46479286
-0.49897712
-0.53606721
-0.57631016
-0.619974
-0.66734954
-0.71875233
-0.77452473
-0.83503821
-0.90069584
-0.97193492
-1.04923
-1.1330959
-1.2240912
-1.3228221
-1.4299462
-1.546177
-1.6722889
-1.8091219
-1.9575873
-2.1186743
-2.2934558
-2.483096
-2.6888583
-4.0117633
-4.3474833
-4.7117439
-5.1069714
-5.5357982
-6.0010804
-6.5059171
-7.0536705
-7.6479887
-8.2928299
-8.9924886
-9.7516245
-10.575293
-0.3087018
-0.32965526
-0.35238983
-0.37705691
-0.40382078
-0.4328597
-0.46436706
-0.4985527
-0.53564428
-0.57588886
-0.61955447
-0.66693193
-0.7183368
-0.77411146
-0.83462739
-0.90028767
-0.97152964
-1.0488278
-1.1326971
-1.2236961
-1.322431
-1.4295594
-1.545795
-1.671912
-1.8087505
-1.9572219
-2.1183154
-2.293104
-2.4827519
-2.6885225
-2.9117865
-3.154031
-3.4168696
-3.7020531
-4.0114811
-4.3472147
-4.7114901
-5.1067336
-5.5355777
-6.0008788
-6.5057359
-7.0535115
-7.6478537
-8.292721
-8.9924081
-9.7515747
-10.575277
-0.27115528
-0.28895494
-0.30826761
-0.32922192
-0.35195741
-0.37662549
-0.40339046
-0.43243055
-0.46393919
-0.49812622
-0.53521932
-0.57546553
-0.61913292
-0.6665123
-0.71791926
-0.77369618
-0.83421458
-0.89987753
-0.97112239
-1.0484237
-1.1322964
-1.2232991
-1.322038
-1.4291708
-1.5454111
-1.6715333
-1.8083773
-1.9568548
-2.1179548
-2.2927505
-2.4824062
-2.6881852
-2.9114582
-3.1537125
-3.4165618
-3.701757
-4.0111976
-4.3469449
-4.7112351
-5.1064946
-5.5353562
-6.0006763
-6.5055539
-7.0533517
-7.6477182
-8.2926117
-8.9923272
-9.7515247
-10.57526
-0.25431173
-0.27071758
-0.28851796
-0.30783143
-0.32878659
-0.35152301
-0.3761921
-0.40295816
-0.43199944
-0.46350936
-0.49769779
-0.5347924
-0.57504026
-0.61870943
-0.66609075
-0.71749981
-0.77327901
-0.83379987
-0.89946551
-0.97071328
-1.0480178
-1.1318939
-1.2229003
-1.3216433
-1.4287804
-1.5450255
-1.6711528
-1.8080024
-1.956486
-2.1175926
-2.2923954
-2.4820589
-2.6878463
-2.9111284
-3.1533927
-3.4162527
-3.7014595
-4.0109128
-4.3466738
-4.7109789
-5.1062546
-5.5351338
-6.0004728
-6.5053711
-7.0531913
-7.6475821
-8.292502
-8.9922461
-9.7514746
-10.575244
-0.22481363
-0.23875018
-0.25387136
-0.27027788
-0.28807899
-0.30739325
-0.32834927
-0.35108662
-0.37575673
-0.40252388
-0.43156635
-0.46307757
-0.4972674
-0.53436353
-0.57461304
-0.618284
-0.66566727
-0.71707844
-0.77285993
-0.83338328
-0.89905161
-0.97030231
-1.04761
-1.1314895
-1.2224997
-1.3212467
-1.4283883
-1.5446381
-1.6707706
-1.8076258
-1.9561155
-2.1172288
-2.2920388
-2.48171
-2.6875058
-2.9107972
-3.1530714
-3.4159422
-3.7011608
-4.0106268
-4.3464015
-4.7107216
-5.1060136
-5.5349104
-6.0002685
-6.5051875
-7.0530303
-7.6474454
-8.2923918
-8.9921646
-9.7514243
-10.575227
-0.22436983
-0.23830696
-0.25342876
-0.26983595
-0.2876378
-0.30695286
-0.32790974
-0.35064803
-0.37531915
-0.40208741
-0.43113108
-0.4626436
-0.49683483
-0.5339325
-0.57418367
-0.61785643
-0.66524165
-0.71665494
-0.77243873
-0.83296458
-0.89863562
-0.96988926
-1.0472001
-1.1310831
-1.2220971
-1.3208481
-1.4279941
-1.5442488
-1.6703864
-1.8072474
-1.9557432
-2.1168631
-2.2916803
-2.4813593
-2.6871637
-2.9104643
-3.1527485
-3.4156302
-3.7008605
-4.0103393
-4.346128
-4.7104631
-5.1057714
-5.5346859
-6.0000632
-6.5050031
-7.0528685
-7.6473081
-8.2922811
-8.9920829
-9.7513739
-10.575211
-0.10818258
-0.11228216
-0.11673021
-0.12155635
-0.1267927
-0.13247415
-0.13863852
-0.14532687
-0.15258373
-0.16045743
-0.16900041
-0.17826955
-0.18832657
-0.19923846
-0.21107787
-0.22392366
-0.23786136
-0.25298379
-0.26939166
-0.28719425
-0.3065101
-0.32746785
-0.35020709
-0.37487923
-0.4016486
-0.43069347
-0.4622073
-0.49639995
-0.53349915
-0.57375199
-0.61742656
-0.66481375
-0.71622917
-0.77201528
-0.83254364
-0.8982174
-0.969474
-1.0467881
-1.1306746
-1.2216923
-1.3204474
-1.4275979
-1.5438574
-1.6700003
-1.8068669
-1.9553689
-2.1164954
-2.2913199
-2.4810069
-2.6868198
-2.9101296
-3.1524239
-3.4153165
-3.7005587
-4.0100503
-4.3458529
-4.7102032
-5.1055279
-5.5344602
-5.9998569
-6.5048177
-7.0527058
-7.6471702
-8.29217
-8.9920007
-9.7513233
-10.575194
-0.089060704
-0.091573623
-0.094300144
-0.097258425
-0.10046816
-0.10395071
-0.10772928
-0.11182904
-0.11627727
-0.12110361
-0.12634018
-0.13202186
-0.13818649
-0.14487512
-0.15213228
-0.16000631
-0.16854965
-0.17781917
-0.18787661
-0.19878895
-0.21062886
-0.22347518
-0.23741346
-0.25253652
-0.26894508
-0.28674841
-0.30606506
-0.32702369
-0.34976387
-0.37443704
-0.40120752
-0.43025361
-0.46176875
-0.49596282
-0.53306357
-0.57331809
-0.61699448
-0.66438365
-0.71580121
-0.77158964
-0.83212053
-0.89779703
-0.9690566
-1.0463739
-1.1302639
-1.2212854
-1.3200447
-1.4271996
-1.5434639
-1.6696121
-1.8064844
-1.9549926
-2.1161259
-2.2909577
-2.4806526
-2.6864741
-2.9097932
-3.1520976
-3.4150013
-3.7002553
-4.0097599
-4.3455765
-4.709942
-5.1052832
-5.5342334
-5.9996496
-6.5046315
-7.0525424
-7.6470316
-8.2920583
-8.9919183
-9.7512725
-10.575178
-0.088604393
-0.091117417
-0.093844052
-0.096802457
-0.10001232
-0.10349502
-0.10727375
-0.11137368
-0.1158221
-0.12064864
-0.12588543
-0.13156735
-0.13773224
-0.14442114
-0.15167861
-0.15955297
-0.16809666
-0.17736657
-0.18742443
-0.19833723
-0.21017764
-0.22302449
-0.23696336
-0.25208705
-0.26849629
-0.28630037
-0.30561783
-0.32657734
-0.34931847
-0.37399267
-0.40076427
-0.42981158
-0.46132803
-0.49552355
-0.53262585
-0.57288205
-0.61656027
-0.66395142
-0.71537114
-0.77116191
-0.83169533
-0.89737459
-0.96863715
-1.0459577
-1.1298512
-1.2208765
-1.31964
-1.4267994
-1.5430686
-1.669222
-1.8061001
-1.9546145
-2.1157546
-2.2905937
-2.4802965
-2.6861267
-2.9094552
-3.1517698
-3.4146845
-3.6999505
-4.0094681
-4.3452988
-4.7096796
-5.1050374
-5.5340056
-5.9994412
-6.5044443
-7.0523783
-7.6468924
-8.2919461
-8.9918354
-9.7512215
-10.575161
-0.08369488
-0.085829681
-0.088145934
-0.090659063
-0.093385814
-0.096344342
-0.099554342
-0.10303719
-0.10681608
-0.11091618
-0.11536478
-0.12019152
-0.12542854
-0.1311107
-0.13727584
-0.14396503
-0.1512228
-0.15909749
-0.16764154
-0.17691184
-0.18697013
-0.19788339
-0.20972429
-0.22257168
-0.23651113
-0.25163546
-0.2680454
-0.28585022
-0.3051685
-0.32612888
-0.34887097
-0.37354621
-0.40031894
-0.42936747
-0.46088525
-0.4950822
-0.53218606
-0.57244396
-0.61612402
-0.66351717
-0.71493905
-0.77073217
-0.83126814
-0.89695016
-0.96821573
-1.0455395
-1.1294366
-1.2204657
-1.3192333
-1.4263973
-1.5426714
-1.6688301
-1.805714
-1.9542347
-2.1153815
-2.290228
-2.4799389
-2.6857777
-2.9091157
-3.1514405
-3.4143662
-3.6996443
-4.0091749
-4.3450198
-4.7094159
-5.1047904
-5.5337767
-5.999232
-6.5042564
-7.0522134
-7.6467526
-8.2918335
-8.9917523
-9.7511703
-10.575145
-0.083234176
-0.085369066
-0.087685417
-0.090198653
-0.092925518
-0.095884171
-0.099094307
-0.1025773
-0.10635635
-0.11045662
-0.11490542
-0.11973236
-0.12496959
-0.13065199
-0.1368174
-0.14350687
-0.15076495
-0.15863997
-0.16718438
-0.17645507
-0.18651378
-0.1974275
-0.2092689
-0.22211684
-0.23605688
-0.25118185
-0.26759248
-0.28539805
-0.30471715
-0.32567842
-0.34842146
-0.37309775
-0.39987161
-0.42892136
-0.46044048
-0.49463887
-0.53174431
-0.57200391
-0.61568581
-0.66308096
-0.71450502
-0.7703005
-0.83083904
-0.89652384
-0.96779242
-1.0451195
-1.1290201
-1.2200531
-1.3188249
-1.4259934
-1.5422724
-1.6684365
-1.8053261
-1.9538531
-2.1150068
-2.2898607
-2.4795796
-2.6854271
-2.9087746
-3.1511096
-3.4140465
-3.6993367
-4.0088804
-4.3447396
-4.7091511
-5.1045424
-5.5335468
-5.9990219
-6.5040676
-7.0520479
-7.6466122
-8.2917204
-8.9916688
-9.751119
-10.575129
-0.08080378
-0.082771502
-0.084906483
-0.087222932
-0.089736274
-0.092463255
-0.095422034
-0.098632305
-0.10211545
-0.10589466
-0.1099951
-0.11444408
-0.11927123
-0.12450869
-0.13019133
-0.136357
-0.14304675
-0.15030514
-0.15818049
-0.16672527
-0.17599635
-0.18605549
-0.19696967
-0.20881157
-0.22166006
-0.23560069
-0.2507263
-0.26713762
-0.28494395
-0.30426387
-0.32522603
-0.34797004
-0.37264737
-0.39942237
-0.42847335
-0.45999381
-0.49419365
-0.53130066
-0.57156197
-0.61524574
-0.6626429
-0.71406914
-0.76986699
-0.8304081
-0.89609569
-0.9673673
-1.0446977
-1.1286018
-1.2196387
-1.3184147
-1.4255877
-1.5418717
-1.6680412
-1.8049366
-1.9534699
-2.1146305
-2.2894919
-2.4792188
-2.6850751
-2.9084321
-3.1507774
-3.4137255
-3.6990279
-4.0085848
-4.3444582
-4.7088853
-5.1042933
-5.5333161
-5.9988109
-6.5038781
-7.0518817
-7.6464713
-8.2916069
-8.9915851
-9.7510676
-10.575112
-0.080339144
-0.082306949
-0.084442021
-0.086758569
-0.089272018
-0.091999115
-0.09495802
-0.098168428
-0.10165172
-0.10543109
-0.10953171
-0.11398088
-0.11880823
-0.12404591
-0.1297288
-0.13589473
-0.14258476
-0.14984346
-0.15771915
-0.16626429
-0.17553577
-0.18559533
-0.19650998
-0.20835239
-0.22120142
-0.23514264
-0.2502689
-0.26668092
-0.28448801
-0.30380874
-0.3247718
-0.34751678
-0.37219516
-0.3989713
-0.42802352
-0.45954532
-0.49374663
-0.53085522
-0.57111824
-0.61480387
-0.66220305
-0.71363149
-0.76943173
-0.82997541
-0.89566581
-0.96694046
-1.0442741
-1.1281819
-1.2192226
-1.3180028
-1.4251805
-1.5414694
-1.6676443
-1.8045456
-1.9530852
-2.1142527
-2.2891215
-2.4788566
-2.6847217
-2.9080882
-3.1504439
-3.4134033
-3.6987178
-4.0082879
-4.3441757
-4.7086184
-5.1040433
-5.5330844
-5.9985991
-6.5036879
-7.0517149
-7.6463299
-8.2914931
-8.9915011
-9.751016
-10.575096
-0.079872718
-0.081840608
-0.083975771
-0.086292417
-0.088805974
-0.091533187
-0.094492219
-0.097702764
-0.1011862
-0.10496574
-0.10906653
-0.11351589
-0.11834345
-0.12358135
-0.12926448
-0.13543067
-0.142121
-0.14938
-0.15725603
-0.16580153
-0.17507341
-0.1851334
-0.19604852
-0.20789143
-0.22074101
-0.23468283
-0.24980973
-0.26622246
-0.28403031
-0.30335187
-0.32431582
-0.34706177
-0.37174121
-0.3985185
-0.42757196
-0.45909511
-0.49329788
-0.53040806
-0.57067281
-0.61436031
-0.66176152
-0.71319216
-0.76899478
-0.82954106
-0.89523428
-0.96651198
-1.0438489
-1.1277603
-1.218805
-1.3175894
-1.4247716
-1.5410656
-1.6672459
-1.804153
-1.9526991
-2.1138734
-2.2887498
-2.478493
-2.6843669
-2.907743
-3.1501091
-3.4130798
-3.6984065
-4.00799
-4.3438921
-4.7083504
-5.1037924
-5.5328518
-5.9983865
-6.503497
-7.0515475
-7.646188
-8.2913788
-8.9914169
-9.7509643
-10.575079
-0.079404593
-0.081372567
-0.083507821
-0.085824567
-0.088338232
-0.091065562
-0.09402472
-0.097235403
-0.10071899
-0.10449869
-0.10859966
-0.11304921
-0.11787698
-0.1231151
-0.12879847
-0.13496493
-0.14165554
-0.14891486
-0.15679123
-0.16533709
-0.17460937
-0.18466979
-0.19558537
-0.2074288
-0.22027893
-0.23422135
-0.2493489
-0.26576232
-0.28357094
-0.30289333
-0.32385818
-0.34660511
-0.37128561
-0.39806405
-0.42711876
-0.45864326
-0.4928475
-0.52995927
-0.57022575
-0.61391513
-0.66131838
-0.71275123
-0.76855625
-0.82910514
-0.89480117
-0.96608195
-1.0434222
-1.1273372
-1.2183858
-1.3171745
-1.4243613
-1.5406602
-1.666846
-1.8037591
-1.9523115
-2.1134928
-2.2883767
-2.478128
-2.6840109
-2.9073966
-3.1497732
-3.4127551
-3.6980942
-4.0076909
-4.3436076
-4.7080816
-5.1035406
-5.5326185
-5.9981732
-6.5033055
-7.0513795
-7.6460456
-8.2912642
-8.9913324
-9.7509125
-10.575063
-0.078934836
-0.080902895
-0.083038241
-0.085355086
-0.087868859
-0.090596307
-0.093555592
-0.096766413
-0.10025015
-0.10403001
-0.10813116
-0.1125809
-0.11740887
-0.12264723
-0.12833084
-0.13449756
-0.14118846
-0.14844809
-0.1563248
-0.16487103
-0.17414371
-0.18420457
-0.19512062
-0.20696455
-0.21981523
-0.23375825
-0.24888645
-0.26530059
-0.28310997
-0.3024332
-0.32339895
-0.34614686
-0.37082842
-0.39760801
-0.42666398
-0.45818984
-0.49239555
-0.52950892
-0.56977714
-0.6134684
-0.66087369
-0.71230876
-0.76811619
-0.82866769
-0.89436656
-0.96565041
-1.042994
-1.1269126
-1.2179652
-1.3167581
-1.4239496
-1.5402535
-1.6664447
-1.8033637
-1.9519226
-2.1131109
-2.2880023
-2.4777619
-2.6836536
-2.907049
-3.149436
-3.4124294
-3.6977808
-4.0073909
-4.3433221
-4.7078119
-5.103288
-5.5323844
-5.9979593
-6.5031133
-7.0512111
-7.6459028
-8.2911493
-8.9912477
-9.7508606
-10.575047
-0.078463287
-0.08043143
-0.082566869
-0.084883814
-0.087397695
-0.090125261
-0.093084674
-0.096295634
-0.099779521
-0.10355954
-0.10766087
-0.1121108
-0.11693899
-0.12217756
-0.12786143
-0.13402842
-0.1407196
-0.14797954
-0.15585659
-0.1644032
-0.17367627
-0.18373756
-0.19465409
-0.20649853
-0.21934977
-0.23329339
-0.24842225
-0.26483709
-0.28264725
-0.30197131
-0.32293796
-0.34568686
-0.37036949
-0.39715024
-0.42620746
-0.45773468
-0.49194188
-0.52905686
-0.56932681
-0.61301997
-0.66042731
-0.71186461
-0.76767446
-0.82822858
-0.8939303
-0.96521724
-1.0425642
-1.1264865
-1.2175429
-1.3163402
-1.4235363
-1.5398453
-1.666042
-1.8029669
-1.9515322
-2.1127275
-2.2876265
-2.4773943
-2.683295
-2.9067001
-3.1490977
-3.4121024
-3.6974662
-4.0070898
-4.3430356
-4.7075412
-5.1030344
-5.5321495
-5.9977445
-6.5029205
-7.051042
-7.6457596
-8.291034
-8.9911628
-9.7508085
-10.57503
-0.077989748
-0.079957977
-0.082093508
-0.084410555
-0.086924545
-0.089652228
-0.09261177
-0.095822869
-0.099306907
-0.10308709
-0.1071886
-0.11163872
-0.11646712
-0.12170592
-0.12739003
-0.13355729
-0.14024876
-0.14750902
-0.15538641
-0.16393339
-0.17320686
-0.18326859
-0.19418559
-0.20603055
-0.21888235
-0.23282657
-0.24795608
-0.26437164
-0.28218257
-0.30150747
-0.32247504
-0.34522492
-0.36990862
-0.39669053
-0.42574902
-0.45727761
-0.49148629
-0.52860288
-0.56887459
-0.61256964
-0.65997905
-0.71141859
-0.76723087
-0.82778762
-0.8934922
-0.96478224
-1.0421326
-1.1260585
-1.2171189
-1.3159205
-1.4231212
-1.5394353
-1.6656375
-1.8025684
-1.9511402
-2.1123425
-2.2872491
-2.4770252
-2.6829349
-2.9063497
-3.1487579
-3.4117741
-3.6971503
-4.0067874
-4.3427479
-4.7072693
-5.1027798
-5.5319136
-5.997529
-6.502727
-7.0508723
-7.6456158
-8.2909184
-8.9910776
-9.7507564
-10.575014
-0.077514256
-0.07948257
-0.081618195
-0.083935342
-0.086449441
-0.089177244
-0.092136914
-0.095348153
-0.098832343
-0.10261269
-0.10671437
-0.1111647
-0.1159933
-0.12123233
-0.12691669
-0.13308421
-0.13977598
-0.14703656
-0.15491429
-0.16346164
-0.17273552
-0.18279769
-0.19371516
-0.20556063
-0.21841299
-0.23235782
-0.247488
-0.26390427
-0.28171597
-0.30104171
-0.3220102
-0.34476107
-0.36944585
-0.39622893
-0.42528868
-0.45681865
-0.49102882
-0.52814704
-0.56842051
-0.61211746
-0.65952895
-0.71097073
-0.76678544
-0.82734484
-0.8930523
-0.96434545
-1.0416992
-1.1256287
-1.2166932
-1.315499
-1.4227045
-1.5390237
-1.6652314
-1.8021683
-1.9507465
-2.1119559
-2.2868702
-2.4766546
-2.6825733
-2.9059979
-3.1484167
-3.4114445
-3.6968332
-4.0064839
-4.342459
-4.7069965
-5.1025243
-5.5316768
-5.9973126
-6.5025327
-7.050702
-7.6454715
-8.2908023
-8.9909921
-9.7507041
-10.574998
-0.077036903
-0.079005304
-0.081141021
-0.083458269
-0.085972479
-0.088700401
-0.091660201
-0.09487158
-0.098355922
-0.10213644
-0.1062383
-0.11068882
-0.11551763
-0.12075689
-0.1264415
-0.13260929
-0.13930135
-0.14656224
-0.15444032
-0.16298804
-0.17226233
-0.18232494
-0.19324289
-0.20508888
-0.2179418
-0.23188724
-0.24701808
-0.26343507
-0.28124755
-0.30057414
-0.32154354
-0.34429541
-0.36898127
-0.39576552
-0.42482655
-0.4563579
-0.49056957
-0.52768941
-0.56796464
-0.61166352
-0.65907708
-0.71052112
-0.76633828
-0.82690034
-0.89261067
-0.96390696
-1.0412641
-1.1251973
-1.2162658
-1.315076
-1.4222861
-1.5386104
-1.6648237
-1.8017666
-1.9503514
-2.1115679
-2.2864899
-2.4762826
-2.6822103
-2.9056448
-3.1480742
-3.4111136
-3.6965148
-4.0061791
-4.342169
-4.7067225
-5.1022677
-5.5314392
-5.9970953
-6.5023377
-7.0505311
-7.6453267
-8.2906858
-8.9909064
-9.7506517
-10.574982
-0.078526271
-0.080662082
-0.082979432
-0.085493752
-0.088221793
-0.091181723
-0.094393243
-0.097877738
-0.10165842
-0.10576046
-0.11021117
-0.1150402
-0.12027969
-0.12596454
-0.13213261
-0.13882496
-0.14608617
-0.1539646
-0.1625127
-0.17178739
-0.18185044
-0.19276887
-0.20461538
-0.21746887
-0.23141492
-0.24654642
-0.26296413
-0.2807774
-0.30010483
-0.32107516
-0.34382803
-0.36851497
-0.3953004
-0.42436271
-0.45589544
-0.49010862
-0.52723009
-0.5675071
-0.61120789
-0.65862354
-0.71006985
-0.76588946
-0.82645419
-0.89216742
-0.96346685
-1.0408274
-1.1247643
-1.2158368
-1.3146513
-1.4218662
-1.5381957
-1.6644145
-1.8013634
-1.9499548
-2.1111784
-2.2861081
-2.4759092
-2.6818461
-2.9052904
-3.1477305
-3.4107815
-3.6961954
-4.0058733
-4.3418781
-4.7064476
-5.1020103
-5.5312007
-5.9968774
-6.502142
-7.0503596
-7.6451814
-8.2905689
-8.9908204
-9.7505992
-10.574965
-0.078045566
-0.080181471
-0.082498923
-0.085013354
-0.087741515
-0.090701575
-0.093913237
-0.097397885
-0.10117873
-0.10528095
-0.10973186
-0.1145611
-0.11980082
-0.12548593
-0.13165427
-0.13834691
-0.14560844
-0.15348722
-0.16203569
-0.17131079
-0.18137428
-0.19229319
-0.20414023
-0.21699428
-0.23094095
-0.24607312
-0.26249155
-0.2803056
-0.29963389
-0.32060514
-0.34335901
-0.36804705
-0.39483366
-0.42389724
-0.45543137
-0.48964606
-0.52676917
-0.56704795
-0.61075068
-0.65816842
-0.709617
-0.76543909
-0.82600649
-0.89172263
-0.96302521
-1.0403892
-1.1243298
-1.2154063
-1.3142252
-1.4214449
-1.5377795
-1.6640038
-1.8009589
-1.9495568
-2.1107876
-2.285725
-2.4755346
-2.6814805
-2.9049347
-3.1473856
-3.4104482
-3.6958748
-4.0055665
-4.3415861
-4.7061718
-5.101752
-5.5309614
-5.9966587
-6.5019457
-7.0501876
-7.6450357
-8.2904518
-8.9907342
-9.7505466
-10.574949
-0.077563283
-0.079699283
-0.082016837
-0.084531378
-0.08725966
-0.090219851
-0.093431655
-0.096916457
-0.10069747
-0.10479987
-0.10925098
-0.11408043
-0.11932039
-0.12500574
-0.13117435
-0.1378673
-0.14512915
-0.15300827
-0.16155712
-0.17083263
-0.18089657
-0.19181596
-0.20366352
-0.21651814
-0.23046543
-0.24559826
-0.26201742
-0.27983226
-0.2991614
-0.32013358
-0.34288846
-0.36757759
-0.39436538
-0.42343026
-0.45496578
-0.48918198
-0.52630674
-0.5665873
-0.61029197
-0.65771181
-0.70916267
-0.76498723
-0.82555732
-0.89127637
-0.96258212
-1.0399495
-1.1238939
-1.2149744
-1.3137977
-1.4210221
-1.5373619
-1.6635919
-1.800553
-1.9491576
-2.1103955
-2.2853407
-2.4751587
-2.6811138
-2.904578
-3.1470396
-3.4101139
-3.6955532
-4.0052586
-4.3412932
-4.7058951
-5.1014929
-5.5307214
-5.9964394
-6.5017488
-7.050015
-7.6448896
-8.2903343
-8.9906477
-9.7504938
-10.574933
-0.077079516
-0.07921561
-0.081533267
-0.08404792
-0.086776323
-0.089736645
-0.092948591
-0.096433547
-0.10021473
-0.10431731
-0.10876862
-0.11359828
-0.11883847
-0.12452408
-0.13069296
-0.1373862
-0.14464837
-0.15252784
-0.16107707
-0.17035299
-0.18041738
-0.19133726
-0.20318534
-0.21604053
-0.22998844
-0.24512194
-0.26154183
-0.27935746
-0.29868746
-0.31966057
-0.34241646
-0.36710668
-0.39389567
-0.42296183
-0.45449876
-0.48871648
-0.52584288
-0.56612524
-0.60983185
-0.6572538
-0.70870694
-0.76453399
-0.82510677
-0.89082875
-0.96213767
-1.0395085
-1.1234566
-1.2145412
-1.3133689
-1.4205981
-1.536943
-1.6631787
-1.8001459
-1.9487571
-2.1100022
-2.2849552
-2.4747817
-2.680746
-2.9042201
-3.1466926
-3.4097787
-3.6952306
-4.0049499
-4.3409995
-4.7056177
-5.101233
-5.5304807
-5.9962194
-6.5015514
-7.049842
-7.6447431
-8.2902165
-8.9905611
-9.750441
-10.574917
-0.074625524
-0.07659436
-0.078730549
-0.081048309
-0.083563073
-0.086291598
-0.089252051
-0.092464139
-0.095949251
-0.099730602
-0.10383337
-0.10828487
-0.11311475
-0.11835517
-0.12404103
-0.13021019
-0.13690372
-0.14416622
-0.15204604
-0.16059565
-0.16987198
-0.17993682
-0.19085718
-0.20270579
-0.21556155
-0.22951008
-0.24464426
-0.26106488
-0.2788813
-0.29821216
-0.3191862
-0.34194311
-0.36663443
-0.3934246
-0.42249206
-0.45403039
-0.48824964
-0.5253777
-0.56566185
-0.60937041
-0.65679447
-0.70824991
-0.76407945
-0.82465493
-0.89037984
-0.96169194
-1.0390662
-1.1230181
-1.2141068
-1.3129389
-1.4201729
-1.536523
-1.6627643
-1.7997376
-1.9483555
-2.1096078
-2.2845687
-2.4744036
-2.6803771
-2.9038613
-3.1463446
-3.4094424
-3.6949072
-4.0046403
-4.3407049
-4.7053394
-5.1009725
-5.5302393
-5.9959989
-6.5013534
-7.0496686
-7.6445962
-8.2900985
-8.9904743
-9.7503882
-10.574901
-0.074138985
-0.076107908
-0.078244192
-0.080562055
-0.083076932
-0.085805578
-0.088766163
-0.091978395
-0.095463661
-0.099245181
-0.10334813
-0.10779983
-0.11262992
-0.11787058
-0.12355669
-0.12972612
-0.13641996
-0.14368278
-0.15156295
-0.16011294
-0.16938969
-0.17945497
-0.19037582
-0.20222496
-0.21508129
-0.22903044
-0.2441653
-0.26058665
-0.27840386
-0.29773559
-0.31871057
-0.34146849
-0.36616091
-0.39295228
-0.42202104
-0.45356078
-0.48778155
-0.52491127
-0.56519722
-0.60890773
-0.65633392
-0.70779166
-0.76362369
-0.82420189
-0.88992974
-0.96124504
-1.0386228
-1.1225784
-1.2136711
-1.3125077
-1.4197465
-1.5361019
-1.6623488
-1.7993283
-1.9479528
-2.1092123
-2.2841811
-2.4740246
-2.6800073
-2.9035015
-3.1459957
-3.4091053
-3.6945829
-4.0043299
-4.3404096
-4.7050605
-5.1007113
-5.5299974
-5.9957779
-6.501155
-7.0494947
-7.644449
-8.2899802
-8.9903874
-9.7503353
-10.574885
-0.073651236
-0.075620247
-0.077756627
-0.080074593
-0.082589582
-0.08531835
-0.088279068
-0.091491442
-0.094976865
-0.098758554
-0.10286169
-0.10731358
-0.11214389
-0.11738478
-0.12307115
-0.12924086
-0.13593499
-0.14319814
-0.15107866
-0.15962903
-0.16890619
-0.17897193
-0.18989326
-0.20174293
-0.21459984
-0.22854961
-0.24368514
-0.26010723
-0.27792524
-0.29725783
-0.31823375
-0.34099269
-0.36568622
-0.39247879
-0.42154885
-0.45309
-0.4873123
-0.52444369
-0.56473144
-0.60844391
-0.65587222
-0.70733227
-0.76316681
-0.82374773
-0.88947853
-0.96079702
-1.0381783
-1.1221377
-1.2132345
-1.3120755
-1.4193191
-1.5356797
-1.6619323
-1.798918
-1.9475491
-2.1088159
-2.2837926
-2.4736446
-2.6796366
-2.9031408
-3.145646
-3.4087674
-3.6942578
-4.0040188
-4.3401136
-4.7047809
-5.1004495
-5.5297549
-5.9955563
-6.5009562
-7.0493205
-7.6443015
-8.2898617
-8.9903004
-9.7502823
-10.574869
-0.073162154
-0.075131253
-0.077267728
-0.079585798
-0.0821009
-0.08482979
-0.08779064
-0.091003159
-0.094488737
-0.098270595
-0.10237391
-0.10682601
-0.11165654
-0.11689766
-0.12258428
-0.12875426
-0.1354487
-0.14271217
-0.15059304
-0.1591438
-0.16842138
-0.17848756
-0.18940939
-0.20125959
-0.21411707
-0.22806747
-0.24320368
-0.25962651
-0.27744532
-0.29677877
-0.31775563
-0.34051559
-0.36521023
-0.392004
-0.42107536
-0.45261793
-0.48684177
-0.52397482
-0.56426439
-0.60797883
-0.65540927
-0.70687163
-0.76270868
-0.82329232
-0.88902608
-0.96034779
-1.0377325
-1.1216957
-1.2127966
-1.3116421
-1.4188905
-1.5352564
-1.6615147
-1.7985065
-1.9471444
-2.1084185
-2.283403
-2.4732636
-2.6792649
-2.9027792
-3.1452953
-3.4084286
-3.6939319
-4.0037069
-4.3398169
-4.7045006
-5.1001871
-5.5295118
-5.9953342
-6.5007569
-7.0491459
-7.6441537
-8.289743
-8.9902132
-9.7502293
-10.574853
-0.072671531
-0.074640719
-0.07677729
-0.079095465
-0.081610679
-0.084339692
-0.087300675
-0.090513338
-0.093999073
-0.097781101
-0.1018846
-0.1063369
-0.11116764
-0.116409
-0.12209588
-0.12826614
-0.13496088
-0.14222467
-0.1501059
-0.15865704
-0.16793504
-0.17800167
-0.18892399
-0.20077472
-0.21363279
-0.22758381
-0.2427207
-0.25914426
-0.27696388
-0.2962982
-0.317276
-0.34003699
-0.36473274
-0.39152772
-0.42060039
-0.45214438
-0.48636977
-0.52350449
-0.56379587
-0.60751228
-0.65494486
-0.70640955
-0.76224911
-0.82283549
-0.88857222
-0.95989715
-1.0372854
-1.1212523
-1.2123574
-1.3112073
-1.4184606
-1.5348317
-1.6610957
-1.7980938
-1.9467384
-2.1080198
-2.2830122
-2.4728814
-2.678892
-2.9024165
-3.1449436
-3.4080888
-3.693605
-4.003394
-4.3395192
-4.7042195
-5.0999238
-5.529268
-5.9951115
-6.500557
-7.0489708
-7.6440055
-8.2896239
-8.9901258
-9.7501762
-10.574837
-0.072179376
-0.074148652
-0.07628532
-0.078603599
-0.081118927
-0.083848062
-0.086809179
-0.090021987
-0.093507879
-0.097290077
-0.10139376
-0.10584626
-0.11067722
-0.11591882
-0.12160595
-0.12777649
-0.13447153
-0.14173565
-0.14961723
-0.15816876
-0.16744717
-0.17751426
-0.18843707
-0.20028834
-0.21314699
-0.22709864
-0.24223621
-0.25866052
-0.27648093
-0.29581613
-0.31679488
-0.33955689
-0.36425376
-0.39104995
-0.42012394
-0.45166935
-0.48589628
-0.52303268
-0.56332589
-0.60704427
-0.654479
-0.70594602
-0.76178811
-0.82237724
-0.88811694
-0.9594451
-1.0368368
-1.1208076
-1.2119168
-1.3107712
-1.4180294
-1.5344057
-1.6606755
-1.7976798
-1.9463311
-2.1076198
-2.2826202
-2.472498
-2.6785181
-2.9020526
-3.1445908
-3.407748
-3.6932772
-4.0030802
-4.3392207
-4.7039375
-5.0996598
-5.5290235
-5.9948881
-6.5003566
-7.0487953
-7.6438569
-8.2895046
-8.9900382
-9.750123
-10.574821
-0.071685785
-0.07365515
-0.075791914
-0.078110298
-0.08062574
-0.083354998
-0.086316249
-0.089529202
-0.093015251
-0.096797621
-0.10090149
-0.10535419
-0.11018537
-0.1154272
-0.12111459
-0.12728541
-0.13398075
-0.1412452
-0.14912714
-0.15767906
-0.16695789
-0.17702543
-0.18794874
-0.19980054
-0.21265977
-0.22661205
-0.24175031
-0.25817536
-0.27599658
-0.29533266
-0.31631236
-0.3390754
-0.36377338
-0.39057079
-0.41964609
-0.45119293
-0.48542142
-0.52255951
-0.56285454
-0.6065749
-0.65401179
-0.70548114
-0.76132577
-0.82191764
-0.88766034
-0.95899174
-1.036387
-1.1203616
-1.2114749
-1.3103338
-1.4175969
-1.5339785
-1.660254
-1.7972645
-1.9459227
-2.1072187
-2.2822271
-2.4721136
-2.678143
-2.9016878
-3.1442369
-3.4074062
-3.6929484
-4.0027655
-4.3389213
-4.7036547
-5.0993951
-5.5287783
-5.9946642
-6.5001556
-7.0486193
-7.643708
-8.289385
-8.9899504
-9.7500698
-10.574805
-0.071190855
-0.07316031
-0.075297171
-0.077615659
-0.080131215
-0.082860597
-0.085821982
-0.08903508
-0.092521288
-0.096303829
-0.10040788
-0.10486079
-0.10969218
-0.11493425
-0.1206219
-0.126793
-0.13348864
-0.14075343
-0.14863572
-0.15718802
-0.16646728
-0.17653528
-0.18745908
-0.19931142
-0.21217123
-0.22612415
-0.24126309
-0.25768889
-0.27551092
-0.29484787
-0.31582852
-0.3385926
-0.3632917
-0.39009033
-0.41916695
-0.45071523
-0.48494527
-0.52208504
-0.56238191
-0.60610427
-0.65354331
-0.705015
-0.76086218
-0.82145681
-0.8872025
-0.95853715
-1.0359359
-1.1199144
-1.2110318
-1.3098953
-1.4171632
-1.5335502
-1.6598315
-1.7968482
-1.9455132
-2.1068166
-2.281833
-2.4717281
-2.6777669
-2.9013219
-3.1438822
-3.4070634
-3.6926187
-4.00245
-4.3386212
-4.7033713
-5.0991297
-5.5285325
-5.9944397
-6.4999542
-7.0484429
-7.6435587
-8.2892652
-8.9898625
-9.7500165
-10.57479
-0.070694684
-0.072664228
-0.074801186
-0.07711978
-0.07963545
-0.082364956
-0.085326475
-0.088539719
-0.092026085
-0.095808798
-0.099913041
-0.10436614
-0.10919776
-0.11444007
-0.12012798
-0.12629935
-0.1329953
-0.14026041
-0.14814307
-0.15669576
-0.16597544
-0.1760439
-0.18696819
-0.19882107
-0.21168146
-0.22563502
-0.24077465
-0.25720119
-0.27502404
-0.29436187
-0.31534347
-0.33810859
-0.36280881
-0.38960866
-0.41868661
-0.45023632
-0.48446793
-0.52160939
-0.5619081
-0.60563245
-0.65307365
-0.7045477
-0.76039742
-0.82099482
-0.88674351
-0.95808143
-1.0354837
-1.119466
-1.2105876
-1.3094556
-1.4167285
-1.5331208
-1.6594078
-1.7964309
-1.9451026
-2.1064134
-2.2814378
-2.4713417
-2.67739
-2.9009552
-3.1435266
-3.4067199
-3.6922883
-4.0021338
-4.3383203
-4.7030871
-5.0988637
-5.5282862
-5.9942146
-6.4997523
-7.0482661
-7.6434091
-8.2891451
-8.9897744
-9.7499631
-10.574774
-0.070197369
-0.072167002
-0.074304057
-0.076622757
-0.079138541
-0.081868172
-0.084829826
-0.088043216
-0.091529741
-0.095312626
-0.099417055
-0.10387036
-0.1087022
-0.11394475
-0.11963291
-0.12580457
-0.13250082
-0.13976627
-0.14764928
-0.15620236
-0.16548246
-0.17555138
-0.18647617
-0.19832959
-0.21119057
-0.22514476
-0.24028509
-0.25671238
-0.27453603
-0.29387475
-0.31485731
-0.33762346
-0.36232482
-0.38912588
-0.41820516
-0.44975632
-0.48398948
-0.52113265
-0.5614332
-0.60515954
-0.65260292
-0.70407932
-0.7599316
-0.82053178
-0.88628348
-0.95762466
-1.0350305
-1.1190166
-1.2101425
-1.309015
-1.4162927
-1.5326904
-1.6589832
-1.7960126
-1.9446912
-2.1060094
-2.2810418
-2.4709544
-2.6770121
-2.9005877
-3.1431702
-3.4063756
-3.6919571
-4.0018169
-4.3380189
-4.7028024
-5.0985972
-5.5280393
-5.9939892
-6.49955
-7.0480889
-7.6432593
-8.2890248
-8.9896862
-9.7499098
-10.574758
-0.069699007
-0.07166873
-0.073805883
-0.076124688
-0.078640587
-0.081370342
-0.084332131
-0.087545669
-0.091032352
-0.09481541
-0.098920027
-0.10337354
-0.10820559
-0.11344838
-0.1191368
-0.12530875
-0.13200531
-0.13927108
-0.14715445
-0.15570792
-0.16498845
-0.17505782
-0.18598312
-0.19783708
-0.21069865
-0.22465347