/*--------------------------------*- C++ -*----------------------------------*\
| =========                 |                                                 |
| \\      /  F ield         | OpenFOAM: The Open Source CFD Toolbox           |
|  \\    /   O peration     | Version:  2506                                  |
|   \\  /    A nd           | Website:  www.openfoam.com                      |
|    \\/     M anipulation  |                                                 |
\*---------------------------------------------------------------------------*/
FoamFile
{
    version     2.0;
    format      ascii;
    arch        "LSB;label=32;scalar=64";
    class       volScalarField;
    location    "0.0115";
    object      p;
}
// * * * * * * * * * * * * * * * * * * * * * * * * * * * * * * * * * * * * * //

dimensions      [1 -1 -2 0 0 0 0];

internalField   nonuniform List<scalar> 
13761
(
47170.659
47133.199
47159.359
47159.293
47133.233
47170.835
47227.179
47242.167
47159.239
47133.261
47170.965
47227.063
47242.084
47241.704
47181.882
47159.182
47133.291
47171.1
47226.939
47241.999
47241.703
47181.96
47191.337
47285.631
47159.122
47133.324
47171.242
47226.807
47241.909
47241.699
47182.048
47191.54
47285.395
47387.866
47306.128
47159.058
47133.359
47171.392
47226.667
47241.817
47241.691
47182.146
47191.756
47285.153
47387.702
47305.975
47438.167
47318.405
47158.991
47133.398
47171.552
47226.518
47241.721
47241.677
47182.254
47191.988
47284.897
47387.528
47305.815
47438.285
47318.623
47298.187
47343.216
47158.919
47133.441
47171.721
47226.36
47241.622
47241.656
47182.374
47192.237
47284.623
47387.343
47305.648
47438.407
47318.857
47298.296
47343.348
47423.544
47430.899
47381.49
47158.842
47133.487
47171.902
47226.191
47241.52
47241.627
47182.507
47192.503
47284.329
47387.146
47305.475
47438.53
47319.106
47298.416
47343.488
47423.455
47430.956
47381.29
47355.752
47574.526
47158.76
47133.537
47172.094
47226.012
47241.415
47241.589
47182.654
47192.788
47284.015
47386.936
47305.295
47438.656
47319.372
47298.548
47343.636
47423.362
47431.017
47381.074
47355.627
47574.313
47739.927
47681.957
47158.673
47133.592
47172.299
47225.82
47241.308
47241.54
47182.817
47193.094
47283.68
47386.712
47305.11
47438.782
47319.657
47298.693
47343.793
47423.266
47431.081
47380.841
47355.504
47574.082
47739.913
47681.892
47687.243
47362.555
47158.581
47133.652
47172.517
47225.616
47241.197
47241.479
47182.998
47193.422
47283.322
47386.475
47304.919
47438.909
47319.96
47298.852
47343.957
47423.167
47431.149
47380.587
47355.384
47573.832
47739.891
47681.82
47687.815
47363.66
47005.891
46822.94
47158.482
47133.718
47172.75
47225.398
47241.083
47241.404
47183.198
47193.776
47282.94
47386.222
47304.724
47439.036
47320.283
47299.028
47344.131
47423.065
47431.22
47380.312
47355.268
47573.56
47739.857
47681.74
47688.41
47364.845
47007.117
46823.373
47004.902
47634.499
47797.741
47158.377
47133.789
47172.999
47225.165
47240.967
47241.313
47183.421
47194.156
47282.531
47385.954
47304.525
47439.161
47320.628
47299.22
47344.312
47422.961
47431.296
47380.014
47355.157
47573.266
47739.812
47681.654
47689.028
47366.116
47008.446
46823.846
47004.92
47634.506
47798.764
47953.304
47899.6
47158.265
47133.866
47173.265
47224.916
47240.849
47241.204
47183.668
47194.565
47282.094
47385.668
47304.323
47439.283
47320.995
47299.431
47344.502
47422.855
47431.376
47379.689
47355.054
47572.947
47739.751
47681.56
47689.669
47367.48
47009.884
46824.364
47004.958
47634.544
47799.812
47954.541
47900.563
47858.739
47790.442
47686.828
47158.145
47133.95
47173.549
47224.649
47240.727
47241.075
47183.943
47195.005
47281.625
47385.364
47304.119
47439.401
47321.387
47299.662
47344.698
47422.748
47431.462
47379.335
47354.961
47572.601
47739.674
47681.46
47690.333
47368.943
47011.438
46824.933
47005.025
47634.604
47800.882
47955.792
47901.499
47859.846
47791.287
47686.641
47523.705
47417.55
47398.096
47158.018
47134.041
47173.853
47224.364
47240.604
47240.925
47184.248
47195.481
47281.122
47385.041
47303.915
47439.513
47321.803
47299.915
47344.899
47422.643
47431.553
47378.95
47354.882
47572.224
47739.577
47681.353
47691.019
47370.512
47013.116
46825.56
47005.127
47634.68
47802.025
47957.074
47902.435
47860.836
47792.187
47686.827
47522.038
47416.137
47397.494
47157.882
47134.14
47174.179
47224.058
47240.479
47240.75
47184.586
47195.994
47280.583
47384.698
47303.713
47439.617
47322.246
47300.191
47345.103
47422.542
47431.651
47378.53
47354.819
47571.814
47739.457
47681.239
47691.727
47372.194
47014.926
46826.256
47005.266
47634.772
47803.258
47958.447
47903.446
47861.719
47793.102
47687.346
47520.77
47414.668
47396.813
47157.737
47134.247
47174.529
47223.728
47240.354
47240.549
47184.961
47196.548
47280.004
47384.333
47303.515
47439.71
47322.718
47300.493
47345.305
47422.448
47431.756
47378.071
47354.776
47571.368
47739.31
47681.121
47692.457
47374
47016.877
46827.032
47005.445
47634.883
47804.585
47959.926
47904.547
47862.663
47794.078
47687.899
47520.016
47413.143
47396.035
47157.582
47134.363
47174.905
47223.372
47240.229
47240.319
47185.377
47197.148
47279.381
47383.945
47303.324
47439.789
47323.22
47300.82
47345.504
47422.367
47431.868
47377.571
47354.756
47570.881
47739.131
47680.998
47693.208
47375.939
47018.985
46827.899
47005.665
47635.014
47806.01
47961.511
47905.736
47863.693
47795.127
47688.437
47519.263
47411.526
47395.139
47157.417
47134.489
47175.309
47222.99
47240.107
47240.056
47185.836
47197.797
47278.71
47383.533
47303.141
47439.851
47323.755
47301.173
47345.698
47422.299
47431.988
47377.027
47354.764
47570.35
47738.917
47680.873
47693.978
47378.026
47021.262
46828.873
47005.928
47635.166
47807.541
47963.206
47907.011
47864.794
47796.249
47688.982
47518.447
47409.796
47394.107
47157.24
47134.625
47175.743
47222.577
47239.986
47239.759
47186.343
47198.501
47277.988
47383.095
47302.971
47439.892
47324.324
47301.553
47345.9
47422.231
47432.116
47376.434
47354.804
47569.771
47738.66
47680.744
47694.768
47380.276
47023.72
46829.969
47006.234
47635.34
47809.187
47965.016
47908.376
47865.955
47797.442
47689.538
47517.662
47407.94
47392.922
47157.051
47134.773
47176.211
47222.131
47239.87
47239.426
47186.901
47199.263
47277.209
47382.631
47302.819
47439.906
47324.929
47301.961
47346.124
47422.149
47432.252
47375.79
47354.88
47569.139
47738.356
47680.614
47695.579
47382.708
47026.371
46831.207
47006.583
47635.531
47810.954
47966.948
47909.837
47867.165
47798.707
47690.1
47516.986
47405.947
47391.564
47156.849
47134.933
47176.716
47221.649
47239.758
47239.055
47187.512
47200.09
47276.367
47382.137
47302.689
47439.889
47325.575
47302.396
47346.373
47422.052
47432.395
47375.101
47354.989
47568.45
47737.996
47680.487
47696.414
47385.334
47029.226
46832.605
47006.976
47635.74
47812.853
47969.008
47911.407
47868.396
47800.042
47690.664
47516.484
47403.802
47390.01
47156.632
47135.107
47177.261
47221.129
47239.653
47238.645
47188.181
47200.989
47275.457
47381.614
47302.588
47439.834
47326.263
47302.861
47346.65
47421.937
47432.547
47374.379
47355.121
47567.7
47737.571
47680.365
47697.269
47388.165
47032.304
46834.187
47007.42
47635.97
47814.894
47971.198
47913.105
47869.613
47801.441
47691.232
47516.226
47401.491
47388.232
47156.402
47135.294
47177.849
47220.565
47239.555
47238.194
47188.909
47201.966
47274.471
47381.06
47302.52
47439.733
47326.996
47303.355
47346.96
47421.802
47432.704
47373.627
47355.277
47566.883
47737.074
47680.252
47698.134
47391.21
47035.633
46835.975
47007.924
47636.223
47817.086
47973.516
47914.952
47870.784
47802.896
47691.819
47516.29
47398.998
47386.203
47156.158
47135.498
47178.486
47219.955
47239.465
47237.701
47189.698
47203.029
47273.402
47380.472
47302.496
47439.577
47327.777
47303.876
47347.307
47421.648
47432.868
47372.848
47355.464
47565.994
47736.493
47680.153
47698.995
47394.49
47039.246
46837.998
47008.501
47636.506
47819.439
47975.954
47916.967
47871.896
47804.394
47692.447
47516.75
47396.306
47383.895
47155.9
47135.717
47179.176
47219.294
47239.385
47237.167
47190.55
47204.189
47272.241
47379.849
47302.524
47439.355
47328.609
47304.423
47347.693
47421.471
47433.034
47372.045
47355.688
47565.028
47735.815
47680.073
47699.848
47398.043
47043.173
46840.286
47009.163
47636.828
47821.962
47978.5
47919.177
47872.964
47805.897
47693.155
47517.675
47393.401
47381.27
47155.63
47135.955
47179.924
47218.578
47239.315
47236.59
47191.467
47205.455
47270.977
47379.19
47302.614
47439.056
47329.496
47304.993
47348.122
47421.275
47433.197
47371.223
47355.956
47563.979
47735.029
47680.021
47700.696
47401.916
47047.452
46842.871
47009.924
47637.198
47824.663
47981.138
47921.604
47874.027
47807.334
47693.998
47519.123
47390.274
47378.287
47155.345
47136.211
47180.735
47217.802
47239.255
47235.971
47192.451
47206.839
47269.602
47378.492
47302.778
47438.665
47330.442
47305.586
47348.6
47421.062
47433.35
47370.391
47356.28
47562.839
47734.117
47680.014
47701.539
47406.151
47052.125
46845.791
47010.79
47637.626
47827.553
47983.85
47924.267
47875.139
47808.615
47695.038
47521.121
47386.923
47374.895
47155.046
47136.487
47181.615
47216.961
47239.205
47235.309
47193.506
47208.348
47268.109
47377.752
47303.032
47438.166
47331.451
47306.199
47349.131
47420.837
47433.48
47369.559
47356.671
47561.601
47733.062
47680.075
47702.35
47410.763
47057.224
46849.082
47011.766
47638.125
47830.639
47986.617
47927.186
47876.343
47809.697
47696.259
47523.515
47383.346
47371.035
47154.732
47136.785
47182.569
47216.047
47239.163
47234.606
47194.634
47209.973
47266.509
47376.971
47303.393
47437.54
47332.53
47306.829
47349.716
47420.597
47433.582
47368.74
47357.147
47560.253
47731.844
47680.207
47703.114
47415.736
47062.758
46852.797
47012.845
47638.704
47833.93
47989.412
47930.378
47877.647
47810.638
47697.404
47525.699
47379.531
47366.643
47154.403
47137.106
47183.598
47215.06
47239.13
47233.861
47195.84
47211.701
47264.815
47376.145
47303.877
47436.765
47333.68
47307.468
47350.361
47420.338
47433.654
47367.952
47357.727
47558.784
47730.456
47680.424
47703.915
47420.948
47068.737
46857.011
47014.018
47639.367
47837.427
47992.21
47933.85
47879.029
47811.573
47698.026
47526.642
47375.43
47361.647
47154.059
47137.449
47184.68
47214.021
47239.106
47233.071
47197.128
47213.543
47263.02
47375.272
47304.504
47435.818
47334.906
47308.115
47351.074
47420.055
47433.688
47367.218
47358.435
47557.177
47728.875
47680.757
47704.922
47426.255
47075.207
46861.801
47015.295
47640.086
47841.127
47994.978
47937.553
47880.497
47812.6
47697.893
47525.683
47370.963
47355.967
47153.7
47137.814
47185.793
47212.955
47239.091
47232.232
47198.505
47215.512
47261.111
47374.352
47305.293
47434.675
47336.215
47308.78
47351.856
47419.743
47433.679
47366.562
47359.286
47555.413
47727.079
47681.237
47706.215
47431.622
47082.23
46867.217
47016.746
47640.776
47845.025
47997.678
47941.352
47882.136
47813.735
47697.245
47523.139
47366.079
47349.52
47153.326
47138.198
47186.936
47211.864
47239.085
47231.339
47199.985
47217.619
47259.079
47373.387
47306.258
47433.316
47337.619
47309.485
47352.682
47419.4
47433.629
47365.998
47360.29
47553.463
47725.043
47681.903
47707.825
47437.009
47089.83
46873.287
47018.503
47641.334
47849.104
48000.262
47945.141
47883.976
47814.966
47696.494
47519.839
47360.784
47342.207
47152.938
47138.6
47188.109
47210.752
47239.087
47230.388
47201.581
47219.878
47256.911
47372.384
47307.41
47431.718
47339.122
47310.228
47353.534
47419.03
47433.54
47365.542
47361.477
47551.287
47722.745
47682.799
47709.739
47442.315
47098.008
46880.084
47020.714
47641.707
47853.195
48002.832
47948.912
47885.863
47816.26
47695.872
47516.353
47355.109
47333.914
47152.535
47139.017
47189.312
47209.626
47239.101
47229.37
47203.305
47222.298
47254.61
47371.343
47308.753
47429.864
47340.729
47311.011
47354.397
47418.636
47433.416
47365.216
47362.928
47548.829
47720.159
47683.977
47711.944
47447.336
47106.796
46887.758
47023.491
47641.848
47856.906
48005.675
47952.541
47887.525
47817.806
47695.397
47512.849
47349.099
47324.487
47152.116
47139.453
47190.535
47208.492
47239.133
47228.275
47205.167
47224.886
47252.184
47370.269
47310.282
47427.744
47342.451
47311.83
47355.252
47418.239
47433.253
47365.047
47364.706
47546.028
47717.262
47685.514
47714.409
47451.991
47116.263
46896.521
47026.974
47641.63
47859.937
48008.913
47955.578
47889.07
47819.538
47695.032
47509.318
47342.822
47313.749
47151.685
47139.908
47191.755
47207.362
47239.192
47227.077
47207.171
47227.656
47249.661
47369.121
47311.971
47425.39
47344.295
47312.68
47356.108
47417.875
47433.047
47365.068
47366.747
47542.815
47714.019
47687.464
47716.957
47456.765
47126.322
46906.532
47031.397
47640.95
47862.153
48012.503
47957.424
47890.995
47821.227
47694.743
47505.694
47336.409
47301.527
47151.245
47140.379
47192.942
47206.257
47239.287
47225.767
47209.319
47230.621
47247.091
47367.834
47313.786
47422.838
47346.271
47313.571
47356.971
47417.561
47432.783
47365.307
47369.997
47539.128
47710.389
47689.702
47719.205
47462.46
47136.674
46917.888
47037.12
47639.725
47863.41
48016.103
47957.738
47893.511
47822.865
47694.411
47501.962
47329.936
47287.791
47150.804
47140.866
47194.106
47205.177
47239.408
47224.352
47211.616
47233.781
47244.475
47366.396
47315.727
47420.069
47348.372
47314.629
47357.714
47417.296
47432.444
47365.79
47373.285
47534.909
47706.295
47692.092
47720.907
47469.158
47147.235
46930.571
47044.613
47637.82
47863.445
48019.315
47956.02
47897.123
47824.373
47694.076
47498.202
47323.44
47272.578
47150.364
47141.377
47195.272
47204.056
47239.56
47222.867
47214.073
47237.125
47241.824
47364.788
47317.786
47417.076
47350.612
47316.086
47358.094
47417.066
47432.05
47366.569
47377.593
47530.073
47701.708
47694.673
47722.055
47476.662
47158.173
46944.399
47054.425
47635.155
47862.284
48021.388
47952.426
47901.704
47825.842
47693.376
47494.558
47317.039
47254.294
47149.928
47141.926
47196.424
47202.908
47239.769
47221.32
47216.69
47240.654
47239.189
47362.99
47319.942
47413.882
47353.002
47317.992
47358.059
47416.875
47431.631
47367.723
47382.902
47524.51
47696.615
47697.31
47722.633
47485.069
47169.666
46959.025
47066.914
47631.768
47860.778
48020.389
47949.878
47904.094
47826.642
47692.384
47491.333
47310.649
47234.742
47149.492
47142.514
47197.474
47201.824
47240.059
47219.689
47219.415
47244.413
47236.684
47360.987
47322.078
47410.6
47355.502
47320.171
47357.792
47416.724
47431.173
47369.36
47388.991
47518.291
47691.027
47699.741
47722.63
47494.187
47181.944
46974.035
47082.869
47627.955
47859.859
48014.309
47950.336
47902.728
47826.703
47691.406
47488.443
47303.442
47212.972
47149.053
47143.151
47198.34
47200.831
47240.478
47217.934
47222.159
47248.459
47234.35
47358.747
47324.047
47407.374
47358.017
47322.537
47357.42
47416.512
47430.696
47371.569
47395.764
47511.588
47684.947
47701.582
47722.167
47503.92
47195.191
46989.589
47103.508
47623.592
47858.431
48003.618
47951.394
47900.282
47825.88
47690.334
47485.332
47294.205
47190.517
47148.613
47143.834
47199.004
47199.982
47241.091
47216.018
47224.931
47252.667
47232.272
47356.255
47325.744
47404.264
47360.519
47325.082
47357.011
47416.31
47430.361
47374.284
47403.324
47504.477
47678.339
47702.039
47721.787
47514.291
47209.479
47007.523
47126.747
47618.296
47855.034
47990.675
47951.334
47896.938
47824.386
47689.001
47481.474
47281.959
47169.702
47148.18
47144.57
47199.396
47199.306
47241.975
47213.936
47227.7
47257.003
47230.658
47353.482
47327.037
47401.372
47363.096
47327.732
47356.7
47416.315
47430.085
47377.488
47411.7
47497.391
47670.896
47699.933
47722.589
47525.085
47224.804
47029.817
47160.662
47612.071
47849.524
47977.979
47946.891
47892.436
47822.278
47687.039
47477.192
47268.537
47150.649
47147.769
47145.37
47199.433
47198.868
47243.131
47211.673
47230.496
47261.361
47229.837
47350.431
47327.764
47398.959
47365.86
47330.33
47356.643
47416.325
47429.766
47381.346
47420.751
47491.109
47662.397
47694.205
47725.684
47535.845
47241.791
47056.545
47190.343
47604.541
47842.58
47965.294
47938.913
47886.654
47819.093
47684.377
47473.063
47256.483
47130.279
47147.384
47146.209
47199.09
47198.751
47244.471
47209.356
47233.332
47265.494
47229.769
47347.107
47327.88
47397.168
47368.738
47332.874
47357.092
47415.764
47429.386
47385.953
47430.34
47486.52
47652.859
47684.979
47731.055
47546.074
47261.619
47087.033
47229.255
47592.056
47834.565
47950.541
47929.578
47879.523
47815.161
47681.312
47469.099
47246.184
47108.892
47147.017
47147.102
47198.501
47198.859
47245.756
47207.388
47236.196
47269.068
47231.383
47343.328
47327.741
47395.571
47371.529
47335.374
47358.44
47414.355
47429.062
47391.387
47439.993
47483.355
47643.622
47674.206
47736.411
47555.151
47284.123
47122.281
47271.776
47575.658
47826.109
47934.222
47919.017
47871.762
47810.625
47677.284
47464.944
47237.798
47088.597
47146.667
47148.085
47197.809
47199.09
47246.621
47206.262
47238.66
47271.38
47234.259
47340.388
47328.435
47393.418
47374.219
47337.679
47360.294
47412.595
47429.075
47397.201
47446.594
47484.588
47635.449
47665.371
47737.786
47563.235
47307.657
47160.966
47313.849
47565.147
47816.814
47916.649
47907.374
47862.566
47804.714
47672.537
47461.717
47233.005
47070.531
47146.32
47149.109
47197.1
47199.397
47246.885
47206.271
47240.598
47272.671
47236.706
47338.865
47330.735
47390.531
47376.813
47339.792
47362.468
47410.98
47429.209
47402.542
47450.767
47490.96
47631.192
47661.252
47733.065
47570.789
47331.256
47199.831
47354.163
47567.28
47807.549
47897.379
47893.175
47851.445
47798.119
47668.739
47460.48
47232.722
47057.993
47145.958
47150.179
47196.379
47199.754
47246.566
47207.416
47241.984
47274.238
47238.243
47336.716
47334.8
47387.651
47379.13
47341.759
47364.759
47409.578
47429.312
47408.091
47455.714
47496.643
47628.96
47660.621
47726.007
47577.487
47354.914
47238.764
47389.803
47576.712
47799.529
47877.74
47877.831
47839.414
47788.878
47666.23
47460.338
47235.808
47053.146
47145.599
47151.336
47195.635
47200.15
47245.796
47209.335
47242.789
47275.932
47240.253
47333.703
47338.672
47385.719
47380.889
47343.662
47367.037
47408.411
47429.394
47413.594
47460.115
47500.201
47622.706
47659.555
47718.745
47582.704
47378.941
47278.172
47419.036
47591.173
47789.244
47858.938
47860.792
47825.355
47772.801
47664.15
47467.007
47246.786
47061.57
47145.282
47152.529
47194.91
47200.413
47244.696
47211.799
47243.164
47277.484
47242.302
47330.824
47341.282
47385.137
47382.035
47345.562
47369.378
47407.559
47429.476
47418.672
47464.072
47503.239
47617.042
47656.183
47710.233
47586.406
47402.615
47316.952
47443.484
47600.383
47775.124
47840.253
47841.793
47809.64
47754.899
47658.15
47480.464
47266.689
47084.806
47145.024
47153.694
47194.286
47200.585
47243.233
47214.808
47243.151
47278.948
47244.988
47327.134
47343.263
47385.774
47382.369
47347.334
47371.653
47406.98
47429.475
47423.653
47467.464
47505.314
47611.366
47651.482
47700.868
47588.953
47424.698
47352.682
47464.003
47607.422
47759.744
47819.959
47822.502
47794.05
47740.766
47645.167
47497.288
47292.047
47111.894
47144.828
47154.831
47193.805
47200.695
47241.668
47218.139
47243.027
47280.163
47247.869
47323.069
47344.414
47387.271
47381.996
47349.002
47373.831
47406.742
47429.342
47428.097
47469.984
47506.142
47605.295
47647.278
47690.934
47590.263
47445.073
47385.668
47482.031
47610.845
47743.273
47799.804
47802.434
47777.211
47727.408
47630.874
47517.51
47321.988
47141.525
47144.706
47155.962
47193.447
47200.855
47240.112
47221.648
47242.668
47281.058
47250.867
47319.156
47345.164
47389.3
47380.997
47350.557
47375.847
47406.804
47429.344
47432.321
47472.126
47507.613
47598.572
47642.286
47680.411
47590.562
47463.171
47413.662
47498.074
47612.641
47727.502
47778.191
47781.531
47758.988
47714.533
47627.53
47532.945
47353.923
47187.939
47144.66
47157.065
47193.15
47201.122
47238.532
47225.123
47242.257
47281.395
47253.936
47314.736
47346.04
47391.391
47379.492
47351.965
47377.512
47406.917
47429.529
47436.152
47473.223
47508.463
47590.991
47636.239
47668.778
47589.756
47479.431
47438.828
47512.561
47611.616
47712.884
47757.466
47761.037
47740.311
47701.752
47627.862
47544.443
47391.379
47255.803
47144.672
47158.086
47192.895
47201.663
47237.209
47228.317
47241.546
47281.275
47256.17
47310.284
47346.686
47393.275
47377.733
47353.284
47378.787
47407.17
47430.129
47439.629
47473.73
47507.905
47583.059
47628.918
47656.511
47588.266
47494.154
47460.864
47525.075
47610.218
47697.209
47736.375
47739.224
47721.099
47687.733
47626.371
47556.16
47434.126
47324.114
47144.749
47159.105
47192.473
47202.392
47235.962
47231.287
47240.396
47281.07
47258.122
47305.396
47347.215
47394.569
47376.005
47354.211
47379.631
47407.723
47431.139
47442.628
47473.922
47506.777
47574.797
47621.036
47642.74
47585.732
47508.086
47480.354
47535.029
47608.043
47682.142
47715.63
47717.886
47702.519
47673.296
47624.203
47564.297
47470.988
47381.388
47145.02
47160.109
47191.848
47203.286
47234.744
47234.107
47239.067
47280.714
47258.824
47301.603
47347.345
47394.743
47374.432
47354.861
47380.079
47408.554
47432.195
47444.971
47473.48
47505.014
47566.896
47612.567
47628.524
47582.286
47520.333
47496.794
47541.621
47604.869
47667.153
47694.736
47696.969
47684.347
47659.558
47620.854
47571.852
47502.2
47432.967
47145.408
47161.145
47191.112
47204.095
47233.54
47236.704
47237.403
47279.844
47258.594
47298.388
47347.561
47394.18
47372.95
47355.154
47380.474
47409.55
47433.216
47446.676
47472.19
47502.181
47559.037
47603.484
47616.094
47578.545
47529.658
47509.876
47546.848
47601.777
47652.388
47674.281
47676.631
47667.365
47647.253
47615.219
47575.861
47522.718
47470.983
47145.779
47162.213
47190.616
47204.668
47232.187
47238.743
47235.705
47278.422
47258.508
47296.257
47347.367
47392.882
47371.15
47355.06
47380.768
47410.921
47434.319
47447.368
47469.988
47498.742
47550.785
47594.187
47604.65
47574.094
47534.452
47519.332
47550.211
47598.381
47638.605
47654.693
47657.898
47651.566
47635.379
47609.14
47576.401
47533.626
47495.047
47146.075
47163.164
47190.266
47204.725
47230.617
47239.48
47234.811
47276.463
47258.923
47294.997
47347.874
47391.214
47368.823
47355.242
47380.838
47412.038
47435.327
47447.518
47467.819
47495.163
47542.521
47584.004
47593.224
47568.646
47534.391
47525.056
47552.877
47593.919
47624.65
47636.604
47640.343
47636.37
47624.013
47603.007
47575.469
47541.222
47511.441
47146.253
47163.864
47189.812
47204.177
47228.884
47238.859
47234.822
47273.887
47259.462
47294.642
47348.659
47388.559
47366.789
47355.88
47380.777
47412.785
47435.773
47447.221
47464.981
47491.897
47534.484
47572.961
47581.997
47562.255
47533.728
47529.383
47554.766
47588.391
47611.076
47620.275
47623.416
47622.272
47614.673
47597.257
47572.425
47545.552
47522.679
47146.463
47164.492
47189.068
47203.137
47226.972
47237.738
47235.915
47270.924
47260.449
47295.469
47349.302
47384.691
47365.1
47356.441
47380.808
47413.169
47435.565
47446.351
47461.591
47488.369
47527.611
47563.428
47572.454
47555.568
47533.24
47532.963
47555.439
47581.308
47598.035
47604.678
47607.531
47609.272
47605.492
47590.781
47569.182
47546.807
47529.207
47146.64
47165.016
47187.611
47201.789
47224.589
47236.499
47238.228
47267.375
47261.993
47297.248
47349.444
47380.008
47363.791
47356.448
47380.926
47413.189
47434.615
47444.528
47457.96
47483.996
47521.023
47554.505
47563.072
47549.616
47533.622
47535.389
47555.103
47573.825
47584.628
47588.848
47593.373
47597.554
47595.673
47583.356
47565.011
47546.3
47532.009
47147.033
47165.213
47185.596
47200.002
47221.847
47235.975
47240.405
47263.602
47265
47299.856
47349.098
47374.207
47362.509
47357.154
47381.562
47412.976
47433.048
47441.99
47454.802
47480.279
47514.556
47544.481
47551.839
47543.811
47533.749
47534.36
47549.001
47562.59
47570.187
47575.78
47581.965
47586.288
47584.762
47574.368
47559.327
47544.229
47532.317
47147.629
47165.418
47183.66
47198.143
47218.714
47234.882
47241.809
47261.184
47269.041
47304.254
47347.91
47366.68
47359.444
47357.406
47382.269
47412.604
47431.757
47439.663
47451.501
47476.143
47507.621
47533.619
47540.923
47536.763
47531.065
47531.381
47540.591
47551.446
47559.256
47566.981
47573.158
47575.412
47572.853
47564.222
47553.306
47541.508
47530.95
47165.112
47181.042
47196.006
47216.255
47233.576
47241.986
47259.936
47275.602
47308.748
47344.567
47359.304
47356.418
47357.894
47383.416
47413.068
47430.817
47437.188
47447.118
47469.887
47499.853
47523.025
47531.141
47529.843
47526.542
47527.175
47533.889
47542.755
47551.956
47560.093
47564.378
47563.744
47560.247
47553.747
47544.787
47534.53
47525.062
47164.542
47178.058
47193.479
47214.282
47232.341
47243.055
47263.054
47283.475
47311.674
47340.295
47352.271
47352.866
47359.01
47384.585
47412.519
47428.716
47434.455
47442.884
47462.654
47490.973
47513.506
47522.97
47523.006
47520.237
47521.57
47526.785
47533.927
47542.553
47549.635
47552.589
47551.581
47548.196
47543.221
47536.477
47528.075
47519.435
47163.911
47175.386
47191.279
47212.922
47232.521
47245.295
47267.298
47288.04
47311.349
47336.427
47345.706
47348.728
47359.94
47386.177
47410.692
47424.403
47429.846
47438.876
47457.13
47482.509
47504.17
47514.202
47514.935
47512.82
47514.464
47518.972
47524.534
47530.815
47536.3
47539.331
47539.79
47537.853
47533.686
47527.721
47520.472
47512.774
47162.715
47173.156
47188.628
47211.963
47233.297
47247.471
47268.652
47290.531
47309.573
47331.209
47339.508
47345.727
47361.494
47388.197
47408.047
47418.128
47423.676
47434.19
47452.736
47475.24
47493.556
47502.807
47504.613
47503.692
47505.636
47510.325
47514.651
47518.536
47522.503
47526.567
47528.673
47527.98
47524.426
47518.528
47511.453
47504.026
47161.129
47171.699
47187.346
47211.553
47233.393
47249.43
47269.606
47291.946
47307.276
47323.919
47333.098
47343.638
47363.442
47388.451
47403.645
47410.453
47416.985
47429.469
47448.486
47469.365
47484.523
47491.885
47493.654
47494.195
47496.875
47500.961
47504.923
47508.872
47513.213
47516.79
47518.167
47516.625
47512.462
47506.769
47500.796
47495.04
47160.055
47171.433
47186.231
47211.027
47233.244
47251.463
47269.855
47290.765
47304.333
47318.526
47328.242
47341.715
47364.1
47386.93
47399.216
47404.57
47411.571
47425.154
47443.404
47462.291
47475.854
47482.809
47485.234
47486.293
47487.562
47489.872
47493.639
47498.8
47503.905
47507.232
47507.633
47505.77
47502.114
47497.297
47492.038
47486.734
47158.883
47170.947
47185.838
47210.386
47233.461
47253.73
47271.151
47288.37
47299.97
47314.86
47324.451
47339.653
47362.31
47382.709
47394.176
47399.39
47405.945
47420.243
47439.402
47456.705
47468.41
47474.387
47475.946
47475.977
47476.104
47477.947
47482.064
47487.879
47493.481
47497.291
47498.375
47497.242
47494.132
47489.536
47483.661
47477.284
47158.172
47171.608
47186.445
47209.586
47234.879
47255.902
47270.434
47283.581
47294.713
47308.603
47319.393
47337.857
47361.044
47378.863
47389.175
47394.159
47400.541
47414.499
47434.68
47452.657
47463.072
47466.463
47465.818
47464.394
47464.77
47468.055
47473.155
47478.871
47484.067
47487.457
47488.709
47487.653
47483.929
47478.408
47471.967
47465.597
47157.314
47172.38
47188.851
47210.57
47236.903
47255.599
47265.63
47276.054
47288.418
47300.63
47316.05
47339.374
47361.286
47374.697
47382.762
47388.172
47396.066
47411.159
47430.48
47446.148
47453.597
47454.73
47452.856
47451.273
47452.64
47457.241
47463.77
47470.675
47476.051
47478.655
47479.263
47476.605
47471.535
47465.491
47459.632
47454.561
47155.224
47172.148
47191.413
47212.22
47235.132
47249.251
47257.651
47267.668
47279.814
47293.583
47316.188
47342.652
47361.974
47370.905
47375.282
47381.29
47393.24
47410.645
47427.226
47437.197
47440.396
47439.669
47438.055
47438.268
47442.016
47448.8
47457.092
47464.131
47468.384
47470.36
47469.179
47464.781
47459.049
47453.334
47448.348
47444.372
47152.961
47170.993
47191.815
47210.478
47227.901
47240.417
47249.736
47260.444
47275.145
47295.652
47321.193
47343.854
47357.489
47363.665
47368.175
47376.575
47390.609
47406.595
47418.747
47424.65
47426.005
47425.883
47426.303
47429.269
47435.818
47444.689
47452.905
47457.967
47459.887
47459.068
47455.294
47450.099
47444.976
47440.655
47437.35
47435.151
47150.413
47169.13
47189.815
47205.832
47219.363
47233.525
47246.471
47260.429
47280.045
47302.385
47324.477
47339.687
47348.663
47355.725
47362.709
47372.762
47386.265
47399.609
47409.137
47414.252
47416.368
47417.382
47420.067
47425.847
47433.997
47442.2
47447.442
47449.175
47448.055
47444.636
47440.405
47436.321
47432.857
47430.422
47429.022
47428.433
47148.643
47165.492
47185.03
47200.611
47212.57
47227.035
47244.849
47263.119
47285.067
47307.317
47325.09
47334.777
47340.839
47347.423
47355.704
47367.07
47381.467
47394.564
47403.109
47407.203
47409.172
47411.612
47416.385
47422.956
47429.4
47433.83
47435.372
47434.449
47431.785
47428.689
47426.069
47424.142
47423.05
47422.892
47423.391
47423.945
47147.741
47162.44
47179.604
47195.758
47209.587
47225.186
47246.211
47268.883
47291.844
47310.055
47320.673
47326.358
47330.526
47337.048
47348.545
47364.3
47379.972
47391.242
47397.199
47399.668
47401.386
47404.373
47408.717
47413.071
47416.69
47419.16
47420.282
47420.308
47419.746
47419.271
47419.285
47419.697
47420.231
47420.708
47420.914
47420.511
47147.168
47161.132
47175.355
47192.81
47210.71
47228.764
47250.346
47272.731
47290.837
47301.934
47307.405
47312.195
47320.023
47331.432
47347.143
47364.148
47377.306
47384.668
47387.797
47389.046
47390.211
47392.617
47396.585
47401.276
47405.911
47409.985
47413.183
47415.268
47416.563
47417.383
47417.785
47417.6
47416.579
47414.882
47412.73
47410.362
47145.953
47161.312
47175.498
47191.876
47212.231
47231.635
47250.621
47267.241
47279.313
47287.788
47295.097
47303.331
47315.751
47332.171
47349.515
47364.513
47374.015
47378.269
47379.533
47379.817
47381.423
47385.083
47390.449
47396.438
47401.962
47406.229
47408.64
47409.329
47408.815
47407.581
47406.013
47404.216
47402.219
47400.252
47398.546
47397.197
47144.29
47159.899
47175.909
47190.579
47208.203
47226.701
47242.975
47255.988
47266.713
47276.165
47288.085
47303.766
47321.82
47339.299
47352.813
47360.852
47364.554
47365.583
47366.194
47367.849
47371.366
47376.987
47383.453
47389.552
47394.37
47397.499
47399.063