/*--------------------------------*- C++ -*----------------------------------*\
| =========                 |                                                 |
| \\      /  F ield         | OpenFOAM: The Open Source CFD Toolbox           |
|  \\    /   O peration     | Version:  2506                                  |
|   \\  /    A nd           | Website:  www.openfoam.com                      |
|    \\/     M anipulation  |                                                 |
\*---------------------------------------------------------------------------*/
FoamFile
{
    version     2.0;
    format      ascii;
    arch        "LSB;label=32;scalar=64";
    class       volVectorField;
    location    "0.0115";
    object      U;
}
// * * * * * * * * * * * * * * * * * * * * * * * * * * * * * * * * * * * * * //

dimensions      [0 1 -1 0 0 0 0];

internalField   nonuniform List<vector> 
13761
(
(102.13702 7.0326987 0)
(102.57918 7.1773544 0)
(103.02525 7.3392075 2.2186093e-20)
(103.02412 7.3412202 -1.45807e-20)
(102.57822 7.1793977 -2.5575845e-22)
(102.13632 7.0347751 0)
(101.69599 6.9074245 -1.560491e-22)
(101.25474 6.7968637 1.7217886e-22)
(103.02367 7.3414889 1.382285e-20)
(102.5779 7.1796302 2.4240826e-22)
(102.1362 7.0349747 0)
(101.69617 6.907596 0)
(101.25538 6.7970146 2.0713777e-20)
(100.80966 6.7011313 -1.1333997e-20)
(100.35173 6.6173657 2.539101e-20)
(103.02323 7.3424638 0)
(102.57759 7.1805913 2.2995978e-22)
(102.1361 7.0359249 3.1991382e-20)
(101.69638 6.9085393 5.605061e-22)
(101.25605 6.7979581 -2.0098035e-20)
(100.81105 6.7020896 1.705335e-22)
(100.35418 6.6183628 -2.4248609e-20)
(99.874376 6.5438212 5.3035354e-20)
(99.355908 6.4760399 -2.9216945e-20)
(103.02277 7.3435662 3.9473046e-22)
(102.57728 7.1816856 -5.6247026e-20)
(102.13599 7.0370143 -3.0569993e-20)
(101.69659 6.9096275 0)
(101.25675 6.799053 0)
(100.81248 6.7032068 -4.1683438e-20)
(100.35673 6.6195277 3.5612044e-22)
(99.87855 6.5450715 -5.0238814e-20)
(99.362418 6.4774255 2.788837e-20)
(98.788405 6.4152682 9.1188092e-20)
(98.132581 6.3582128 0)
(103.02229 7.3447234 -1.8711845e-22)
(102.57694 7.1828341 1.0599531e-19)
(102.13587 7.0381572 -2.2812427e-22)
(101.69681 6.9107689 2.5162429e-22)
(101.25747 6.8002007 -7.1333513e-20)
(100.81397 6.7043769 -3.855637e-20)
(100.35936 6.6207468 -3.3718338e-22)
(99.882887 6.5463791 0)
(99.369193 6.4788743 0)
(98.79857 6.4169237 -5.7677332e-20)
(98.147315 6.3601535 0)
(97.388086 6.3087917 6.9860813e-20)
(96.490178 6.2630336 7.6540522e-20)
(103.02178 7.3459423 -9.0745572e-20)
(102.57659 7.1840435 5.0098626e-20)
(102.13575 7.0393605 5.5075055e-20)
(101.69702 6.9119701 6.1470101e-20)
(101.25821 6.801408 1.3450968e-19)
(100.81551 6.7056068 7.3839821e-20)
(100.3621 6.6220274 -8.1677822e-20)
(99.887391 6.5477512 0)
(99.376239 6.4803934 -9.9068538e-20)
(98.809161 6.4186583 0)
(98.162691 6.3621859 -5.9776255e-20)
(97.409717 6.3112186 -6.6277183e-20)
(96.519739 6.2659661 -1.4520011e-19)
(95.458709 6.2258829 0)
(94.188705 6.1893391 -4.383109e-20)
(103.02124 7.3472306 1.7189438e-19)
(102.57621 7.1853221 -3.7067472e-22)
(102.13561 7.0406328 -5.1729347e-20)
(101.69724 6.9132404 -5.7952781e-20)
(101.25897 6.8026844 -6.3637858e-20)
(100.81709 6.7069067 6.9851603e-20)
(100.36493 6.6233795 1.5479646e-19)
(99.892064 6.5491988 3.3235003e-22)
(99.383562 6.4819941 9.3282567e-20)
(98.820187 6.4204846 4.0268554e-22)
(98.178727 6.3643249 5.6256436e-20)
(97.432319 6.3137712 -6.2361108e-20)
(96.550681 6.2690504 6.8560778e-20)
(95.499951 6.2296366 2.9436921e-22)
(94.242346 6.1939215 8.2424661e-20)
(92.735781 6.1589521 -9.0816357e-20)
(90.933487 6.1204969 4.9778089e-20)
(88.784089 6.0734138 1.6333355e-19)
(103.02068 7.3485932 -8.1370498e-20)
(102.57581 7.1866749 1.7947591e-27)
(102.13545 7.0419793 0)
(101.69746 6.9145847 4.2672709e-22)
(101.25975 6.8040351 1.196692e-19)
(100.81873 6.7082817 -6.6046619e-20)
(100.36786 6.624809 -7.3019787e-20)
(99.896904 6.5507274 8.0388358e-20)
(99.391161 6.4836828 -8.8474716e-20)
(98.831652 6.4224092 0)
(98.195433 6.3665766 -1.0707477e-19)
(97.455907 6.3164575 5.8867277e-20)
(96.583033 6.2722961 0)
(95.543152 6.2335873 0)
(94.298638 6.1987469 7.8354765e-20)
(92.807518 6.1648504 -3.3446441e-22)
(91.023099 6.1276969 0)
(88.894022 6.0821746 -9.638221e-26)
(86.365316 6.0228652 1.1184591e-19)
(83.381667 5.9448935 -6.0389146e-20)
(103.02008 7.3500349 7.761623e-20)
(102.57538 7.1881066 -8.4972029e-20)
(102.13528 7.0434048 -7.3209647e-22)
(101.69767 6.9160082 4.0342205e-22)
(101.26055 6.8054651 -1.1380726e-19)
(100.82041 6.7097366 -1.2509613e-19)
(100.37088 6.6263201 -2.6947387e-22)
(99.901908 6.552342 -7.5937392e-20)
(99.399037 6.4854641 8.3224991e-20)
(98.843557 6.4244368 7.1799206e-22)
(98.212815 6.368947 1.0026677e-19)
(97.480498 6.3192835 1.1151751e-19)
(96.616828 6.2757097 1.215807e-19)
(95.588366 6.2377429 5.2354577e-22)
(94.357664 6.2038256 -5.0359845e-26)
(92.882879 6.1710631 -3.1535608e-22)
(91.117408 6.1352879 8.8452125e-20)
(89.009923 6.0914221 -9.6381308e-20)
(86.505346 6.0340727 -2.1090431e-19)
(83.547986 5.9583734 -1.1406165e-19)
(80.089279 5.8609864 -1.2169139e-19)
(76.102352 5.7411825 -2.4808956e-22)
(103.01944 7.3515613 -7.3156198e-20)
(102.57493 7.1896232 6.2796354e-22)
(102.13509 7.0449151 -8.896342e-20)
(101.69788 6.9175165 -3.8152695e-22)
(101.26136 6.8069802 -1.0672265e-19)
(100.82213 6.7112776 1.1796626e-19)
(100.37399 6.6279195 0)
(99.907074 6.5540483 0)
(99.407186 6.4873441 7.8871069e-20)
(98.8559 6.426574 0)
(98.230875 6.3714424 9.4962424e-20)
(97.506102 6.3222564 -1.039428e-19)
(96.652087 6.2793 -2.3014752e-19)
(95.635635 6.2421143 2.0890007e-25)
(94.419494 6.2091696 -7.0135622e-20)
(92.961971 6.1776046 2.9690757e-22)
(91.216572 6.1432879 3.2538039e-22)
(89.132018 6.1011788 -3.5584653e-22)
(86.653149 6.0459149 1.9908102e-19)
(83.72386 5.9726373 1.0760929e-19)
(80.294498 5.8779614 1.1471423e-19)
(76.336048 5.761032 -1.2086945e-19)
(71.863303 5.6243106 0)
(66.962557 5.4739289 6.0798009e-20)
(103.01877 7.3531764 -1.378248e-19)
(102.57444 7.1912281 1.5168144e-19)
(102.13488 7.0465137 8.4079417e-20)
(101.69808 6.9191131 9.1903653e-20)
(101.26218 6.8085837 2.035854e-19)
(100.8239 6.7129075 4.3687932e-22)
(100.37718 6.6296095 -1.2399235e-19)
(99.912397 6.5558496 5.2850406e-22)
(99.415602 6.489326 -7.4395418e-20)
(98.868678 6.428824 -1.6355358e-19)
(98.249612 6.3740667 -8.9511186e-20)
(97.532724 6.3253804 -7.7120002e-22)
(96.688827 6.2830709 1.0839129e-19)
(95.684992 6.2467057 -1.9665436e-25)
(94.484189 6.2147856 5.0967427e-22)
(93.044895 6.1844846 1.4307191e-19)
(91.320741 6.1517106 -7.8358015e-20)
(89.260523 6.1114629 8.5705244e-20)
(86.809033 6.0584139 -9.3473686e-20)
(83.909774 5.9877188 1.0136652e-19)
(80.511864 5.8959487 0)
(76.583937 5.7821122 1.1475471e-19)
(72.136868 5.6483948 1.1813343e-19)
(67.250074 5.5005157 -5.8857199e-20)
(62.089565 5.348209 -2.1989364e-22)
(56.893565 5.2060293 1.9834513e-22)
(103.01806 7.3548845 -1.0212759e-26)
(102.57392 7.1929261 -1.4390639e-19)
(102.13464 7.0482053 3.0902973e-22)
(101.69826 6.9208027 8.7137536e-20)
(101.263 6.8102804 -9.6292279e-20)
(100.8257 6.7146311 8.2451424e-22)
(100.38046 6.6313952 1.1607716e-19)
(99.917873 6.5577501 1.7769869e-25)
(99.424281 6.4914137 -5.478748e-22)
(98.881889 6.4311908 1.5414225e-19)
(98.269028 6.3768239 0)
(97.560374 6.3286601 0)
(96.727072 6.2870292 -3.9867923e-22)
(95.736486 6.2515259 -1.1151501e-19)
(94.551831 6.2206841 0)
(93.131778 6.1917161 -1.3453935e-19)
(91.430104 6.160572 0)
(89.395702 6.1222956 -8.0555594e-20)
(86.973347 6.0715985 0)
(84.1062 6.0036541 -9.5384383e-20)
(80.742174 5.9149985 4.0089418e-22)
(76.847277 5.8045003 1.0830467e-19)
(72.427847 5.6740502 -1.1274381e-19)
(67.556812 5.5289455 1.1396728e-19)
(62.393819 5.3784071 -2.1480126e-22)
(57.173436 5.2366038 -1.9724132e-22)
(52.150395 5.1227655 0)
(47.521272 5.0568888 -1.3820112e-22)
(43.342205 5.0540132 1.1142213e-22)
(103.01731 7.3566931 2.4580405e-19)
(102.57337 7.1947245 1.0601855e-21)
(102.13438 7.0499976 1.4859474e-19)
(101.69843 6.9225929 -1.642321e-19)
(101.26383 6.8120776 -1.8071869e-19)
(100.82753 6.7164561 -3.8892591e-22)
(100.3838 6.6332839 -1.0948764e-19)
(99.923493 6.5597576 -1.1986716e-19)
(99.433216 6.4936155 1.3170341e-19)
(98.895522 6.4336825 1.4523041e-19)
(98.289115 6.3797226 0)
(97.589049 6.3321046 0)
(96.766828 6.2911834 -9.602936e-20)
(95.790141 6.2565841 7.8818933e-26)
(94.622472 6.2268761 -1.1544356e-19)
(93.222712 6.1993133 0)
(91.544807 6.1698913 5.4091459e-22)
(89.537771 6.1337013 -1.5254623e-19)
(87.14639 6.0854986 6.4488447e-22)
(84.313535 6.020481 -3.504414e-22)
(80.985987 5.9351557 3.7751872e-22)
(77.126998 5.8282557 -4.0206474e-22)
(72.737885 5.7013791 8.3863453e-22)
(67.884765 5.5593588 -1.0955197e-19)
(62.7202 5.4108441 5.3532162e-20)
(57.475294 5.2695977 0)
(52.411065 5.1548134 -4.3634835e-20)
(47.734845 5.0869922 -3.6440812e-20)
(43.515291 5.0818262 0)
(39.749991 5.1535796 2.5023001e-20)
(36.499179 5.3428046 -2.2544064e-20)
(103.0165 7.3586087 -4.5454406e-22)
(102.57277 7.19663 5.005878e-22)
(102.13408 7.051897 -1.4057552e-19)
(101.69859 6.9244905 -6.0659898e-22)
(101.26466 6.8139824 1.7051206e-19)
(100.82938 6.7183889 -1.8747988e-19)
(100.38722 6.635282 2.0605364e-19)
(99.929249 6.5618782 2.2727282e-19)
(99.442394 6.4959374 -4.1287361e-26)
(98.909563 6.4363057 -2.7353865e-19)
(98.309856 6.382769 -1.5011898e-19)
(97.618733 6.3357201 0)
(96.808086 6.2955412 8.9972702e-20)
(95.845958 6.2618896 9.9794773e-20)
(94.696134 6.2333729 -4.2363404e-22)
(93.317752 6.2072888 0)
(91.664955 6.1796829 0)
(89.686897 6.1456992 2.842246e-19)
(87.328411 6.1001402 6.0576555e-22)
(84.532125 6.0382341 3.314867e-25)
(81.243783 5.9564658 -7.104792e-22)
(77.42387 5.8534398 -9.7110603e-20)
(73.068344 5.7304607 0)
(68.23585 5.5918708 0)
(63.071097 5.4457098 -1.0419398e-19)
(57.801549 5.305237 9.876816e-20)
(52.693944 5.1895338 -3.4299928e-22)
(47.96736 5.1196705 3.7341775e-20)
(43.703948 5.1120253 0)
(39.905367 5.180861 -2.616431e-20)
(36.629852 5.3655601 0)
(34.156805 5.6657644 2.3475984e-20)
(32.235919 6.2332687 2.0432206e-22)
(32.826315 6.8459361 -8.6878293e-23)
(103.01565 7.3606376 -1.0988556e-19)
(102.57213 7.1986488 0)
(102.13375 7.05391 -5.2039636e-22)
(101.69872 6.9265016 1.1448251e-21)
(101.26548 6.8160006 -1.2588474e-21)
(100.83126 6.7204359 3.5489017e-19)
(100.3907 6.6373961 9.7284956e-20)
(99.93513 6.5641185 -1.0684293e-19)
(99.451799 6.4983853 -2.3505902e-19)
(98.923994 6.4390656 2.5848483e-19)
(98.331232 6.385969 1.406952e-19)
(97.649406 6.3395133 0)
(96.85083 6.3001094 1.6916785e-19)
(95.903934 6.2674493 7.2681475e-22)
(94.772838 6.2401817 1.0191359e-19)
(93.416956 6.2156531 -4.3586716e-22)
(91.790654 6.1899621 -1.2107035e-19)
(89.843257 6.1583087 -1.3386017e-19)
(87.519674 6.1155496 5.6832427e-22)
(84.762346 6.0569486 -1.2356572e-21)
(81.51607 5.9789763 6.6775477e-22)
(77.738647 5.880118 9.1537525e-20)
(73.420482 5.761385 9.6964841e-20)
(68.611995 5.6266103 -7.7989909e-22)
(63.449077 5.4831736 -1.0020337e-19)
(58.154961 5.3437358 -9.6020194e-20)
(53.00166 5.2272052 4.3801802e-20)
(48.221072 5.1551975 0)
(43.910016 5.1448601 -3.1776793e-20)
(40.075105 5.2105047 1.0648262e-22)
(36.772597 5.3903065 0)
(34.279089 5.6849904 -2.4902246e-20)
(32.334505 6.2355286 1.079611e-22)
(32.979478 7.0840968 1.5482203e-20)
(33.321681 2.9218384 4.5076038e-20)
(29.235937 2.7030852 -4.2440285e-22)
(26.186883 3.6811534 6.4930792e-20)
(103.01475 7.3627868 -2.0748936e-19)
(102.57144 7.2007882 1.1420924e-19)
(102.13339 7.0560437 4.909633e-22)
(101.69882 6.9286335 -5.3974737e-22)
(101.26629 6.8181399 1.5249785e-19)
(100.83314 6.7226042 -6.5184792e-22)
(100.39423 6.6396328 -1.8328397e-19)
(99.941122 6.5664846 0)
(99.461416 6.5009659 4.0529902e-26)
(98.938794 6.4419693 -1.2159365e-19)
(98.353216 6.3893293 5.1877305e-22)
(97.681041 6.3434901 -1.4504928e-19)
(96.895037 6.3048942 -3.1976693e-19)
(95.964055 6.2732706 -6.8289451e-22)
(94.852588 6.2473125 9.6419535e-20)
(93.520361 6.2244174 -4.0899566e-22)
(91.921995 6.2007423 1.1534776e-19)
(90.007011 6.1715488 -4.8826579e-22)
(87.720428 6.1317518 1.3582961e-19)
(85.004557 6.0766585 -1.477382e-19)
(81.803351 6.0027346 -1.6114749e-19)
(78.072056 5.9083557 6.726386e-22)
(73.795466 5.7942453 -9.1303334e-20)
(69.015086 5.6637126 0)
(63.856826 5.5234205 9.6357069e-20)
(58.53862 5.385333 0)
(53.337253 5.2680971 -3.395688e-22)
(48.498618 5.1938488 7.6076944e-20)
(44.135642 5.1805885 3.2738074e-20)
(40.260949 5.2427543 2.2090162e-22)
(36.92887 5.4172468 -2.0320056e-22)
(34.413085 5.7059291 0)
(32.445356 6.2404663 -2.9069788e-20)
(33.145626 7.2446861 0)
(33.494109 2.9387019 0)
(29.434726 2.7412095 0)
(26.523044 3.711676 -1.2180837e-19)
(103.01379 7.3650634 1.9619764e-19)
(102.5707 7.2030552 -1.0858561e-19)
(102.13297 7.0583052 -1.5459256e-25)
(101.69889 6.9308935 5.0880767e-22)
(101.26708 6.820407 -1.7456737e-26)
(100.83504 6.7249005 -1.572015e-19)
(100.39779 6.6419987 0)
(99.947211 6.5689834 -1.8936598e-19)
(99.471224 6.5036854 3.1158588e-19)
(98.953936 6.4450222 4.4497773e-22)
(98.375778 6.3928547 -9.7537699e-22)
(97.713602 6.347656 1.3733904e-19)
(96.940669 6.309901 1.5043098e-19)
(96.026291 6.279359 -6.4070533e-22)
(94.935372 6.2547709 -2.6997653e-19)
(93.627986 6.2335903 7.6673374e-22)
(92.059043 6.2120362 0)
(90.178293 6.1854364 1.1714731e-19)
(87.930902 6.1487708 -1.2774381e-19)
(85.259102 6.0973967 2.7847066e-19)
(82.106114 6.0277852 -5.8749066e-22)
(78.424798 5.9382156 -2.4221486e-19)
(74.194404 5.8291335 -6.7266831e-22)
(69.446974 5.703315 -9.0191794e-20)
(64.297134 5.566649 0)
(58.955959 5.4302921 -9.1220341e-20)
(53.704249 5.3125145 8.612245e-20)
(48.803099 5.2359399 -7.6779174e-20)
(44.38335 5.2195069 0)
(40.464933 5.2778704 2.2821997e-22)
(37.100364 5.4465996 -2.7282493e-20)
(34.560279 5.7288334 1.0625234e-22)
(32.569962 6.2511911 6.0918851e-20)
(33.326113 7.2012829 -2.7545373e-22)
(33.669598 2.9849372 3.2621753e-22)
(29.645176 2.781385 0)
(26.866055 3.7411784 1.1473028e-19)
(103.01276 7.3674753 1.8509566e-19)
(102.56991 7.2054575 1.3148626e-25)
(102.13251 7.0607026 -4.3632078e-22)
(101.69892 6.9332893 0)
(101.26786 6.8228099 -1.3535841e-19)
(100.83693 6.7273329 1.4859317e-19)
(100.40139 6.6445018 0)
(99.953381 6.5716221 1.7814722e-19)
(99.4812 6.5065507 -1.9533083e-19)
(98.96939 6.4482313 -4.1824038e-22)
(98.398877 6.3965526 1.1774963e-19)
(97.747042 6.3520175 0)
(96.987677 6.3151364 0)
(96.090595 6.2857217 6.0134263e-22)
(95.021155 6.2625653 3.3667521e-19)
(93.739824 6.2431804 -1.84732e-19)
(92.201837 6.2238542 0)
(90.357211 6.1999863 -1.0884953e-19)
(88.151291 6.1666274 -9.3414169e-22)
(85.526292 6.1191925 -1.3010838e-19)
(82.424816 6.0541693 1.4102626e-19)
(78.797537 5.9697562 1.5193696e-19)
(74.618332 5.8661362 0)
(69.909432 5.7455501 8.5377199e-20)
(64.772832 5.61306 6.8840974e-22)
(59.410719 5.4788928 -6.8802011e-22)
(54.106682 5.3607952 -8.4224127e-20)
(49.138143 5.2818247 2.9870297e-22)
(44.656096 5.261948 -2.6334677e-22)
(40.689428 5.3161479 -2.3466998e-22)
(37.289034 5.4786131 2.8277225e-20)
(34.722384 5.7539719 0)
(32.709722 6.2632395 -6.556682e-25)
(33.522376 7.1023788 0)
(33.849495 3.0219681 3.1402517e-22)
(29.867905 2.8236656 -7.2570266e-22)
(27.216323 3.7697143 -5.2777078e-20)
(103.01167 7.3700323 6.805858e-22)
(102.56905 7.2080055 -7.4861656e-22)
(102.132 7.0632459 8.2249179e-22)
(101.69892 6.9358315 1.1566215e-19)
(101.2686 6.8253591 0)
(100.83881 6.7299116 -1.3879542e-19)
(100.405 6.6471521 -5.9689851e-22)
(99.959611 6.5744108 6.5465762e-22)
(99.491316 6.5095718 -7.1722557e-22)
(98.985117 6.4516063 0)
(98.422464 6.4004316 -8.6095829e-22)
(97.781301 6.356583 1.2108207e-19)
(97.035989 6.3206086 1.3301573e-19)
(96.15689 6.2923663 -5.6380569e-22)
(95.109865 6.2707032 -1.974345e-25)
(93.85582 6.2531973 3.4420026e-19)
(92.35036 6.2362081 1.8902107e-19)
(90.543803 6.2152134 8.0266113e-22)
(88.381715 6.1853413 -8.7434225e-22)
(85.806351 6.1420732 0)
(82.759811 6.081924 0)
(79.190812 6.0030286 0)
(75.06813 5.9053284 0)
(70.404043 5.7905373 6.30234e-22)
(65.286653 5.6628454 -1.3098755e-21)
(59.906828 5.531417 8.544855e-20)
(54.549052 5.413297 -6.4287165e-22)
(49.507918 5.3318879 7.6936561e-20)
(44.957294 5.3082753 -2.6618376e-22)
(40.93715 5.3579069 0)
(37.497104 5.5135535 -5.7663956e-20)
(34.901327 5.7815488 -2.2931753e-22)
(32.866311 6.2750957 -3.2961943e-20)
(33.736022 7.0044007 -3.0718255e-22)
(34.035083 3.0480705 6.0116385e-22)
(30.103508 2.8681026 8.799878e-20)
(27.574188 3.797323 -3.9262487e-22)
(103.01051 7.3727438 -1.6366506e-19)
(102.56814 7.2107084 0)
(102.13144 7.0659448 7.7520523e-22)
(101.69886 6.9385294 -1.0935758e-19)
(101.2693 6.8280639 -4.6689186e-22)
(100.84066 6.7326459 0)
(100.40861 6.6499589 0)
(99.965878 6.5773586 6.1550714e-22)
(99.501539 6.5127569 -6.7402533e-22)
(99.00107 6.4551542 1.8898691e-19)
(98.446475 6.4044984 -3.1112391e-19)
(97.816294 6.3613586 -1.1230235e-19)
(97.085502 6.3263226 -2.4760054e-19)
(96.225058 6.2992973 5.2881248e-22)
(95.201376 6.2791885 -1.4846994e-19)
(93.975851 6.2636443 -1.6151066e-19)
(92.504506 6.2491025 -1.755835e-19)
(90.738003 6.2311248 -7.5076067e-22)
(88.622171 6.2049242 0)
(86.099363 6.1660564 -8.9008974e-22)
(83.111301 6.1110759 9.650602e-22)
(79.604993 6.0380731 0)
(75.544483 5.9467744 5.5933192e-22)
(70.932186 5.8383843 2.8895777e-25)
(65.841228 5.7161891 -1.2426131e-21)
(60.448419 5.5881551 8.1872019e-20)
(55.036428 5.4704078 7.9346601e-20)
(49.917307 5.3865598 -7.4618078e-20)
(45.290987 5.3589009 0)
(41.211305 5.40351 0)
(37.727178 5.5517223 5.918979e-20)
(35.099342 5.811794 2.3638039e-22)
(33.041881 6.2859667 -2.6527017e-22)
(33.968883 6.9478931 3.2164663e-22)
(34.227431 3.0685617 5.7509438e-22)
(30.352523 2.914759 -8.3574776e-20)
(27.939982 3.8240328 -3.6869965e-22)
(103.00927 7.3756182 1.5486388e-19)
(102.56715 7.2135749 -6.6480152e-22)
(102.1308 7.0688078 -2.4356394e-25)
(101.69875 6.9413919 8.0101683e-22)
(101.26996 6.8309333 0)
(100.84248 6.7355446 -4.8184414e-22)
(100.4122 6.6529302 -1.8426659e-25)
(99.972159 6.5804725 -1.4746552e-19)
(99.511831 6.5161131 1.6210084e-19)
(99.017198 6.458882 -1.7673312e-19)
(98.47084 6.4087589 -7.5803536e-22)
(97.851932 6.3663487 8.2954025e-22)
(97.136106 6.3322813 1.151503e-19)
(96.294971 6.306516 9.9098198e-22)
(95.295546 6.2880226 -1.3904532e-19)
(94.099777 6.2745229 2.6479595e-25)
(92.664154 6.2625392 2.975502e-25)
(90.939732 6.2477248 3.3389099e-25)
(88.872645 6.2253846 3.7396155e-25)
(86.405405 6.191157 -8.3149889e-22)
(83.479475 6.1416497 0)
(80.040431 6.0749286 1.2387489e-19)
(76.048034 5.9905345 1.0480391e-21)
(71.495163 5.8891951 5.5869774e-22)
(66.439177 5.7732774 1.4984785e-19)
(61.039945 5.6494162 -6.0609691e-22)
(55.574645 5.532561 -7.7334612e-20)
(50.372184 5.4463388 5.776924e-22)
(45.662122 5.4143092 0)
(41.515812 5.4533856 0)
(37.982419 5.5934741 0)
(35.319113 5.8449673 -2.4215981e-22)
(33.239206 6.2958338 3.5173277e-20)
(34.223152 6.9477251 4.2684951e-20)
(34.4274 3.089951 -7.067569e-20)
(30.615523 2.9637373 6.1428568e-22)
(28.31416 3.8498744 0)
(103.00795 7.378667 -1.4592953e-19)
(102.56608 7.2166163 0)
(102.13011 7.0718466 0)
(101.69858 6.9444305 0)
(101.27056 6.8339786 0)
(100.84425 6.738619 -2.3103707e-19)
(100.41576 6.6560775 -1.2802343e-19)
(99.978426 6.5837641 1.3854038e-19)
(99.522156 6.519651 -1.5102892e-19)
(99.033445 6.4627992 2.4303112e-25)
(98.495482 6.4132218 -1.4226554e-21)
(97.888113 6.371561 1.9985969e-19)
(97.187674 6.3384917 -8.4993162e-22)
(96.366476 6.314029 9.2789193e-22)
(95.392208 6.2972096 1.296773e-19)
(94.227423 6.2858358 1.4092519e-19)
(92.829144 6.2765216 -2.7814306e-25)
(91.148865 6.265018 -3.1195583e-25)
(89.133077 6.24673 -1.8225305e-19)
(86.724501 6.2173886 -7.7726113e-22)
(83.864468 6.1736666 1.686308e-21)
(80.497386 6.1136261 -1.1764133e-19)
(76.579266 6.0366588 -9.8184654e-22)
(72.094025 5.9430567 -5.0990408e-25)
(67.08287 5.8342763 5.5341837e-22)
(61.685892 5.7155005 -7.3149889e-20)
(56.170134 5.6002116 0)
(50.879412 5.5117737 7.2326769e-20)
(46.076612 5.4750464 0)
(41.855358 5.5080169 0)
(38.266578 5.6392071 6.1125949e-20)
(35.563785 5.8813447 4.9423859e-22)
(33.46162 6.3052011 -1.0678029e-19)
(34.501332 6.9934486 -8.7946699e-20)
(34.635672 3.1182817 6.6636876e-20)
(30.892938 3.015151 5.7942979e-22)
(28.697101 3.8748691 -6.4754136e-22)
(103.00655 7.3819014 -5.3689146e-22)
(102.56494 7.2198442 0)
(102.12933 7.0750728 -1.6560005e-19)
(101.69834 6.9476572 1.8160196e-19)
(101.2711 6.837212 -7.7762367e-22)
(100.84596 6.741881 2.1887826e-19)
(100.41926 6.6594124 1.2028738e-19)
(99.98465 6.5872446 -1.3163794e-19)
(99.532468 6.5233811 0)
(99.049746 6.4669151 0)
(98.520309 6.417895 1.7078018e-19)
(97.924712 6.3770019 -7.2922705e-22)
(97.240042 6.344958 7.9590609e-22)
(96.43937 6.3218371 0)
(95.491121 6.3067486 0)
(94.358522 6.297581 -2.4862066e-25)
(92.999193 6.2910457 1.4422298e-19)
(91.36513 6.2830001 -6.1369303e-22)
(89.403226 6.2689578 1.6425211e-25)
(87.056474 6.2447515 1.8721467e-19)
(84.266173 6.2071324 -7.8713622e-22)
(80.975847 6.1541804 -8.521794e-22)
(77.138331 6.0851747 9.1788218e-22)
(72.729393 6.0000266 9.8369504e-22)
(67.774196 5.8993165 -1.0443681e-21)
(62.390543 5.7866836 5.4603471e-22)
(56.829812 5.6738233 -5.5722698e-22)
(51.446952 5.5834644 -7.0353766e-20)
(46.54155 5.5417283 0)
(42.235585 5.5679524 -4.9867611e-22)
(38.584137 5.6893712 9.7166262e-22)
(35.837074 5.9212273 -5.010341e-22)
(33.71294 6.3147399 7.2705025e-20)
(34.806307 7.0623819 1.3394667e-19)
(34.853006 3.1562696 0)
(31.185064 3.0690981 -5.4572261e-22)
(29.089101 3.8990331 1.2117448e-21)
(103.00505 7.385333 0)
(102.5637 7.2232702 -1.4205808e-19)
(102.12847 7.0784982 1.5580921e-19)
(101.69802 6.9510837 -1.7012416e-19)
(101.27157 6.8406451 1.8637485e-19)
(100.8476 6.7453423 0)
(100.42268 6.6629461 -2.2419483e-19)
(99.990799 6.5909245 1.2165901e-19)
(99.542718 6.5273132 1.3616144e-19)
(99.06603 6.4712392 1.4595442e-19)
(98.54522 6.4227864 2.401953e-25)
(97.96159 6.3826772 -6.8293693e-22)
(97.293027 6.3516835 -1.9157625e-19)
(96.513424 6.3299417 -3.4246589e-25)
(95.592009 6.3166382 8.8675466e-22)
(94.492758 6.309753 -1.2373472e-19)
(93.173962 6.3061033 -1.3477768e-19)
(91.588186 6.3016614 1.1464433e-21)
(89.682778 6.2920586 1.0997589e-24)
(87.401056 6.2732393 -1.747324e-19)
(84.684392 6.2420451 1.8736002e-19)
(81.475679 6.1965957 -4.0943899e-25)
(77.72519 6.1360961 8.5760899e-22)
(73.40156 6.0601415 0)
(68.514591 5.9684999 -2.5102596e-19)
(63.157909 5.8632155 1.0318977e-21)
(57.561088 5.7538723 1.3400271e-19)
(52.084135 5.6620774 -6.7535564e-20)
(47.065629 5.615069 1.0321737e-21)
(42.663486 5.6338362 -1.6792915e-25)
(38.940626 5.7444936 -6.292586e-20)
(36.143516 5.9649685 0)
(33.997535 6.3251004 -5.6625546e-22)
(35.141347 7.1288004 -8.9993797e-20)
(35.080333 3.2044939 0)
(31.492157 3.1256778 6.5169468e-20)
(29.490495 3.9223885 5.6698187e-22)
(103.00345 7.3889751 -2.4563958e-19)
(102.56237 7.2269079 1.3472806e-19)
(102.12753 7.0821366 0)
(101.69761 6.954724 0)
(101.27195 6.8442921 -1.7653402e-19)
(100.84915 6.749017 -2.5815137e-25)
(100.42601 6.6666927 2.1051052e-19)
(99.99684 6.5948172 1.7981071e-21)
(99.552856 6.5314601 -1.2674436e-19)
(99.082221 6.4757827 -2.7476316e-19)
(98.570104 6.4279056 0)
(97.998593 6.3885945 -1.6374249e-19)
(97.346425 6.3586731 1.7934664e-19)
(96.588375 6.3383437 3.2024522e-25)
(95.694549 6.3268745 -1.6589636e-21)
(94.629755 6.3223448 9.0339616e-22)
(93.353034 6.3216849 -9.8397517e-22)
(91.817593 6.3209897 1.0700559e-21)
(89.971302 6.3160185 1.5010479e-19)
(87.757855 6.3028379 -2.527685e-21)
(85.118777 6.2783942 1.3697646e-21)
(81.996565 6.2408651 9.5718324e-20)
(78.339533 6.1894202 -1.0331652e-19)
(74.110366 6.123409 8.6105585e-22)
(69.304778 6.0418809 2.3447289e-19)
(63.991294 5.945292 9.7250332e-22)
(58.371458 5.8408107 -1.3040496e-19)
(52.801614 5.7483225 6.5527955e-20)
(47.659404 5.6958764 0)
(43.147702 5.706411 0)
(39.342855 5.8051812 0)
(36.488639 6.0129766 -5.0539444e-22)
(34.320231 6.3367756 5.6786471e-22)
(35.509533 7.1712713 -9.1310415e-20)
(35.318856 3.2608748 8.789282e-22)
(31.814403 3.1849559 -7.5182926e-25)
(29.901559 3.9449605 -6.7834061e-20)
(103.00175 7.3928411 4.5965365e-19)
(102.56094 7.2307707 0)
(102.12649 7.0860016 -1.0768312e-21)
(101.69712 6.9585922 1.1789529e-21)
(101.27224 6.848167 0)
(100.8506 6.7529188 -7.0604426e-22)
(100.42922 6.6706657 1.9912457e-19)
(100.00274 6.598936 -8.4327427e-22)
(99.562827 6.5358341 0)
(99.098234 6.4805561 9.9449722e-26)
(98.594838 6.4332616 1.3942173e-19)
(98.035545 6.3947599 1.1974294e-21)
(97.399995 6.3659289 0)
(96.663908 6.3470414 0)
(95.798346 6.3374522 0)
(94.769035 6.3353449 -8.4442426e-22)
(93.535857 6.3377716 1.1850494e-19)
(92.052749 6.3409606 0)
(90.268166 6.3408091 -1.0858399e-21)
(88.126239 6.333518 1.1783239e-21)
(85.568716 6.3161488 -1.6359738e-19)
(82.537887 6.2869576 -8.8552777e-20)
(78.980671 6.2451152 5.6368913e-25)
(74.855075 6.1897991 -1.02906e-19)
(70.144563 6.119457 -1.0931017e-19)
(64.892886 6.033032 -9.1381504e-22)
(59.26801 5.9350375 0)
(53.611291 5.8429383 -9.8074776e-22)
(48.335723 5.7850644 9.7954028e-22)
(43.699066 5.7865451 -6.1830635e-20)
(39.799381 5.8721462 4.8271774e-22)
(36.879319 6.065741 -5.0362386e-22)
(34.686502 6.3500409 7.1637264e-20)
(35.912541 7.1817105 9.0052997e-20)
(35.570005 3.3226771 -8.2845552e-22)
(32.151981 3.2469882 -5.6933913e-20)
(30.322551 3.9667811 -9.8815564e-22)
(102.99994 7.3969458 -2.149675e-19)
(102.55941 7.2348738 0)
(102.12534 7.0901087 -1.0122549e-21)
(101.69652 6.9627035 -1.4070881e-19)
(101.27242 6.8522854 -1.2123604e-21)
(100.85193 6.7570639 1.7097307e-19)
(100.43228 6.6748804 -1.8539317e-19)
(100.00845 6.6032957 -7.911529e-22)
(99.572574 6.540449 8.6343681e-22)
(99.113983 6.4855724 1.2063011e-19)
(98.619293 6.4388649 -1.3261616e-19)
(98.072263 6.4011811 1.4572313e-19)
(97.453482 6.373456 -1.5760267e-19)
(96.739685 6.3560347 0)
(95.902968 6.3483639 -1.8549571e-19)
(94.910071 6.3487395 2.018642e-19)
(93.721817 6.3543432 -1.0977421e-19)
(92.292964 6.3615472 0)
(90.572639 6.3663982 0)
(88.505465 6.3652421 1.0990657e-21)
(86.03347 6.3552707 -1.5366259e-19)
(83.098882 6.3348351 -1.6505005e-19)
(79.6477 6.3031385 8.9146878e-20)
(75.634523 6.2592569 9.4516736e-20)
(71.032852 6.2011729 1.6087441e-21)
(65.863434 6.1264657 0)
(60.256766 6.0368632 -9.0358329e-22)
(54.525984 5.9466614 1.2062888e-19)
(49.110154 5.883656 9.4618495e-22)
(44.331324 5.8752591 -9.4474176e-22)
(40.321145 5.9462341 -9.5220716e-22)
(37.32428 6.1238464 -6.1787815e-20)
(35.10276 6.3650622 -7.1826797e-20)
(36.348553 7.1636368 -6.808043e-22)
(35.835454 3.387686 7.7838632e-22)
(32.505119 3.3118358 -1.0917125e-19)
(30.753744 3.9878924 5.1318793e-25)
(102.998 7.401305 2.0297925e-19)
(102.55775 7.2392331 0)
(102.12408 7.0944739 -9.5123576e-22)
(101.69581 6.9670747 1.3424897e-19)
(101.27249 6.8566641 1.4567089e-19)
(100.85313 6.7614683 -1.5920417e-19)
(100.43518 6.6793536 1.7389708e-19)
(100.01396 6.6079125 -1.9058971e-19)
(99.582038 6.5453203 8.0909461e-22)
(99.129375 6.4908456 0)
(98.643329 6.4447273 -1.2221692e-19)
(98.108541 6.407867 -1.3424279e-19)
(97.5066 6.3812576 -1.1420217e-21)
(96.815318 6.365321 1.5922653e-19)
(96.007911 6.3596005 1.732833e-19)
(95.052233 6.3625105 -4.9388046e-25)
(93.910153 6.3713725 0)
(92.537366 6.3827122 8.6967636e-22)
(90.88376 6.3927384 -9.4370121e-22)
(88.894519 6.3979559 -1.3004183e-19)
(86.511999 6.3956993 -2.2186561e-21)
(83.678455 6.3844316 2.4031197e-21)
(80.339331 6.363416 -1.2973253e-21)
(76.446967 6.331689 -8.9506984e-20)
(71.967433 6.2869081 -1.5024572e-21)
(66.901678 6.2255042 1.6047383e-21)
(61.341518 6.1464459 0)
(55.558389 6.0601532 -2.27242e-19)
(50.001071 5.9927523 -9.0906648e-22)
(45.061908 5.9737377 5.9710075e-20)
(40.922279 6.0284486 0)
(37.834712 6.1879857 6.2756805e-20)
(35.57675 6.3820601 1.0896751e-21)
(36.811038 7.1300092 -8.4913317e-20)
(36.117035 3.4549329 0)
(32.874094 3.3795787 1.0131242e-19)
(31.195389 4.0083514 5.5954334e-20)
(102.99594 7.4059353 -1.9010297e-19)
(102.55597 7.2438654 0)
(102.1227 7.0991146 -2.2961401e-19)
(101.69498 6.9717232 -3.2794321e-25)
(101.27243 6.8613208 -2.7130313e-19)
(100.85417 6.7661506 -1.1666169e-21)
(100.43789 6.6841031 -7.0375081e-26)
(100.0192 6.6128037 1.7653577e-19)
(99.59116 6.5504641 -1.9178285e-19)
(99.144318 6.4963899 -2.1238161e-19)
(98.666803 6.4508605 1.3038665e-25)
(98.144169 6.4148252 1.2555388e-19)
(97.559045 6.3893372 1.3563133e-19)
(96.890391 6.3748976 -2.9636798e-19)
(96.112624 6.3711512 -1.2644607e-21)
(95.194817 6.3766376 -3.4907766e-19)
(94.100009 6.3888269 -1.9262273e-19)
(92.784947 6.4044108 -1.6217747e-21)
(91.200396 6.4197728 1.758972e-21)
(89.292181 6.4315913 1.2304804e-19)
(87.003032 6.4373592 2.6247272e-19)
(84.275275 6.4356649 2.2373842e-21)
(81.054023 6.4258543 1.5343548e-19)
(77.290267 6.4069759 8.3370685e-20)
(72.945154 6.3764922 0)
(68.004189 6.3299451 -9.748792e-20)
(62.522725 6.2637515 -4.1279632e-25)
(56.719456 6.183922 2.1733499e-19)
(51.029336 6.113489 -1.1207821e-19)
(45.912929 6.0833503 0)
(41.621324 6.1199972 1.1654873e-19)
(38.425252 6.2589922 0)
(36.118101 6.4015655 6.8043853e-20)
(37.291074 7.095441 -1.6676955e-23)
(36.416767 3.5249959 -8.7499951e-20)
(33.259312 3.4503428 0)
(31.647792 4.0282361 0)
(102.99375 7.4108548 -1.4012295e-21)
(102.55406 7.2487891 -1.9634912e-19)
(102.12119 7.1040492 2.1479071e-19)
(101.69402 6.9766679 0)
(101.27222 6.8662747 1.2827615e-19)
(100.85505 6.7711296 1.400621e-19)
(100.44038 6.6891478 -6.9282176e-26)
(100.02416 6.6179879 0)
(99.599881 6.5558985 1.4096836e-25)
(99.158717 6.5022223 1.9800164e-19)
(98.689568 6.4572797 1.0698305e-19)
(98.178924 6.4220677 -1.1647007e-19)
(97.610498 6.3977011 -9.9818305e-22)
(96.964453 6.3847631 1.4002779e-19)
(96.216503 6.3830043 1.5105166e-19)
(95.337042 6.3910975 3.2697559e-19)
(94.290409 6.4066697 1.3927989e-21)
(93.034539 6.4265902 -1.9192764e-19)
(91.521205 6.4474328 -1.6387101e-21)
(89.696975 6.4660645 0)
(87.505009 6.4801517 -2.4720782e-19)
(84.887711 6.4884271 1.0413116e-21)
(81.789943 6.4903358 1.1233309e-21)
(78.161944 6.4849726 -1.2121888e-21)
(73.962082 6.4697117 -1.6699407e-19)
(69.165319 6.439475 8.9556601e-20)
(63.796301 6.3885066 -9.5574518e-20)
(58.015603 6.3181947 -1.0115019e-19)
(52.216494 6.2469207 1.0572555e-19)
(46.911707 6.2056245 0)