/*--------------------------------*- C++ -*----------------------------------*\
| =========                 |                                                 |
| \\      /  F ield         | OpenFOAM: The Open Source CFD Toolbox           |
|  \\    /   O peration     | Version:  2506                                  |
|   \\  /    A nd           | Website:  www.openfoam.com                      |
|    \\/     M anipulation  |                                                 |
\*---------------------------------------------------------------------------*/
FoamFile
{
    version     2.0;
    format      ascii;
    arch        "LSB;label=32;scalar=64";
    class       volScalarField;
    location    "1.1";
    object      rho;
}
// * * * * * * * * * * * * * * * * * * * * * * * * * * * * * * * * * * * * * //

dimensions      [1 -3 0 0 0 0 0];

internalField   nonuniform List<scalar> 
1376
(
0.66553005
0.66554617
0.66558731
0.66562292
0.66552093
0.66550241
0.66552222
0.6655654
0.66560234
0.66562671
0.66564132
0.66565045
0.66565713
0.66566256
0.66566721
0.66548495
0.6654688
0.66549157
0.66553653
0.6655746
0.6655999
0.66561558
0.66562606
0.6656343
0.66564168
0.66564855
0.66565483
0.6656604
0.66566525
0.66566933
0.66567284
0.66544447
0.66542971
0.6654548
0.6655013
0.66554049
0.66556682
0.66558354
0.66559504
0.66560439
0.66561315
0.66562172
0.66563001
0.66563788
0.66564508
0.66565162
0.66565764
0.66566332
0.66566854
0.66567339
0.66567811
0.66540274
0.66538788
0.66541403
0.66546165
0.66550168
0.66552881
0.66554635
0.66555876
0.66556903
0.66557861
0.66558797
0.66559728
0.66560654
0.66561557
0.66562441
0.66563304
0.66564146
0.6656497
0.66565763
0.6656652
0.66567246
0.66567917
0.66568523
0.6656905
0.66569466
0.66536328
0.66534766
0.66537321
0.66542035
0.66545998
0.66548706
0.66550507
0.66551825
0.66552942
0.6655398
0.66554971
0.66555941
0.66556916
0.66557916
0.66558941
0.66559987
0.66561054
0.66562143
0.66563234
0.66564292
0.66565301
0.66566249
0.66567123
0.66567887
0.66568518
0.66569028
0.66569439
0.66569775
0.66570051
0.66532652
0.66530999
0.66533429
0.66538055
0.665419
0.66544492
0.66546201
0.66547502
0.66548648
0.66549739
0.6655079
0.66551812
0.66552827
0.66553876
0.66554974
0.66556121
0.66557326
0.66558592
0.66559912
0.66561253
0.66562576
0.66563839
0.66565031
0.66566115
0.6656707
0.66567883
0.66568523
0.66569011
0.66569403
0.66569805
0.665702
0.66570185
0.66569733
0.66529535
0.66527666
0.66529893
0.66534418
0.66538122
0.66540586
0.66542212
0.6654344
0.66544532
0.66545573
0.6654658
0.66547565
0.66548569
0.66549629
0.66550753
0.6655194
0.66553188
0.66554514
0.66555947
0.66557488
0.66559074
0.66560641
0.66562172
0.66563648
0.66565032
0.66566269
0.66567273
0.66568047
0.66568608
0.66568912
0.66569102
0.66569366
0.66569462
0.66569186
0.66568715
0.66567898
0.66527213
0.66525324
0.66527298
0.66531544
0.66535011
0.66537278
0.66538761
0.66539857
0.66540824
0.66541779
0.66542726
0.66543677
0.6654466
0.66545678
0.66546721
0.665478
0.66548961
0.66550236
0.66551667
0.66553257
0.66554953
0.6655669
0.66558449
0.66560199
0.66561872
0.66563431
0.66564886
0.66566212
0.66567315
0.66568094
0.66568528
0.66568803
0.66568982
0.66568844
0.66568487
0.6656805
0.66567227
0.66566124
0.6656479
0.66525131
0.66523195
0.66525157
0.6652937
0.66532727
0.66534872
0.66536203
0.66537121
0.66537885
0.66538633
0.66539411
0.66540239
0.66541113
0.66542042
0.66543023
0.66544062
0.66545156
0.66546339
0.66547644
0.6654912
0.66550757
0.66552554
0.66554481
0.66556467
0.66558421
0.6656023
0.66561824
0.66563278
0.66564691
0.66566086
0.66567395
0.66568225
0.66568507
0.66568667
0.66568578
0.66568134
0.66567423
0.66566435
0.66565371
0.66564247
0.66562967
0.66561805
0.6652343
0.66521371
0.66523257
0.66527456
0.66530857
0.66533025
0.66534318
0.66535183
0.66535888
0.66536545
0.66537216
0.66537906
0.66538621
0.6653938
0.66540209
0.66541128
0.66542113
0.66543175
0.66544298
0.66545488
0.66546842
0.66548414
0.66550226
0.6655228
0.66554529
0.66556848
0.6655902
0.66560867
0.66562377
0.66563557
0.66564506
0.66565649
0.6656682
0.66567605
0.6656813
0.66568263
0.66567929
0.66567305
0.6656643
0.66565427
0.66564298
0.66563255
0.66562268
0.66561836
0.6656238
0.66522343
0.66520082
0.6652182
0.66525956
0.66529317
0.66531488
0.6653283
0.66533759
0.66534496
0.66535155
0.66535787
0.66536414
0.6653707
0.66537764
0.66538508
0.66539301
0.66540106
0.66540907
0.66541716
0.66542549
0.66543503
0.66544684
0.66546121
0.6654785
0.66549938
0.66552315
0.66554783
0.66557124
0.66559202
0.66561068
0.66562697
0.66563844
0.66564721
0.66565493
0.66566167
0.66566917
0.66567422
0.66567507
0.66567277
0.66566607
0.66565754
0.66564799
0.66563767
0.66563193
0.66563477
0.66565203
0.66565715
0.66521865
0.66519339
0.66520844
0.66524828
0.66528043
0.665301
0.66531371
0.66532267
0.66533023
0.66533723
0.66534383
0.6653501
0.66535615
0.66536256
0.66536962
0.6653772
0.6653852
0.66539297
0.66540027
0.66540715
0.66541417
0.6654222
0.66543173
0.66544343
0.66545722
0.66547242
0.66549137
0.66551647
0.66554402
0.66556952
0.6655927
0.66561209
0.66562745
0.66564051
0.6656494
0.66565515
0.66566146
0.66566689
0.66567002
0.66567269
0.66566974
0.66566202
0.66565503
0.66565114
0.66565489
0.66567351
0.66566308
0.66571609
0.66566571
0.66521847
0.66519084
0.66520327
0.66524095
0.66527072
0.66528917
0.66530034
0.66530832
0.66531532
0.66532208
0.66532844
0.66533443
0.66534033
0.66534642
0.66535316
0.66536056
0.66536864
0.6653769
0.6653847
0.66539196
0.6653984
0.66540441
0.66541074
0.66541818
0.66542758
0.66543953
0.66545337
0.66546886
0.66548812
0.66551135
0.66553652
0.66556298
0.66558941
0.66561216
0.6656329
0.66564597
0.66565424
0.66566201
0.66566838
0.66567226
0.66567612
0.6656762
0.66567237
0.66566703
0.6656669
0.66568398
0.66566901
0.66572484
0.66564911
0.66522033
0.66519156
0.66520221
0.66523818
0.66526583
0.66528226
0.66529179
0.66529853
0.66530465
0.6653107
0.66531654
0.66532207
0.66532728
0.66533241
0.66533787
0.66534389
0.66535046
0.66535739
0.66536462
0.66537206
0.66537931
0.66538575
0.66539142
0.66539682
0.66540278
0.66541084
0.66542202
0.66543541
0.665451
0.66546977
0.66549103
0.6655146
0.66553933
0.66556507
0.66558944
0.6656161
0.66564053
0.66565577
0.66566722
0.66567584
0.66568253
0.66568585
0.66568505
0.66568263
0.66567925
0.6656924
0.66568085
0.66574902
0.665637
0.66522243
0.66519325
0.66520265
0.66523717
0.66526311
0.66527794
0.66528596
0.66529141
0.66529612
0.66530095
0.66530596
0.66531091
0.66531557
0.66531993
0.66532416
0.66532864
0.66533362
0.66533909
0.66534517
0.66535193
0.66535891
0.66536547
0.66537132
0.6653763
0.6653805
0.66538544
0.66539258
0.66540299
0.66541646
0.66543314
0.66545376
0.66547643
0.66550146
0.66552843
0.66555762
0.66558617
0.66561213
0.66563653
0.66565521
0.66567078
0.66568454
0.66569554
0.6657012
0.66570149
0.66569969
0.66571167
0.66568938
0.66575298
0.66562766
0.66522353
0.66519396
0.66520259
0.6652361
0.66526079
0.66527443
0.66528127
0.66528541
0.66528832
0.6652915
0.66529521
0.66529937
0.66530354
0.66530733
0.6653107
0.66531405
0.66531784
0.66532225
0.66532741
0.66533355
0.66534065
0.665348
0.66535481
0.66536061
0.66536548
0.66536954
0.66537341
0.66537809
0.66538433
0.66539396
0.66540909
0.66543167
0.66546096
0.6654925
0.66552364
0.66555402
0.66558443
0.66561413
0.66564169
0.6656608
0.66567663
0.66569584
0.6657085
0.66571609
0.66571914
0.66573262
0.66570272
0.66577778
0.66562568
0.66522655
0.66519649
0.66520486
0.6652381
0.66526231
0.66527539
0.66528173
0.66528492
0.66528648
0.66528816
0.6652902
0.66529281
0.66529561
0.66529814
0.66530028
0.66530246
0.66530505
0.6653082
0.66531204
0.66531687
0.66532276
0.66532932
0.66533599
0.66534304
0.6653507
0.66535815
0.66536492
0.66537148
0.66537817
0.6653846
0.66539059
0.66539894
0.66541387
0.66543869
0.66547302
0.66551186
0.66555073
0.66558644
0.66562074
0.6656517
0.66567344
0.66569082
0.66570985
0.66572652
0.66573752
0.66575884
0.66571918
0.665795
0.66563231
0.66523516
0.66520391
0.66521146
0.66524393
0.66526744
0.66528001
0.66528616
0.66528903
0.66529023
0.66529145
0.66529261
0.66529395
0.66529541
0.66529669
0.6652979
0.66529934
0.66530111
0.66530312
0.66530535
0.66530793
0.66531098
0.66531489
0.66532009
0.66532666
0.66533437
0.66534273
0.66535131
0.66536008
0.6653689
0.66537754
0.66538642
0.66539663
0.66540978
0.66542661
0.66544826
0.6654768
0.66551236
0.66555139
0.66558694
0.66562357
0.6656589
0.6656835
0.66570665
0.66572814
0.66574469
0.66577804
0.66573366
0.66581676
0.66564689
0.66524794
0.66521494
0.66522092
0.66525146
0.6652731
0.6652843
0.6652898
0.66529233
0.66529365
0.66529501
0.66529603
0.66529691
0.66529788
0.66529903
0.66530058
0.66530266
0.66530515
0.6653075
0.66530941
0.66531098
0.66531253
0.66531454
0.66531758
0.66532144
0.6653254
0.66532957
0.66533443
0.66534009
0.66534728
0.66535725
0.66537094
0.66538711
0.665404
0.66542092
0.66543779
0.66545872
0.66548645
0.66552046
0.66555668
0.6655926
0.66562922
0.66566441
0.66569399
0.66571687
0.66573906
0.66578019
0.66574199
0.66583191
0.66565729
0.66526276
0.6652289
0.66523397
0.66526274
0.66528215
0.66529139
0.66529572
0.66529741
0.66529846
0.66529963
0.66530018
0.66530042
0.66530066
0.66530131
0.66530281
0.66530512
0.665308
0.66531089
0.66531317
0.66531479
0.66531631
0.66531815
0.66532033
0.66532269
0.66532513
0.66532789
0.66533147
0.66533594
0.66534116
0.66534713
0.66535455
0.66536337
0.66537301
0.66538621
0.66540702
0.66543291
0.66546036
0.66549099
0.6655274
0.6655638
0.66559963
0.66563908
0.66567632
0.66570519
0.66572571
0.66577426
0.66574369
0.66582804
0.66566303
0.66527671
0.66524403
0.66524989
0.66527821
0.66529632
0.66530405
0.66530707
0.66530764
0.6653079
0.66530834
0.66530822
0.6653077
0.66530705
0.66530669
0.66530722
0.66530874
0.66531081
0.66531294
0.6653147
0.66531598
0.66531725
0.66531873
0.66531985
0.66532035
0.66532095
0.66532254
0.66532532
0.66532946
0.66533508
0.66534163
0.66534854
0.66535665
0.6653677
0.66538174
0.66539611
0.66540941
0.66542524
0.6654459
0.66547198
0.66551153
0.66555846
0.66560543
0.66564988
0.66569041
0.66571499
0.66576491
0.66574544
0.66582723
0.66566033
0.66528223
0.66525255
0.66526097
0.66529025
0.66530842
0.66531578
0.66531793
0.66531756
0.66531696
0.66531674
0.66531642
0.665316
0.66531539
0.66531508
0.66531552
0.66531671
0.66531823
0.66531945
0.66532021
0.66532067
0.66532087
0.66532046
0.66531895
0.66531635
0.6653137
0.66531237
0.66531308
0.66531587
0.66532057
0.6653265
0.66533324
0.66534187
0.66535365
0.66536734
0.66537975
0.66539126
0.66540672
0.66542585
0.66545011
0.66547851
0.66551124
0.66555481
0.66560534
0.66565903
0.66570147
0.66574756
0.66572581
0.66582196
0.66566096
0.66527374
0.66524753
0.6652597
0.6652911
0.66531083
0.66531944
0.66532224
0.66532206
0.66532113
0.6653206
0.66532013
0.66531983
0.66531964
0.66531947
0.66531972
0.66532065
0.66532174
0.66532248
0.66532293
0.6653235
0.66532414
0.66532415
0.66532276
0.66532005
0.66531698
0.66531439
0.66531272
0.66531185
0.66531143
0.66531169
0.66531349
0.66531766
0.66532456
0.66533419
0.66534648
0.66536193
0.66538218
0.66540446
0.66542598
0.66544908
0.66547974
0.66551881
0.66556608
0.66562075
0.66567345
0.66574101
0.66570858
0.66580923
0.66565645
0.66525415
0.66523146
0.665248
0.66528225
0.66530465
0.66531578
0.6653207
0.66532234
0.6653224
0.66532221
0.66532176
0.66532153
0.66532122
0.6653209
0.66532065
0.6653206
0.6653208
0.66532091
0.66532104
0.66532148
0.66532207
0.66532231
0.66532178
0.66532036
0.66531879
0.66531772
0.66531687
0.66531601
0.66531514
0.66531463
0.66531444
0.66531429
0.66531494
0.66531792
0.66532497
0.6653357
0.66534812
0.66536218
0.66538195
0.66540869
0.66544307
0.66548672
0.66554329
0.66559758
0.66564082
0.66571329
0.66570087
0.66580091
0.66563534
0.66522917
0.66520975
0.6652305
0.66526776
0.66529302
0.66530687
0.6653144
0.66531865
0.66532086
0.6653222
0.66532287
0.66532352
0.66532379
0.66532391
0.6653239
0.66532366
0.66532323
0.66532257
0.66532163
0.66532057
0.6653193
0.66531742
0.66531538
0.66531367
0.66531222
0.66531139
0.66531134
0.66531151
0.66531162
0.66531187
0.66531266
0.66531332
0.66531337
0.66531416
0.66531807
0.66532575
0.66533534
0.66534745
0.66536317
0.66538139
0.66540591
0.66544246
0.66549402
0.66556155
0.66562354
0.66569428
0.66566992
0.66578109
0.66559248
0.66520145
0.66518451
0.66520829
0.66524722
0.66527399
0.66528947
0.66529868
0.66530512
0.66530953
0.66531279
0.66531538
0.66531763
0.66531979
0.66532189
0.66532373
0.66532515
0.66532588
0.66532568
0.66532456
0.66532264
0.66531981
0.66531616
0.66531172
0.66530748
0.66530424
0.66530172
0.6652999
0.66529879
0.66529807
0.66529733
0.66529736
0.66529825
0.66529844
0.66529841
0.66530082
0.66530662
0.66531483
0.66532657
0.66534263
0.66536093
0.66538451
0.66541445
0.66545197
0.66550631
0.66557012
0.6656686
0.66564265
0.66577741
0.66555987
0.66517485
0.66515852
0.66518346
0.66522199
0.66524813
0.66526334
0.66527283
0.66527969
0.66528521
0.66528989
0.66529375
0.66529741
0.66530089
0.6653046
0.6653083
0.66531138
0.66531364
0.66531487
0.66531518
0.66531472
0.66531332
0.66531103
0.66530808
0.6653042
0.66529992
0.66529606
0.66529281
0.66529023
0.66528786
0.66528535
0.66528284
0.66528134
0.66528026
0.66527873
0.6652782
0.66527983
0.66528412
0.6652926
0.66530638
0.66532486
0.66534874
0.66538072
0.66542673
0.66547993
0.66552801
0.66561875
0.66560342
0.66577899
0.66550933
0.66515165
0.66513497
0.66515968
0.66519678
0.66522128
0.66523521
0.66524379
0.66525005
0.66525548
0.66526049
0.66526483
0.66526893
0.66527312
0.66527749
0.66528181
0.66528561
0.66528849
0.66529059
0.66529234
0.6652937
0.66529467
0.66529507
0.66529497
0.66529408
0.66529174
0.66528868
0.66528608
0.6652836
0.66528076
0.66527736
0.6652729
0.6652684
0.6652651
0.66526258
0.66526085
0.66526086
0.66526359
0.66526975
0.66527944
0.66529264
0.66530965
0.6653357
0.66538029
0.66544024
0.66548807
0.66558244
0.66553671
0.66576578
0.66543611
0.66512989
0.66511196
0.665137
0.66517334
0.66519679
0.66520956
0.66521723
0.66522293
0.66522779
0.66523248
0.665237
0.66524171
0.66524672
0.66525168
0.66525672
0.66526109
0.66526422
0.66526627
0.66526766
0.66526917
0.66527045
0.66527158
0.6652726
0.66527325
0.66527292
0.66527147
0.66526982
0.66526806
0.66526542
0.66526163
0.66525691
0.66525122
0.66524559
0.66524076
0.66523741
0.66523612
0.66523734
0.66524118
0.66524741
0.66525612
0.66526856
0.66528941
0.66532648
0.66538108
0.66542519
0.66555946
0.66546236
0.6657379
0.66534631
0.66510351
0.66508633
0.66511157
0.66514721
0.66516989
0.66518204
0.66518943
0.66519522
0.66520002
0.66520497
0.66521084
0.66521616
0.66522175
0.66522786
0.66523353
0.66523873
0.66524232
0.66524403
0.66524438
0.6652441
0.66524386
0.66524357
0.66524378
0.66524449
0.66524481
0.66524418
0.66524309
0.66524195
0.66523992
0.66523668
0.66523251
0.66522706
0.66522035
0.66521302
0.66520613
0.66520076
0.66519717
0.66519615
0.66520035
0.66521251
0.66523323
0.66526167
0.66530168
0.66535978
0.66539844
0.66556136
0.66541561
0.66584228
0.6652424
0.66506853
0.66505288
0.66507992
0.66511625
0.665139
0.66515088
0.66515736
0.66516201
0.66516609
0.6651705
0.66517585
0.66518146
0.665187
0.66519253
0.66519745
0.66520137
0.66520385
0.66520478
0.66520514
0.66520433
0.66520284
0.66520174
0.66520123
0.66520111
0.66520166
0.66520187
0.66520091
0.66519954
0.66519795
0.6651954
0.66519139
0.6651858
0.66517847
0.66516971
0.66516015
0.66515195
0.66514766
0.66514985
0.66516118
0.66518025
0.66520312
0.66522958
0.66526313
0.66531186
0.66531649
0.66546857
0.66527496
0.66555023
0.66515205
0.66503288
0.6650183
0.66504642
0.66508379
0.66510604
0.66511767
0.6651237
0.6651277
0.66513132
0.66513522
0.66513961
0.66514422
0.66514849
0.6651521
0.66515529
0.66515821
0.665161
0.66516354
0.66516499
0.66516572
0.66516631
0.66516689
0.66516746
0.66516882
0.66517116
0.6651731
0.66517396
0.66517443
0.665175
0.66517511
0.66517423
0.6651722
0.66516914
0.6651652
0.66516095
0.66515757
0.66515696
0.66516171
0.66517037
0.66518225
0.6652
0.665224
0.66525489
0.66533451
0.6653228
0.66561199
0.66524547
0.66616568
0.66502842
)
;

boundaryField
{
    Side
    {
        type            empty;
    }
    Inlet
    {
        type            calculated;
        value           nonuniform List<scalar> 
21
(
0.66567939
0.66567737
0.6656756
0.66567594
0.66567692
0.66567603
0.66567264
0.66566667
0.66565988
0.66565429
0.6656485
0.66563883
0.66562418
0.66560998
0.66559909
0.66558785
0.66557397
0.66555505
0.66553519
0.6655092
0.66550499
)
;
    }
    Airfoil
    {
        type            calculated;
        value           nonuniform List<scalar> 0();
    }
    Outlet
    {
        type            calculated;
        value           nonuniform List<scalar> 
49
(
0.6650178
0.66500192
0.66503059
0.66506643
0.66508761
0.66509742
0.66510176
0.66510425
0.66510621
0.6651078
0.66510923
0.66511095
0.66511281
0.66511469
0.66511652
0.66511814
0.66511975
0.66512173
0.66512399
0.66512697
0.66513052
0.6651343
0.66513797
0.66514097
0.66514313
0.66514465
0.66514527
0.66514449
0.66514256
0.6651393
0.66513442
0.66512788
0.66511967
0.66511031
0.66510038
0.66509073
0.66508219
0.66507586
0.66507294
0.66507312
0.66507642
0.66508244
0.66509169
0.66511404
0.6651257
0.66518864
0.66511586
0.6652722
0.66497411
)
;
    }
    procBoundary13to6
    {
        type            processor;
        value           nonuniform List<scalar> 
34
(
0.66555168
0.66555168
0.66552092
0.66548491
0.66544486
0.66540328
0.66536364
0.66532682
0.6652952
0.66527144
0.66525057
0.66523374
0.66522319
0.66521915
0.66521943
0.66522061
0.66522187
0.66522303
0.6652264
0.66523578
0.66525003
0.66526577
0.66527885
0.66528275
0.66527333
0.66525314
0.66522715
0.66519897
0.66517313
0.66515168
0.66513121
0.6651045
0.66506825
0.66503221
)
;
    }
    procBoundary13to12
    {
        type            processor;
        value           nonuniform List<scalar> 
60
(
0.66555137
0.66556337
0.66560216
0.6656361
0.66564624
0.66564624
0.6656596
0.66566698
0.66567154
0.66567499
0.66567767
0.66567119
0.66567119
0.66567443
0.66567707
0.66567932
0.66568136
0.66567604
0.66567604
0.66567911
0.66568223
0.66568552
0.66568288
0.66568288
0.66568725
0.66569109
0.66569427
0.66569675
0.66569774
0.66569774
0.66569998
0.66570169
0.66570232
0.66570224
0.66570224
0.6657007
0.66569632
0.66569165
0.66569226
0.66569226
0.66568422
0.66567143
0.66566723
0.66566723
0.66565426
0.66563918
0.66563333
0.66563333
0.66561969
0.6656079
0.66560992
0.66560992
0.66560733
0.66561471
0.66564159
0.66564159
0.66565817
0.66571669
0.66571669
0.66568712
)
;
    }
}


// ************************************************************************* //
