/*--------------------------------*- C++ -*----------------------------------*\
| =========                 |                                                 |
| \\      /  F ield         | OpenFOAM: The Open Source CFD Toolbox           |
|  \\    /   O peration     | Version:  2506                                  |
|   \\  /    A nd           | Website:  www.openfoam.com                      |
|    \\/     M anipulation  |                                                 |
\*---------------------------------------------------------------------------*/
FoamFile
{
    version     2.0;
    format      ascii;
    arch        "LSB;label=32;scalar=64";
    class       volScalarField;
    location    "0.027";
    object      alphat;
}
// * * * * * * * * * * * * * * * * * * * * * * * * * * * * * * * * * * * * * //

dimensions      [1 -1 -1 0 0 0 0];

internalField   nonuniform List<scalar> 
13761
(
3.0323775e-06
3.05409e-06
3.0664739e-06
3.0647461e-06
3.0464262e-06
3.0146945e-06
2.9794598e-06
2.9443168e-06
2.9150496e-06
2.8920571e-06
2.8757698e-06
2.8638644e-06
2.854292e-06
2.8495436e-06
2.8550211e-06
2.8566966e-06
2.7874836e-06
2.5459427e-06
2.1346167e-06
2.0951807e-06
5.164367e-06
1.1929864e-05
1.9428144e-05
2.738951e-05
3.483656e-05
4.0288676e-05
4.3150861e-05
4.3259863e-05
4.0776825e-05
3.6123939e-05
2.9887106e-05
2.2706537e-05
1.5260488e-05
8.2860843e-06
2.9618045e-06
4.868148e-07
2.9198875e-08
8.0069951e-09
2.7870402e-06
2.8190134e-06
2.8600444e-06
2.9018837e-06
2.9410971e-06
2.9770612e-06
3.0094095e-06
3.036235e-06
3.0571437e-06
3.0683521e-06
3.065002e-06
3.0450237e-06
3.0127197e-06
2.9774085e-06
2.9420108e-06
2.9127981e-06
2.8897051e-06
2.8738689e-06
2.8646409e-06
2.8612564e-06
2.8616355e-06
2.8562979e-06
2.8278046e-06
2.7195087e-06
2.4499817e-06
2.2271213e-06
2.5030337e-06
3.7090534e-06
6.9084111e-06
1.2079339e-05
1.8323451e-05
2.4463915e-05
2.9534443e-05
3.2941011e-05
3.4362573e-05
3.3658154e-05
3.0904593e-05
2.6392478e-05
2.0552536e-05
1.3981906e-05
7.6107962e-06
2.7040662e-06
4.4136419e-07
2.6860976e-08
7.8180778e-09
2.79262e-06
2.8255391e-06
2.8664761e-06
2.9076457e-06
2.9460649e-06
2.9811622e-06
3.0126374e-06
3.039554e-06
3.0596536e-06
3.0693951e-06
3.064185e-06
3.0420947e-06
3.0091707e-06
2.9739345e-06
2.9387578e-06
2.9103847e-06
2.888068e-06
2.8722251e-06
2.8604397e-06
2.850597e-06
2.8452155e-06
2.851048e-06
2.8608251e-06
2.8216639e-06
2.6742321e-06
2.6634639e-06
3.8917954e-06
6.6071992e-06
9.9302506e-06
1.4923614e-05
2.0690031e-05
2.634974e-05
3.0976845e-05
3.3902891e-05
3.4781698e-05
3.3559734e-05
3.0400426e-05
2.5609881e-05
1.9670569e-05
1.3259621e-05
7.1469006e-06
2.507428e-06
4.0530424e-07
2.496322e-08
7.6442688e-09
2.7991606e-06
2.8327021e-06
2.8734083e-06
2.9139107e-06
2.9514612e-06
2.9857665e-06
3.0164706e-06
3.0422623e-06
3.0611383e-06
3.0689101e-06
3.0613797e-06
3.0371544e-06
3.0038888e-06
2.9684171e-06
2.9330461e-06
2.9048638e-06
2.8825543e-06
2.8670838e-06
2.8573448e-06
2.8521626e-06
2.8500425e-06
2.8454938e-06
2.8252756e-06
2.7531931e-06
2.5111572e-06
2.0443446e-06
1.5986137e-06
2.1811953e-06
4.8660652e-06
9.5986539e-06
1.5466709e-05
2.1511056e-05
2.6757063e-05
3.0397184e-05
3.2003874e-05
3.1409848e-05
2.8691023e-05
2.4247253e-05
1.8631551e-05
1.2532299e-05
6.7071044e-06
2.3240279e-06
3.7167297e-07
2.3116629e-08
7.3890526e-09
2.8040615e-06
2.8385802e-06
2.8791153e-06
2.918833e-06
2.9555623e-06
2.9890673e-06
3.0189495e-06
3.0438341e-06
3.0613425e-06
3.0670012e-06
3.057066e-06
3.0307509e-06
2.9972372e-06
2.9615944e-06
2.9265968e-06
2.8993896e-06
2.8780437e-06
2.8627684e-06
2.8508428e-06
2.8402632e-06
2.833699e-06
2.838263e-06
2.849135e-06
2.7786472e-06
2.5403842e-06
2.1256758e-06
1.7109214e-06
1.7043134e-06
2.3430679e-06
3.8762754e-06
6.6459103e-06
1.0638995e-05
1.5153351e-05
1.9286746e-05
2.226007e-05
2.3561724e-05
2.2922504e-05
2.0329069e-05
1.6158454e-05
1.1023787e-05
5.8956017e-06
2.0174632e-06
3.1878093e-07
2.0305107e-08
7.0263989e-09
2.7899494e-06
2.8090668e-06
2.8440457e-06
2.8840631e-06
2.9229038e-06
2.9586864e-06
2.9913619e-06
3.0203551e-06
3.0441363e-06
3.0599324e-06
3.0630449e-06
3.050243e-06
3.0221833e-06
2.9886057e-06
2.9526427e-06
2.9177317e-06
2.8909707e-06
2.8699467e-06
2.8553335e-06
2.8456142e-06
2.8394457e-06
2.8356697e-06
2.83073e-06
2.8162783e-06
2.76868e-06
2.587488e-06
2.2370941e-06
2.1612106e-06
2.8428999e-06
4.7003203e-06
7.6408375e-06
1.1399087e-05
1.5553673e-05
1.9410069e-05
2.2356675e-05
2.3965558e-05
2.3907346e-05
2.2193794e-05
1.907621e-05
1.4847674e-05
9.9861636e-06
5.262375e-06
1.7671405e-06
2.7530292e-07
1.7955362e-08
6.6829254e-09
2.7909925e-06
2.8124322e-06
2.8483347e-06
2.887995e-06
2.9259287e-06
2.9608744e-06
2.9927381e-06
3.0207811e-06
3.043297e-06
3.0570348e-06
3.0574624e-06
3.0417251e-06
3.0122123e-06
2.9784072e-06
2.9421026e-06
2.9077043e-06
2.8820108e-06
2.8620458e-06
2.847533e-06
2.8353269e-06
2.8236842e-06
2.8157173e-06
2.8184899e-06
2.8288443e-06
2.7583698e-06
2.54252e-06
2.0942735e-06
1.5351615e-06
1.2438557e-06
1.5296511e-06
2.5308293e-06
4.3758042e-06
7.0903218e-06
1.0484055e-05
1.4000813e-05
1.6866547e-05
1.8360769e-05
1.8104693e-05
1.6147287e-05
1.2824796e-05
8.6891422e-06
4.5437851e-06
1.4988048e-06
2.3020842e-07
1.5516625e-08
6.2874343e-09
2.7930081e-06
2.7923375e-06
2.8160914e-06
2.8521986e-06
2.8909993e-06
2.9279304e-06
2.9619383e-06
2.9929157e-06
3.0198981e-06
3.040984e-06
3.0523986e-06
3.0498768e-06
3.0310057e-06
3.000502e-06
2.9665119e-06
2.9298157e-06
2.8957852e-06
2.8707127e-06
2.851302e-06
2.8376878e-06
2.8279184e-06
2.8207373e-06
2.8153637e-06
2.8092734e-06
2.7965461e-06
2.7560396e-06
2.5890828e-06
2.2174116e-06
1.7509276e-06
1.476846e-06
1.6514012e-06
2.3632167e-06
3.7018513e-06
5.7249158e-06
8.2224675e-06
1.081342e-05
1.3092127e-05
1.4485522e-05
1.4604159e-05
1.3291554e-05
1.0695751e-05
7.2389881e-06
3.7408141e-06
1.208889e-06
1.8302598e-07
1.300334e-08
5.884753e-09
2.7898195e-06
2.7927195e-06
2.8181947e-06
2.8546221e-06
2.8928224e-06
2.9288009e-06
2.9619457e-06
2.9919755e-06
3.0177571e-06
3.0371263e-06
3.04587e-06
3.040221e-06
3.0184541e-06
2.9873285e-06
2.952829e-06
2.9157543e-06
2.8825824e-06
2.8587228e-06
2.8404921e-06
2.8268442e-06
2.8142027e-06
2.8015021e-06
2.7924828e-06
2.7938768e-06
2.8033664e-06
2.7470949e-06
2.5478119e-06
2.1282038e-06
1.6610857e-06
1.4352468e-06
1.7048169e-06
2.5163362e-06
3.8961574e-06
5.8495356e-06
8.2132014e-06
1.0529246e-05
1.2246562e-05
1.3094016e-05
1.2830717e-05
1.1421852e-05
9.0337399e-06
6.0557043e-06
3.0779395e-06
9.7321636e-07
1.4536626e-07
1.0963865e-08
5.5041381e-09
2.8090112e-06
2.7860671e-06
2.7927913e-06
2.820413e-06
2.8567495e-06
2.893825e-06
2.9286906e-06
2.9607961e-06
2.9896797e-06
3.0140575e-06
3.0314299e-06
3.0373175e-06
3.0282896e-06
3.0038014e-06
2.972333e-06
2.9371382e-06
2.899759e-06
2.8674298e-06
2.8443905e-06
2.8268961e-06
2.8141636e-06
2.8038462e-06
2.7953059e-06
2.788394e-06
2.78162e-06
2.7702089e-06
2.7355618e-06
2.5845454e-06
2.2264792e-06
1.7024754e-06
1.2666627e-06
1.1554505e-06
1.4054466e-06
2.0126872e-06
3.0085739e-06
4.3650965e-06
5.9224879e-06
7.4285148e-06
8.6433465e-06
9.1229701e-06
8.5710644e-06
6.9960249e-06
4.703105e-06
2.3578449e-06
7.2932896e-07
1.0771074e-07
8.9507299e-09
5.116873e-09
2.8460712e-06
2.8001189e-06
2.7823141e-06
2.7925562e-06
2.8212014e-06
2.8572453e-06
2.8935314e-06
2.9274164e-06
2.9585e-06
2.9861295e-06
3.0089383e-06
3.0240011e-06
3.0267987e-06
3.0142179e-06
2.9876713e-06
2.9557851e-06
2.9197673e-06
2.8821899e-06
2.851187e-06
2.8294791e-06
2.8132094e-06
2.8002816e-06
2.7869767e-06
2.7733527e-06
2.7637116e-06
2.7644674e-06
2.7736979e-06
2.7272551e-06
2.5381536e-06
2.1316594e-06
1.6295329e-06
1.2675136e-06
1.2636843e-06
1.6253569e-06
2.3367551e-06
3.4068225e-06
4.7889964e-06
6.2917976e-06
7.5858567e-06
8.2281412e-06
8.1141705e-06
7.236287e-06
5.6979444e-06
3.7589134e-06
1.8448338e-06
5.5806586e-07
8.1686347e-08
7.5016049e-09
4.7836251e-09
2.8933489e-06
2.8329847e-06
2.7911549e-06
2.7778265e-06
2.7915818e-06
2.821891e-06
2.8576059e-06
2.8926247e-06
2.9252276e-06
2.9549745e-06
2.9810688e-06
3.0020379e-06
3.0144848e-06
3.0140369e-06
2.997849e-06
2.9697152e-06
2.9372244e-06
2.9003263e-06
2.8628266e-06
2.8332977e-06
2.8126092e-06
2.7970796e-06
2.7846608e-06
2.7730351e-06
2.7627969e-06
2.7546408e-06
2.7481938e-06
2.7389301e-06
2.7088091e-06
2.5693752e-06
2.2168279e-06
1.6848412e-06
1.2051559e-06
9.8775828e-07
1.0480897e-06
1.3427242e-06
1.8623916e-06
2.5917338e-06
3.449098e-06
4.2913352e-06
4.9919083e-06
5.3468488e-06
5.0861175e-06
4.154736e-06
2.7431903e-06
1.3261966e-06
3.9321569e-07
5.7409198e-08
6.1540762e-09
4.4565461e-09
2.8768731e-06
2.819025e-06
2.7818251e-06
2.7737233e-06
2.7906106e-06
2.821308e-06
2.8561925e-06
2.8902085e-06
2.9216779e-06
2.9500806e-06
2.9745777e-06
2.9935352e-06
3.0031221e-06
2.9991307e-06
2.9794162e-06
2.9503896e-06
2.9169481e-06
2.8791495e-06
2.8420512e-06
2.8143981e-06
2.7951234e-06
2.7807052e-06
2.7678851e-06
2.7534634e-06
2.7390584e-06
2.7291772e-06
2.7302061e-06
2.7399643e-06
2.7002518e-06
2.5178084e-06
2.1238514e-06
1.6043759e-06
1.1789192e-06
1.0357121e-06
1.1657917e-06
1.5237302e-06
2.0942217e-06
2.856528e-06
3.721274e-06
4.5065742e-06
4.93137e-06
4.8286667e-06
4.2563665e-06
3.3032304e-06
2.122287e-06
1.0013174e-06
2.9079059e-07
4.2465397e-08
5.2696254e-09
4.1805445e-09
2.9242437e-06
2.8604036e-06
2.8051124e-06
2.772544e-06
2.7688694e-06
2.7885596e-06
2.8202952e-06
2.8546682e-06
2.8873019e-06
2.9171944e-06
2.943863e-06
2.9664949e-06
2.9831168e-06
2.9895758e-06
2.9817615e-06
2.958988e-06
2.9293283e-06
2.894547e-06
2.8560435e-06
2.8198625e-06
2.7941952e-06
2.7760244e-06
2.7620327e-06
2.7490427e-06
2.7354835e-06
2.7237382e-06
2.7151084e-06
2.7102674e-06
2.7039884e-06
2.6772356e-06
2.5408055e-06
2.1913312e-06
1.6539775e-06
1.1542179e-06
8.8546031e-07
8.463141e-07
9.7507764e-07
1.238634e-06
1.6142281e-06
2.0543481e-06
2.4844383e-06
2.8312624e-06
3.0186951e-06
2.8546465e-06
2.2975185e-06
1.4754213e-06
6.8634646e-07
1.9622393e-07
2.9043234e-08
4.4635842e-09
3.9141947e-09
2.9657054e-06
2.9053736e-06
2.8422069e-06
2.7901198e-06
2.7628036e-06
2.7643535e-06
2.7867398e-06
2.8183031e-06
2.8513163e-06
2.882584e-06
2.9110435e-06
2.9360815e-06
2.9568864e-06
2.9709908e-06
2.9740691e-06
2.9621264e-06
2.9369854e-06
2.9065095e-06
2.8703439e-06
2.8314778e-06
2.7967078e-06
2.7730968e-06
2.7562626e-06
2.7429042e-06
2.7293226e-06
2.7132052e-06
2.6985064e-06
2.6889255e-06
2.6912581e-06
2.7024289e-06
2.6672601e-06
2.4884609e-06
2.1017456e-06
1.5714768e-06
1.1227066e-06
9.0861275e-07
9.1682262e-07
1.0892954e-06
1.3940502e-06
1.8088813e-06
2.2789236e-06
2.6953245e-06
2.9050744e-06
2.7749974e-06
2.3921303e-06
1.8205501e-06
1.128922e-06
5.1143004e-07
1.435423e-07
2.1550004e-08
3.9494703e-09
3.6852705e-09
2.9956525e-06
2.9477459e-06
2.8860565e-06
2.8238252e-06
2.7755205e-06
2.7536894e-06
2.7594524e-06
2.7836479e-06
2.8154494e-06
2.8477029e-06
2.8774642e-06
2.9040706e-06
2.9271302e-06
2.9457827e-06
2.9569476e-06
2.9561868e-06
2.9400621e-06
2.9134155e-06
2.8816964e-06
2.8440873e-06
2.8053462e-06
2.7725648e-06
2.7508134e-06
2.7349646e-06
2.7214215e-06
2.7072679e-06
2.6910839e-06
2.6786324e-06
2.670659e-06
2.6688314e-06
2.6663973e-06
2.6417716e-06
2.50312e-06
2.1555893e-06
1.6221818e-06
1.1143212e-06
8.1464101e-07
7.1462554e-07
7.4790308e-07
8.7151931e-07
1.0604275e-06
1.285957e-06
1.505117e-06
1.6761735e-06
1.7449071e-06
1.6060001e-06
1.252924e-06
7.7630442e-07
3.4742957e-07
9.6506432e-08
1.5016511e-08
3.4837583e-09
3.4631582e-09
3.0057754e-06
2.9809733e-06
2.9283838e-06
2.8653605e-06
2.8043919e-06
2.7603087e-06
2.7442138e-06
2.7547171e-06
2.7809383e-06
2.8120932e-06
2.8425332e-06
2.8705266e-06
2.8954512e-06
2.9167864e-06
2.9332853e-06
2.9412715e-06
2.9362435e-06
2.9162283e-06
2.8886791e-06
2.8551073e-06
2.8163569e-06
2.7783963e-06
2.7480414e-06
2.7279042e-06
2.7129669e-06
2.6994764e-06
2.6844909e-06
2.6661507e-06
2.6518751e-06
2.6438679e-06
2.6486903e-06
2.6613956e-06
2.6276915e-06
2.4477851e-06
2.0634313e-06
1.5393358e-06
1.0815976e-06
8.2513404e-07
7.6046502e-07
8.2683873e-07
9.830779e-07
1.2026248e-06
1.4448157e-06
1.6434792e-06
1.7095072e-06
1.5875242e-06
1.3348574e-06
9.8830172e-07
5.9221819e-07
2.5852246e-07
7.0760961e-08
1.1379832e-08
3.1515687e-09
3.250647e-09
2.9928595e-06
2.9979331e-06
2.9644419e-06
2.9077733e-06
2.8438516e-06
2.7848053e-06
2.7459197e-06
2.7359724e-06
2.7501257e-06
2.776972e-06
2.8074427e-06
2.8368472e-06
2.8633496e-06
2.8864013e-06
2.9056627e-06
2.9194394e-06
2.9236303e-06
2.9138144e-06
2.8908712e-06
2.8621097e-06
2.8266252e-06
2.7871222e-06
2.7504797e-06
2.7227138e-06
2.7040044e-06
2.6894662e-06
2.6754889e-06
2.659116e-06
2.6406062e-06
2.6288256e-06
2.6233552e-06
2.6266743e-06
2.6292672e-06
2.6048509e-06
2.4582578e-06
2.0895901e-06
1.527017e-06
1.0186229e-06
7.2215516e-07
6.0440698e-07
5.9302539e-07
6.4683877e-07
7.4189984e-07
8.5357557e-07
9.6176595e-07
1.0432023e-06
1.0463181e-06
9.2603022e-07
6.9492258e-07
4.1426022e-07
1.7858676e-07
4.8575096e-08
8.2868878e-09
2.83598e-09
3.0292966e-09
2.9632883e-06
2.9915014e-06
2.9871374e-06
2.9455436e-06
2.8856668e-06
2.8212876e-06
2.7649766e-06
2.7318282e-06
2.7276382e-06
2.7452858e-06
2.7731375e-06
2.8026418e-06
2.8300875e-06
2.8545783e-06
2.8757889e-06
2.8931071e-06
2.9040266e-06
2.9041154e-06
2.889623e-06
2.8648932e-06
2.8344172e-06
2.7970838e-06
2.7574836e-06
2.7227816e-06
2.6975463e-06
2.6800314e-06
2.6657698e-06
2.6511972e-06
2.6336006e-06
2.614269e-06
2.6018077e-06
2.5970766e-06
2.6061219e-06
2.6206053e-06
2.5845698e-06
2.4023992e-06
2.019564e-06
1.4971407e-06
1.0372886e-06
7.6031413e-07
6.5426816e-07
6.5724477e-07
7.2840401e-07
8.4071884e-07
9.6261064e-07
1.0401389e-06
1.0276585e-06
9.2616073e-07
7.5827738e-07
5.4463399e-07
3.1503433e-07
1.3273771e-07
3.5741115e-08
6.441597e-09
2.5806742e-09
2.8158664e-09
2.9661939e-06
2.9880893e-06
2.9735504e-06
2.92498e-06
2.8626136e-06
2.7983971e-06
2.7457899e-06
2.7191333e-06
2.7207604e-06
2.7408409e-06
2.7681607e-06
2.7962476e-06
2.8224359e-06
2.845475e-06
2.864838e-06
2.8796989e-06
2.8870453e-06
2.8823511e-06
2.8636853e-06
2.8378061e-06
2.805112e-06
2.7663054e-06
2.7272449e-06
2.6947634e-06
2.6716847e-06
2.6551171e-06
2.6408463e-06
2.6252594e-06
2.606205e-06
2.5876329e-06
2.5777219e-06
2.5767491e-06
2.5867334e-06
2.5944432e-06
2.5678908e-06
2.410044e-06
2.035329e-06
1.4861212e-06
9.8912056e-07
6.9435487e-07
5.5595239e-07
5.0860758e-07
5.1338368e-07
5.4754113e-07
5.9713901e-07
6.4635182e-07
6.7640459e-07
6.4820463e-07
5.4812752e-07
3.9405536e-07
2.2552387e-07
9.3734604e-08
2.5203229e-08
4.9330742e-09
2.3468128e-09
2.6105091e-09
2.9317518e-06
2.9681761e-06
2.9818647e-06
2.9564114e-06
2.9025129e-06
2.8382796e-06
2.7750801e-06
2.7272449e-06
2.7073304e-06
2.7136925e-06
2.7355204e-06
2.7629182e-06
2.7900651e-06
2.8143678e-06
2.8350836e-06
2.8521692e-06
2.8643566e-06
2.8680195e-06
2.8585126e-06
2.8371409e-06
2.8097702e-06
2.7748513e-06
2.7350194e-06
2.6970636e-06
2.667009e-06
2.6458362e-06
2.6299961e-06
2.6154478e-06
2.5988462e-06
2.5786561e-06
2.5608478e-06
2.5512887e-06
2.5519944e-06
2.5672939e-06
2.5844418e-06
2.5421337e-06
2.3530218e-06
1.9675457e-06
1.4502878e-06
9.9395929e-07
7.1412047e-07
5.8510232e-07
5.4899213e-07
5.663913e-07
6.1673415e-07
6.6770572e-07
6.8443255e-07
6.433185e-07
5.6132733e-07
4.4574918e-07
3.0888425e-07
1.7208838e-07
7.0079042e-08
1.8776451e-08
3.9686024e-09
2.1450106e-09
2.4155858e-09
2.8949821e-06
2.9360285e-06
2.968301e-06
2.9723896e-06
2.9369171e-06
2.8793716e-06
2.8133035e-06
2.7521769e-06
2.710131e-06
2.6969525e-06
2.7077134e-06
2.7308005e-06
2.7571979e-06
2.782496e-06
2.8049532e-06
2.8238191e-06
2.8388009e-06
2.8479666e-06
2.8473992e-06
2.8330973e-06
2.8100127e-06
2.7805294e-06
2.7434572e-06
2.7032125e-06
2.6668633e-06
2.6391503e-06
2.6195025e-06
2.6041128e-06
2.5890415e-06
2.5712025e-06
2.5498227e-06
2.5337645e-06
2.5267205e-06
2.5315969e-06
2.5491065e-06
2.5615604e-06
2.5300806e-06
2.3557825e-06
1.9643647e-06
1.4246989e-06
9.5101177e-07
6.6197797e-07
5.160553e-07
4.5018116e-07
4.2826403e-07
4.2984544e-07
4.4239234e-07
4.5741471e-07
4.546373e-07
4.1416206e-07
3.3426841e-07
2.2995015e-07
1.2630004e-07
5.0725421e-08
1.3658864e-08
3.1933429e-09
1.9585554e-09
2.2292704e-09
2.858529e-06
2.8999403e-06
2.9396468e-06
2.9666663e-06
2.959216e-06
2.915241e-06
2.8546059e-06
2.787558e-06
2.7295805e-06
2.6940984e-06
2.6873706e-06
2.7013581e-06
2.7249372e-06
2.7507895e-06
2.7748993e-06
2.7951678e-06
2.8113238e-06
2.8235539e-06
2.8294892e-06
2.8246717e-06
2.806787e-06
2.7824521e-06
2.7505183e-06
2.7115884e-06
2.6715013e-06
2.6371148e-06
2.6116756e-06
2.5933626e-06
2.578177e-06
2.5622915e-06
2.5431077e-06
2.5210415e-06
2.5069968e-06
2.5012526e-06
2.5090975e-06
2.5320311e-06
2.5511649e-06
2.4978382e-06
2.2977777e-06
1.9048015e-06
1.3914561e-06
9.4920328e-07
6.7319068e-07
5.3194273e-07
4.7219642e-07
4.558467e-07
4.6266352e-07
4.7286759e-07
4.587659e-07
4.1627989e-07
3.5278943e-07
2.7168589e-07
1.8116622e-07
9.7118489e-08
3.830902e-08
1.0354753e-08
2.6483115e-09
1.7903979e-09
2.0530421e-09
2.8231579e-06
2.8638818e-06
2.9045489e-06
2.9423347e-06
2.9616895e-06
2.9422389e-06
2.892953e-06
2.8289192e-06
2.7620983e-06
2.7082427e-06
2.6797949e-06
2.6789116e-06
2.6957926e-06
2.7199278e-06
2.7444358e-06
2.7658741e-06
2.7833335e-06
2.7973231e-06
2.8074916e-06
2.8104159e-06
2.8011475e-06
2.7807543e-06
2.7545019e-06
2.719771e-06
2.6793837e-06
2.640098e-06
2.6079699e-06
2.5845924e-06
2.5672301e-06
2.5518658e-06
2.5348685e-06
2.5141219e-06
2.4917183e-06
2.4797158e-06
2.4765141e-06
2.4887622e-06
2.514336e-06
2.530293e-06
2.4864974e-06
2.2922947e-06
1.8844272e-06
1.3620627e-06
9.0954601e-07
6.2685188e-07
4.7890077e-07
4.031068e-07
3.6656282e-07
3.5092823e-07
3.4386624e-07
3.3681235e-07
3.1526417e-07
2.7212256e-07
2.1004955e-07
1.3793126e-07
7.2683629e-08
2.8292694e-08
7.7450061e-09
2.2073081e-09
1.6345723e-09
1.8862259e-09
2.7888523e-06
2.8286621e-06
2.8683663e-06
2.9085118e-06
2.9436187e-06
2.953285e-06
2.9228982e-06
2.8698776e-06
2.8018567e-06
2.7366771e-06
2.6879567e-06
2.6667336e-06
2.6711506e-06
2.689984e-06
2.713528e-06
2.7362536e-06
2.7555959e-06
2.7709048e-06
2.782835e-06
2.7906017e-06
2.790052e-06
2.7766145e-06
2.7550385e-06
2.7261013e-06
2.6888024e-06
2.6476842e-06
2.6098186e-06
2.580082e-06
2.5585443e-06
2.5418524e-06
2.525975e-06
2.5075139e-06
2.4850064e-06
2.4631368e-06
2.4531274e-06
2.452535e-06
2.4690395e-06
2.4996317e-06
2.5182343e-06
2.4485758e-06
2.2318953e-06
1.8287003e-06
1.3208065e-06
8.949574e-07
6.3081441e-07
4.8553856e-07
4.1245616e-07
3.7659658e-07
3.5884106e-07
3.4401641e-07
3.1726016e-07
2.7878289e-07
2.2888938e-07
1.7077344e-07
1.0919186e-07
5.6279548e-08
2.1578197e-08
5.9847833e-09
1.8820165e-09
1.4920964e-09
1.7295778e-09
2.7560794e-06
2.7945143e-06
2.8334511e-06
2.8727093e-06
2.9123185e-06
2.9426153e-06
2.9404894e-06
2.9020711e-06
2.8453988e-06
2.7743918e-06
2.7119953e-06
2.6693531e-06
2.6553967e-06
2.6642027e-06
2.6842991e-06
2.7071386e-06
2.7277373e-06
2.7441652e-06
2.7570992e-06
2.7676078e-06
2.7736784e-06
2.7696766e-06
2.753174e-06
2.7298324e-06
2.6977764e-06
2.6581155e-06
2.6169004e-06
2.5809348e-06
2.5535685e-06
2.533502e-06
2.5169926e-06
2.5001011e-06
2.4798201e-06
2.4555066e-06
2.4350054e-06
2.4263881e-06
2.4293732e-06
2.4506411e-06
2.4838374e-06
2.5009916e-06
2.4357883e-06
2.2163073e-06
1.7884254e-06
1.287027e-06
8.6158939e-07
5.8964512e-07
4.4326537e-07
3.6230052e-07
3.168951e-07
2.9155462e-07
2.740754e-07
2.5324278e-07
2.2358127e-07
1.8293339e-07
1.3467324e-07
8.466287e-08
4.2890725e-08
1.6263338e-08
4.6084758e-09
1.6128095e-09
1.360125e-09
1.5827014e-09
2.7617341e-06
2.7996274e-06
2.8378516e-06
2.8767233e-06
2.9149491e-06
2.9383728e-06
2.9248614e-06
2.8809399e-06
2.819548e-06
2.7465016e-06
2.6881621e-06
2.6526275e-06
2.6454259e-06
2.6575836e-06
2.6778891e-06
2.6987616e-06
2.7167297e-06
2.7313784e-06
2.7436601e-06
2.7534739e-06
2.7571934e-06
2.7488231e-06
2.7302057e-06
2.7045537e-06
2.6695e-06
2.6283068e-06
2.5879065e-06
2.5542328e-06
2.5290279e-06
2.5100018e-06
2.4932691e-06
2.4750278e-06
2.4527194e-06
2.4268831e-06
2.408595e-06
2.4018258e-06
2.4090087e-06
2.4354457e-06
2.4724286e-06
2.4870432e-06
2.3946824e-06
2.1585576e-06
1.7406175e-06
1.2427544e-06
8.347257e-07
5.8569074e-07
4.4156691e-07
3.6175515e-07
3.1492897e-07
2.8269521e-07
2.5425564e-07
2.2580898e-07
1.9218124e-07
1.5247087e-07
1.0938242e-07
6.7223257e-08
3.338577e-08
1.2512933e-08
3.6284704e-09
1.4001544e-09
1.2387538e-09
1.4457073e-09
2.7309998e-06
2.7670085e-06
2.8043035e-06
2.8420046e-06
2.8808538e-06
2.9168832e-06
2.9311134e-06
2.9067648e-06
2.8588397e-06
2.7917765e-06
2.7191818e-06
2.6658423e-06
2.6378739e-06
2.6362944e-06
2.6504153e-06
2.6700943e-06
2.6894047e-06
2.7058968e-06
2.7194332e-06
2.7309567e-06
2.7395987e-06
2.7404068e-06
2.72841e-06
2.7086085e-06
2.6800975e-06
2.6422377e-06
2.600185e-06
2.561081e-06
2.5296305e-06
2.5061485e-06
2.4876868e-06
2.4703081e-06
2.4504181e-06
2.4260481e-06
2.3994924e-06
2.3839779e-06
2.3792681e-06
2.3911029e-06
2.4229141e-06
2.4621954e-06
2.4748435e-06
2.3862484e-06
2.1400501e-06
1.7007179e-06
1.2107811e-06
8.0873634e-07
5.5002206e-07
4.0623213e-07
3.2284011e-07
2.725189e-07
2.4176329e-07
2.1668951e-07
1.900375e-07
1.5942247e-07
1.2453509e-07
8.761265e-08
5.2809416e-08
2.5766502e-08
9.5746845e-09
2.8627664e-09
1.2209633e-09
1.1266555e-09
1.3181566e-09
2.7028287e-06
2.7361311e-06
2.7719977e-06
2.8087149e-06
2.8461798e-06
2.8847775e-06
2.9166728e-06
2.9199982e-06
2.8875467e-06
2.835419e-06
2.7630257e-06
2.6929588e-06
2.6454765e-06
2.6246545e-06
2.6273045e-06
2.642538e-06
2.6615727e-06
2.6794194e-06
2.6944798e-06
2.7075058e-06
2.7190805e-06
2.7265388e-06
2.7235285e-06
2.708543e-06
2.6868975e-06
2.6552439e-06
2.6152689e-06
2.5733126e-06
2.5360274e-06
2.5067455e-06
2.4846417e-06
2.4664173e-06
2.4482121e-06
2.4267301e-06
2.4006453e-06
2.3747697e-06
2.3623347e-06
2.360573e-06
2.3781717e-06
2.4159456e-06
2.4577666e-06
2.4610276e-06
2.3501682e-06
2.0912655e-06
1.6582208e-06
1.1669887e-06
7.7705157e-07
5.3957248e-07
3.9856004e-07
3.1594604e-07
2.63187e-07
2.2292083e-07
1.9205587e-07
1.6434071e-07
1.347872e-07
1.0308765e-07
7.1003294e-08
4.1937587e-08
2.0098018e-08
7.4128936e-09
2.2925916e-09
1.072399e-09
1.0235774e-09
1.1999507e-09
2.6775674e-06
2.7076036e-06
2.7411891e-06
2.7767676e-06
2.8129627e-06
2.8503305e-06
2.8882507e-06
2.9143314e-06
2.9063423e-06
2.8677445e-06
2.810096e-06
2.7333988e-06
2.6679437e-06
2.6267428e-06
2.6119445e-06
2.6177432e-06
2.6337193e-06
2.6521992e-06
2.6692677e-06
2.6840057e-06
2.6970056e-06
2.7077354e-06
2.7121934e-06
2.7047805e-06
2.6886505e-06
2.6646164e-06
2.6302369e-06
2.5888944e-06
2.5475613e-06
2.5121216e-06
2.4846737e-06
2.4636322e-06
2.4455353e-06
2.4265901e-06
2.4038117e-06
2.3766422e-06
2.3533144e-06
2.3434745e-06
2.3459408e-06
2.3697925e-06
2.413398e-06
2.4573521e-06
2.457519e-06
2.3483902e-06
2.0749171e-06
1.6240804e-06
1.1397238e-06
7.5570703e-07
5.1075483e-07
3.695698e-07
2.8537877e-07
2.3325481e-07
1.9786391e-07
1.6895089e-07
1.4134508e-07
1.1331069e-07
8.4915397e-08
5.7203585e-08
3.3095589e-08
1.558652e-08
5.7215437e-09
1.8436471e-09
9.4478553e-10
9.2869917e-10
1.0906029e-09
2.6817652e-06
2.7122297e-06
2.7459852e-06
2.7811141e-06
2.8170241e-06
2.854466e-06
2.8906527e-06
2.908382e-06
2.8895169e-06
2.8467428e-06
2.7826228e-06
2.7036769e-06
2.6437951e-06
2.6089131e-06
2.5996917e-06
2.6084569e-06
2.6253946e-06
2.6438018e-06
2.660236e-06
2.6739733e-06
2.685893e-06
2.694948e-06
2.6958834e-06
2.685232e-06
2.6673391e-06
2.639987e-06
2.6027322e-06
2.5605886e-06
2.520474e-06
2.4871964e-06
2.4617533e-06
2.4419645e-06
2.4242504e-06
2.4049427e-06
2.3814327e-06
2.3542013e-06
2.3350314e-06
2.3278854e-06
2.3360814e-06
2.3673118e-06
2.4172521e-06
2.4625935e-06
2.4490582e-06
2.3191195e-06
2.0389077e-06
1.5903696e-06
1.1026039e-06
7.263773e-07
4.9444496e-07
3.5889381e-07
2.7521488e-07
2.179188e-07
1.7735697e-07
1.4710679e-07
1.2099966e-07
9.5443477e-08
7.0286227e-08
4.6377593e-08
2.6301393e-08
1.2182426e-08
4.4598811e-09
1.5020145e-09
8.361561e-10
8.4169487e-10
9.8984324e-10
2.6588823e-06
2.6858011e-06
2.7168003e-06
2.7505269e-06
2.7854333e-06
2.8214614e-06
2.8587372e-06
2.8912024e-06
2.8986648e-06
2.871382e-06
2.8239257e-06
2.7531401e-06
2.6742731e-06
2.6206972e-06
2.5922362e-06
2.5883144e-06
2.5999733e-06
2.6178516e-06
2.6357001e-06
2.6507848e-06
2.6631776e-06
2.6736472e-06
2.6797655e-06
2.6756356e-06
2.6619035e-06
2.6412702e-06
2.6105495e-06
2.5713619e-06
2.5294931e-06
2.4912593e-06
2.4604258e-06
2.4371559e-06
2.4188933e-06
2.4020151e-06
2.3829586e-06
2.3594177e-06
2.3334183e-06
2.3190089e-06
2.3153825e-06
2.3302257e-06
2.3692524e-06
2.4249095e-06
2.4709868e-06
2.453687e-06
2.3223247e-06
2.0226001e-06
1.5615003e-06
1.0813052e-06
7.126927e-07
4.7824544e-07
3.392158e-07
2.5458697e-07
2.0033232e-07
1.6229008e-07
1.3205069e-07
1.054756e-07
8.101811e-08
5.8219731e-08
3.7535777e-08
2.0849955e-08
9.5024982e-09
3.4799021e-09
1.2328298e-09
7.4185304e-10
7.6194342e-10
8.9715537e-10
2.6388051e-06
2.6622684e-06
2.6897292e-06
2.7212828e-06
2.7551199e-06
2.7900953e-06
2.8261027e-06
2.8621444e-06
2.8885211e-06
2.8851266e-06
2.8516067e-06
2.7983943e-06
2.7212111e-06
2.6452284e-06
2.5983206e-06
2.5770122e-06
2.5789743e-06
2.5936618e-06
2.6118547e-06
2.6282437e-06
2.6411534e-06
2.6509408e-06
2.6579638e-06
2.6591694e-06
2.6502043e-06
2.6343424e-06
2.6099803e-06
2.5756009e-06
2.5348436e-06
2.4939108e-06
2.4582248e-06
2.4304701e-06
2.4100394e-06
2.3939851e-06
2.3785874e-06
2.3603776e-06
2.3373996e-06
2.3140623e-06
2.3040629e-06
2.3048957e-06
2.3275297e-06
2.3754425e-06
2.4371993e-06
2.4820674e-06
2.4486351e-06
2.3001113e-06
1.9941226e-06
1.5337573e-06
1.0543934e-06
6.8916011e-07
4.5992349e-07
3.2488646e-07
2.4085572e-07
1.84408e-07
1.4496096e-07
1.156461e-07
9.1060145e-08
6.8838167e-08
4.8507137e-08
3.064359e-08
1.6688305e-08
7.4886578e-09
2.7468743e-09
1.0232163e-09
6.5986569e-10
6.8894121e-10
8.1204023e-10
2.621109e-06
2.6415828e-06
2.6653414e-06
2.6939501e-06
2.7262938e-06
2.7602782e-06
2.7950082e-06
2.8303343e-06
2.8639144e-06
2.8827072e-06
2.8692001e-06
2.8308284e-06
2.7705798e-06
2.6885699e-06
2.6179141e-06
2.5783563e-06
2.56546e-06
2.5728002e-06
2.5890174e-06
2.6058661e-06
2.619302e-06
2.6286378e-06
2.6346779e-06
2.6374354e-06
2.6331266e-06
2.6200235e-06
2.6006114e-06
2.5717437e-06
2.5346134e-06
2.4939466e-06
2.4554007e-06
2.4232215e-06
2.3990735e-06
2.3817493e-06
2.3680876e-06
2.354366e-06
2.337223e-06
2.315135e-06
2.2955936e-06
2.2887146e-06
2.2948341e-06
2.3251945e-06
2.3812623e-06
2.4475698e-06
2.4918501e-06
2.4572823e-06
2.3047032e-06
1.9775728e-06
1.5126976e-06
1.0428544e-06
6.8708664e-07
4.5956687e-07
3.2102927e-07
2.3459095e-07
1.7773628e-07
1.3753032e-07
1.0660824e-07
8.1332828e-08
5.9706382e-08
4.0905367e-08
2.5207285e-08
1.342992e-08
5.9310701e-09
2.1829901e-09
8.5626975e-10
5.8808241e-10
6.2250995e-10
7.3441174e-10
2.6234613e-06
2.6439249e-06
2.668998e-06
2.699126e-06
2.7319195e-06
2.7654141e-06
2.7992138e-06
2.8332194e-06
2.8632514e-06
2.8735325e-06
2.8513929e-06
2.8085621e-06
2.7412214e-06
2.6571263e-06
2.5945244e-06
2.5626367e-06
2.5573951e-06
2.5685484e-06
2.5846709e-06
2.598622e-06
2.6079217e-06
2.6130277e-06
2.6146487e-06
2.6118648e-06
2.6016724e-06
2.5861633e-06
2.563204e-06
2.5314022e-06
2.4931038e-06
2.4533894e-06
2.4175132e-06
2.3888615e-06
2.3682457e-06
2.3539049e-06
2.3424205e-06
2.3299856e-06
2.3133594e-06
2.291966e-06
2.27643e-06
2.2724092e-06
2.2839742e-06
2.3217451e-06
2.3857177e-06
2.4578045e-06
2.5006332e-06
2.4463083e-06
2.2780614e-06
1.9506545e-06
1.485519e-06
1.0183563e-06
6.6694981e-07
4.4293483e-07
3.0783773e-07
2.2240425e-07
1.6507999e-07
1.2510787e-07
9.5694711e-08
7.2063258e-08
5.1954544e-08
3.4784542e-08
2.096267e-08
1.0939672e-08
4.7591095e-09
1.7597528e-09
7.2535382e-10
5.2504289e-10
5.6178203e-10
6.632597e-10
2.6073115e-06
2.6251965e-06
2.6468241e-06
2.6738948e-06
2.7049879e-06
2.7371175e-06
2.7694044e-06
2.8018828e-06
2.8342306e-06
2.8601008e-06
2.8622179e-06
2.8342208e-06
2.786838e-06
2.7126194e-06
2.6287918e-06
2.5747437e-06
2.5513601e-06
2.5527019e-06
2.5654401e-06
2.5791135e-06
2.5885689e-06
2.5930313e-06
2.5936375e-06
2.5910221e-06
2.5837624e-06
2.5712465e-06
2.5542141e-06
2.52898e-06
2.4953077e-06
2.4567037e-06
2.418495e-06
2.3854535e-06
2.3601357e-06
2.3424251e-06
2.3298832e-06
2.3188725e-06
2.3057054e-06
2.2876641e-06
2.2663375e-06
2.2546812e-06
2.2535756e-06
2.2711434e-06
2.3160522e-06
2.3854059e-06
2.4594674e-06
2.4993791e-06
2.438934e-06
2.2574127e-06
1.9101966e-06
1.447901e-06
1.0001574e-06
6.6194192e-07
4.4358229e-07
3.073877e-07
2.2031483e-07
1.6205899e-07
1.2077209e-07
8.975394e-08
6.5449675e-08
4.5758375e-08
2.9828557e-08
1.7549304e-08
8.9649953e-09
3.8427831e-09
1.4295013e-09
6.1870915e-10
4.6899069e-10
5.0636736e-10
5.9824082e-10
2.5936634e-06
2.6090892e-06
2.6277413e-06
2.6510688e-06
2.6796079e-06
2.7100835e-06
2.7405044e-06
2.771573e-06
2.8030431e-06
2.8340712e-06
2.856105e-06
2.8510818e-06
2.8189674e-06
2.7656244e-06
2.6844293e-06
2.6038424e-06
2.5591868e-06
2.5436653e-06
2.548419e-06
2.559687e-06
2.5692918e-06
2.5741353e-06
2.5748438e-06
2.5730383e-06
2.5690937e-06
2.560646e-06
2.547876e-06
2.5299928e-06
2.503615e-06
2.4691363e-06
2.4308149e-06
2.3941739e-06
2.3633867e-06
2.3400897e-06
2.3233106e-06
2.3100687e-06
2.2966686e-06
2.2798048e-06
2.2578754e-06
2.2366951e-06
2.2286378e-06
2.2318408e-06
2.257737e-06
2.3114423e-06
2.3861328e-06
2.4582306e-06
2.4827036e-06
2.3979665e-06
2.1970079e-06
1.8419329e-06
1.3822847e-06
9.4477315e-07
6.2218042e-07
4.1403776e-07
2.8555705e-07
2.0287547e-07
1.470032e-07
1.0818082e-07
7.9903679e-08
5.7745568e-08
3.9790886e-08
2.5485843e-08
1.4711335e-08
7.3780431e-09
3.1228597e-09
1.1710949e-09
5.3132512e-10
4.1901935e-10
4.5574523e-10
5.3873955e-10
2.5953596e-06
2.6113904e-06
2.6309725e-06
2.6557782e-06
2.6839691e-06
2.7122611e-06
2.7417187e-06
2.7729138e-06
2.8046112e-06
2.8351458e-06
2.8534026e-06
2.8413186e-06
2.8052459e-06
2.7437469e-06
2.6563131e-06
2.5820198e-06
2.5450876e-06
2.5352775e-06
2.5402959e-06
2.5487042e-06
2.5550882e-06
2.5581021e-06
2.5586605e-06
2.5577523e-06
2.5551437e-06
2.5476823e-06
2.5351237e-06
2.5170353e-06
2.4899694e-06
2.4548651e-06
2.4167407e-06
2.3809978e-06