/*--------------------------------*- C++ -*----------------------------------*\
| =========                 |                                                 |
| \\      /  F ield         | OpenFOAM: The Open Source CFD Toolbox           |
|  \\    /   O peration     | Version:  2506                                  |
|   \\  /    A nd           | Website:  www.openfoam.com                      |
|    \\/     M anipulation  |                                                 |
\*---------------------------------------------------------------------------*/
FoamFile
{
    version     2.0;
    format      ascii;
    arch        "LSB;label=32;scalar=64";
    class       volScalarField;
    location    "0.5";
    object      Ma;
}
// * * * * * * * * * * * * * * * * * * * * * * * * * * * * * * * * * * * * * //

dimensions      [0 0 0 0 0 0 0];

internalField   nonuniform List<scalar> 
1375
(
0.34463114
0.35047655
0.34671487
0.33619887
0.34661996
0.35263177
0.34518444
0.33825092
0.33813665
0.32954689
0.33239543
0.32270062
0.32131477
0.31878657
0.31365413
0.31333234
0.34404673
0.35566844
0.34492142
0.33983548
0.34170339
0.33045622
0.33227207
0.32369629
0.32476523
0.31980868
0.31405228
0.31471118
0.31267357
0.31145243
0.31030889
0.30891882
0.30770685
0.30671909
0.30579414
0.30496848
0.30422768
0.30354812
0.34505073
0.35449719
0.3459996
0.34185437
0.34022288
0.33077648
0.32972793
0.32454766
0.32555452
0.32110467
0.31768533
0.31646976
0.31471818
0.31238064
0.31091966
0.30971019
0.30845708
0.30737151
0.30632931
0.30541158
0.30460129
0.30384688
0.30320023
0.30264767
0.302132
0.30166309
0.30129292
0.30091512
0.30059401
0.30034525
0.30013525
0.29990196
0.299684
0.29949323
0.34396231
0.3555282
0.34729013
0.34374334
0.33794987
0.33234236
0.3292777
0.32525298
0.32509669
0.32196764
0.32235464
0.31776098
0.31594612
0.31407496
0.31179998
0.31015394
0.30894963
0.30783429
0.30683914
0.30587489
0.30498671
0.30421458
0.30351827
0.3028897
0.30230989
0.30176838
0.30138219
0.30099216
0.3005981
0.30035382
0.30015625
0.29991527
0.29970453
0.29954635
0.29936279
0.29922576
0.29912972
0.29906566
0.29896884
0.29885406
0.29876859
0.29867294
0.29864373
0.29855294
0.29880369
0.29895403
0.29909075
0.29899067
0.30027019
0.33906362
0.35814831
0.34678836
0.34343836
0.3373676
0.33427668
0.33262838
0.32662249
0.32647785
0.32239336
0.32268526
0.31842392
0.31582593
0.31451169
0.31290887
0.31113073
0.30948648
0.30815178
0.30710529
0.3061403
0.30520791
0.30439533
0.30372844
0.30312472
0.30252524
0.30195946
0.30148485
0.30110376
0.3006817
0.3004024
0.30017363
0.29992624
0.2996987
0.29955624
0.29939741
0.29924074
0.29913384
0.29905598
0.29896065
0.2988515
0.29876957
0.29866498
0.29863134
0.29856322
0.29878824
0.29892693
0.29910658
0.29905184
0.30029856
0.33941542
0.3556626
0.34545434
0.34246279
0.3369093
0.33470164
0.3357292
0.32890583
0.32893803
0.32300542
0.3227119
0.31890362
0.3167836
0.31481857
0.31326056
0.31184001
0.31024996
0.30881173
0.30748801
0.30641858
0.30539541
0.30447526
0.30373817
0.3031244
0.30259102
0.30199721
0.30146576
0.30113882
0.30083721
0.3004843
0.30020749
0.29996175
0.29971869
0.29955805
0.29939009
0.29925543
0.29914835
0.29905486
0.29895279
0.29884766
0.298767
0.29865918
0.29862535
0.29855862
0.29875259
0.29892109
0.29911469
0.29907553
0.30028519
0.33737262
0.35356749
0.34421459
0.34270842
0.33802482
0.33535965
0.33489585
0.32945917
0.32885569
0.32341068
0.32276564
0.31885189
0.31827343
0.31556036
0.31378078
0.31185568
0.31037564
0.30923686
0.30803455
0.30680274
0.30572592
0.30472935
0.30385921
0.30317171
0.30262979
0.30201065
0.3014844
0.30113613
0.30082836
0.30048523
0.3002057
0.29996779
0.29977002
0.29957798
0.29938745
0.29925396
0.29915503
0.29905497
0.29894638
0.29884309
0.29875651
0.29865206
0.29862516
0.298545
0.29872205
0.29892682
0.29910934
0.29910731
0.30029722
0.33167895
0.35445392
0.34248955
0.34399078
0.33986322
0.33584393
0.33362979
0.32957299
0.32800101
0.32380006
0.32307369
0.31923187
0.31818585
0.31550005
0.31410579
0.31221033
0.31057769
0.30923125
0.30806239
0.30684053
0.30583927
0.30494599
0.30407864
0.3032991
0.30268464
0.30209165
0.30156678
0.30116141
0.30080661
0.30048965
0.30019549
0.29996196
0.29978252
0.29958692
0.2993951
0.29925581
0.29915214
0.29904705
0.29893736
0.29883741
0.2987398
0.2986457
0.29862344
0.29853159
0.2987067
0.29892354
0.29909728
0.29912972
0.30032896
0.33113121
0.354357
0.34137233
0.34395741
0.33923648
0.33612853
0.33306322
0.33012364
0.32729286
0.32421198
0.32304462
0.32001528
0.31841844
0.3156606
0.31398061
0.31258565
0.31103525
0.30940129
0.3081268
0.3069311
0.30586745
0.30492547
0.30408105
0.30335911
0.30267503
0.30211948
0.30165968
0.30118878
0.30080035
0.30050468
0.3001944
0.29996588
0.29977571
0.29956702
0.29941129
0.29926804
0.29914675
0.29903322
0.29892893
0.29883252
0.29872572
0.29863782
0.29861754
0.29853263
0.29868567
0.29890959
0.29908056
0.29915325
0.30036941
0.33262763
0.35130509
0.34142703
0.34271447
0.33785727
0.3362
0.33271649
0.32994041
0.32711151
0.32439587
0.32277004
0.32025402
0.31874209
0.31613342
0.31416007
0.31256278
0.31100926
0.30950432
0.30822081
0.30707392
0.3059607
0.30497307
0.30412401
0.30337394
0.30267236
0.30212465
0.30165847
0.30117797
0.30078854
0.3004952
0.3001907
0.29996678
0.29976598
0.29953908
0.29941121
0.29927725
0.29913805
0.29902523
0.29892928
0.29883184
0.29871655
0.29862457
0.29860431
0.29854076
0.29865141
0.29889335
0.29907998
0.29919008
0.30043806
0.33156781
0.34986875
0.34122453
0.3408794
0.33670512
0.33600092
0.33222256
0.3294023
0.32690437
0.324704
0.32275921
0.32003766
0.31842055
0.31616149
0.31448477
0.31253713
0.31092017
0.30948183
0.30816509
0.30703262
0.30601376
0.30501029
0.30416214
0.30337373
0.30268261
0.30215811
0.30164568
0.3011518
0.30076656
0.3004743
0.30018764
0.29995422
0.29974877
0.29954504
0.29940809
0.29927055
0.29912553
0.29901845
0.29892918
0.29883091
0.29870754
0.29861014
0.29859039
0.29854447
0.29861411
0.29888336
0.29907721
0.29919068
0.30049813
0.32871331
0.34874459
0.33913888
0.34036429
0.33544853
0.33573176
0.33152556
0.32938618
0.32663294
0.32458975
0.32254005
0.31993142
0.31800754
0.31608542
0.3143818
0.3124732
0.31087788
0.30944343
0.30809625
0.30698233
0.30599947
0.30496875
0.3041108
0.30332923
0.30267983
0.30215663
0.30161217
0.30111598
0.30074097
0.30045485
0.30017703
0.29992069
0.29972713
0.29955449
0.29940078
0.29925506
0.29911341
0.29901069
0.29892707
0.29882605
0.29869675
0.29859821
0.29857954
0.29854334
0.29859794
0.29887136
0.29906567
0.29920316
0.30052804
0.3225968
0.34621592
0.33796104
0.34039045
0.33455009
0.33518664
0.3303869
0.32927071
0.32617336
0.32398799
0.32212985
0.31997174
0.31770796
0.31575593
0.31412934
0.31239312
0.3108247
0.30935104
0.30805582
0.30691917
0.30589676
0.30491086
0.30403441
0.30326993
0.30266444
0.30211554
0.30155411
0.30107192
0.30073128
0.30042786
0.30014754
0.29988616
0.29971139
0.29954586
0.29938576
0.2992399
0.2991043
0.29900437
0.29892045
0.29881444
0.29868872
0.29859197
0.29856484
0.29854461
0.29859047
0.29885539
0.29904899
0.31879091
0.34563631
0.33687619
0.33974125
0.33376283
0.33352895
0.3290259
0.32886171
0.32551738
0.32356208
0.32165881
0.31963745
0.31730287
0.31545507
0.31393292
0.31217907
0.31061863
0.30920921
0.30797343
0.30679243
0.30572193
0.30485068
0.30395289
0.30320469
0.30262597
0.30202377
0.30148204
0.30105261
0.30072063
0.3003853
0.30010489
0.29986526
0.29969512
0.29951785
0.29936519
0.29923287
0.29909556
0.29899816
0.29890846
0.29880077
0.29868463
0.29858828
0.29854787
0.29854631
0.29857982
0.29884426
0.31492431
0.34315674
0.33478241
0.33767441
0.33219086
0.33177717
0.32830082
0.32800268
0.32472375
0.32309375
0.32068633
0.31883387
0.31710407
0.31528212
0.31349411
0.31168315
0.31033844
0.3090479
0.30779052
0.3065916
0.30557059
0.30473422
0.30383491
0.30311604
0.30253711
0.3018994
0.30142942
0.30104391
0.30068308
0.30033806
0.30006694
0.29984806
0.29966613
0.29948441
0.29935158
0.29922725
0.29908459
0.29898989
0.29889529
0.29879216
0.29867988
0.29858105
0.29853329
0.29854738
0.29856294
0.31752839
0.33642851
0.33265941
0.33488125
0.33053505
0.33109334
0.32740097
0.3262122
0.32349529
0.32222885
0.31969856
0.31837758
0.31670334
0.31466867
0.3127659
0.31135686
0.31008254
0.30876675
0.3074911
0.30637727
0.30541036
0.30452967
0.30369362
0.30300503
0.30238124
0.30179454
0.30139731
0.3010055
0.3006138
0.30029413
0.30003876
0.29982361
0.29962657
0.29946472
0.2993433
0.2992153
0.29907364
0.2989798
0.29888458
0.29878575
0.29867297
0.29856909
0.29851715
0.29854747
0.31386286
0.33884433
0.33055592
0.33268374
0.32932988
0.32949021
0.32575995
0.32457484
0.32250265
0.32143343
0.31912742
0.31761417
0.31523269
0.31385159
0.31254164
0.31111037
0.30960212
0.30830679
0.30717591
0.30613401
0.30516673
0.30429329
0.30356035
0.30284998
0.30219787
0.30173177
0.30134376
0.3009197
0.30054022
0.300252
0.30001186
0.29978589
0.29959199
0.29945318
0.29932936
0.29919718
0.29906496
0.29896958
0.29887518
0.2987773
0.29866586
0.2985577
0.29849939
0.31275501
0.33596762
0.32992921
0.33064278
0.32758817
0.32696095
0.32426823
0.32397264
0.32142007
0.32021756
0.31798618
0.31620477
0.31408699
0.31345784
0.31215107
0.31039772
0.30894412
0.30787324
0.30683535
0.30579107
0.30486525
0.30408889
0.30337505
0.30263463
0.30206142
0.30166406
0.30124325
0.30082064
0.30047591
0.30020789
0.29997284
0.29974309
0.29956949
0.29943626
0.29930788
0.29917872
0.29905627
0.29895966
0.29886418
0.29876718
0.29865999
0.29854999
0.3046291
0.33301391
0.32968535
0.3287975
0.32617703
0.32554047
0.32300954
0.32267331
0.31941505
0.31845802
0.3164977
0.31546258
0.31405331
0.31265441
0.31075798
0.3094626
0.30847472
0.30743402
0.30635673
0.30539005
0.30458629
0.303841
0.30307516
0.30243501
0.3019647
0.30154374
0.30111399
0.30073763
0.30041458
0.30015603
0.29991764
0.29970804
0.29954978
0.29940715
0.29928622
0.29916159
0.2990444
0.29894986
0.29884957
0.29875947
0.2986553
0.30350518
0.33399598
0.32746794
0.32705847
0.32402468
0.32388271
0.3209747
0.32016021
0.31757098
0.31745434
0.31551791
0.31491719
0.31337321
0.31096002
0.30934755
0.30892712
0.3079493
0.30678869
0.30580698
0.30502041
0.30426967
0.30346504
0.30275737
0.30230324
0.30182741
0.30137009
0.3009892
0.30065995
0.30034765
0.30009011
0.299861
0.29968198
0.29952004
0.29937389
0.2992684
0.2991427
0.29902929
0.29893952
0.29883373
0.29875334
0.2993008
0.32876349
0.32328507
0.32432308
0.32112979
0.32145885
0.31872425
0.31843449
0.31673212
0.31651479
0.31425125
0.31345452
0.31132742
0.30966177
0.30915378
0.3082582
0.30704826
0.30605834
0.30533043
0.3046096
0.30382969
0.30306244
0.30255365
0.30213375
0.30161288
0.30120045
0.30087053
0.3005721
0.30026599
0.30001645
0.2998177
0.29965011
0.29947849
0.29934863
0.29925
0.29912181
0.29901353
0.29892733
0.29882043
0.29815141
0.32630386
0.3205055
0.32193815
0.31917883
0.31919226
0.31698899
0.31710873
0.31538454
0.31460007
0.31233344
0.31128514
0.30957803
0.30930304
0.30867617
0.30704805
0.30605639
0.30547113
0.30482686
0.30407662
0.30334731
0.30277435
0.30234582
0.30185517
0.30139475
0.30105539
0.30074071
0.30046796
0.30017201
0.2999517
0.29977643
0.29960044
0.29943941
0.29932889
0.29922621
0.29910242
0.29899996
0.29891337
0.29220835
0.32364823
0.31821632
0.31996223
0.31729339
0.31703506
0.31513167
0.31507389
0.31315487
0.31214311
0.31062427
0.30979773
0.30880902
0.30856195
0.30728717
0.30580261
0.30533459
0.30484705
0.30417505
0.30349557
0.30293563
0.30249604
0.30202615
0.30155241
0.30122662
0.30089951
0.30059686
0.30034907
0.30008251
0.29989676
0.29971927
0.29954067
0.29941017
0.29930545
0.29919875
0.29908527
0.29898957
0.28955936
0.32054456
0.31554361
0.31772676
0.31489563
0.31473756
0.31288987
0.31254802
0.31080598
0.31011324
0.30921768
0.30854578
0.30772899
0.30695035
0.30557364
0.30502931
0.30462052
0.30403371
0.30345343
0.30294385
0.30252158
0.30211497
0.30164831
0.30131916
0.3010515
0.30072092
0.30044892
0.30022743
0.30000592
0.29983509
0.29964871
0.29948731
0.29938161
0.29927448
0.29917257
0.29906767
0.28232369
0.31606352
0.31296365
0.31468105
0.31246943
0.31231445
0.31064607
0.31013725
0.30875873
0.30825777
0.30752464
0.30686803
0.30607005
0.3051634
0.30435209
0.3042094
0.30368988
0.30316166
0.30278315
0.30239648
0.30204398
0.30165781
0.3013197
0.30109401
0.30082679
0.30053979
0.30030418
0.30011379
0.29993118
0.29975857
0.29958839
0.29944458
0.29934553
0.29924011
0.29914818
0.29904778
0.27853571
0.31276401
0.31002904
0.31128528
0.30961
0.30949374
0.3081714
0.30765704
0.30656101
0.30613827
0.30543089
0.30490006
0.30422348
0.3037075
0.30329092
0.30307243
0.30262561
0.30232741
0.3020932
0.30180984
0.30153108
0.30123715
0.30102699
0.30082181
0.30057661
0.30036252
0.30016152
0.29999822
0.29984306
0.29967728
0.29954
0.29940534
0.29930434
0.29920718
0.29912306
0.2722033
0.30869532
0.30667971
0.30762198
0.30618183
0.3061706
0.30533745
0.30489895
0.30410515
0.30379448
0.30321448
0.30289674
0.30246376
0.3023039
0.30209747
0.3018394
0.30164904
0.30151556
0.30136048
0.30119682
0.30101574
0.30084937
0.30071214
0.30052536
0.30033848
0.30018261
0.30001974
0.29987067
0.29974235
0.29960058
0.29948818
0.2993654
0.29926509
0.29917464
0.26820659
0.30446278
0.30289379
0.3036556
0.30235137
0.30242841
0.30191039
0.30180313
0.3014112
0.30128485
0.30093221
0.30081654
0.3007166
0.30080116
0.30078522
0.30068509
0.30069606
0.300678
0.30066189
0.30063163
0.30053548
0.30045972
0.30036365
0.30023512
0.30010342
0.29999367
0.2998709
0.29973254
0.29964025
0.29952202
0.2994259
0.29932711
0.29922842
0.26003723
0.29866208
0.29818787
0.29907259
0.29820095
0.29836506
0.29818982
0.29851747
0.298562
0.29870191
0.29866381
0.29876813
0.29901283
0.29933149
0.29955081
0.29962555
0.29969646
0.29978886
0.29993932
0.30005292
0.30008099
0.30008392
0.30003125
0.29995855
0.29986815
0.299796
0.29970743
0.29959438
0.29953281
0.29943059
0.29935369
0.25201442
0.29227312
0.29272944
0.2939272
0.29355537
0.29416048
0.294443
0.29514021
0.29557971
0.29605527
0.2963803
0.29680367
0.29737582
0.29788325
0.2982706
0.29859603
0.29882078
0.29906556
0.29930956
0.29948211
0.29960744
0.29967339
0.2997004
0.29969416
0.29964961
0.29959896
0.29954126
0.29946784
0.29942348
0.29933513
0.239848
0.28417733
0.2857294
0.28847471
0.28879275
0.28994795
0.29084613
0.29187999
0.29269146
0.29345633
0.29415256
0.29495989
0.29574189
0.29651335
0.29706077
0.29746411
0.29790702
0.29837747
0.29877673
0.29903944
0.29918737
0.29926016
0.29934337
0.29940375
0.29941406
0.29939749
0.29938537
0.29935126
0.29931507
0.20897405
0.27025132
0.2769561
0.28180281
0.28343808
0.28551297
0.28728106
0.2888958
0.29019776
0.29138469
0.29244835
0.29347465
0.29448929
0.29536906
0.29605549
0.29660678
0.29708013
0.29756569
0.29801862
0.29847193
0.29876847
0.29892209
0.29904714
0.29910266
0.29914175
0.2991788
0.29921913
0.25387523
0.24953443
0.24274633
0.2835324
0.28199223
0.27908705
0.27595982
0.27149903
0.26820782
0.28981111
0.28869349
0.2859897
0.28230595
0.27810853
0.27529849
0.29135106
0.29062851
0.28818531
0.28459379
0.28038532
0.27767244
0.29173149
0.29110395
0.28876738
0.28566833
0.28233996
0.28032032
0.29205314
0.29156127
0.28950178
0.2868458
0.28417754
0.28269342
0.29248417
0.29197939
0.2901041
0.28790181
0.28585541
0.28481511
0.29280107
0.2924175
0.29075602
0.28892599
0.28739739
0.28670125
0.29279918
0.2914315
0.28993178
0.28883616
0.2883743
0.29329998
0.29213014
0.29093261
0.29022605
0.28992906
0.29372076
0.29279986
0.2918923
0.29147739
0.29129496
0.29397108
0.29349318
0.29285586
0.29263242
0.29251094
0.29424302
0.29420308
0.29367451
0.29344045
0.2935143
0.29467205
0.29465054
0.29447014
0.2942207
0.29423259
0.29511731
0.29505864
0.29502642
0.29489963
0.29514815
0.29551149
0.29543563
0.29558012
0.29616044
0.29601053
0.2960076
0.29641576
0.2967804
0.29641758
0.29658637
0.29706931
0.29725132
0.29725375
0.29748758
0.29749201
0.29764306
0.2976928
0.29780312
0.29789762
0.29787147
0.29824036
0.29815735
0.29857502
0.2984374
0.2988016
0.29866064
0.29888245
0.29894097
0.29900527
)
;

boundaryField
{
    Side
    {
        type            empty;
    }
    Inlet
    {
        type            calculated;
        value           nonuniform List<scalar> 9(0.29988393 0.29989797 0.2998906 0.29989663 0.29991207 0.29993132 0.29996513 0.29999544 0.30001075);
    }
    Airfoil
    {
        type            calculated;
        value           uniform 0;
    }
    Outlet
    {
        type            calculated;
        value           nonuniform List<scalar> 0();
    }
    procBoundary1to0
    {
        type            processor;
        value           nonuniform List<scalar> 
53
(
0.34376056
0.34938027
0.34656315
0.33428264
0.33492417
0.33492417
0.32619121
0.32624065
0.32114914
0.32028606
0.31665978
0.31464486
0.31219454
0.31199665
0.31199665
0.31074815
0.30923355
0.30792983
0.30704709
0.30615509
0.30530133
0.30456821
0.303874
0.30327744
0.30299392
0.30299392
0.30247754
0.30198219
0.30158256
0.30120804
0.30083728
0.3005981
0.30033166
0.30001695
0.29982533
0.29961013
0.29945224
0.29932249
0.29932249
0.29922037
0.29913412
0.29906684
0.29897182
0.29885464
0.29876983
0.29868176
0.29865464
0.29855294
0.2988059
0.29896234
0.29907539
0.29894035
0.30018981
)
;
    }
    procBoundary1to2
    {
        type            processor;
        value           nonuniform List<scalar> 
75
(
0.29922103
0.3005753
0.29922103
0.29903792
0.29903792
0.29883828
0.29883828
0.298551
0.298551
0.29854463
0.29854463
0.29848815
0.29848815
0.29854252
0.29854252
0.29865171
0.29865171
0.2987462
0.2987462
0.29880832
0.29880832
0.29889998
0.29889998
0.29898104
0.29898104
0.29897213
0.29902686
0.29902686
0.29909579
0.29909579
0.29914051
0.2992875
0.29914051
0.29918977
0.2992875
0.29927831
0.29927831
0.29924522
0.29922916
0.29924522
0.29920766
0.29922916
0.29906701
0.25636387
0.2834948
0.29045673
0.29173137
0.29202696
0.29228095
0.29266703
0.29297544
0.29300183
0.29300183
0.29322861
0.2935745
0.29391292
0.29423431
0.29474645
0.29524129
0.29555381
0.29555381
0.29595303
0.29645064
0.29682203
0.29682203
0.29733641
0.29776765
0.29805497
0.29805497
0.29812198
0.29836012
0.29880744
0.29880744
0.298898
0.29906701
)
;
    }
    procBoundary1to8
    {
        type            processor;
        value           nonuniform List<scalar> 8(0.21630357 0.2525247 0.24964119 0.23593865 0.2451473 0.23593865 0.22704054 0.21630357);
    }
}


// ************************************************************************* //
