/*--------------------------------*- C++ -*----------------------------------*\
| =========                 |                                                 |
| \\      /  F ield         | OpenFOAM: The Open Source CFD Toolbox           |
|  \\    /   O peration     | Version:  2506                                  |
|   \\  /    A nd           | Website:  www.openfoam.com                      |
|    \\/     M anipulation  |                                                 |
\*---------------------------------------------------------------------------*/
FoamFile
{
    version     2.0;
    format      ascii;
    arch        "LSB;label=32;scalar=64";
    class       volVectorField;
    location    "0.0155";
    object      wallShearStress;
}
// * * * * * * * * * * * * * * * * * * * * * * * * * * * * * * * * * * * * * //

dimensions      [1 -1 -2 0 0 0 0];

internalField   uniform (0 0 0);

boundaryField
{
    Side
    {
        type            empty;
    }
    Inlet
    {
        type            calculated;
        value           uniform (0 0 0);
    }
    Airfoil
    {
        type            calculated;
        value           nonuniform List<vector> 
142
(
(-32.653657 -10.430256 -3.6921474e-21)
(-24.069846 -7.6283032 1.22177e-16)
(-24.855793 -7.824401 1.226861e-16)
(-23.425074 -7.3289682 -2.4662134e-16)
(-23.210742 -7.2266061 0)
(-22.605402 -7.0116718 1.2437032e-16)
(-22.473457 -6.9523551 1.9056307e-21)
(-22.222517 -6.8636948 1.2537294e-16)
(-22.121011 -6.8289918 9.2203896e-33)
(-22.09019 -6.8231676 -2.526164e-16)
(-22.091745 -6.8347148 1.9356249e-21)
(-22.164103 -6.8754026 1.2726318e-16)
(-22.256817 -6.9298687 -1.9477773e-21)
(-22.406519 -7.0097721 -2.5633501e-16)
(-22.572731 -7.1029918 1.2861622e-16)
(-22.792122 -7.2215762 -1.9704406e-21)
(-23.030095 -7.3553339 1.2037062e-35)
(-23.316856 -7.5147151 -1.2993505e-16)
(-23.622759 -7.6912334 0)
(-23.975576 -7.8950641 1.3080972e-16)
(-24.346897 -8.1182754 4.0083214e-21)
(-24.75926 -8.3698817 1.3171189e-16)
(-25.185983 -8.6427048 -4.0416079e-21)
(-25.639375 -8.9429121 -1.3263746e-16)
(-26.140072 -9.2799521 0)
(-26.558128 -9.6093885 2.6726676e-16)
(-26.63355 -9.7851998 1.3412581e-16)
(-26.570319 -9.865655 -1.155558e-33)
(-26.591962 -9.9790497 -1.3518457e-16)
(-26.668901 -10.115058 -1.2037062e-35)
(-26.751373 -10.255504 -2.9834605e-33)
(-26.855505 -10.40677 0)
(-26.961785 -10.561605 -1.3720189e-16)
(-27.080112 -10.724041 -1.3770283e-16)
(-27.197788 -10.889275 2.7640244e-16)
(-27.325173 -11.061568 -1.3870289e-16)
(-27.449971 -11.236158 4.2497479e-21)
(-27.583259 -11.417689 -2.7939924e-16)
(-27.713188 -11.601469 0)
(-27.85106 -11.792342 -1.4069318e-16)
(-27.985256 -11.98561 1.4118902e-16)
(-28.127303 -12.186339 4.3219875e-21)
(-28.266124 -12.389962 1.421735e-16)
(-28.412278 -12.601276 1.4267097e-16)
(-28.555037 -12.81575 -4.3670281e-21)
(-28.704373 -13.038043 1.4365902e-16)
(-28.850332 -13.263902 0)
(-29.002229 -13.497796 4.4118155e-21)
(-29.151656 -13.736104 -4.4339239e-21)
(-29.307055 -13.983041 1.4560677e-16)
(-29.463728 -14.236843 4.4607125e-21)
(-29.63022 -14.502942 1.4658398e-16)
(-29.79359 -14.774324 -1.4706955e-16)
(-29.959755 -15.053903 1.2037062e-35)
(-30.123594 -15.339423 -4.5154764e-21)
(-30.290253 -15.633794 -1.4852069e-16)
(-30.454544 -15.934718 4.6485332e-24)
(-30.620197 -16.244479 4.5668608e-21)
(-30.783403 -16.561448 0)
(-30.948221 -16.888185 -1.5044254e-16)
(-31.111626 -17.223482 1.509257e-16)
(-31.276831 -17.569579 -1.5140359e-16)
(-31.442317 -17.926156 1.1110305e-24)
(-31.610463 -18.295112 1.5235303e-16)
(-31.779024 -18.67579 -4.6614232e-21)
(-31.949964 -19.069976 5.1326059e-24)
(-32.119289 -19.475996 4.6955991e-21)
(-32.28806 -19.895174 1.5425678e-16)
(-32.452764 -20.326062 2.4074124e-35)
(-32.615237 -20.770561 -3.8518599e-34)
(-32.774164 -21.228651 1.5568178e-16)
(-32.931206 -21.702282 1.5616955e-16)
(-33.086674 -22.192668 0)
(-33.240027 -22.700396 -4.7924992e-21)
(-33.387939 -23.223587 5.0892293e-24)
(-33.532998 -23.764877 9.6491343e-21)
(-33.671667 -24.322908 -4.8418559e-21)
(-33.807842 -24.901689 -1.3000027e-32)
(-33.936405 -25.498809 -1.595525e-16)
(-34.057245 -26.115509 4.8148249e-35)
(-34.167313 -26.750861 3.2108056e-16)
(-34.257822 -27.39928 -9.8288416e-21)
(-34.341987 -28.072715 4.1353061e-24)
(-34.39733 -28.754374 4.9469258e-21)
(-34.459825 -29.475919 -4.9585752e-21)
(-34.469948 -30.188472 4.9775807e-21)
(-34.523186 -30.977396 1.6355929e-16)
(-34.457706 -31.700123 -1.6407358e-16)
(-34.494816 -32.560822 1.6459321e-16)
(-34.375028 -33.319618 4.8148249e-35)
(-34.350343 -34.219746 -3.312855e-16)
(-34.189925 -35.037324 -3.4599767e-25)
(-34.081722 -35.96355 1.6670436e-16)
(-33.850308 -36.813171 5.1048632e-21)
(-33.641278 -37.745509 -1.0242011e-20)
(-33.335219 -38.631774 -1.6834208e-16)
(-33.034349 -39.590454 -2.1425971e-33)
(-32.627923 -40.492449 4.2899901e-33)
(-32.223466 -41.470531 -4.8600109e-33)
(-31.693839 -42.364546 -5.2901955e-21)
(-31.177587 -43.35774 3.4233e-16)
(-30.515285 -44.231488 5.2363682e-21)
(-29.887204 -45.243348 -5.2652157e-21)
(-29.082012 -46.079004 5.2705588e-21)
(-28.318414 -47.075911 0)
(-27.319625 -47.776765 -8.7049964e-17)
(-26.393689 -48.695742 -5.3233872e-21)
(-25.242199 -49.319594 -1.7533779e-16)
(-24.093649 -50.003745 -1.0741771e-20)
(-22.840007 -50.60891 8.8309568e-17)
(-21.518467 -51.195336 -5.4205985e-21)
(-20.095386 -51.565226 8.8847309e-17)
(-18.564675 -51.673762 1.7836601e-16)
(-16.998093 -51.655491 8.9534833e-17)
(-15.374262 -51.416656 8.9887488e-17)
(-13.73099 -51.021626 1.83657e-23)
(-12.074905 -50.458123 4.5295549e-17)
(-10.407098 -49.661379 -9.0943803e-17)
(-8.7726104 -48.778275 -4.1741504e-21)
(-7.1683891 -47.745424 1.3437842e-21)
(-5.5999927 -46.517397 0)
(-4.1012469 -45.281781 -4.6152286e-17)
(-2.6613069 -43.903274 -9.7584229e-24)
(-21.463485 -5.3411849 2.3442179e-33)
(-21.466405 -5.4028004 1.3647877e-37)
(-21.412952 -5.4429498 -1.9282978e-41)
(-21.355167 -5.4745372 -7.2583485e-33)
(-21.263666 -5.4900038 -1.0416841e-16)
(-21.169256 -5.4972987 -1.6139933e-21)
(-21.04944 -5.4907034 2.1479079e-16)
(-20.926168 -5.4761586 1.2037062e-35)
(-20.791348 -5.4518071 1.6893613e-21)
(-20.66149 -5.422287 -1.7165048e-21)
(-20.505158 -5.3797769 -3.7129982e-33)
(-20.382952 -5.3405605 1.7690261e-21)
(-20.262582 -5.2964906 -1.7977149e-21)
(-20.164917 -5.2533917 -1.1956222e-16)
(-20.032092 -5.1964558 -1.0526411e-32)
(-19.951132 -5.1483956 8.9671522e-25)
(-19.381511 -4.9668818 1.9043804e-21)
(-16.796348 -4.2769892 -1.937433e-21)
(-26.298393 -6.6907914 -1.2833811e-16)
)
;
    }
    Outlet
    {
        type            calculated;
        value           nonuniform List<vector> 0();
    }
    procBoundary8to0
    {
        type            processor;
        value           uniform (0 0 0);
    }
    procBoundary8to1
    {
        type            processor;
        value           uniform (0 0 0);
    }
    procBoundary8to2
    {
        type            processor;
        value           uniform (0 0 0);
    }
    procBoundary8to7
    {
        type            processor;
        value           uniform (0 0 0);
    }
    procBoundary8to9
    {
        type            processor;
        value           uniform (0 0 0);
    }
}


// ************************************************************************* //
