/*--------------------------------*- C++ -*----------------------------------*\
| =========                 |                                                 |
| \\      /  F ield         | OpenFOAM: The Open Source CFD Toolbox           |
|  \\    /   O peration     | Version:  2506                                  |
|   \\  /    A nd           | Website:  www.openfoam.com                      |
|    \\/     M anipulation  |                                                 |
\*---------------------------------------------------------------------------*/
FoamFile
{
    version     2.0;
    format      ascii;
    arch        "LSB;label=32;scalar=64";
    class       volVectorField;
    location    "0.00022";
    object      U;
}
// * * * * * * * * * * * * * * * * * * * * * * * * * * * * * * * * * * * * * //

dimensions      [0 1 -1 0 0 0 0];

internalField   nonuniform List<vector> 
13761
(
(-214.84957 598.46544 6.3978214e-22)
(-206.6731 607.71902 1.0993889e-23)
(-194.67629 615.59431 -5.9206803e-22)
(-185.22986 618.46581 5.4948479e-22)
(-195.97846 633.06989 -6.9099772e-22)
(-206.65456 634.46078 -9.5313648e-22)
(-195.17883 643.44163 2.3883419e-21)
(-192.33399 645.45739 -3.2839569e-23)
(-201.8894 652.85744 -6.5717439e-22)
(-210.42044 654.48677 5.9106383e-22)
(-214.28324 658.31424 -1.6004979e-23)
(-215.10292 659.97957 -7.0776376e-22)
(-200.09139 665.10653 9.1389784e-22)
(-149.02086 663.08116 -2.1312052e-21)
(-105.30633 666.57541 2.8507846e-21)
(-89.678187 666.05687 -4.111499e-21)
(-134.41102 671.53113 2.7116561e-21)
(-147.22664 674.60673 2.7056017e-21)
(-97.575509 676.26483 1.8226195e-22)
(-60.20389 677.17341 -1.6087548e-21)
(85.735866 696.25026 -4.076576e-25)
(132.0104 696.16135 3.931862e-25)
(162.26428 692.91859 0)
(179.51846 692.00962 -7.3767777e-25)
(179.87629 689.30313 0)
(177.61424 688.37469 -1.839146e-21)
(177.34294 687.05149 3.9103761e-21)
(178.74375 685.59828 -2.1046001e-21)
(180.7013 685.35557 0)
(183.691 683.81195 2.3620344e-21)
(185.64053 683.46149 -5.1389655e-21)
(188.14664 682.14065 2.8241994e-21)
(189.46297 681.7364 3.0167099e-21)
(190.3092 680.51391 -3.4704813e-23)
(189.86109 680.02159 -3.5987096e-21)
(189.33828 678.80128 0)
(187.27443 678.50807 1.2560518e-20)
(180.97973 661.37845 -1.7995643e-20)
(-286.59629 440.32627 -4.9446405e-24)
(-281.76938 460.45598 0)
(-277.87397 481.15981 1.992149e-26)
(-287.94064 492.08898 -5.866584e-24)
(-281.44531 506.49425 3.282345e-24)
(-261.97416 518.74811 0)
(-254.90417 534.28359 -4.2276073e-24)
(-255.58899 547.31219 2.4787508e-26)
(-241.75942 562.42336 2.6490839e-24)
(-220.21798 573.70965 -2.3949442e-24)
(-200.73955 582.81977 2.2399887e-24)
(-203.9552 599.28501 1.1591151e-29)
(-218.54398 602.39172 2.291806e-28)
(-210.17267 614.69042 -2.3475482e-24)
(-206.16414 617.2806 -1.6903e-24)
(-211.107 626.41952 1.5753579e-28)
(-220.24983 628.85284 1.2185325e-24)
(-224.71652 632.86402 9.9386247e-27)
(-225.94521 634.44965 -1.7325651e-28)
(-215.67851 639.32979 8.0037239e-25)
(-181.68512 639.69719 0)
(-146.64369 644.2569 0)
(-134.82075 644.90828 -1.7727712e-24)
(-159.07255 645.49285 1.1513823e-24)
(-163.85665 644.73617 0)
(-93.461847 646.29425 6.0599165e-25)
(-47.900484 643.96151 -5.5292129e-28)
(46.085698 673.33816 4.0513817e-25)
(105.49544 669.36121 -8.0387949e-25)
(137.05632 665.87635 4.0605732e-28)
(151.11902 663.39218 5.0770479e-27)
(151.66407 660.10703 -2.1271957e-25)
(148.55386 656.8104 2.2356765e-25)
(146.86712 653.51583 0)
(147.10625 650.23314 0)
(147.77885 647.68307 -1.3783282e-25)
(148.56674 645.01762 -5.5924372e-28)
(150.17504 643.45347 -1.5884777e-25)
(152.28599 641.68481 8.6408877e-26)
(153.52425 640.89402 -9.6176342e-26)
(154.32214 639.77984 3.835858e-30)
(154.19528 639.33755 1.1090204e-25)
(154.08629 638.50706 -9.3013037e-28)
(153.40184 638.30308 -6.4036022e-26)
(148.60941 621.98772 0)
(-241.71599 389.17071 -3.1242632e-22)
(-248.10858 406.29021 -3.7680625e-22)
(-259.66513 431.54784 3.4881798e-22)
(-284.0926 449.57715 5.8442736e-24)
(-289.40863 462.48443 -4.4557409e-22)
(-277.09768 474.25948 9.3617871e-22)
(-280.42103 488.66113 -5.5153743e-22)
(-289.44014 501.38079 -6.3461785e-22)
(-281.83776 517.98363 1.3538905e-21)
(-262.24688 531.02002 -5.868516e-22)
(-245.30004 543.59906 0)
(-249.14868 560.21756 0)
(-255.79266 564.85574 7.7320571e-24)
(-243.42796 582.83325 -1.1464881e-21)
(-240.41991 590.07017 8.5210683e-22)
(-241.41547 601.43111 6.5569979e-22)
(-240.80245 608.80105 -6.9420772e-22)
(-240.14486 616.30508 -7.2256271e-22)
(-235.77465 620.81967 8.0419464e-22)
(-223.35275 626.87458 9.7267683e-22)
(-188.99618 631.67283 -1.0308018e-21)
(-145.93316 637.74381 0)
(-129.80462 641.30722 1.7478342e-21)
(-147.90298 644.91123 -4.8947326e-21)
(-154.6944 643.42678 -1.3855199e-22)
(-103.32426 647.70065 2.6958896e-21)
(-67.67956 648.56892 -3.7661528e-21)
(-12.066128 681.85275 3.3146082e-21)
(46.4428 652.27168 3.8357569e-25)
(79.713198 644.80631 1.5294803e-21)
(102.79295 638.30119 -1.7140195e-21)
(112.11567 635.29499 2.0322165e-25)
(116.46912 632.88238 1.7934527e-21)
(119.96307 630.03071 -8.0718391e-24)
(123.36559 628.27213 -2.0582839e-21)
(128.0694 626.34857 1.3091839e-25)
(132.11139 625.41339 0)
(136.5113 623.88593 0)
(140.32497 623.19688 0)
(144.30112 622.01983 -3.0196268e-21)
(146.82899 621.46938 3.3303719e-21)
(149.36477 620.66896 -2.1772374e-25)
(150.49827 620.3565 0)
(151.63687 619.88127 -4.1961128e-21)
(147.87108 605.98004 5.2290896e-26)
(-216.94361 374.41462 0)
(-213.06493 370.41149 -9.4286565e-26)
(-213.00586 370.15848 7.2877869e-22)
(-241.44945 377.55362 -1.5189169e-21)
(-252.34895 393.92375 -1.0554129e-23)
(-252.63754 409.21864 9.3794014e-22)
(-274.84168 428.30199 1.0671416e-21)
(-293.74897 440.90269 -2.5495859e-21)
(-302.21663 457.72144 2.6409373e-21)
(-281.46726 476.24162 1.2211623e-22)
(-263.29724 484.84169 -1.13605e-21)
(-267.25689 505.21951 0)
(-293.92679 507.74327 -2.3731207e-23)
(-301.25148 521.69295 -2.1078371e-21)
(-300.87909 528.7131 5.9085611e-23)
(-301.93131 539.8119 5.9699961e-23)
(-300.38516 546.15591 2.5568604e-21)
(-294.23597 555.26497 -2.8670485e-21)
(-286.15299 561.31735 1.603057e-21)
(-266.3584 570.75212 1.9489438e-21)
(-235.83663 581.98066 -2.18139e-21)
(-200.75359 601.4462 0)
(-179.67843 617.5415 3.5256145e-21)
(-159.4724 632.10801 6.6369274e-23)
(-137.51859 633.57595 -4.7855844e-21)
(-52.856257 645.74339 5.7292499e-21)
(17.772706 607.17388 -5.971834e-21)
(9.1073534 597.46233 0)
(12.529857 596.47799 0)
(37.193826 596.23856 3.6006043e-21)
(86.896541 599.61206 -3.8750058e-21)
(120.77737 600.23917 3.451493e-21)
(142.75668 601.07489 -3.9280374e-21)
(153.96658 602.10412 1.4220454e-24)
(159.60514 602.30548 4.044335e-21)
(161.72713 602.59479 -2.2442465e-21)
(163.15164 602.42229 -4.7569227e-21)
(163.59569 602.52297 2.5890779e-21)
(163.94871 602.25975 0)
(163.8673 602.10203 3.7736284e-25)
(163.92778 601.77674 -3.3023462e-21)
(163.70774 601.61528 1.0766385e-20)
(163.52717 601.10816 -7.7219387e-21)
(162.76812 601.20951 -2.6529032e-25)
(158.18887 589.41921 0)
(-211.54097 364.59821 6.4781191e-22)
(-198.18179 362.50916 -6.293246e-22)
(-193.98605 359.87883 0)
(-210.94834 354.75629 0)
(-217.82694 357.21252 0)
(-214.4427 363.45561 2.9914195e-23)
(-235.20018 377.32659 3.4299028e-23)
(-263.0758 384.10369 -1.9903537e-23)
(-270.84194 398.1392 4.1411137e-23)
(-237.59003 420.71798 0)
(-222.84773 430.42385 -1.8342854e-23)
(-263.74367 459.0649 0)
(-293.74446 452.94057 2.0596824e-21)
(-305.5911 471.62741 -1.8471412e-21)
(-316.19991 476.39793 -5.0027177e-24)
(-322.33602 487.54834 -4.0877499e-24)
(-328.03987 492.04763 1.05993e-21)
(-327.94483 499.42861 -2.2866793e-21)
(-332.13465 502.57107 1.2820634e-21)
(-330.03136 508.90085 3.0173502e-24)
(-323.47619 509.89267 3.6341259e-24)
(-304.47572 515.24224 0)
(-275.48245 519.23724 -3.1686138e-21)
(-241.44651 533.42661 4.2445861e-21)
(-186.19423 552.0454 -5.8885089e-21)
(7.3671574 609.35398 3.6198594e-21)
(100.86784 605.34725 0)
(137.8207 602.69839 0)
(157.68894 599.12495 -2.3997093e-21)
(164.19956 594.0165 5.4642875e-21)
(162.43122 589.82116 -2.9114172e-21)
(157.63817 586.60983 1.5333167e-24)
(152.07183 582.80545 8.8900577e-25)
(145.6673 580.38902 -9.1937377e-25)
(143.76887 577.96543 -8.0924451e-21)
(143.77617 576.98679 8.246222e-23)
(144.08434 575.16558 4.5626242e-23)
(142.96299 574.4201 1.5486512e-20)
(142.6499 572.67605 -5.6065695e-21)
(140.94256 572.07644 6.1363528e-21)
(139.93292 570.50905 -2.0238208e-20)
(137.42881 569.88837 2.2314748e-20)
(136.49289 568.57041 8.3463974e-21)
(134.14181 568.15661 -1.833224e-20)
(129.55529 554.73123 -1.0059239e-20)
(-211.46795 364.60262 3.4572538e-23)
(-209.5293 354.95147 0)
(-195.19967 352.84841 -8.8494885e-23)
(-190.597 348.65826 4.5920333e-23)
(-206.62944 338.94276 0)
(-212.815 338.99413 -2.6274776e-23)
(-207.06496 340.80369 1.5378593e-26)
(-220.60896 347.17642 1.1045976e-25)
(-234.68599 350.28304 -1.9951797e-23)
(-228.24785 365.1774 -2.8018161e-21)
(-195.84221 370.22643 2.3390395e-21)
(-192.72592 380.25329 1.1764293e-24)
(-240.44597 391.0611 -3.1919725e-21)
(-253.27695 396.25321 4.2672239e-21)
(-256.52682 399.85103 0)
(-280.05292 401.61423 9.9021006e-24)
(-289.81954 408.57012 0)
(-298.12897 415.33294 -1.309252e-23)
(-298.84511 422.48278 0)
(-299.86946 428.7139 -3.0404085e-21)
(-290.47757 435.54245 7.8715709e-21)
(-273.92704 439.74519 -5.1429622e-21)
(-256.24779 443.51679 -6.811584e-21)
(-238.20316 446.40824 1.1044648e-20)
(-207.39231 450.49885 2.9862378e-22)
(-168.12065 451.25343 4.1623618e-22)
(-13.560774 473.89692 -3.6936023e-21)
(53.626985 489.69094 2.6381081e-21)
(98.423364 498.03906 -4.3303315e-22)
(125.92185 503.12922 -2.7624944e-21)
(143.07034 506.04413 -2.6559048e-21)
(142.95258 508.27237 5.8863802e-21)
(139.5546 508.96374 1.0007321e-22)
(132.73647 508.38238 1.6775506e-22)
(122.97957 508.11973 -3.8147041e-21)
(119.30625 507.61584 -8.4347461e-21)
(119.99745 507.65324 1.3662524e-20)
(120.06591 507.31241 -4.897502e-21)
(119.59121 507.21236 -6.6121241e-25)
(119.02777 506.44608 5.6925686e-21)
(117.78992 506.48932 -6.1780576e-21)
(116.75534 505.26804 0)
(114.97868 505.44921 -7.4649097e-21)
(113.86263 504.05873 8.2839593e-21)
(111.87233 504.36061 0)
(107.29483 492.24807 6.3057475e-25)
(-216.87248 352.53192 -1.1059302e-21)
(-206.62686 351.463 1.1940507e-21)
(-188.71491 350.85332 -1.3371862e-21)
(-180.66785 347.72755 -1.9659867e-23)
(-193.42959 335.82612 3.0320632e-21)
(-200.32178 333.52215 -1.6462105e-21)
(-195.41044 332.0276 -1.9114878e-21)
(-215.0733 328.68575 4.3370639e-21)
(-230.91714 330.91255 -2.5180166e-21)
(-221.93454 339.82576 0)
(-190.05934 349.96832 -3.8095463e-23)
(-191.273 364.23301 2.3654697e-21)
(-242.06477 363.47046 -3.3866198e-21)
(-255.09204 366.53788 0)
(-259.24978 370.98481 -2.8121952e-23)
(-282.37198 368.95586 -1.9544779e-23)
(-292.08042 370.88031 -2.0420497e-21)
(-301.49698 375.99698 7.0329456e-23)
(-304.99896 380.75563 2.3347842e-21)
(-307.6062 386.33255 2.8208265e-21)
(-300.03414 393.91031 -7.3966017e-21)
(-275.88919 403.30348 4.9283431e-21)
(-244.06295 415.19735 0)
(-228.71822 422.47942 -1.6280606e-23)
(-226.54847 430.45728 -8.8720842e-21)
(-185.40491 434.37626 7.4282075e-21)
(-18.104351 485.22972 6.4440112e-24)
(54.438127 503.40888 -4.8070249e-21)
(85.904574 508.22719 8.0573189e-22)
(108.16849 512.40065 1.0140946e-20)
(115.32942 511.71165 -1.0914593e-20)
(113.0058 509.87195 5.8377704e-21)
(106.04693 508.25832 6.5337409e-21)
(96.719629 504.07355 -6.9499879e-21)
(85.414111 502.57624 0)
(83.227154 499.29219 -8.4842214e-21)
(84.153137 498.57799 1.8363537e-20)
(84.869715 496.4704 -9.9052931e-21)
(83.595827 495.45866 -1.0602764e-20)
(83.15378 492.93769 1.1488175e-20)
(80.848418 492.24542 -1.2476156e-20)
(79.651056 489.53343 -6.2006924e-23)
(76.276154 488.74467 1.4921492e-20)
(75.099831 486.06192 1.0076678e-24)
(71.733997 485.25412 -1.8666225e-20)
(67.224522 468.3343 2.0603978e-20)
(-234.37973 317.17475 -1.0866922e-21)
(-231.98119 324.00067 1.1156129e-21)
(-216.20707 330.60236 -1.2172433e-21)
(-191.35977 336.27393 1.3489893e-21)
(-180.89688 338.93561 0)
(-188.97609 337.69543 1.4530194e-21)
(-191.82692 335.00172 -1.6677597e-21)
(-174.52813 335.69066 6.0248975e-23)
(-180.84474 330.20275 2.20089e-21)
(-206.12303 329.19074 3.0847719e-23)
(-203.23373 334.63114 -2.5505292e-21)
(-164.92365 345.2787 2.4632438e-21)
(-162.37169 353.66859 -1.8052465e-22)
(-220.67302 350.6472 -3.2673514e-21)
(-237.00577 348.52387 -4.2009846e-21)
(-238.21135 351.9436 4.0640892e-21)
(-253.97315 348.51022 1.1216893e-23)
(-272.79042 347.69142 2.374808e-21)
(-279.93955 345.34644 2.3827048e-21)
(-282.42176 345.52179 -8.1643854e-21)
(-281.68145 345.82249 9.6812894e-21)
(-265.00068 349.3581 -7.8035175e-21)
(-227.9167 355.63972 -5.6688586e-21)
(-192.23697 365.04733 6.6004367e-21)
(-178.51518 369.29536 3.1046171e-23)
(-192.18384 372.39999 -8.2989492e-21)
(-203.99767 376.50964 -9.755654e-21)
(-143.27787 405.87095 2.1212901e-20)
(-73.429935 465.63924 -1.6548608e-20)
(-3.125851 447.89772 1.2199569e-20)
(39.097582 443.39446 -4.8668728e-21)
(66.68937 445.08324 1.1052422e-20)
(71.600722 440.13488 -1.2990178e-22)
(69.288113 438.41612 -6.5297614e-21)
(64.938546 433.93313 -7.2553207e-21)
(62.00951 431.88342 1.0582983e-22)
(62.04587 427.63476 8.6152498e-21)
(57.92729 425.15394 -1.0969416e-24)
(54.847278 418.68056 0)
(47.675943 415.36115 0)
(43.184251 408.71884 2.4726609e-26)
(34.949869 404.28993 -1.249396e-20)
(30.31551 396.97629 2.6875887e-20)
(22.974037 392.05357 -2.9089941e-20)
(19.551918 383.48224 -8.9241955e-23)
(13.97369 377.82304 1.7687278e-20)
(11.693971 350.6268 5.8715129e-25)
(-245.71479 288.77262 1.0228228e-21)
(-246.18733 294.75142 -1.0465141e-21)
(-236.2495 302.77695 0)
(-208.73099 310.80402 0)
(-195.74218 316.46153 0)
(-196.06633 324.06108 -1.4988065e-21)
(-191.80121 327.28607 1.6670737e-21)
(-166.00777 334.51614 -6.0090489e-23)
(-169.95794 332.74546 0)
(-200.12421 326.34993 2.6534114e-21)
(-201.62739 330.00202 -2.5065282e-21)
(-160.44964 347.03332 0)
(-161.18577 365.43611 0)
(-205.95269 368.70541 4.8559217e-23)
(-216.30048 369.957 0)
(-210.02716 372.57147 7.964519e-21)
(-222.56335 368.47835 -5.942167e-21)
(-264.71844 357.53032 -1.9839993e-23)
(-281.60283 352.28762 1.0314777e-23)
(-287.17679 351.96282 0)
(-288.48552 352.19158 -7.76884e-21)
(-282.78484 355.43412 9.4764914e-21)
(-257.99725 362.22354 6.0992617e-21)
(-207.34734 374.89884 6.702585e-22)
(-139.70216 392.50058 -6.69153e-21)
(-55.239586 411.33315 -2.7865207e-23)
(-121.19935 406.32462 7.9454141e-21)
(-159.65319 402.20946 -7.7024448e-21)
(-50.669892 433.48053 -1.7306326e-25)
(-17.743575 437.63377 5.1243051e-24)
(13.792435 444.46411 -7.6117964e-24)
(14.051671 445.85912 -5.2585054e-21)
(5.458176 444.48601 1.1822078e-20)
(-15.02741 441.30574 -1.3088296e-20)
(-52.477253 434.04625 -5.0561547e-23)
(-91.21508 426.09051 1.5879754e-20)
(-98.44878 393.87866 -8.6603729e-21)
(-96.400997 361.55519 -9.1937942e-21)
(-98.570504 353.25139 9.9452137e-21)
(-99.543397 347.23634 0)
(-94.160391 327.75664 1.1599346e-20)
(-89.105165 310.61287 -1.2493848e-20)
(-81.129236 288.81669 -1.6623121e-24)
(-71.845937 262.93943 1.4803105e-20)
(-58.413851 223.98537 9.6714233e-23)
(-40.283236 160.47289 -3.6376301e-20)
(-16.105393 65.279698 2.008082e-20)
(-251.69038 267.20049 0)
(-250.01881 272.87223 -1.289788e-22)
(-253.51518 275.48876 2.1441136e-21)
(-250.03819 282.14677 -5.1368058e-21)
(-231.36206 288.00386 2.8758104e-21)
(-224.17173 292.24669 0)
(-228.7398 299.87362 4.6671102e-23)
(-217.66179 310.8415 0)
(-153.71018 334.83036 -3.8981994e-21)
(-126.95065 339.22666 4.4343308e-21)
(-149.63139 323.90169 -5.2360202e-21)
(-207.45984 321.12325 5.154515e-21)
(-220.58141 336.76772 3.3847203e-23)
(-240.292 352.12921 0)
(-243.40964 364.29145 -3.0851001e-21)
(-205.75427 379.28659 -4.0834674e-21)
(-192.25588 394.08021 8.6172542e-21)
(-180.66425 397.79108 -2.7199657e-23)
(-200.21472 397.12371 -5.1070875e-21)
(-227.18436 387.23666 7.9556491e-21)
(-245.8021 379.85913 -8.7305815e-21)
(-254.32804 374.60055 7.00564e-21)
(-270.78922 367.40959 -4.6945062e-21)
(-275.24262 363.39747 1.3117655e-20)
(-249.08145 362.14395 -6.6342269e-21)
(-172.23874 382.15583 -8.3627188e-24)
(-35.985096 417.81243 -3.7911088e-21)
(-46.947832 419.57442 5.1527252e-21)
(-173.75402 402.46394 -5.9500107e-24)
(-158.48827 411.4001 -5.8925024e-21)
(-154.94335 414.41197 4.2823146e-22)
(-193.81457 408.73575 1.1270391e-20)
(-211.31005 405.24451 -1.1281009e-20)
(-217.55935 404.64589 5.9640286e-21)
(-217.88752 405.55104 -2.9871203e-24)
(-201.56576 411.40914 -6.6753805e-24)
(-188.57704 414.81413 -7.6189151e-21)
(-169.53942 421.59535 -1.1928655e-22)
(-156.33743 422.29716 1.8031214e-20)
(-133.56411 425.48148 -9.723487e-21)
(-120.67495 423.16604 0)
(-105.78334 440.79944 -1.1128924e-20)
(-86.823461 443.77253 1.2304584e-20)
(-75.976398 446.15145 0)
(-68.294992 448.20654 8.7803435e-25)
(-67.262782 447.93652 -1.5498067e-20)
(-66.312729 448.5003 1.6944044e-20)
(-62.609011 413.18718 1.824857e-20)
(-240.79063 248.79026 0)
(-247.66341 256.04606 0)
(-246.19263 261.09794 1.2897641e-22)
(-252.54289 264.20747 0)
(-252.20677 268.69163 -2.669756e-21)
(-238.20329 273.75483 -1.3394504e-22)
(-233.87672 276.99168 3.0109616e-21)
(-246.36852 275.51592 0)
(-248.41125 276.02455 0)
(-184.02363 298.41446 3.9335341e-21)
(-108.24132 335.64267 -4.5875684e-21)
(-70.857398 345.8039 7.9866892e-23)
(-184.5019 328.79363 4.778233e-21)
(-241.71513 325.75822 -4.7273942e-21)
(-262.52963 332.91253 -3.7738176e-23)
(-264.48316 349.1898 5.6517472e-21)
(-270.47434 357.17624 4.8272552e-22)
(-272.37024 371.76758 -8.6400225e-21)
(-232.00307 383.62438 7.8864757e-21)
(-204.41039 395.55126 -9.5951644e-23)
(-200.53099 401.52571 -2.5714812e-22)
(-203.70116 404.24392 -1.2153871e-22)
(-170.00101 418.3262 -9.078829e-21)
(-158.13376 422.64944 1.3308227e-23)
(-160.96554 426.26473 0)
(-179.00586 421.78832 0)
(-182.5112 422.29164 1.4174714e-23)
(-176.05618 426.67677 -6.5708175e-21)
(-159.45016 431.98716 -1.5735341e-23)
(-154.62736 432.21777 7.7160902e-21)
(-192.23646 418.24531 0)
(-215.4066 415.11242 5.2319576e-24)
(-240.83214 406.04327 5.4642827e-24)
(-256.47682 402.30439 3.0233632e-24)
(-262.49461 399.41252 7.3855373e-24)
(-263.01665 398.21446 4.2702736e-24)
(-251.55255 398.09459 4.7201325e-24)
(-246.66424 399.35488 0)
(-245.69509 398.62201 -4.7269247e-24)
(-249.14681 396.677 -2.3100916e-24)
(-249.61915 396.06012 2.3712767e-24)
(-231.47718 399.82418 2.4817707e-24)
(-194.72894 409.67329 2.7298091e-20)
(-155.39709 418.92 -2.8087407e-20)
(-138.4054 423.34641 0)
(-133.77801 422.44182 1.8609523e-24)
(-132.46095 420.86821 0)
(-102.49709 422.40401 1.1679292e-24)
(-81.303587 351.81487 3.2462173e-26)
(-257.13219 223.8631 1.4478261e-21)
(-256.42179 227.05223 0)
(-257.68133 239.32959 1.2545741e-22)
(-253.01866 247.34716 0)
(-256.00568 252.55029 0)
(-250.36988 258.80232 7.9426458e-23)
(-237.03324 266.21091 0)
(-232.80011 270.27055 1.2865212e-25)
(-249.16224 270.68066 0)
(-253.26019 271.74207 -3.4507093e-21)
(-219.01511 290.57503 3.8276321e-21)
(-205.51711 299.67685 -4.3534139e-21)
(-207.78045 310.61503 -1.3847087e-22)
(-210.42147 311.97652 5.0801958e-21)
(-206.48042 315.53066 3.5757114e-23)
(-208.43353 315.89129 4.7901495e-21)
(-182.85341 329.42277 -5.8603554e-21)
(-111.08369 349.17567 0)
(-99.685828 387.04206 -8.6606281e-21)
(-238.33938 377.21843 6.5862549e-21)
(-267.44214 378.41206 5.2528984e-21)
(-278.20021 383.62078 -7.0914558e-23)
(-280.13275 389.6401 -5.8189762e-21)
(-278.27111 393.32278 2.9551984e-23)
(-281.72544 396.89898 2.4468287e-25)
(-271.99052 406.50053 0)
(-244.282 414.18766 1.3222585e-20)
(-217.62617 423.97856 -8.26954e-21)
(-192.45396 431.74672 1.2343895e-23)
(-167.60984 442.67555 7.7123141e-21)
(-110.2962 453.71893 -1.6982029e-20)
(-98.740517 458.9894 1.0088141e-20)
(-96.422176 463.943 0)
(-102.27257 464.4303 0)
(-134.79072 455.5142 0)
(-162.30676 449.46393 -2.8452341e-24)
(-139.2655 463.53863 0)
(-123.87 463.10218 0)
(-95.714936 467.53812 -1.6225524e-20)
(-77.234875 472.60209 4.9384226e-22)
(-67.718772 473.63787 3.5191623e-20)
(-63.465964 474.32209 -1.9156565e-20)
(-61.963108 472.94656 -5.5704932e-24)
(-62.687119 471.07258 2.243964e-20)
(-62.753508 469.1884 1.3248783e-22)
(-62.918613 466.93071 -2.6334349e-20)
(-61.4658 466.17941 2.8817608e-20)
(-61.2716 464.44367 -3.1327347e-20)
(-59.810209 464.05257 -1.4443846e-24)
(-56.840557 444.26633 -2.7187362e-24)
(-263.72854 214.75652 3.3017446e-21)
(-274.93215 211.95445 -2.087647e-21)
(-281.56194 218.02475 4.7369604e-26)
(-277.12706 229.62603 0)
(-277.86285 237.66115 0)
(-268.12129 245.84735 0)
(-250.59553 255.73307 0)
(-244.93657 261.41375 -9.122892e-23)
(-256.28131 264.10035 0)
(-259.32514 264.90726 -1.0482488e-22)
(-227.88206 278.49253 1.2146311e-22)
(-216.9183 284.20266 0)
(-224.36381 288.09032 -4.9392272e-21)
(-233.55362 290.39272 2.4720165e-22)
(-249.68031 292.79187 4.8144796e-21)
(-256.03923 295.06923 7.4730208e-23)
(-231.27918 313.35769 0)
(-180.76043 331.49868 0)
(-70.224885 383.5626 -8.4389114e-21)
(-203.00428 366.52293 6.9220718e-21)
(-243.81443 363.03545 2.0236804e-23)
(-253.78292 366.54743 1.9474879e-23)
(-254.77987 376.37234 -6.0076648e-21)
(-222.0361 389.00904 7.2423652e-21)
(-203.13214 408.87529 -4.035824e-23)
(-191.46721 414.0264 0)
(-209.27822 420.01153 -6.2131966e-21)
(-246.44794 410.35058 6.4510324e-21)
(-258.51669 410.61247 -7.6183337e-24)
(-260.11134 414.16634 7.304942e-21)
(-249.45039 420.69799 -7.5393673e-21)
(-228.24608 430.62472 -4.2722645e-24)
(-199.11215 439.42276 -9.8122634e-21)
(-186.71998 443.60826 1.2254754e-20)
(-182.72118 436.17098 0)
(-175.49828 436.27623 1.414881e-20)
(-155.21445 445.25049 -2.7303557e-20)
(-137.76805 444.1402 1.5348926e-20)
(-116.27257 448.0881 2.0955196e-25)
(-104.69726 453.53249 2.1007853e-20)
(-88.402728 456.62404 -4.335518e-20)
(-78.039232 461.37903 4.3439816e-20)
(-67.671201 463.44699 -2.2549094e-20)
(-60.276494 466.6454 -2.3050146e-20)
(-53.308934 468.50537 2.5063692e-20)
(-49.411474 470.30043 -2.6608836e-20)
(-44.979293 470.95381 2.9251398e-20)
(-42.903159 472.00559 3.1726988e-20)
(-40.450309 472.21761 -6.8980467e-20)
(-39.017446 457.68435 3.7195851e-20)
(-257.49043 201.66603 1.9517787e-22)
(-256.15163 205.16174 0)
(-279.71318 206.40718 4.561307e-22)
(-288.5674 204.07149 -3.7534943e-22)
(-293.39712 211.90041 -1.2908632e-22)
(-300.97318 215.9096 0)
(-296.30447 232.43114 2.7458261e-21)
(-274.38893 243.83671 -2.9557045e-21)
(-267.26423 255.00813 -9.1046502e-23)
(-272.90968 263.46234 3.1837611e-21)
(-267.72787 271.93349 -3.3321575e-21)
(-237.38814 284.75909 -3.9741975e-21)
(-230.4161 290.65248 4.5719818e-21)
(-259.05934 285.14532 1.0143592e-20)
(-277.78796 278.76163 -1.028201e-20)
(-283.90418 279.76906 -4.8028297e-21)
(-270.81839 290.78679 4.444766e-21)
(-220.81872 311.59351 0)
(-174.73117 337.66882 8.0170798e-21)
(-167.83626 349.63723 -1.8345505e-20)
(-207.12528 335.89831 1.3131571e-22)
(-218.01038 337.44536 5.7037949e-21)
(-202.78014 357.16681 5.8088602e-21)
(-196.81943 360.59417 -7.0713238e-21)
(-233.72088 361.44292 -3.515873e-23)
(-241.8217 371.39133 4.7521165e-23)
(-234.44652 382.01969 -1.4405373e-20)
(-255.07005 390.92903 1.3677329e-20)
(-267.11078 387.80791 4.020674e-23)
(-268.69911 388.73645 -9.2390307e-21)
(-246.17969 404.5782 8.7826037e-21)
(-220.97413 413.08086 -9.2576263e-24)
(-212.17241 429.87921 1.4071886e-20)
(-212.14371 440.53497 -4.4497805e-20)
(-195.08772 459.93101 2.14372e-20)
(-190.32956 467.84177 1.697638e-20)
(-155.35119 443.50725 -3.1303733e-20)
(-138.69407 449.3167 1.6312271e-20)
(-127.2041 448.64377 -1.7137913e-20)
(-122.13989 447.60133 1.7979987e-20)
(-119.59522 445.23859 -2.0366804e-20)
(-113.12274 444.26852 2.1906099e-20)
(-102.40475 447.91278 -2.6460267e-24)
(-81.835102 452.71866 2.290001e-20)
(-65.918243 458.91143 -4.9017885e-20)
(-50.061209 462.95644 1.2256952e-21)
(-39.777137 467.2828 2.9519037e-20)
(-30.833307 469.32569 0)
(-26.59679 471.41176 2.3106187e-24)
(-22.23025 471.63488 0)
(-21.53213 456.58976 4.5210127e-20)
(-251.71006 168.24976 1.3757606e-21)
(-238.76652 181.55107 -1.5819032e-21)
(-237.89243 192.27438 3.092719e-21)
(-269.31082 199.87072 -3.6836921e-21)
(-288.14574 195.05282 2.2485147e-21)
(-298.08923 204.43182 1.2423586e-25)
(-311.24976 207.28471 0)
(-313.93513 221.39158 -5.3356787e-21)
(-302.67792 230.91953 9.0970755e-23)
(-300.08679 237.00966 6.098529e-21)
(-306.18374 239.54356 -3.1749273e-21)
(-300.03992 254.31641 -5.7480155e-23)
(-255.5778 271.89843 7.6231946e-21)
(-241.29443 283.37924 -4.5866219e-21)
(-249.61497 289.96057 -5.1244974e-21)
(-286.43581 272.47809 5.1914976e-21)
(-301.64186 269.17743 6.9599361e-23)
(-306.12824 266.46547 -4.3731277e-21)
(-286.55277 277.03748 5.066741e-21)
(-251.09581 291.81913 0)
(-207.22373 314.03694 0)
(-190.36068 321.61861 0)
(-207.04851 311.82781 0)
(-211.28081 310.03189 -1.9721228e-23)
(-180.39822 331.24323 0)
(-175.9005 336.64611 -9.4976566e-26)
(-191.226 332.97163 -2.463104e-23)
(-191.78905 352.54124 -8.7541625e-21)
(-203.21969 369.98569 1.3815694e-23)
(-252.33133 371.09733 6.1696476e-21)
(-274.5222 368.74882 6.2646034e-21)
(-299.03382 364.63892 -7.3989638e-21)
(-308.82038 364.93303 -7.800523e-21)
(-311.40923 367.43829 1.7179371e-20)
(-292.55891 384.291 -9.6397017e-21)
(-250.90078 403.9636 -1.4685085e-20)
(-183.21803 475.38693 1.9281994e-20)
(-113.84527 466.50171 -2.3251622e-20)
(-67.464325 475.25562 2.271082e-20)
(-44.314991 473.6112 1.1573402e-25)
(-31.513647 474.87036 0)
(-25.375157 471.37525 -1.6704543e-20)
(-26.398852 468.16996 1.8131368e-20)
(-27.972231 463.41198 4.9855866e-24)
(-31.494366 459.23778 1.1606449e-25)
(-31.098866 455.64277 -2.4531941e-20)
(-27.524483 454.12657 5.6609346e-20)
(-21.768064 454.06698 -3.285733e-20)
(-14.515683 453.66987 0)
(-9.4752958 453.79195 0)
(-5.4914174 452.57118 -3.968866e-20)
(-6.3764603 438.4113 8.3416155e-20)
(-248.16847 130.46438 -3.3709057e-22)
(-236.66131 133.25285 1.4148537e-21)
(-215.80946 150.50974 4.7476222e-23)
(-208.34279 163.84853 -1.4484414e-21)
(-230.96557 179.60611 -2.0501385e-21)
(-264.8031 179.67354 2.2457758e-21)
(-280.33411 187.98314 2.2295809e-25)
(-305.57066 195.32013 -2.3642305e-21)
(-311.73417 210.59705 2.5297182e-21)
(-308.15496 224.00215 5.6441691e-21)
(-308.84495 229.53412 -6.0023943e-21)
(-322.80737 227.74322 -2.8901467e-21)
(-325.28646 229.89854 -1.2836243e-22)
(-298.04482 247.81926 3.9116161e-21)
(-288.64185 252.59405 -4.367049e-21)
(-291.0537 257.43498 1.8854714e-22)
(-294.7619 257.55731 5.5930009e-23)
(-290.90696 261.81075 4.6872022e-21)
(-286.63167 261.15555 0)
(-278.83266 263.33911 0)
(-261.0134 275.67825 8.3348212e-21)
(-242.9558 285.28268 -1.8253437e-20)
(-235.81341 290.67294 1.3007844e-22)
(-235.30183 292.99732 5.837429e-21)
(-230.87414 292.75535 2.2967299e-23)
(-219.57513 296.83438 2.5371059e-23)
(-215.18271 297.2189 -7.2989708e-21)
(-208.3924 296.75203 8.4344118e-21)
(-183.65034 300.04697 0)
(-94.553155 336.01054 9.0456558e-26)
(-81.233177 345.40846 1.6386614e-20)
(-112.3015 326.64483 -4.3265227e-23)
(-191.72823 271.54831 -4.598072e-20)
(-187.79589 273.64844 4.5444553e-20)
(-154.14169 289.1841 -2.126645e-20)
(-131.32119 286.5154 -2.4151055e-20)
(-98.566003 311.823 2.6585598e-20)
(-69.49969 320.19165 -2.5659185e-20)
(-47.092951 333.33991 2.4710481e-20)
(-29.838288 339.60704 0)
(-17.854405 347.38483 5.8204545e-24)
(-10.391941 350.63136 0)
(-7.0463489 354.20295 6.1835972e-24)
(-7.9927448 354.51624 2.6323948e-20)
(-10.974271 353.93198 -2.7515614e-20)
(-17.096564 352.02228 7.1460456e-24)
(-25.090698 349.27289 3.732045e-24)
(-35.510822 345.60153 -3.9462015e-24)
(-44.457641 342.45764 -3.623647e-20)
(-52.83246 339.77281 -6.8430189e-22)
(-56.843787 338.72838 -4.5229247e-22)
(-59.780505 338.38327 4.1859817e-20)
(-57.868226 324.92073 2.3773961e-24)
(-259.94044 100.03671 -2.4330387e-21)
(-238.20515 108.44487 1.3545363e-21)
(-228.40349 112.07316 -1.3776729e-21)
(-208.00416 127.81712 0)
(-193.83216 138.72714 -1.6415728e-21)
(-198.74794 148.7984 2.0821798e-21)
(-215.62743 150.86997 -2.4902105e-22)
(-229.57717 159.1601 2.1832794e-21)
(-261.57318 161.64767 -2.0961639e-21)
(-274.79815 174.46961 2.7420175e-21)
(-282.6222 189.85463 4.442391e-23)
(-293.11613 201.85053 -5.5335698e-21)
(-311.16691 195.80771 2.9430214e-21)
(-316.24829 198.52679 0)
(-300.91097 211.76501 -4.1178183e-21)
(-296.77195 215.29393 4.5165509e-21)
(-309.05905 212.01749 4.9975348e-21)
(-312.64516 211.5169 -5.1462684e-21)
(-301.83062 218.6061 -4.6996186e-21)
(-297.77294 223.14392 4.6248202e-21)
(-296.11978 226.75614 5.627546e-21)
(-282.57383 233.72369 -8.1034109e-21)
(-267.1135 248.1662 9.2049573e-21)
(-257.82363 255.40204 -7.2165891e-21)
(-260.30432 263.32844 -4.5137371e-23)
(-253.89158 269.13236 -5.8870111e-21)
(-233.81911 283.39582 -6.3168522e-23)
(-223.53929 287.05689 7.3430065e-21)
(-206.73639 299.07713 3.24755e-23)
(-194.7304 299.10039 0)
(-111.29715 317.80149 4.914415e-23)
(-121.67045 317.13793 1.7095365e-20)
(-124.41658 322.54755 1.9363589e-22)
(-107.49509 329.82469 -2.5857109e-20)
(-82.258491 332.42158 0)
(-68.493103 338.05721 -2.1559581e-23)
(-56.938097 339.9286 -2.3339731e-23)
(-46.548161 343.50698 -1.1995344e-23)
(-33.304678 346.14005 -2.3794688e-23)
(-23.064342 350.99737 2.3177143e-20)
(-13.813274 354.08642 -2.2788592e-20)
(-8.1205996 357.38522 -1.0932619e-23)
(-4.3582745 358.10297 5.5912481e-24)
(-2.7287728 359.1867 2.3597476e-20)
(-1.2119093 358.85847 -2.4672579e-20)
(-0.18401436 359.39471 0)
(1.571004 359.14949 -3.6177045e-24)
(2.8814657 359.77464 -7.969781e-24)
(5.4600097 359.78643 3.6070855e-20)
(7.1429295 360.64984 -1.3583964e-22)
(9.7438181 360.75538 -8.0879756e-20)
(10.753719 361.36692 4.2341003e-20)
(12.48079 361.28179 2.5980583e-24)
(12.34039 352.04965 4.6293773e-20)
(-271.51205 87.826816 2.4279081e-21)
(-249.91509 86.794286 1.1061418e-22)
(-233.14235 97.316223 -2.6147882e-21)
(-227.66152 105.53235 2.8365813e-21)
(-212.97878 117.52165 -3.0577469e-21)
(-199.01767 123.84282 2.0946757e-22)
(-198.76588 126.70421 -2.2710269e-21)
(-204.40443 128.20301 2.6791185e-22)
(-207.30713 138.65534 2.0840408e-21)
(-219.14717 140.71476 -2.3720482e-21)
(-220.9351 143.31934 2.3654892e-21)
(-215.14567 146.10291 0)
(-220.7536 152.69572 -1.8100004e-22)
(-252.72615 144.46634 0)
(-261.38878 147.9011 0)
(-251.62417 166.8364 1.2214981e-22)
(-262.07622 177.97311 0)
(-288.17158 169.49617 0)