/*--------------------------------*- C++ -*----------------------------------*\
| =========                 |                                                 |
| \\      /  F ield         | OpenFOAM: The Open Source CFD Toolbox           |
|  \\    /   O peration     | Version:  2506                                  |
|   \\  /    A nd           | Website:  www.openfoam.com                      |
|    \\/     M anipulation  |                                                 |
\*---------------------------------------------------------------------------*/
FoamFile
{
    version     2.0;
    format      ascii;
    arch        "LSB;label=32;scalar=64";
    class       surfaceScalarField;
    location    "0.024";
    object      phi;
}
// * * * * * * * * * * * * * * * * * * * * * * * * * * * * * * * * * * * * * //

dimensions      [1 0 -1 0 0 0 0];

oriented        oriented;

internalField   nonuniform List<scalar> 
27214
(
0.0014334444
-0.00089140511
0.0016042908
-0.00098443807
0.0017919552
-0.0010871038
0.0019979827
-0.0012004445
0.0022240878
-0.0013257078
0.0024720852
-0.0014640036
0.0027440087
-0.0016170864
0.0030420926
-0.0017867746
0.0033687163
-0.001974683
0.0037264775
-0.0021831011
0.0041181401
-0.0024141747
0.004546649
-0.0026704573
0.0050150869
-0.0029545644
0.0055267143
-0.0032696969
0.0060848534
-0.0036187449
0.0066928933
-0.0040052376
0.0073542496
-0.0044329386
0.0080723668
-0.0049055562
0.0088509517
-0.0054286141
0.0096940015
-0.0060084112
0.010605629
-0.0066528501
0.011591336
-0.0073723401
0.01265818
-0.0081797739
-2.7161953e-07
-2.767686e-06
-3.2917815e-07
-9.2065718e-06
-5.2211647e-08
-1.725226e-05
8.1346777e-07
-2.7155051e-05
2.4592157e-06
-3.9195276e-05
5.2143006e-06
-5.3526558e-05
9.2931176e-06
-6.9874703e-05
1.4959963e-05
-8.7803401e-05
2.2330776e-05
-0.00010687963
3.1559335e-05
-0.00012696203
4.274917e-05
-0.00014828353
5.6051041e-05
-0.00017096977
7.1596959e-05
-0.00019516559
8.9550595e-05
-0.00022120247
0.00011010611
-0.00024937064
0.00013346438
-0.00027998108
0.0001598662
-0.00031336717
0.0001895605
-0.00034980158
0.00022281329
-0.00038942715
0.0002599111
-0.00043278314
0.00030119025
-0.00048040073
0.00034698212
-0.00053245418
0.0003976522
-0.00058954324
0.00045360023
-0.00065226319
0.00051522633
-0.00072097457
0.00058298557
-0.00079656565
0.00065733082
-0.00087955855
0.00073876139
-0.00097084435
0.00082779918
-0.0010713407
0.00092497379
-0.0011820015
0.0010308172
-0.0013039048
0.0011458971
-0.0014383018
0.0012707782
-0.0015863082
0.0014060509
-0.0017497051
0.0015523059
-0.0019303191
0.0017100877
-0.0021297265
0.0018799225
-0.0023502073
0.0020622744
-0.0025938534
0.0022575289
-0.0028631505
0.0024659778
-0.0031606376
0.0026878284
-0.0034894557
0.0029231945
-0.0038524248
0.0031720583
-0.0042531465
0.0034344242
-0.0046955724
0.0037105781
-0.005183627
0.0040011808
-0.0057232322
0.0043073497
-0.0063212343
0.0046316997
-0.0069864213
0.0049780094
-1.4248237e-06
-2.482345e-06
-3.1320193e-06
-8.3706761e-06
-5.3551807e-06
-1.5848051e-05
-7.8445696e-06
-2.5183152e-05
-1.0850229e-05
-3.6675191e-05
-1.4151997e-05
-5.0500796e-05
-1.7888054e-05
-6.6410824e-05
-2.1878514e-05
-8.3971268e-05
-2.6188065e-05
-0.0001027415
-3.0705153e-05
-0.00012256
-3.5477139e-05
-0.0001436359
-4.0468647e-05
-0.00016608682
-4.5705162e-05
-0.00019004453
-5.1194243e-05
-0.00021583789
-5.6955547e-05
-0.00024374015
-6.3033985e-05
-0.00027405853
-6.9448673e-05
-0.00030711924
-7.62678e-05
-0.00034318185
-8.3524914e-05
-0.0003823895
-9.1298659e-05
-0.00042526734
-9.9667901e-05
-0.00047232537
-0.00010872892
-0.00052373645
-0.00011860049
-0.00058007465
-0.00012942556
-0.00064191233
-0.00014136726
-0.00070960115
-0.00015462299
-0.00078398742
-0.00016943286
-0.00086556852
-0.00018606495
-0.0009551982
-0.00020485418
-0.0010537392
-0.00022615155
-0.001162109
-0.00025034672
-0.0012813015
-0.00027795318
-0.0014125045
-0.00030957213
-0.0015567406
-0.00034592903
-0.001715671
-0.00038789549
-0.0018909835
-0.00043650369
-0.0020841029
-0.00049300046
-0.002297103
-0.0005588571
-0.0025318588
-0.00063581302
-0.0027905888
-0.00072590687
-0.0030755333
-0.00083150428
-0.003389506
-0.0009553084
-0.0037350055
-0.0011001492
-0.004115357
-0.001268874
-0.004534385
-0.0014645322
-0.0049959683
-0.0016901531
-0.0055061889
-0.0019483247
1.320754e-06
-1.9685282e-06
1.362687e-06
-6.7399756e-06
1.1426425e-07
-1.2916048e-05
-2.9331124e-06
-2.0760515e-05
-7.6827506e-06
-3.0571729e-05
-1.4538866e-05
-4.2539372e-05
-2.3375753e-05
-5.6481589e-05
-3.4407671e-05
-7.2019238e-05
-4.7480226e-05
-8.8748378e-05
-6.2697884e-05
-0.00010650538
-8.0017278e-05
-0.00012545797
-9.9563831e-05
-0.0001457017
-0.00012139154
-0.00016734781
-0.00014564621
-0.00019068925
-0.0001724875
-0.00021596508
-0.00020210213
-0.0002434565
-0.00023473307
-0.00027345295
-0.00027062256
-0.00030619234
-0.00031005675
-0.00034180158
-0.00035334956
-0.00038075337
-0.0004008857
-0.00042350651
-0.00045305645
-0.00047021563
-0.00051031271
-0.00052139927
-0.00057316612
-0.00057757134
-0.00064216643
-0.00063903679
-0.00071795362
-0.00070656369
-0.00080121595
-0.00078058686
-0.00089274915
-0.00086186884
-0.0009934362
-0.00095117633
-0.0011042976
-0.0010493135
-0.0012264924
-0.0011571612
-0.0013613099
-0.0012757594
-0.0015101947
-0.0014059873
-0.0016748071
-0.0015493052
-0.0018570412
-0.0017071739
-0.0020590147
-0.0018808084
-0.0022831466
-0.0020719956
-0.002532152
-0.0022823245
-0.0028090676
-0.0025137165
-0.0031172659
-0.0027680981
-0.0034604589
-0.0030479514
-0.0038426175
-0.0033555191
-0.0042679828
-0.0036938553
-0.0047409923
-0.0052659559
-6.4518972e-07
-1.3903048e-06
-2.494005e-06
-4.8562228e-06
-5.8732677e-06
-9.4508244e-06
-1.1007487e-05
-1.5414926e-05
-1.8285694e-05
-2.3017147e-05
-2.8000158e-05
-3.2445461e-05
-4.0462085e-05
-4.3582449e-05
-5.5831001e-05
-5.6132191e-05
-7.4241949e-05
-6.9761682e-05
-9.5780656e-05
-8.4322344e-05
-0.00012059304
-9.9940829e-05
-0.00014884147
-0.00011668588
-0.00018070672
-0.00013465408
-0.000216433
-0.00015407723
-0.00025629127
-0.00017516015
-0.00030061298
-0.00019813433
-0.0003497586
-0.00022324595
-0.00040414292
-0.00025069312
-0.00046417638
-0.00028059366
-0.00053036648
-0.00031333663
-0.00060327462
-0.00034931543
-0.00068349898
-0.00038866057
-0.00077171106
-0.00043180871
-0.00086866984
-0.00047919638
-0.00097517573
-0.00053108313
-0.0010921623
-0.00058811149
-0.0012206259
-0.00065065191
-0.0013616904
-0.00071934782
-0.0015166065
-0.00079483761
-0.0016867547
-0.0008778053
-0.0018736646
-0.00096898215
-0.0020790423
-0.0010692416
-0.0023047238
-0.0011793347
-0.0025528121
-0.0013004649
-0.0028256235
-0.0014338837
-0.0031256811
-0.0015806078
-0.003455758
-0.0017421759
-0.00381884
-0.0019199655
-0.0042181358
-0.0021156666
-0.0046569585
-0.0051387401
-0.0056668605
3.3956446e-07
-8.5175501e-07
-5.8211577e-07
-3.0708775e-06
-3.0135955e-06
-6.1147418e-06
-7.4063229e-06
-1.0180892e-05
-1.4053163e-05
-1.5495182e-05
-2.3439938e-05
-2.2231877e-05
-3.5821084e-05
-3.0341466e-05
-5.1498036e-05
-3.9621345e-05
-7.0562134e-05
-4.9824564e-05
-9.3171719e-05
-6.082918e-05
-0.00011946007
-7.2717277e-05
-0.00014963332
-8.5538366e-05
-0.00018389001
-9.9366657e-05
-0.00022250161
-0.00011437733
-0.00026578383
-0.00013072942
-0.00031409519
-0.00014860625
-0.00036785758
-0.00016820321
-0.00042751336
-0.00018968428
-0.00049354518
-0.000213143
-0.00056649447
-0.00023889538
-0.00064699912
-0.0002672499
-0.00073570614
-0.00029832125
-0.00083335018
-0.00033246288
-0.00094075529
-0.00037002108
-0.0010587845
-0.00041121621
-0.0011884301
-0.00045656482
-0.0013307448
-0.00050637392
-0.0014869107
-0.00056116281
-0.0016582129
-0.00062146384
-0.0018460762
-0.00068782686
-0.0020520321
-0.0007608757
-0.0022777687
-0.00084133179
-0.0025250898
-0.00092982964
-0.0027959628
-0.0010274085
-0.0030925394
-0.0011351282
-0.0034170215
-0.0037717494
-0.0041590967
1.3434996e-06
-5.4575301e-07
1.7417452e-06
-1.9888381e-06
1.1125321e-06
-4.0005049e-06
-1.1244624e-06
-6.7341293e-06
-5.0519659e-06
-1.0369007e-05
-1.1234218e-05
-1.5053182e-05
-1.9789683e-05
-2.0780092e-05
-3.1103272e-05
-2.7423847e-05
-4.5200071e-05
-3.4816995e-05
-6.2281113e-05
-4.2874049e-05
-8.2423439e-05
-5.1653228e-05
-0.00010582271
-6.1194956e-05
-0.00013263295
-7.1557305e-05
-0.00016307437
-8.2875156e-05
-0.00019740594
-9.5275585e-05
-0.00023590461
-0.0001089013
-0.00027891936
-0.00012391363
-0.00032678715
-0.00014044644
-0.00037989405
-0.00015858939
-0.00043864852
-0.00017859383
-0.0005035502
-0.00020071227
-0.00057507226
-0.00022505792
-0.00065377094
-0.0002519202
-0.00074024135
-0.00028159185
-0.0008351026
-0.00031427567
-0.00093905405
-0.00035040243
-0.0010528198
-0.001177189
-0.0013130168
-0.0014612033
-0.0016227128
-0.0017985622
-0.0019897781
-0.0021974757
-1.1168657e-06
-1.6545529e-06
-1.8713687e-06
-1.5965108e-06
-1.289595e-06
-9.583217e-07
-1.0606771e-06
-1.6421537e-06
-3.0124858e-06
-5.1936034e-06
-8.3675667e-06
-1.2566721e-05
-1.7906437e-05
-2.4448866e-05
-3.2280137e-05
-4.1485106e-05
-5.2141897e-05
-6.4344243e-05
-7.8161815e-05
-9.3686095e-05
-0.00011100182
-0.00013018652
-0.00015132187
-0.00017447117
-0.00019970745
2.5325009e-08
3.387574e-06
1.035254e-07
1.1334021e-05
2.4916268e-07
2.1345862e-05
4.791579e-07
3.3776102e-05
8.1292049e-07
4.9025834e-05
1.2708703e-06
6.7339469e-05
1.8698296e-06
8.8418314e-05
2.6219209e-06
0.00011172822
3.5362232e-06
0.00013673262
4.6201132e-06
0.00016324156
5.8833451e-06
0.00019155168
7.3357039e-06
0.00022181438
8.9885718e-06
0.00025421759
1.0856037e-05
0.00028919503
1.2954273e-05
0.00032712359
1.5302368e-05
0.00036842046
1.7922444e-05
0.00041353574
2.0838926e-05
0.00046282732
2.4077654e-05
0.00051649274
2.766994e-05
0.00057524894
3.1650098e-05
0.00063979216
3.6055231e-05
0.00071034959
4.0926936e-05
0.0007876997
4.6312204e-05
0.00087260911
5.22597e-05
0.00096552528
5.8826779e-05
0.0010675818
6.6073352e-05
0.0011794053
7.4065776e-05
0.0013021097
8.2878806e-05
0.0014367948
9.2592738e-05
0.0015846102
0.00010329483
0.0017468017
0.00011508215
0.001924835
0.00012805701
0.0021199182
0.00014233557
0.0023340935
0.00015804434
0.002569392
0.00017531873
0.0028274359
0.0001943089
0.0031106842
0.00021517534
0.0034212586
0.00023809538
0.0037617183
0.00026325878
0.0041345864
0.00029087392
0.0045430912
0.00032116457
0.0049899144
0.00035437231
0.0054785746
0.00039076085
0.0060127604
0.00043060817
0.0065956838
0.00047421578
0.0072324119
0.0005219054
0.0079281008
0.00057401313
0.0086887226
0.0095219082
3.9449889e-09
3.3630889e-06
6.9649153e-08
1.1252032e-05
2.0882466e-07
2.1191404e-05
4.4475918e-07
3.3531844e-05
7.9239865e-07
4.8671434e-05
1.2773217e-06
6.6853519e-05
1.9145667e-06
8.778141e-05
2.7234259e-06
0.00011092403
3.713669e-06
0.00013574831
4.8988221e-06
0.00016206518
6.2905252e-06
0.0001901698
7.9036733e-06
0.00022021287
9.7524811e-06
0.00025238139
1.1853901e-05
0.00028710723
1.4227201e-05
0.00032476477
1.6894764e-05
0.00036576786
1.9881691e-05
0.00041056445
2.3215674e-05
0.00045950907
2.6926309e-05
0.0005127982
3.1046942e-05
0.00057114416
3.5617887e-05
0.00063523694
4.067933e-05
0.0007053032
4.627883e-05
0.00078211443
5.2467938e-05
0.0008664329
5.9303513e-05
0.0009587008
6.684887e-05
0.0010600452
7.5172247e-05
0.0011710874
8.435179e-05
0.0012929312
9.4471142e-05
0.0014266708
0.00010562359
0.001573446
0.00011791156
0.0017344933
0.00013144746
0.0019112681
0.00014635424
0.002104968
0.00016276797
0.0023176214
0.00018083991
0.0025512441
0.00020073406
0.0028074449
0.00022263183
0.0030886648
0.00024673034
0.0033970094
0.00027324812
0.0037350155
0.00030242257
0.0041051871
0.00033451462
0.004510728
0.000369805
0.0049542995
0.00040859979
0.0054393939
0.0004512323
0.0059696718
0.00049805666
0.0065483233
0.000549465
0.0071803765
0.00060588277
0.0078709528
0.00066777939
0.0086259782
0.00073567983
0.0094530254
0.00081018582
0.010361223
0.00089202194
0.011361794
0.00098215682
0.012469544
0.0010821563
0.013703781
0.001194371
0.015105386
0.0013191904
0.016790177
0.0014510856
0.019093538
0.0016041974
0.022275318
0.0017796881
0.02678907
0.0019774762
0.032289443
0.0021418616
0.037861442
0.0022348586
0.042927025
0.0022955573
0.047489157
0.0023403306
0.051875946
0.0023766356
0.056396813
0.0024107711
0.06121558
0.0024458434
0.066414265
0.00248338
0.072044663
0.0025222788
0.078161693
0.0025654515
0.08481133
0.0026110857
0.09203738
0.0026646706
0.099867331
0.0027255422
0.10834256
0.0027945182
0.11751352
0.0028736136
0.12746267
0.0029605148
0.13827883
0.0030502835
0.15003264
0.0031467851
0.16278967
0.0032505667
0.17661212
0.003365102
0.19156528
0.0034925796
0.20774885
0.0036259948
0.22532773
0.003770026
0.2444411
0.0039275194
0.26519844
0.004102568
0.28768202
0.004292599
0.31198393
0.0044944236
0.33829776
0.0046974933
0.36693775
0.0049151067
0.3981073
0.0051634707
0.43177491
0.46807573
6.3441838e-08
3.3408661e-06
1.746815e-07
1.1179132e-05
3.492887e-07
2.1055843e-05
5.9565063e-07
3.3319355e-05
9.3587186e-07
4.8365528e-05
1.3840189e-06
6.6436231e-05
1.9613541e-06
8.7236051e-05
2.679738e-06
0.00011023603
3.5548028e-06
0.00013490526
4.5972612e-06
0.00016105504
5.8218486e-06
0.00018897981
7.2423911e-06
0.00021882874
8.8732539e-06
0.00025078973
1.0730699e-05
0.00028529205
1.2833913e-05
0.00032270722
1.520377e-05
0.00036344777
1.7863569e-05
0.00040795853
2.0838997e-05
0.00045659255
2.4156773e-05
0.00050954427
2.7848772e-05
0.00056752186
3.1950321e-05
0.00063121105
3.6499998e-05
0.00070083596
4.1539111e-05
0.00077716487
4.7116263e-05
0.00086095318
5.3281077e-05
0.00095264187
6.0092164e-05
0.0010533492
6.7611857e-05
0.0011636929
7.5909258e-05
0.0012847702
8.506193e-05
0.0014176668
9.5153396e-05
0.0015635162
0.00010627698
0.0017235451
0.00011853532
0.0018992001
0.00013203854
0.002091671
0.00014691128
0.002302972
0.00016329226
0.0025351049
0.0001813323
0.0027896667
0.00020119888
0.0030690819
0.00022307747
0.0033754383
0.00024717041
0.0037112563
0.00027370152
0.0040790184
0.00030291884
0.0044819046
0.00033509269
0.0049225542
0.0003705224
0.0054044311
0.00040953655
0.005931167
0.00045249372
0.0065059225
0.00049979364
0.007133685
0.00055188613
0.0078195265
0.00060927958
0.0085693152
0.00067256245
0.0093905447
0.00074243325
0.010292235
0.0008197325
0.011285459
0.00090546106
0.012384859
0.0010005356
0.013609825
0.0011043897
0.015002685
0.001213474
0.016682092
0.0013266016
0.018980679
0.0014615037
0.022140109
0.0016352724
0.026614103
0.0017888548
0.032137128
0.0019113366
0.037742016
0.0020072071
0.042833029
0.002085418
0.047411348
0.0021441652
0.051818662
0.0021955114
0.05634637
0.0022453364
0.061166395
0.0022971626
0.066363292
0.0023554235
0.071987147
0.0024210511
0.078096318
0.0024918513
0.084740869
0.0025653433
0.091963866
0.0026381783
0.099794873
0.0027153514
0.10826465
0.0027911064
0.11743805
0.0028706084
0.1273843
0.0029596416
0.13819069
0.0030561248
0.14993732
0.0031588738
0.16268846
0.003266597
0.17650661
0.0033809236
0.19145311
0.0035045251
0.20762932
0.0036385861
0.22519935
0.0037869392
0.24430082
0.0039491498
0.26504626
0.0041245298
0.28751818
0.0043173287
0.31180388
0.0045290704
0.3381012
0.0047545668
0.36672639
0.0049878019
0.39788191
0.005234013
0.43153436
0.0055089362
0.46781287
0.0057938055
0.50723831
0.0060927335
0.55021719
0.0064267502
0.59665948
0.0067820961
0.64676522
0.0071551811
0.70116381
0.0075467107
0.76032492
0.0079668848
0.82430381
0.0084245799
0.89322013
0.9681895
3.065223e-08
3.3243264e-06
1.0203784e-07
1.1123013e-05
2.257453e-07
2.0948845e-05
4.1475986e-07
3.3148089e-05
6.8553013e-07
4.8114054e-05
1.0554517e-06
6.608668e-05
1.5423893e-06
8.6771091e-05
2.1610263e-06
0.00010964058
2.9253558e-06
0.00013416587
3.8461819e-06
0.00016016067
4.9373195e-06
0.0001879171
6.2106495e-06
0.00021758577
7.6799744e-06
0.00024935298
9.3598144e-06
0.00028364715
1.1266622e-05
0.00032083789
1.3419703e-05
0.00036133501
1.5839905e-05
0.00040558162
1.8550897e-05
0.0004539282
2.1576255e-05
0.00050656903
2.494529e-05
0.00056420683
2.8690236e-05
0.00062752425
3.2844231e-05
0.00069674466
3.7446187e-05
0.00077263051
4.2538966e-05
0.00085593334
4.8167469e-05
0.00094709211
5.4383774e-05
0.001047218
6.1242849e-05
0.0011569258
6.8807424e-05
0.0012773051
7.7144196e-05
0.0014094378
8.632914e-05
0.0015544487
9.6443084e-05
0.0017135594
0.00010757497
0.0018882081
0.00011982103
0.0020795777
0.00013328767
0.0022896721
0.00014809191
0.0025204826
0.00016435947
0.0027735974
0.00018222908
0.0030514283
0.00020184835
0.0033560543
0.00022337989
0.0036899808
0.00024699721
0.0040556796
0.00027288996
0.0044563147
0.00030126215
0.0048945112
0.00033233198
0.005373719
0.00036633899
0.0058975488
0.00040353552
0.0064691488
0.00044419951
0.0070934813
0.00048863145
0.0077755961
0.00053715473
0.008521339
0.00059011857
0.0093381782
0.00064788607
0.01023512
0.00071080692
0.011223247
0.00077914771
0.01231729
0.00085288172
0.013536918
0.00093222818
0.014924198
0.0010220825
0.01659299
0.0011347685
0.018867983
0.0013053435
0.021967481
0.0015514259
0.02636345
0.001781637
0.031900602
0.0019527916
0.037568173
0.0020735879
0.042710816
0.0021523062
0.047334594
0.0022017677
0.051772109
0.0022451099
0.05630571
0.0022916156
0.061122315
0.0023408298
0.066316374
0.0023908388
0.071939702
0.0024429358
0.078047509
0.0024986555
0.0846889
0.0025620835
0.091903759
0.0026305716
0.099728989
0.0027037812
0.10819311
0.0027835444
0.11735813
0.0028658239
0.1273022
0.0029501549
0.13810731
0.0030440648
0.14984394
0.0031492854
0.16258376
0.0032607012
0.17639589
0.003381992
0.19133247
0.0035078891
0.20750616
0.0036489957
0.22506236
0.0037970921
0.24415935
0.0039495835
0.26490225
0.0041156431
0.28736201
0.0043011436
0.31162948
0.0044987912
0.33791776
0.0047074941
0.36653288
0.0049310206
0.39766809
0.005181438
0.43129109
0.0054584565
0.46754984
0.0057464472
0.50697178
0.0060479233
0.54993423
0.0063783094
0.59634569
0.0067367855
0.64642581
0.0071099597
0.70080566
0.0075024208
0.75994451
0.007926473
0.82388149
0.0083861094
0.8927489
0.0088615607
0.96770473
0.0093558366
1.0490002
0.0098878614
1.136485
0.010420586
1.2314625
0.010993265
1.3345281
1.4454786
2.6520013e-08
3.3032064e-06
1.0507214e-07
1.105055e-05
2.501246e-07
2.0810447e-05
4.788509e-07
3.2926618e-05
8.1081713e-07
4.7789753e-05
1.2683675e-06
6.5637289e-05
1.8721817e-06
8.6175734e-05
2.6410407e-06
0.00010888048
3.5897073e-06
0.00013322613
4.7322353e-06
0.00015902713
6.0839398e-06
0.00018657443
7.6595102e-06
0.0002160191
9.474522e-06
0.00024754676
1.1547817e-05
0.00028158227
1.3899378e-05
0.00031849445
1.6551853e-05
0.00035869
1.9531579e-05
0.00040260878
2.2866453e-05
0.0004505992
2.6586367e-05
0.00050285399
3.0725302e-05
0.00056007128
3.532332e-05
0.00062292804
4.0420908e-05
0.00069164675
4.6065266e-05
0.00076698347
5.2307314e-05
0.00084968561
5.9203048e-05
0.00094018731
6.6815458e-05
0.0010395923
7.5212802e-05
0.0011485104
8.4469669e-05
0.0012680244
9.4670678e-05
0.0013992056
0.00010590587
0.0015431726
0.00011827571
0.0017011375
0.00013189162
0.0018745271
0.00014687257
0.0020645165
0.00016335228
0.0022730946
0.00018147916
0.0025022376
0.00020141056
0.0027535243
0.00022332296
0.0030293471
0.00024740604
0.0033317711
0.00027386495
0.0036632858
0.00030292288
0.0040263445
0.0003348219
0.0044240916
0.00036981956
0.0048591364
0.00040819482
0.0053349064
0.00045024486
0.0058549936
0.00049628278
0.0064225293
0.0005466467
0.0070424499
0.00060169355
0.0077197845
0.00066180021
0.0084603569
0.00072736158
0.0092716138
0.00079878397
0.010162545
0.00087649385
0.011144221
0.000960988
0.012231291
0.0010532052
0.013442981
0.0011557862
0.014819683
0.0012735791
0.016473214
0.0014061237
0.018734006
0.0015739769
0.021800022
0.0018008229
0.026139898
0.0020631088
0.031638817
0.0022618671
0.037365047
0.0023676121
0.04260494
0.0024068463
0.047298422
0.0024231239
0.051757144
0.0024385371
0.05629186
0.0024606515
0.061101903
0.002489752
0.066288888
0.0025248394
0.071906381
0.0025615405
0.078012973
0.0026001217
0.084652882
0.0026422772
0.091864636
0.0026927666
0.099681113
0.0027498826
0.10813785
0.0028189651
0.11729057
0.0028980876
0.12722334
0.002980475
0.13802517
0.0030682954
0.14975581
0.0031638331
0.16248839
0.0032730389
0.17628717
0.0033933071
0.19121322
0.0035254565
0.20737617
0.0036617236
0.22493013
0.0038067518
0.24401992
0.0039663782
0.2647488
0.0041337109
0.28720165
0.0043210052
0.31144981
0.0045295626
0.33771974
0.0047467332
0.36632762
0.0049812527
0.39744228
0.0052377444
0.43104124
0.005512678
0.4672888
0.0057982906
0.50670773
0.0061041045
0.54964996
0.0064324507
0.59603966
0.0067916034
0.64609156
0.0071609041
0.70045739
0.0075436022
0.75957751
0.0079745927
0.82345022
0.0084377034
0.89227905
0.008905808
0.96723863
0.00940187
1.0485058
0.009940008
1.1359607
0.010477439
1.230953
0.011049239
1.3339833
0.011647009
1.4449054
0.01223948
1.5653057
0.012886235
1.6952086
1.8357655
3.0106884e-08
3.2755444e-06
1.2347391e-07
1.0959866e-05
2.9461865e-07
2.06421e-05
5.6090632e-07
3.266371e-05
9.4140813e-07
4.7412811e-05
1.4575344e-06
6.5125557e-05
2.1282563e-06
8.5509857e-05
2.9702375e-06
0.00010804435
3.9972851e-06
0.00013220561
5.2224565e-06
0.00015780956
6.6603427e-06
0.00018514505
8.326438e-06
0.00021436265
1.023738e-05
0.00024564661
1.2412038e-05
0.00027941967
1.4872791e-05
0.00031604715
1.7643293e-05
0.00035593438
2.0752177e-05
0.00039951644
2.422881e-05
0.00044714077
2.8106133e-05
0.00049899674
3.241994e-05
0.00055577943
3.7212644e-05
0.00061815936
4.2529288e-05
0.00068635621
4.841818e-05
0.00076112286
5.4935919e-05
0.00084319837
6.2142168e-05
0.00093301374
7.010463e-05
0.0010316647
7.8896909e-05
0.001139755
8.86012e-05
0.001258359
9.9310081e-05
0.0013885382
0.00011112544
0.0015314031
0.00012415999
0.001688154
0.00013853752
0.0018602063
0.00015439299
0.0020487239
0.00017187791
0.0022556791
0.00019116131
0.0024830307
0.00021242785
0.002732342
0.00023588253
0.0030059846
0.00026175108
0.0033060032
0.00029028354
0.0036348626
0.00032175229
0.0039949936
0.00035646216
0.004389508
0.00039474215
0.0048209903
0.00043695645
0.0052928328
0.00048350444
0.0058085916
0.00053481816
0.0063713647
0.00059137891
0.0069860385
0.00065372375
0.0076575859
0.00072245721
0.0083917623
0.00079828038
0.0091959169
0.00088202817
0.010078906
0.00097473403
0.011051597
0.0010777416
0.012128332
0.0011928134
0.013327914
0.0013210073
0.014691446
0.0014570177
0.016337137
0.0015872661
0.018603553
0.0017133454
0.02167383
0.0018489085
0.026005934
0.0020169451
0.031473853
0.0021682872
0.037215981
0.002266028
0.042507886
0.0023218239
0.04724263
0.0023648342
0.051713304
0.0023999259
0.056255898
0.0024299346
0.061071844
0.0024590989
0.066260345
0.0024950477
0.071871509
0.0025401778
0.077968632
0.0025895825
0.084604162
0.0026410815
0.091813485
0.0026979228
0.099624717
0.0027626151
0.1080738
0.0028305767
0.11722363
0.0029052325
0.12714923
0.0029919818
0.13793744
0.0030843075
0.14966197
0.0031788819
0.16239245
0.0032829958
0.17618231
0.0033954587
0.19110093
0.0035214278
0.20725185
0.0036542512
0.22479996
0.0037976932
0.24388056
0.0039551762
0.26459665
0.0041293847
0.28703252
0.0043152237
0.311268
0.0045126419
0.3375301
0.0047184301
0.36612968
0.0049427122
0.39722333
0.005189206
0.43079805
0.0054573487
0.4670299
0.0057348976
0.50644859
0.0060324293
0.54937287
0.0063647897
0.59573049
0.006725777
0.64575977
0.0071011851
0.70010863
0.0074915941
0.75920902
0.0079231633
0.82302304
0.0083919547
0.8918136
0.0088611054
0.96678319
0.0093603946
1.0480122
0.0098990412
1.1354328
0.010433335
1.2304463
0.011005056
1.3334254
0.011607775
1.4443026
0.012208657
1.5647416
0.012865108
1.6945861
0.013495749
1.8352038
0.014121331
1.9876345
0.014744404
2.1520537
2.3298424
3.0432198e-08
3.2559153e-06
1.0606365e-07
1.0895813e-05
2.3719985e-07
2.0523502e-05
4.3587289e-07
3.2478615e-05
7.161622e-07
4.7147314e-05
1.0938139e-06
6.4764025e-05
1.5830374e-06
8.5038268e-05
2.1976254e-06
0.00010744907
2.9485627e-06
0.00013147587
3.8471451e-06
0.00015693429
4.9047387e-06
0.00018411309
6.1354033e-06
0.00021316028
7.5514501e-06
0.00024426165
9.1690912e-06
0.00027783635
1.1005166e-05
0.00031424877
1.3079868e-05
0.00035390132
1.5414445e-05
0.00039722764
1.8033558e-05
0.00044457222
2.096153e-05
0.00049612439
2.4228149e-05
0.00055257424
2.7865628e-05
0.00061458957
3.1907609e-05
0.00068238903
3.6393709e-05
0.00075671927
4.1366981e-05
0.00083831634
4.6872775e-05
0.00092760874
5.2963359e-05
0.0010256857
5.9695581e-05
0.0011331462
6.7132663e-05
0.0012510587
7.5342831e-05
0.0013804794
8.4403362e-05
0.0015225094
9.4397172e-05
0.0016783433
0.00010541629
0.0018493883
0.00011756147
0.0020367996
0.000130945
0.0022425382
0.00014569179
0.0024685505
0.00016193645
0.0027163903
0.00017982929
0.0029884139
0.00019953386
0.0032866529
0.00022123142
0.003613555
0.00024511981
0.0039715345
0.00027141877
0.004363682
0.00030036989
0.0047925607
0.00033223972
0.0052615384
0.00036732361
0.0057741434
0.00040594486
0.0063334465
0.0004484664
0.0069442955
0.00049529565
0.00761162
0.00054689323
0.0083411233
0.00060378794
0.0091400877
0.00066659243
0.010017286
0.00073601134
0.010983497
0.00081278807
0.012053021
0.00089729738
0.013245027
0.0009881767
0.01460233
0.001082307
0.016244734
0.0011851464
0.018501925
0.0013245121
0.021534108
0.0014888698
0.025839741
0.0016303969
0.031334396
0.0017509899
0.037099537
0.001863156
0.042397979
0.0019553181
0.047150338
0.0020341061
0.051632057
0.002106
0.056181758
0.0021737397
0.061001801
0.0022398621
0.066192359
0.0023056597
0.071804627
0.0023746072
0.077898969
0.0024475015
0.084530304
0.0025257708
0.09173395
0.0026053572
0.099543655
0.0026870296
0.10799143
0.0027703061
0.11713953
0.0028543449
0.12706461
0.0029448382
0.137845
0.0030432859
0.14956076
0.0031522966
0.16227972
0.0032631479
0.17606803
0.003382147
0.19097876
0.0035090662
0.20712452
0.0036494588
0.22465878
0.0038006322
0.24373071
0.0039537382
0.26444796
0.0041220459
0.28686893
0.0043094799
0.31108301
0.0045156038
0.33733012
0.0047324527
0.36591863
0.004961157
0.39699861
0.0052168323
0.43054266
0.0055026085
0.46675031
0.0057914847
0.50617259
0.0060931791
0.54908475
0.0064245258
0.59541582
0.0067732896
0.6454357
0.0071475236
0.69975974
0.0075444084
0.75883649
0.0079615677
0.82261604
0.0084274404
0.89136045
0.0088999734
0.96633424
0.0093968516
1.0475341
0.0099347087
1.134908
0.010473276
1.2299365
0.011050272
1.3328553
0.011655541
1.4436839
0.012255209
1.5641642
0.012908256
1.6939737
0.013537892
1.8346841
0.014177764
1.9870138
0.014816036
2.1513815
0.015414127
2.329245
0.016064756
2.5214099
0.016609935
2.730093
2.9553514
2.6253159e-08
3.2433613e-06
8.5227321e-08
1.0851725e-05
1.8754631e-07
2.0437401e-05
3.4535013e-07
3.2338103e-05
5.7423656e-07
4.6937064e-05
8.9067686e-07
6.446719e-05
1.3122373e-06
8.46375e-05
1.852706e-06
0.0001069302
2.5252474e-06
0.00013082601
3.3404901e-06
0.00015614261
4.31083e-06
0.00018316741
5.44835e-06
0.00021204843
6.766576e-06
0.00024297019
8.279816e-06
0.00027635096
1.0005047e-05
0.00031255248
1.1960442e-05
0.000351976
1.4167377e-05
0.00039505185
1.6648125e-05
0.00044212376
1.9426064e-05
0.00049337976
2.2527601e-05
0.00054950709
2.5984349e-05
0.00061116819
2.9826988e-05
0.00067858275
3.4091628e-05
0.00075249188
3.8816641e-05
0.00083362947
4.4044355e-05
0.00092241994
4.9822918e-05
0.0010199468
5.6201942e-05
0.0011268075
6.3239201e-05
0.0012440623
7.0997117e-05
0.0013727628
7.9543509e-05
0.0015140047
8.8954014e-05
0.0016689746
9.9311306e-05
0.0018390729
0.00011070295
0.0020254496
0.00012322787
0.0022300546
0.00013699346
0.0024548255
0.00015211534
0.0027013081
0.0001687187
0.002971849
0.00018693786
0.0032684708
0.00020691644
0.0035936118
0.00022880889
0.0039496758
0.00025278076
0.0043397423
0.00027900726
0.0047663651
0.000307677
0.005232899
0.00033899064
0.0057428606
0.00037315996
0.0062993103
0.00041041488
0.0069070788
0.00045099906
0.0075710831
0.00049517046
0.0082970137
0.00054319553
0.009092146
0.00059533666
0.0099652584
0.00065180998
0.010927175
0.0007126909
0.011992331
0.00077782052
0.013180113
0.00084804128
0.014532293
0.00093126362
0.01616142
0.0010419257
0.018390575
0.0012101725
0.021363903
0.0014642933
0.025579221
0.0017123338
0.031077083
0.0019095904
0.036897846
0.0020516487
0.042254461
0.0021467295
0.047054865
0.0022035122
0.051578554
0.0022465755
0.056142375
0.0022913961
0.060960169
0.0023410357
0.066145579
0.0023909052
0.071757439
0.0024399356
0.077852617
0.0024941451
0.084478439
0.0025534911
0.091676505
0.0026180131
0.099481233
0.002687299
0.10792379
0.0027663104
0.11706224
0.0028518393
0.12697981
0.0029371334
0.13775896
0.0030305531
0.14946547
0.0031338928
0.16217367
0.0032479691
0.17594982
0.0033738774
0.19084779
0.0035069802
0.20698835
0.0036480086
0.22451575
0.0037936297
0.24358534
0.0039497514
0.26429387
0.0041163839
0.2867047
0.0042965018
0.3109034
0.0044907633
0.33713986
0.0047001906
0.3657129
0.0049272875
0.3967737
0.005171993
0.43029539
0.0054398074
0.46648702
0.005716783
0.50590286
0.006012836
0.54879325
0.0063413341
0.59509525
0.0066960817
0.64509572
0.0070688123
0.69940355
0.0074648073
0.75846006
0.0078904556
0.82220362
0.0083618097
0.89091657
0.0088460957
0.9658812
0.0093529671
1.0470574
0.0098920949
1.1343938
0.010422168
1.2294381
0.010996593
1.3322823
0.011606576
1.4430638
0.012216542
1.5635668
0.012875498
1.6933519
0.013504889
1.8341843
0.014147195
1.9864097
0.014791542
2.1507179
0.015393401
2.3286295
0.016056054
2.5207553
0.016624153
2.7294104
0.017148671
2.9547319
0.01770206
3.1986786
3.4626163
3.2727559e-08
3.2215139e-06
1.2002919e-07
1.077621e-05
2.7775314e-07
2.0292413e-05
5.2432637e-07
3.2105237e-05
8.8096957e-07
4.6595028e-05
1.3714159e-06
6.3992386e-05
2.0167851e-06
8.4008788e-05
2.8351152e-06
0.00010612965
3.8401286e-06
0.00012983994
5.0440218e-06
0.00015495878
6.4614117e-06
0.00018177131
8.1070462e-06
0.00021042521
9.9970941e-06
0.00024110384
1.2150872e-05
0.00027422201
1.4590145e-05
0.00031013939
1.7339289e-05
0.00034925419
2.0426148e-05
0.00039199373
2.3880605e-05
0.00043869918
2.7734077e-05
0.00048955751
3.2023145e-05
0.00054525028
3.6788277e-05
0.00060643654
4.2072527e-05
0.00067333282
4.792302e-05
0.00074667664
5.4394193e-05
0.00082719402
6.1542201e-05
0.00091530811
6.943137e-05
0.0010120936
7.8132318e-05
0.0011181423
8.7721697e-05
0.0012345076
9.828627e-05
0.0013622314
0.00010992091
0.0015024008
0.00012272922
0.001656194
0.00013682694
0.0018249984