/*--------------------------------*- C++ -*----------------------------------*\
| =========                 |                                                 |
| \\      /  F ield         | OpenFOAM: The Open Source CFD Toolbox           |
|  \\    /   O peration     | Version:  2506                                  |
|   \\  /    A nd           | Website:  www.openfoam.com                      |
|    \\/     M anipulation  |                                                 |
\*---------------------------------------------------------------------------*/
FoamFile
{
    version     2.0;
    format      ascii;
    arch        "LSB;label=32;scalar=64";
    class       volScalarField;
    location    "0.0255";
    object      Ma;
}
// * * * * * * * * * * * * * * * * * * * * * * * * * * * * * * * * * * * * * //

dimensions      [0 0 0 0 0 0 0];

internalField   nonuniform List<scalar> 
13761
(
0.29965776
0.29965734
0.29965691
0.29965646
0.29965601
0.29965555
0.29965508
0.2996546
0.29962566
0.29965411
0.2996266
0.2996536
0.29962754
0.29965309
0.29962849
0.29965257
0.29962945
0.29965204
0.29963041
0.2996515
0.29963139
0.29965095
0.29963237
0.29965039
0.29982306
0.29963335
0.29964981
0.29982372
0.29963435
0.29964923
0.29982438
0.29963535
0.29964864
0.29982503
0.29963636
0.29964804
0.29982566
0.29963738
0.29964742
0.29982629
0.2996384
0.2996468
0.2998269
0.29963943
0.29964616
0.30008205
0.29982751
0.29964046
0.29964552
0.30008321
0.29982811
0.29964151
0.29964486
0.30008437
0.29982869
0.29964256
0.29964419
0.30008552
0.29982927
0.29964361
0.29964352
0.30008667
0.29982983
0.29964467
0.29964283
0.3000878
0.29983039
0.29964574
0.29964213
0.30008893
0.29983094
0.29964682
0.30009005
0.29983148
0.2996479
0.30072408
0.30009116
0.29983201
0.29964899
0.30072746
0.30009226
0.29983252
0.29965008
0.30073081
0.30009335
0.29983303
0.29965118
0.30073412
0.30009443
0.29983354
0.29965229
0.3007374
0.3000955
0.29983403
0.2996534
0.30074063
0.30009656
0.29983451
0.29965452
0.30074383
0.30009761
0.29983499
0.29965564
0.30074699
0.30009865
0.29983545
0.3015879
0.30075011
0.30009967
0.29983591
0.3015942
0.30075319
0.30010069
0.29983636
0.30160048
0.30075624
0.30010169
0.2998368
0.30160674
0.30075924
0.30010268
0.29983723
0.30161298
0.30076221
0.30010365
0.29983765
0.30161919
0.30076514
0.30010461
0.29983807
0.30162538
0.30076803
0.30010556
0.29983848
0.30236878
0.30163155
0.30077088
0.30010649
0.29983888
0.30238188
0.30163769
0.30077369
0.30010741
0.30239494
0.30164382
0.30077646
0.30010832
0.30240796
0.30164991
0.30077919
0.30010921
0.30242094
0.30165599
0.30078188
0.30011008
0.30243389
0.30166204
0.30078454
0.30011094
0.30244679
0.30166806
0.30078715
0.30011179
0.30203897
0.30245965
0.30167406
0.30078972
0.30011261
0.30205662
0.30247248
0.30168004
0.30079225
0.30011342
0.3020743
0.30248526
0.30168599
0.30079475
0.30011421
0.30209201
0.302498
0.30169192
0.3007972
0.30210975
0.30251071
0.30169782
0.30079962
0.30212752
0.30252337
0.30170369
0.30080199
0.30214533
0.30253599
0.30170954
0.30080432
0.30085807
0.30216318
0.30254857
0.30171536
0.30080662
0.30087564
0.30218105
0.3025611
0.30172115
0.30080887
0.30089337
0.30219896
0.3025736
0.30172692
0.30081108
0.30091129
0.3022169
0.30258605
0.30173266
0.30081325
0.30092938
0.30223487
0.30259845
0.30173837
0.30094764
0.30225287
0.30261081
0.30174406
0.30096607
0.3022709
0.30262313
0.30174971
0.29961108
0.30098466
0.30228895
0.30263541
0.30175534
0.2996133
0.30100341
0.30230703
0.30264764
0.30176094
0.29961554
0.30102232
0.30232514
0.30265982
0.30176651
0.2996178
0.30104137
0.30234328
0.30267196
0.30177204
0.29962008
0.30106057
0.30236144
0.30268405
0.30177755
0.2996224
0.30107991
0.30237963
0.3026961
0.30178302
0.29962476
0.30109938
0.30239784
0.3027081
0.30054147
0.29962717
0.30111897
0.30241607
0.30272006
0.30054043
0.29962965
0.30113869
0.30243432
0.30273196
0.30053929
0.29963219
0.30115852
0.30245258
0.30274382
0.30053802
0.29963481
0.30117847
0.30247087
0.30275564
0.30053663
0.29963751
0.30119851
0.30248917
0.30276741
0.3005351
0.29964032
0.30121866
0.30250749
0.30277913
0.30237557
0.30053344
0.29964323
0.30123891
0.30252583
0.3027908
0.30238612
0.30053163
0.29964626
0.30125925
0.30254417
0.30280243
0.30239659
0.30052969
0.29964941
0.30127968
0.30256253
0.30240697
0.3005276
0.29965269
0.3013002
0.30258091
0.30241724
0.30052536
0.29965612
0.30132081
0.30259929
0.3024274
0.30052297
0.2996597
0.3013415
0.30261768
0.30243745
0.30052042
0.29966344
0.30136227
0.30263609
0.30295604
0.30244738
0.30051771
0.29966735
0.30138312
0.30265449
0.3029747
0.30245718
0.30051483
0.29967143
0.30140405
0.30267291
0.30299333
0.30246686
0.30051179
0.29967569
0.30142505
0.30269135
0.30301193
0.30247641
0.30050858
0.29968014
0.30144613
0.30303052
0.30248581
0.3005052
0.29968477
0.30146729
0.3030491
0.30249508
0.30050164
0.29968961
0.30148853
0.30260266
0.30306768
0.30250419
0.3004979
0.29969464
0.30150984
0.3026237
0.30308626
0.30251315
0.30049398
0.29969989
0.30153123
0.30264468
0.30310485
0.30252196
0.30048988
0.29970534
0.30155269
0.30266558
0.30312345
0.3025306
0.3004856
0.299711
0.30157425
0.3026864
0.30314207
0.30253909
0.30048113
0.29971688
0.30159589
0.30270714
0.30316071
0.30254742
0.30047647
0.29972298
0.30357113
0.30272779
0.30317937
0.30255558
0.30047163
0.2997293
0.30358613
0.30274834
0.30319806
0.30256357
0.3004666
0.29973585
0.30360113
0.30276879
0.30321677
0.3025714
0.30046138
0.29974262
0.30361609
0.30278915
0.30323552
0.30257907
0.30045597
0.29974961
0.30363102
0.3028094
0.30325429
0.30258656
0.30045037
0.29975683
0.30497761
0.30364593
0.30282955
0.3032731
0.30259389
0.30044458
0.29976429
0.30500233
0.30366079
0.30284959
0.30329193
0.30260104
0.30043859
0.29977198
0.30502683
0.30367561
0.30286953
0.3033108
0.30260801
0.30043242
0.30505112
0.30369039
0.30288937
0.3033297
0.30261481
0.30042607
0.30507518
0.30370512
0.3029091
0.30334863
0.30262144
0.30041952
0.30509903
0.30371979
0.30292873
0.30336759
0.30262788
0.3004128
0.30546378
0.30512265
0.30373441
0.30294825
0.30338658
0.30263415
0.30040589
0.30549138
0.30514604
0.30374897
0.30296768
0.30340561
0.30264024
0.3003988
0.30551883
0.30516921
0.30376346
0.30298699
0.30342466
0.30264616
0.30039153
0.30554615
0.30519215
0.30377788
0.3030062
0.30344374
0.30265189
0.30038406
0.30557333
0.30521486
0.30379222
0.30302531
0.30346285
0.30265744
0.30654612
0.30560038
0.30523734
0.30380648
0.30304431
0.30348199
0.30266282
0.30657279
0.3056273
0.3052596
0.30382065
0.3030632
0.30350116
0.30266801
0.30659928
0.30565408
0.30528162
0.30383473
0.30308199
0.30352036
0.30267302
0.3066256
0.30568074
0.30530342
0.30384871
0.30310066
0.3035396
0.30267784
0.30665175
0.30570727
0.30532499
0.30386259
0.30311922
0.30355886
0.30268246
0.3079963
0.30667774
0.30573368
0.30534633
0.30387636
0.30313767
0.30357814
0.30268688
0.30802937
0.30670355
0.30575997
0.30536746
0.30389002
0.30315601
0.30359746
0.30806223
0.3067292
0.30578614
0.30538836
0.30390356
0.30317423
0.30361681
0.3080949
0.30675469
0.3058122
0.30540905
0.30391699
0.30319234
0.30363619
0.30917517
0.30812735
0.30678002
0.30583816
0.30542952
0.30393029
0.30321034
0.3036556
0.3092106
0.30815961
0.30680518
0.30586401
0.30544979
0.30394346
0.30322823
0.30367503
0.30924576
0.30819166
0.30683019
0.30588975
0.30546985
0.30395651
0.30324601
0.30369449
0.30928066
0.30822351
0.30685504
0.3059154
0.30548972
0.30396943
0.30326367
0.30371398
0.3093153
0.30825515
0.30687973
0.30594095
0.30550939
0.30398221
0.30328123
0.30373348
0.31083894
0.30934969
0.30828659
0.30690426
0.3059664
0.30552887
0.30399486
0.30329868
0.31087678
0.30938381
0.30831781
0.30692863
0.30599176
0.30554817
0.30400737
0.30331602
0.31091426
0.30941767
0.30834882
0.30695285
0.30601703
0.30556729
0.30401974
0.30333326
0.3109514
0.30945127
0.30837961
0.3069769
0.3060422
0.30558623
0.30403196
0.3033504
0.31261004
0.31098818
0.30948461
0.30841019
0.3070008
0.30606728
0.30560499
0.30404405
0.30336744
0.31265205
0.31102462
0.30951769
0.30844055
0.30702455
0.30609227
0.3056236
0.30405598
0.3033844
0.31269362
0.3110607
0.30955051
0.30847068
0.30704813
0.30611717
0.30564204
0.30406778
0.30340127
0.31273475
0.31109644
0.30958308
0.3085006
0.30707156
0.30614199
0.30566033
0.30407943
0.31447751
0.31277544
0.31113184
0.30961539
0.30853029
0.30709484
0.30616671
0.30567847
0.30409093
0.31452285
0.3128157
0.31116689
0.30964744
0.30855975
0.30711795
0.30619135
0.30569646
0.30410228
0.31456765
0.31285552
0.31120159
0.30967924
0.30858899
0.30714091
0.3062159
0.30571431
0.30411349
0.31461189
0.31289491
0.31123595
0.30971079
0.308618
0.30716371
0.30624035
0.30573203
0.30412456
0.31664835
0.31465558
0.31293388
0.31126997
0.30974208
0.30864677
0.30718635
0.30626472
0.30574962
0.30413547
0.31669869
0.31469872
0.31297241
0.31130365
0.30977313
0.30867531
0.30720883
0.306289
0.30576707
0.30414623
0.31674835
0.3147413
0.3130105
0.31133698
0.30980391
0.30870361
0.30723114
0.30631319
0.30578439
0.31679735
0.31478334
0.31304817
0.31136996
0.30983444
0.30873167
0.30725329
0.30633727
0.30580159
0.31891766
0.31684568
0.31482483
0.31308541
0.3114026
0.30986472
0.30875948
0.30727528
0.30636127
0.30581866
0.31897256
0.31689333
0.31486578
0.31312223
0.3114349
0.30989475
0.30878705
0.30729709
0.30638516
0.30583562
0.3190267
0.31694031
0.31490618
0.31315862
0.31146685
0.30992453
0.30881438
0.30731874
0.30640896
0.30585245
0.31908009
0.31698662
0.31494606
0.3131946
0.31149847
0.30995406
0.30884145
0.30734021
0.30643266
0.30586917
0.32141324
0.31913273
0.31703226
0.3149854
0.31323017
0.31152974
0.30998334
0.30886828
0.30736151
0.30645625
0.30588577
0.32147239
0.3191846
0.31707723
0.31502422
0.31326532
0.31156068
0.31001237
0.30889486
0.30738263
0.30647975
0.32153074
0.31923571
0.31712153
0.31506251
0.31330006
0.31159128
0.31004115
0.30892119
0.30740358
0.30650313
0.32404206
0.3215883
0.31928604
0.31716516
0.31510029
0.3133344
0.31162154
0.31006969
0.30894726
0.30742434
0.30652641
0.32410546
0.32164506
0.31933561
0.31720814
0.31513756
0.31336834
0.31165147
0.31009798
0.30897309
0.30744492
0.30654958
0.32416806
0.321701
0.31938441
0.31725045
0.31517432
0.31340189
0.31168107
0.31012603
0.30899865
0.30746531
0.30657264
0.32686342
0.32422986
0.3217561
0.31943243
0.31729209
0.31521058
0.31343503
0.31171033
0.31015383
0.30902396
0.30748551
0.30659559
0.32692964
0.32429083
0.32181037
0.31947966
0.31733308
0.31524633
0.31346777
0.31173926
0.31018139
0.30904901
0.30750551
0.32699505
0.32435097
0.32186378
0.31952611
0.3173734
0.31528158
0.31350013
0.31176785
0.3102087
0.3090738
0.30752531
0.32992616
0.32705964
0.32441026
0.32191634
0.31957178
0.31741307
0.31531634
0.31353209
0.31179612
0.31023577
0.30909832
0.30754491
0.32999465
0.32712339
0.3244687
0.32196803
0.31961667
0.31745209
0.3153506
0.31356367
0.31182405
0.3102626
0.30912258
0.30756431
0.33006222
0.32718631
0.32452627
0.32201886
0.31966078
0.31749047
0.31538439
0.31359486
0.31185165
0.31028918
0.30914657
0.3075835
0.33319668
0.33012887
0.32724838
0.32458297
0.32206882
0.31970412
0.3175282
0.31541769
0.31362568
0.31187893
0.31031553
0.3091703
0.30760249
0.33326795
0.33019459
0.32730959
0.32463878
0.3221179
0.31974669
0.3175653
0.31545052
0.31365612
0.31190588
0.31034164
0.30919377
0.30762126
0.33660253
0.33333805
0.33025938
0.32736995
0.3246937
0.32216611
0.31978849
0.31760178
0.31548289
0.31368619
0.31193251
0.31036752
0.30921697
0.33668005
0.333407
0.33032326
0.32742943
0.32474772
0.32221345
0.31982954
0.31763763
0.31551478
0.31371589
0.31195882
0.31039316
0.3092399
0.33675607
0.33347482
0.33038621
0.32748803
0.32480083
0.3222599
0.31986982
0.31767287
0.31554623
0.31374523
0.31198481
0.31041857
0.30926258
0.3402473
0.33683058
0.3335415
0.33044824
0.32754575
0.32485303
0.32230548
0.31990936
0.31770751
0.31557721
0.31377421
0.31201047
0.31044376
0.30928498
0.34033211
0.33690361
0.33360706
0.33050934
0.32760257
0.32490431
0.32235018
0.31994816
0.31774154
0.31560775
0.31380284
0.31203583
0.31046871
0.30930713
0.34394442
0.34041506
0.33697516
0.33367149
0.33056951
0.32765847
0.32495465
0.322394
0.31998621
0.31777497
0.31563784
0.31383111
0.31206086
0.31049344
0.30932901
0.34404031
0.34049613
0.33704523
0.33373481
0.33062873
0.32771345
0.32500405
0.32243693
0.32002352
0.3178078
0.31566749
0.31385902
0.31208558
0.31051794
0.34413401
0.34057534
0.33711385
0.33379701
0.330687
0.32776749
0.3250525
0.32247898
0.3200601
0.31784004
0.31569669
0.31388658
0.31210998
0.31054222
0.34785984
0.34422552
0.3406527
0.33718103
0.3338581
0.33074432
0.32782058
0.32509999
0.32252015
0.32009595
0.31787171
0.31572546
0.3139138
0.31213407
0.31056627
0.3479656
0.34431485
0.34072823
0.33724677
0.3339181
0.33080068
0.32787271
0.32514653
0.32256044
0.32013108
0.3179028
0.3157538
0.31394067
0.31215785
0.3105901
0.35178298
0.34806893
0.344402
0.34080194
0.33731111
0.33397701
0.33085608
0.32792389
0.32519211
0.32259986
0.32016551
0.31793332
0.3157817
0.31396719
0.31218132
0.31061372
0.35190167
0.34816983
0.34448699
0.34087385
0.33737406
0.33403484
0.33091052
0.32797409
0.32523672
0.32263841
0.32019923
0.31796328
0.31580919
0.31399338
0.31220448
0.31063712
0.35580132
0.3520177
0.34826829
0.34456981
0.34094397
0.33743563
0.33409159
0.33096398
0.32802332
0.32528038
0.32267611
0.32023225
0.31799269
0.31583625
0.31401923
0.31222734
0.35593381
0.35213108
0.34836432
0.34465049
0.34101233
0.33749584
0.33414727
0.33101648
0.32807157
0.32532308
0.32271295
0.32026459
0.31802155
0.3158629
0.31404475
0.31224989
0.35989725
0.35606342
0.35224181
0.34845792
0.34472904
0.34107895
0.33755471
0.33420189
0.331068
0.32811883
0.32536481
0.32274894
0.32029626
0.31804987
0.31588914
0.31406994
0.31227215
0.3638877
0.36004449
0.35619016
0.35234987
0.3485491
0.34480546
0.34114384
0.33761226
0.33425545
0.33111854
0.32816509
0.32540559
0.32278409
0.32032726
0.31807767
0.31591498
0.3140948
0.3122941
0.36405399
0.36018864
0.35631402
0.35245529
0.34863786
0.34487977
0.34120702
0.3376685
0.33430796
0.3311681
0.32821037
0.32544542
0.32281841
0.3203576
0.31810494
0.31594041
0.31411933
0.31231577
0.36806759
0.36421696
0.36032968
0.35643502
0.35255804
0.34872419
0.34495198
0.34126852
0.33772346
0.33435943
0.33121667
0.32825464
0.32548429
0.32285191
0.32038729
0.31813169
0.31596545
0.31414355
0.31233714
0.37205902
0.36825067
0.36437659
0.36046761
0.35655312
0.35265812
0.3488081
0.3450221
0.34132835
0.33777712
0.33440984
0.33126424
0.3282979
0.3255222
0.32288458
0.32041633
0.31815794
0.31599009
0.31416744
0.37226324
0.3684302
0.36453288
0.36060242
0.35666831
0.35275551
0.34888958
0.34509014
0.34138651
0.33782952
0.3344592
0.33131079
0.32834014
0.32555916
0.32291645
0.32044474
0.31818367
0.31601434
0.314191
0.37622926
0.37246375
0.36860619
0.36468582
0.3607341
0.35678059
0.3528502
0.34896863
0.34515611
0.34144304
0.33788065
0.33450751
0.33135633
0.32838135
0.32559517
0.3229475
0.32047252
0.31820891
0.31603819
0.31421425
0.38012703
0.37645156
0.37266057
0.36877864
0.36483542
0.36086264
0.35688995
0.35294221
0.34904526
0.34522003
0.34149795
0.33793054
0.33455477
0.33140085
0.32842155
0.32563023
0.32297776
0.32049967
0.31823365
0.31606166
0.31423717
0.38393577
0.38037159
0.37667009
0.37285371
0.36894756
0.36498168
0.36098806
0.3569964
0.35303152
0.34911949
0.34528192
0.34155127
0.3379792
0.33460098
0.33144435
0.32846071
0.32566435
0.32300724
0.32052622
0.3182579
0.31608475
0.31425978
0.38420272
0.38061238
0.37688484
0.37304317
0.36911296
0.3651246
0.36111035
0.35709993
0.35311814
0.34919132
0.34534181
0.34160302
0.33802665
0.33464615
0.33148681
0.32849886
0.32569754
0.32303594
0.32055216
0.31828167
0.31610745
0.38792547
0.38446601
0.3808494
0.37709584
0.37322895
0.36927482
0.36526418
0.3612295
0.35720054
0.35320209
0.34926078
0.34539972
0.34165323
0.3380729
0.33469027
0.33152824
0.32853597
0.3257298
0.32306387
0.3205775
0.31830497
0.31612978
0.39152174
0.3882112
0.38472562
0.38108266
0.37730308
0.37341107
0.36943317
0.36540043
0.36134552
0.35729822
0.35328335
0.34932788
0.34545567
0.34170192
0.33811796
0.33473335
0.33156864
0.32857207
0.32576114
0.32309105
0.32060226
0.3183278
0.31615174
0.39497529
0.39182963
0.38849346
0.38498157
0.38131215
0.37750656
0.37358951
0.369588
0.36553334
0.3614584
0.35739299
0.35336195
0.34939263
0.34550971
0.34174913
0.33816186
0.3347754
0.33160799
0.32860714
0.32579157
0.32311748
0.32062645
0.31835017
0.31617333
0.40103058
0.39827274
0.3953049
0.39213439
0.38877227
0.38523386
0.3815379
0.3777063
0.3737643
0.36973931
0.36566292
0.36156815
0.35748484
0.35343788
0.34945506
0.34556184
0.34179487
0.3382046
0.3348164
0.33164631
0.32864119
0.3258211
0.32314319
0.32065007
0.31837209
0.31619456
0.40396763
0.40140354
0.39862355
0.39563182
0.392436
0.38904762
0.38548248
0.38175989
0.37790228
0.37393543
0.36988711
0.36578916
0.36167476
0.35757378
0.35351117
0.3495152
0.34561212
0.34183918
0.3382462
0.33485637
0.33168358
0.32867422
0.32584974
0.32316817
0.32067313
0.31839356
0.31621543
0.4067261
0.40436006
0.40177502
0.39897221
0.39595602
0.39273446
0.3893195
0.38572744
0.38197812
0.37809453
0.3741029
0.37003139
0.36591206
0.36177823
0.3576598
0.35358183
0.34957307
0.34566056
0.34188208
0.33828668
0.3348953
0.3317198
0.32870625
0.32587749
0.32319244
0.32069565
0.31841459
0.41125409
0.40930384
0.4071376
0.40475177
0.40214502
0.39931871
0.39627751
0.39302977
0.38958791
0.38596873
0.38219261
0.37828303
0.37426671
0.37017216
0.36603162
0.36187857
0.35774293
0.35364987
0.3496287
0.3457072
0.3419236
0.33832604
0.33493319
0.33175498
0.32873727
0.32590438
0.32321602
0.32071762
0.31843518
0.41345594
0.41170132
0.40973421
0.40754922
0.40514273
0.40251349
0.39966302
0.39659625
0.3933219
0.38985283
0.38620634
0.38240332
0.37846778
0.37442686
0.37030941
0.36614783
0.36197577
0.35782315
0.3537153
0.3496821
0.34575207
0.34196376
0.33836429
0.33497004
0.33178912
0.32876728
0.3259304
0.3232389
0.32073907
0.31845534
0.41684824
0.41548455
0.41392127
0.41215056
0.41016559
0.4079609
0.40553289
0.40288038
0.40000508
0.39691219
0.39361081
0.39011422
0.38644023
0.38261024
0.37864874
0.37458332
0.3704431
0.36626068
0.36206981
0.35790046
0.35377814
0.34973331
0.3457952
0.34200258
0.33840143
0.33500585
0.33182219
0.3287963
0.32595556
0.32326111
0.32075998
0.31847507
0.42036082
0.41953313
0.41853126
0.41734601
0.41596834
0.41438957
0.41260174
0.4105979
0.40837258
0.40592217
0.40324563
0.40034485
0.39722529
0.39389645
0.39037204
0.38667037
0.38281334
0.3788259
0.37473607
0.37057324
0.36637014
0.36216068
0.35797486
0.35383839
0.34978233
0.3458366
0.34204007
0.33843748
0.3350406
0.33185421
0.32882431
0.32597988
0.32328265
0.32078038
0.31849438
0.42245868
0.4220906
0.42157436
0.42090124
0.42006214
0.41904779
0.41784884
0.41645611
0.41486078
0.41305478
0.41103108
0.40878419
0.40631055
0.40360921
0.40068228
0.39753553
0.39417881
0.39062629
0.38689675
0.38301261
0.37899926
0.3748851
0.3706998
0.36647622
0.36224838
0.35804636
0.35389607
0.34982922
0.34587632
0.34207625
0.33847243
0.3350743
0.33188516
0.32885133
0.32600336
0.32330352
0.32080027
0.42336108
0.42338189
0.42327706
0.42303946
0.42266139
0.42213446
0.42144982
0.42059825
0.41957035
0.41835662
0.41694776
0.41533481
0.4135096
0.41146506
0.40919567
0.40669795
0.40397107
0.40101735
0.39784287
0.39445786
0.39087693
0.38711936
0.38320803
0.37916879
0.37503041
0.37082278
0.36657891
0.36233293
0.35811498
0.35395122
0.34987399
0.34591438
0.34211116
0.3385063
0.33510694
0.33191506
0.32887737
0.32602602
0.32332375
0.32081965
0.42162179
0.42225841
0.42280575
0.42325775
0.42360849
0.42385211
0.42398268
0.42399397
0.42387925
0.42363128
0.42324224
0.42270361
0.42200643
0.42114134
0.42009882
0.41886924
0.41744318
0.41581156
0.41396612
0.41189976
0.40960697
0.40708432
0.40433115
0.40135
0.39814727
0.39473357
0.39112395
0.38733817
0.3833996
0.3793345
0.37517198
0.37094219
0.36667821
0.36241432
0.35818073
0.35400386
0.34991668
0.34595082
0.34214481
0.33853908
0.33513852
0.3319439
0.32890243
0.32604785
0.32334334
0.32083853
0.41384118
0.41496285
0.4160391
0.41708254
0.41809048
0.4190554
0.41996873
0.420822
0.4216071
0.42231647
0.42294311
0.42348058
0.42392277
0.42426367
0.42449738
0.42461785
0.42461874
0.42449323
0.42423396
0.42383297
0.42328165
0.4225709
0.42169126
0.42063307
0.41938658
0.41794225
0.41629092
0.41442425
0.4123351
0.410018
0.4074696
0.40468941
0.4016802
0.39844869
0.39500591
0.39136732
0.38755318
0.3835873
0.37949637
0.37530983
0.37105801
0.36677413
0.36249257
0.35824363
0.35405402
0.34995734
0.34598568
0.34217722
0.3385708
0.33516905
0.33197168
0.32892652
0.32606889
0.3233623
0.32085693
0.0010383133
0.0032277478
0.0056331445
0.0082769195
0.011177711
0.014344288
0.01774651
0.0212812
0.024768299
0.02801515
0.030907833
0.033430943
0.035627606
0.037559648
0.039285617
0.040853417
0.042300174
0.043653922
0.044935447
0.046160712
0.04734248
0.048490601
0.049612921
0.050716133
0.051805812
0.052886897
0.053963851
0.055040716
0.056121322
0.057209258
0.05830789
0.059420435
0.060549913
0.061699312
0.062871754
0.064070376
0.065298486
0.066559743
0.067858297
0.069199064
0.070588121
0.072033157
0.0735442
0.07513486
0.076824229
0.078640755
0.080630174
0.082873618
0.085536384
0.089033255
0.09422001
0.10173698
0.1114071
0.12343806
0.13837302
0.15693292
0.17985906
0.20753553
0.23941014
0.27363507
0.30738847
0.33777551
0.3627232
0.38142501
0.39426859
0.40242095
0.40731398
0.41023131
0.41210141
0.41348428
0.41466514
0.41576603
0.41682848
0.41786025
0.41885706
0.41981097
0.42071336
0.42155576
0.42233008
0.42302877
0.42364484
0.42417179
0.42460347
0.42493381
0.42515681
0.42526636
0.425256
0.42511879
0.42484729
0.4244334
0.4238684
0.42314307
0.42224785
0.42117294
0.4199085
0.41844486
0.41677278
0.41488388
0.41277099
0.41042868
0.40785372
0.40504578
0.40200789
0.39874711
0.39527484
0.39160702
0.38776435
0.38377112
0.37965439
0.37544392
0.37117025
0.36686666
0.36256768
0.35830371
0.35410173
0.34999601
0.34601899
0.34220843
0.33860145
0.33519851
0.3319984
0.32894965
0.32608914
0.32338065
0.32087484
0.0011041502
0.0034320441
0.0059891448
0.0087991497
0.01188151
0.015244461
0.018853365
0.022594641
0.02627491
0.029692927
0.03273421
0.035386905
0.037698023
0.039732583
0.041551642
0.043205076
0.044731566
0.046160374
0.047513232
0.048806857
0.050054644
0.051266939
0.052451989
0.053616834
0.054767338
0.055908693
0.057045592
0.058182283
0.05932279
0.060470882
0.061630094
0.062803803
0.063995181
0.065207362
0.066443619
0.067707238
0.069001684
0.070330781
0.071698861
0.07311105
0.074573678
0.076094737
0.077684636
0.079357474
0.08113297
0.083040409
0.085126675
0.087474495
0.090251327
0.093874018
0.099209308
0.10695211
0.11693034
0.12934357
0.14474016
0.16384171
0.18735897
0.21557542
0.24775626
0.28186054
0.31497843
0.34429086
0.36792647
0.38531736
0.39704271
0.40436699
0.40872373
0.41133536
0.41305
0.41435993
0.41550654
0.41658876
0.4176379
0.41865792
0.41964331
0.42058584
0.42147687
0.42230793
0.42307097
0.42375844
0.42436332
0.42487912
0.4252996
0.42561864
0.42583017
0.42592797
0.4259055
0.42575572
0.42547106
0.42504332
0.42446366
0.42372276
0.42281093
0.42171828
0.42043484
0.41895086
0.41725703
0.4153449
0.41320734
0.41083893
0.4082366
0.4054002
0.40233302
0.39904246
0.39554034
0.39184301
0.38797167
0.38395104
0.37980855
0.37557427
0.37127889
0.36695582
0.36263967
0.35836098
0.35414702
0.35003271
0.34605079
0.34223843
0.33863104
0.33522692
0.33202408
0.32897184
0.32610861
0.3233984
0.0011714361
0.0036408053
0.0063528748
0.0093326352
0.012600313
0.016163429
0.019982393
0.023932557
0.027806934
0.031396127
0.034585744
0.037367847
0.039793421
0.041930653
0.043843059
0.045582439
0.047189
0.048693203
0.050117714
0.05148
0.052794081
0.054070799
0.055318804
0.056545482
0.057756986
0.058958763
0.060155737
0.06135236
0.062552852
0.063761164
0.064980998
0.066215894
0.067469173
0.068744115
0.070044148
0.071372707
0.072733413
0.074130253
0.075567746
0.077051225
0.078587268
0.080184174
0.081852728
0.08360751
0.085468859
0.08746688
0.089649567
0.092101165
0.094991089
0.098737445
0.10421689
0.11218064
0.1224651
0.13525945
0.15111517
0.17075184
0.19484414
0.22356546
0.2559922
0.28989855
0.32230961
0.35050621
0.37283132
0.38895255
0.39962521
0.40619148
0.41007078
0.41241736
0.4140001
0.41524865
0.41636579
0.41743094
0.4184671
0.41947523
0.4204489
0.42137969
0.42225893
0.4230782
0.42382945
0.42450515
0.42509827
0.42560226
0.42601086
0.42631789
0.42651717
0.42660243
0.42656701
0.42640377
0.42610504
0.42566251
0.42506724
0.42430978
0.42338034
0.42226892
0.42096546
0.41946012
0.41774352
0.4158072
0.41364402
0.41124867
0.40861817
0.4057526
0.40265553
0.39933471
0.39580236
0.39207528
0.38817512
0.38412705
0.37995884
0.37570086
0.37138395
0.3670416
0.36270856
0.35841547
0.35418994
0.35006749
0.34608111
0.34226726
0.33865957
0.33525426
0.33204871
0.32899308
0.32612731
0.32341555
0.0012401068
0.0038538267
0.0067239699
0.009876825
0.013333354
0.017100172
0.021132245
0.025293211
0.029362239
0.033122284
0.0364597
0.039370799
0.041910619
0.044150484
0.046156314
0.047981783
0.049668587
0.051248368
0.052744704
0.054175806
0.055556315
0.056897568
0.058208616
0.059497193
0.060769741
0.062031965
0.063289016
0.064545556
0.065805999
0.067074475
0.06835486
0.069650853
0.070965926
0.072303506
0.073667175
0.075060518
0.07648731
0.077951706
0.079458405
0.081012949
0.082622166
0.084294655
0.086041574
0.08787798
0.089824821
0.091913006
0.094191613
0.096746331
0.099748354
0.10361635
0.10923591
0.11741565
0.12800421
0.14117805
0.15748959
0.17765379
0.20230345
0.23149237
0.26410329
0.29773602
0.32937446
0.35642228
0.37744684
0.39234549
0.4020328
0.40790913
0.41136575
0.41348363
0.41495477
0.41615155
0.41724306
0.41829235
0.41931572
0.42031178
0.42127343
0.42219212
0.42305917
0.4238662
0.42460517
0.42526856
0.42584932
0.42634089
0.42673694
0.42703122
0.42721751
0.42728943
0.42724023
0.42706267
0.42674898
0.42629075
0.4256789
0.42490391
0.42395587
0.42282469
0.42150019
0.41997248
0.41823212
0.41627065
0.41408095
0.41165778
0.40899834
0.40610291
0.40297537
0.39962381
0.39606087
0.39230378
0.38837468
0.38429913
0.38010526
0.37582368
0.37148542
0.36712401
0.36277435
0.35846721
0.35423052
0.3501004
0.34610998
0.34229494
0.33868705
0.33528055
0.3320723
0.3290134
0.32614526
0.32343212
0.001310101
0.0040709121
0.0071020807
0.010431194
0.014079897
0.018053696
0.02230161
0.026674904
0.030938742
0.034868988
0.038353395
0.041392837
0.044046469
0.046388717
0.048487848
0.05039936
0.052166401
0.053821766
0.055389935
0.056889851
0.058336772
0.059742527
0.061116567
0.062466976
0.063800485
0.065123058
0.066440075
0.067756407
0.069076661
0.070405152
0.071745923
0.073102836
0.074479513
0.07587953
0.07730662
0.07876452
0.080257158
0.081788855
0.083364492
0.084989816
0.086671901
0.088419646
0.090244577
0.092162224
0.094194134
0.096372008
0.098745973
0.10140311
0.10451622
0.10850393
0.11425985
0.12265052
0.1335407
0.14709184
0.16385511
0.18453815
0.209726
0.23934328
0.2720757
0.3053613
0.33616733
0.36204171
0.38178354
0.39551162
0.40428175
0.40953363
0.41261804
0.4145395
0.41591642
0.41706936
0.41813829
0.41917264
0.42018332
0.42116712
0.42211646
0.42302269
0.42387716
0.4246715
0.42539772
0.42604827
0.42661611
0.42709464
0.42747748
0.42775832
0.42793087
0.42798867
0.42792487
0.42773215
0.42740262
0.42692778
0.42629843
0.42550494
0.42453733
0.42338538
0.42203886
0.42048778
0.4187227
0.41673514
0.41451801
0.41206619
0.40937703
0.40645106
0.40329247
0.39990971
0.39631582
0.39252849
0.38857031
0.38446726
0.38024778
0.37594274
0.3715833
0.36720307
0.36283708
0.35851623
0.35426881
0.35013148
0.34613744
0.34232148
0.33871348
0.33530577
0.33209485
0.32903281
0.32616248
0.32344812
0.0013813444
0.0042918213
0.0074867776
0.010995101
0.014839058
0.019022817
0.023488936
0.028075662
0.032534048
0.036633481
0.040263758
0.043430615
0.046197369
0.048641509
0.050833594
0.052830897
0.054677978
0.056408759
0.058048605
0.059617182
0.061130359
0.062600454
0.06403732
0.065449386
0.066843677
0.068226411
0.069603202
0.070979127
0.072358989
0.073747284
0.075148224
0.076565832
0.07800388
0.079466091
0.08095635
0.082478543
0.084036752
0.08563546
0.087279728
0.088975509
0.09073012
0.092552755
0.094455306
0.096453767
0.098570279
0.10083732
0.10330604
0.10606484
0.10928802
0.11339362
0.11928241
0.12787876
0.13906769
0.15299333
0.17020342
0.19139562
0.217101
0.24710564
0.27989635
0.3127641
0.34268435
0.3673689
0.38585308
0.39846664
0.4063878
0.41107762
0.41383599
0.41558944
0.41688691
0.41800255
0.41905132
0.42007141
0.42106942
0.42204076
0.4229775
0.42387093
0.42471243
0.42549367
0.42620665
0.42684386
0.42739822
0.4278631
0.42823209
0.42849882
0.4286569
0.42869982
0.42862064
0.42841192
0.4280657
0.42757334
0.42692558
0.42611266
0.4251245
0.42395082
0.42258129
0.42100588
0.41921511
0.41720052
0.41495508
0.41247377
0.40975415
0.40679698
0.40360677
0.40019235
0.39656717
0.39274939
0.38876201
0.38463143
0.3803864
0.37605804
0.37167761
0.36727879
0.36289677
0.35856258
0.35430484
0.35016077
0.34616353
0.34234689
0.33873886
0.33532993
0.33211637
0.32905131
0.32617896
0.32346356
0.0014537213
0.0045161894
0.0078774138
0.011567579
0.015609505
0.020005788
0.024691989
0.029492717
0.034144884
0.038412061
0.042186729
0.045479756
0.048358661
0.050903956
0.05318843
0.05527108
0.057197839
0.059003728
0.060714978
0.062351964
0.06393116
0.065465368
0.066964837
0.068438346
0.069893207
0.071335895
0.072772254
0.074207566
0.075646828
0.077094714
0.078555606
0.080033685
0.081532871
0.083057032
0.084610204
0.08619642
0.087819913
0.08948533
0.091197907
0.0929638
0.094790569
0.096687698
0.098667442
0.10074625
0.10294686
0.1053025
0.10786532
0.11072501
0.11405721
0.11827895
0.1242973
0.13309386
0.14457819
0.15887491
0.17652615
0.19821685
0.22441772
0.25476724
0.28755305
0.31993565
0.34892355
0.37241
0.38966833
0.40122658
0.40836619
0.41255283
0.41502701
0.41663729
0.41786778
0.41895143
0.41998193
0.42098822
0.42197352
0.42293219
0.42385603
0.42473633
0.42556449
0.42633221
0.4270315
0.42765486
0.42819521
0.42864587
0.42900038
0.42925232
0.42939525
0.42942255
0.4293272
0.42910168
0.42873791
0.42822718
0.42756009
0.42672681
0.42571718
0.4245208
0.4231273
0.42152659
0.41970919
0.41766665
0.41539203
0.41288043
0.41012961
0.40714058
0.4039182
0.40047168
0.39681489