/*--------------------------------*- C++ -*----------------------------------*\
| =========                 |                                                 |
| \\      /  F ield         | OpenFOAM: The Open Source CFD Toolbox           |
|  \\    /   O peration     | Version:  2506                                  |
|   \\  /    A nd           | Website:  www.openfoam.com                      |
|    \\/     M anipulation  |                                                 |
\*---------------------------------------------------------------------------*/
FoamFile
{
    version     2.0;
    format      ascii;
    arch        "LSB;label=32;scalar=64";
    class       volVectorField;
    location    "0.026";
    object      U;
}
// * * * * * * * * * * * * * * * * * * * * * * * * * * * * * * * * * * * * * //

dimensions      [0 1 -1 0 0 0 0];

internalField   nonuniform List<vector> 
13761
(
(-2.7373456 1.8305057 -3.4254758e-18)
(-3.0250923 2.0297603 0)
(-3.2729049 2.2366647 -2.1429024e-24)
(-3.4781865 2.4515499 0)
(-3.6387072 2.6748944 3.0541058e-22)
(-3.7526448 2.9072727 2.3052166e-18)
(-3.8186259 3.1493918 -2.1287022e-18)
(-3.8357112 3.4021212 1.9658889e-18)
(-3.8033642 3.6664756 -1.8159057e-18)
(-3.7214239 3.9436447 0)
(-3.5899886 4.2349824 0)
(-3.4093299 4.5419921 6.9570656e-22)
(-3.1797592 4.866343 -6.4628926e-22)
(-2.9014572 5.2098859 0)
(-2.5743854 5.5742778 -5.4757678e-22)
(-2.1976894 5.9615618 1.0172269e-21)
(-1.769478 6.3733211 -9.5891322e-19)
(-1.2864623 6.8105848 8.851273e-19)
(-0.74352981 7.2727225 -7.9493905e-22)
(-0.12110065 7.767052 0)
(0.62252526 8.3016601 0)
(1.4596666 8.8521742 0)
(2.3718888 9.4181125 -1.1568386e-21)
(3.6556295 9.9867135 2.1334781e-21)
(0.77572958 -0.092579769 2.5925969e-17)
(2.275374 -0.27842282 -2.6069081e-17)
(3.7822739 -0.4607682 2.445357e-17)
(5.2898198 -0.64348258 4.7827483e-23)
(6.7868881 -0.82403831 -2.1402403e-17)
(8.2555916 -0.99979622 0)
(9.6624516 -1.1663946 1.8525455e-17)
(10.953907 -1.3166474 8.4768976e-23)
(12.066164 -1.4421461 -3.1720806e-17)
(12.954793 -1.5371005 1.4623165e-17)
(13.617778 -1.6009388 -1.3453563e-17)
(14.084203 -1.6368746 1.2372512e-17)
(14.390987 -1.6490359 -1.1386374e-17)
(14.57059 -1.641103 2.0967599e-17)
(14.648342 -1.6157194 -9.6565898e-18)
(14.643592 -1.5750683 8.8972455e-18)
(14.571406 -1.5203292 -8.2018398e-18)
(14.443064 -1.4523961 -1.1583383e-22)
(14.268573 -1.372115 -6.9806796e-18)
(14.05583 -1.2798441 -2.604286e-22)
(13.811274 -1.1757754 1.1897925e-17)
(13.540413 -1.0599243 -5.4946036e-18)
(13.248112 -0.93221935 -5.075966e-18)
(12.938828 -0.79248719 4.6894113e-18)
(12.616865 -0.64050089 4.3332942e-18)
(12.286507 -0.47600212 6.2541991e-23)
(11.952077 -0.29870901 -7.4004368e-18)
(11.618029 -0.1083313 3.4193889e-18)
(11.288903 0.095435047 3.1592529e-18)
(10.969322 0.31290651 -2.918006e-18)
(10.664011 0.54439021 2.6964111e-18)
(10.377665 0.79022219 -5.5241299e-22)
(10.11499 1.0507025 -2.3008034e-18)
(9.8805669 1.3261963 -2.1257216e-18)
(9.67885 1.6171011 4.2822739e-22)
(9.5141861 1.9237914 1.8119433e-18)
(9.389954 2.2467915 0)
(9.3078092 2.5869519 7.5718045e-22)
(9.270726 2.9448964 0)
(9.2817305 3.3213091 -3.96243e-24)
(9.3437012 3.7169875 5.9595506e-22)
(9.4593534 4.132346 0)
(9.6315782 4.5683602 -1.0095767e-21)
(9.8638471 5.0258066 9.5681909e-19)
(10.160589 5.5043071 -8.8224419e-19)
(10.520584 6.0016158 0)
(10.992805 6.5204915 0)
(11.502713 7.0861268 0)
(12.240802 7.6536458 0)
(13.060227 8.2204401 -7.108235e-24)
(0.83511391 -0.10118623 2.5905094e-17)
(2.511777 -0.30871815 7.9940183e-26)
(4.2612291 -0.52325936 -4.6489397e-23)
(6.0824895 -0.74629 0)
(7.9721159 -0.97739337 8.1353203e-23)
(9.9224791 -1.2154673 0)
(11.908664 -1.4571513 -3.5269897e-23)
(13.875864 -1.6955491 3.2681235e-23)
(15.735724 -1.9195719 -6.0403416e-23)
(17.391896 -2.1171406 -1.4601369e-17)
(18.791603 -2.2816001 2.6846766e-17)
(19.941438 -2.4135792 -1.2331422e-17)
(20.880765 -2.5177282 -8.6459863e-23)
(21.653532 -2.5992032 -7.9553257e-23)
(22.295473 -2.662125 9.6069461e-18)
(22.832533 -2.7094053 -8.8541816e-18)
(23.283033 -2.7429311 0)
(23.659996 -2.763935 2.294237e-22)
(23.9729 -2.7731634 0)
(24.229166 -2.7710483 1.9567285e-22)
(24.434881 -2.7578317 -1.8101034e-22)
(24.594716 -2.7335219 -1.6725135e-22)
(24.712365 -2.6979604 0)
(24.790865 -2.6508631 4.4900073e-25)
(24.832781 -2.5918195 -4.3273522e-18)
(24.840379 -2.5203297 7.9981972e-18)
(24.815799 -2.4358281 -3.6957807e-18)
(24.761183 -2.3376819 -2.0838163e-22)
(24.678767 -2.2252237 0)
(24.570999 -2.0977377 2.9158109e-18)
(24.440547 -1.9544997 -5.388312e-18)
(24.290369 -1.794764 2.48878e-18)
(24.123681 -1.6177884 -2.2992279e-18)
(23.943908 -1.4228012 2.1248254e-18)
(23.754642 -1.2090028 0)
(23.559611 -0.97558676 -1.3305232e-24)
(23.363313 -0.72178784 1.6727333e-18)
(23.171742 -0.44707009 -3.0891697e-18)
(22.989379 -0.15061245 1.4255026e-18)
(22.82046 0.16843936 1.28344e-21)
(22.669207 0.51098539 -1.216425e-18)
(22.539842 0.87746027 -1.0418617e-24)
(22.43638 1.2688748 1.0156142e-21)
(22.362962 1.6862848 1.9120489e-18)
(22.324053 2.1288938 -1.7673573e-18)
(22.320684 2.5944239 1.8273703e-23)
(22.36916 3.0874573 1.5029791e-18)
(22.468549 3.6380586 -6.9428033e-19)
(0.70687531 -0.086101644 -2.4546398e-23)
(2.2041061 -0.26673658 -2.4713108e-23)
(3.8425421 -0.46568358 -2.4295901e-17)
(5.6217573 -0.68186316 1.1623371e-23)
(7.5356519 -0.91456415 2.1264381e-17)
(9.5725677 -1.1623444 -1.9807823e-17)
(11.704652 -1.421741 3.6833303e-17)
(13.87496 -1.6858046 -1.7073278e-17)
(15.991325 -1.9431782 6.0253977e-23)
(17.943899 -2.1803694 8.540862e-26)
(19.649875 -2.387193 1.3393955e-17)
(21.086416 -2.560751 -1.0839891e-23)
(22.281262 -2.7043305 -2.2599822e-17)
(23.282313 -2.823689 8.9448777e-23)
(24.134846 -2.9242818 9.5566475e-18)
(24.873714 -3.0102746 -6.7179083e-23)
(25.523767 -3.0846089 0)
(26.102337 -3.1492656 -1.1423782e-22)
(26.62154 -3.2055759 -1.0532424e-22)
(27.09006 -3.2546642 -6.3819633e-18)
(27.514271 -3.2967419 5.895721e-18)
(27.898778 -3.3323792 -5.4485362e-18)
(28.247274 -3.3617767 5.0363346e-18)
(28.562805 -3.3850203 4.6548306e-18)
(28.847815 -3.402097 -4.3033148e-18)
(29.104348 -3.4129156 -2.4250682e-22)
(29.334139 -3.4173079 3.6765578e-18)
(29.538702 -3.4150363 -3.3984173e-18)
(29.719434 -3.405804 0)
(29.877659 -3.3892593 -3.5388719e-22)
(30.014691 -3.3650052 2.6817588e-18)
(30.13188 -3.3326072 -4.9546195e-18)
(30.230643 -3.2916014 2.2893957e-18)
(30.312513 -3.2414939 -8.512982e-25)
(30.379147 -3.1817674 0)
(30.432327 -3.1119003 8.8056759e-22)
(30.474003 -3.0313669 1.666407e-18)
(30.506291 -2.9396589 -1.539284e-18)
(30.531501 -2.8363109 6.9409258e-22)
(30.552174 -2.7208896 1.311323e-18)
(30.571148 -2.593002 -1.2113956e-18)
(30.591626 -2.4525259 -1.1185003e-18)
(30.61752 -2.2990588 2.0652907e-18)
(30.653591 -2.1322556 -9.5231291e-19)
(30.705864 -1.9531559 1.4297432e-24)
(30.782639 -1.7640875 7.9212892e-22)
(0.6463999 -0.079063151 5.1276847e-17)
(2.0242674 -0.24535994 -1.4071813e-23)
(3.5443142 -0.43004035 -4.8357386e-17)
(5.2103033 -0.63256692 2.2649514e-17)
(7.0209305 -0.85285618 -4.0338358e-23)
(8.9685626 -1.0900837 0)
(11.028431 -1.3413455 -1.8324793e-17)
(13.14824 -1.600325 1.6992037e-17)
(15.245588 -1.8571331 0)
(17.222773 -2.0999496 -1.4511292e-17)
(18.999415 -2.3190259 6.5379784e-23)
(20.536527 -2.5095622 1.2277525e-17)
(21.838136 -2.6719847 0)
(22.935988 -2.8101022 0)
(23.869958 -2.928735 9.5316037e-18)
(24.676069 -3.0322722 -8.7707109e-18)
(25.382676 -3.1241865 1.2317333e-22)
(26.01063 -3.2070498 -7.4452748e-18)
(26.574749 -3.2827045 1.3742289e-17)
(27.085798 -3.3522699 -1.2685785e-17)
(27.551796 -3.4171256 5.8580806e-18)
(27.978848 -3.4778256 -5.4128717e-18)
(28.371438 -3.534946 1.0005965e-17)
(28.733015 -3.5889472 -4.623933e-18)
(29.066182 -3.6401722 4.2752424e-18)
(29.373002 -3.6888874 -3.9514952e-18)
(29.655139 -3.7353097 2.2323093e-22)
(29.913965 -3.7796215 0)
(30.15068 -3.8219802 -3.1210989e-18)
(30.366362 -3.8625263 2.8847322e-18)
(30.562026 -3.901391 3.2516655e-22)
(30.73868 -3.9386983 -3.0097217e-22)
(30.897349 -3.9745754 -2.2758131e-18)
(31.03914 -4.0091546 2.10233e-18)
(31.165254 -4.0425755 -4.7381971e-22)
(31.276986 -4.0749858 1.7937372e-18)
(31.375787 -4.106548 -1.657072e-18)
(31.463295 -4.1374469 1.5292701e-18)
(31.541378 -4.1678858 -1.4129828e-18)
(31.612224 -4.1981056 1.3048862e-18)
(31.678515 -4.2283925 -5.8383151e-22)
(31.743695 -4.2590812 -1.1115127e-18)
(31.812776 -4.2906325 -1.0282619e-18)
(0.56902418 -0.068872616 -2.5501968e-17)
(1.7740138 -0.21367626 0)
(3.0970339 -0.37381194 2.2952982e-23)
(4.5442118 -0.54919383 4.2952864e-23)
(6.1188136 -0.74051352 4.0177498e-23)
(7.8197606 -0.94773384 0)
(9.6302865 -1.1689528 0)
(11.506656 -1.398981 -1.6896519e-17)
(13.376698 -1.6292214 1.56286e-17)
(15.156843 -1.8496908 -5.5006136e-23)
(16.781279 -2.0524948 -5.7640861e-26)
(18.216833 -2.23365 1.221728e-17)
(19.460431 -2.3927944 -1.1233032e-17)
(20.529506 -2.5320382 0)
(21.450587 -2.6546033 0)
(22.250934 -2.76383 0)
(22.954397 -2.8626796 -1.227878e-22)
(23.580057 -2.9535572 0)
(24.1424 -3.0383123 0)
(24.652375 -3.1183817 9.6210581e-23)
(25.118341 -3.1949125 -3.5549455e-22)
(25.546427 -3.2687857 -1.642966e-22)
(25.941187 -3.3407053 -4.9716912e-18)
(26.306128 -3.4112649 9.1885792e-18)
(26.643856 -3.4809578 -4.2472233e-18)
(26.956406 -3.5502263 -3.9251931e-18)
(27.245387 -3.6194779 3.6286308e-18)
(27.512088 -3.6890944 -2.0460597e-22)
(27.757597 -3.7594564 1.891043e-22)
(27.982865 -3.8309465 2.8648185e-18)
(28.188741 -3.9039551 -6.5386835e-22)
(28.376054 -3.978897 -2.4461326e-18)
(28.54563 -4.0562011 -2.2603271e-18)
(28.698346 -4.136336 2.087885e-18)
(28.835185 -4.2198181 5.3946821e-25)
(28.957222 -4.3071924 -1.7829712e-18)
(29.065717 -4.3990561 4.0479389e-22)
(29.162191 -4.4960725 1.5210871e-18)
(29.248537 -4.5989729 0)
(0.43073839 -0.052174076 2.4208961e-23)
(1.3528141 -0.1625936 -2.5512597e-17)
(2.3776839 -0.28672306 2.3931075e-17)
(3.5142533 -0.42473235 -5.7793802e-26)
(4.769364 -0.57769137 0)
(6.145781 -0.74610463 0)
(7.6313363 -0.92863599 0)
(9.1875154 -1.120814 -1.6799288e-17)
(10.748339 -1.314833 1.1568444e-23)
(12.238764 -1.5017953 2.8664696e-17)
(13.602879 -1.6750615 -1.1342509e-22)
(14.814841 -1.8316047 -1.2132867e-17)
(15.872991 -1.9712929 0)
(16.790506 -2.0957644 0)
(17.58703 -2.2074677 9.4332565e-18)
(18.283119 -2.3089679 -8.6791784e-18)
(18.897341 -2.4026163 -1.2181123e-22)
(19.4451 -2.4904135 0)
(19.938404 -2.5739598 0)
(20.386571 -2.6545534 -1.9119985e-22)
(20.796799 -2.7332604 1.7662791e-22)
(21.174403 -2.8109426 0)
(21.523349 -2.888315 -4.9374518e-18)
(21.846682 -2.9660064 4.5625833e-18)
(22.146677 -3.0445742 0)
(22.42511 -3.1245414 -2.3804987e-22)
(22.683379 -3.2064099 3.6035643e-18)
(22.922603 -3.2906754 -6.6609755e-18)
(23.143742 -3.3778442 3.0783738e-18)
(23.347633 -3.4684412 0)
(23.535072 -3.5630154 6.4175535e-22)
(23.706867 -3.662151 -2.4289763e-18)
(23.86387 -3.7664687 2.2448634e-18)
(24.00706 -3.87664 0)
(24.137586 -3.9933995 1.9171266e-18)
(0.21874894 -0.026754651 -2.4025082e-23)
(0.71705005 -0.08551793 -2.5369452e-17)
(1.3038839 -0.15697617 2.379701e-17)
(1.991139 -0.24089482 -4.255265e-23)
(2.7893438 -0.33902754 0)
(3.7058173 -0.45240303 3.6940105e-23)
(4.7360266 -0.58065862 3.4329114e-23)
(5.8530049 -0.72070954 1.6702683e-17)
(7.0043472 -0.86638775 -3.0879894e-17)
(8.1266287 -1.0101679 2.8487864e-17)
(9.1702185 -1.1462207 -2.6219121e-17)
(10.110052 -1.2716063 2.410756e-17)
(10.940916 -1.3857632 -2.2165753e-17)
(11.669731 -1.4896148 2.0379592e-17)
(12.308994 -1.5847365 -9.371105e-18)
(12.872659 -1.6729391 6.5835555e-23)
(13.373872 -1.7559271 1.2121146e-22)
(13.82386 -1.8352217 -7.3124327e-18)
(14.231581 -1.9120757 1.3489653e-17)
(14.604077 -1.9875281 -6.2250253e-18)
(14.946857 -2.062473 1.7512876e-22)
(15.264011 -2.1376503 -5.3087459e-18)
(15.558596 -2.2136944 4.9053862e-18)
(15.832969 -2.2911894 0)
(16.088905 -2.3706705 0)
(16.327809 -2.4526491 0)
(0.94199797 0.070670177 2.3458247e-17)
(2.9042737 0.21792792 -1.192521e-17)
(5.0323613 0.37760243 0)
(7.3384333 0.55062031 2.0076597e-23)
(9.825605 0.73721458 1.8779909e-23)
(12.473774 0.93587257 -1.2771958e-27)
(15.207805 1.1409512 8.510513e-18)
(17.891832 1.3422516 -7.863578e-18)
(20.383537 1.5290917 0)
(22.601208 1.6953379 0)
(24.535953 1.8403198 6.1070942e-18)
(26.218734 1.9663569 -5.6032158e-18)
(27.691243 2.0765739 0)
(28.993645 2.1739803 -3.6087826e-23)
(30.160219 2.2611441 -3.320718e-23)
(31.218598 2.3401341 0)
(32.190622 2.4125842 -3.6961751e-18)
(33.093296 2.4797649 3.4107992e-18)
(33.939627 2.5426468 -3.151233e-18)
(34.739899 2.6019953 2.9133487e-18)
(35.502485 2.658432 2.6941227e-18)
(36.233877 2.7124364 -4.9854737e-18)
(36.939181 2.7643839 -3.962459e-25)
(37.622613 2.8145821 6.4760646e-23)
(38.2875 2.8632711 1.9769881e-18)
(38.9366 2.9106479 1.8299892e-18)
(39.572212 2.9568741 -1.0298717e-22)
(40.196239 3.0020804 4.2971504e-25)
(40.81034 3.0463783 -1.4512802e-18)
(41.415959 3.0898618 0)
(42.014373 3.1326113 0)
(42.606762 3.1746985 0)
(43.194213 3.2161865 -1.8847812e-26)
(43.777824 3.2571379 2.4014211e-22)
(44.358815 3.2976218 -9.096815e-19)
(44.938485 3.3377117 8.4062559e-19)
(45.518337 3.3774937 -2.7461933e-26)
(46.100219 3.4170765 -7.183522e-19)
(46.686495 3.4566045 6.6320288e-19)
(47.280349 3.4962786 -2.9951591e-22)
(47.886263 3.5363915 2.7671958e-22)
(48.51078 3.5773827 -5.1126882e-22)
(49.163983 3.619947 -4.722384e-22)
(49.862539 3.6652568 -4.4615225e-19)
(50.636155 3.7154396 8.2474487e-19)
(51.544597 3.7748395 -3.8067335e-19)
(52.728642 3.8540023 0)
(54.641174 3.9848765 -3.2397902e-19)
(58.712587 4.2764346 2.9854835e-19)
(0.93971701 0.071081718 -1.1178103e-23)
(2.896674 0.21917596 1.1916687e-17)
(5.0183759 0.37969609 -1.1205915e-17)
(7.3168794 0.55357736 0)
(9.7952897 0.74105283 9.8395863e-18)
(12.433782 0.94061576 -9.1647264e-18)
(15.157931 1.1466277 -1.6220646e-23)
(17.832641 1.3488601 0)
(20.315765 1.5365526 0)
(22.525272 1.703495 0)
(24.452025 1.8489921 2.5902894e-27)
(26.126972 1.9753814 0)
(27.591906 2.0858208 -3.9228416e-23)
(28.887085 2.1833516 3.6062592e-23)
(30.046843 2.2705667 3.3183161e-23)
(31.098835 2.3495528 -6.1122129e-23)
(32.064898 2.4219555 0)
(32.962024 2.4890533 0)
(33.803206 2.5518218 -4.8041794e-23)
(34.598708 2.6110295 8.8839731e-23)
(35.356883 2.6672989 -1.6429725e-22)
(36.084198 2.7211093 0)
(36.785742 2.7728347 0)
(37.465714 2.822781 -7.2237318e-27)
(38.127432 2.8711863 0)
(38.773641 2.918244 0)
(39.406632 2.9641121 0)
(40.028299 3.0089176 1.5671734e-18)
(40.640302 3.0527679 -1.4506333e-18)
(41.244079 3.0957524 0)
(41.840893 3.137946 0)
(42.431908 3.1794139 -1.4023307e-22)
(43.01819 3.2202129 1.0625215e-18)
(43.600817 3.2603985 -9.8294058e-19)
(44.180986 3.3000328 2.2189855e-22)
(44.759969 3.3391817 2.0515408e-22)
(45.339238 3.3779238 -7.5849985e-22)
(45.920594 3.4163606 0)
(46.506343 3.4546288 6.4785418e-22)
(47.099571 3.4929218 2.9934127e-22)
(47.704618 3.5315242 -2.7655769e-22)
(48.327797 3.5708664 5.1096859e-22)
(48.978781 3.6116291 5.1788557e-26)
(49.673479 3.6549599 4.4672442e-19)
(50.440069 3.702923 -4.1209415e-19)
(51.334805 3.7596452 0)
(52.489015 3.8349261 -3.5104352e-19)
(54.323253 3.9601624 3.2376431e-19)
(58.185392 4.231703 0)
(65.251592 4.7417685 0)
(73.642347 5.3365369 2.5271892e-19)
(80.994042 5.8745552 -2.3338958e-19)
(85.821794 6.2041442 0)
(88.273846 6.4088686 0)
(89.23131 6.4663138 1.414844e-21)
(89.491104 6.5003601 0)
(89.551345 6.5103427 1.2022363e-21)
(89.56153 6.5190779 -1.1082728e-21)
(89.560207 6.5291876 2.0429241e-21)
(89.557361 6.5382265 -1.8894264e-25)
(89.552504 6.5485474 -1.7352477e-21)
(89.546563 6.5591155 1.5992044e-21)
(89.538818 6.5695383 0)
(89.529542 6.5805104 -2.7165269e-21)
(89.518228 6.5906384 -8.261525e-20)
(89.506674 6.6013119 -2.3083148e-21)
(89.496338 6.6110173 7.2289335e-20)
(89.484956 6.6211024 -7.0537008e-20)
(89.467122 6.6300856 5.7778562e-20)
(89.456578 6.6407204 0)
(89.449731 6.6521157 5.519663e-20)
(89.439362 6.663426 -8.4768475e-20)
(89.423474 6.6758758 4.6863191e-20)
(89.3997 6.690638 -4.7975716e-21)
(89.367667 6.7076414 3.0944923e-20)
(89.332195 6.7254731 -1.6291557e-20)
(89.300698 6.744287 2.2516825e-20)
(89.275797 6.7662184 -3.4572101e-20)
(89.246404 6.7919515 1.2740222e-20)
(89.215512 6.817197 -1.1735198e-20)
(89.182396 6.8463032 -1.0747125e-24)
(89.13811 6.8773599 1.9911022e-20)
(89.086389 6.912581 8.6768603e-25)
(89.032347 6.949946 -1.6888582e-20)
(88.979116 6.995053 0)
(88.919605 7.0436056 -2.8646131e-20)
(88.852246 7.0996279 1.3191241e-20)
(88.778019 7.1535718 -1.2148735e-20)
(88.706053 7.2152145 3.355947e-20)
(88.64537 7.2798753 3.0896248e-20)
(0.9336532 0.071189198 -1.1168513e-23)
(2.8776106 0.21948995 -1.1356981e-23)
(4.9848507 0.38019185 1.1197604e-17)
(7.2673391 0.55423823 -1.0510331e-17)
(9.7282081 0.74186506 -1.8755142e-23)
(12.347959 0.94157745 1.7468932e-23)
(15.053009 1.1477542 3.2420838e-23)
(17.709364 1.350168 0)
(20.17559 1.5380261 -2.7587457e-23)
(22.369788 1.7050784 0)
(24.282671 1.8506132 -6.0986266e-18)
(25.944988 1.9769711 5.5950586e-18)
(27.39834 2.0873207 5.3849401e-27)
(28.682818 2.1847145 4.722809e-18)
(29.832618 2.2717544 -4.3455938e-18)
(30.875288 2.3505341 6.1078628e-23)
(31.832589 2.4227052 -5.6299806e-23)
(32.721454 2.4895502 0)
(33.554833 2.5520472 4.8006531e-23)
(34.342955 2.6109652 0)
(35.094136 2.6669266 8.2085162e-23)
(35.814814 2.720409 0)
(36.510048 2.7717841 0)
(37.184013 2.8213543 -2.1321757e-18)
(37.840007 2.8693538 1.973956e-18)
(38.480757 2.9159716 -1.8273497e-18)
(39.108534 2.9613599 1.6916255e-18)
(39.725219 3.0056394 -1.5660004e-18)
(40.332461 3.0489105 1.4495661e-18)
(40.93169 3.0912548 0)
(41.524167 3.1327383 1.5148114e-22)
(42.111058 3.1734171 1.4015424e-22)
(42.693433 3.2133372 -1.0620444e-18)
(43.272378 3.2525427 9.8226774e-19)
(43.8491 3.2910828 9.0802366e-19)
(44.424884 3.3290095 -8.3971481e-19)
(45.00122 3.3663865 1.8954168e-22)
(45.579935 3.4032997 -3.5027252e-22)
(46.163367 3.4398701 -4.4838461e-26)
(46.754645 3.4762756 0)
(47.358152 3.5127872 5.6572889e-19)
(47.980249 3.5498252 -5.2287797e-19)
(48.630657 3.5880707 9.4328546e-22)
(49.325297 3.6286898 4.4557137e-19)
(50.092342 3.6738091 4.0255394e-22)
(50.98786 3.7276708 -3.8017477e-19)
(52.142102 3.7997351 0)
(53.97125 3.9256631 0)
(57.834167 4.196273 0)
(64.812556 4.7326985 0)
(73.156616 5.3361112 0)
(80.648484 5.8935874 0)
(85.708066 6.265475 2.1374734e-19)
(88.297768 6.4570644 -1.9645543e-19)
(89.313273 6.5346321 0)
(89.617209 6.5637669 0)
(89.68454 6.5695126 -2.4027675e-21)
(89.696844 6.576295 0)
(89.69764 6.5814516 0)
(89.695045 6.586659 -1.2227975e-19)
(89.688776 6.5936526 -1.734938e-21)
(89.679541 6.6005022 1.5965205e-21)
(89.666551 6.6088824 9.4243577e-20)
(89.650395 6.6177572 2.7140774e-21)
(89.631609 6.6279799 8.0048223e-20)
(89.609386 6.6385565 -1.4754371e-19)
(89.587519 6.6496935 -8.4992337e-21)
(89.566937 6.6605553 6.6567027e-20)
(89.547564 6.6720453 5.7736045e-20)
(89.535049 6.6866912 -4.9878636e-20)
(89.522112 6.7003257 4.2899016e-20)
(89.50836 6.715002 -5.6469726e-20)
(89.494951 6.7299381 3.121989e-20)
(89.475236 6.7457801 4.7954705e-21)
(89.447174 6.762154 -3.0919955e-20)
(89.412541 6.7818314 -8.1402665e-21)
(89.379721 6.803555 3.7499516e-20)
(89.349735 6.8263486 -2.0727839e-20)
(89.320822 6.8464171 -1.9096108e-20)
(89.291619 6.8715306 1.1725788e-20)
(89.25703 6.8958345 -1.0802117e-20)
(89.214173 6.9233482 1.9897953e-20)
(89.163656 6.9536312 8.8383126e-25)
(89.11397 6.9902447 -4.8187257e-25)
(89.063056 7.034643 -1.5542636e-20)
(89.007138 7.0862599 2.862627e-20)
(88.937033 7.1437299 -2.6361069e-20)
(88.857812 7.2002784 1.213864e-20)
(88.780054 7.2635565 -5.5891896e-20)
(88.71774 7.3255677 -4.1166949e-20)
(88.662278 7.4070389 8.4393082e-25)
(88.574468 7.4893225 -8.7188881e-21)
(88.461504 7.5875882 -4.0120977e-20)
(88.356607 7.6930347 -3.6168727e-25)
(88.273424 7.8172247 3.397846e-20)
(88.166011 7.9482236 -6.2531118e-21)
(88.072574 8.0884911 9.7776885e-20)
(88.002828 8.248559 0)
(87.90124 8.4265824 0)
(0.92641679 0.071191321 -1.1703541e-17)
(2.8557217 0.21951279 1.1899473e-17)
(4.9475041 0.38028365 -1.1189774e-17)
(7.2136856 0.55444265 -1.0503008e-17)
(9.6574473 0.74223391 1.9651174e-17)
(12.259598 0.94217725 -1.8303734e-17)
(14.947362 1.1486726 8.4932567e-18)
(17.58784 1.3515 2.9936885e-23)
(20.04021 1.5398321 2.9618214e-27)
(22.222389 1.7073576 0)
(24.124534 1.8533173 2.4981635e-27)
(25.77691 1.980034 0)
(27.220835 2.0906798 7.8347473e-23)
(28.496266 2.1883211 0)
(29.637343 2.2755773 0)
(30.671596 2.3545586 0)
(31.620775 2.4269305 5.6259661e-23)
(32.501804 2.4939869 3.4020067e-18)
(33.32762 2.5567148 -3.1431517e-18)
(34.108429 2.6158907 0)
(34.852526 2.6721426 0)
(35.566322 2.7259533 -7.5881366e-23)
(36.254855 2.7776987 -7.0232568e-23)
(36.922277 2.8276857 1.3002261e-22)
(37.571866 2.8761524 0)
(38.206328 2.9232919 0)
(38.827915 2.9692604 1.1155631e-26)
(39.438493 3.014183 -1.5647553e-18)
(40.039693 3.0581646 1.4480719e-18)
(40.632933 3.1012915 0)
(41.219466 3.1436348 -1.2402094e-18)
(41.800446 3.1852557 -4.2011721e-25)
(42.376938 3.2262056 1.0612341e-18)
(42.950028 3.2665341 0)
(43.520923 3.3062963 4.4315048e-22)
(44.090922 3.3455504 0)
(44.661532 3.3843666 1.8937351e-22)
(45.234618 3.4228376 -7.1617363e-19)
(45.812573 3.4610921 -3.2385389e-22)
(46.398616 3.4993176 6.1188038e-19)
(46.997287 3.5377984 -5.6558969e-19)
(47.615222 3.5769764 5.2249614e-19)
(48.262625 3.6175684 -4.7133195e-22)
(48.956309 3.6608048 -4.3522018e-22)
(49.726283 3.7089531 -4.0191982e-22)
(50.632915 3.7666661 -7.4196362e-22)
(51.818 3.8452796 -3.5056237e-19)
(53.736471 3.977596 -2.9544038e-25)
(57.79827 4.2862851 2.9788993e-19)
(64.807676 4.8130207 0)
(73.124075 5.4571115 9.8571104e-22)
(80.604477 6.0235759 0)
(85.690593 6.4114056 8.3430308e-22)
(88.348533 6.6034087 -1.957087e-19)
(89.350972 6.6842586 3.6196534e-19)
(89.670285 6.7038724 -1.6674917e-19)
(89.742981 6.7081237 1.5367668e-19)
(89.755119 6.7099756 -2.8327935e-19)
(89.756157 6.7093094 2.6109642e-19)
(89.756205 6.7089471 1.8813028e-21)
(89.755281 6.7089812 -2.2004991e-19)
(89.752226 6.7085461 2.0280249e-19)
(89.746175 6.7095934 -9.4184831e-20)
(89.73655 6.7108123 -5.425014e-21)
(89.723186 6.7137587 7.7493175e-20)
(89.704236 6.7175173 -1.4973922e-19)
(89.681262 6.7234945 7.2181006e-20)
(89.658596 6.7302527 3.9126417e-21)
(89.642365 6.740113 3.6056189e-21)
(89.627342 6.7508685 -3.3230571e-21)
(89.610869 6.7620423 0)
(89.596962 6.7765317 5.6432668e-21)
(89.578447 6.79156 -3.6396453e-20)
(89.553362 6.8057731 3.3534859e-20)
(89.52361 6.821428 0)
(89.492546 6.8370764 -8.1335265e-21)
(89.45701 6.8559715 7.4939931e-21)
(89.420745 6.8740004 2.7619578e-20)
(89.390042 6.8975486 -1.9082826e-20)
(89.360762 6.9209302 0)
(89.32606 6.9488827 -3.2383307e-20)
(89.283549 6.9773738 2.9826252e-20)
(89.234195 7.0103762 -1.8314605e-20)
(89.185968 7.0466149 -1.6868071e-20)
(89.138371 7.0884053 3.1063448e-20)
(89.084162 7.1369889 1.1715769e-24)
(89.014592 7.193957 0)
(88.933117 7.250839 1.2130689e-20)
(88.853911 7.3133024 1.1172136e-20)
(88.79262 7.3749331 2.0570338e-20)
(88.737612 7.4530502 3.7868372e-20)
(88.649328 7.5307931 -8.7136728e-21)
(88.536221 7.6316185 7.2170366e-20)
(88.429764 7.7335726 0)
(88.342852 7.8543156 -2.716599e-20)
(88.230421 7.9778817 0)
(88.134424 8.1224349 -9.7713068e-20)
(88.062306 8.2735959 -3.1713103e-20)
(87.957206 8.4481422 -4.8601288e-21)
(87.77831 8.6285126 4.4686668e-21)
(87.664995 8.8430139 -4.108277e-21)
(87.609928 9.0769784 -1.208148e-19)
(87.509299 9.297095 -5.2026607e-20)
(87.330627 9.5545444 -3.1857221e-21)
(0.92302418 0.071471918 0)
(2.8458338 0.22040024 0)
(4.9311126 0.38189065 1.1182985e-17)
(7.1907481 0.55687695 -1.0496703e-17)
(9.6279396 0.74560735 1.2218387e-27)
(12.223683 0.94660777 -9.1464927e-18)
(14.905682 1.1542762 8.4885088e-18)
(17.541546 1.3583571 7.8438074e-18)
(19.990381 1.5479372 -7.224e-18)
(22.169451 1.7166073 0)
(24.06829 1.8635543 1.5163021e-27)
(25.716904 1.9910992 -5.5879119e-18)
(27.156639 2.1024411 5.1311411e-18)
(28.427595 2.2006826 3.5979391e-23)
(29.564073 2.2884769 0)
(30.593718 2.367962 3.0488394e-23)
(31.538355 2.4408245 5.6211456e-23)
(32.414942 2.5083743 3.3993269e-18)
(33.23643 2.5716103 -3.1408632e-18)
(34.013024 2.6313188 -2.9036851e-18)
(34.753005 2.6881364 2.6852787e-18)
(35.462775 2.7425535 1.5165531e-22)
(36.147359 2.7949536 4.5845179e-27)
(36.810894 2.8456505 -6.4965062e-23)
(37.456642 2.8948895 -1.9708864e-18)
(38.087299 2.9428711 3.6490838e-18)
(38.705102 2.9897593 -1.6889525e-18)
(39.311901 3.0356872 1.5637408e-18)
(39.909314 3.080769 -1.4472292e-18)
(40.498744 3.1251009 1.3394371e-18)
(41.081424 3.1687653 -1.2390428e-18)
(41.658497 3.2118357 1.146246e-18)
(42.231013 3.2543772 -1.0603701e-18)
(42.800039 3.2964545 0)
(43.36677 3.3381397 -2.2142823e-22)
(43.932486 3.3795092 -8.3850435e-19)
(44.498683 3.4206532 1.5501668e-18)
(45.067218 3.4616865 -6.9924498e-22)
(45.640481 3.5027612 -6.6170529e-19)
(46.221703 3.5440892 6.1205062e-19)
(46.815445 3.5859795 -1.1298345e-18)
(47.428385 3.6288967 5.2161902e-19)
(48.07082 3.6735757 -4.7095642e-22)
(48.759808 3.7212595 4.3494874e-22)
(49.525947 3.774216 -4.0159924e-22)
(50.431286 3.8370976 4.6913681e-26)
(51.623394 3.9214302 0)
(53.577428 4.0620524 0)
(57.723181 4.3713237 5.8134087e-22)
(64.80585 4.9008317 0)
(73.114947 5.5359275 -9.8477495e-22)
(80.575142 6.0985771 0)
(85.650041 6.4855348 -2.1336533e-19)
(88.269415 6.6831497 3.9277853e-19)
(89.329709 6.7534627 -3.6139937e-19)
(89.67806 6.7865511 1.6648512e-19)
(89.764297 6.7895905 1.1987412e-21)
(89.782447 6.7937828 1.4141565e-19)
(89.784325 6.7944523 -1.3045307e-19)
(89.781174 6.7969369 -1.878768e-21)
(89.778961 6.7985472 1.1081752e-19)
(89.776384 6.8005671 -1.0372608e-19)
(89.772795 6.8028418 9.4122874e-20)
(89.767164 6.8048382 -8.4030161e-20)
(89.759658 6.8073075 2.498216e-21)
(89.749329 6.8095778 -7.1366376e-20)
(89.735931 6.812999 6.7888514e-20)
(89.721132 6.8168843 -4.2666999e-25)
(89.706998 6.8228236 -7.2067925e-21)
(89.689567 6.8273724 5.3130533e-20)
(89.679215 6.8354658 -4.8958189e-20)
(89.667467 6.8432164 -4.5113434e-20)
(89.647098 6.8530257 4.6762325e-20)
(89.623126 6.8650113 4.7877308e-21)
(89.592968 6.8784591 4.4107835e-21)
(89.557633 6.8933514 8.1290243e-21)
(89.523168 6.9072013 -1.4978895e-20)
(89.490838 6.9247424 2.7601273e-20)
(89.462505 6.9447612 -5.7211568e-20)
(89.433615 6.9673552 -9.5826653e-25)
(89.402237 6.9945806 3.236308e-20)
(89.361111 7.0229021 -1.1835372e-24)
(89.314336 7.0562611 0)
(89.266249 7.0918598 -8.428814e-21)
(89.220769 7.1352299 3.1042033e-20)
(89.171635 7.186125 -1.2466124e-24)
(89.102913 7.2424929 2.6323149e-20)
(89.016868 7.3019382 0)
(88.930952 7.3625939 1.1163598e-20)
(88.866563 7.4231751 -1.0277665e-20)
(88.813012 7.494648 -1.8923305e-20)
(88.728147 7.5724105 0)
(88.615028 7.6708768 -3.2056778e-20)
(88.505968 7.7715646 2.2122461e-20)
(88.413853 7.8880066 1.3574036e-20)
(88.299202 8.0092884 -6.2446483e-21)
(88.200947 8.1530717 5.7470699e-21)
(88.124376 8.3031188 -5.2806855e-21)
(88.016827 8.4716639 -4.8572359e-21)
(87.836849 8.658054 4.4659349e-21)
(87.717829 8.8652768 0)
(87.657784 9.0995496 1.1696772e-19)
(87.56039 9.3164604 5.8926234e-20)
(87.389918 9.5698977 0)
(87.238295 9.8255039 2.9241715e-21)
(87.186982 10.098223 -9.126368e-20)
(87.058961 10.385842 2.463628e-21)
(0.92273881 0.071963713 0)
(2.8447017 0.22190563 -1.1885701e-17)
(4.9287522 0.38446448 2.2353703e-17)
(7.1866935 0.56057881 -1.0490936e-17)
(9.6216888 0.75049389 1.8719971e-23)
(12.21483 0.95273033 -1.4132653e-27)
(14.89408 1.1616638 0)
(17.527231 1.3669769 7.8398464e-18)
(19.973199 1.5576608 2.77581e-23)
(22.14892 1.7272326 -6.6357879e-18)
(24.04385 1.8748671 1.8809097e-27)
(25.68818 2.0029157 -5.5845241e-18)
(27.123511 2.1146205 5.127772e-18)
(28.39015 2.2131225 -2.9100021e-27)
(29.522521 2.3011035 0)
(30.548333 2.3807212 3.9934202e-18)
(31.489425 2.453675 -3.6813655e-18)
(32.362752 2.5212828 -3.3969478e-18)
(33.181243 2.5845484 6.2773025e-18)
(33.955079 2.6442607 -2.9016753e-18)
(34.692513 2.7010575 -2.6834999e-18)
(35.399913 2.7554291 -3.8790025e-25)
(36.082271 2.8077584 2.2983686e-18)
(36.743692 2.8583582 -2.1273063e-18)
(37.387404 2.9074729 -4.048115e-25)
(38.016067 2.9553018 -1.1170075e-22)
(38.631887 3.0020093 3.3763245e-18)
(39.23675 3.0477329 -1.5629157e-18)
(39.832305 3.0925917 -1.7655043e-22)
(40.419974 3.1366865 -1.6339421e-22)
(41.001008 3.1801039 -3.0235744e-22)
(41.576551 3.2229214 1.3986228e-22)
(42.147648 3.2652081 -1.2938424e-22)
(42.715357 3.3070331 -2.3931356e-22)
(43.28085 3.3484731 -9.0663619e-19)
(43.845384 3.3896101 1.6760529e-18)
(44.410414 3.4305401 -7.7464258e-19)
(44.977744 3.471384 6.9917755e-22)
(45.549695 3.5122997 -3.2308091e-22)
(46.129395 3.5535039 0)
(46.721263 3.5953067 -5.5162708e-22)
(47.331756 3.6381659 1.019195e-21)
(47.970801 3.6827912 4.8200142e-19)
(48.654747 3.7303623 -4.4512181e-19)
(49.412651 3.7830061 4.0139764e-22)
(50.302463 3.84505 1.4821414e-21)
(51.457078 3.9260041 6.8383039e-22)
(53.310375 4.060676 0)
(57.292478 4.3491561 -5.8118569e-22)
(64.450985 4.8776137 -2.7336133e-19)
(72.850951 5.4958535 2.5197908e-19)
(80.388349 6.0547199 -9.0542041e-22)
(85.527301 6.4346669 -8.3302455e-22)
(88.188876 6.6358002 -1.9703216e-19)
(89.338328 6.7281603 1.7904773e-19)
(89.695579 6.7654254 1.6757951e-19)
(89.784879 6.774905 -1.5324566e-19)
(89.803786 6.7857029 1.4124577e-19)
(89.809729 6.7913493 -1.3030755e-19)
(89.811851 6.7996236 0)
(89.812368 6.8073731 -1.7297398e-21)
(89.810944 6.8158319 1.0363152e-19)
(89.80749 6.8239838 -2.9378053e-21)
(89.801279 6.8320306 -1.7334036e-19)
(89.792651 6.839707 7.9877988e-20)
(89.781221 6.8469449 0)
(89.767965 6.8536056 0)
(89.756205 6.8608618 -4.0045682e-25)
(89.743371 6.8676743 7.2022163e-21)
(89.732201 6.8749558 -4.977834e-20)
(89.722387 6.8831806 4.8927148e-20)
(89.713139 6.8912926 0)
(89.703547 6.9010074 -1.0385125e-20)
(89.684514 6.9137751 0)
(89.657318 6.9272062 -5.0154339e-25)
(89.623203 6.9431085 0)
(89.585835 6.9605035 1.4969367e-20)
(89.555419 6.979587 0)
(89.527702 7.000082 -2.5411633e-20)
(89.503385 7.0239246 1.1704366e-20)
(89.47194 7.050383 -1.078043e-20)
(89.432217 7.0819539 -9.9308675e-21)
(89.38493 7.1163456 -9.1454882e-21)
(89.338857 7.1516277 8.4228533e-21)
(89.297601 7.1936894 -4.6536751e-20)
(89.248573 7.2397383 -1.4285306e-20)