/*--------------------------------*- C++ -*----------------------------------*\
| =========                 |                                                 |
| \\      /  F ield         | OpenFOAM: The Open Source CFD Toolbox           |
|  \\    /   O peration     | Version:  2506                                  |
|   \\  /    A nd           | Website:  www.openfoam.com                      |
|    \\/     M anipulation  |                                                 |
\*---------------------------------------------------------------------------*/
FoamFile
{
    version     2.0;
    format      ascii;
    arch        "LSB;label=32;scalar=64";
    class       volScalarField;
    location    "0.0085";
    object      p;
}
// * * * * * * * * * * * * * * * * * * * * * * * * * * * * * * * * * * * * * //

dimensions      [1 -1 -2 0 0 0 0];

internalField   nonuniform List<scalar> 
13761
(
44330.243
44483.224
45197.03
55565.418
49522.052
47267.589
46461.44
45994.476
45654.019
45387.298
45168.609
44983.923
44825.343
44685.27
44559.377
44444.044
44336.312
44233.544
44135.868
44043.131
43954.023
43867.942
43785.555
43705.726
43629.105
43557.492
43489.812
43425.078
43363.708
43305.976
43251.56
43200.43
43152.486
43107.253
43064.884
43024.904
42987.252
42951.892
42918.605
42887.318
42857.868
42829.943
42803.387
42778.291
42754.426
42731.53
42709.547
42688.513
42668.328
42648.944
42630.282
42612.196
42594.699
42577.722
42561.157
42545.071
42529.43
42514.321
42499.742
42485.544
42472.223
42461.866
42454.152
42448.877
42446.136
42445.562
42446.276
42447.621
42449.407
42451.505
42453.793
42456.164
42458.534
42460.845
42463.056
42465.138
42467.077
42468.869
42470.513
42472.016
42473.386
42474.633
42475.77
42476.807
42477.753
42478.618
42479.408
42480.13
42480.788
42481.39
42481.951
42482.487
42482.924
42483.028
42482.603
42481.938
42481.375
42480.941
42480.612
42480.374
42480.219
42480.141
42480.124
42480.151
42480.212
44326.451
44361.189
44674.701
52602.303
51261.356
47748.272
46697.627
46157.281
45779.42
45487.521
45250.478
45052.026
44882.675
44734.114
44601.791
44481.553
44370.489
44265.221
44166.004
44071.334
43981.276
43895.128
43811.786
43731.129
43654.891
43583.717
43515.129
43449.512
43388.609
43331.651
43277.437
43226.211
43177.797
43132.219
43089.612
43049.354
43011.666
42976.347
42943.21
42912.101
42882.883
42855.326
42829.321
42804.826
42781.624
42759.588
42738.685
42718.815
42699.885
42681.85
42664.611
42648.163
42632.538
42617.636
42603.5
42590.109
42577.351
42565.188
42553.506
42542.421
42531.868
42521.722
42512.62
42504.532
42497.277
42490.86
42485.308
42480.612
42476.746
42473.684
42471.363
42469.595
42468.176
42467.016
42466.084
42465.349
42464.782
42464.354
42464.046
42463.836
42463.71
42463.652
42463.651
42463.694
42463.773
42463.877
42464.001
42464.138
42464.282
42464.429
42464.576
42464.718
42464.854
42464.983
42465.104
42465.219
42465.327
42465.428
42465.521
42465.602
42465.667
42465.713
42465.748
42465.776
42465.799
44280.721
44482.39
48205.842
53669.096
48488.942
46996.519
46346.75
45923.265
45602.927
45345.498
45131.647
44949.69
44791.366
44650.792
44524.847
44409.05
44301.35
44199.211
44102.802
44012.32
43924.823
43840.189
43760.155
43684.158
43611.25
43542.179
43477.665
43417.329
43359.893
43305.125
43253.297
43204.492
43158.988
43116.303
43076.265
43038.809
43003.6
42970.627
42939.685
42910.71
42883.566
42858.147
42834.264
42811.809
42790.857
42771.373
42753.166
42736.067
42719.899
42704.576
42690.153
42676.623
42664.009
42652.377
42641.636
42631.811
42622.921
42614.985
42608.009
42602.13
42597.496
42593.871
42591.103
42588.986
42587.304
42585.865
42584.531
42583.215
42581.858
42580.462
42579.164
42578.099
42577.269
42576.629
42576.144
42575.786
42575.534
42575.368
42575.274
42575.238
42575.251
42575.301
42575.382
42575.486
42575.606
42575.736
42575.873
42576.012
42576.151
42576.287
42576.418
42576.544
42576.662
42576.772
42576.87
42576.957
42577.032
42577.094
42577.143
42577.179
42577.207
42577.229
42577.247
42577.265
44251.78
44374.648
45720.833
55548.662
49707.521
47397.018
46575.807
46091.477
45736.44
45455.047
45223.129
45026.383
44856.807
44707.548
44574.282
44453.893
44342.379
44236.692
44139.424
44046.668
43957.172
43872.925
43792.796
43714.86
43640.896
43573.453
43509.454
43447.561
43388.887
43333.99
43282.321
43234.063
43188.988
43146.418
43106.69
43069.295
43034.124
43001.302
42970.608
42941.902
42915.183
42890.3
42866.978
42845.214
42825.124
42806.657
42789.67
42774.045
42759.662
42746.466
42734.345
42723.162
42712.923
42703.569
42695.075
42687.462
42680.629
42674.579
42669.515
42665.205
42661.226
42657.538
42654.311
42651.64
42649.553
42648.014
42646.961
42646.32
42645.976
42645.82
42645.797
42645.871
42646.018
42646.215
42646.446
42646.697
42646.959
42647.227
42647.494
42647.76
42648.02
42648.275
42648.522
42648.76
42648.988
42649.205
42649.411
42649.603
42649.781
42649.945
42650.096
42650.234
42650.359
42650.472
42650.575
42650.667
42650.748
42650.816
42650.869
42650.907
42650.934
42650.952
42650.968
42650.982
44245.482
44269.953
44735.402
53091.994
51807.919
48003.619
46864.038
46288.092
45889.591
45580.023
45327.916
45115.647
44932.843
44773.76
44631.971
44505.888
44388.512
44280.316
44179.987
44083.918
43994.282
43909.475
43826.771
43748.158
43675.644
43607.977
43541.775
43478.75
43420.575
43366.546
43315.537
43267.601
43222.146
43179.323
43139.333
43101.652
43066.513
43033.881
43003.556
42975.302
42949.169
42925.001
42902.537
42881.729
42862.499
42844.763
42828.498
42813.715
42800.437
42788.642
42778.147
42768.8
42760.461
42752.979
42746.362
42740.527
42735.418
42731.067
42727.012
42723.184
42720.434
42718.605
42717.358
42716.31
42715.355
42714.444
42713.557
42712.715
42711.991
42711.432
42711.017
42710.716
42710.506
42710.368
42710.288
42710.252
42710.25
42710.276
42710.324
42710.389
42710.469
42710.559
42710.658
42710.763
42710.87
42710.978
42711.085
42711.19
42711.291
42711.387
42711.477
42711.56
42711.637
42711.707
42711.77
42711.825
42711.872
42711.911
42711.942
42711.966
42711.982
42711.994
42712.005
42712.014
44247.156
44193.266
44375.739
48462.473
54209.3
49010.75
47250.319
46526.003
46069.386
45725.274
45448.745
45218.518
45021.547
44849.524
44699.225
44564.261
44441.969
44329.774
44224.443
44127.291
44036.428
43948.102
43864.402
43787.47
43714.102
43642.934
43576.038
43514.869
43457.631
43403.24
43351.584
43302.604
43256.237
43213.117
43172.728
43134.982
43100.114
43067.668
43037.694
43009.888
42984.262
42960.772
42939.319
42919.758
42901.746
42885.052
42869.673
42855.692
42843.173
42832.094
42822.392
42813.955
42806.605
42800.169
42794.57
42789.645
42785.415
42781.585
42778.375
42775.755
42773.51
42771.597
42770.269
42769.308
42768.502
42767.751
42767.013
42766.355
42765.843
42765.499
42765.297
42765.207
42765.191
42765.215
42765.264
42765.33
42765.409
42765.496
42765.589
42765.687
42765.789
42765.894
42766
42766.108
42766.215
42766.32
42766.422
42766.52
42766.614
42766.702
42766.785
42766.862
42766.932
42766.996
42767.053
42767.104
42767.149
42767.185
42767.214
42767.235
42767.249
42767.259
42767.268
42767.277
44257.667
44161.164
44221.18
45709.576
55429.734
50755.19
47832.208
46831.452
46284.785
45895.477
45589.525
45336.785
45123.643
44938.273
44776.501
44632.442
44504.377
44385.249
44276.973
44177.355
44081.561
43991.579
43909.252
43830.283
43753.101
43681.362
43616.981
43556.281
43497.008
43440.644
43387.854
43338.219
43292.022
43249.181
43208.896
43171.525
43136.892
43104.482
43074.49
43046.811
43021.276
42997.881
42976.733
42957.812
42940.785
42925.286
42911.154
42898.317
42886.701
42876.266
42866.986
42858.778
42851.613
42845.442
42840.151
42835.658
42831.784
42828.428
42825.467
42822.809
42820.712
42818.937
42817.356
42816.153
42815.141
42814.464
42814.069
42813.833
42813.654
42813.486
42813.32
42813.171
42813.071
42813.02
42813.002
42813.007
42813.028
42813.06
42813.099
42813.147
42813.2
42813.26
42813.324
42813.391
42813.46
42813.53
42813.6
42813.667
42813.733
42813.795
42813.853
42813.908
42813.958
42814.003
42814.044
42814.081
42814.113
42814.139
42814.161
42814.176
42814.187
42814.195
42814.202
42814.208
44154.72
44125.959
44602.16
51490.387
53278.475
48800.614
47248.367
46548.569
46096.011
45754.393
45476.427
45241.831
45042.489
44865.966
44713.206
44574.701
44450.537
44338.06
44231.456
44132.913
44043.555
43958.096
43874.203
43797.172
43728.261
43662.734
43598.05
43536.593
43479.962
43427.632
43378.855
43333.479
43290.6
43250.266
43212.867
43177.845
43145.199
43114.974
43087.239
43061.68
43038.107
43016.58
42997.263
42980.127
42965.012
42951.664
42939.753
42929.015
42919.272
42910.417
42902.456
42895.391
42889.155
42883.742
42879.073
42875.061
42871.625
42868.734
42866.338
42864.184
42862.335
42860.895
42859.743
42858.782
42857.971
42857.286
42856.721
42856.269
42855.922
42855.686
42855.531
42855.405
42855.264
42855.112
42854.999
42854.936
42854.904
42854.884
42854.873
42854.873
42854.882
42854.898
42854.921
42854.949
42854.98
42855.014
42855.049
42855.085
42855.12
42855.154
42855.188
42855.219
42855.249
42855.277
42855.302
42855.324
42855.343
42855.359
42855.37
42855.378
42855.384
42855.389
42855.394
44158.224
44075.313
44209.763
47206.706
55344.605
50496.137
47891.603
46900.749
46343.345
45948.87
45639.719
45382.072
45161.935
44972.731
44805.539
44657.683
44527.835
44405.521
44294.523
44195.38
44100.668
44009.224
43925.889
43851.197
43779.404
43708.232
43641.761
43582.113
43526.832
43474.759
43425.727
43379.248
43334.966
43293.814
43255.577
43219.737
43186.926
43156.68
43129.089
43103.935
43080.807
43059.381
43039.63
43021.775
43006.06
42992.409
42980.483
42969.915
42960.436
42951.937
42944.34
42937.534
42931.508
42926.195
42921.501
42917.382
42913.744
42910.576
42907.786
42905.318
42903.203
42901.35
42899.863
42898.591
42897.489
42896.536
42895.718
42895.025
42894.445
42893.965
42893.568
42893.247
42893.025
42892.882
42892.747
42892.588
42892.423
42892.281
42892.167
42892.075
42892.001
42891.942
42891.896
42891.862
42891.836
42891.819
42891.808
42891.802
42891.8
42891.802
42891.806
42891.812
42891.819
42891.828
42891.837
42891.846
42891.855
42891.862
42891.867
42891.871
42891.874
42891.877
42891.88
44170.886
44057.506
44056.949
45042.647
53075.174
53020.127
48979.83
47408.307
46665.966
46190.715
45833.141
45548.135
45304.383
45097.986
44914.322
44758.265
44614.556
44485.045
44372.054
44264.472
44161.876
44070.69
43989.078
43908.847
43830.47
43759.043
43695.899
43637.093
43579.661
43524.864
43473.25
43424.475
43379.012
43337.156
43298.097
43261.832
43228.92
43198.522
43170.708
43145.657
43123.108
43102.476
43083.233
43065.318
43048.987
43034.433
43021.634
43010.433
43000.655
42992.101
42984.519
42977.762
42971.718
42966.282
42961.456
42957.151
42953.323
42949.941
42946.896
42944.109
42941.743
42939.675
42937.958
42936.467
42935.155
42934.001
42932.993
42932.122
42931.379
42930.751
42930.222
42929.775
42929.391
42929.058
42928.77
42928.531
42928.332
42928.153
42927.984
42927.831
42927.704
42927.598
42927.509
42927.436
42927.376
42927.327
42927.288
42927.258
42927.235
42927.217
42927.205
42927.198
42927.194
42927.193
42927.194
42927.197
42927.2
42927.203
42927.204
42927.206
42927.208
42927.21
42927.212
44187.069
44054.777
43988.385
44252.117
48222.835
55132.75
50905.684
48218.298
47111.922
46502.661
46077.477
45745.44
45478.288
45243.932
45048.203
44873.306
44717.187
44583.782
44458.898
44340.683
44238.055
44146.288
44056.165
43968.55
43891.231
43824.05
43759.202
43694.5
43632.524
43575.201
43522.146
43473.061
43428.043
43385.997
43346.417
43309.804
43276.003
43244.599
43215.516
43189.159
43165.748
43145.048
43126.396
43109.148
43093.039
43078.097
43064.478
43052.301
43041.597
43032.236
43024.058
43016.876
43010.49
43004.795
42999.648
42994.962
42990.741
42986.887
42983.374
42980.233
42977.571
42975.197
42973.233
42971.526
42970.021
42968.693
42967.526
42966.513
42965.642
42964.901
42964.269
42963.729
42963.263
42962.857
42962.499
42962.182
42961.901
42961.656
42961.449
42961.27
42961.101
42960.946
42960.815
42960.71
42960.626
42960.557
42960.502
42960.457
42960.421
42960.392
42960.37
42960.353
42960.341
42960.333
42960.328
42960.323
42960.319
42960.317
42960.316
42960.317
42960.318
42960.32
42960.322
44064.222
43958.376
43984.008
45357.329
53040.482
53381.384
49624.956
47807.485
46927.755
46391.869
45997.566
45685.834
45426.777
45206.845
45010.586
44847.418
44697.113
44557.547
44438.308
44332.093
44227.413
44128.684
44043.788
43968.941
43895.918
43822.124
43752.955
43690.944
43634.345
43581.825
43533.159
43487.564
43444.047
43403.214
43365.469
43329.912
43297.129
43266.68
43238.408
43212.638
43189.894
43170.149
43152.739
43136.913
43122.219
43108.539
43095.96
43084.576
43074.403
43065.338
43057.203
43049.902
43043.328
43037.41
43032.135
43027.383
43023.123
43019.312
43015.863
43012.896
43010.3
43008.156
43006.312
43004.69
43003.263
43002.013
43000.929
43000
42999.21
42998.539
42997.965
42997.469
42997.035
42996.652
42996.311
42996.006
42995.734
42995.493
42995.281
42995.106
42994.956
42994.816
42994.688
42994.579
42994.489
42994.412
42994.348
42994.295
42994.251
42994.216
42994.188
42994.167
42994.152
42994.14
42994.129
42994.122
42994.118
42994.116
42994.116
42994.116
42994.116
42994.118
44080.501
43951.382
43890.677
44248.655
48127.41
55046.069
51989.224
48982.093
47587.849
46822.953
46331.293
45951.338
45657.168
45398.196
45188.579
45001.291
44829.654
44686.26
44559.009
44434.285
44319.813
44224.044
44138.925
44052.56
43968.245
43892.381
43826.601
43766.311
43708.341
43653.169
43601.054
43551.426
43504.737
43461.686
43421.945
43384.688
43351.036
43320.413
43291.84
43264.753
43239.678
43217.38
43198.054
43181.184
43166.085
43152.303
43139.631
43128.055
43117.494
43107.844
43099.045
43091.033
43083.755
43077.173
43071.194
43065.797
43060.916
43056.465
43052.457
43048.985
43045.909
43043.339
43041.114
43039.147
43037.405
43035.868
43034.525
43033.363
43032.363
43031.504
43030.762
43030.114
43029.544
43029.037
43028.585
43028.179
43027.817
43027.493
43027.204
43026.949
43026.73
43026.542
43026.362
43026.183
43026.021
43025.885
43025.772
43025.679
43025.602
43025.539
43025.487
43025.443
43025.407
43025.378
43025.357
43025.344
43025.335
43025.329
43025.327
43025.326
43025.325
43025.325
44098.868
43957.904
43854.805
43888.937
45209.949
51568.704
54212.519
51024.982
48670.816
47495.026
46788.921
46320.131
45945.745
45655.019
45408.713
45187.292
45007.176
44847.779
44694.582
44558.174
44445.708
44343.847
44240.963
44142.407
44058.862
43987.95
43920.766
43853.308
43787.848
43726.46
43669
43615.45
43566.489
43521.402
43479.277
43440.399
43405.265
43373.903
43345.681
43319.241
43293.833
43269.859
43248.172
43229.097
43212.389
43197.567
43184.249
43172.157
43161.058
43150.86
43141.503
43132.953
43125.2
43118.18
43111.838
43106.064
43100.816
43096.05
43091.683
43087.806
43084.378
43081.448
43078.882
43076.582
43074.515
43072.671
43071.037
43069.603
43068.353
43067.265
43066.314
43065.477
43064.736
43064.074
43063.481
43062.947
43062.468
43062.038
43061.655
43061.314
43061.011
43060.744
43060.509
43060.29
43060.077
43059.883
43059.713
43059.568
43059.446
43059.344
43059.259
43059.19
43059.133
43059.089
43059.057
43059.034
43059.018
43059.007
43059.002
43058.998
43058.996
43058.995
44117.41
43974.198
43845.613
43778.512
44097.162
46979.681
53812.062
53334.904
50543.698
48586.969
47512.768
46836.838
46358.052
45998.989
45688.148
45445.697
45236.168
45038.172
44869.872
44731.654
44603.162
44475.506
44359.714
44264.708
44182.971
44102.289
44020.615
43942.719
43871.858
43807.269
43747.745
43693.164
43642.881
43595.338
43550.173
43508.685
43469.965
43434.464
43403.276
43376.032
43350.897
43326.842
43304.076
43283.225
43264.566
43247.949
43233.108
43219.746
43207.656
43196.659
43186.634
43177.489
43169.137
43161.524
43154.554
43148.176
43142.335
43136.973
43132.075
43127.671
43123.785
43120.447
43117.53
43114.913
43112.556
43110.442
43108.56
43106.898
43105.442
43104.167
43103.048
43102.059
43101.179
43100.391
43099.683
43099.044
43098.468
43097.95
43097.485
43097.069
43096.695
43096.362
43096.081
43095.859
43095.663
43095.466
43095.277
43095.109
43094.965
43094.844
43094.743
43094.661
43094.595
43094.546
43094.508
43094.48
43094.461
43094.448
43094.442
43094.438
43094.435
43094.434
44135.858
43994.218
43850.679
43743.153
43750.743
44630.198
48869.21
54398.992
52861.281
50450.313
48699.158
47648.539
46980.228
46470.759
46099.239
45797.431
45523.69
45300.952
45120.808
44950.67
44786.147
44644.266
44530.419
44428.867
44325.358
44223.469
44132.074
44052.898
43982.047
43916.059
43854.356
43796.623
43741.662
43689.24
43639.97
43594.637
43551.401
43510.303
43472.98
43440.995
43413.595
43388.872
43365.727
43344.049
43324.035
43305.784
43289.244
43274.251
43260.651
43248.285
43237.032
43226.776
43217.454
43208.992
43201.311
43194.311
43187.881
43181.965
43176.51
43171.495
43167.056
43163.185
43159.819
43156.816
43154.123
43151.717
43149.585
43147.713
43146.081
43144.66
43143.418
43142.325
43141.357
43140.491
43139.713
43139.011
43138.375
43137.801
43137.284
43136.817
43136.395
43136.015
43135.67
43135.362
43135.093
43134.854
43134.63
43134.429
43134.251
43134.101
43133.974
43133.873
43133.792
43133.728
43133.679
43133.642
43133.616
43133.599
43133.592
43133.585
43133.582
43133.579
44014.965
43868.29
43734.652
43652.213
43816.749
45371.609
50155.256
54259.443
52691.498
50674.514
49003.442
47938.166
47226.828
46709.358
46279.309
45950.779
45690.441
45448.536
45226.301
45043.161
44894.761
44756.911
44618.853
44490.014
44381.255
44290.778
44208.48
44129.026
44052.785
43980.996
43913.412
43849.684
43790.798
43736.961
43687.452
43641.691
43598.786
43557.787
43520.332
43487.999
43460.158
43435.321
43412.53
43391.382
43371.844
43353.897
43337.413
43322.282
43308.412
43295.674
43283.981
43273.263
43263.46
43254.518
43246.346
43238.874
43232.027
43225.768
43220.08
43215.08
43210.731
43206.978
43203.647
43200.671
43198.015
43195.664
43193.601
43191.804
43190.242
43188.878
43187.68
43186.62
43185.673
43184.82
43184.047
43183.343
43182.702
43182.118
43181.589
43181.107
43180.664
43180.255
43179.877
43179.539
43179.237
43178.962
43178.705
43178.481
43178.281
43178.114
43177.967
43177.849
43177.751
43177.677
43177.619
43177.578
43177.549
43177.532
43177.524
43177.52
43177.514
44035.408
43890.605
43742.592
43626.294
43581.126
43953.63
45983.738
50574.683
53949.953
52740.12
51136.469
49539.806
48441.218
47631.832
47054.075
46614.962
46229.567
45901.999
45645.194
45432.511
45230.43
45036.242
44867.156
44731.323
44616.079
44506.864
44399.283
44297.379
44204.023
44118.714
44040.507
43969.157
43904.402
43844.985
43789.521
43740.238
43697.053
43656.287
43616.626
43579.844
43547.263
43518.531
43492.709
43469.083
43447.374
43427.405
43409.019
43392.069
43376.434
43362.003
43348.688
43336.402
43325.092
43314.675
43305.084
43296.291
43288.28
43280.938
43274.169
43268.238
43263.045
43258.584
43254.651
43251.158
43248.061
43245.332
43242.943
43240.868
43239.07
43237.509
43236.146
43234.949
43233.889
43232.942
43232.092
43231.323
43230.629
43229.999
43229.433
43228.917
43228.406
43227.849
43227.291
43226.787
43226.353
43225.998
43225.693
43225.434
43225.207
43225.02
43224.865
43224.743
43224.645
43224.572
43224.515
43224.475
43224.447
43224.434
43224.428
43224.425
43224.416
44055.588
43913.562
43763.7
43621.208
43517.22
43521.926
44067.685
46180.297
50175.109
53427.106
52953.46
51666.732
50356.036
49159.412
48289.545
47599.01
47053.633
46641.072
46294.916
45973.386
45681.795
45443.39
45253.03
45085.821
44923.184
44766.957
44626.012
44503.377
44395.627
44298.967
44211.974
44133.502
44061.036
43992.854
43927.955
43869.153
43819.096
43775.694
43734.565
43694.742
43657.432
43623.268
43592.069
43563.508
43537.315
43513.295
43491.307
43471.11
43452.51
43435.36
43419.539
43404.97
43391.525
43379.129
43367.769
43357.333
43347.729
43338.879
43330.707
43323.45
43317.095
43311.647
43306.879
43302.683
43298.994
43295.758
43292.932
43290.474
43288.339
43286.48
43284.855
43283.425
43282.161
43281.035
43280.026
43279.116
43278.294
43277.545
43276.861
43276.233
43275.697
43275.295
43274.962
43274.654
43274.366
43274.105
43273.848
43273.6
43273.375
43273.186
43273.028
43272.9
43272.796
43272.714
43272.65
43272.604
43272.569
43272.551
43272.542
43272.537
43272.522
44075.84
43936.133
43789.289
43636.102
43504.44
43408.329
43455.837
44048.323
45889.827
49096.329
52293.032
53044.097
52098.994
51147.043
50142.982
49174.744
48394.493
47767.476
47226.452
46763.366
46396.701
46094.306
45818.602
45557.448
45320.929
45119.252
44951.325
44806.498
44676.718
44559.486
44454.107
44358.872
44271.312
44190.813
44116.311
44046.183
43982.513
43928.462
43880.976
43836.237
43793.44
43752.821
43714.67
43679.087
43645.985
43615.367
43587.165
43561.277
43537.539
43515.793
43495.88
43477.576
43460.692
43445.116
43430.677
43417.269
43404.891
43393.474
43382.988
43373.532
43365.154
43357.906
43351.539
43345.926
43340.986
43336.653
43332.857
43329.529
43326.61
43324.052
43321.81
43319.842
43318.111
43316.582
43315.229
43314.027
43312.956
43311.999
43311.142
43310.373
43309.688
43309.078
43308.479
43307.852
43307.247
43306.73
43306.319
43306.006
43305.758
43305.558
43305.399
43305.275
43305.184
43305.119
43305.077
43305.05
43305.037
43305.027
43305.025
43305.024
43305.024
43958.358
43814.902
43662.499
43509.158
43383.703
43293.907
43352.227
43851.584
45219.425
47557.014
50300.925
52194.82
52350.624
51633.196
50879.487
50152.283
49384.872
48660.546
48032.884
47493.723
47011.556
46583.73
46217.618
45916.654
45667.088
45447.193
45245.825
45063.257
44900.697
44756.973
44629.884
44518.401
44422.064
44338.989
44262.069
44187.383
44119.248
44059.141
44003.9
43951.578
43901.739
43854.51
43810.064
43768.379
43729.381
43693.016
43659.234
43627.952
43599.245
43572.973
43548.961
43527.067
43507.021
43488.269
43470.976
43455.004
43440.259
43426.458
43413.874
43402.674
43392.861
43384.165
43376.422
43369.536
43363.433
43358.06
43353.369
43349.298
43345.766
43342.697
43340.024
43337.689
43335.639
43333.831
43332.227
43330.801
43329.522
43328.377
43327.342
43326.4
43325.54
43324.805
43324.235
43323.759
43323.321
43322.903
43322.528
43322.184
43321.889
43321.627
43321.395
43321.184
43321.017
43320.881
43320.78
43320.702
43320.661
43320.64
43320.625
43320.569
43980.448
43839.624
43691.747
43533.454
43381.785
43257.876
43166.437
43195.478
43521.801
44372.217
45870.014
47797.447
49767.691
51151.624
51534.5
51181.439
50586.784
49994.482
49442.898
48853.508
48259.977
47716.831
47243.347
46824.456
46442.976
46098.358
45795.756
45535.751
45312.367
45119.066
44951.451
44808.038
44686.865
44587.318
44502.914
44420.334
44336.9
44257.339
44183.452
44114.903
44051.156
43991.567
43935.873
43884.112
43835.983
43791.176
43749.368
43710.236
43673.383
43638.869
43606.88
43577.369
43550.187
43525.706
43503.095
43482.185
43462.921
43445.231
43429.085
43414.796
43402.332
43391.436
43381.906
43373.592
43366.337
43359.991
43354.431
43349.557
43345.294
43341.573
43338.327
43335.494
43333.016
43330.842
43328.926
43327.233
43325.731
43324.398
43323.208
43322.145
43321.193
43320.339
43319.579
43318.901
43318.31
43317.792
43317.351
43316.973
43316.662
43316.405
43316.191
43316.017
43315.887
43315.791
43315.722
43315.681
43315.652
43315.638
43315.628
43315.614
44002.577
43863.775
43719.93
43565.922
43403.609
43253.197
43125.34
43022.164
42999.439
43143.868
43564.073
44348.47
45470.932
46784.58
48132.501
49286.692
50005.101
50201.068
49965.611
49539.784
49065.954
48596.224
48139.609
47692.08
47258.616
46858.178
46499.576
46179.758
45894.03
45640.125
45416.911
45222.104
45050.593
44899.125
44769.427
44655.583
44546.44
44440.739
44341.145
44248.581
44163.622
44086.377
44015.787
43950.757
43890.838
43835.61
43784.695
43737.816
43694.707
43654.942
43618.008
43583.583
43551.497
43521.368
43493.496
43467.759
43443.917
43421.73
43401.233
43382.803
43366.412
43351.88
43339.023
43327.707
43317.774
43309.067
43301.447
43294.795
43289.007
43283.986
43279.64
43275.885
43272.641
43269.835
43267.401
43265.284
43263.436
43261.819
43260.404
43259.166
43258.09
43257.155
43256.348
43255.652
43255.057
43254.549
43254.116
43253.75
43253.436
43253.174
43252.979
43252.838
43252.723
43252.629
43252.554
43252.482
43252.462
43252.426
43252.406
43252.359
43887.745
43746.765
43598.512
43438.099
43273.983
43120.48
42986.327
42864.712
42790.077
42792.742
42924.292
43219.996
43706.872
44370.352
45148.171
45979.459
46806.185
47551.93
48101.753
48375.788
48372.377
48162.235
47851.608
47518.708
47189.839
46867.808
46554.686
46256.854
45980.75
45729.659
45501.937
45295.204
45104.11
44924.644
44762.806
44620.156
44491.653
44375.085
44269.263
44172.547
44083.573
44001.716
43926.46
43857.136
43793.196
43734.109
43679.405
43628.731
43581.742
43538.179
43497.81
43460.373
43425.636
43393.364
43363.334
43335.38
43309.326
43285.247
43263.569
43244.214
43227.007
43211.728
43198.209
43186.259
43175.69
43166.344
43158.095
43150.841
43144.485
43138.938
43134.111
43129.921
43126.288
43123.138
43120.404
43118.027
43115.96
43114.17
43112.624
43111.304
43110.186
43109.253
43108.486
43107.861
43107.364
43106.959
43106.645
43106.393
43106.206
43106.053
43105.946
43105.867
43105.823
43105.802
43105.798
43105.767
43105.746
43105.733
43105.746
43911.709
43772.88
43628.732
43475.154
43310.615
43143.153
42984.191
42841.179
42702.595
42585.308
42503.377
42468.732
42501.563
42614.494
42814.416
43109.99
43491.529
43939.892
44432.037
44941.691
45431.011
45852.428
46155.994
46313.453
46333.094
46247.529
46096.97
45913.575
45715.057
45510.595
45305.968
45106.755
44916.866
44738.508
44573.699
44422.921
44285.771
44161.525
44048.794
43946.115
43852.237
43766.079
43686.765
43613.675
43546.267
43483.996
43426.396
43373.043
43323.612
43277.827
43235.404
43196.075
43159.6
43125.721
43094.277
43065.028
43037.792
43012.594
42989.883
42969.605
42951.584
42935.585
42921.409
42908.824
42897.614
42887.615
42878.715
42870.838
42863.911
42857.862
42852.611
42848.074
42844.165
42840.801
42837.904
42835.413
42833.27
42831.432
42829.862
42828.522
42827.384
42826.408
42825.576
42824.853
42824.23
42823.685
42823.212
42822.797
42822.437
42822.126
42821.86
42821.635
42821.447
42821.309
42821.155
42821.135
42821.051
42820.987
42820.875
43935.657
43798.687
43657.222
43509.571
43351.76
43183.328
43012.083
42846.676
42691.67
42543.397
42397.566
42267.411
42157.056
42068.504
42008.39
41985.001
42004.006
42070.728
42194.444
42377.278
42611.512
42881.907
43171.181
43461.93
43735.054
43971.174
44149.865
44258.308
44298.058
44281.008
44222.7
44138.322
44038.028
43929.347
43818.995
43711.407
43609.251
43513.432
43423.756
43339.786
43261.203
43187.748
43119.182
43055.379
42996.042
42940.869
42889.543
42841.813
42797.481
42756.301
42718.067
42682.569
42649.552
42618.887
42590.403
42563.929
42539.254
42516.363
42495.669
42477.166
42460.7
42446.051
42433.037
42421.438
42411.04
42401.686
42393.281
42385.768
42379.102
42373.239
42368.12
42363.685
42359.865
42356.591
42353.791
42351.403
42349.371
42347.653
42346.209
42345.004
42344.014
42343.202
42342.554
42342.03
42341.624
42341.289
42341.031
42340.813
42340.641
42340.485
42340.355
42340.233
42340.136
42340.049
42339.989
42339.877
42339.789
42339.716
42339.719
43959.501
43824.364
43685.004
43541.019
43390.325
43228.673
43057.09
42882.499
42710.787
42543.698
42384.81
42229.729
42075.846
41927.88
41791.391
41667.319
41557.083
41463.437
41391.775
41347.609
41334.539
41354.125
41409.584
41499.814
41619.067
41759.069
41909.759
42060.271
42199.528
42318.019
42409.545
42470.106
42500.878
42507.578
42497.061
42475.058
42445.735
42411.324
42373.141
42332.644
42291.25
42249.99
42209.595
42170.52
42132.946
42097.034
42062.849
42030.409
41999.706
41970.762
41943.563
41918.013
41894.066
41871.706
41850.819
41831.253
41812.928
41795.855
41780.422
41766.608
41754.251
41743.172
41733.236
41724.285
41716.16
41708.747
41701.994
41695.881
41690.405
41685.551
41681.288
41677.576
41674.364
41671.598
41669.225
41667.187
41665.436
41663.919
41662.604
41661.451
41660.441
41659.545
41658.752
41658.046
41657.417
41656.861
41656.364
41655.925
41655.531
41655.186
41654.877
41654.605
41654.37
41654.168
41653.997
41653.847
41653.709
41653.583
41653.476
43849.96
43712.533
43570.901
43424.895
43271.026
43106.51
42933.367
42756.449
42579.602
42405.531
42235.142
42069.751
41909.905
41752.66
41598.34
41448.234
41306.604
41176.467
41059.308
40955.803
40866.624
40793.047
40737.299
40701.552
40686.929
40694.592
40724.255
40771.937
40831.706
40896.978
40961.445
41020.931
41073.128
41116.098
41149.145
41171.862
41184.819
41189.694
41188.584
41183.26
41174.95
41164.575
41152.568
41139.455
41125.695
41111.612
41097.43
41083.363
41069.596
41056.246
41043.409
41031.137
41019.439
41008.369
40997.907
40988.016
40978.736
40970.307
40962.803
40956.071
40949.975
40944.435
40939.367
40934.672
40930.283
40926.183
40922.383
40918.907
40915.771
40912.975
40910.507
40908.346
40906.46
40904.816
40903.368
40902.085
40900.934
40899.894
40898.946
40898.084
40897.295
40896.578
40895.923
40895.328
40894.783
40894.285
40893.826
40893.406
40893.016
40892.655
40892.322
40892.021
40891.752
40891.519
40891.325
40891.158
40891.015
40890.864
43875.416
43739.881
43600.239
43456.891
43308.423
43152.034
42986.411
42813.095
42635.135
42456.025
42278.411
42103.297
41931.286
41762.86
41598.713
41440.491
41288.349
41142.375
41003.225
40871.587
40748.1
40634.233
40531.071
40439.54
40359.981
40292.535
40237.693
40196.144
40167.839
40152.247
40149.125
40156.628
40171.507
40190.597
40210.673
40229.367
40245.653
40259.296
40270.122
40278.127
40283.67
40286.946
40288.231
40287.987
40286.542
40284.228
40281.269
40277.868
40274.194
40270.336
40266.403
40262.438
40258.532
40254.764
40251.18
40247.756
40244.535
40241.682
40239.189
40236.938
40234.83
40232.825
40230.905
40229.032
40227.177
40225.339
40223.536
40221.797
40220.148
40218.606
40217.181
40215.874
40214.68
40213.59
40212.59
40211.668
40210.813
40210.023
40209.295
40208.627
40208.018
40207.468
40206.97
40206.525
40206.122
40205.763
40205.433
40205.138
40204.867