/*--------------------------------*- C++ -*----------------------------------*\
| =========                 |                                                 |
| \\      /  F ield         | OpenFOAM: The Open Source CFD Toolbox           |
|  \\    /   O peration     | Version:  2506                                  |
|   \\  /    A nd           | Website:  www.openfoam.com                      |
|    \\/     M anipulation  |                                                 |
\*---------------------------------------------------------------------------*/
FoamFile
{
    version     2.0;
    format      ascii;
    arch        "LSB;label=32;scalar=64";
    class       volScalarField;
    location    "0.0085";
    object      rho;
}
// * * * * * * * * * * * * * * * * * * * * * * * * * * * * * * * * * * * * * //

dimensions      [1 -3 0 0 0 0 0];

internalField   nonuniform List<scalar> 
13761
(
0.63665697
0.63847267
0.64634011
0.75872842
0.69454544
0.67010174
0.66135984
0.65637081
0.65271726
0.64986829
0.64761188
0.64572874
0.64413882
0.64273909
0.64149779
0.64038775
0.63934759
0.63835205
0.63739844
0.63651035
0.63566695
0.63486888
0.6340816
0.63332453
0.63260008
0.63193333
0.6312988
0.63068933
0.63011364
0.62956527
0.62905674
0.62858362
0.62813696
0.62771532
0.62731521
0.62694011
0.62659214
0.62625894
0.62594172
0.62564709
0.62537432
0.62510882
0.62484963
0.62460962
0.62438297
0.62416778
0.62396119
0.62376843
0.6235832
0.62338979
0.62319374
0.62301277
0.62285438
0.62271074
0.62256361
0.62239981
0.62222935
0.62207713
0.62193891
0.62181447
0.62142521
0.61910776
0.61623294
0.61452737
0.6135009
0.61283511
0.61239318
0.61210383
0.61192444
0.61182625
0.6117884
0.61179562
0.61183557
0.6118981
0.61197623
0.61206347
0.61215689
0.61225328
0.61234998
0.6124449
0.61253628
0.61262263
0.61270264
0.61277529
0.61283983
0.61289568
0.61294251
0.61298022
0.61300936
0.61302877
0.61303832
0.61303777
0.61302569
0.61299781
0.61295095
0.61288892
0.61281726
0.61273762
0.61265362
0.61257188
0.61250284
0.61245471
0.61242825
0.61241745
0.61241565
0.636621
0.63708385
0.64069933
0.72670551
0.71363796
0.67541536
0.66395335
0.65815985
0.65411168
0.65099773
0.64854025
0.64649986
0.64478748
0.64328826
0.64197343
0.64080594
0.63972856
0.63870198
0.63773276
0.63682931
0.63597915
0.63517942
0.6343866
0.63362376
0.63290267
0.6322391
0.63159882
0.63098293
0.63041085
0.62986928
0.62936468
0.62889269
0.62844418
0.62802073
0.62761936
0.62724324
0.62689593
0.62656403
0.62624649
0.62595603
0.62568742
0.62542386
0.62517188
0.6249378
0.62471916
0.62451214
0.62431198
0.62412546
0.62395345
0.6237844
0.6236142
0.62345294
0.62331191
0.62318914
0.62306228
0.62292193
0.62278479
0.62266806
0.62256752
0.6224163
0.62186541
0.61921396
0.61636157
0.61467997
0.61352534
0.61266783
0.61201169
0.61150171
0.61110542
0.61079974
0.61056593
0.61038727
0.61025177
0.61015099
0.61007827
0.61002753
0.60999308
0.60997177
0.60996099
0.60995839
0.60996181
0.6099696
0.60998024
0.60999246
0.61000522
0.61001762
0.61002897
0.61003866
0.61004632
0.61005157
0.61005441
0.61005476
0.61005298
0.61004935
0.61004464
0.61003931
0.6100342
0.61002975
0.61002642
0.61002458
0.6100246
0.6100254
0.61002631
0.61002745
0.61002907
0.63618823
0.6386267
0.67887537
0.74018037
0.68355378
0.66729673
0.66031388
0.65573235
0.65228644
0.64959677
0.64738392
0.645532
0.64392242
0.64252106
0.64129198
0.64016324
0.63910867
0.63811171
0.63718781
0.63632988
0.63551764
0.63471049
0.63395091
0.63323431
0.63255692
0.6319123
0.63130614
0.63074019
0.63019665
0.62969006
0.62921482
0.62876337
0.62834055
0.62793863
0.62756422
0.62721847
0.62688693
0.62657367
0.6262881
0.62602266
0.62576438
0.62551893
0.62529081
0.62508221
0.62488946
0.62470852
0.62454743
0.62439403
0.62423163
0.62407226
0.62393288
0.62382159
0.62372921
0.62363353
0.62352525
0.62341773
0.62332504
0.62326263
0.62321628
0.62285438
0.62033836
0.61754067
0.6159316
0.61485152
0.61406547
0.61347416
0.61302153
0.61267145
0.61239989
0.61219079
0.61203427
0.61192218
0.61184609
0.61179846
0.61177311
0.61176511
0.61177028
0.61178535
0.61180758
0.61183469
0.61186482
0.61189647
0.61192839
0.6119596
0.61198927
0.61201681
0.61204166
0.61206348
0.61208181
0.61209644
0.612107
0.61211345
0.61211545
0.61211313
0.6121065
0.61209626
0.61208343
0.61206995
0.61205735
0.61204767
0.61204221
0.61204047
0.61204089
0.61204161
0.63588067
0.637427
0.65193109
0.75902035
0.69682542
0.67172029
0.66281708
0.65755814
0.65375052
0.65081357
0.64840919
0.64639649
0.64466095
0.6431623
0.64185273
0.64066791
0.63956874
0.63853543
0.63759612
0.63671566
0.63588059
0.63507439
0.63432015
0.63359036
0.63290185
0.63227102
0.63167267
0.6310954
0.63054207
0.63003562
0.62956197
0.62911476
0.62869418
0.62829256
0.62792164
0.62757986
0.62725265
0.62694092
0.62665796
0.62639587
0.62614059
0.62590267
0.625682
0.62548052
0.62529391
0.62512015
0.62496955
0.62483363
0.62469946
0.62456954
0.62445354
0.62436431
0.62429435
0.62421597
0.62412603
0.62404153
0.62397984
0.62393996
0.62386514
0.62345384
0.62103346
0.61812344
0.61644664
0.61530565
0.61446433
0.61382921
0.6133466
0.61297999
0.61270201
0.61249343
0.61233964
0.61222931
0.61215356
0.61210529
0.61207885
0.61206959
0.61207373
0.61208795
0.61210983
0.61213717
0.61216822
0.61220152
0.61223592
0.61227049
0.6123045
0.61233741
0.61236879
0.6123984
0.61242608
0.61245188
0.61247584
0.61249813
0.61251902
0.61253884
0.61255792
0.6125766
0.61259509
0.61261345
0.61263142
0.6126483
0.61266275
0.61267369
0.61268089
0.61268442
0.6358131
0.63623932
0.64135018
0.73224196
0.7196714
0.67842887
0.66603405
0.65977831
0.65549167
0.65223234
0.64959148
0.64739455
0.64550827
0.6438985
0.64249433
0.64124284
0.64008396
0.63902186
0.63805096
0.63713681
0.63629609
0.63548707
0.63471587
0.63397613
0.63329643
0.63266628
0.63205226
0.63146425
0.63091375
0.63041545
0.62994754
0.62950416
0.62908246
0.62868102
0.6283104
0.627968
0.62763782
0.62732903
0.62705095
0.62679216
0.6265457
0.62631534
0.62610399
0.62591419
0.62573953
0.62557889
0.62544118
0.62531176
0.62518139
0.62506062
0.62496457
0.62489977
0.62485254
0.62479848
0.6247301
0.62466554
0.62462155
0.62458436
0.62457364
0.62424642
0.62194713
0.61899489
0.61731492
0.61617571
0.61533256
0.61469027
0.61419539
0.61381352
0.61352165
0.61330186
0.61313915
0.61302135
0.61293933
0.61288586
0.61285521
0.6128427
0.61284448
0.61285725
0.6128784
0.61290565
0.61293719
0.61297144
0.61300717
0.61304335
0.61307916
0.61311398
0.61314729
0.61317875
0.61320803
0.613235
0.61325957
0.61328188
0.61330202
0.61332037
0.61333741
0.61335392
0.61337081
0.61338906
0.61340943
0.61343123
0.61345226
0.61346932
0.61348044
0.61348526
0.6358319
0.63538224
0.63747519
0.68178374
0.74655992
0.68939144
0.67028966
0.66238141
0.65745401
0.65382086
0.6509214
0.64853322
0.64649309
0.64474915
0.64324794
0.6419026
0.64068592
0.63958256
0.63855901
0.63762699
0.63676949
0.63593204
0.63515091
0.63441831
0.6337321
0.63307402
0.63245284
0.63187834
0.6313353
0.63083712
0.63036537
0.62991529
0.62948528
0.62908095
0.62870944
0.62836577
0.62803845
0.62773174
0.62745733
0.62720738
0.62696406
0.62674091
0.62654061
0.62636129
0.62619522
0.62604309
0.62591396
0.62579651
0.62568222
0.62557342
0.62548535
0.62542965
0.62539179
0.6253427
0.62528139
0.6252277
0.62519462
0.62518699
0.62511284
0.62483392
0.62275873
0.61971405
0.61798107
0.61679591
0.61592407
0.61526402
0.61475573
0.61436227
0.61405845
0.61382702
0.61365361
0.61352594
0.61343444
0.61337212
0.61333327
0.61331314
0.61330788
0.61331426
0.61332965
0.61335185
0.61337904
0.61340967
0.61344253
0.61347661
0.6135111
0.61354535
0.61357886
0.61361127
0.61364229
0.61367185
0.61369981
0.61372627
0.61375124
0.61377499
0.61379764
0.61381962
0.6138412
0.613863
0.61388494
0.61390682
0.6139263
0.61394151
0.61395193
0.61395793
0.6359494
0.63504143
0.63577301
0.65187347
0.75753302
0.70861549
0.67671677
0.6657763
0.65987274
0.6557473
0.65251883
0.64987701
0.64764942
0.64574902
0.64411684
0.6426644
0.64138187
0.64020574
0.63914263
0.63818242
0.63727995
0.63642387
0.63564902
0.63489976
0.63418363
0.63351804
0.63291557
0.63234582
0.63178904
0.63127692
0.6307956
0.63034002
0.62991114
0.62950955
0.6291366
0.62879564
0.62847124
0.62816837
0.62790023
0.62764803
0.62740462
0.62718402
0.62698767
0.62681757
0.62666281
0.62652396
0.62640531
0.62629172
0.62618011
0.62607984
0.62600147
0.6259535
0.62592005
0.62587661
0.62582111
0.62576839
0.62572957
0.62571475
0.62572507
0.62548453
0.62366616
0.62050155
0.61866801
0.61744405
0.61653978
0.61585743
0.61533584
0.61493495
0.61462671
0.61439026
0.6142096
0.61407503
0.61397823
0.6139128
0.6138722
0.61385115
0.6138456
0.61385227
0.61386841
0.61389175
0.6139204
0.61395281
0.61398763
0.61402381
0.61406041
0.61409675
0.61413223
0.61416647
0.61419903
0.61422979
0.61425852
0.61428538
0.61431026
0.61433348
0.61435512
0.61437575
0.61439576
0.61441589
0.61443636
0.61445688
0.61447542
0.61448994
0.6144997
0.61450469
0.63497764
0.634707
0.63998971
0.71495534
0.73645301
0.68725934
0.67037222
0.66278353
0.65795775
0.65432931
0.65140591
0.6489525
0.64689943
0.6451101
0.64355944
0.64217208
0.64093598
0.63982807
0.6388007
0.63786264
0.63700598
0.63620673
0.63541378
0.63469189
0.63404625
0.6334372
0.63283442
0.63225842
0.63174202
0.63126188
0.63081174
0.63038807
0.62998524
0.62961522
0.62927622
0.62894849
0.62864402
0.62836961
0.6281171
0.62787782
0.6276585
0.62746233
0.62728896
0.62713095
0.62699684
0.62689086
0.62679575
0.62669788
0.62659777
0.62651607
0.62646997
0.62643777
0.62639079
0.62633276
0.62628195
0.62625251
0.62623624
0.62619753
0.62599484
0.62443561
0.62125671
0.61933885
0.61806403
0.61712386
0.61641162
0.61586568
0.61544539
0.61512111
0.61486977
0.61467666
0.61453028
0.61442229
0.6143442
0.61429013
0.61425619
0.61423912
0.61423544
0.61424219
0.61425722
0.61427879
0.61430533
0.61433555
0.61436833
0.61440272
0.61443795
0.61447338
0.61450852
0.61454296
0.6145765
0.61460891
0.61464008
0.61467002
0.61469884
0.61472666
0.61475378
0.61478047
0.61480703
0.61483335
0.61485839
0.61487982
0.61489574
0.61490578
0.61491039
0.63501674
0.63414735
0.63577512
0.66817469
0.75757364
0.70597586
0.67747376
0.66669511
0.66072228
0.65652292
0.65325503
0.65053796
0.64826353
0.64631506
0.64460794
0.64310881
0.64180371
0.64059648
0.63951047
0.63855536
0.63765098
0.63679521
0.63599538
0.63528979
0.63462422
0.63396845
0.63334427
0.63277963
0.63227281
0.63179428
0.63134279
0.63091215
0.63050023
0.63012276
0.62977517
0.62943976
0.62913359
0.62886227
0.62861156
0.62837282
0.62815596
0.62796168
0.62778539
0.6276222
0.62748222
0.62736892
0.62726493
0.62716558
0.62707992
0.62700974
0.62696674
0.62693549
0.62689346
0.62683817
0.62678704
0.62675018
0.62673709
0.62674848
0.62656856
0.6252099
0.6220353
0.6199867
0.61864847
0.61767682
0.61693484
0.61636371
0.6159222
0.61558046
0.61531708
0.61511548
0.61496222
0.61484673
0.61476182
0.61470266
0.61466494
0.6146446
0.61463799
0.61464255
0.61465631
0.61467735
0.61470394
0.61473473
0.61476852
0.61480435
0.6148414
0.61487899
0.61491658
0.61495366
0.6149899
0.61502505
0.61505896
0.61509155
0.61512276
0.61515279
0.61518184
0.61521031
0.6152383
0.61526582
0.61529103
0.61531193
0.61532653
0.61533443
0.61533652
0.63515641
0.63395952
0.63411102
0.64473988
0.73246085
0.7338039
0.6893084
0.67229304
0.66428737
0.65918909
0.65539483
0.65236889
0.64983397
0.6476963
0.64580988
0.64421428
0.64277696
0.64148411
0.64036686
0.63933373
0.63835322
0.63748768
0.63669843
0.63594871
0.63522428
0.63455867
0.63395675
0.6333999
0.63287566
0.63237407
0.63190035
0.63144887
0.63102488
0.63064146
0.6302838
0.62994223
0.62963653
0.62936445
0.62910839
0.62886931
0.62865879
0.62846992
0.62829852
0.6281356
0.62799395
0.6278763
0.62777178
0.62766551
0.62756366
0.62748586
0.62744517
0.62741596
0.62737027
0.62731372
0.62726184
0.62722792
0.62721981
0.62717676
0.62703247
0.62592522
0.62283806
0.62064917
0.61925027
0.61823084
0.61745573
0.61685824
0.61639708
0.61603893
0.61576115
0.61554677
0.61538278
0.61525899
0.61516721
0.61510075
0.6150541
0.61502337
0.61500654
0.61500217
0.61500693
0.6150186
0.61503593
0.61505778
0.61508319
0.61511142
0.61514185
0.61517394
0.61520724
0.61524132
0.61527593
0.61531077
0.61534572
0.61538065
0.61541564
0.61545074
0.61548623
0.61552228
0.61555896
0.61559563
0.61563015
0.61565922
0.61568012
0.61569239
0.61569741
0.63533453
0.63394241
0.6333524
0.63629099
0.67939243
0.75562771
0.71049715
0.68119664
0.66923562
0.66266468
0.65811634
0.6545941
0.65178751
0.64935445
0.64731421
0.64552775
0.6439461
0.64258983
0.64135721
0.64021158
0.63920938
0.63832896
0.63746826
0.63664549
0.63591736
0.63528039
0.63466596
0.63406107
0.63349517
0.63296788
0.63247738
0.63201982
0.63159749
0.63120754
0.63084452
0.63050425
0.63019094
0.62990975
0.62964035
0.62938994
0.62917131
0.62898283
0.62881496
0.62865453
0.62850883
0.62838194
0.6282667
0.62815671
0.6280559
0.62797943
0.62793294
0.62789624
0.62784939
0.62778935
0.62773042
0.62768578
0.6276627
0.62766761
0.62754113
0.62659894
0.62362207
0.62126849
0.61980497
0.61874544
0.61794613
0.61732681
0.61684413
0.61646922
0.61617855
0.61595416
0.6157822
0.61565185
0.61555474
0.61548423
0.61543508
0.61540297
0.61538435
0.61537619
0.61537762
0.61538774
0.61540404
0.61542464
0.6154486
0.61547512
0.61550352
0.61553319
0.61556377
0.61559487
0.61562638
0.61565801
0.61568988
0.61572171
0.61575372
0.61578575
0.61581812
0.61585073
0.61588356
0.61591573
0.61594595
0.61597091
0.61598832
0.61599827
0.61600242
0.63405095
0.63302597
0.63341976
0.64819469
0.73223926
0.73827779
0.69670528
0.67691038
0.66737573
0.66160481
0.65737935
0.65410174
0.65136886
0.64907714
0.64705627
0.64537511
0.64385667
0.64247089
0.64128736
0.64024608
0.63925073
0.63830437
0.63748836
0.63677548
0.63609013
0.63539996
0.63475162
0.63417705
0.63364874
0.63315672
0.63269919
0.63226969
0.6318677
0.63149196
0.63113501
0.63080396
0.63050647
0.63022348
0.62996074
0.6297217
0.62951521
0.62933629
0.62917688
0.6290393
0.62891706
0.62880002
0.62867662
0.62855429
0.62846777
0.62841521
0.62837152
0.62831453
0.62824449
0.62818088
0.62814015
0.62812457
0.62807645
0.62797463
0.62724702
0.62448384
0.6219556
0.62042114
0.61931459
0.61847182
0.617819
0.61731308
0.61692021
0.61661516
0.61637919
0.61619798
0.61606035
0.61595756
0.61588268
0.61583019
0.6157957
0.61577563
0.61576707
0.61576748
0.61577506
0.61578947
0.61580949
0.61583325
0.61585919
0.61588677
0.61591539
0.61594458
0.61597424
0.61600408
0.6160337
0.61606296
0.6160918
0.61612043
0.61614901
0.61617795
0.61620763
0.61623847
0.61627097
0.61630353
0.61633249
0.61635429
0.61636751
0.61637293
0.63423952
0.6329562
0.63241377
0.63632732
0.67840034
0.75431965
0.72250965
0.68973248
0.67467283
0.66639823
0.66109716
0.65707147
0.65394505
0.65124327
0.64904325
0.64712097
0.64537609
0.64391265
0.64264177
0.64142639
0.64031836
0.63937391
0.63854841
0.63773549
0.63694394
0.63622296
0.63559191
0.63502289
0.63447802
0.63396097
0.63347339
0.63300739
0.63257187
0.63217118
0.63179749
0.63144918
0.63114295
0.63085738
0.63058394
0.63033044
0.63010284
0.62990057
0.629721
0.6295665
0.62943285
0.62931348
0.62920037
0.6290874
0.62899969
0.62893556
0.62888133
0.62881821
0.62874332
0.62867193
0.6286223
0.62859995
0.62857821
0.62847871
0.62786187
0.62530988
0.62261355
0.62100623
0.61985211
0.61897137
0.61829102
0.61775873
0.61734395
0.61702123
0.61677086
0.6165779
0.6164309
0.61632098
0.6162412
0.61618599
0.61615092
0.61613228
0.61612709
0.61613268
0.61614691
0.61616763
0.6161943
0.61622592
0.61626101
0.6162977
0.61633485
0.6163718
0.61640779
0.61644172
0.61647324
0.61650225
0.61652854
0.61655187
0.61657232
0.61658966
0.61660396
0.61661527
0.61662405
0.61662876
0.61662981
0.61662759
0.61662272
0.61661672
0.63445059
0.63302593
0.63202781
0.63250061
0.64659916
0.71629706
0.74714172
0.71217184
0.68647394
0.67381907
0.66618468
0.66115128
0.65717632
0.65407911
0.6515
0.64921254
0.64733433
0.64570456
0.64418147
0.64282543
0.64170337
0.64069722
0.63971658
0.63877829
0.63797049
0.63727772
0.63663153
0.63599965
0.6353874
0.63481137
0.63427111
0.63376337
0.63330307
0.63288142
0.63248258
0.6321191
0.63179602
0.6314912
0.63121574
0.63096693
0.63073233
0.63051292
0.63031385
0.63014408
0.63000089
0.62987191
0.62974192
0.62961626
0.62951915
0.62945217
0.62939297
0.62932216
0.62923996
0.62916308
0.62910951
0.62907529
0.62902513
0.62895048
0.62849707
0.62622675
0.62337158
0.6216742
0.62046559
0.61954337
0.6188265
0.61826705
0.61783122
0.6174906
0.61722474
0.61701802
0.61685859
0.61673737
0.61664754
0.61658377
0.61654207
0.61651911
0.61651233
0.61651932
0.61653815
0.61656677
0.61660337
0.61664678
0.61669565
0.61674822
0.61680325
0.61685913
0.6169145
0.61696906
0.61702186
0.61707082
0.61711436
0.6171526
0.61718542
0.61721229
0.61723362
0.61724895
0.61725873
0.61726129
0.61725838
0.61725168
0.6172424
0.61723292
0.63466388
0.63320684
0.63193285
0.63132115
0.63470046
0.66589567
0.7409595
0.73841583
0.70718287
0.68573292
0.6741897
0.66690291
0.66175213
0.65791921
0.65465527
0.6520851
0.6499013
0.64788612
0.6461682
0.64475211
0.6434732
0.6422226
0.64109784
0.6401535
0.63934522
0.63856445
0.63778806
0.63705359
0.63638095
0.6357642
0.63519579
0.63467026
0.634189
0.63373729
0.63330576
0.63291084
0.63254376
0.63220395
0.6319057
0.63164214
0.63140705
0.63118073
0.63096509
0.63077161
0.63060411
0.63046225
0.63032749
0.63019903
0.63008555
0.6300021
0.62993293
0.62985707
0.629772
0.62969063
0.62962633
0.62958902
0.62956677
0.62950321
0.6291176
0.62712263
0.62415221
0.62235339
0.62108669
0.62012138
0.61937003
0.61878661
0.61832924
0.61797074
0.61768989
0.61746997
0.61729812
0.61716455
0.61706197
0.616985
0.61692987
0.61689389
0.6168753
0.61687277
0.61688543
0.61691227
0.61695236
0.61700436
0.61706786
0.61714195
0.61722413
0.61731188
0.61740308
0.61749556
0.61758762
0.61767865
0.61776879
0.61785278
0.61792638
0.61798523
0.61802437
0.61803742
0.61801885
0.61796814
0.61789983
0.61783253
0.61777937
0.61774769
0.63487566
0.6334281
0.63198971
0.63094168
0.63104053
0.64039634
0.68681344
0.74763652
0.73337856
0.70636772
0.6871625
0.67586044
0.66864186
0.66319057
0.65920534
0.6560078
0.65315806
0.65082359
0.64893479
0.64720422
0.64556875
0.64414042
0.64298779
0.64196428
0.64095713
0.63997268
0.63908762
0.63831938
0.63762752
0.63698244
0.63638188
0.63581771
0.63528624
0.63478217
0.634305
0.63387186
0.63346797
0.63307778
0.63271721
0.63240864
0.63215031
0.63191614
0.63169814
0.63149672
0.63131539
0.63115452
0.63099543
0.63084328
0.63071412
0.63062014
0.63054159
0.63045572
0.6303604
0.63027049
0.63020038
0.630149
0.63009454
0.63002223
0.62974248
0.62805144
0.62501501
0.62309522
0.62176751
0.62076106
0.61997928
0.61936608
0.61888571
0.61850831
0.61821187
0.61797886
0.61779525
0.61765019
0.61753531
0.61744444
0.61737311
0.61731831
0.61727827
0.6172521
0.61723978
0.61724177
0.61725907
0.61729275
0.61734406
0.61741422
0.61750441
0.61761463
0.6177444
0.61789274
0.61805775
0.61823663
0.61842561
0.61862386
0.61883033
0.61904381
0.61926284
0.61948421
0.61970308
0.61989684
0.6200367
0.62011257
0.62013774
0.62013559
0.63365713
0.63218665
0.63084995
0.62999541
0.63176501
0.64846983
0.70120708
0.74658509
0.73175855
0.70897461
0.69084007
0.67915741
0.67156124
0.66599223
0.66142633
0.65791747
0.65514241
0.65263506
0.65035872
0.64847228
0.64692227
0.64552108
0.64414863
0.64287499
0.64178797
0.64087259
0.64005087
0.63926497
0.63851588
0.63781534
0.63715442
0.63653424
0.63596355
0.63543965
0.63495878
0.6345139
0.63408835
0.63368651
0.63332712
0.63301951
0.63275351
0.63251408
0.63229772
0.63210564
0.63193295
0.6317593
0.63158963
0.63144629
0.63133425
0.63123866
0.63114096
0.63103336
0.63092872
0.63083945
0.63077887
0.63075167
0.63068827
0.63043075
0.62899363
0.62594578
0.62387799
0.62247817
0.62142669
0.62060994
0.61996825
0.61946141
0.61906382
0.61875295
0.61851013
0.61832021
0.61817095
0.6180528
0.6179582
0.61788145
0.61781826
0.61776561
0.61772159
0.61768505
0.61765579
0.61763401
0.6176207
0.61761707
0.61762533
0.6176485
0.61768973
0.61775194
0.6178391
0.61795514
0.61810462
0.61829192
0.61852231
0.61880089
0.61913386
0.61952619
0.61998021
0.62048861
0.62101798
0.62150399
0.62187529
0.62208629
0.62215298
0.63388195
0.63243463
0.63092903
0.62971723
0.62930223
0.63328338
0.65525551
0.70605665
0.74344548
0.7325632
0.71439339
0.69703735
0.68490675
0.67615705
0.6700047
0.6652852
0.66119921
0.65774985
0.65502272
0.65277868
0.65069043
0.64872245
0.6469971
0.64558469
0.64438775
0.64327019
0.64219943
0.64119042
0.64026701
0.63942465
0.63865057
0.63794658
0.63730832
0.63671647
0.63616446
0.63567239
0.63523855
0.63483036
0.63443703
0.63408358
0.63376791
0.63348834
0.63323824
0.63301803
0.63281578
0.63261622
0.63242413
0.63226695
0.63214087
0.63203048
0.63191343
0.63178695
0.63166741
0.63157242
0.6314934
0.63139893
0.63131898
0.63114964
0.63000892
0.62704072
0.62480267
0.6233263
0.62221254
0.621349
0.62066881
0.62013392
0.61971461
0.61938797
0.61913364
0.61893552
0.61878071
0.61865897
0.61856201
0.61848328
0.61841769
0.6183613
0.6183113
0.61826553
0.6182229
0.61818275
0.61814337
0.61810304
0.61806252
0.61802254
0.61798474
0.61795031
0.61792071
0.61789728
0.61788202
0.61787715
0.61788536
0.61790958
0.61795405
0.61801939
0.61810806
0.61821359
0.61833057
0.6184532
0.61852923
0.6185499
0.61852166
0.63410398
0.63268869
0.63115841
0.62966645
0.62864248
0.62876686
0.63456212
0.65752526
0.7018697
0.73782358
0.73449862
0.72091713
0.70615802
0.69325524
0.68365864
0.67613553
0.67033947
0.66593403
0.66225027
0.65888132
0.65583866
0.65332457
0.65128506
0.64951611
0.64784294
0.64625621
0.64483386
0.64358814
0.64249013
0.64150535
0.64061792
0.6398195
0.63908814
0.63840224
0.63775615
0.63717318
0.63666904
0.63622082
0.63580433
0.63541177
0.63504451
0.63470711
0.63440011
0.63412691
0.63387543
0.6336338
0.6334067
0.63321153
0.63304769
0.63290017
0.63275126
0.63259566
0.63244814
0.6323332
0.63225443
0.63217473
0.63206271
0.63186676
0.6309197
0.62808054
0.62565535
0.62409817
0.62294485
0.62205108
0.62134539
0.62078833
0.62035083
0.62000769
0.61973932
0.61953047
0.61936849
0.61924321
0.61914625
0.61907081
0.61901128
0.61896305
0.61892258
0.61888677
0.61885313
0.6188193
0.61878486
0.61874914
0.61871054
0.61866727
0.61861901
0.61856711
0.61851151
0.61845238
0.61839066
0.61832631
0.61826087
0.61819386
0.6181273
0.61806763
0.61803157
0.61803407
0.61808142
0.61818812
0.61827299
0.61829987
0.61826271
0.63432656
0.632937
0.63143582
0.62982282
0.62851193
0.62758988
0.62813294
0.63441481
0.65446686
0.69012829
0.72576606
0.73470976
0.72602668
0.71563466
0.70439453
0.69386689
0.6853252
0.67842953
0.67258594
0.66767593
0.6637667
0.66052621
0.6576033
0.65488186
0.65242363
0.65030894
0.64853102
0.64699217
0.6456231
0.64439746
0.64330178
0.64232025
0.64142838
0.64061137
0.63986363
0.63916646
0.63852223
0.63797035
0.63748818
0.63703747
0.63660713
0.63619923
0.63581414
0.63546028
0.63513867
0.63483009
0.63453751
0.63427575
0.63405485
0.63385658
0.63365989
0.63345873
0.63326672
0.6331052
0.63298205
0.63287279
0.63278025
0.6326082
0.63186026
0.62920115
0.62658512
0.62493992
0.62371163
0.62274624
0.62198384
0.62138231
0.62090707
0.6205321
0.6202377
0.62000772
0.61982901
0.61969122
0.61958575
0.6195059
0.61944612
0.61940216
0.61937065
0.61934872
0.61933315
0.61932102
0.6193108
0.61930144
0.61929173
0.61928003
0.61926545
0.61924394
0.61921111
0.61916173
0.61909081
0.61899209
0.61885942
0.61868277
0.61845596
0.61816166
0.61778608
0.61730808
0.61674898
0.61614908
0.61564461
0.61529582
0.61512556
0.63318073
0.63171273
0.63011448
0.62856999
0.62733863
0.62645488
0.62708826
0.63239009
0.64724705
0.67323333
0.70402863
0.72515107
0.72766524
0.72096619
0.71326976
0.70523356
0.69678956
0.68883895
0.68197472
0.6760415
0.67080116
0.66621412
0.662302
0.65905594
0.65635192
0.65399525
0.65186589
0.64995386
0.64825751
0.64675887
0.64543671
0.64428067
0.64327524
0.64240501
0.64161341
0.64086335
0.64017951
0.63956219
0.63899407
0.6384536
0.63793861
0.63744906
0.63699676
0.63657744
0.63616899
0.63577994
0.63542483
0.63511363
0.63484177
0.63458726
0.63433768
0.63410025
0.63388336
0.63369188
0.63354145
0.63340228
0.63318753
0.63254645
0.63008179
0.62726851
0.62550466
0.62418954
0.6231614
0.62234927
0.62170451
0.62119312
0.62078883
0.62047029
0.6202203
0.62002476
0.61987255
0.61975471
0.61966448
0.61959625
0.61954567
0.61950845
0.61948145
0.61946354
0.61945416
0.61945361
0.61946211
0.6194808
0.61951127
0.61955492
0.61961456
0.61969497
0.61980164
0.61994042
0.62011798
0.62034337
0.62062749
0.62098225
0.62142151
0.62196604
0.62263993
0.62338848
0.62418788
0.62474821
0.62497176
0.62489969
0.63342195
0.63197897
0.63043674
0.62884479
0.62733087
0.62609055
0.62516394
0.62550155
0.62895744
0.6381374
0.65468185
0.67632645
0.69865696
0.71433618
0.71891162
0.71571841
0.70990171
0.70402944
0.69814269
0.69177735
0.6852939
0.67925075
0.67394574
0.66928768
0.66511712
0.66141124
0.65816544
0.6553764
0.65298027
0.65091524
0.64913347
0.64761785
0.64634221
0.64529996
0.64441288
0.64354115
0.64265228
0.64182305
0.64105557
0.64033715
0.63966222
0.6390341
0.6384657
0.63793364
0.6374196
0.63693576
0.63649607
0.63610366
0.63574469
0.63539326
0.63504436
0.63471571
0.63441847
0.6341535
0.63392167
0.63371951
0.63348323
0.63293389
0.6307726
0.62781573
0.62593646
0.62454925
0.62346057
0.62259477
0.62190501
0.62135596
0.62091996
0.62057424
0.6203006
0.62008402
0.61991258
0.61977597
0.61966605
0.619576
0.61950081
0.61943678
0.6193814
0.61933258
0.61928876
0.61924837
0.61921003
0.61917317
0.61913726
0.61910146
0.61906474
0.61902623
0.6189844
0.61893714
0.61888239
0.61881705
0.61873725
0.61863847
0.61851551
0.61835501
0.61812054
0.61783908
0.61749932
0.61721878
0.61701105
0.6168806
0.63366311
0.63223928
0.63074741
0.62921225
0.62757191
0.62605291
0.62475156
0.62371105
0.6235024
0.62503538
0.62951005
0.63808349
0.65060723
0.66545781
0.68085922
0.69419024
0.70256708
0.70498799
0.70282178
0.6985132
0.69365696
0.68888099
0.68421855
0.67952329
0.67487227
0.67049407
0.66651801
0.66296383
0.65979487
0.6569929
0.65453676
0.65240381
0.65053835
0.64892149
0.64755229
0.64632778
0.64513804
0.64399051
0.64291858
0.64192573
0.64100703
0.64016528
0.63940618
0.63870048
0.63803595
0.63742259
0.63687185
0.63638942
0.63596156
0.63554996
0.63514023
0.63475316
0.63442144
0.63414777
0.63387201
0.63356362
0.63325507
0.63278077
0.6308892
0.62780081
0.62576459
0.62427494
0.62310432
0.62216992
0.621422
0.62082399
0.62034734
0.61996877
0.61966962
0.61943408
0.61924948
0.61910504
0.61899238
0.61890364
0.61883288
0.61877485
0.61872583
0.6186817
0.61863958
0.6185969
0.61855225
0.61850301
0.61844761
0.61838427
0.618312
0.6182289
0.61813293
0.6180212
0.61789211
0.61775187
0.61760372
0.61746241
0.61733649
0.61726175
0.61727541
0.61737476
0.61764974
0.61780682
0.61784076
0.61775494
0.63249763
0.63104362
0.6295791
0.62795972
0.62627748
0.62471321
0.62335498
0.62211931
0.62135939
0.62139696
0.62280021
0.62597758
0.6313153
0.63873035
0.64756362
0.65711377
0.66673955
0.67555608
0.68219472
0.68567223
0.68591666
0.68376776
0.68048118
0.67693199
0.6734418
0.67002862
0.66671591
0.66355115
0.66060147
0.65790524
0.65544546
0.65319398
0.65110425
0.64914729
0.64738731
0.64583706
0.64444699
0.64318968
0.6420552
0.64102724
0.64008249
0.63921609
0.63842677
0.63769484
0.63700709
0.63637533
0.63581158
0.63529565
0.63480263
0.63432236
0.63387184
0.63345577
0.63306729
0.63272065
0.63247434
0.63219272
0.63175489
0.6300832
0.62695725
0.62475363
0.623167
0.62191977
0.62091947
0.62011339
0.61946376
0.61894091
0.6185206
0.61818336
0.61791336
0.6176977
0.61752517
0.61738673
0.61727466
0.61718304
0.61710583
0.61703857
0.61697713
0.61691875
0.61685907
0.6167948
0.61672143
0.61663561
0.61653009
0.61639913
0.6162346
0.61602685
0.61577242
0.61545949
0.61507624
0.61459798
0.61401296
0.61329112
0.61241408
0.61135337
0.6101837
0.60890957
0.60800997
0.60755049
0.60748901
0.6327568
0.63133296
0.62991901
0.62837391
0.62668797
0.62495908
0.62334705
0.62189573
0.62047837
0.61925328
0.61842459
0.61808546
0.61844441
0.6196492
0.62182786
0.62512123
0.6294647
0.63466051
0.64041193
0.6464276
0.65228669
0.6574375
0.66127143
0.6634315
0.66397918
0.66325802
0.66173841
0.65979864
0.65766641
0.6554608
0.65325431
0.65110332
0.64905371
0.64713153
0.64535037
0.64371172
0.64223068
0.64089549
0.63968622
0.63857351
0.63755469
0.63663818
0.63579502
0.6349957
0.63425319
0.63358013
0.63297563
0.63242486
0.63190162
0.63139592
0.63092055
0.6304908
0.6301187
0.62980453
0.6294593
0.62911877
0.62869077
0.62732591
0.62430076
0.62194913
0.62029352
0.61899697
0.6179567
0.61711721
0.61643975
0.6158939
0.61545548
0.61510467
0.61482529
0.61460373
0.61442889
0.61429147
0.61418303
0.6140968
0.61402704
0.61396967
0.6139201
0.61387519
0.61383217
0.61378961
0.61374461
0.61369486
0.61363938
0.613575
0.61350299
0.61342122
0.61333016
0.61322669
0.61311256
0.61298851
0.61285782
0.61273225
0.61262331
0.61259319
0.61259139
0.61285388
0.61287458
0.61274875
0.61251466
0.63301624
0.63161976
0.63023923
0.62875621
0.62714625
0.62541007
0.62365319
0.62195999
0.62038458
0.61884869
0.6173575
0.61600825
0.61487224
0.61396138
0.61334374
0.61310535
0.61332481
0.61408258
0.61548432
0.61758958
0.6203375
0.62356489
0.62705026
0.63059175
0.63396378
0.63692603
0.63924476
0.64075592
0.64145861
0.64147368
0.64097434
0.64013974
0.63911253
0.63798682
0.63682591
0.63568042
0.63459326
0.63356921
0.63260588
0.63170278
0.63086499
0.63009325
0.62936437
0.62867207
0.62802375
0.62742729
0.62689451
0.62641176
0.62594927
0.62549958
0.62507401
0.62469165
0.62434371
0.62400883
0.62372692
0.62344135
0.62311727
0.62206385
0.61922514
0.61673158
0.61501922
0.61368366
0.61261066
0.61174194
0.611038
0.6104678
0.61000685
0.60963482
0.60933571
0.60909586
0.60890416
0.608751
0.60862881
0.60853116
0.60845216
0.60838711
0.60833214
0.60828478
0.60824161
0.60820032
0.60815932
0.60811701
0.60807228
0.60802509
0.60797225
0.60791109
0.60783811
0.60775446
0.60764644
0.6075069
0.60731392
0.60704677
0.60667162
0.60614612
0.6055501
0.60469765
0.60429384
0.60431814
0.60467634
0.63327559
0.63190613
0.63055156
0.62910455
0.62757343
0.6259166
0.62416006
0.62236136
0.62059185
0.61886921
0.61725369
0.61565883
0.6140712
0.61253495
0.6111105
0.60982102
0.60868727
0.60774139