/*--------------------------------*- C++ -*----------------------------------*\
| =========                 |                                                 |
| \\      /  F ield         | OpenFOAM: The Open Source CFD Toolbox           |
|  \\    /   O peration     | Version:  2506                                  |
|   \\  /    A nd           | Website:  www.openfoam.com                      |
|    \\/     M anipulation  |                                                 |
\*---------------------------------------------------------------------------*/
FoamFile
{
    version     2.0;
    format      ascii;
    arch        "LSB;label=32;scalar=64";
    class       volScalarField;
    location    "2.5";
    object      Cp;
}
// * * * * * * * * * * * * * * * * * * * * * * * * * * * * * * * * * * * * * //

dimensions      [0 0 0 0 0 0 0];

internalField   nonuniform List<scalar> 
1376
(
0.02539284
0.025392071
0.0250968
0.024870944
0.024692373
0.024537022
0.024424341
0.024298985
0.024195794
0.024116998
0.023877251
0.025384284
0.025091302
0.024869063
0.024692343
0.024538294
0.024422509
0.024298396
0.02419552
0.024118281
0.023877676
0.025381791
0.025087169
0.024865722
0.024703042
0.024534217
0.024420684
0.024298673
0.024194991
0.024120329
0.0238798
0.025379259
0.025081685
0.024860071
0.024712813
0.024531391
0.024417833
0.024299985
0.024196581
0.024117835
0.023884634
0.025373194
0.025073862
0.02485817
0.024710063
0.024535454
0.024415681
0.024300792
0.024199885
0.024114009
0.023891118
0.025365529
0.025064906
0.024853249
0.024720016
0.024535203
0.024412887
0.024301156
0.02420142
0.024111928
0.023897919
0.025357455
0.025053509
0.024844697
0.024721429
0.024532995
0.024410378
0.024301116
0.024200968
0.024114643
0.023906069
0.025348783
0.025038335
0.024844251
0.024728459
0.024521383
0.024408369
0.024300011
0.024206165
0.024097912
0.023916151
0.025332971
0.025028385
0.024850266
0.024722372
0.024509863
0.024407985
0.024300339
0.024205553
0.024099624
0.023916725
0.025310995
0.025022908
0.024845238
0.024704771
0.024508417
0.024409192
0.024296364
0.024198883
0.024131178
0.023911503
0.02529145
0.025009161
0.024839035
0.024691653
0.024507352
0.024409263
0.024287122
0.024199146
0.024115004
0.023914509
0.025566496
0.025269503
0.024993471
0.024828375
0.024676367
0.024506804
0.024410713
0.024280856
0.024197824
0.024113299
0.023912995
0.025546552
0.025241823
0.024978222
0.024812118
0.024658886
0.024511849
0.024408546
0.024274261
0.024196461
0.024107797
0.023908424
0.025526748
0.025207526
0.024961867
0.024792422
0.024642281
0.024521299
0.024402391
0.024267675
0.024192901
0.024100931
0.023901752
0.025504179
0.025166763
0.024944355
0.024772774
0.024627297
0.024524071
0.024399394
0.024260538
0.024186783
0.024092596
0.023892798
0.025477056
0.025120916
0.02492697
0.024757064
0.024612574
0.024520363
0.024396926
0.024252295
0.024178
0.024083176
0.023879086
0.025449383
0.025067175
0.024913569
0.024742152
0.024593088
0.024514317
0.024393025
0.024241691
0.024166268
0.02407008
0.023869488
0.025401539
0.025032697
0.024906251
0.024722403
0.024569133
0.024510288
0.024384091
0.024226279
0.024152137
0.024053269
0.023859325
0.025346547
0.025033265
0.024881434
0.024694098
0.024541037
0.024504737
0.024369883
0.02420848
0.024134209
0.024035557
0.023840576
0.025291345
0.025025705
0.024862135
0.024671884
0.024503139
0.024491805
0.024351441
0.02419002
0.02411252
0.024015692
0.023820283
0.025195789
0.024999963
0.024870751
0.024655979
0.024467041
0.024472909
0.024330892
0.024169226
0.024088689
0.023991184
0.023792699
0.025084953
0.02500523
0.024879345
0.024622079
0.024449084
0.024452732
0.024304722
0.024146326
0.024059824
0.023963509
0.023758452
0.025072143
0.024985726
0.024841758
0.024568926
0.02443161
0.024431428
0.02427027
0.024102142
0.024031715
0.023925507
0.023702576
0.025047187
0.024918928
0.02478961
0.024514847
0.024414402
0.024400944
0.024225945
0.024064028
0.023999805
0.023869185
0.023661872
0.024916304
0.02491155
0.024725205
0.02447019
0.024430312
0.024363788
0.02414768
0.024021812
0.023974791
0.02380334
0.023662967
0.024951622
0.024986221
0.024880867
0.02458183
0.024452047
0.024433291
0.024304835
0.024103931
0.023972203
0.02394455
0.023786559
0.023640357
0.024953409
0.024947359
0.024695189
0.024499866
0.024455046
0.024393738
0.024243124
0.024049451
0.023913646
0.023906992
0.0237638
0.023614553
0.024896698
0.024743474
0.024582837
0.024497217
0.024417999
0.024329254
0.024189896
0.024001144
0.023855304
0.023845748
0.023688567
0.023608416
0.024866909
0.024611772
0.02456919
0.024455106
0.024354841
0.024266772
0.024101315
0.023931427
0.023827412
0.023753524
0.023647851
0.023586001
0.024690129
0.024611565
0.024452704
0.024360446
0.024293085
0.02420687
0.024013311
0.023846739
0.023805871
0.023687567
0.023594818
0.023527548
0.0244107
0.024446745
0.024396193
0.024292478
0.024208222
0.024110377
0.02393059
0.023778372
0.023777056
0.023618503
0.023517036
0.023468017
0.024312769
0.024386528
0.024252818
0.024265907
0.02419745
0.024110895
0.023983759
0.023829097
0.023734455
0.023688617
0.023559813
0.023446175
0.023406606
0.024054856
0.024234296
0.024230991
0.024144459
0.024090065
0.023983241
0.023826401
0.023698468
0.023686484
0.023597697
0.023469856
0.023378524
0.023396955
0.024050959
0.02402144
0.024105118
0.024030646
0.02394725
0.023820944
0.023685471
0.023598486
0.023578697
0.023486463
0.023375672
0.02331394
0.023280664
0.023860926
0.023940557
0.023878323
0.023854934
0.023845956
0.023756881
0.023658041
0.02358494
0.02353515
0.023461127
0.023347434
0.023261432
0.02321893
0.023132102
0.023683032
0.023734562
0.023660834
0.023607449
0.023598029
0.023545519
0.023498415
0.023472282
0.023422085
0.0233181
0.023239915
0.0232225
0.023190504
0.023174272
0.023402801
0.023431832
0.023420329
0.023367619
0.023348259
0.023334987
0.023333418
0.023281997
0.023243311
0.023202432
0.023188572
0.023188594
0.023121551
0.023113658
0.02307461
0.023068775
0.023091191
0.023176742
0.023161978
0.023138468
0.023137052
0.023126033
0.023123609
0.023126994
0.023139458
0.023152093
0.023143452
0.023085989
0.023010491
0.022812377
0.022797988
0.022850544
0.022912656
0.022932388
0.022932297
0.022939412
0.022946268
0.022977763
0.02300792
0.02303457
0.023043743
0.023017616
0.023024215
0.022915079
0.022592387
0.022614999
0.022677643
0.02272004
0.022758294
0.022782231
0.022815887
0.022844728
0.022828525
0.022843708
0.02287413
0.022914851
0.022925693
0.022902169
0.022919997
0.022889073
0.022376311
0.022471332
0.022515331
0.022548414
0.02258604
0.022625189
0.022617668
0.022648313
0.022685829
0.022699065
0.02270895
0.022727376
0.022732085
0.022738384
0.022775205
0.022813969
0.022852324
0.022396347
0.022417541
0.022444577
0.022472643
0.022492302
0.022513691
0.022538613
0.022548127
0.022565284
0.022595764
0.022608064
0.022617456
0.022632186
0.022678122
0.022746056
0.022806326
0.022868508
0.022252927
0.022296802
0.022316435
0.022322058
0.022355174
0.022388008
0.022371888
0.022414702
0.022443559
0.022492568
0.02253542
0.02254188
0.022540916
0.022564583
0.022611365
0.022670256
0.022732646
0.022814646
0.022341673
0.022370806
0.022366561
0.022391266
0.022398832
0.022383964
0.022419738
0.022465663
0.022469383
0.022482681
0.022513734
0.022552655
0.022564841
0.022559892
0.022555887
0.022560866
0.022591581
0.022644073
0.022703956
0.022252301
0.022284544
0.022346991
0.022394896
0.022360949
0.022366381
0.022386556
0.022366304
0.022393161
0.022411959
0.022433541
0.022443203
0.022460369
0.022466659
0.022466637
0.022465286
0.022472998
0.022493474
0.022537964
0.022590876
0.022280353
0.022301717
0.022329532
0.022355263
0.022381964
0.022424311
0.022437642
0.022426442
0.022429232
0.022430522
0.022429825
0.022434073
0.022448481
0.022449718
0.022444651
0.022444324
0.022444662
0.022446194
0.022457111
0.022477653
0.022501904
0.022525628
0.022200258
0.022223951
0.022234849
0.022262892
0.022297183
0.022322164
0.022353782
0.022379613
0.022398312
0.022417481
0.022422483
0.022422395
0.022426256
0.022437557
0.022455908
0.022454169
0.022446579
0.022444436
0.022445491
0.022454308
0.022466305
0.022476976
0.02248844
0.022300002
0.022292058
0.022293767
0.022304282
0.022311403
0.022319938
0.022332894
0.022341105
0.022351581
0.022367148
0.022386527
0.022415956
0.022436517
0.02243724
0.022452768
0.022447939
0.022440483
0.022438814
0.02242009
0.02238201
0.022352085
0.022336761
0.022334601
0.022353558
0.022381003
0.02222218
0.02223474
0.022245007
0.022253932
0.022263566
0.022269989
0.022272523
0.022272581
0.02227268
0.022275928
0.022289965
0.022312863
0.022336393
0.02236553
0.022400348
0.022426302
0.022434013
0.022442366
0.022436381
0.02242068
0.022403825
0.022379
0.022358068
0.02235549
0.022361953
0.022382999
0.022456116
0.023786068
0.023785431
0.023785132
0.023785048
0.023784293
0.023782416
0.023779483
0.023775926
0.023771326
0.023766296
0.023760071
0.02374973
0.023740444
0.023732556
0.023722196
0.023704855
0.023685842
0.023670421
0.023656332
0.023636389
0.023623534
0.023622052
0.023638437
0.023662503
0.023663177
0.023622621
0.023581999
0.023546243
0.023497195
0.023422945
0.023323209
0.023270529
0.023319154
0.023274707
0.023224665
0.023148444
0.02302451
0.022914069
0.022837959
0.022835159
0.022880053
0.022910614
0.022872663
0.022755074
0.022636489
0.022555634
0.022503698
0.022423676
0.02264624
0.023670372
0.023668965
0.023666838
0.023663694
0.023659089
0.023653253
0.023647232
0.023642361
0.023639077
0.023636991
0.023640467
0.023654354
0.023668509
0.023664594
0.023655004
0.023647606
0.023631889
0.023622259
0.023614837
0.023613724
0.023613206
0.023615464
0.023622851
0.023609539
0.023575754
0.023544419
0.023491156
0.023437307
0.023385817
0.023301306
0.02333314
0.02334169
0.02326193
0.023249459
0.02320854
0.023077885
0.022960332
0.022843377
0.022811854
0.022834773
0.022882188
0.022916589
0.022873604
0.022791235
0.022675783
0.022589748
0.022540652
0.022580929
0.022910724
0.023590165
0.023590277
0.023591385
0.023593513
0.023596407
0.023599332
0.023601397
0.023601761
0.023600658
0.023600132
0.02360007
0.023594666
0.023582969
0.02358006
0.023582914
0.023588212
0.023589065
0.023578523
0.023571517
0.023564375
0.023546564
0.023524474
0.023493498
0.023463594
0.023446907
0.023412339
0.023377019
0.023344916
0.023320208
0.023353798
0.02336909
0.02334394
0.023241893
0.023170846
0.023072275
0.022949173
0.02288592
0.022897681
0.022858594
0.022827834
0.022853206
0.022889594
0.022849898
0.022806397
0.022698741
0.022623152
0.022615942
0.022847587
0.022866486
0.023537038
0.023539927
0.023542601
0.023545232
0.023548315
0.023551844
0.023555157
0.023557709
0.023559809
0.023560193
0.023555019
0.023550693
0.023546844
0.023543907
0.02353588
0.023522378
0.023516983
0.023517849
0.023509005
0.023490526
0.02347081
0.023453856
0.023431347
0.023413002
0.023383478
0.023366651
0.023371741
0.023346127
0.023316663
0.023306399
0.023256955
0.023197086
0.023106916
0.023011425
0.022954224
0.022919757
0.022891897
0.022881798
0.02282936
0.022841426
0.022876376
0.02283678
0.022818628
0.022796827
0.022707654
0.022655669
0.022702225
0.022908409
0.022792675
0.023440646
0.023446556
0.023452294
0.023458012
0.02346335
0.023467728
0.023471195
0.023474277
0.023477442
0.023478704
0.023479494
0.023480908
0.023483844
0.023486519
0.023487159
0.023487065
0.023484831
0.023471706
0.023454444
0.02342708
0.023396521
0.023367394
0.023367654
0.023362536
0.02333099
0.023297844
0.023278436
0.023255644
0.023209282
0.023137225
0.023083456
0.023037019
0.022989775
0.022971619
0.02294845
0.022927846
0.022888775
0.022875306
0.022876255
0.022868058
0.022845093
0.022802013
0.022796505
0.022768713
0.022709208
0.022678118
0.022741047
0.022962752
0.022765503
0.023334141
0.023343359
0.023352106
0.023360118
0.023367407
0.023374211
0.023380748
0.023386627
0.023389712
0.023391768
0.023393743
0.023392236
0.023388016
0.023382971
0.023379321
0.023376537
0.023370247
0.023362853
0.023353322
0.023346178
0.023338998
0.0233253
0.023268599
0.023199026
0.023182614
0.023188568
0.023181663
0.023162878
0.023129037
0.023077551
0.023017805
0.022985009
0.022938386
0.02292276
0.022923187
0.022903906
0.022892211
0.022891657
0.022920067
0.022874716
0.022834256
0.02280259
0.022761535
0.022744259
0.022709006
0.022695322
0.022753937
0.022934687
0.022689637
0.023198594
0.023206876
0.023216067
0.023225806
0.02323551
0.023244487
0.023252514
0.023259708
0.023266766
0.023274449
0.023281667
0.023286234
0.023288101
0.023288426
0.023287585
0.023285221
0.023283431
0.02328396
0.023286444
0.023288674
0.023279754
0.023255223
0.023222808
0.023188427
0.023130738
0.023073297
0.023029928
0.023020366
0.023030594
0.023032346
0.022999656
0.022969484
0.022930269
0.022918253
0.022923336
0.022905816
0.022899587
0.022883857
0.022892746
0.022869717
0.022840507
0.02279221
0.022740609
0.022735413
0.022699345
0.022694475
0.022746757
0.022975809
0.022595825
0.023117891
0.023120786
0.023123738
0.023127357
0.023131923
0.023137214
0.023142945
0.023149
0.023155065
0.023161593
0.023169232
0.023179
0.023191218
0.023203653
0.023213328
0.023216981
0.023214127
0.023207009
0.023198367
0.023189892
0.023182522
0.02317953
0.023179812
0.02317482
0.023153252
0.023099061
0.023028916
0.022960581
0.022929272
0.022919327
0.022891874
0.022878805
0.022892235
0.022899011
0.022878745
0.022892214
0.022900661
0.022888809
0.022864734
0.022857546
0.022844486
0.022781078
0.022752385
0.02273933
0.022683889
0.022678293
0.022712398
0.022960519
0.022676253
0.023082255
0.02308814
0.023093351
0.023097919
0.023101974
0.023105682
0.023108766
0.023111104
0.023113673
0.023116539
0.023120749
0.023127507
0.023135277
0.023143346
0.023149086
0.023148179
0.023140329
0.023127021
0.023111452
0.023099575
0.023095578
0.023098438
0.023099703
0.023099287
0.02308331
0.023050072
0.023023412
0.022996676
0.022928523
0.022870635
0.022857913
0.022846085
0.022845367
0.022828406
0.022836432
0.022874425
0.022870556
0.022879181
0.02287625
0.022861879
0.022837493
0.022795575
0.022770614
0.022741592
0.022673047
0.022656779
0.022668356
0.022842615
0.022747883
0.023021808
0.023029826
0.023036854
0.023042872
0.023048238
0.023053514
0.023058706
0.023062742
0.023063902
0.023063191
0.02306347
0.023063474
0.02306478
0.023066088
0.023073073
0.023084315
0.023090489
0.023093102
0.023092514
0.023089355
0.023084411
0.023072535
0.023040094
0.022995593
0.022964717
0.022949625
0.022934041
0.022905283
0.02289648
0.02287585
0.022854093
0.022840818
0.022822874
0.02280912
0.02282335
0.022827321
0.022849378
0.022856356
0.022829972
0.022831792
0.022828637
0.022806336
0.022780383
0.022732518
0.022670436
0.022645805
0.022635962
0.022676227
0.022709155
0.022884934
0.022893111
0.022902359
0.022912251
0.022922084
0.02293136
0.022939832
0.022947394
0.02295919
0.022978718
0.022999152
0.023016751
0.02302262
0.023020833
0.023020608
0.023020357
0.023018914
0.023012097
0.023002244
0.02298923
0.022973926
0.022958536
0.02295378
0.022948636
0.02294815
0.022936087
0.022911453
0.022881068
0.02286014
0.022840082
0.022823628
0.022807242
0.022793138
0.022792433
0.022800697
0.022797081
0.022789577
0.022778459
0.02279602
0.022810258
0.02280234
0.022800067
0.02278108
0.022730603
0.022664032
0.02264533
0.022618768
0.022590716
0.022601772
0.022794486
0.02280189
0.022809958
0.022819343
0.022829911
0.022841028
0.022852661
0.022864543
0.02287503
0.022879781
0.022881986
0.022887846
0.022907372
0.022934473
0.022941835
0.022933875
0.022929267
0.022928977
0.022927175
0.022921323
0.022917875
0.022918624
0.022921677
0.022926979
0.022916271
0.022897657
0.022877754
0.022853081
0.022823031
0.0227949
0.022775626
0.022757671
0.022741844
0.02274548
0.022760945
0.022760653
0.022738613
0.022731259
0.022741324
0.0227823
0.022784584
0.022779158
0.022774706
0.022732842
0.022669251
0.022664722
0.022600824
0.022572396
0.02252362
0.022792907
0.02280197
0.022808199
0.022815416
0.022820392
0.022821496
0.022822232
0.022832779
0.022852222
0.022865264
0.022873318
0.022880009
0.022887443
0.02288699
0.022880227
0.022870059
0.02285414
0.022840481
0.022826487
0.022808161
0.022786258
0.022753729
0.022727954
0.022716952
0.022711694
0.022709431
0.022710602
0.022710607
0.022717437
0.022710036
0.022685372
0.02269204
0.022742921
0.022766957
0.022762201
0.022755625
0.022721584
0.022696329
0.022687034
0.02258676
0.022560323
0.022488702
0.022820291
0.022828539
0.022824535
0.022808323
0.022786229
0.02276771
0.022746916
0.022726189
0.022712126
0.02269807
0.022690134
0.022689827
0.022692074
0.022688872
0.022668627
0.022665827
0.022668119
0.022652
0.022636745
0.022659656
0.022705071
0.02274097
0.022749229
0.022743559
0.022726824
0.022721377
0.022680266
0.022588109
0.022561262
0.022470191
0.022670069
0.022664278
0.022659551
0.022655791
0.022650987
0.02263874
0.022627161
0.022633163
0.022623753
0.022633358
0.022678715
0.022675121
0.022698704
0.022715492
0.022741891
0.022743536
0.022733388
0.022732335
0.022678474
0.022594056
0.022569689
0.02245984
0.022635768
0.022650078
0.022678735
0.022703396
0.022693148
0.022692731
0.022694078
0.02273708
0.022744145
0.022734197
0.022731259
0.022674868
0.022592577
0.022578735
0.022456348
0.02268541
0.022671616
0.022692759
0.022735215
0.022738211
0.022733578
0.022719913
0.022657622
0.0225764
0.022575823
0.022452442
0.022734822
0.022729745
0.022693684
0.022620719
0.02254511
0.022573844
0.022456258
0.022646078
0.022581941
0.022513577
0.022558517
0.022460034
0.022487638
0.02252931
0.022460775
0.022459554
)
;

boundaryField
{
    Side
    {
        type            empty;
    }
    Inlet
    {
        type            calculated;
        value           nonuniform List<scalar> 
48
(
0.022442693
0.022449074
0.022456441
0.022466939
0.022481817
0.022502094
0.022530002
0.022562628
0.02258046
0.022582975
0.022581391
0.022573802
0.022559138
0.022533447
0.022495473
0.022472602
0.022471987
0.022475238
0.022481433
0.022492683
0.022500265
0.022502904
0.022504493
0.022504157
0.02250221
0.022501185
0.022501824
0.022513189
0.022532477
0.022539712
0.02254985
0.022546604
0.02253403
0.022526554
0.022523419
0.022523104
0.022535787
0.022553062
0.022563453
0.022570483
0.022578826
0.02258949
0.022601302
0.022605736
0.02260539
0.02260312
0.022599057
0.022594543
)
;
    }
    Airfoil
    {
        type            calculated;
        value           nonuniform List<scalar> 0();
    }
    Outlet
    {
        type            calculated;
        value           nonuniform List<scalar> 0();
    }
    procBoundary10to2
    {
        type            processor;
        value           uniform 0.025724251;
    }
    procBoundary10to3
    {
        type            processor;
        value           nonuniform List<scalar> 
23
(
0.02387525
0.024114827
0.024195219
0.024298528
0.024424668
0.02453369
0.024686178
0.024870873
0.025097102
0.025097102
0.025384196
0.023786717
0.023671469
0.023590969
0.023534966
0.023436613
0.02332817
0.023195223
0.023117306
0.023078054
0.023018632
0.022885109
0.022792448
)
;
    }
    procBoundary10to9
    {
        type            processor;
        value           nonuniform List<scalar> 
66
(
0.025718574
0.025705706
0.025700095
0.025693486
0.025685172
0.0256757
0.025666714
0.025657368
0.0256376
0.025611925
0.025588161
0.025588161
0.025841096
0.025813871
0.025785933
0.025758653
0.025732534
0.025701868
0.025667301
0.025624674
0.025571861
0.025523239
0.025437666
0.025322943
0.025266156
0.025101044
0.025101044
0.025129781
0.024929928
0.024916626
0.024818484
0.024750585
0.02462576
0.02462576
0.024286274
0.024183929
0.024004225
0.024004225
0.023774119
0.023647605
0.023408912
0.023408912
0.023124636
0.022750356
0.022750356
0.022534769
0.022534769
0.022417994
0.022352898
0.022352898
0.022234267
0.022234267
0.022302371
0.022302371
0.022192128
0.022226262
0.022226262
0.022264962
0.022264962
0.02215946
0.022173287
0.022173287
0.022282931
0.022289656
0.022289656
0.022216166
)
;
    }
    procBoundary10to11
    {
        type            processor;
        value           nonuniform List<scalar> 
58
(
0.022746629
0.022750256
0.022754712
0.022760412
0.022767114
0.022774399
0.02278258
0.02278258
0.022742273
0.022740796
0.022735814
0.022736145
0.022741943
0.022745669
0.022752076
0.022757141
0.022767282
0.022770179
0.022778241
0.022802504
0.022802504
0.022704338
0.022691384
0.022673132
0.02267906
0.022697223
0.022698571
0.022689016
0.022678887
0.022678887
0.022604203
0.022604215
0.022609265
0.022609803
0.022607064
0.022607228
0.0226112
0.0226112
0.022637869
0.022652478
0.022678449
0.022699811
0.022699811
0.02266571
0.022709027
0.022739191
0.022748646
0.022748646
0.022725576
0.022710827
0.022710827
0.022602279
0.022573475
0.022573475
0.022459555
0.02249871
0.02249871
0.022455646
)
;
    }
}


// ************************************************************************* //
