/*--------------------------------*- C++ -*----------------------------------*\
| =========                 |                                                 |
| \\      /  F ield         | OpenFOAM: The Open Source CFD Toolbox           |
|  \\    /   O peration     | Version:  2506                                  |
|   \\  /    A nd           | Website:  www.openfoam.com                      |
|    \\/     M anipulation  |                                                 |
\*---------------------------------------------------------------------------*/
FoamFile
{
    version     2.0;
    format      ascii;
    arch        "LSB;label=32;scalar=64";
    class       volScalarField;
    location    "1.8";
    object      omega;
}
// * * * * * * * * * * * * * * * * * * * * * * * * * * * * * * * * * * * * * //

dimensions      [0 0 -1 0 0 0 0];

internalField   nonuniform List<scalar> 
1376
(
41.491428
37.932936
33.438794
29.737695
40.756924
37.244632
32.840001
29.237483
26.646611
24.84475
23.595871
22.732053
22.141473
21.747068
40.047803
36.587444
32.276725
28.771525
26.260195
24.517742
23.312461
22.481115
21.915251
21.539934
21.300434
21.156112
21.077348
21.041935
21.031782
39.349861
35.943377
31.732006
28.325065
25.891492
24.206055
23.042137
22.241279
21.698354
21.340549
21.114534
20.980612
20.909641
20.879487
20.871828
20.874457
20.893979
20.922786
20.956786
38.658037
35.304345
31.1965
27.889047
25.532345
23.902624
22.779011
22.007863
21.487255
21.146412
20.933356
20.809293
20.74554
20.719993
20.714263
20.719473
20.741483
20.771396
20.806131
20.844803
20.886877
20.932062
20.98024
37.97639
34.672434
30.668258
27.459528
25.17845
23.603533
22.51983
21.778325
21.280071
20.95618
20.755953
20.641479
20.58452
20.563057
20.558953
20.567046
20.591075
20.621925
20.657303
20.696429
20.738825
20.784242
20.832587
20.883883
20.938246
20.995874
21.057036
37.314568
34.056888
30.150804
27.036513
24.828467
23.307172
22.263128
21.55148
21.075902
20.769185
20.581818
20.476752
20.426212
20.408427
20.405804
20.41694
20.442599
20.474262
20.510208
20.549732
20.592404
20.63801
20.686485
20.737871
20.792295
20.849959
20.911133
20.976163
21.045474
21.119573
36.681916
33.468259
29.650171
26.622775
24.483536
23.013914
22.008908
21.327156
20.87451
20.585173
20.410695
20.314851
20.270368
20.255971
20.254767
20.268989
20.295978
20.328361
20.364813
20.404684
20.447586
20.49334
20.541908
20.593351
20.647805
20.705473
20.766629
20.831613
20.90084
20.974811
21.054099
21.139345
21.231275
36.0824
32.912295
29.171025
26.221867
24.146366
22.725721
21.758452
21.106079
20.676222
20.404223
20.242525
20.15565
20.116914
20.105655
20.105823
20.123112
20.151194
20.184216
20.221117
20.26129
20.30438
20.350241
20.398858
20.450313
20.504753
20.562389
20.623491
20.68839
20.757496
20.831302
20.910379
20.995367
21.086999
21.186111
21.293714
35.512737
32.386465
28.713484
25.835668
23.819496
22.445018
21.513678
20.889551
20.481796
20.226697
20.07743
19.999192
19.965877
19.957156
19.959253
19.97926
20.008256
20.041844
20.079135
20.119558
20.162791
20.208717
20.257346
20.308772
20.36316
20.420719
20.481715
20.546475
20.615408
20.689002
20.767824
20.852518
20.943805
21.042525
21.149664
21.26642
21.394247
21.53492
34.964701
31.881871
28.273044
25.463184
23.503801
22.173376
21.276154
20.678803
20.292039
20.05304
19.915621
19.845559
19.817208
19.810542
19.815123
19.837393
19.867153
19.901229
19.938845
19.979467
20.022805
20.068759
20.117357
20.168711
20.222995
20.280427
20.34127
20.405849
20.474566
20.547902
20.626418
20.71076
20.801656
20.899933
21.00656
21.122704
21.24978
21.389524
21.544071
21.716144
34.428957
31.38749
27.84302
25.101341
23.198364
21.911034
21.04662
20.474644
20.107604
19.883674
19.75732
19.694821
19.670893
19.665962
19.673395
19.697477
19.727878
19.762356
19.80022
19.840976
19.884363
19.930301
19.97883
20.030075
20.084217
20.141479
20.202127
20.266478
20.33493
20.407963
20.486132
20.57008
20.660523
20.758291
20.864348
20.979833
21.106122
21.244907
21.39828
21.568918
21.760277
21.976804
33.898127
30.89302
27.415831
24.745121
22.900024
21.656213
20.824288
20.276906
19.928605
19.718778
19.602649
19.547004
19.52695
19.52355
19.53397
19.559465
19.590396
19.625194
19.66323
19.704056
19.747439
19.793315
19.841734
19.892827
19.946783
20.003829
20.064236
20.128326
20.19649
20.26919
20.346973
20.430474
20.520414
20.617617
20.723029
20.83778
20.963225
21.101014
21.253192
21.422385
21.612
21.826372
22.070609
33.369355
30.393415
26.986708
24.390075
22.604863
21.405822
20.60702
20.084301
19.754378
19.558048
19.45146
19.402005
19.385353
19.383358
19.39671
19.42328
19.454639
19.489676
19.527815
19.568654
19.611989
19.657767
19.706045
19.756957
19.810695
19.867493
19.927622
19.991407
20.05924
20.131573
20.208943
20.291968
20.381355
20.477928
20.582629
20.696574
20.821099
20.957821
21.10876
21.276491
21.46434
21.676526
21.917959
22.193313
22.505971
32.844844
29.891451
26.556553
24.035128
22.310694
21.157435
20.392708
19.895275
19.583908
19.400871
19.303369
19.259584
19.246026
19.24532
19.261474
19.288853
19.320555
19.355759
19.393934
19.434724
19.477961
19.523607
19.571722
19.622437
19.675938
19.732462
19.792289
19.855742
19.92321
19.995143
20.072061
20.15457
20.243371
20.339269
20.4432
20.556272
20.679803
20.815385
20.965012
21.131218
21.317256
21.527218
21.765789
22.037285
22.344704
22.696215
32.329817
29.395748
26.131391
23.683146
22.018197
20.910552
20.180399
19.708862
19.416423
19.246696
19.158014
19.11956
19.108724
19.109418
19.128122
19.156101
19.188075
19.223392
19.261557
19.302258
19.345355
19.390826
19.438739
19.489228
19.542477
19.598718
19.658229
19.721338
19.788424
19.859933
19.936371
20.018337
20.106513
20.201694
20.304807
20.416942
20.539401
20.673765
20.822003
20.986605
21.170757
21.378437
21.614091
21.881652
22.183759
22.528845
22.979859
23.993026
31.829389
28.915863
25.718948
23.339192
21.730277
20.666538
19.970483
19.52493
19.251586
19.095166
19.015121
18.981729
18.973124
18.975684
18.996523
19.024953
19.057142
19.092526
19.130639
19.171212
19.214135
19.259405
19.307096
19.357337
19.410311
19.466246
19.52542
19.588164
19.654856
19.725931
19.801883
19.883289
19.970819
20.065253
20.167505
20.278649
20.399965
20.533031
20.679787
20.842703
21.024887
21.23021
21.462877
21.726427
22.023151
22.3618
22.807928
23.8351
31.10854
31.346654
28.45916
25.326395
23.009198
21.451367
20.428343
19.764647
19.344254
19.089614
18.946228
18.874552
18.845895
18.839156
18.844029
18.866566
18.895334
18.927687
18.963099
19.001135
19.041559
19.084286
19.129326
19.176762
19.226726
19.279401
19.335017
19.39385
19.45622
19.522498
19.593107
19.668544
19.749373
19.836252
19.929932
20.031299
20.141414
20.261542
20.393248
20.538439
20.699577
20.879701
21.08257
21.312145
21.571593
21.86287
22.195091
22.636493
23.679229
31.222802
30.881887
28.02801
24.957446
22.697619
21.185771
20.199462
19.565322
19.168273
18.931208
18.800133
18.736321
18.711974
18.70686
18.714345
18.738177
18.767204
18.799675
18.835079
18.87301
18.91326
18.955764
19.000548
19.047702
19.097365
19.149723
19.205003
19.26347
19.325444
19.391294
19.461429
19.536325
19.616538
19.702729
19.795631
19.896103
20.00518
20.124099
20.2544
20.397986
20.557288
20.735278
20.935593
21.161955
21.417166
21.702915
22.028739
22.465693
23.524745
31.229257
30.433351
27.619371
24.610694
22.405125
20.93542
19.98214
19.374435
18.998336
18.777146
18.657241
18.600529
18.579989
18.576329
18.586521
18.61131
18.64054
18.673084
18.708444
18.746243
18.786295
18.828552
18.873054
18.919898
18.96923
19.021239
19.076154
19.134241
19.195807
19.261204
19.330833
19.405159
19.484739
19.570209
19.662293
19.761834
19.869847
19.987548
20.116441
20.258397
20.415818
20.591622
20.789305
21.012338
21.263196
21.54333
21.862794
22.295661
23.371609
31.185855
29.999515
27.228358
24.281717
22.129116
20.699375
19.776475
19.192522
18.835005
18.627829
18.517759
18.467241
18.449989
18.447643
18.460456
18.48593
18.515317
18.547896
18.583179
18.620819
18.660653
18.702644
18.74684
18.793348
18.842321
18.893956
18.948475
19.006147
19.067269
19.132176
19.201261
19.274987
19.353893
19.438601
19.529833
19.628415
19.73534
19.851805
19.979285
20.119615
20.275131
20.448707
20.643686
20.863299
21.109696
21.38415
21.69733
22.126469
23.221551
31.195579
29.579989
26.850616
23.965534
21.865553
20.474909
19.580894
19.018821
18.677985
18.483166
18.381651
18.33643
18.321992
18.32084
18.336064
18.362017
18.39152
18.424094
18.459267
18.496722
18.536316
18.578025
18.621899
18.668055
18.716649
18.76788
18.82197
18.879189
18.939826
19.004205
19.072706
19.145782
19.22396
19.307858
19.398184
19.495765
19.601576
19.716791
19.842846
19.981548
20.135169
20.306494
20.498714
20.714823
20.956665
21.2254
21.532382
21.95816
23.07683
31.430096
29.17528
26.482985
23.657612
21.610051
20.258462
19.392842
18.85169
18.526327
18.342651
18.248647
18.207975
18.196009
18.195882
18.213277
18.239553
18.26913
18.301662
18.336694
18.373939
18.413274
18.454681
18.498218
18.544001
18.592192
18.642988
18.696623
18.753354
18.813463
18.877268
18.945142
19.01753
19.094939
19.177984
19.267355
19.363878
19.468522
19.582446
19.707059
19.844117
19.995824
20.16489
20.354344
20.566904
20.804137
21.067113
21.367969
21.790905
22.936882
31.63497
28.786701
26.125471
23.356082
21.359783
20.047123
19.20984
18.68929
18.378812
18.205554
18.118368
18.081748
18.07176
18.072845
18.092046
18.118525
18.148133
18.180581
18.215437
18.252443
18.291495
18.332586
18.375772
18.421169
18.468936
18.51927
18.572411
18.628611
18.688151
18.751346
18.81856
18.890219
18.966823
19.048968
19.137345
19.232775
19.336213
19.448804
19.57192
19.707287
19.857062
20.023848
20.210501
20.419497
20.652096
20.909308
21.204182
21.62493
22.799697
31.629137
28.415036
25.780277
23.061887
21.114308
19.83965
19.030426
18.530307
18.23444
18.071207
17.99043
17.95751
17.949107
17.951673
17.972312
17.998905
18.028501
18.060829
18.095476
18.132213
18.170953
18.211698
18.254511
18.299507
18.346841
18.396701
18.449325
18.504962
18.563896
18.626439
18.69295
18.763844
18.839609
18.920825
19.00818
19.10248
19.204665
19.315874
19.43746
19.571098
19.718891
19.883361
20.06718
20.272562
20.500468
20.751928
21.040999
21.460249
22.665548
31.596907
28.058878
25.448347
22.776343
20.874317
19.636048
18.85417
18.374155
18.092661
17.939189
17.86455
17.835055
17.827983
17.832267
17.854015
17.880652
17.910194
17.942362
17.976768
18.013207
18.051608
18.091982
18.134397
18.178966
18.225845
18.275217
18.327309
18.382367
18.440669
18.502531
18.568313
18.638422
18.713336
18.793613
18.879922
18.973051
19.073945
19.183711
19.303692
19.435547
19.581326
19.743433
19.924368
20.126072
20.349229
20.59492
20.878315
21.296561
22.537337
31.807203
27.715151
25.128819
22.49997
20.640535
19.436766
18.681197
18.220734
17.953277
17.809303
17.740566
17.714253
17.708363
17.714537
17.737107
17.763731
17.793176
17.825147
17.859279
17.895392
17.933429
17.97341
18.015407
18.059531
18.105934
18.154795
18.206331
18.260787
18.31844
18.379605
18.444638
18.513939
18.587983
18.667316
18.752589
18.844556
18.944125
19.052395
19.170721
19.300722
19.444396
19.604059
19.782058
19.980024
20.198374
20.438278
20.716108
21.133819
22.415788
32.202846
27.380695
24.820666
22.233376
20.414014
19.242699
18.51208
18.070331
17.816381
17.68154
17.618418
17.59505
17.590248
17.598403
17.621545
17.64811
17.677419
17.709157
17.742985
17.778744
17.816392
17.855957
17.897513
17.941175
17.987086
18.035424
18.086393
18.140235
18.19722
18.257662
18.321919
18.390392
18.463548
18.541915
18.626123
18.716914
18.815176
18.921971
19.038609
19.166708
19.308235
19.465378
19.640308
19.834391
20.047836
20.281946
20.554393
20.97234
22.298101
32.246366
27.05235
24.521034
21.975555
20.194862
19.054337
18.347305
17.923284
17.682155
17.555964
17.498104
17.477437
17.473658
17.483795
17.507295
17.53376
17.562897
17.594369
17.627865
17.663247
17.700483
17.739608
17.780702
17.823878
17.869277
17.917071
17.967458
18.020675
18.07699
18.136712
18.200188
18.267812
18.340046
18.417419
18.500542
18.590138
18.687062
18.792356
18.907314
19.033528
19.172874
19.327439
19.499209
19.68929
19.89772
20.126005
20.393223
20.812105
22.182993
32.268005
18.186829
17.77967
17.550674
17.432606
17.379612
17.361411
17.358602
17.370643
17.394325
17.420658
17.44959
17.480771
17.513914
17.548899
17.585705
17.624371
17.664981
17.707647
17.752509
17.799736
17.849521
17.902096
17.95772
18.016697
18.079375
18.14615
18.217465
18.293829
18.375841
18.464221
18.5598
18.663587
18.776849
18.901113
19.038222
19.190171
19.35872
19.544745
19.74809
19.970578
20.232712
20.652945
22.072283
32.50841
17.245063
17.258872
17.282601
17.308771
17.33747
17.368337
17.401111
17.435685
17.472048
17.510244
17.550356
17.592499
17.636809
17.683449
17.732608
17.784507
17.83941
17.897623
17.959489
18.025379
18.095725
18.171053
18.251958
18.33911
18.433325
18.535596
18.64714
18.769449
18.904291
19.05353
19.218762
19.400668
19.598922
19.81567
20.072906
20.495081
21.967697
32.822759
17.257027
17.28941
17.323555
17.359457
17.397164
17.436762
17.478365
17.522111
17.568159
17.616694
17.667931
17.722119
17.779547
17.840547
17.905513
17.97487
18.04914
18.128878
18.214759
18.307569
18.408299
18.518111
18.638448
18.770985
18.917498
19.079377
19.257086
19.450208
19.661264
19.91381
20.338828
21.869005
32.969722
17.28511
17.324171
17.365212
17.408368
17.453799
17.501686
17.55224
17.6057
17.662346
17.722505
17.786552
17.854919
17.928077
18.006608
18.091187
18.182559
18.281673
18.38968
18.507993
18.63822
18.781999
18.940516
19.114002
19.301982
19.507388
19.755458
20.184198
21.775902
33.111759
17.387608
17.437458
17.490165
17.546008
17.605294
17.668395
17.735749
17.807821
17.885147
17.968367
18.058254
18.155732
18.261912
18.37818
18.506033
18.646988
18.802079
18.971332
19.154188
19.354048
19.597926
20.031327
21.689443
33.36058
17.488959
17.551107
17.617403
17.688324
17.764399
17.846246
17.934638
18.030451
18.134796
18.248997
18.374467
18.512603
18.664206
18.829122
19.006801
19.201221
19.441251
19.880458
21.610629
33.676313
17.644494
17.72494
17.811788
17.90588
18.008353
18.120443
18.243519
18.378794
18.526866
18.687421
18.859931
19.049001
19.285545
19.732112
21.547383
33.946105
17.78215
17.882735
17.992681
18.113298
18.245618
18.390065
18.546182
18.713507
18.897348
19.13091
19.586964
21.500168
34.184336
17.983831
18.113161
18.253915
18.405491
18.56757
18.746282
18.977379
19.445225
21.465063
34.45485
18.265332
18.422197
18.595953
18.82516
19.30735
21.444842
34.783841
18.674321
19.173832
21.440073
35.160435
21.428589
35.547518
41.427357
)
;

boundaryField
{
    Side
    {
        type            empty;
    }
    Inlet
    {
        type            fixedValue;
        value           uniform 60.24606;
    }
    Airfoil
    {
        type            omegaWallFunction;
        blending        binomial;
        n               2;
        value           nonuniform List<scalar> 0();
    }
    Outlet
    {
        type            inletOutlet;
        inletValue      nonuniform List<scalar> 0();
        value           nonuniform List<scalar> 0();
    }
    procBoundary12to4
    {
        type            processor;
        value           uniform 42.219099;
    }
    procBoundary12to5
    {
        type            processor;
        value           nonuniform List<scalar> 
30
(
40.677256
39.959296
39.265709
38.591636
37.93465
37.293521
36.667455
36.055496
35.457172
34.87293
34.304689
33.755624
33.228311
32.722844
32.236632
31.765409
31.304598
30.850992
30.404071
29.965797
29.540244
29.131948
28.743045
28.372422
28.017069
27.672872
27.335558
27.003104
37.839994
40.677256
)
;
    }
    procBoundary12to6
    {
        type            processor;
        value           uniform 26.727761;
    }
    procBoundary12to11
    {
        type            processor;
        value           nonuniform List<scalar> 
65
(
42.271687
38.678075
34.096469
30.291734
27.063541
27.063541
25.19812
23.901618
23.001478
22.382551
21.965793
21.49274
21.49274
21.336891
21.249376
21.207866
21.194314
21.032275
21.032275
21.048779
21.076255
21.109399
20.994932
20.994932
21.036625
21.081527
21.129489
21.031411
21.031411
21.085683
21.143243
21.204363
21.122081
21.122081
21.191443
21.265629
21.199028
21.199028
21.284486
21.37667
21.330735
21.330735
21.438767
21.411038
21.411038
21.539581
21.681163
21.690621
21.690621
21.864118
21.909234
21.909234
22.127892
22.223803
22.223803
22.349756
22.349756
22.667592
22.863909
22.863909
23.152204
23.152204
24.153193
30.991826
30.991826
)
;
    }
    procBoundary12to13
    {
        type            processor;
        value           nonuniform List<scalar> 
60
(
24.226017
21.723942
19.981858
18.871271
18.871271
18.030268
17.639319
17.421857
17.311409
17.262892
17.246949
17.246949
17.133004
17.148417
17.172087
17.198065
17.226499
17.226499
17.146829
17.178796
17.212491
17.247912
17.247912
17.17409
17.212595
17.253051
17.295595
17.340387
17.340387
17.274463
17.323564
17.375503
17.430542
17.430542
17.373458
17.434656
17.499916
17.56969
17.56969
17.5254
17.604448
17.689757
17.689757
17.659153
17.757858
17.865687
17.865687
17.854999
17.981315
18.118341
18.118341
18.125544
18.27727
18.446318
18.446318
18.524924
19.044346
19.044346
21.458094
35.926388
)
;
    }
}


// ************************************************************************* //
