/*--------------------------------*- C++ -*----------------------------------*\
| =========                 |                                                 |
| \\      /  F ield         | OpenFOAM: The Open Source CFD Toolbox           |
|  \\    /   O peration     | Version:  2506                                  |
|   \\  /    A nd           | Website:  www.openfoam.com                      |
|    \\/     M anipulation  |                                                 |
\*---------------------------------------------------------------------------*/
FoamFile
{
    version     2.0;
    format      ascii;
    arch        "LSB;label=32;scalar=64";
    class       volScalarField;
    location    "2.65";
    object      T;
}
// * * * * * * * * * * * * * * * * * * * * * * * * * * * * * * * * * * * * * //

dimensions      [0 0 0 1 0 0 0];

internalField   nonuniform List<scalar> 
1376
(
245.74637
245.74506
245.73655
245.72972
245.72359
245.71763
245.71148
245.70452
245.69692
245.68922
245.68283
245.79406
245.78059
245.76939
245.75965
245.75073
245.74192
245.73238
245.72187
245.71147
245.70111
245.81366
245.80246
245.79168
245.78199
245.77371
245.76581
245.75668
245.74582
245.73453
245.72372
245.76495
245.76294
245.75976
245.75663
245.75465
245.7526
245.74867
245.74245
245.73467
245.72906
245.69732
245.70019
245.70247
245.70448
245.70736
245.71082
245.7123
245.71199
245.71016
245.71185
245.64797
245.65121
245.65448
245.65762
245.66165
245.66649
245.6705
245.67389
245.67572
245.68199
245.6194
245.62156
245.62378
245.62605
245.62927
245.63344
245.63745
245.64148
245.64442
245.65191
245.60472
245.60553
245.60648
245.60756
245.60961
245.61255
245.61556
245.6188
245.62136
245.6279
245.59797
245.59778
245.59764
245.59783
245.59896
245.60078
245.60264
245.60472
245.60638
245.61117
245.59551
245.59468
245.59371
245.59335
245.59387
245.59497
245.59585
245.59686
245.5976
245.60063
245.59518
245.59403
245.59259
245.59179
245.59195
245.59256
245.59281
245.59301
245.59306
245.59471
245.59709
245.59584
245.59452
245.59288
245.5918
245.59171
245.592
245.59181
245.59153
245.59113
245.59186
245.59821
245.59685
245.59547
245.59371
245.59252
245.59224
245.59234
245.59188
245.59126
245.59064
245.59084
245.59907
245.5978
245.59646
245.59463
245.59345
245.59304
245.59298
245.59239
245.59153
245.59085
245.59075
245.59942
245.59847
245.59726
245.59541
245.59431
245.59374
245.59356
245.59291
245.59194
245.59127
245.59101
245.59926
245.59874
245.59771
245.59591
245.59496
245.59413
245.59387
245.59323
245.59222
245.59163
245.59131
245.59872
245.59856
245.59767
245.59598
245.5952
245.59404
245.59379
245.59327
245.5923
245.59181
245.59145
245.59804
245.59799
245.59705
245.5955
245.59485
245.59345
245.59333
245.59304
245.59217
245.59175
245.59134
245.59706
245.59699
245.59596
245.59461
245.59403
245.59257
245.59255
245.59253
245.59176
245.59135
245.59088
245.59584
245.59571
245.59451
245.59374
245.5929
245.59181
245.59162
245.59172
245.59099
245.59056
245.59006
245.59459
245.59431
245.59322
245.59277
245.59188
245.59108
245.59072
245.59068
245.58997
245.58957
245.58914
245.5936
245.5932
245.59232
245.59175
245.59101
245.59054
245.59012
245.58962
245.58899
245.58865
245.58838
245.59307
245.59227
245.59126
245.59076
245.59008
245.58998
245.5901
245.58907
245.5884
245.58794
245.58776
245.59281
245.59164
245.59059
245.58992
245.58951
245.58912
245.58976
245.58884
245.58824
245.58768
245.5873
245.59252
245.59095
245.59017
245.58952
245.58905
245.58896
245.58915
245.58855
245.58805
245.5875
245.58699
245.59251
245.59171
245.59072
245.59023
245.58954
245.5885
245.58854
245.58842
245.58803
245.5878
245.58734
245.58691
245.59178
245.59051
245.59035
245.59014
245.58927
245.58828
245.58829
245.58773
245.58749
245.58749
245.58732
245.58683
245.59061
245.58954
245.58936
245.58955
245.58822
245.58841
245.58822
245.58748
245.58726
245.58699
245.58699
245.58668
245.58928
245.58873
245.58842
245.58842
245.58774
245.58828
245.58799
245.5873
245.5871
245.58688
245.58676
245.58649
245.58843
245.58807
245.5879
245.58733
245.58735
245.58761
245.58735
245.58734
245.58662
245.58674
245.58674
245.58638
245.58786
245.5877
245.58735
245.58701
245.58689
245.58686
245.58681
245.58709
245.58665
245.58683
245.58632
245.58642
245.58749
245.58727
245.58736
245.58711
245.58652
245.58675
245.58618
245.58618
245.58646
245.58637
245.58655
245.58634
245.58612
245.58683
245.58697
245.58694
245.58667
245.58635
245.58645
245.58603
245.58617
245.58583
245.58589
245.58604
245.58616
245.58571
245.58555
245.58597
245.58589
245.58592
245.58623
245.58609
245.5862
245.58618
245.58568
245.58571
245.58588
245.58581
245.5857
245.58419
245.58419
245.58456
245.58489
245.58519
245.58542
245.58567
245.5858
245.58578
245.5859
245.58567
245.5855
245.58545
245.58543
245.58327
245.58338
245.5838
245.58446
245.58451
245.5848
245.58508
245.58517
245.5854
245.58562
245.5854
245.58506
245.58526
245.5854
245.58279
245.58339
245.58356
245.58382
245.58412
245.58439
245.58443
245.58447
245.58453
245.58454
245.58445
245.58451
245.58492
245.58519
245.58275
245.58313
245.58349
245.58371
245.5837
245.58371
245.58353
245.58348
245.5836
245.5835
245.58349
245.58377
245.58461
245.58489
245.58498
245.58271
245.58308
245.5831
245.58317
245.5832
245.58289
245.58284
245.58259
245.58251
245.58262
245.58294
245.58349
245.58424
245.58443
245.58467
245.58198
245.58234
245.58266
245.58265
245.58251
245.58258
245.58237
245.58224
245.58238
245.58226
245.58249
245.58298
245.58339
245.58347
245.58366
245.58388
245.58106
245.58119
245.58126
245.58149
245.58187
245.58196
245.58187
245.58221
245.58209
245.58217
245.58228
245.58263
245.58253
245.58257
245.58265
245.58279
245.58304
245.58056
245.58071
245.58082
245.58102
245.5812
245.58153
245.5816
245.58173
245.5818
245.58159
245.58168
245.58173
245.58185
245.58195
245.58205
245.58198
245.58206
245.57983
245.57984
245.57985
245.57979
245.5799
245.5801
245.58023
245.58043
245.58071
245.58088
245.58084
245.58086
245.58079
245.58075
245.5808
245.58094
245.58105
245.58107
245.57951
245.57962
245.57969
245.57981
245.57992
245.57993
245.57997
245.58
245.57996
245.57986
245.57997
245.58001
245.57982
245.57964
245.5796
245.57965
245.57978
245.57998
245.58002
245.57889
245.57895
245.57908
245.57918
245.57926
245.57934
245.57934
245.57933
245.57926
245.57927
245.57929
245.57928
245.5793
245.57924
245.57913
245.57911
245.57907
245.57911
245.57923
245.57933
245.57875
245.57881
245.57889
245.57894
245.57902
245.57913
245.57916
245.57922
245.57925
245.57922
245.57922
245.57919
245.57914
245.57919
245.57921
245.57919
245.57919
245.57914
245.57899
245.57893
245.57891
245.57891
245.58004
245.58009
245.58016
245.58022
245.58028
245.58035
245.58046
245.58058
245.58069
245.58084
245.58094
245.58101
245.58111
245.58116
245.58117
245.58121
245.58119
245.5811
245.58095
245.58076
245.58051
245.58025
245.58009
245.57922
245.57918
245.57912
245.57906
245.57898
245.5789
245.57882
245.57873
245.57864
245.57854
245.57845
245.57835
245.57825
245.57813
245.57801
245.57788
245.57778
245.57777
245.57783
245.57793
245.57801
245.57808
245.57808
245.57807
245.57804
245.57221
245.57222
245.57222
245.57223
245.57224
245.57225
245.57225
245.57228
245.57232
245.57238
245.57246
245.57254
245.57262
245.57268
245.57272
245.57277
245.57282
245.57282
245.57279
245.57274
245.57269
245.57268
245.57263
245.57255
245.57248
245.57241
245.57238
245.67776
245.69545
245.7169
245.72221
245.70552
245.67711
245.64866
245.62584
245.60981
245.59971
245.59401
245.59128
245.5903
245.59017
245.59038
245.59057
245.5906
245.5903
245.58969
245.58885
245.58802
245.58739
245.58693
245.5866
245.58647
245.5866
245.58677
245.58674
245.58655
245.5863
245.58604
245.58593
245.58588
245.58583
245.58553
245.58527
245.58545
245.5853
245.58465
245.58386
245.583
245.58206
245.58112
245.57995
245.57933
245.579
245.58
245.57789
245.57239
245.67471
245.69266
245.71288
245.71712
245.69959
245.67166
245.64436
245.62277
245.60773
245.5983
245.593
245.5905
245.5896
245.58949
245.5897
245.58983
245.58984
245.58955
245.58902
245.58834
245.58767
245.58715
245.58673
245.58644
245.58633
245.58635
245.58645
245.58648
245.58634
245.58612
245.58581
245.5858
245.58585
245.58582
245.58571
245.58546
245.58548
245.58517
245.58448
245.58375
245.58289
245.58197
245.581
245.57996
245.57948
245.57914
245.57994
245.57777
245.57244
245.67191
245.6905
245.7095
245.7122
245.69341
245.66565
245.6394
245.61912
245.60527
245.59672
245.59204
245.58989
245.58914
245.58905
245.58924
245.58937
245.58934
245.58906
245.58858
245.58798
245.58737
245.58683
245.58639
245.58606
245.58587
245.58576
245.58578
245.58597
245.58601
245.58595
245.58583
245.58583
245.58574
245.58545
245.58553
245.58544
245.58517
245.5847
245.58407
245.58359
245.58287
245.58178
245.58078
245.58
245.57957
245.57919
245.58004
245.57766
245.57252
245.66911
245.68843
245.70619
245.70731
245.68749
245.66013
245.63501
245.61599
245.6032
245.59544
245.5913
245.58939
245.58873
245.58864
245.58879
245.58887
245.58879
245.58849
245.588
245.58739
245.58674
245.58619
245.58585
245.58564
245.58553
245.58555
245.58565
245.58575
245.58577
245.5858
245.58583
245.58564
245.58517
245.58508
245.58526
245.58513
245.58467
245.58429
245.58376
245.58341
245.58272
245.58161
245.58066
245.57995
245.57954
245.57922
245.58014
245.57759
245.57268
245.66601
245.6858
245.70246
245.70234
245.68211
245.65553
245.63161
245.61368
245.60176
245.59468
245.591
245.58935
245.58877
245.58862
245.58859
245.58857
245.58845
245.58812
245.58759
245.58695
245.58635
245.58592
245.58568
245.58555
245.58542
245.58536
245.5854
245.58544
245.58538
245.58531
245.58526
245.58485
245.58492
245.58519
245.58504
245.58455
245.58417
245.58402
245.58351
245.58311
245.58243
245.58133
245.58062
245.57998
245.57949
245.57921
245.58015
245.57763
245.57288
245.66251
245.6824
245.69832
245.6974
245.67737
245.65179
245.62898
245.61197
245.60074
245.59411
245.59064
245.58911
245.58863
245.58865
245.58882
245.58882
245.58858
245.5881
245.58749
245.58678
245.58611
245.58561
245.58532
245.58519
245.5851
245.58501
245.58493
245.58488
245.58484
245.58472
245.58458
245.58487
245.58524
245.58484
245.58427
245.58408
245.58399
245.58378
245.58319
245.58261
245.58207
245.58104
245.5804
245.57995
245.57957
245.57917
245.58013
245.57769
245.57304
245.65895
245.67865
245.69406
245.69274
245.67327
245.64878
245.62705
245.61085
245.60012
245.59371
245.59033
245.58881
245.5883
245.58823
245.58829
245.58831
245.5882
245.58784
245.58723
245.58649
245.5858
245.58531
245.58501
245.58483
245.58472
245.58458
245.58445
245.58442
245.58445
245.58445
245.58455
245.58458
245.58417
245.58409
245.58405
245.58379
245.58349
245.5832
245.58231
245.58173
245.58162
245.58099
245.5804
245.57992
245.57952
245.57911
245.58014
245.57776
245.57318
245.65601
245.67544
245.69035
245.68864
245.66967
245.64615
245.62537
245.60987
245.59957
245.59338
245.59005
245.58851
245.58795
245.58784
245.58788
245.58789
245.58774
245.58727
245.5866
245.58589
245.58531
245.58493
245.58471
245.58464
245.58458
245.58442
245.5842
245.58397
245.58394
245.58402
245.58407
245.58398
245.58392
245.58394
245.58363
245.58313
245.58264
245.58237
245.58234
245.582
245.58148
245.58071
245.58028
245.57982
245.57946
245.57909
245.58009
245.57778
245.57324
245.65376
245.67298
245.68727
245.68486
245.6661
245.64333
245.6234
245.60861
245.59882
245.593
245.58994
245.58853
245.588
245.58788
245.58785
245.58777
245.5875
245.58696
245.58628
245.58558
245.58497
245.58454
245.58429
245.58411
245.58403
245.58408
245.5841
245.58387
245.58369
245.58369
245.58381
245.58374
245.58371
245.58351
245.58312
245.5828
245.58256
245.58238
245.58232
245.5818
245.5811
245.58046
245.58014
245.57955
245.57928
245.57904
245.58
245.57776
245.57321
245.65185
245.67102
245.68461
245.68124
245.66242
245.64025
245.62115
245.60712
245.59791
245.59244
245.58958
245.58831
245.58783
245.58768
245.5876
245.58747
245.58716
245.58667
245.58608
245.58549
245.58499
245.58458
245.58429
245.5842
245.58423
245.58407
245.58376
245.58366
245.58361
245.58339
245.58338
245.58343
245.58326
245.58312
245.58298
245.58278
245.58248
245.58219
245.58191
245.58134
245.58071
245.58023
245.57984
245.57919
245.5792
245.57904
245.57999
245.57777
245.5731
245.6498
245.66907
245.68204
245.67765
245.65864
245.63692
245.61856
245.6053
245.59673
245.59175
245.58916
245.58802
245.58758
245.58741
245.5873
245.58715
245.58681
245.58631
245.58573
245.58519
245.58477
245.58451
245.58437
245.58423
245.58401
245.58383
245.58381
245.58375
245.58364
245.58347
245.58326
245.58304
245.58285
245.58284
245.58271
245.58254
245.58235
245.58204
245.58186
245.58138
245.58068
245.58005
245.57953
245.57904
245.57906
245.57903
245.58006
245.57774
245.57291
245.64761
245.66697
245.67942
245.67423
245.65517
245.63391
245.61621
245.60358
245.59551
245.59086
245.58847
245.58741
245.58699
245.58684
245.58676
245.58661
245.58629
245.58584
245.58536
245.58492
245.58456
245.5843
245.58411
245.58394
245.58379
245.58375
245.58381
245.5837
245.58345
245.58327
245.5831
245.58293
245.58279
245.58266
245.58257
245.5823
245.5822
245.5821
245.58187
245.58138
245.58064
245.57987
245.57928
245.5789
245.5789
245.57896
245.58015
245.57757
245.57275
245.60239
245.59466
245.59021
245.58792
245.58689
245.58646
245.58628
245.58618
245.586
245.58567
245.58523
245.58479
245.58443
245.58416
245.58396
245.58381
245.58372
245.58371
245.58366
245.58358
245.58347
245.58331
245.58304
245.58286
245.58276
245.5827
245.58264
245.58268
245.58261
245.5823
245.58197
245.58166
245.58127
245.58056
245.57969
245.57906
245.57863
245.57867
245.57897
245.58013
245.57747
245.57265
245.58387
245.58364
245.5835
245.5834
245.58333
245.58328
245.58323
245.58313
245.58301
245.58295
245.58296
245.58285
245.58276
245.58278
245.58278
245.5826
245.58237
245.58217
245.58187
245.5816
245.58118
245.58052
245.57963
245.57891
245.57854
245.57852
245.57907
245.58015
245.5775
245.57255
245.58241
245.58251
245.58273
245.58282
245.58283
245.5828
245.58268
245.58238
245.58224
245.58215
245.58192
245.58157
245.58111
245.58053
245.57969
245.57898
245.5785
245.57839
245.57908
245.58019
245.57744
245.57246
245.58248
245.58248
245.58239
245.58204
245.58155
245.58109
245.58054
245.5799
245.57913
245.57855
245.5784
245.57907
245.58018
245.57738
245.57241
245.58164
245.58119
245.58066
245.58011
245.57928
245.57861
245.57842
245.57904
245.58027
245.57742
245.57232
245.57941
245.57871
245.57855
245.57907
245.58033
245.57742
245.5722
245.57881
245.57914
245.5803
245.57739
245.57211
245.58029
245.5774
245.57198
245.57188
)
;

boundaryField
{
    Side
    {
        type            empty;
    }
    Inlet
    {
        type            totalTemperature;
        gamma           1.4;
        T0              uniform 250;
        value           nonuniform List<scalar> 
48
(
245.57995
245.57993
245.5799
245.57987
245.57986
245.57986
245.57987
245.57987
245.57988
245.57989
245.57991
245.57996
245.58001
245.58008
245.58015
245.58021
245.58027
245.58034
245.58042
245.58052
245.58058
245.58059
245.5806
245.58059
245.58057
245.58053
245.58048
245.58047
245.58048
245.58048
245.58047
245.58046
245.58046
245.58045
245.58046
245.58045
245.58045
245.58046
245.58047
245.58047
245.58048
245.58047
245.58046
245.58046
245.58043
245.58038
245.58033
245.58027
)
;
    }
    Airfoil
    {
        type            zeroGradient;
    }
    Outlet
    {
        type            inletOutlet;
        inletValue      nonuniform List<scalar> 0();
        value           nonuniform List<scalar> 0();
    }
    procBoundary10to2
    {
        type            processor;
        value           uniform 245.75507;
    }
    procBoundary10to3
    {
        type            processor;
        value           nonuniform List<scalar> 
23
(
245.68456
245.68957
245.69627
245.70357
245.71056
245.71673
245.72289
245.72965
245.73738
245.73738
245.7953
245.68044
245.67711
245.67335
245.66946
245.66571
245.66217
245.65902
245.65653
245.65454
245.65269
245.65054
245.64825
)
;
    }
    procBoundary10to9
    {
        type            processor;
        value           nonuniform List<scalar> 
66
(
245.7539
245.80809
245.82321
245.76504
245.69276
245.64392
245.61701
245.60377
245.59799
245.59609
245.59616
245.59616
245.59808
245.59931
245.60025
245.60066
245.60041
245.59961
245.59863
245.59741
245.59606
245.59489
245.59392
245.59352
245.59339
245.59303
245.59303
245.59221
245.59178
245.59116
245.59045
245.58981
245.58853
245.58853
245.5878
245.58655
245.58504
245.58504
245.58437
245.58322
245.5826
245.5826
245.5821
245.58206
245.58206
245.58179
245.58179
245.58064
245.58035
245.58035
245.57988
245.57988
245.5794
245.5794
245.57873
245.5788
245.5788
245.57867
245.57867
245.58
245.58001
245.58001
245.57925
245.57924
245.57924
245.57219
)
;
    }
    procBoundary10to11
    {
        type            processor;
        value           nonuniform List<scalar> 
58
(
245.64568
245.66502
245.67702
245.67135
245.65244
245.63169
245.61455
245.61455
245.60173
245.59421
245.58987
245.58763
245.58659
245.58612
245.58588
245.58571
245.58546
245.5851
245.58465
245.58421
245.58421
245.58315
245.58293
245.58281
245.58275
245.58263
245.58251
245.58243
245.58241
245.58241
245.58221
245.58227
245.58232
245.58242
245.58244
245.58247
245.58247
245.58247
245.58262
245.58264
245.58246
245.58206
245.58206
245.58163
245.58116
245.58082
245.5802
245.5802
245.57957
245.57894
245.57894
245.57909
245.57924
245.57924
245.58023
245.57734
245.57734
245.57184
)
;
    }
}


// ************************************************************************* //
