/*--------------------------------*- C++ -*----------------------------------*\
| =========                 |                                                 |
| \\      /  F ield         | OpenFOAM: The Open Source CFD Toolbox           |
|  \\    /   O peration     | Version:  2506                                  |
|   \\  /    A nd           | Website:  www.openfoam.com                      |
|    \\/     M anipulation  |                                                 |
\*---------------------------------------------------------------------------*/
FoamFile
{
    version     2.0;
    format      ascii;
    arch        "LSB;label=32;scalar=64";
    class       volScalarField;
    location    "0.0235";
    object      k;
}
// * * * * * * * * * * * * * * * * * * * * * * * * * * * * * * * * * * * * * //

dimensions      [0 2 -2 0 0 0 0];

internalField   nonuniform List<scalar> 
13762
(
0.059568478
0.05956897
0.059569387
0.059569461
0.05956921
0.059569425
0.059570372
0.059570462
0.059570043
0.059569852
0.05956971
0.059569461
0.059569317
0.059569708
0.059569681
0.059569944
0.059569712
0.059569833
0.059570813
0.05957075
0.059570458
0.059570246
0.059570111
0.059569842
0.059569679
0.059569914
0.059570094
0.059569741
0.059569852
0.059570794
0.059570822
0.059570448
0.059570235
0.05957009
0.059569816
0.059569654
0.059569869
0.059569984
0.059570823
0.059570787
0.059570383
0.059570192
0.059570035
0.059569746
0.059569589
0.059569845
0.059570883
0.059570388
0.05957009
0.059569931
0.059569619
0.059569514
0.059569826
0.059570179
0.059569937
0.05956962
0.059569438
0.059569811
0.059569534
0.059569644
0.059569876
0.059569981
0.059569964
0.059569937
0.059569911
0.059569833
0.059570005
0.059570188
0.059570157
0.059570107
0.059570036
0.059570074
0.059570207
0.059570178
0.059570114
0.059570111
0.059570215
0.059570187
0.059570141
0.059570139
0.059570201
0.059570165
0.059570129
0.059570186
0.059570155
0.059570082
0.059570077
0.059570002
0.05957
0.059569922
0.059569921
0.059569855
0.059569853
0.059569804
0.059569799
0.059569759
0.059569725
0.059569696
0.059569682
0.059569684
0.059569692
0.059569714
0.059569742
0.059569757
0.059569763
0.059569765
0.059569765
0.059569765
0.059569873
0.059569871
0.059569871
0.059569868
0.059569867
0.059569865
0.059569865
0.059569865
0.059569865
0.059569864
0.059569863
0.059569861
0.059569861
0.059569865
0.059569869
0.059569868
0.059569867
0.059569871
0.059569879
0.059569884
0.059569884
0.059569882
0.059569884
0.059569888
0.059569892
0.05956989
0.05956989
0.059569898
0.059569895
0.059569895
0.059569889
0.059569883
0.059569879
0.059569881
0.059569875
0.059569872
0.059569874
0.059569869
0.059569864
0.059569864
0.059569868
0.059569869
0.059569867
0.059569864
0.059569863
0.059569864
0.059569865
0.059569865
0.059569865
0.059569868
0.059569867
0.059569869
0.059569872
0.059569868
0.059569869
0.059569872
0.059569871
0.059569871
0.05956987
0.059569865
0.059569868
0.059569869
0.059569869
0.059569864
0.059569861
0.059569865
0.059569861
0.059569864
0.059569865
0.059569892
0.059569887
0.059569873
0.05956987
0.059569864
0.059569862
0.059569871
0.059569884
0.059569878
0.059569874
0.059569875
0.059569879
0.059569879
0.059569881
0.059569878
0.059569884
0.059569888
0.059569885
0.059569885
0.059569887
0.059569889
0.059569891
0.059569893
0.059569895
0.059569896
0.059569898
0.0595699
0.059569902
0.059569904
0.059569906
0.059569908
0.05956991
0.059569912
0.059569913
0.059569915
0.059569916
0.059569917
0.059569919
0.059569919
0.05956992
0.059569921
0.059569921
0.059569921
0.059569922
0.059569922
0.059569923
0.059569924
0.059569925
0.059569927
0.059569931
0.059569939
0.059569955
0.059569982
0.059570013
0.059570047
0.059570081
0.059570107
0.059570115
0.059570106
0.059570083
0.059570045
0.059569996
0.059569932
0.059569866
0.059569831
0.059569811
0.059569812
0.059569823
0.059569836
0.059569846
0.059569845
0.059569811
0.059569862
0.059569868
0.059570116
0.059570044
0.059570875
0.059569705
0.05953445
0.31528058
0.059570008
0.059570009
0.059570009
0.059570006
0.059570006
0.059570002
0.05957
0.05957
0.05957
0.059569998
0.059569999
0.059569997
0.059569994
0.059569994
0.059569994
0.059569995
0.059569991
0.059569991
0.059569989
0.05956999
0.059569989
0.059569989
0.059569988
0.059569988
0.059569991
0.059569995
0.059569996
0.059569994
0.059569991
0.059569992
0.059569991
0.05956999
0.05956999
0.059569985
0.059569982
0.05956998
0.05956998
0.059569978
0.059569979
0.059569982
0.059569979
0.059569976
0.059569975
0.059569974
0.059569975
0.059569977
0.059569977
0.059569974
0.05956997
0.059569961
0.059569957
0.059569964
0.059569969
0.05956997
0.059569968
0.059569969
0.059569971
0.059569969
0.059569964
0.059569961
0.059569963
0.059569961
0.059569965
0.059569956
0.059569952
0.05956996
0.05956996
0.059569955
0.059569959
0.059569971
0.059569967
0.059569962
0.05956995
0.059569946
0.059569951
0.059569961
0.059569962
0.059569955
0.059569956
0.059569957
0.059569957
0.059569958
0.059569956
0.059569954
0.059569961
0.059569962
0.059569959
0.059569959
0.059569959
0.05956996
0.059569961
0.059569962
0.059569964
0.059569964
0.059569966
0.059569967
0.059569969
0.059569971
0.059569973
0.059569974
0.059569976
0.059569978
0.05956998
0.059569983
0.059569985
0.059569988
0.059569992
0.059569995
0.05957
0.059570004
0.059570008
0.059570011
0.059570017
0.059570022
0.059570025
0.05957003
0.059570035
0.059570039
0.059570043
0.059570049
0.059570057
0.059570074
0.059570089
0.059570097
0.059570092
0.05957008
0.059570063
0.059570038
0.059570011
0.05956998
0.059569941
0.059569891
0.059569843
0.059569819
0.059569811
0.059569816
0.059569829
0.059569844
0.059569853
0.059569848
0.059569818
0.059569867
0.059569879
0.059570129
0.059570062
0.059570904
0.0595697
0.059529082
0.3123995
0.059570076
0.059570071
0.059570063
0.059570059
0.059570062
0.059570067
0.059570068
0.059570064
0.059570061
0.05957006
0.059570057
0.059570059
0.059570062
0.059570057
0.059570057
0.059570056
0.059570058
0.059570057
0.059570055
0.059570055
0.059570053
0.05957005
0.05957005
0.059570049
0.059570047
0.059570046
0.059570046
0.059570047
0.059570048
0.059570047
0.059570048
0.059570048
0.059570047
0.059570047
0.059570045
0.059570046
0.059570045
0.059570045
0.059570044
0.059570042
0.059570039
0.05957004
0.059570042
0.059570041
0.05957004
0.059570038
0.059570037
0.059570035
0.059570036
0.059570037
0.059570036
0.059570031
0.059570031
0.059570033
0.059570033
0.059570031
0.05957003
0.05957003
0.059570027
0.059570027
0.059570028
0.059570032
0.059570028
0.059570025
0.059570029
0.059570032
0.05957003
0.059570024
0.059570027
0.059570029
0.05957003
0.059570024
0.059570019
0.059570021
0.059570025
0.059570025
0.059570022
0.059570023
0.059570022
0.05957002
0.059570021
0.059570021
0.05957002
0.059570021
0.059570022
0.05957002
0.05957002
0.05957002
0.05957002
0.05957002
0.05957002
0.05957002
0.05957002
0.05957002
0.05957002
0.059570021
0.059570021
0.059570022
0.059570021
0.059570021
0.059570021
0.059570021
0.059570022
0.059570023
0.059570023
0.059570023
0.059570024
0.059570025
0.059570026
0.059570027
0.059570028
0.059570028
0.059570031
0.059570032
0.059570034
0.059570038
0.059570043
0.059570049
0.059570055
0.059570064
0.059570071
0.059570075
0.059570074
0.059570068
0.059570056
0.05957004
0.05957002
0.05957
0.059569976
0.059569948
0.059569915
0.059569867
0.05956983
0.059569811
0.059569808
0.059569816
0.05956983
0.059569845
0.059569853
0.059569846
0.059569817
0.059569865
0.059569884
0.059570139
0.059570068
0.059570934
0.059569639
0.059525568
0.31172534
0.059570114
0.059570114
0.059570112
0.05957011
0.05957011
0.059570108
0.059570107
0.059570107
0.059570106
0.059570106
0.059570106
0.059570104
0.059570106
0.059570105
0.059570106
0.059570106
0.059570102
0.0595701
0.0595701
0.059570098
0.059570099
0.0595701
0.0595701
0.0595701
0.059570099
0.059570098
0.059570098
0.059570096
0.059570097
0.059570097
0.059570096
0.059570095
0.059570093
0.059570094
0.059570093
0.059570092
0.05957009
0.05957009
0.05957009
0.059570089
0.059570089
0.059570088
0.059570086
0.059570086
0.059570085
0.059570084
0.059570084
0.059570084
0.059570083
0.059570082
0.059570082
0.05957008
0.05957008
0.059570079
0.059570079
0.059570077
0.059570076
0.059570076
0.059570075
0.059570075
0.059570075
0.059570075
0.059570075
0.059570074
0.059570074
0.059570073
0.059570071
0.05957007
0.05957007
0.059570069
0.059570068
0.059570066
0.059570066
0.059570066
0.059570066
0.059570064
0.059570064
0.059570063
0.059570062
0.05957006
0.05957006
0.059570059
0.059570058
0.059570057
0.059570055
0.059570054
0.059570054
0.059570053
0.059570053
0.059570052
0.059570051
0.05957005
0.059570048
0.059570048
0.059570048
0.059570048
0.059570046
0.059570045
0.059570043
0.059570042
0.059570042
0.059570042
0.059570041
0.059570039
0.059570039
0.059570039
0.059570039
0.059570039
0.059570039
0.059570039
0.05957004
0.059570041
0.059570042
0.059570043
0.059570045
0.059570048
0.059570051
0.059570054
0.059570056
0.059570056
0.059570054
0.059570049
0.059570042
0.05957003
0.059570016
0.05957
0.059569983
0.059569964
0.059569943
0.05956992
0.059569889
0.059569851
0.059569822
0.059569806
0.059569806
0.059569816
0.059569831
0.059569845
0.059569851
0.059569843
0.059569813
0.059569866
0.059569886
0.059570144
0.059570073
0.059570954
0.059569579
0.059522858
0.31377635
0.059570143
0.059570143
0.059570142
0.059570141
0.05957014
0.059570139
0.059570139
0.059570139
0.059570139
0.059570138
0.059570138
0.059570138
0.059570137
0.059570137
0.059570134
0.059570133
0.059570134
0.059570133
0.059570133
0.059570132
0.059570133
0.059570132
0.059570132
0.059570131
0.059570132
0.059570131
0.059570131
0.059570131
0.059570129
0.059570129
0.059570129
0.059570128
0.059570128
0.059570127
0.059570127
0.059570126
0.059570125
0.059570124
0.059570124
0.059570123
0.059570122
0.059570122
0.05957012
0.059570119
0.059570119
0.059570118
0.059570118
0.059570118
0.059570118
0.059570117
0.059570115
0.059570115
0.059570115
0.059570114
0.059570114
0.059570115
0.059570114
0.059570113
0.059570111
0.05957011
0.05957011
0.05957011
0.059570108
0.059570106
0.059570106
0.059570103
0.059570103
0.059570102
0.059570101
0.0595701
0.059570099
0.059570098
0.059570097
0.059570096
0.059570095
0.059570095
0.059570094
0.059570092
0.059570091
0.05957009
0.059570089
0.059570087
0.059570086
0.059570084
0.059570083
0.059570081
0.05957008
0.059570078
0.059570077
0.059570075
0.059570073
0.059570072
0.059570072
0.05957007
0.059570068
0.059570066
0.059570064
0.059570061
0.059570059
0.059570058
0.059570057
0.059570056
0.059570054
0.059570053
0.059570052
0.05957005
0.059570049
0.059570048
0.059570046
0.059570045
0.059570044
0.059570043
0.059570042
0.059570041
0.059570039
0.059570038
0.059570037
0.059570033
0.05957003
0.059570025
0.059570019
0.05957001
0.05957
0.059569989
0.059569977
0.059569963
0.059569949
0.059569933
0.059569919
0.059569897
0.05956987
0.059569838
0.059569813
0.059569803
0.059569805
0.059569816
0.059569833
0.059569846
0.05956985
0.059569839
0.05956981
0.059569866
0.059569888
0.05957015
0.059570081
0.059570979
0.059569527
0.059520511
0.31635632
0.059570134
0.059570133
0.059570132
0.059570132
0.059570131
0.059570131
0.059570131
0.059570131
0.059570131
0.059570131
0.059570131
0.05957013
0.059570128
0.059570129
0.059570128
0.059570128
0.059570127
0.059570127
0.059570127
0.059570127
0.059570127
0.059570127
0.059570127
0.059570127
0.059570127
0.059570127
0.059570125
0.059570126
0.059570126
0.059570125
0.059570124
0.059570124
0.059570124
0.059570122
0.059570123
0.059570122
0.059570121
0.059570121
0.059570121
0.059570121
0.059570121
0.059570122
0.059570121
0.05957012
0.059570119
0.059570116
0.059570116
0.059570116
0.059570115
0.059570115
0.059570114
0.059570114
0.059570114
0.059570113
0.059570114
0.059570114
0.059570114
0.059570113
0.059570112
0.059570111
0.059570111
0.059570109
0.059570108
0.059570107
0.059570107
0.059570105
0.059570104
0.059570104
0.059570104
0.059570102
0.059570101
0.0595701
0.059570099
0.059570098
0.059570097
0.059570096
0.059570095
0.059570094
0.059570092
0.059570091
0.059570089
0.059570088
0.059570087
0.059570085
0.059570084
0.059570082
0.05957008
0.059570078
0.059570077
0.059570074
0.059570073
0.059570072
0.05957007
0.059570067
0.059570064
0.059570062
0.05957006
0.059570057
0.059570055
0.059570053
0.059570051
0.059570048
0.059570045
0.059570044
0.059570042
0.059570038
0.059570036
0.059570034
0.059570031
0.059570027
0.059570025
0.059570022
0.059570019
0.059570015
0.059570011
0.059570007
0.059570002
0.059569996
0.059569991
0.059569983
0.059569976
0.059569969
0.05956996
0.059569951
0.059569941
0.05956993
0.05956992
0.059569911
0.059569897
0.059569878
0.059569855
0.059569826
0.059569807
0.059569801
0.059569805
0.059569819
0.059569836
0.059569847
0.059569849
0.059569835
0.059569807
0.059569867
0.059569892
0.059570157
0.059570094
0.059571015
0.059569488
0.059518366
0.31919509
0.059570084
0.059570082
0.059570081
0.059570078
0.059570077
0.059570077
0.059570077
0.059570077
0.059570076
0.059570076
0.059570075
0.059570077
0.059570077
0.059570077
0.059570077
0.059570077
0.059570077
0.059570076
0.059570076
0.059570076
0.059570076
0.059570076
0.059570076
0.059570076
0.059570075
0.059570076
0.059570076
0.059570075
0.059570076
0.059570076
0.059570076
0.059570075
0.059570076
0.059570076
0.059570075
0.059570075
0.059570074
0.059570073
0.059570073
0.059570072
0.059570074
0.059570074
0.059570073
0.059570072
0.059570073
0.059570073
0.059570073
0.059570073
0.059570072
0.059570072
0.059570072
0.059570072
0.059570071
0.059570071
0.059570071
0.05957007
0.05957007
0.05957007
0.05957007
0.059570068
0.059570068
0.059570067
0.059570067
0.059570067
0.059570067
0.059570065
0.059570065
0.059570064
0.059570064
0.059570063
0.059570062
0.059570062
0.059570062
0.059570061
0.05957006
0.059570058
0.059570057
0.059570056
0.059570055
0.059570054
0.059570053
0.059570052
0.059570051
0.05957005
0.059570049
0.059570047
0.059570045
0.059570043
0.059570042
0.05957004
0.059570039
0.059570036
0.059570034
0.059570032
0.05957003
0.059570027
0.059570025
0.059570024
0.059570021
0.059570019
0.059570016
0.059570014
0.05957001
0.059570008
0.059570005
0.059570001
0.059569999
0.059569995
0.059569991
0.059569988
0.059569984
0.05956998
0.059569976
0.059569972
0.059569967
0.059569962
0.059569957
0.059569952
0.059569946
0.05956994
0.059569934
0.059569927
0.059569921
0.059569915
0.059569908
0.059569904
0.059569899
0.059569889
0.059569878
0.059569865
0.059569841
0.059569814
0.059569801
0.059569799
0.059569807
0.059569822
0.059569839
0.059569848
0.059569848
0.059569831
0.059569805
0.05956987
0.0595699
0.059570165
0.059570107
0.059571057
0.059569458
0.059516362
0.32232348
0.059570005
0.059570003
0.059570002
0.059570002
0.059570002
0.059570002
0.059570001
0.059570002
0.059570002
0.059570002
0.05957
0.059569999
0.059569999
0.059569998
0.059569999
0.059569999
0.059569999
0.059569999
0.059569999
0.059569999
0.059569999
0.059569999
0.059569999
0.059569999
0.059569998
0.059569998
0.059569998
0.059569998
0.059569999
0.059569999
0.05957
0.05957
0.059569999
0.05957
0.05957
0.05957
0.05957
0.05957
0.05957
0.05957
0.05957
0.059569999
0.059570001
0.05957
0.059570001
0.059569999
0.059569999
0.05957
0.059569999
0.05957
0.059569999
0.059569999
0.059569999
0.059569999
0.059569999
0.059569998
0.059569998
0.059569997
0.059569997
0.059569997
0.059569997
0.059569997
0.059569997
0.059569997
0.059569997
0.059569997
0.059569997
0.059569997
0.059569996
0.059569996
0.059569995
0.059569995
0.059569994
0.059569994
0.059569993
0.059569993
0.059569992
0.059569991
0.05956999
0.05956999
0.059569989
0.059569988
0.059569987
0.059569986
0.059569986
0.059569984
0.059569983
0.059569982
0.059569981
0.05956998
0.059569979
0.059569978
0.059569976
0.059569974
0.059569973
0.059569971
0.059569969
0.059569968
0.059569966
0.059569964
0.059569962
0.059569959
0.059569956
0.059569954
0.059569952
0.059569949
0.059569946
0.059569942
0.05956994
0.059569936
0.059569933
0.059569929
0.059569926
0.059569922
0.059569917
0.059569913
0.059569909
0.059569905
0.059569902
0.059569898
0.059569895
0.059569891
0.059569889
0.059569888
0.059569885
0.059569881
0.059569878
0.059569875
0.059569867
0.059569852
0.059569827
0.059569806
0.059569798
0.059569799
0.059569811
0.059569826
0.059569841
0.059569848
0.059569845
0.059569826
0.059569803
0.059569874
0.059569908
0.059570177
0.05957012
0.059571103
0.059569431
0.059514499
0.32578882
0.059569924
0.059569923
0.059569923
0.059569923
0.059569923
0.059569923
0.059569923
0.059569922
0.059569923
0.059569923
0.059569922
0.059569922
0.059569922
0.059569921
0.05956992
0.059569921
0.059569921
0.059569921
0.05956992
0.059569921
0.05956992
0.05956992
0.05956992
0.05956992
0.059569921
0.059569922
0.059569922
0.059569921
0.05956992
0.059569921
0.059569921
0.059569921
0.059569921
0.059569921
0.059569921
0.059569922
0.059569923
0.059569923
0.059569923
0.059569923
0.059569924
0.059569924
0.059569924
0.059569924
0.059569924
0.059569924
0.059569924
0.059569924
0.059569924
0.059569923
0.059569923
0.059569923
0.059569923
0.059569923
0.059569923
0.059569923
0.059569923
0.059569923
0.059569923
0.059569923
0.059569922
0.059569923
0.059569923
0.059569923
0.059569923
0.059569922
0.059569923
0.059569923
0.059569923
0.059569923
0.059569922
0.059569922
0.059569921
0.059569921
0.059569921
0.05956992
0.05956992
0.05956992
0.05956992
0.059569919
0.059569919
0.059569918
0.059569918
0.059569917
0.059569916
0.059569916
0.059569915
0.059569915
0.059569914
0.059569914
0.059569913
0.059569912
0.059569911
0.05956991
0.059569909
0.059569908
0.059569908
0.059569906
0.059569905
0.059569903
0.059569901
0.0595699
0.059569899
0.059569897
0.059569895
0.059569893
0.059569891
0.059569889
0.059569887
0.059569885
0.059569883
0.059569881
0.059569879
0.059569876
0.059569873
0.059569871
0.059569869
0.059569867
0.059569865
0.059569864
0.059569864
0.059569863
0.059569862
0.059569863
0.059569865
0.059569868
0.059569869
0.059569865
0.059569856
0.059569839
0.059569815
0.0595698
0.059569795
0.0595698
0.059569814
0.059569829
0.059569842
0.059569849
0.059569842
0.059569821
0.059569802
0.059569879
0.059569915
0.05957019
0.059570134
0.059571154
0.059569404
0.059512792
0.32964663
0.059569856
0.059569856
0.059569856
0.059569857
0.059569857
0.059569856
0.059569857
0.059569856
0.059569856
0.059569856
0.059569857
0.059569857
0.059569857
0.059569857
0.059569857
0.059569856
0.059569856
0.059569857
0.059569857
0.059569857
0.059569857
0.059569857
0.059569856
0.059569856
0.059569857
0.059569856
0.059569856
0.059569856
0.059569856
0.059569856
0.059569856
0.059569856
0.059569856
0.059569855
0.059569855
0.059569855
0.059569856
0.059569857
0.059569857
0.059569857
0.059569857
0.059569857
0.059569857
0.059569857
0.059569857
0.059569857
0.059569857
0.059569856
0.059569857
0.059569856
0.059569857
0.059569856
0.059569856
0.059569857
0.059569856
0.059569857
0.059569857
0.059569857
0.059569857
0.059569858
0.059569857
0.059569857
0.059569857
0.059569857
0.059569858
0.059569857
0.059569858
0.059569858
0.059569857
0.059569857
0.059569857
0.059569857
0.059569856
0.059569856
0.059569856
0.059569857
0.059569857
0.059569856
0.059569856
0.059569856
0.059569856
0.059569856
0.059569855
0.059569855
0.059569854
0.059569854
0.059569854
0.059569854
0.059569854
0.059569853
0.059569852
0.059569852
0.059569852
0.059569852
0.059569851
0.05956985
0.059569849
0.059569849
0.059569848
0.059569847
0.059569846
0.059569845
0.059569844
0.059569844
0.059569842
0.059569841
0.05956984
0.05956984
0.059569839
0.059569838
0.059569837
0.059569836
0.059569836
0.059569835
0.059569834
0.059569834
0.059569833
0.059569833
0.059569834
0.059569835
0.059569837
0.059569841
0.059569846
0.059569852
0.059569858
0.059569861
0.059569861
0.059569856
0.059569847
0.059569827
0.059569805
0.059569796
0.059569794
0.059569802
0.059569816
0.059569831
0.059569844
0.059569849
0.059569835
0.059569815
0.059569804
0.059569887
0.059569923
0.059570204
0.05957015
0.059571213
0.059569382
0.059511257
0.33396279
0.059569803
0.059569803
0.059569803
0.059569803
0.059569803
0.059569804
0.059569804
0.059569804
0.059569805
0.059569805
0.059569806
0.059569806
0.059569806
0.059569806
0.059569806
0.059569806
0.059569805
0.059569806
0.059569806
0.059569806
0.059569806
0.059569806
0.059569806
0.059569806
0.059569806
0.059569805
0.059569806
0.059569806
0.059569806
0.059569806
0.059569806
0.059569806
0.059569806
0.059569806
0.059569805
0.059569805
0.059569805
0.059569806
0.059569806
0.059569807
0.059569806
0.059569806
0.059569807
0.059569807
0.059569806
0.059569806
0.059569806
0.059569806
0.059569807
0.059569807
0.059569807
0.059569807
0.059569807
0.059569806
0.059569806
0.059569807
0.059569807
0.059569807
0.059569807
0.059569807
0.059569807
0.059569807
0.059569807
0.059569808
0.059569808
0.059569808
0.059569807
0.059569807
0.059569807
0.059569806
0.059569806
0.059569806
0.059569806
0.059569807
0.059569807
0.059569807
0.059569807
0.059569807
0.059569807
0.059569807
0.059569807
0.059569806
0.059569806
0.059569806
0.059569806
0.059569806
0.059569806
0.059569806
0.059569805
0.059569805
0.059569805
0.059569804
0.059569804
0.059569805
0.059569804
0.059569804
0.059569804
0.059569803
0.059569803
0.059569802
0.059569802
0.059569802
0.059569801
0.059569801
0.0595698
0.059569801
0.0595698
0.059569801
0.0595698
0.0595698
0.059569801
0.059569801
0.059569802
0.059569803
0.059569804
0.059569806
0.059569808
0.059569811
0.059569815
0.05956982
0.059569827
0.059569834
0.059569841
0.059569848
0.059569853
0.059569856
0.059569855
0.05956985
0.059569838
0.059569814
0.059569798
0.059569791
0.059569793
0.059569804
0.059569819
0.059569834
0.059569846
0.059569847
0.059569828
0.059569811
0.059569807
0.059569896
0.059569932
0.059570219
0.05957017
0.059571282
0.059569368
0.059509922
0.338817
0.059569769
0.059569769
0.059569769
0.059569769
0.059569769
0.059569768
0.059569768
0.059569768
0.059569768
0.059569768
0.059569769
0.059569769
0.059569769
0.059569769
0.059569769
0.05956977
0.059569769
0.059569769
0.05956977
0.05956977
0.05956977
0.059569769
0.059569769
0.059569769
0.059569769
0.059569769
0.05956977
0.05956977
0.05956977
0.05956977
0.05956977
0.05956977
0.05956977
0.05956977
0.05956977
0.05956977
0.05956977
0.059569769
0.05956977
0.05956977
0.05956977
0.05956977
0.05956977
0.05956977
0.05956977
0.05956977
0.05956977
0.05956977
0.059569771
0.059569772
0.059569772
0.059569772
0.059569772
0.059569772
0.059569772
0.059569772
0.059569772
0.059569772
0.059569772
0.059569772
0.059569772
0.059569773
0.059569773
0.059569773
0.059569773
0.059569773
0.059569773
0.059569773
0.059569774
0.059569773
0.059569773
0.059569773
0.059569773
0.059569774
0.059569774
0.059569774
0.059569773
0.059569773
0.059569774
0.059569773
0.059569774
0.059569774
0.059569774
0.059569774
0.059569774
0.059569774
0.059569774
0.059569774
0.059569774
0.059569774
0.059569774
0.059569773
0.059569774
0.059569774
0.059569774
0.059569774
0.059569774
0.059569774
0.059569774
0.059569774
0.059569775
0.059569775
0.059569775
0.059569775
0.059569776
0.059569777
0.059569777
0.059569778
0.059569779
0.05956978
0.059569781
0.059569783
0.059569785
0.059569787
0.05956979
0.059569793
0.059569797
0.059569801
0.059569807
0.059569815
0.059569823
0.059569832
0.05956984
0.059569847
0.059569851
0.059569853
0.059569853
0.059569847
0.059569825
0.059569802
0.05956979
0.059569786
0.059569792
0.059569806
0.059569823
0.059569839
0.059569847
0.059569842
0.059569819
0.059569807
0.059569813
0.059569906
0.059569942
0.059570238
0.059570195
0.059571364
0.059569365
0.059508838
0.34430616
0.059569734
0.059569733
0.059569733
0.059569733
0.059569733
0.059569733
0.059569733
0.059569733
0.059569733
0.059569734
0.059569734
0.059569733
0.059569733
0.059569733
0.059569733
0.059569734
0.059569734
0.059569734
0.059569734
0.059569734
0.059569734
0.059569734
0.059569734
0.059569735
0.059569735
0.059569735
0.059569736
0.059569735
0.059569736
0.059569736
0.059569736
0.059569736
0.059569736
0.059569736
0.059569737
0.059569737
0.059569737
0.059569737
0.059569737
0.059569737
0.059569737
0.059569737
0.059569737
0.059569737
0.059569738
0.059569739
0.059569738
0.059569739
0.059569739
0.059569739
0.059569739
0.059569739
0.05956974
0.05956974
0.059569741
0.059569741
0.05956974
0.059569741
0.059569741
0.059569741
0.059569742
0.059569742
0.059569742
0.059569742
0.059569743
0.059569743
0.059569744
0.059569744
0.059569744
0.059569745
0.059569745
0.059569745
0.059569745
0.059569745
0.059569745
0.059569746
0.059569746
0.059569747
0.059569747
0.059569747
0.059569748
0.059569748
0.059569748
0.059569749
0.059569749
0.05956975
0.05956975
0.05956975
0.059569751
0.059569751
0.059569751
0.059569751
0.059569752
0.059569752
0.059569753
0.059569753
0.059569754
0.059569755
0.059569755
0.059569756
0.059569756
0.059569757
0.059569758
0.059569759
0.059569761
0.059569762
0.059569763
0.059569764
0.059569766
0.059569767
0.059569769
0.059569771
0.059569773
0.059569776
0.059569781
0.059569786
0.059569793
0.0595698
0.059569809
0.059569819
0.059569828
0.059569837
0.059569844
0.05956985
0.059569854
0.059569857
0.059569855
0.059569834
0.059569804
0.059569788
0.059569781
0.059569782
0.059569795
0.059569812
0.059569829
0.059569843
0.059569847
0.059569834
0.059569808
0.059569806
0.059569821
0.05956992
0.059569955
0.059570261
0.059570226
0.059571458
0.059569373
0.059508078
0.3505499
0.059569704
0.059569703
0.059569703
0.059569704
0.059569704
0.059569704
0.059569704
0.059569704
0.059569704
0.059569705
0.059569704
0.059569704
0.059569704
0.059569704
0.059569704
0.059569704
0.059569704
0.059569704
0.059569704
0.059569704
0.059569705
0.059569705
0.059569705
0.059569706
0.059569706
0.059569706
0.059569707
0.059569707
0.059569707
0.059569707
0.059569707
0.059569707
0.059569707
0.059569708
0.059569708
0.059569708
0.059569709
0.059569709
0.059569709
0.059569709
0.05956971
0.05956971
0.05956971
0.059569711
0.059569711
0.059569712
0.059569711
0.059569712
0.059569712
0.059569712
0.059569713
0.059569713
0.059569713
0.059569714
0.059569714
0.059569715
0.059569715
0.059569715
0.059569716
0.059569716
0.059569716
0.059569717
0.059569718
0.059569718
0.059569718
0.059569718
0.059569719
0.05956972
0.05956972
0.059569721
0.059569721
0.059569722
0.059569722
0.059569722
0.059569723
0.059569723
0.059569724
0.059569725
0.059569726
0.059569726
0.059569727
0.059569728
0.059569728
0.059569728
0.059569729
0.05956973
0.059569731
0.059569731
0.059569732
0.059569733
0.059569734
0.059569734
0.059569736
0.059569737
0.059569737
0.059569738
0.059569739
0.05956974
0.059569741
0.059569742
0.059569743
0.059569744
0.059569745
0.059569747
0.059569748
0.059569749
0.059569751
0.059569752
0.059569754
0.059569757
0.05956976
0.059569764
0.059569769
0.059569776
0.059569783
0.059569792
0.059569801
0.05956981
0.05956982
0.059569829
0.059569837
0.059569845
0.059569851
0.059569859
0.059569866
0.059569863
0.059569837
0.059569802
0.059569784
0.059569776
0.059569773
0.059569784
0.059569801
0.05956982
0.059569837
0.059569847
0.059569845
0.059569823
0.059569798
0.059569806
0.059569831
0.059569936
0.059569969
0.059570286
0.059570264
0.059571565
0.059569396
0.059507746
0.35769857
0.059569689
0.059569689
0.05956969
0.05956969
0.05956969
0.059569691
0.059569691
0.059569691
0.05956969
0.05956969
0.05956969
0.05956969
0.059569691
0.059569692
0.059569691
0.059569692
0.059569692
0.059569692
0.059569692
0.059569692
0.059569693
0.059569693
0.059569693
0.059569693
0.059569693
0.059569693
0.059569693
0.059569693
0.059569693
0.059569694
0.059569695
0.059569694
0.059569694
0.059569695
0.059569696
0.059569696
0.059569696
0.059569696
0.059569697
0.059569697
0.059569697
0.059569697
0.059569697
0.059569698
0.059569698
0.059569699
0.059569699
0.059569699
0.059569699
0.0595697
0.0595697
0.0595697
0.0595697
0.059569701
0.059569701
0.059569702
0.059569702
0.059569703
0.059569703
0.059569704
0.059569704
0.059569705
0.059569706
0.059569706
0.059569707
0.059569707
0.059569707
0.059569708
0.059569709
0.059569709
0.05956971
0.05956971
0.059569711
0.059569712
0.059569713
0.059569713
0.059569714
0.059569715
0.059569715
0.059569716
0.059569717
0.059569718
0.059569718
0.059569719
0.05956972
0.059569721
0.059569721
0.059569722
0.059569723
0.059569724
0.059569724
0.059569725
0.059569726
0.059569727
0.059569728
0.059569728
0.059569729
0.05956973
0.059569731
0.059569732
0.059569733
0.059569734
0.059569736
0.059569738
0.059569741
0.059569744
0.059569748
0.059569752
0.059569757
0.059569762
0.059569768
0.059569775
0.059569783
0.059569791
0.059569799
0.059569807
0.059569815
0.059569824
0.059569832
0.05956984
0.059569849
0.05956986
0.059569871
0.059569877
0.059569865
0.059569828
0.059569792
0.059569779
0.059569768
0.059569763
0.059569774
0.059569791
0.05956981
0.059569828
0.059569843
0.059569848
0.059569837
0.059569807
0.059569789
0.059569808
0.059569843
0.059569956
0.059569985
0.059570314
0.059570306
0.059571692
0.059569437
0.059507963
0.36593888
0.05956969
0.059569691
0.059569691
0.059569691
0.059569692
0.059569692
0.059569692
0.059569693
0.059569693
0.059569693
0.059569693
0.059569693
0.059569693
0.059569693
0.059569693
0.059569694
0.059569694
0.059569693
0.059569694
0.059569694
0.059569694
0.059569694
0.059569694
0.059569695
0.059569694
0.059569694
0.059569695
0.059569695
0.059569695
0.059569696
0.059569695
0.059569696
0.059569696
0.059569696
0.059569696
0.059569697
0.059569697
0.059569697
0.059569697
0.059569697
0.059569698
0.059569698
0.059569699
0.059569698
0.059569698
0.059569699
0.059569699
0.059569699
0.059569699
0.0595697
0.0595697
0.059569701
0.059569701
0.059569702
0.059569702
0.059569702
0.059569703
0.059569703
0.059569703
0.059569703
0.059569704
0.059569704
0.059569705
0.059569705
0.059569706
0.059569706
0.059569706
0.059569707
0.059569707
0.059569708
0.059569708
0.059569709
0.059569709
0.05956971
0.05956971
0.059569711
0.059569711
0.059569712
0.059569712
0.059569712
0.059569713
0.059569714
0.059569714
0.059569715
0.059569716
0.059569716
0.059569717
0.059569718
0.059569719
0.05956972
0.05956972
0.059569722
0.059569723
0.059569724
0.059569726
0.059569728
0.05956973
0.059569732
0.059569734
0.059569737
0.05956974
0.059569744
0.059569747
0.059569751
0.059569755
0.05956976
0.059569765
0.05956977
0.059569775
0.059569782
0.059569788