/*--------------------------------*- C++ -*----------------------------------*\
| =========                 |                                                 |
| \\      /  F ield         | OpenFOAM: The Open Source CFD Toolbox           |
|  \\    /   O peration     | Version:  2506                                  |
|   \\  /    A nd           | Website:  www.openfoam.com                      |
|    \\/     M anipulation  |                                                 |
\*---------------------------------------------------------------------------*/
FoamFile
{
    version     2.0;
    format      ascii;
    arch        "LSB;label=32;scalar=64";
    class       volScalarField;
    location    "0.0265";
    object      Ma;
}
// * * * * * * * * * * * * * * * * * * * * * * * * * * * * * * * * * * * * * //

dimensions      [0 0 0 0 0 0 0];

internalField   nonuniform List<scalar> 
13761
(
0.00070346063
0.002450483
0.0047125803
0.0075873046
0.011157894
0.015480647
0.020549225
0.026245971
0.032305846
0.038333742
0.043969105
0.049025334
0.053496632
0.05746616
0.061018926
0.064228836
0.067152197
0.06982801
0.072279442
0.074528765
0.076595635
0.078496499
0.080245945
0.081857404
0.083343554
0.084716933
0.085989075
0.08716979
0.088267436
0.089289915
0.090246399
0.091148218
0.092008161
0.092839712
0.093656714
0.094473321
0.095304857
0.096167616
0.097079699
0.098063215
0.099143655
0.10034862
0.1017133
0.10327477
0.10506282
0.10713611
0.10963048
0.11276523
0.116363
0.11990094
0.12338497
0.12712327
0.13093472
0.13486133
0.13902713
0.14342324
0.1478734
0.15226408
0.15700202
0.16188488
0.16647633
0.17052564
0.17404167
0.17733726
0.18086257
0.18507273
0.18937405
0.19271605
0.19429506
0.19515003
0.19611138
0.19691765
0.19720164
0.19802419
0.19956764
0.20063522
0.20297894
0.20649182
0.20887071
0.21272084
0.21669447
0.22198161
0.22639109
0.23123023
0.23666067
0.24156329
0.24634228
0.25102761
0.25509238
0.25876852
0.26210755
0.26486671
0.26737358
0.26982766
0.2718854
0.27350878
0.27499623
0.27625838
0.27758395
0.27894782
0.28022821
0.28155322
0.28290747
0.28417137
0.28541656
0.28672422
0.28810254
0.28953603
0.29104881
0.29247026
0.29380451
0.29496594
0.29594036
0.2968624
0.29776029
0.29865523
0.29949765
0.3001894
0.30075457
0.30117194
0.30138676
0.30149166
0.30158507
0.30162404
0.30156105
0.30145731
0.30132697
0.30126807
0.30112894
0.30095136
0.30075377
0.30029969
0.30018921
0.30032421
0.30006507
0.29994645
0.29992916
0.30033384
0.0012153812
0.0037737156
0.006593197
0.0097142733
0.013176728
0.017023201
0.021289632
0.025995362
0.031129955
0.036644743
0.042419191
0.048244933
0.053850682
0.058986013
0.063527847
0.06746839
0.070869701
0.073814044
0.076380948
0.07863802
0.08063952
0.082426978
0.084032485
0.085481561
0.086794799
0.087989894
0.089081513
0.090081285
0.090999093
0.091844741
0.092627961
0.093358606
0.094048103
0.094709063
0.09535502
0.096000272
0.096660196
0.097351332
0.098091753
0.098902766
0.099810361
0.1008475
0.10205524
0.1034798
0.10518944
0.10727451
0.10989071
0.11310392
0.11680648
0.1204036
0.12396486
0.12770524
0.13151261
0.13551869
0.13976096
0.14418267
0.14864787
0.15317906
0.1580051
0.1628413
0.16720684
0.17101487
0.17436678
0.17763763
0.18128373
0.18571963
0.19001242
0.19278124
0.19393912
0.19475443
0.19604149
0.1969056
0.1974502
0.19857847
0.2000435
0.20133028
0.20429119
0.20765974
0.20983239
0.21405524
0.21818999
0.2233478
0.22768275
0.23249896
0.23777166
0.24257086
0.24720995
0.25176769
0.25568622
0.25923046
0.26243333
0.26510995
0.267599
0.26999807
0.27198848
0.27359816
0.27511073
0.27635351
0.27764044
0.27899202
0.28029099
0.28163822
0.28299993
0.28426129
0.28548598
0.28679023
0.28816418
0.28958794
0.29109926
0.29252779
0.29387062
0.29503933
0.29602074
0.29694309
0.29783269
0.29872773
0.29957247
0.30026399
0.30082446
0.30123671
0.3014543
0.3015584
0.30164826
0.30168424
0.30161745
0.30150733
0.30137329
0.30130981
0.30116465
0.30098517
0.30077743
0.30032599
0.30021423
0.30033864
0.30008472
0.2999516
0.29994059
0.3003477
0.0011078482
0.0034664319
0.0060906313
0.0090177456
0.012284003
0.015928012
0.019982811
0.024469613
0.029390135
0.034711234
0.040350665
0.046156724
0.051901613
0.057325556
0.062198735
0.066410164
0.069983144
0.07301158
0.075601744
0.077845843
0.079815662
0.081563832
0.083129008
0.084540502
0.085820341
0.08698556
0.088050129
0.089026247
0.089925348
0.09075757
0.091532983
0.092263194
0.092959688
0.093634253
0.094299299
0.094968025
0.095654714
0.096374431
0.097144082
0.097983425
0.098915038
0.099966209
0.10116929
0.10256354
0.1042087
0.10621712
0.10876553
0.11207739
0.11584889
0.11941341
0.12299681
0.12664063
0.13029369
0.13429568
0.13861564
0.14311268
0.14764894
0.15244804
0.15748692
0.16228334
0.16648536
0.17004077
0.1732939
0.17671938
0.18075284
0.18556211
0.18978665
0.1923206
0.19357662
0.19460113
0.19611439
0.19715884
0.19784807
0.19888251
0.20061943
0.20220593
0.20485769
0.20819752
0.21083504
0.2150364
0.21887515
0.22423271
0.22844563
0.23325832
0.23853093
0.24324824
0.24783347
0.25227669
0.25612994
0.25959098
0.2627302
0.26538332
0.26782086
0.2701692
0.27212175
0.27372059
0.2752272
0.27645517
0.27774469
0.27909212
0.28039509
0.2817647
0.28314302
0.2843933
0.28561403
0.2869187
0.28830034
0.28972644
0.29122898
0.29265061
0.29398612
0.29514815
0.2961351
0.29705976
0.29793651
0.29881722
0.29965351
0.30034184
0.30090333
0.30131137
0.30152037
0.30162222
0.30171596
0.3017481
0.3016702
0.30155475
0.30141536
0.30134649
0.30119944
0.30101222
0.30080261
0.30034735
0.30022674
0.30036242
0.30009957
0.29996158
0.29995418
0.300363
0.0011780513
0.0036726677
0.0064247477
0.0094615174
0.012808906
0.016496018
0.020547851
0.024980411
0.029794538
0.034964356
0.040427594
0.046068877
0.051708905
0.05712025
0.062076301
0.066415823
0.070099837
0.07319733
0.075817139
0.078063517
0.080019392
0.08174494
0.083283112
0.084665256
0.085914598
0.087049251
0.088083936
0.089031109
0.089901667
0.090706061
0.091454895
0.092158195
0.092825887
0.093468267
0.09409634
0.094721976
0.09535839
0.096020298
0.096724964
0.097493321
0.098350567
0.099327756
0.10046242
0.10179962
0.10340104
0.10536821
0.10788991
0.11117727
0.11498656
0.11862542
0.12225163
0.12594345
0.12979844
0.13404287
0.13850048
0.14315565
0.14790366
0.15292267
0.15801509
0.1627185
0.16678692
0.17019257
0.17347183
0.17710223
0.18149484
0.18649359
0.19028215
0.19215855
0.19303137
0.19429877
0.19622992
0.19720048
0.19794101
0.19928443
0.20133582
0.20304317
0.20567491
0.2094484
0.21277687
0.21672512
0.22043757
0.22598183
0.23009474
0.23491142
0.24004026
0.24463314
0.24900682
0.25327886
0.25691301
0.26021087
0.26320848
0.26576555
0.26815816
0.27039753
0.27226602
0.27386891
0.27537864
0.27655007
0.27781986
0.27916653
0.28047879
0.28185745
0.28325358
0.28449274
0.28569559
0.28699602
0.28837173
0.28979136
0.29129898
0.29272919
0.29406516
0.29523131
0.29622404
0.29715173
0.29802497
0.29890129
0.29973862
0.30042854
0.30098678
0.30138988
0.30160087
0.30170231
0.30178787
0.30181716
0.30173469
0.30161287
0.30146844
0.30139406
0.30123956
0.30105012
0.300829
0.30037813
0.30025531
0.30037487
0.30012355
0.29997639
0.29996243
0.0012545521
0.0039018391
0.0068040675
0.0099799003
0.013446888
0.017226573
0.02133696
0.025787179
0.030572107
0.03565919
0.040983293
0.046432768
0.051839442
0.056994267
0.061694338
0.065803798
0.069292476
0.072223103
0.074699427
0.076823482
0.078677137
0.080319567
0.081792554
0.083126055
0.084341759
0.085456131
0.08648218
0.087430646
0.088310991
0.089131747
0.089900874
0.090626271
0.091316058
0.091978949
0.092624604
0.093263821
0.09390874
0.094573381
0.095274516
0.096032344
0.096871756
0.097824434
0.098929664
0.10023607
0.10181227
0.10377248
0.10631589
0.10965405
0.11338725
0.11679269
0.12028969
0.12402526
0.12808373
0.13241571
0.13704
0.14193011
0.14709869
0.15242414
0.15749737
0.16190824
0.16575791
0.16907615
0.17258468
0.17669607
0.18160322
0.18664453
0.18981679
0.19122601
0.19210745
0.19393978
0.19623566
0.19742059
0.19863291
0.20029674
0.20245597
0.20402257
0.20631587
0.21061261
0.21364208
0.21745021
0.22141819
0.22702803
0.23105463
0.23597559
0.24103421
0.24552793
0.24985793
0.25397466
0.25752187
0.26069512
0.26360321
0.26612166
0.26844372
0.27058338
0.27238472
0.27399932
0.27554399
0.27670296
0.27794878
0.2792976
0.28062226
0.28201586
0.28340734
0.28464254
0.28584386
0.28715208
0.28854049
0.28995971
0.29145515
0.29287207
0.29419973
0.29535108
0.29634926
0.29728465
0.29814452
0.29900297
0.29982999
0.30051575
0.30107471
0.3014732
0.30167433
0.30177336
0.30186454
0.301886
0.30179266
0.30166435
0.30151415
0.30143366
0.30127634
0.30107961
0.30085666
0.30040303
0.30027099
0.30039835
0.30014154
0.29999067
0.29997492
0.0012826478
0.0039854565
0.0069383366
0.010153851
0.013644309
0.017427337
0.021518346
0.025925259
0.030641863
0.035635541
0.040838163
0.046139583
0.05138365
0.056385694
0.060964576
0.064990661
0.068425629
0.071318392
0.073762769
0.075856568
0.077680685
0.07929437
0.080739534
0.082046101
0.083235604
0.084324323
0.085325103
0.086248526
0.087103859
0.087899562
0.088643725
0.089344384
0.090009676
0.090648116
0.091268897
0.09188197
0.092498107
0.093129559
0.093791342
0.094502656
0.095289152
0.096186292
0.097243447
0.098527955
0.10013394
0.10219797
0.10492481
0.10848682
0.11239428
0.11590698
0.11949782
0.12338519
0.12757979
0.13201273
0.13677548
0.14185833
0.14728073
0.15272731
0.15769384
0.16182553
0.16552477
0.16890353
0.17261531
0.17708349
0.18220332
0.18690737
0.18938678
0.19031181
0.19144616
0.19372967
0.19621698
0.19761142
0.19927722
0.20110511
0.20302264
0.20454363
0.20711994
0.21194535
0.21560914
0.21933639
0.22338705
0.22908379
0.23316823
0.23800126
0.24292479
0.24717063
0.25122978
0.25516378
0.25845832
0.26148434
0.26425227
0.26665075
0.26888952
0.27088994
0.27255293
0.27412958
0.27567219
0.27681057
0.27805412
0.27939222
0.28072265
0.28214003
0.28354069
0.28475316
0.2859381
0.28724051
0.28862794
0.29004911
0.29154564
0.29296693
0.2942943
0.29544703
0.29644521
0.29738548
0.29824909
0.29909926
0.29992437
0.30061026
0.3011665
0.30155854
0.30176233
0.30186034
0.3019417
0.30196048
0.30186025
0.30172652
0.30157081
0.30148341
0.30132065
0.30112033
0.30088501
0.30043572
0.30030222
0.3004106
0.30016711
0.30000709
0.29998247
0.0012971539
0.0040211402
0.0069835322
0.010192259
0.01365572
0.017388394
0.021402901
0.025703901
0.030280557
0.035096178
0.040082222
0.045132623
0.050104421
0.054835531
0.059171015
0.062997503
0.066276632
0.069046895
0.071390756
0.073398467
0.075146978
0.076693597
0.078079098
0.079332472
0.080474364
0.081520174
0.082481895
0.083369305
0.084190893
0.08495454
0.085668078
0.086339602
0.086977807
0.087592292
0.088193821
0.088794567
0.089408389
0.09005142
0.090743053
0.091506829
0.092371743
0.093374203
0.094560746
0.095989425
0.097734012
0.099893911
0.10261783
0.10602765
0.10976215
0.1133879
0.11729021
0.1213853
0.12565999
0.13027935
0.1352806
0.14060726
0.14630055
0.15176739
0.15636695
0.1603701
0.16401019
0.16754701
0.17154578
0.17632612
0.18156843
0.18586872
0.18788755
0.18872538
0.19059159
0.19369288
0.19645445
0.19810198
0.20009078
0.20204328
0.20351162
0.20480726
0.20811684
0.21275932
0.21661338
0.22054292
0.22445737
0.2303162
0.23437535
0.23928192
0.24406213
0.24820512
0.25220046
0.25596301
0.25915596
0.26205679
0.26474135
0.26708911
0.26924528
0.27113545
0.27273795
0.27432537
0.27587611
0.27698309
0.27822964
0.27957893
0.28089905
0.28230256
0.28370702
0.2849269
0.28611473
0.28742622
0.28882345
0.29024582
0.29172595
0.29313207
0.29443969
0.29557917
0.29658274
0.29752937
0.29838607
0.29921665
0.30002561
0.30070619
0.30126267
0.30164835
0.30183968
0.30193866
0.30202407
0.30203346
0.30192183
0.30178017
0.30161841
0.30152611
0.30135743
0.30115079
0.30091336
0.30046305
0.30031924
0.30043488
0.30018605
0.30002292
0.001304382
0.0040359149
0.0069980817
0.010197428
0.013641051
0.017342095
0.021311777
0.025552945
0.030052795
0.034771388
0.039638032
0.044547981
0.049365571
0.05394124
0.058133918
0.06184084
0.06502639
0.06772447
0.070010507
0.071968745
0.073672105
0.075175406
0.076517847
0.077727306
0.07882355
0.079821213
0.080731596
0.081563849
0.082325904
0.08302503
0.083668274
0.084262836
0.084816327
0.085337164
0.085834961
0.08632089
0.086808069
0.087312434
0.087854199
0.088459529
0.089162957
0.090010868
0.091065949
0.092412049
0.09415642
0.096434157
0.099417317
0.10321343
0.10738796
0.11144154
0.11550442
0.11976404
0.12431931
0.12921475
0.13442548
0.13995167
0.14561857
0.15077904
0.15511038
0.15918308
0.16280133
0.16659363
0.17090221
0.17578093
0.18076491
0.18450411
0.18624369
0.18754726
0.19035014
0.19391171
0.19661138
0.19841626
0.20078049
0.20236317
0.20327718
0.20569655
0.20948736
0.21461721
0.21850872
0.22282527
0.2268651
0.2329258
0.23684386
0.24157955
0.24626042
0.25008504
0.25380967
0.25735917
0.26027204
0.26302079
0.26553621
0.26771598
0.26973529
0.27145064
0.27290326
0.2744583
0.27602044
0.2771072
0.27833869
0.27970029
0.28104977
0.28246365
0.28384644
0.28503802
0.28621923
0.28752593
0.28892538
0.29035351
0.29183605
0.29324144
0.29455292
0.29568752
0.2966824
0.29763789
0.29850369
0.29932882
0.3001306
0.30080774
0.3013598
0.30173906
0.30193371
0.30203176
0.30210534
0.30211112
0.30199194
0.30184461
0.30167664
0.30157684
0.30140422
0.30119375
0.30094289
0.30049626
0.3003519
0.30044751
0.30021357
0.30003961
0.0012589191
0.0038922776
0.006746485
0.0098285238
0.013145328
0.016708662
0.020526988
0.024598852
0.028905463
0.033400345
0.038007982
0.04262467
0.047125437
0.051381085
0.055275086
0.058724126
0.061699449
0.06422981
0.066380521
0.068226816
0.069835637
0.071258502
0.072532979
0.073686276
0.074738018
0.075703016
0.076592911
0.077417279
0.078184533
0.078902379
0.079578211
0.080219523
0.080834154
0.08143068
0.082018834
0.082609855
0.083216829
0.083855439
0.084545245
0.085310883
0.086183764
0.087204198
0.088423893
0.089908845
0.09173999
0.094014404
0.096841279
0.10025333
0.10388861
0.10764318
0.11184209
0.11651165
0.12156164
0.12682291
0.13236238
0.13801125
0.14344182
0.1482716
0.15269313
0.15673751
0.16067211
0.16475028
0.16923336
0.17407828
0.17885676
0.18239558
0.18423549
0.18638085
0.19031167
0.19438259
0.19677344
0.19847932
0.20072908
0.20204857
0.20357812
0.20688766
0.21079219
0.21547568
0.21998232
0.22438347
0.22851337
0.2344825
0.23844465
0.24312883
0.24754315
0.25131004
0.25491725
0.25829972
0.26108623
0.26370585
0.26614277
0.26824836
0.27017668
0.27177561
0.27312792
0.27466101
0.27623288
0.27732442
0.27856695
0.27990703
0.28123252
0.28263988
0.28403288
0.28523151
0.28641903
0.28773458
0.28914616
0.29057449
0.29203685
0.29342091
0.29470877
0.29583262
0.29683139
0.2977898
0.29865289
0.29946363
0.30024476
0.30091264
0.30146013
0.30183275
0.30201539
0.30211198
0.30219297
0.30218662
0.3020557
0.30190072
0.30172685
0.30162147
0.30144239
0.30122395
0.30097285
0.30052485
0.30036907
0.30047267
0.30023124
0.3000554
0.0011865945
0.0036722166
0.0063740643
0.0093029673
0.01246851
0.015883242
0.019554225
0.023475635
0.027621209
0.031935507
0.036336121
0.040719435
0.044970338
0.048976165
0.05263674
0.05587841
0.058673448
0.061045826
0.063054517
0.064769166
0.066252473
0.067552991
0.068706231
0.069737933
0.070666715
0.07150669
0.072269112
0.072963531
0.073598761
0.074183475
0.074726762
0.07523857
0.075730108
0.076214244
0.076705916
0.077222518
0.077784234
0.078414944
0.079143389
0.080004142
0.081038938
0.08229824
0.083842088
0.085738861
0.088061265
0.090881764
0.094250328
0.098064728
0.10185382
0.10579102
0.11013747
0.11498375
0.12021138
0.12564634
0.13128603
0.13690032
0.14210993
0.1467013
0.15107955
0.15512284
0.1587954
0.1628028
0.16727042
0.17229796
0.17699983
0.18029264
0.18256672
0.18567451
0.19020599
0.19406721
0.1959776
0.19791571
0.20054855
0.20225815
0.20468399
0.20857271
0.2124287
0.21697527
0.22278901
0.22769435
0.23144773
0.23759903
0.24146182
0.24583084
0.25005114
0.25339175
0.25674048
0.25983311
0.26234239
0.26479369
0.26700498
0.26890258
0.27067345
0.27213825
0.27335667
0.27481133
0.2763563
0.27743883
0.27871554
0.28009352
0.2814333
0.28281563
0.2841661
0.28533756
0.28653251
0.28784432
0.28925489
0.29070107
0.29216872
0.29354831
0.29483497
0.29595001
0.29693579
0.29790138
0.298777
0.29959192
0.30036286
0.30102201
0.30156407
0.30192761
0.30211517
0.3022117
0.30227702
0.30226787
0.302128
0.30196701
0.30178679
0.30167304
0.30148954
0.30126924
0.30100282
0.30055965
0.30040341
0.3004863
0.30026084
0.0010840496
0.0033567959
0.0058344795
0.0085315306
0.011459872
0.014631833
0.018051354
0.021706159
0.025560714
0.029549689
0.03358446
0.037563831
0.0413874
0.044968566
0.048238365
0.051149246
0.053684106
0.055860142
0.057720721
0.059321
0.060714549
0.06194555
0.063047896
0.064047022
0.064961774
0.065806667
0.066593345
0.067331604
0.068030212
0.06869733
0.069340873
0.069968882
0.070589726
0.07121244
0.071847148
0.072505438
0.073200857
0.073949834
0.074773129
0.075697297
0.07675646
0.077994334
0.07946631
0.081241977
0.083407561
0.086073772
0.089372319
0.093310874
0.097480343
0.10193937
0.10668357
0.11174012
0.11700151
0.12270995
0.12845551
0.13394056
0.13885711
0.14359512
0.14808804
0.15194728
0.15569295
0.15988764
0.16466948
0.16989829
0.17459146
0.17794584
0.18082353
0.18470385
0.1893166
0.19292165
0.19504233
0.19759948
0.20082395
0.20344356
0.20648175
0.21026055
0.2138008
0.21848575
0.22477594
0.23009227
0.2334962
0.23947016
0.24355285
0.24759327
0.25162393
0.25486825
0.2580431
0.26095164
0.26328096
0.26558953
0.26769198
0.26947652
0.27113787
0.27251528
0.2736514
0.27507237
0.27661059
0.27769288
0.27894199
0.28029219
0.28163161
0.28302096
0.28438029
0.28554518
0.28675125
0.28807554
0.28949587
0.29093282
0.29238887
0.29373871
0.29499972
0.29610824
0.29709571
0.29805872
0.29893139
0.2997406
0.30049066
0.30113828
0.30166942
0.302024
0.30220056
0.30229504
0.30236908
0.30234524
0.30219435
0.30202511
0.30183737
0.30171946
0.30152905
0.30129997
0.30103365
0.30058791
0.30042079
0.30051147
0.30027736
0.00099628753
0.0030933643
0.0053939538
0.0079173325
0.010678623
0.013690702
0.016954944
0.020452754
0.024138678
0.02793715
0.031754397
0.035493913
0.039068442
0.042406693
0.045451051
0.048158618
0.0505113
0.052523036
0.054233973
0.055696324
0.056960552
0.058067661
0.059048781
0.059927187
0.060720247
0.061441533
0.062102213
0.062712075
0.063280356
0.0638163
0.064329619
0.064830858
0.065331648
0.065845102
0.066386182
0.066971864
0.067621435
0.068357285
0.069205674
0.070197464
0.071369347
0.072765094
0.07443695
0.076447833
0.078876477
0.081828569
0.085435927
0.089621702
0.093821281
0.098120164
0.10280104
0.10808507
0.11377201
0.11959981
0.12545398
0.13101931
0.13621932
0.14106397
0.14522019
0.14881776
0.15261219
0.15696751
0.16221798
0.16755821
0.17192102
0.17517196
0.17866996
0.18309107
0.18742298
0.19095997
0.1942336
0.19819779
0.20179344
0.20498907
0.20822976
0.2118051
0.21658765
0.22184816
0.22852943
0.23439138
0.2374425
0.24315214
0.24711174
0.2508204
0.2544449
0.25728558
0.26013086
0.26264439
0.2646676
0.26673966
0.2685899
0.27013124
0.27162696
0.27290637
0.27391624
0.27523631
0.2767398
0.2778671
0.27917295
0.28053088
0.28184367
0.2831827
0.28449214
0.2856542
0.28687313
0.28818579
0.28961471
0.29107846
0.2925413
0.29388219
0.29513908
0.29623158
0.29720425
0.29817138
0.2990582
0.29987818
0.30062343
0.30125889
0.30177897
0.30212474
0.30230742
0.3023994
0.3024559
0.30242972
0.30226767
0.30209267
0.30189927
0.30177241
0.30157768
0.30134566
0.30106418
0.30062404
0.30045618
0.3005257
0.30030827
0.00082154802
0.0025687298
0.0045087143
0.0066636593
0.0090504879
0.011681843
0.014557195
0.017654295
0.020922438
0.02428138
0.027637214
0.030902514
0.034009526
0.036911958
0.039574895
0.041969509
0.044079761
0.045911281
0.047491284
0.048859798
0.050058728
0.051124491
0.052086207
0.05296654
0.053782863
0.054548967
0.055276254
0.05597455
0.056652864
0.057319759
0.057983672
0.058653273
0.059337669
0.060046775
0.060791704
0.061585076
0.062441612
0.063379033
0.064419048
0.065588502
0.06692125
0.068460475
0.070261927
0.07239932
0.074974876
0.078131204
0.082032508
0.086509248
0.090904118
0.095512492
0.10046923
0.10577645
0.11150354
0.11729337
0.12284651
0.12814088
0.13322165
0.13782719
0.14165038
0.14519315
0.14934126
0.15408569
0.15951331
0.1644845
0.16825736
0.17170665
0.1760749
0.18110062
0.18547801
0.18962155
0.19427529
0.19911972
0.20317886
0.20676048
0.21052885
0.21448989
0.21893977
0.22406124
0.23092714
0.23742884
0.24016722
0.24567584
0.24973028
0.25289562
0.25641052
0.25899621
0.26158893
0.26389177
0.26568965
0.26759495
0.2692779
0.27069478
0.27209377
0.27334307
0.2743015
0.27554327
0.2769843
0.27809489
0.27940269
0.28076006
0.282087
0.28342784
0.28472066
0.28586698
0.28711298
0.28844096
0.28986088
0.29132001
0.29277795
0.29408513
0.29531083
0.29640414
0.29737541
0.29833204
0.29921402
0.30003253
0.30076284
0.30138727
0.30189029
0.30222575
0.30239698
0.30248831
0.30255063
0.30250846
0.3023366
0.30215208
0.30195181
0.30181952
0.30161771
0.30137821
0.30109657
0.30065231
0.30047438
0.3005516
0.30032429
0.00070899621
0.0022312267
0.00393837
0.0058529294
0.0079917822
0.010366696
0.012976017
0.01579586
0.018772472
0.021821139
0.024844675
0.027757459
0.030500774
0.03304344
0.03536928
0.037466404
0.039327416
0.040955435
0.042366807
0.043588674
0.044652484
0.045587847
0.046420225
0.047170658
0.047856061
0.048490423
0.049085631
0.049652298
0.050200418
0.050739795
0.051280374
0.051832551
0.052407357
0.053016717
0.053673789
0.054393139
0.055191321
0.056087943
0.05710675
0.058277335
0.059637889
0.06123907
0.06314973
0.065466878
0.068329107
0.071928887
0.076455726
0.081534806
0.086112391
0.090690153
0.095744005
0.10128108
0.10716433
0.11302882
0.11876464
0.12416274
0.12910785
0.133277
0.13691873
0.14087698
0.14540945
0.15063711
0.15592046
0.16029724
0.16403
0.16822725
0.1736054
0.1792313
0.18391954
0.18878794
0.19450926
0.199665
0.20409008
0.20893607
0.21384508
0.21843839
0.22336025
0.22890565
0.23598303
0.24293317
0.24547619
0.25006008
0.25397462
0.25666496
0.25958318
0.26174497
0.26389381
0.26572752
0.26718023
0.26877117
0.27016916
0.27131904
0.27254751
0.27372156
0.27461482
0.27578012
0.27719805
0.27835285
0.27966863
0.28099066
0.28228719
0.28358271
0.28483692
0.28598497
0.28723161
0.28856024
0.28999842
0.29147387
0.29294579
0.29425116
0.29545847
0.29653134
0.29748808
0.29844925
0.299342
0.30017287
0.30090453
0.30151626
0.30200535
0.30233431
0.30250958
0.30259529
0.3026411
0.30259514
0.30241107
0.30222174
0.30201457
0.30187369
0.30166689
0.30142428
0.30112694
0.30068968
0.30051083
0.30056582
0.00056570523
0.0017990457
0.0032008723
0.0047912619
0.0065854724
0.0085944121
0.01081748
0.01323429
0.015795879
0.018422161
0.021020016
0.02351017
0.025843834
0.028001881
0.029981069
0.031782539
0.033408597
0.034864181
0.036159801
0.037312682
0.038344081
0.03927541
0.040126349
0.040914192
0.041653523
0.042356704
0.043034293
0.043695484
0.044348537
0.045001096
0.045660484
0.04633401
0.047029288
0.047754725
0.048520156
0.0493371
0.050219768
0.051186586
0.052261582
0.053476759
0.054875471
0.056517001
0.05848268
0.06088641
0.063878112
0.067636681
0.072277243
0.077275045
0.081770289
0.086713781
0.092145632
0.097786416
0.10361702
0.10940559
0.11506163
0.12003682
0.12420103
0.12779551
0.1315448
0.1359359
0.14093756
0.14619744
0.15105271
0.15522771
0.15968195
0.1652432
0.17158869
0.17741405
0.18251542
0.18821224
0.1945111
0.19997033
0.20596424
0.21264147
0.21819384
0.22251299
0.22695285
0.23278888
0.23954032
0.24644285
0.24943376
0.25334783
0.25691362
0.25936419
0.2619818
0.26376008
0.26557327
0.26711708
0.2683011
0.2696619
0.27084318
0.27186856
0.27304308
0.27418422
0.27502882
0.27611036
0.27743966
0.27859782
0.2799508
0.28127057
0.28256424
0.28384312
0.2850594
0.28621274
0.28749259
0.2888215
0.29025128
0.29172797
0.29319258
0.29446647
0.29564225
0.29671751
0.29766813
0.29861433
0.29949643
0.30032548
0.30105004
0.30165492
0.30212585
0.30244067
0.30260283
0.30269082
0.30273902
0.30267545
0.30248172
0.30228286
0.30206789
0.30192244
0.30170833
0.30145796
0.30116064
0.30071736
0.30052891
0.30059229
0.00042057344
0.001358679
0.0024444516
0.0036948827
0.0051240979
0.0067436595
0.008556733
0.010550475
0.012686429
0.014894032
0.017084297
0.019178361
0.021129147
0.022922159
0.02456031
0.026051131
0.0274027
0.028624117
0.029725621
0.030718918
0.031617302
0.032434344
0.03318312
0.033875841
0.034523568
0.0351364
0.035723713
0.036294291
0.03685667
0.037419286
0.037990761
0.038580146
0.039197179
0.039852663
0.040559209
0.041331482
0.042187388
0.043149797
0.044247867
0.045519577
0.047015046
0.048800437
0.050961788
0.053613282
0.056891734
0.060940722
0.065835387
0.071041906
0.075773111
0.080878514
0.086448444
0.092404327
0.098458688
0.10417987
0.10924386
0.11367518
0.11763561
0.12137603
0.12561576
0.13030644
0.13541896
0.14056414
0.14531045
0.15015606
0.15568644
0.16227013
0.16904541
0.17489561
0.18070218
0.18750517
0.1943272
0.20123864
0.20921714
0.21723803
0.22298852
0.22814448
0.23413335
0.24022521
0.24614939
0.25270272
0.25608083
0.25900504
0.26192495
0.26372761
0.26561777
0.26681307
0.26798429
0.2690528
0.26980968
0.27082084
0.27168103
0.27244146
0.27346651
0.2745535
0.27539506
0.27644829
0.27771713
0.27887066
0.28021532
0.28149401
0.28275986
0.28399989
0.28517554
0.28632817
0.28762054
0.28895349
0.29039499
0.29189011
0.29337408
0.29465539
0.2957978
0.29684871
0.29778619
0.29873869
0.2996259
0.30046378
0.30119046
0.30178629
0.30224524
0.30255706
0.30272188
0.30279805
0.30283072
0.30276516
0.30255826
0.30235251
0.30213242
0.3019772
0.30175837
0.30150407
0.3011913
0.30075649
0.30056684
0.30060702
0.00023871976
0.00080803002
0.0015012914
0.0023325387
0.0033149927
0.0044611258
0.0057782802
0.0072624767
0.0088896654
0.010606027
0.01233347
0.01399443
0.015539157
0.016952277
0.018239525
0.019413641
0.020487429
0.021472036
0.022377556
0.023214248
0.023992023
0.024719484
0.025404208
0.026053523
0.026674383
0.027273654
0.027858145
0.028434733
0.029010513
0.029592906
0.030189766
0.030809602
0.031461801
0.032157057
0.032908103
0.033730031
0.03464149
0.035666463
0.036835676
0.038189113
0.03977913
0.041673845
0.043959784
0.046748875
0.050174109
0.054372114
0.059425046
0.064869184
0.069918377
0.075255906
0.08091556
0.086565129
0.09209142
0.097306543
0.10197842
0.10610976
0.10985502
0.113935
0.11831273
0.12309737
0.12825675
0.1335513
0.13878633
0.14451294
0.15101797
0.15816968
0.16510815
0.1715786
0.17886413
0.18682207
0.19479877
0.20360868
0.2132745
0.22211219
0.22903601
0.23538861
0.24126025
0.24693988
0.25168658
0.25717694
0.2612453
0.26351059
0.26552689
0.26721707
0.26834516
0.26909135
0.2698185
0.27051859
0.27100923
0.27173116
0.27237033
0.27302441
0.27396321
0.27498252
0.27578995
0.27681733
0.27801821
0.27919658
0.28055042
0.28179404
0.28306136
0.28427311
0.28540723
0.2865773
0.28789663
0.28922717
0.29066077
0.29215116
0.29362449
0.29488225
0.29600024
0.29704618
0.29797429
0.298908
0.29978168
0.30061581
0.30133566
0.30192783
0.30237057
0.30266602
0.30281593
0.30290076
0.30293163
0.30284423
0.30263014
0.30241552
0.30218674
0.30202671
0.30180013
0.30153934
0.30122597
0.30078372
0.30058651
9.6739321e-06
6.9888223e-05
0.00025494067
0.00055739967
0.00098912051
0.0015625242
0.0022880671
0.0031699999
0.0041995293
0.0053452682
0.006549814
0.0077429708
0.008868782
0.0099026723
0.010845057
0.011707177
0.01250226
0.013242039
0.013936097
0.014592302
0.015217609
0.015818044
0.016399059
0.01696557
0.017521966
0.018072441
0.018621241
0.019172827
0.019732176
0.020304873
0.020897268
0.02151669
0.022171743
0.022872849
0.023632596
0.024466384
0.025393705
0.026439184
0.027634116
0.029018596
0.030644094
0.032576343
0.034898066
0.037711422
0.041141587
0.045320368
0.050334026
0.055878435
0.061248609
0.06679327
0.072617941
0.07843656
0.083889663
0.088617635
0.092761007
0.096725847
0.10072591
0.1050247
0.10967753
0.11494397
0.12052374
0.12599856
0.13158835
0.13769764
0.14487433
0.15253955
0.16018737
0.16836548
0.17734492
0.18632892
0.19572573
0.20651178
0.21733933
0.22778183
0.23746978
0.2451303
0.25212917
0.25780532
0.26137937
0.2648998
0.26918006
0.27072717
0.27125988
0.2721648
0.27234604
0.27224009
0.27225185
0.27247073
0.2724505
0.27280483
0.27316215
0.27359853
0.27442563
0.27536662
0.27617219
0.27719141
0.27831276
0.27947309
0.28082537
0.28201598
0.28324477
0.28441555
0.28551741
0.28669395
0.28802639
0.28936515
0.29081345
0.29232364
0.29382004
0.29508825
0.29616929
0.29718327
0.29810149
0.29903813
0.2999148
0.30075034
0.30147071
0.30205793
0.30249209
0.30278791
0.30294159
0.30300772
0.30302704
0.30293808
0.30270836
0.30248665
0.30225277
0.30208306
0.30185113
0.30158543
0.30125727
0.30082398
0.30062398
0.00036649561
0.0009793719
0.0014929013
0.0018972129
0.0021809756
0.0023314018
0.0023353274
0.0021808242
0.0018632905
0.0013935747
0.00080849922
0.00023991345
0.00061322715
0.0012553986
0.0018712378
0.0024491955
0.0029934147
0.0035108547
0.0040080082
0.0044905094
0.0049631899
0.0054300918
0.00589466
0.0063602242
0.006830001
0.0073074589
0.0077963864
0.0083010704
0.008826492
0.0093784903
0.009963829
0.010590452
0.01126774
0.012006895
0.012821543
0.013728506
0.014748821
0.015909063
0.017242867
0.01879293
0.020613337
0.022771616
0.025349498
0.028439427
0.032144044
0.036544738
0.041642069
0.047148836
0.052572737
0.058229659
0.063896034
0.069285646
0.074166557
0.078527801
0.082431543
0.086083417
0.090014454
0.094604254
0.099861229
0.10551317
0.11115203
0.11670561
0.12268054
0.12963371
0.13762215
0.14610472
0.15500615
0.16489805
0.17488638
0.18504027
0.1967237
0.20945027
0.22248102
0.23567837
0.24781106
0.25633342
0.26313294
0.26883617
0.27122361
0.27233891
0.27541898
0.27643873
0.27551548
0.27577711
0.27515571
0.27464911
0.27413021
0.27392894
0.27362386
0.27370499
0.2738575
0.27419352
0.27491755
0.27576052
0.27654566
0.27759413
0.27867207
0.27984132
0.28118733
0.28233697
0.28355922
0.28469848
0.2857699
0.28696951
0.28831674
0.28964527
0.29108509
0.29259082
0.29406863
0.29532716
0.29639559
0.29739122
0.29829585
0.29921085
0.30007613
0.30090499
0.30161423
0.30219685
0.30261836
0.30289689
0.3030374
0.30311652
0.30312722
0.30301642
0.30278117
0.30255091
0.30230747
0.30213305
0.30189347
0.30162173
0.30129233
0.30085098
0.30064624
0.00083835378