/*--------------------------------*- C++ -*----------------------------------*\
| =========                 |                                                 |
| \\      /  F ield         | OpenFOAM: The Open Source CFD Toolbox           |
|  \\    /   O peration     | Version:  2506                                  |
|   \\  /    A nd           | Website:  www.openfoam.com                      |
|    \\/     M anipulation  |                                                 |
\*---------------------------------------------------------------------------*/
FoamFile
{
    version     2.0;
    format      ascii;
    arch        "LSB;label=32;scalar=64";
    class       volVectorField;
    location    "0.0005";
    object      wallShearStress;
}
// * * * * * * * * * * * * * * * * * * * * * * * * * * * * * * * * * * * * * //

dimensions      [1 -1 -2 0 0 0 0];

internalField   uniform (0 0 0);

boundaryField
{
    Side
    {
        type            empty;
    }
    Inlet
    {
        type            calculated;
        value           uniform (0 0 0);
    }
    Airfoil
    {
        type            calculated;
        value           nonuniform List<vector> 
109
(
(-15.412951 -0.34109496 -2.0482872e-17)
(-15.44633 -0.3629243 -3.1412564e-22)
(-15.480087 -0.38510219 -2.0703716e-17)
(-15.514349 -0.40763647 -2.0815704e-17)
(-15.54932 -0.43055807 -3.1946697e-22)
(-15.585155 -0.45388332 3.2104537e-22)
(-15.621342 -0.4776063 -2.1164122e-17)
(-15.655549 -0.50140541 4.7019774e-38)
(-15.689198 -0.52465155 -3.2673254e-22)
(-15.724539 -0.54815208 3.2841802e-22)
(-15.760904 -0.5719651 2.1656173e-17)
(-15.798159 -0.59610114 2.1533089e-25)
(-15.836444 -0.62057089 2.1975811e-25)
(-15.875777 -0.6453916 -3.3627609e-22)
(-15.916281 -0.67058101 4.4359426e-17)
(-15.957768 -0.69615122 -4.4631943e-17)
(-16.000188 -0.7221193 3.4638181e-22)
(-16.043253 -0.74848812 -3.4465141e-22)
(-16.086984 -0.77527887 -9.4039548e-38)
(-16.131453 -0.8024978 -4.5766554e-17)
(-16.176939 -0.8301729 0)
(-16.222278 -0.85822348 -4.6362194e-17)
(-16.267646 -0.88617223 -8.8162076e-39)
(-16.314453 -0.91432886 -4.6978529e-17)
(-16.362851 -0.94285922 -3.6096347e-22)
(-16.412099 -0.97175495 4.761576e-17)
(-16.461839 -1.0009986 -3.6591014e-22)
(-16.511428 -1.0305614 4.8274122e-17)
(-16.560856 -1.0604483 9.722429e-17)
(-16.610227 -1.0906747 0)
(-16.660195 -1.1212861 4.9303859e-17)
(-16.711374 -1.1523416 3.7901254e-22)
(-16.764521 -1.1839095 -3.8146526e-22)
(-16.819749 -1.2160191 -7.5231638e-37)
(-16.877003 -1.2486724 5.0759871e-17)
(-16.935593 -1.2818439 1.0228055e-16)
(-16.994973 -1.3154904 5.1527234e-17)
(-17.054818 -1.3494236 5.1922046e-17)
(-17.116249 -1.3837867 -4.3842769e-24)
(-17.179923 -1.4186797 -2.9846536e-40)
(-17.246561 -1.4542343 -2.374074e-33)
(-17.31635 -1.4904803 4.0887347e-22)
(-17.389338 -1.5274498 -8.2393978e-22)
(-17.465017 -1.5651141 -5.4435131e-17)
(-17.543262 -1.6034747 0)
(-17.623387 -1.6424639 5.8680678e-34)
(-17.705393 -1.6821107 -1.1160308e-16)
(-17.789021 -1.7224025 -5.6274888e-17)
(-17.874193 -1.7633623 4.3278056e-22)
(-17.960985 -1.8049984 5.7248195e-17)
(-18.049934 -1.8473964 -4.4033486e-22)
(-18.141833 -1.890654 4.4474442e-22)
(-18.237548 -1.9350005 5.4012836e-25)
(-18.33594 -1.9803727 5.9309017e-17)
(-18.436196 -2.0264261 -4.5690781e-22)
(-18.537886 -2.073125 9.2164392e-22)
(-18.640425 -2.1204234 6.0961304e-17)
(-18.742959 -2.1682387 6.1534011e-17)
(-18.84487 -2.216516 -4.7360549e-22)
(-18.945426 -2.2651666 6.2709266e-17)
(-19.043736 -2.3140982 -4.8334026e-22)
(-19.138963 -2.363167 -6.3927937e-17)
(-19.229861 -2.4122869 4.9220852e-22)
(-19.315909 -2.4613053 4.9763511e-22)
(-19.395544 -2.5100357 -6.5836884e-17)
(-19.469503 -2.5585616 -6.6494402e-17)
(-19.536374 -2.6066283 3.4162357e-24)
(-19.597977 -2.6544787 -6.7840069e-17)
(-19.655015 -2.7021833 6.8529872e-17)
(-19.709636 -2.7506158 -6.9231727e-17)
(-19.757657 -2.7986878 -6.9943531e-17)
(-19.801806 -2.8466148 5.393265e-22)
(-19.841378 -2.8942055 -5.4462109e-22)
(-19.878522 -2.9417127 0)
(-19.911867 -2.9889216 -7.2920736e-17)
(-19.943131 -3.0360199 0)
(-19.970413 -3.0827533 5.6843951e-22)
(-19.994864 -3.1292725 -5.7437087e-22)
(-20.01452 -3.1752888 5.8084075e-22)
(-20.030513 -3.2209001 1.7670144e-25)
(-20.041985 -3.2660264 -5.9355588e-22)
(-20.049655 -3.3106644 7.8676854e-17)
(-20.053636 -3.3549209 6.0703837e-22)
(-20.055133 -3.3988737 -8.0460276e-17)
(-20.054308 -3.4426398 1.2416733e-21)
(-20.052062 -3.4862811 -1.2559261e-21)
(-20.051556 -3.5304793 8.3262167e-17)
(-20.052991 -3.576091 -8.4232032e-17)
(-20.051116 -3.621707 1.7044497e-16)
(-20.046158 -3.666773 -6.5790022e-22)
(-20.038742 -3.7114485 1.7453196e-16)
(-20.029554 -3.7557851 8.8319362e-17)
(-20.018731 -3.7998474 0)
(-20.007049 -3.8437303 9.0492868e-17)
(-19.994424 -3.887451 -9.1612214e-17)
(-19.982045 -3.9312066 9.2756864e-17)
(-19.969439 -3.9749304 0)
(-19.957396 -4.0187762 -3.0092655e-36)
(-19.945379 -4.0626618 -9.6328738e-17)
(-19.93393 -4.10669 -9.7567249e-17)
(-19.922561 -4.1507804 -7.5409013e-22)
(-19.911614 -4.1950002 -2.2958874e-41)
(-19.900298 -4.2391912 0)
(-19.887823 -4.2831599 2.0199034e-34)
(-19.872962 -4.3266282 -7.945381e-22)
(-19.851469 -4.3686235 2.6523482e-25)
(-19.882051 -4.422388 8.1647325e-22)
(-20.063941 -4.526007 8.2743292e-22)
(-20.248694 -4.6601023 5.4978172e-17)
)
;
    }
    Outlet
    {
        type            calculated;
        value           nonuniform List<vector> 0();
    }
    procBoundary9to2
    {
        type            processor;
        value           uniform (0 0 0);
    }
    procBoundary9to8
    {
        type            processor;
        value           uniform (0 0 0);
    }
    procBoundary9to10
    {
        type            processor;
        value           uniform (0 0 0);
    }
}


// ************************************************************************* //
