/*--------------------------------*- C++ -*----------------------------------*\
| =========                 |                                                 |
| \\      /  F ield         | OpenFOAM: The Open Source CFD Toolbox           |
|  \\    /   O peration     | Version:  2506                                  |
|   \\  /    A nd           | Website:  www.openfoam.com                      |
|    \\/     M anipulation  |                                                 |
\*---------------------------------------------------------------------------*/
FoamFile
{
    version     2.0;
    format      ascii;
    arch        "LSB;label=32;scalar=64";
    class       volScalarField;
    location    "0.0315";
    object      Co;
}
// * * * * * * * * * * * * * * * * * * * * * * * * * * * * * * * * * * * * * //

dimensions      [0 0 0 0 0 0 0];

internalField   nonuniform List<scalar> 
13761
(
0.0013695237
0.0013940039
0.0014169186
0.0014383203
0.0014582045
0.0014766965
0.0014936519
0.0015090119
0.0015228688
0.0015350875
0.0015456571
0.0015544539
0.0015613535
0.0015660697
0.0015683567
0.0015677053
0.0015633766
0.0015542703
0.001538199
0.001511361
0.0014676508
0.0014023445
0.0013196074
0.0012259819
1.8958741e-05
5.8940706e-05
0.00010378032
0.00015358828
0.00020841739
0.0002683163
0.00033327067
0.00040292927
0.00047650465
0.0005524689
0.0006285201
0.00070242403
0.00077249764
0.00083779567
0.00089818226
0.00095390961
0.0010053639
0.0010530472
0.0010975286
0.0011389408
0.0011774566
0.0012135703
0.0012473502
0.0012789214
0.0013086026
0.0013363311
0.0013623599
0.0013867128
0.0014094591
0.0014306857
0.0014504638
0.0014688174
0.001485879
0.0015015379
0.0015157583
0.0015286409
0.0015400773
0.0015500692
0.001558515
0.001565308
0.0015701865
0.001572915
0.0015729865
0.0015696182
0.0015615386
0.001546116
0.0015185455
0.0014714914
0.0014011559
0.0013150326
2.0111872e-05
6.2460647e-05
0.00010980079
0.00016225056
0.00021986156
0.00028268838
0.00035071619
0.00042356611
0.00050038429
0.00057948152
0.00065827283
0.00073416748
0.00080528418
0.0008707626
0.00093071553
0.00098564428
0.0010361391
0.0010828044
0.0011262609
0.0011666941
0.0012043015
0.0012395531
0.0012725301
0.0013033473
0.0013323024
0.0013593408
0.0013846969
0.0014083957
0.0014305057
0.0014511192
0.0014703137
0.0014881249
0.0015046932
0.00151993
0.0015338161
0.0015464626
0.0015577848
0.001567796
0.0015764166
0.0015835541
0.0015889593
0.0015923925
0.0015933157
0.0015908482
0.0015834613
0.0015679349
0.0015383971
0.0014869013
2.1279062e-05
6.6072407e-05
0.00011609098
0.00017145806
0.000232232
0.0002984681
0.00037014038
0.00044683332
0.00052757125
0.00061041967
0.00069243138
0.00077063545
0.00084296209
0.00090863986
0.00096806038
0.0010220168
0.0010713264
0.0011167435
0.0011589676
0.0011982349
0.0012347796
0.001269067
0.0013011885
0.0013312692
0.0013595873
0.0013860893
0.0014109998
0.0014343362
0.0014561669
0.0014765715
0.0014956254
0.0015133614
0.0015299125
0.0015451958
0.0015591998
0.0015720327
0.0015836205
0.0015939779
0.0016030277
0.0016106821
0.0016166903
0.0016207932
0.0016224083
0.0016205426
0.0016134044
0.0015972197
2.2550822e-05
6.9904752e-05
0.00012256869
0.0001806776
0.00024429696
0.00031349855
0.00038825381
0.00046812139
0.00055207164
0.00063804194
0.00072287804
0.00080337848
0.00087733825
0.00094400763
0.0010038996
0.0010579612
0.0011071403
0.0011522835
0.0011941493
0.0012330286
0.0012691849
0.001303101
0.0013348788
0.0013646494
0.0013927002
0.0014189848
0.001443724
0.0014669401
0.0014887014
0.0015090866
0.0015281705
0.0015459814
0.0015626506
0.0015781012
0.0015923157
0.001605401
0.0016172822
0.0016279772
0.0016374051
0.0016454703
0.0016519158
0.001656458
0.0016584636
2.3614728e-05
7.3153999e-05
0.00012812923
0.00018867903
0.00025486653
0.00032675636
0.00040431128
0.00048706537
0.00057393585
0.00066277367
0.00075028893
0.00083314876
0.00090908179
0.00097738204
0.001038634
0.0010938545
0.0011440429
0.0011900881
0.0012327617
0.0012723696
0.0013091909
0.0013437069
0.0013760316
0.0014063036
0.0014348055
0.0014615028
0.0014866213
0.0015101844
0.001532266
0.0015529485
0.0015723051
0.0015903769
0.0016072864
0.0016229618
0.0016373907
0.001650675
0.0016627401
0.0016735954
0.0016831567
2.4845625e-05
7.690902e-05
0.00013458562
0.00019801816
0.00026727835
0.00034243567
0.00042344334
0.00050981237
0.00060039426
0.00069292509
0.00078395224
0.00086998869
0.00094868355
0.0010193515
0.0010826645
0.0011397161
0.0011915535
0.0012390959
0.0012831449
0.0013240171
0.0013619942
0.0013975702
0.001430862
0.0014620109
0.0014913054
0.0015187117
0.0015444594
0.0015685835
0.001591158
0.0016122742
0.0016320046
0.0016503852
0.0016675494
0.0016834172
0.0016979748
2.5989038e-05
8.0485132e-05
0.00014089883
0.00020738211
0.00028000233
0.00035882691
0.0004437991
0.00053439026
0.00062936997
0.00072632922
0.00082163505
0.00091162372
0.00099384814
0.0010676245
0.0011336701
0.0011931628
0.0012472
0.0012967504
0.0013426452
0.0013852107
0.001424743
0.0014617465
0.0014963419
0.0015286773
0.0015590516
0.001587431
3.6679454e-05
0.0001132688
0.00019667418
0.00028739388
0.00038565066
0.00049099276
0.00060121356
0.00071185794
0.00081762308
0.00091470146
0.0010018031
0.0010794081
0.0011486867
0.0012109327
0.0012673448
0.0013189349
0.0013665349
0.0014108244
0.0014523534
0.0014915385
0.0015287377
0.0015642703
0.0015983637
0.0016312165
0.0016630105
0.0016938661
0.0017239171
0.0017532557
0.0017819711
0.0018101451
0.0018378505
0.0018651517
0.0018921215
0.0019188084
0.0019452748
0.0019716021
0.00199786
0.0020241462
0.0020505727
0.0020772892
0.0021044888
0.0021324645
0.0021616396
0.0021926946
0.0022268047
0.0022661392
0.0023152523
0.0023851003
0.0025030734
3.6465625e-05
0.00011261062
0.00019553633
0.0002857388
0.00038344372
0.00048821287
0.00059787375
0.00070801958
0.0008133731
0.00091011645
0.00099693332
0.0010742825
0.0011433228
0.0012053405
0.0012615301
0.0013129035
0.001360292
0.0014043758
0.0014457067
0.0014847001
0.0015217149
0.0015570709
0.0015909952
0.001623686
0.0016553254
0.0016860341
0.0017159442
0.0017451492
0.0017737379
0.0018017905
0.0018293799
0.0018565699
0.001883433
0.0019100173
0.0019363839
0.001962614
0.0019887768
0.0020149693
0.0020413028
0.0020679267
0.0020950338
0.0021229163
0.0021519972
0.0021829567
0.0022169698
0.0022562062
0.002305222
0.0023749844
0.0024929007
0.0026962397
0.0029488029
0.0031866603
0.0033639411
0.0034691638
0.0035172124
0.0035314104
0.0035303965
0.0035243302
0.0035172297
0.0035102631
0.0035036648
0.0034974377
0.0034915483
0.0034859603
0.0034806355
0.0034755415
0.0034706401
0.0034659062
0.0034613065
0.0034568188
0.0034524078
0.0034480549
0.0034459681
0.0034457776
0.0034452556
0.0034444022
0.0034432154
0.0034416918
0.0034398261
0.0034376112
0.0034350384
0.0034320969
0.0034287745
0.0034250574
0.0034209296
0.0034163736
0.0034113701
0.0034058985
0.0033999362
0.0033934591
3.6255126e-05
0.0001119586
0.00019439993
0.00028407357
0.00038120711
0.00048537617
0.00059444431
0.00070405289
0.00080895437
0.00090532657
0.00099182957
0.0010689018
0.0011376878
0.0011994652
0.0012554274
0.0013065843
0.0013537661
0.0013976516
0.0014387911
0.0014776009
0.001514439
0.0015496254
0.001583387
0.0016159217
0.0016474114
0.0016779761
0.0017077492
0.0017368227
0.0017652848
0.0017932161
0.0018206891
0.001847768
0.0018745243
0.0019010052
0.0019272722
0.0019534056
0.001979474
0.0020055743
0.002031817
0.0020583508
0.0020853678
0.00211316
0.0021421498
0.0021730171
0.0022069366
0.0022460777
0.002294998
0.0023646729
0.00248252
0.0026857861
0.002938719
0.0031780646
0.0033578386
0.0034656939
0.0035157184
0.0035310155
0.0035304598
0.0035245332
0.0035174586
0.0035104886
0.0035038823
0.0034976479
0.0034917528
0.0034861609
0.0034808336
0.0034757385
0.0034708375
0.0034661051
0.0034615081
0.0034570243
0.0034526184
0.0034482684
0.0034458918
0.0034454425
0.0034449359
0.0034440982
0.0034429275
0.0034414204
0.0034395716
0.0034373745
0.0034348202
0.0034318979
0.0034285957
0.0034248998
0.0034207943
0.0034162617
0.003411283
0.0034058373
0.0033999024
0.003393454
0.0033864669
0.0033789148
0.0033707703
0.0033620054
0.0033525919
0.0033425017
0.0033317077
0.0033201841
0.0033079071
3.6046502e-05
0.00011131283
0.00019327561
0.00028242731
0.0003789972
0.00048257413
0.00059105628
0.00070013226
0.00080458501
0.00090058525
0.00098677085
0.001063559
0.0011320814
0.0011936119
0.0012493379
0.0013002677
0.0013472311
0.0013909069
0.0014318446
0.0014704608
0.0015071141
0.0015421224
0.0015757126
0.0016080835
0.0016394159
0.0016698299
0.0016994578
0.0017283924
0.0017567214
0.0017845253
0.0018118764
0.0018388378
0.0018654811
0.0018918539
0.0019180167
0.0019440494
0.0019700203
0.0019960253
0.0020221747
0.0020486168
0.0020755429
0.0021032446
0.0021321436
0.0021629192
0.0021967457
0.0022357929
0.0022846193
0.0023542059
0.0024719762
0.0026751634
0.002928455
0.0031692557
0.0033514916
0.0034619795
0.0035140099
0.0035304447
0.0035303771
0.0035246096
0.003517574
0.0035106109
0.0035040058
0.0034977726
0.00349188
0.0034862916
0.0034809692
0.0034758802
0.0034709864
0.003466262
0.003461674
0.0034572004
0.0034528056
0.0034484679
0.0034459196
0.0034453116
0.0034448141
0.0034439859
0.0034428252
0.0034413287
0.0034394914
0.0034373065
0.0034347653
0.0034318573
0.0034285705
0.0034248912
0.0034208036
0.0034162904
0.0034113323
0.0034059088
0.0033999975
0.0033935744
0.0033866142
0.0033790904
0.0033709757
0.0033622421
0.003352861
0.0033428045
0.003332045
0.0033205566
0.0033083151
0.0032952994
0.0032814919
0.0032668798
0.0032514558
0.0032352187
3.5842853e-05
0.00011068185
0.0001921749
0.0002808127
0.00037682666
0.00047981854
0.00058771922
0.00069626499
0.00080026679
0.00089589086
0.00098175426
0.0010582531
0.0011265051
0.0011877789
0.0012432605
0.0012939548
0.001340691
0.0013841479
0.0014248751
0.0014632885
0.0014997464
0.0015345674
0.0015679784
0.0016001769
0.0016313434
0.0016615984
0.0016910741
0.0017198622
0.0017480509
0.0017757205
0.0018029425
0.0018297803
0.0018563051
0.0018825638
0.0019086172
0.0019345445
0.0019604132
0.0019863196
0.0020123729
0.0020387207
0.0020655542
0.0020931641
0.0021219718
0.0021526561
0.0021863906
0.0022253456
0.0022740807
0.0023435813
0.0024612734
0.0026643827
0.0029180246
0.0031602458
0.0033449063
0.0034580197
0.0035120806
0.0035296889
0.0035301401
0.0035245527
0.0035175706
0.0035106261
0.0035040325
0.0034978102
0.0034919289
0.0034863525
0.0034810429
0.0034759675
0.003471088
0.0034663785
0.0034618062
0.0034573488
0.0034529713
0.0034486517
0.0034460513
0.0034453884
0.0034448929
0.0034440674
0.0034429103
0.0034414183
0.0034395864
0.003437408
0.0034348746
0.0034319756
0.0034286992
0.0034250318
0.0034209577
0.0034164595
0.0034115182
0.0034061132
0.003400222
0.0033938207
0.003386884
0.0033793855
0.0033712977
0.0033625924
0.0033532412
0.0033432158
0.0033324885
0.0033210329
0.0033088247
0.0032958422
0.0032820676
0.0032674873
0.0032520933
0.0032358837
0.0032188641
0.0032010461
0.0031824507
3.5644337e-05
0.00011006552
0.00019109824
0.00027923068
0.00037469657
0.00047710996
0.00058443418
0.00069245059
0.00079600048
0.00089124718
0.00097678413
0.0010529875
0.001120965
0.0011819772
0.0012372073
0.0012876595
0.0013341624
0.001377394
0.0014179041
0.0014561092
0.0014923659
0.0015269938
0.001560219
0.0015922383
0.0016232332
0.0016533234
0.0016826404
0.0017112764
0.0017393192
0.0017668484
0.0017939358
0.0018206445
0.0018470453
0.0018731852
0.0018991242
0.0019249414
0.0019507042
0.0019765077
0.0020024612
0.0020287118
0.0020554501
0.0020829662
0.0021116807
0.0021422723
0.0021759141
0.0022147763
0.0022634195
0.0023328327
0.0024504432
0.0026534731
0.0029074475
0.0031510415
0.0033380757
0.0034537952
0.0035099037
0.0035287188
0.0035297196
0.0035243352
0.0035174238
0.0035105121
0.0035039429
0.0034977435
0.0034918846
0.0034863306
0.0034810437
0.003475991
0.0034711348
0.0034664486
0.0034618998
0.0034574664
0.0034531133
0.0034488186
0.0034462896
0.0034456784
0.003445177
0.0034443467
0.0034431858
0.0034416913
0.0034398584
0.0034376805
0.0034351491
0.0034322537
0.0034289827
0.0034253225
0.0034212573
0.0034167698
0.0034118412
0.0034064507
0.0034005762
0.0033941934
0.003387277
0.0033798007
0.0033717369
0.0033630572
0.0033537331
0.0033437362
0.0033330386
0.0033216136
0.0033094364
0.0032964851
0.0032827413
0.0032681908
0.0032528252
0.0032366415
0.0032196447
0.0032018453
0.0031832631
0.003163923
0.0031438552
0.0031230987
3.545111e-05
0.00010946292
0.00019003901
0.0002776656
0.00037257817
0.00047440429
0.00058113801
0.0006886074
0.00079168391
0.00088652717
0.00097171004
0.0010475912
0.0011152667
0.0011759907
0.0012309433
0.0012811284
0.001327374
0.0013703577
0.0014106286
0.0014486039
0.0014846417
0.0015190577
0.0015520794
0.0015839053
0.0016147143
0.0016446262
0.0016737724
0.0017022455
0.0017301321
0.0017575119
0.0017844572
0.00181103
0.0018373007
0.0018633164
0.0018891373
0.0019148415
0.0019404962
0.0019661963
0.0019920504
0.0020182054
0.0020448511
0.0020722773
0.0021009047
0.0021314112
0.0021649703
0.0022037529
0.0022523223
0.0023216729
0.0024392364
0.0026422309
0.0028965568
0.0031415019
0.0033308768
0.0034491959
0.0035073795
0.0035274456
0.0035290382
0.0035238902
0.0035170759
0.0035102191
0.0035036937
0.0034975346
0.0034917144
0.0034861977
0.0034809472
0.0034759303
0.0034711093
0.0034664575
0.0034619429
0.0034575431
0.0034532236
0.0034489624
0.0034466369
0.0034461903
0.0034456734
0.0034448292
0.0034436564
0.0034421519
0.0034403108
0.0034381267
0.0034355911
0.0034326938
0.0034294228
0.0034257646
0.0034217038
0.0034172229
0.0034123029
0.0034069233
0.0034010617
0.0033946939
0.0033877947
0.0033803374
0.0033722946
0.0033636378
0.0033543382
0.0033443673
0.0033336969
0.0033223001
0.0033101518
0.0032972296
0.0032835146
0.0032689921
0.003253653
0.0032374936
0.003220518
0.003202736
0.0031841662
0.0031648321
0.003144763
0.0031239961
0.0031025555
0.0030805087
0.0030578904
3.5266395e-05
0.00010888727
0.00018902967
0.00027617792
0.00037056945
0.00047184179
0.0005780213
0.00068497898
0.00078761371
0.00088208239
0.00096693836
0.0010425201
0.0011099123
0.0011703644
0.0012250532
0.0012749812
0.0013209766
0.0013637175
0.001403752
0.0014414969
0.0014773113
0.001511512
0.001544326
0.0015759502
0.0016065635
0.0016362876
0.0016652524
0.00169355
0.001721268
0.0017484855
0.0017752736
0.0018016957
0.0018278214
0.0018536978
0.0018793846
0.0019049598
0.0019304904
0.0019560706
0.0019818085
0.0020078504
0.0020343862
0.0020617046
0.0020902256
0.0021206265
0.0021540796
0.002192756
0.0022412193
0.0023104687
0.0024279481
0.0026308939
0.002885572
0.003131854
0.0033235447
0.0034444492
0.0035047089
0.0035260314
0.0035282171
0.0035233032
0.0035165836
0.0035097825
0.0035033058
0.0034971953
0.0034914243
0.0034859571
0.0034807562
0.0034757885
0.0034710159
0.0034664115
0.0034619434
0.0034575889
0.0034533135
0.0034491353
0.00344713
0.0034469123
0.0034463701
0.0034455033
0.0034443105
0.0034427886
0.0034409327
0.0034387364
0.0034361912
0.0034332867
0.0034300112
0.003426351
0.0034222905
0.0034178123
0.0034128975
0.0034075254
0.0034016736
0.0033953179
0.003388433
0.0033809922
0.0033729678
0.0033643314
0.003355054
0.0033451068
0.0033344614
0.0033230907
0.0033109693
0.0032980743
0.0032843863
0.00326989
0.0032545758
0.0032384392
0.0032214836
0.0032037177
0.0031851592
0.0031658304
0.0031457595
0.0031249821
0.0031035203
0.003081438
0.0030587739
0.0030354976
0.003011606
3.5088948e-05
0.00010834606
0.00018810466
0.00027484614
0.0003688071
0.0004696346
0.00057538089
0.00068195637
0.00078428493
0.00087851487
0.0009631767
0.0010385888
0.0011058216
0.0011661182
0.0012206528
0.0012704264
0.001316266
0.0013588494
0.0013987256
0.0014363128
0.0014719686
0.0015060103
0.0015386647
0.0015701294
0.0016005849
0.0016301506
0.0016589581
0.0016870998
0.0017146627
0.001741727
0.0017683641
0.0017946366
0.0018206154
0.0018463474
0.0018718923
0.0018973282
0.0019227223
0.0019481687
0.001973776
0.00199969
0.0020261006
0.0020532969
0.002081699
0.0021119853
0.0021453297
0.0021839065
0.0022322865
0.0023014828
0.0024189564
0.002621959
0.0028771088
0.0031248132
0.0033188603
0.0034423592
0.0035046777
0.0035272073
0.0035299043
0.003525119
0.003518377
0.0035115107
0.0035049618
0.0034987814
0.0034929445
0.0034874158
0.0034821581
0.0034771383
0.0034723185
0.0034676713
0.0034631646
0.0034587756
0.0034544698
0.0034502254
0.0034476985
0.0034470606
0.0034465475
0.0034457086
0.0034445426
0.0034430469
0.0034412165
0.0034390453
0.003436525
0.0034336453
0.0034303944
0.0034267592
0.003422724
0.0034182716
0.003413383
0.0034080376
0.0034022134
0.0033958861
0.0033890303
0.0033816195
0.003373626
0.0033650212
0.0033557762
0.0033458621
0.0033352503
0.0033239134
0.0033118257
0.0032989641
0.0032853087
0.0032708438
0.0032555591
0.0032394495
0.0032225176
0.0032047713
0.0031862274
0.0031669071
0.0031468373
0.0031260524
0.0031045723
0.0030824574
0.0030597492
0.0030364242
0.0030124752
0.0029879205
0.0029623521
3.4904684e-05
0.00010778762
0.00018715764
0.00027349248
0.00036702945
0.00046742485
0.00057275821
0.00067897931
0.00078103549
0.00087506767
0.0009595802
0.0010348697
0.0011019958
0.0011621927
0.001216629
0.0012663053
0.0013120478
0.0013545327
0.0013943103
0.0014317963
0.0014673481
0.0015012845
0.001533832
0.0015651874
0.0015955305
0.0016249816
0.0016536721
0.0016816938
0.0017091347
0.0017360745
0.0017625855
0.0017887309
0.001814581
0.0018401831
0.0018655975
0.0018909028
0.0019161656
0.0019414806
0.0019669564
0.0019927392
0.0020190189
0.0020460846
0.0020743566
0.0021045133
0.0021377298
0.0021761815
0.0022244424
0.0022935353
0.0024109341
0.0026139142
0.0028694871
0.003118579
0.0033149616
0.0034410591
0.0035054591
0.0035292174
0.003532432
0.0035277672
0.0035209867
0.003514036
0.0035073948
0.0035011234
0.0034951984
0.0034895851
0.0034842464
0.0034791493
0.0034742561
0.0034695393
0.0034649672
0.0034605168
0.0034561543
0.0034518577
0.0034484309
0.0034470134
0.003446552
0.0034457625
0.0034446436
0.0034431929
0.0034414058
0.0034392762
0.0034367961
0.0034339554
0.0034307426
0.0034271445
0.0034231456
0.0034187292
0.0034138762
0.0034085665
0.0034027777
0.0033964858
0.0033896657
0.0033822908
0.0033743335
0.0033657652
0.0033565569
0.0033466797
0.0033361048
0.0033248048
0.0033127536
0.0032999278
0.0032863071
0.0032718754
0.0032566219
0.0032405407
0.0032236338
0.0032059084
0.0031873802
0.0031680694
0.003148002
0.0031272109
0.0031057142
0.0030835681
0.0030608165
0.0030374427
0.0030134362
0.0029888236
0.0029631977
0.0029369212
3.4711445e-05
0.00010719529
0.00018613814
0.00027201704
0.00036507091
0.00046496692
0.00056981582
0.00067560836
0.00077731821
0.00087108121
0.00095537875
0.0010304868
0.0010974506
0.0011574984
0.0012117962
0.0012613409
0.0013069566
0.0013493217
0.0013889843
0.0014263599
0.0014618058
0.0014956386
0.0015280845
0.0015593399
0.0015895849
0.0016189379
0.0016475308
0.001675455
0.0017027977
0.0017296388
0.0017560498
0.0017820936
0.001807842
0.0018333413
0.0018586512
0.0018838508
0.0019090069
0.0019342146
0.001959582
0.0019852555
0.0020114248
0.0020383791
0.0020665384
0.0020965809
0.0021296818
0.0021680159
0.002216157
0.002285131
0.0024024127
0.0026052974
0.0028612348
0.0031116733
0.0033103752
0.0034390934
0.0035056284
0.0035306764
0.0035344609
0.0035299568
0.0035231712
0.0035161683
0.0035094675
0.0035031385
0.0034971593
0.0034914949
0.0034861079
0.0034809648
0.003476028
0.0034712693
0.0034666574
0.0034621689
0.0034577702
0.0034534396
0.0034492641
0.003447192
0.0034467707
0.00344602
0.0034449389
0.0034435249
0.0034417736
0.003439679
0.003437233
0.0034344257
0.0034312457
0.00342768
0.0034237134
0.0034193289
0.0034145079
0.00340923
0.0034034734
0.0033972139
0.0033904265
0.0033830847
0.0033751609
0.0033666265
0.0033574525
0.0033476098
0.0033370697
0.0033258043
0.0033137875
0.0033009955
0.0032874077
0.0032730073
0.0032577831
0.0032417288
0.0032248454
0.0032071394
0.0031886256
0.0031693234
0.0031492576
0.0031284599
0.0031069467
0.0030847698
0.0030619743
0.0030385506
0.0030144854
0.0029898134
0.0029641291
0.0029377789
0.0029101476
0.0028820485
3.4517121e-05
0.0001065963
0.00018510073
0.00027050552
0.00036305218
0.00046242003
0.00056674918
0.00067207475
0.00077339763
0.000866848
0.00095088487
0.0010257648
0.001092521
0.001152375
0.00120649
0.0012558619
0.0013013147
0.0013435242
0.00138304
0.001420276
0.0014555888
0.0014892963
0.0015216225
0.0015527635
0.0015828988
0.0016121463
0.001640637
0.0016684619
0.0016957076
0.0017224533
0.0017487708
0.0017747224
0.0018003789
0.0018257865
0.001851005
0.0018761132
0.0019011777
0.001926293
0.0019515674
0.0019771473
0.0020032219
0.0020300805
0.0020581432
0.002088088
0.0021210897
0.0021593234
0.002207363
0.0022762356
0.0023934104
0.0025961915
0.0028524868
0.003104269
0.0033052988
0.0034366737
0.0035054034
0.0035318044
0.0035362079
0.0035318969
0.0035251281
0.0035180894
0.0035113434
0.0035049706
0.0034989511
0.0034932496
0.0034878286
0.0034826543
0.0034776887
0.0034729034
0.0034682665
0.0034637545
0.003459334
0.003454983
0.0034506688
0.0034480219
0.003447197
0.0034464767
0.0034454255
0.003444041
0.0034423187
0.0034402527
0.003437835
0.0034350558
0.0034319039
0.0034283662
0.0034244274
0.003420071
0.0034152781
0.0034100289
0.003404301
0.0033980708
0.0033913132
0.0033840017
0.0033761087
0.0033676057
0.0033584636
0.0033486531
0.0033381454
0.0033269126
0.0033149281
0.0033021679
0.003288611
0.0032742402
0.0032590437
0.0032430144
0.0032261529
0.0032084649
0.0031899644
0.0031706697
0.0031506047
0.0031297999
0.0031082701
0.0030860627
0.0030632229
0.0030397481
0.0030156232
0.0029908904
0.0029651464
0.0029387222
0.0029110076
0.0028828182
0.0028532349
3.4324787e-05
0.00010600288
0.00018407106
0.00026900289
0.00036104145
0.00045987814
0.00056368266
0.00066853232
0.00076945713
0.00086258254
0.00094634581
0.0010209834
0.0010875157
0.0011471581
0.0012010719
0.0012502511
0.0012955191
0.0013375528
0.0013769007
0.0014139776
0.0014491388
0.0014827016
0.0015148908
0.0015459012
0.001575912
0.0016050404
0.0016334173
0.0016611327
0.0016882731
0.0017149171
0.0017411357
0.0017669911
0.0017925537
0.0018178695
0.0018429974
0.001868016
0.0018929916
0.0019180182
0.0019432039
0.0019686945
0.0019946794
0.0020214473
0.0020494179
0.0020792689
0.0021121751
0.0021503111
0.0021982497
0.0022670184
0.0023840778
0.0025867379
0.0028433727
0.0030964813
0.0032998315
0.0034338835
0.0035048562
0.0035326667
0.003537736
0.0035336509
0.0035269211
0.0035198636
0.0035130869
0.0035066835
0.0035006352
0.0034949075
0.0034894628
0.003484267
0.003479282
0.0034744793
0.0034698268
0.0034653003
0.003460867
0.0034565047
0.0034521804
0.0034490647
0.0034478244
0.0034471277
0.0034460999
0.0034447385
0.0034430393
0.0034409965
0.0034386019
0.0034358459
0.0034327173
0.0034292031
0.0034252882
0.0034209559
0.0034161877
0.0034109635
0.0034052613
0.0033990574
0.0033923267
0.0033850427
0.0033771779
0.0033687038
0.0033595911
0.0033498106
0.0033393332
0.0033281307
0.0033161765
0.0033034461
0.0032899182
0.0032755751
0.0032604044
0.0032443986
0.0032275575
0.003209886
0.0031913974
0.0031721092
0.0031520441
0.0031312316
0.003109685
0.0030874473
0.0030645631
0.0030410363
0.0030168503
0.0029920551
0.0029662503
0.0029397517
0.0029119527
0.0028836709
0.0028540139
0.0028228552
3.4134762e-05
0.00010541587
0.00018305158
0.00026751361
0.00035904665
0.00045735308
0.00056063202
0.00066500326
0.00076552575
0.00085832103
0.00094180397
0.0010161909
0.0010824906
0.0011419124
0.0011956146
0.0012445907
0.001289664
0.0013315104
0.0013706789
0.0014075841
0.0014425817
0.0014759884
0.0015080282
0.0015388959
0.0015687706
0.0015977693
0.001626022
0.0016536187
0.0016806447
0.0017071791
0.0017332926
0.0017590462
0.0017845104
0.0018097304
0.0018347653
0.0018596928
0.0018845784
0.0019095165
0.0019346145
0.0019600178
0.0019859147
0.0020125941
0.0020404752
0.0020702352
0.0021030481
0.0021410874
0.0021889245
0.0022575848
0.0023745197
0.0025770469
0.0028340024
0.003088413
0.0032940654
0.0034308016
0.0035040526
0.0035333188
0.0035390934
0.0035352609
0.0035285877
0.0035215248
0.003514729
0.0035083058
0.0035022393
0.003496495
0.0034910357
0.003485827
0.0034808308
0.0034760183
0.0034713576
0.003466824
0.0034623848
0.0034580178
0.0034536903
0.0034502116
0.0034486471
0.0034479683
0.0034469582
0.0034456146
0.0034439333
0.0034419083
0.003439532
0.0034367946
0.0034336849
0.00343019
0.003426295
0.0034219831
0.0034172359
0.0034120335
0.0034063537
0.003400173
0.0033934664
0.0033862073
0.0033783682
0.0033699204
0.0033608347
0.0033510818
0.0033406325
0.0033294582
0.0033175323
0.0033048298
0.0032913289
0.0032770117
0.0032618652
0.0032458812
0.0032290589
0.0032114024
0.0031929244
0.0031736415
0.0031535754
0.0031327546
0.003111191
0.0030889233
0.0030659944
0.0030424146
0.0030181665
0.0029933073
0.0029674406
0.002940867
0.0029129824
0.0028846063
0.0028548744
0.0028236098
0.0027910538
0.0027570021
3.3947548e-05
0.00010483695
0.00018204448
0.00026604042
0.00035707175
0.00045484997
0.00055760401
0.00066149704
0.00076161465
0.00085407557
0.00093727328
0.0010114045
0.0010774662
0.0011366621
0.0011901474
0.0012389142
0.0012837854
0.0013254377
0.0013644192
0.0014011447
0.0014359705
0.0014692124
0.0015010945
0.0015318117
0.0015615422
0.0015904027
0.0016185229
0.0016459923
0.001672897
0.0016993146
0.0017253154
0.0017509611
0.0017763212
0.0018014409
0.0018263783
0.0018512111
0.0018760049
0.0019008528
0.0019258618
0.0019511768
0.0019769861
0.0020035778
0.00203137
0.0020610396
0.0020937597
0.0021317026
0.0021794375
0.0022479866
0.0023647906
0.0025671795
0.0028244412
0.0030801278
0.0032880586
0.0034274785
0.0035030355
0.003533798
0.0035403137
0.0035367579
0.0035301568
0.0035230996
0.0035162942
0.0035098597
0.0035037831
0.0034980302
0.0034925639
0.0034873496
0.0034823492
0.0034775338
0.0034728714
0.0034683369
0.0034638979
0.0034595323
0.0034552071
0.0034514657
0.0034496639
0.0034489975
0.0034479998
0.0034466689
0.0034450004
0.0034429886
0.0034406258
0.0034379025
0.0034348074
0.0034313278
0.0034274487
0.0034231536
0.003418424
0.0034132399
0.0034075795
0.0034014191
0.0033947336
0.0033874966
0.0033796806
0.0033712567
0.0033621958
0.0033524682
0.0033420448
0.0033308968
0.003318997
0.0033063204
0.0032928448
0.0032785517
0.0032634276
0.0032474637
0.0032306585
0.0032130156
0.0031945468
0.0031752679
0.0031551997
0.0031343699
0.0031127889
0.0030904914
0.0030675179
0.0030438841
0.0030195728
0.0029946479
0.0029687178
0.0029420687
0.0029140976
0.0028856251
0.0028558171
0.002824446
0.0027917968
0.0027576381
0.0027235516
3.3763426e-05
0.00010426708
0.00018105242
0.00026458748
0.00035512055
0.00045237449
0.00055460626
0.00065802016
0.00075773032
0.00084985409
0.00093276391
0.0010066355
0.0010724556
0.0011314207
0.0011846826
0.0012332341
0.0012778981
0.0013193499
0.0013581389
0.0013946794
0.001429327
0.0014623981
0.0014941162
0.0015246763
0.0015542559
0.0015829713
0.0016109523
0.0016382883
0.0016650648
0.0016913595
0.0017172422
0.0017427739
0.0017680245
0.0017930386
0.0018178742
0.0018426084
0.0018673062
0.0018920607
0.0019169781
0.0019422031
0.0019679233
0.001994426
0.002022129
0.0020517081
0.0020843352
0.0021221818
0.0021698143
0.0022382501
0.0023549188
0.0025571682
0.0028147244
0.0030716597
0.0032818396
0.0034239357
0.0035018207
0.0035341166
0.0035414075
0.0035381527
0.0035316393
0.0035245988
0.0035177929
0.0035113556
0.0035052767
0.0034995227
0.0034940565
0.0034888433
0.0034838454
0.0034790334
0.0034743753
0.0034698458
0.0034654129
0.0034610542
0.0034567366
0.0034528301
0.0034508758
0.0034502161
0.0034492254
0.0034479018
0.003446241
0.0034442377
0.0034418838
0.0034391701
0.0034360853
0.0034326169
0.00342875
0.0034244679
0.0034197524
0.0034145835
0.0034089393
0.0034027963
0.0033961292
0.0033889116
0.0033811161
0.0033727137
0.0033636751
0.0033539707
0.0033435709
0.003332447
0.0033205714
0.0033079188
0.0032944666
0.0032801958
0.0032650923
0.0032491469
0.0032323573
0.0032147264
0.0031962654
0.0031769892
0.0031569179
0.0031360782
0.0031144795
0.0030921522
0.0030691341
0.0030454455
0.0030210697
0.0029960776
0.0029700827
0.0029433576
0.0029152988
0.0028867279
0.0028568423
0.0028253641
0.0027926195
0.0027583503
0.002724241
0.0026842095
3.3582769e-05
0.00010370724
0.00018007602
0.0002631558
0.00035319544
0.00044992865
0.00055164001
0.00065457416
0.00075387563
0.00084565875
0.00092827611
0.0010018835
0.0010674543
0.0011261819
0.0011792162
0.0012275467
0.0012719968
0.0013132425
0.0013518324
0.0013881819
0.0014226458
0.0014555402
0.0014870889
0.0015174853
0.0015469076
0.0015754727
0.0016033089
0.0016305058
0.0016571483
0.0016833138
0.0017090725
0.0017344854
0.0017596209
0.0017845242
0.0018092531
0.0018338844
0.0018584825
0.0018831401
0.0019079634
0.0019330959
0.0019587247
0.0019851368
0.0020127493
0.0020422371
0.0020747712
0.0021125216
0.0021600523
0.0022283758
0.0023449084
0.0025470221
0.0028048651
0.00306302
0.0032754148
0.0034201732
0.0035004019
0.0035342651
0.0035423651
0.0035394362
0.0035330276
0.0035260164
0.0035192205
0.0035127901
0.003506718
0.0035009712
0.0034955129
0.0034903083
0.0034853198
0.0034805179
0.0034758707
0.0034713523
0.0034669311
0.0034625847
0.0034582802
0.003454307
0.003452285
0.003451626
0.0034506365
0.0034493146
0.0034476563
0.0034456561
0.0034433064
0.0034405977
0.0034375191
0.0034340578
0.0034301992
0.0034259266
0.0034212217
0.0034160647
0.0034104337
0.0034043049
0.0033976534
0.0033904527
0.0033826751
0.0033742917
0.0033652732
0.0033555896
0.0033452114
0.0033341095
0.0033222562
0.0033096256
0.0032961949
0.0032819446
0.0032668601
0.0032509314
0.0032341558
0.0032165355
0.0031980808
0.0031788061
0.0031587306
0.00313788
0.0031162629
0.0030939058
0.0030708431
0.0030470991
0.0030226576
0.0029975966
0.0029715354
0.0029447336
0.0029165861
0.0028879148
0.0028579502
0.0028263643
0.002793522
0.0027591388
0.0027250018
0.0026849548
0.0026449404
3.3406376e-05
0.00010315972
0.00017911954
0.00026175024
0.0003513028
0.00044752
0.00054871305
0.00065116944
0.0007500611
0.00084149951
0.00092381792
0.00099715561
0.0010624742
0.0011209591
0.0011737586
0.0012218635
0.0012660952
0.0013071293
0.0013455154
0.0013816687
0.0014159439
0.0014486563
0.0014800302
0.0015102594
0.0015395207
0.0015679302
0.0015956169
0.00162267
0.001649174
0.0016752064
0.0017008366
0.0017261253
0.0017511419
0.0017759307
0.001800549