/*--------------------------------*- C++ -*----------------------------------*\
| =========                 |                                                 |
| \\      /  F ield         | OpenFOAM: The Open Source CFD Toolbox           |
|  \\    /   O peration     | Version:  2506                                  |
|   \\  /    A nd           | Website:  www.openfoam.com                      |
|    \\/     M anipulation  |                                                 |
\*---------------------------------------------------------------------------*/
FoamFile
{
    version     2.0;
    format      ascii;
    arch        "LSB;label=32;scalar=64";
    class       volScalarField;
    location    "0.013";
    object      p;
}
// * * * * * * * * * * * * * * * * * * * * * * * * * * * * * * * * * * * * * //

dimensions      [1 -1 -2 0 0 0 0];

internalField   nonuniform List<scalar> 
13761
(
46967.129
46967.141
46967.106
46967.113
46967.229
46967.354
46967.427
46967.482
47125.327
46967.549
47125.303
46967.619
47125.29
46967.661
47125.281
46967.69
47125.251
46967.571
47125.282
46967.337
47125.219
46966.832
47125.704
46966.273
46983.3
47126.33
46966.043
46983.274
47126.587
46966.099
46983.337
47126.571
46966.501
46983.435
47126.185
46966.968
46983.52
47125.74
46967.298
46983.587
47125.495
46967.475
46983.652
47125.391
46967.556
47063.396
46983.746
47125.345
46967.587
47063.386
46983.872
47125.342
46967.592
47063.375
46983.965
47125.344
46967.599
47063.373
46983.943
47125.334
46967.639
47063.38
46983.855
47125.343
46967.687
47063.447
46983.818
47125.365
46967.704
47063.476
46983.86
47125.379
47063.632
46983.939
47125.384
46986.508
47063.831
46984.01
47125.422
46986.45
47063.919
46984.049
47125.403
46986.381
47063.867
46984.093
47125.46
46986.362
47063.686
46984.158
47125.704
46986.434
47063.533
46984.239
47125.838
46986.561
47063.468
46984.332
47125.845
46986.668
47063.454
46984.404
47125.653
46986.744
47063.469
46984.407
46998.668
46986.797
47063.477
46984.373
46998.681
46986.839
47063.496
46984.374
46998.707
46986.884
47063.566
46984.428
46998.75
46986.891
47063.624
46984.493
46998.803
46986.897
47063.927
46984.556
46998.888
46986.823
47064.192
46984.607
46998.961
46986.706
47064.273
46984.652
46977.76
46998.986
46986.65
47064.137
46984.673
46977.777
46998.986
46986.693
47063.851
46977.795
46998.976
46986.819
47063.622
46977.812
46998.973
46986.941
47063.509
46977.826
46998.975
46987.025
47063.468
46977.837
46998.997
46987.089
47063.465
46977.844
46999.027
46987.126
47063.47
46975.173
46977.849
46999.096
46987.159
47063.475
46975.189
46977.855
46999.166
46987.078
47063.506
46975.204
46977.869
46999.194
46986.994
47063.55
46975.22
46977.886
46999.199
46986.98
46975.235
46977.903
46999.196
46987.072
46975.25
46977.917
46999.205
46987.172
46975.265
46977.929
46999.22
46987.242
46968.111
46975.28
46977.939
46999.26
46987.299
46968.159
46975.295
46977.948
46999.321
46987.331
46968.207
46975.31
46977.963
46999.354
46987.327
46968.255
46975.325
46977.982
46999.36
46987.206
46968.303
46975.34
46978.001
46999.354
46968.351
46975.355
46978.02
46999.341
46968.399
46975.37
46978.039
46999.331
46951.144
46968.447
46975.386
46978.057
46999.328
46951.327
46968.495
46975.401
46978.075
46999.336
46951.51
46968.543
46975.415
46978.089
46999.35
46951.692
46968.59
46975.43
46978.1
46999.387
46951.874
46968.637
46975.445
46978.106
46999.431
46952.057
46968.684
46975.46
46978.11
46999.517
46952.239
46968.731
46975.474
46978.114
46904.19
46952.421
46968.778
46975.489
46978.127
46904.706
46952.603
46968.824
46975.504
46978.146
46905.222
46952.784
46968.871
46975.519
46978.167
46905.736
46952.965
46968.917
46975.534
46978.189
46906.25
46953.146
46968.963
46975.549
46978.212
46906.763
46953.326
46969.009
46975.564
46978.234
46790.635
46907.275
46953.505
46969.054
46975.578
46978.254
46791.858
46907.787
46953.685
46969.099
46975.593
46978.271
46793.081
46908.298
46953.865
46969.144
46975.607
46794.303
46908.808
46954.045
46969.188
46975.622
46795.527
46909.318
46954.224
46969.233
46975.637
46796.751
46909.828
46954.403
46969.277
46975.651
46797.976
46910.336
46954.581
46969.322
46975.666
46569.852
46799.202
46910.843
46954.758
46969.366
46975.681
46572.187
46800.428
46911.349
46954.935
46969.41
46975.696
46574.525
46801.652
46911.854
46955.111
46969.454
46975.711
46576.865
46802.876
46912.358
46955.287
46969.497
46579.207
46804.097
46912.862
46955.462
46969.541
46581.549
46805.318
46913.364
46955.637
46969.584
46226.027
46583.892
46806.538
46913.866
46955.811
46969.626
46229.375
46586.236
46807.757
46914.366
46955.985
46969.669
46232.728
46588.582
46808.976
46914.865
46956.159
46969.711
46236.089
46590.929
46810.194
46915.363
46956.332
46969.753
46239.459
46593.279
46811.41
46915.86
46956.504
46969.796
46242.843
46595.631
46812.626
46916.356
46956.675
45837.44
46246.245
46597.986
46813.84
46916.85
46956.845
45840.512
46249.669
46600.342
46815.053
46917.343
46957.014
45843.617
46253.11
46602.699
46816.266
46917.835
46957.184
45846.758
46256.567
46605.058
46817.476
46918.325
46957.353
45849.937
46260.035
46607.417
46818.685
46918.813
46957.521
45603.226
45853.156
46263.515
46609.777
46819.892
46919.3
46957.688
45603.239
45856.417
46267.005
46612.136
46821.097
46919.785
46957.855
45603.342
45859.717
46270.507
46614.496
46822.3
46920.269
45603.526
45863.054
46274.018
46616.854
46823.5
46920.751
45603.779
45866.424
46277.538
46619.212
46824.697
46921.231
45604.085
45869.825
46281.064
46621.568
46825.892
46921.709
45712.177
45604.431
45873.257
46284.598
46623.922
46827.084
46922.185
45706.998
45604.812
45876.719
46288.137
46626.275
46828.272
46922.66
45701.867
45605.232
45880.211
46291.684
46628.626
46829.458
46923.132
45696.825
45605.696
45883.73
46295.237
46630.974
46830.641
46923.603
45691.897
45606.214
45887.276
46298.797
46633.321
46831.821
46317.044
45687.081
45606.79
45890.848
46302.364
46635.665
46832.999
46304.897
45682.358
45607.428
45894.445
46305.939
46638.008
46834.174
46292.785
45677.706
45608.13
45898.069
46309.521
46640.35
46835.346
46280.711
45673.12
45608.898
45901.721
46313.111
46642.69
46836.515
46268.677
45668.61
45609.728
45905.402
46316.706
46645.028
46837.682
47139.525
46256.689
45664.185
45610.616
45909.112
46320.305
46647.364
46838.845
47128.236
46244.753
45659.849
45611.563
45912.848
46323.909
46649.697
47116.801
46232.875
45655.601
45612.567
45916.611
46327.516
46652.028
47105.223
46221.059
45651.438
45613.629
45920.4
46331.126
46654.356
47333.347
47093.502
46209.311
45647.359
45614.749
45924.214
46334.74
46656.68
47336.593
47081.641
46197.634
45643.365
45615.925
45928.055
46338.357
46659.001
47339.606
47069.644
46186.03
45639.456
45617.157
45931.921
46341.976
46661.317
47342.385
47057.518
46174.502
45635.63
45618.444
45935.813
46345.598
46663.63
47344.931
47045.268
46163.048
45631.885
45619.785
45939.73
46349.221
46665.937
46858.665
47347.24
47032.903
46151.664
45628.218
45621.181
45943.67
46352.847
46864.75
47349.307
47020.428
46140.342
45624.627
45622.634
45947.634
46356.475
46870.927
47351.126
47007.845
46129.072
45621.111
45624.146
45951.621
46360.105
46877.186
47352.691
46995.155
46117.844
45617.67
45625.719
45955.632
46363.738
46717.96
46883.517
47353.993
46982.36
46106.656
45614.307
45627.355
45959.668
46367.373
46717.308
46889.907
47355.027
46969.461
46095.512
45611.028
45629.054
45963.728
46371.009
46716.72
46896.352
47355.788
46956.46
46084.428
45607.837
45630.814
45967.81
46374.645
46716.203
46902.848
47356.269
46943.361
46073.428
45604.738
45632.634
45971.91
46869.899
46715.769
46909.397
47356.484
46930.17
46062.541
45601.729
45634.512
45976.029
46865.992
46715.434
46915.999
47356.402
46916.894
46051.788
45598.809
45636.448
45980.165
46862.128
46715.211
46922.655
47356.027
46903.538
46041.181
45595.973
45638.441
45984.321
46858.293
46715.099
46929.365
47355.358
46890.109
46030.71
45593.218
45640.491
45988.497
46874.135
46854.481
46715.109
46936.131
47354.387
46876.611
46020.355
45590.54
45642.598
45992.692
46876.064
46850.694
46715.244
46942.952
47353.113
46863.047
46010.092
45587.94
45644.762
45996.905
46877.843
46846.945
46715.504
46949.83
47351.531
46849.417
45999.906
45585.418
45646.98
46879.476
46843.25
46715.889
46956.769
47349.648
46835.721
45989.792
45582.975
45649.252
46716.183
46880.981
46839.614
46716.396
46963.774
47347.454
46821.96
45979.76
45580.609
45651.575
46718.124
46882.382
46836.025
46717.017
46970.85
47344.95
46808.136
45969.824
45578.318
45653.948
46720.105
46883.704
46832.46
46717.741
46978.001
47342.142
46794.253
45959.997
45576.099
45656.37
46722.123
46884.973
46828.893
46718.559
46985.227
47339.029
46780.319
45950.287
45573.95
45658.841
46649.777
46724.175
46886.208
46825.309
46719.464
46992.525
47335.613
46766.34
45940.693
45571.869
45661.365
46649.157
46726.253
46887.414
46821.712
46720.448
46999.886
47331.894
46752.319
45931.207
45569.861
46648.553
46728.348
46888.58
46818.123
46721.505
47007.299
47327.872
46738.26
45921.823
45567.928
46603.216
46647.973
46730.454
46889.679
46814.57
46722.626
47014.748
47323.547
46724.165
45912.534
45566.076
46602.936
46647.423
46732.571
46890.684
46811.072
46723.81
47022.219
47318.918
46710.038
45903.336
45564.306
46602.693
46646.908
46734.706
46891.57
46807.635
46725.059
47029.7
47313.986
46695.884
45894.229
45562.621
46526.322
46602.486
46646.43
46736.87
46892.335
46804.251
46726.384
47037.178
47308.753
46681.708
45885.215
45561.021
46526.644
46602.304
46645.991
46739.073
46892.987
46800.908
46727.791
47044.648
47303.223
46667.517
45876.3
46527.023
46602.132
46645.597
46741.323
46893.533
46797.6
46729.294
47052.11
47297.396
46653.314
45867.494
46439.3
46527.42
46601.955
46645.257
46743.623
46893.975
46794.333
46730.905
47059.56
47291.277
46639.102
45858.812
46439.005
46527.811
46601.759
46644.975
46745.971
46894.3
46791.119
46732.632
47066.997
47284.866
46624.883
45850.268
46438.712
46528.176
46601.541
46644.751
46748.36
46894.494
46787.973
46734.48
47074.412
47278.166
46610.657
45841.874
46365.248
46438.412
46528.501
46601.304
46644.59
46750.779
46894.559
46784.912
46736.444
47081.798
47271.18
46596.425
45833.636
46364.435
46438.102
46528.796
46601.056
46644.466
46753.216
46894.477
46781.94
46738.528
47089.142
47263.906
46582.188
45825.551
46290.614
46363.669
46437.784
46529.064
46600.802
46644.374
46755.666
46894.264
46779.054
46740.728
47096.433
47256.346
46567.948
46289.335
46362.936
46437.457
46529.32
46600.546
46644.332
46758.133
46893.928
46776.248
46743.044
47103.66
47248.5
46553.711
46288.224
46362.228
46437.131
46529.566
46600.291
46644.364
46760.631
46893.479
46773.519
46745.484
47110.813
47240.369
46539.485
46209.664
46287.256
46361.535
46436.81
46529.796
46600.033
46644.476
46763.159
46892.92
46770.867
46748.054
47117.882
47231.959
46525.28
46207.825
46286.411
46360.852
46436.497
46530.014
46599.771
46644.668
46765.73
46892.26
46768.296
46750.765
47124.855
47223.276
46511.105
46130.072
46206.274
46285.673
46360.177
46436.188
46530.22
46599.507
46644.939
46768.342
46891.502
46765.809
46753.627
47131.717
47214.327
46496.971
46127.421
46204.963
46285.017
46359.52
46435.889
46530.423
46599.24
46645.286
46770.983
46890.655
46763.412
46756.644
47138.45
47205.122
46125.182
46203.852
46284.438
46358.89
46435.608
46530.615
46598.969
46645.7
46773.632
46889.721
46761.106
46759.824
47145.037
47195.669
46046.562
46123.284
46202.905
46283.927
46358.298
46435.354
46530.786
46598.691
46646.166
46776.269
46888.7
46758.892
46763.165
47151.459
47185.98
46043.672
46121.776
46202.07
46283.467
46357.749
46435.136
46530.937
46598.396
46646.667
46778.878
46887.584
46756.76
46766.674
47157.698
47176.064
45969.297
46041.258
46120.523
46201.318
46283.043
46357.246
46434.961
46531.077
46598.083
46647.191
46781.459
46886.367
46754.702
46770.362
47163.738
47165.934
45965.612
46039.278
46119.482
46200.635
46282.649
46356.79
46434.834
46531.218
46597.753
46647.732
46784.027
46885.039
46752.705
46774.232
47169.569
47155.591
45887.632
45962.486
46037.686
46118.586
46200.02
46282.289
46356.388
46434.772
46531.374
46597.415
46648.294
46786.607
46883.594
46750.756
46778.29
47175.185
45883.008
45959.867
46036.412
46117.808
46199.471
46281.966
46356.043
46434.775
46531.515
46597.074
46648.887
46789.225
46882.025
46748.847
46782.539
47180.579
45799.297
45879.004
45957.68
46035.379
46117.065
46198.978
46281.686
46355.756
46434.848
46531.643
46596.738
46649.523
46791.898
46880.32
46746.981
46786.978
47185.742
45718.629
45794.177
45875.565
45955.835
46034.498
46116.335
46198.515
46281.446
46355.517
46434.993
46531.782
46596.416
46650.217
46794.627
46878.462
46745.165
46791.609
47190.664
45712.51
45789.724
45872.597
45954.255
46033.708
46115.594
46198.048
46281.233
46355.312
46435.197
46531.962
46596.121
46650.976
46797.404
46876.434
46743.401
46796.428
47195.336
45633.237
45707.212
45785.87
45870.011
45952.853
46032.926
46114.86
46197.547
46281.028
46355.126
46435.462
46532.212
46595.868
46651.805
46800.217
46874.228
46741.689
46801.428
47199.751
45553.425
45627.211
45702.56
45782.539
45867.737
45951.583
46032.178
46114.134
46197.014
46280.806
46354.946
46435.782
46532.521
46595.659
46652.711
46803.055
46871.845
46740.023
46806.598
45546.75
45621.924
45698.49
45779.543
45865.691
45950.397
46031.393
46113.416
46196.434
46280.553
46354.762
46436.154
46532.871
46595.49
46653.698
46805.911
46869.296
46738.4
46811.929
45465.976
45540.974
45617.468
45694.964
45776.804
45863.831
45949.267
46030.654
46112.725
46195.886
46280.27
46354.569
46436.565
46533.251
46595.347
46654.768
46808.778
46866.595
46736.814
46817.416
45385.67
45459.451
45535.8
45613.552
45691.839
45774.254
45862.099
45948.152
46029.909
46112.06
46195.363
46279.963
46354.371
46437.011
46533.665
46595.22
46655.922
46811.656
46863.755
46735.264
46823.053
45306.665
45378.83
45453.994
45531.433
45609.892
45688.92
45771.869
45860.441
45947.049
46029.2
46111.418
46194.917
46279.647
46354.178
46437.488
46534.121
46595.099
46657.165
46814.548
46860.783
46733.752
46828.829
45299.241
45372.669
45449
45527.386
45606.492
45686.144
45769.623
45858.808
45946
46028.534
46110.799
46194.529
46279.336
46353.997
46437.994
46534.621
46594.984
46658.498
46817.458
46857.687
46732.284
45220.978
45292.534
45367.02
45444.499
45523.683
45603.25
45683.408
45767.457
45857.199
45944.954
46027.919
46110.212
46194.161
46279.037
46353.837
46438.528
46535.154
46594.875
46659.926
46820.397
46854.471
46730.863
45144.367
45213.97
45286.351
45362.037
45440.439
45520.219
45600.163
45680.689
45765.327
45855.619
45943.947
46027.391
46109.666
46193.797
46278.746
46353.699
46439.096
46535.697
46594.771
46661.453
46823.373
46851.137
46729.494
45069.512
45137.134
45207.387
45280.802
45357.439
45436.583
45516.856
45597.148
45678.021
45763.198
45854.073
45943.018
46026.934
46109.164
46193.43
46278.453
46353.567
46439.697
46536.236
46594.669
46663.078
46826.394
46847.689
46728.18
44934.674
44997.471
45062.522
45130.357
45201.27
45275.512
45352.971
45432.798
45513.421
45594.046
45675.314
45761.102
45852.614
45942.195
46026.563
46108.707
46193.03
46278.141
46353.45
46440.323
46536.77
46594.562
46664.795
46829.458
46844.123
46726.919
44867.338
44928.364
44990.775
45055.74
45123.831
45195.319
45270.393
45348.713
45429.064
45509.959
45590.855
45672.684
45759.12
45851.325
45941.516
46026.269
46108.299
46192.584
46277.796
46353.317
46440.967
46537.307
46594.446
46666.597
46832.569
46840.44
46725.708
44802.006
44861.57
44922.154
44984.193
45049.046
45117.365
45189.448
45265.314
45344.419
45425.209
45506.35
45587.613
45670.136
45757.291
45850.218
45940.969
46026.044
46107.926
46192.104
46277.41
46353.179
46441.621
46537.853
46594.325
46668.476
46835.726
46836.647
44684.802
44739.344
44796.616
44855.788
44915.911
44977.463
45042.094
45110.762
45183.493
45260.247
45339.908
45421.105
45502.548
45584.301
45667.623
45755.67
45849.273
45940.575
46025.889
46107.542
46191.617
46276.988
46353.035
46442.284
46538.408
46594.201
46670.425
46838.928
46832.757
44627.798
44679.175
44733.884
44791.025
44849.715
44909.19
44970.322
45034.806
45103.888
45177.433
45254.954
45335.222
45416.818
45498.646
45580.988
45665.275
45754.256
45848.541
45940.363
46025.771
46107.184
46191.137
46276.555
46352.884
46442.956
46538.963
46594.071
46672.437
46842.171
46828.79
44529.238
44573.769
44621.734
44673.605
44728.307
44784.985
44842.995
44901.705
44962.544
45027.133
45096.737
45171.138
45249.434
45330.294
45412.404
45494.755
45577.844
45663.141
45753.036
45848.037
45940.289
46025.686
46106.824
46190.677
46276.135
46352.745
46443.64
46539.507
46593.927
46674.508
46845.437
46824.79
44409.124
44443.52
44480.517
44522.631
44567.133
44615.696
44667.748
44722.257
44778.084
44835.214
44893.344
44953.99
45018.947
45089.281
45164.566
45243.649
45325.172
45407.836
45490.867
45574.932
45661.265
45752.056
45847.754
45940.336
46025.616
46106.439
46190.24
46275.75
46352.63
46444.337
46540.028
46593.769
46676.637
46848.709
46820.784
44313.532
44339.481
44368.446
44401.319
44434.873
44473.179
44515.526
44560.306
44609.328
44661.081
44715.024
44769.82
44825.975
44883.88
44944.641
45010.205
45081.445
45157.704
45237.647
45319.875
45403.095
45486.978
45572.233
45659.721
45751.362
45847.659
45940.471
46025.535
46106.036
46189.831
46275.413
46352.544
46445.046
46540.526
46593.599
46678.83
46851.973
44232.72
44255.386
44277.391
44301.554
44329.336
44360.076
44392.653
44426.453
44465.823
44507.691
44552.834
44601.676
44653.379
44706.235
44760.093
44815.357
44873.276
44934.562
45001.004
45073.325
45150.633
45231.518
45314.396
45398.271
45483.207
45569.761
45658.52
45750.964
45847.659
45940.636
46025.412
46105.627
46189.451
46275.129
46352.499
46445.771
46541.002
46593.428
46681.093
46855.21
44145.675
44153.944
44171.155
44181.235
44186.701
44201.54
44222.308
44243.88
44264.708
44289.531
44320.163
44351.706
44382.627
44417.911
44457.463
44498.865
44544.337
44593.218
44643.934
44695.665
44748.432
44803.461
44861.573
44923.78
44991.414
45064.982
45143.385
45225.202
45308.767
45393.55
45479.681
45567.603
45657.651
45750.852
45847.784
45940.794
46025.226
46105.195
46189.098
46274.895
46352.489
46446.508
46541.464
46593.26
46683.426
46858.405
44150.743
44135.487
44122.745
44113.249
44108.47
44108.149
44110.742
44114.713
44117.797
44125.157
44139.051
44152.985
44157.998
44167.811
44189.474
44212.103
44230.127
44250.741
44278.207
44311.046
44341.401
44371.954
44408.83
44447.596
44488.994
44534.61
44582.943
44632.689
44683.342
44735.029
44790.076
44848.812
44912.499
44981.594
45056.497
45136.027
45218.739
45303.185
45389.08
45476.55
45565.873
45657.113
45750.938
45847.977
45940.868
46024.989
46104.744
46188.785
46274.717
46352.521
46447.264
46541.919
46593.092
46685.826
46861.549
44389.134
44389.043
44388.958
44388.869
44388.771
44388.662
44388.541
44388.404
44388.247
44388.071
44387.873
44387.652
44387.407
44387.138
44386.844
44386.523
44386.173
44385.794
44385.383
44384.938
44384.457
44383.937
44383.374
44382.767
44382.11
44381.401
44380.636
44379.809
44378.918
44377.958
44376.928
44375.824
44374.647
44373.398
44372.077
44370.691
44369.244
44367.746
44366.209
44364.648
44363.083
44361.531
44360.006
44358.504
44356.99
44355.377
44353.496
44351.161
44348.183
44343.758
44337.523
44329.786
44320.234
44309.057
44298.111
44285.101
44263.542
44231.62
44204.497
44187.745
44172.254
44157.038
44143.119
44130.727
44120.252
44110.609
44101.101
44090.773
44082.08
44073.821
44067.951
44063.212
44060.997
44061.489
44066.032
44072.226
44078.971
44085.737
44093.76
44106.158
44120.203
44127.964
44135.361
44153.239
44179.348
44198.88
44214.081
44236.323
44267.543
44300.517
44329.428
44361.211
44398.008
44436.147
44478.186
44523.307
44570.511
44619.061
44668.629
44720.11
44775.62
44835.724
44900.952
44971.719
45047.984
45128.62
45212.253
45297.725
45384.857
45473.869
45564.665
45656.932
45751.281
45848.219
45940.861
46024.649
46104.302
46188.529
46274.59
46352.59
46448.041
46542.372
46592.919
46688.28
46864.631
43978.846
43978.719
43978.599
43978.474
43978.342
43978.197
43978.038
43977.86
43977.662
43977.437
43977.186
43976.905
43976.595
43976.251
43975.873
43975.456
43974.996
43974.489
43973.93
43973.313
43972.63
43971.877
43971.046
43970.129
43969.12
43968.012
43966.798
43965.469
43964.018
43962.435
43960.709
43958.828
43956.777
43954.542
43952.107
43949.457
43946.579
43943.459
43940.084
43936.441
43932.516
43928.294
43923.756
43918.888
43913.691
43908.195
43902.599
43896.945
43890.86
43883.76
43876.745
43869.695
43863.059
43857.678
43854.327
43856.18
43863.173
43875.861
43890.101
43899.335
43907.584
43916.205
43923.621
43931.501
43938.148
43945.382
43951.909
43958.643
43965.743
43972.892
43980.642
43989.264
43999.35
44011.201
44024.043
44036.433
44048.628
44059.281
44070.349
44083.102
44093.859
44102.705
44117.668
44142.913
44167.584
44181.211
44196.792
44222.517
44256.825
44287.862
44316.225
44349.22
44385.07
44423.554
44465.833
44509.781
44555.869
44603.478
44652.446
44704.156
44760.36
44822.138
44889.309
44961.957
45039.618
45121.313
45205.92
45292.462
45380.977
45471.628
45563.906
45657.075
45751.785
45848.425
45940.725
46024.242
46103.88
46188.348
46274.545
46352.696
46448.839
46542.824
46592.742
46690.771
43483.381
43483.29
43483.201
43483.109
43483.016
43482.913
43482.804
43482.682
43482.55
43482.398
43482.231
43482.041
43481.831
43481.594
43481.33
43481.034
43480.702
43480.329
43479.908
43479.434
43478.896
43478.291
43477.606
43476.836
43475.971
43475.003
43473.923
43472.719
43471.38
43469.889
43468.228
43466.372
43464.293
43461.962
43459.344
43456.406
43453.112
43449.424
43445.31
43440.743
43435.714
43430.247
43424.415
43418.362
43412.339
43406.715
43401.681
43396.993
43392.549
43387.495
43382.314
43377.456
43374.302
43373.235
43372.005
43371.768
43377.25
43395.177
43431.211
43473.627
43522.554
43581.822
43636.113
43686.063
43729.999
43768.852
43803.662
43835.212
43863.07
43887.506
43909.059
43929.827
43950.029
43970.059
43988.462
44005.288
44020.337
44032.35
44043.06
44055.48
44067.909
44083.227
44104.734
44131.793
44149.884
44160.296
44179.011
44209.278
44244.719
44273.344
44301.946
44335.066
44370.315
44409.577
44451.247
44494.043
44539.231
44586.086
44634.679
44686.966
44744.727
44808.664
44878.148
44952.394
45031.489
45114.253
45199.877
45287.59
45377.63
45469.929
45563.6
45657.552
45752.399
45848.567
45940.429
46023.756
46103.49
46188.272
46274.553
46352.843
46449.656
46543.274
46592.559
46693.282
43274.28
43274.291
43274.3
43274.308
43274.314
43274.321
43274.327
43274.336
43274.345
43274.357
43274.369
43274.382
43274.393
43274.403
43274.409
43274.413
43274.411
43274.404
43274.392
43274.372
43274.343
43274.303
43274.249
43274.175
43274.077
43273.944
43273.768
43273.534
43273.228
43272.832
43272.323
43271.679
43270.871
43269.867
43268.628
43267.111
43265.267
43263.045
43260.395
43257.268
43253.619
43249.398
43244.545
43238.96
43232.48
43224.892
43216.062
43206.164
43197.394
43192.066
43191.048
43192.849
43197.324
43203.061
43211.523
43226.352
43252.562
43297.241
43358.51
43433.084
43492.656
43537.913
43582.555
43626.57
43670.018
43712.137
43752.954
43789.995
43820.896
43846.761
43872.076
43896.636
43920.03
43941.685
43960.827
43977.981
43991.873
44003.511
44015.563
44030.377
44048.393
44068.334
44092.177
44114.662
44126.859
44137.968
44161.609
44196.669
44230.526
44257.076
44286.003
44318.554
44354.156
44393.655
44434.142
44476.211
44520.686
44567.004
44616.117
44669.696
44729.482
44795.457
44867.167
44943.358
45023.615
45107.558
45194.277
45283.279
45374.88
45468.795
45563.67
45658.237
45753.013
45848.589
45939.949
46023.213
46103.154
46188.289
46274.626
46353.029
46450.484
46543.721
46592.359
46695.798
43536.3
43536.36
43536.418
43536.478
43536.535
43536.6
43536.666
43536.744
43536.83
43536.931
43537.043
43537.171
43537.31
43537.466
43537.636
43537.823
43538.028
43538.253
43538.5
43538.772
43539.071
43539.397
43539.753
43540.138
43540.55
43540.987
43541.444
43541.915
43542.393
43542.87
43543.338
43543.788
43544.211
43544.594
43544.921
43545.174
43545.327
43545.353
43545.222
43544.902
43544.362
43543.572
43542.513
43541.189
43539.637
43537.949
43536.277
43534.96
43533.055
43528.825
43524.058
43519.813
43516.891
43516.656
43520.639
43528.948
43532.105
43533.213
43539.9
43556.654
43586.779
43620.227
43653.673
43685.626
43715.135
43743.045
43768.58
43791.88
43813.86
43836.419
43859.351
43881.758
43901.855
43920.224
43937.23
43952.118
43963.923
43977.05
43992.63
44011.064
44032.482
44052.898
44074.068
44091.334
44100.676
44115.929
44145.487
44183.942
44213.613
44238.767
44267.791
44300.292
44336.658
44375.16
44414.616
44456.422
44500.518
44546.878
44597.429
44652.43
44714.418
44782.845
44856.749
44934.704
45016.35
45101.247
45189.206
45279.601
45372.751
45468.223
45564.096
45659.098
45753.534
45848.418
45939.347
46022.627
46102.902
46188.427
46274.779
46353.248
46451.324
46544.169
46592.127
46698.307
43713.858
43713.894
43713.929
43713.967
43714.007
43714.052
43714.103
43714.162
43714.232
43714.314
43714.41
43714.519
43714.644
43714.784
43714.94
43715.114
43715.306
43715.519
43715.752
43716.008
43716.289
43716.596
43716.931
43717.295
43717.689
43718.115
43718.573
43719.062
43719.584
43720.138
43720.72
43721.33
43721.964
43722.616
43723.279
43723.944
43724.6
43725.232
43725.822
43726.35
43726.795
43727.136
43727.356
43727.447
43727.413
43727.279
43727.109
43726.951
43727.238
43728.034
43730.342
43734.258
43738.609
43741.864
43742.655
43743.589
43746.437
43749.298
43750.464
43751.687
43755.641
43760.661
43766.197
43772.469
43780.354
43789.767
43800.687
43812.855
43826.802
43841.61
43857.197
43872.298
43886.384
43900.583
43914.275
43926.916
43938.69
43955.117
43973.155
43993.641
44013.938
44032.131
44050.498
44064.021
44074.314
44096.262
44131.577
44169.214
44193.511
44218.232
44247.643
44280.773
44317.037
44354.023
44393.307
44435.264
44479.36
44526.559
44578.699
44636.158
44700.452
44771.389
44846.991
44926.503
45009.375
45095.554
45184.815
45276.569
45371.318
45468.112
45564.848
45659.981
45753.904
45848.021
45938.547
46022.014
46102.745
46188.674
46275.013
46353.497
46452.181
46544.622
46591.858
46700.8
43790.464
43790.476
43790.487
43790.499
43790.513
43790.529
43790.548
43790.571
43790.599
43790.632
43790.672
43790.719
43790.773
43790.835
43790.905
43790.984
43791.071
43791.169
43791.277
43791.396
43791.528
43791.673
43791.832
43792.006
43792.198
43792.408
43792.638
43792.889
43793.164
43793.464
43793.79
43794.145
43794.529
43794.944
43795.392
43795.877
43796.401
43796.972
43797.594
43798.276
43799.026
43799.857
43800.802
43801.917
43803.252
43804.854
43806.752
43808.936
43811.278
43813.513
43814.137
43811.457
43811.57
43816.922
43822.889
43828.918
43829.598
43820.518
43811.757
43808.667
43807.941
43806.485
43804.148
43802.02
43802.819
43805.509
43809.565
43816.175
43824.617
43833.968
43843.977
43854.732
43865.983
43877.749
43889.506
43901.439
43915.793
43934.498
43953.247
43972.831
43990.424
44007.533
44024.234
44035.434
44050.714
44079.604
44119.276
44149.793
44170.383
44195.791
44226.128
44259.744
44294.873
44331.218
44370.974
44413.178
44457.945
44506.769
44560.725
44620.693
44687.297
44760.375
44837.899
44918.83
45003.023
45090.523
45181.042
45274.324
45370.584
45468.481
45565.803
45660.791
45754.079
45847.365
45937.612
46021.422
46102.698
46189.015
46275.306
46353.774
46453.055
46545.086
46591.569
43792.926
43792.92
43792.914
43792.908
43792.902
43792.896
43792.891
43792.886
43792.882
43792.878
43792.876
43792.874
43792.874
43792.875
43792.878
43792.882
43792.889
43792.898
43792.91
43792.926
43792.945
43792.969
43792.998
43793.033
43793.076
43793.127
43793.187
43793.259
43793.344
43793.443
43793.559
43793.695
43793.855
43794.042
43794.263
43794.525
43794.836
43795.209
43795.654
43796.185
43796.812
43797.538
43798.344
43799.198
43800.097
43801.072
43802.167
43803.196
43804.492
43806.011
43808.551
43812.457
43815.141
43813.624
43812.45
43809.135
43805.851
43806.381
43804.361
43797.018
43790.363
43785.618
43786.224
43788.914
43791.105
43793.021
43796.116
43800.635
43806.526
43813.513
43821.36
43830.545
43840.833
43851.564
43863.484
43877.766
43895.024
43913.096
43931.652
43949.082
43965.178
43982.035
43996.162
44009.019
44031.171
44065.537
44103.033
44124.961
44145.46
44172.467
44203.555
44236.769
44270.936
44307.928
44348.157
44390.773
44436.993
44487.882
44544.071
44606.415
44675.677
44750.542
44829.786
44911.724
44997.278
45086.102
45178.004
45272.77
45370.401
45469.239
45566.803
45661.455
45754.023
45846.521
45936.581
46020.863
46102.756
46189.453
46275.647
46354.075
46453.949
46545.569
46591.288
43741.029
43741.015
43741.001
43740.987
43740.972
43740.957
43740.94
43740.922
43740.902
43740.882
43740.859
43740.835
43740.81
43740.783
43740.755
43740.725
43740.693
43740.661
43740.627
43740.592
43740.556
43740.52
43740.483
43740.448
43740.413
43740.379
43740.348
43740.31
43740.258
43740.197
43740.129
43740.053
43739.969
43739.874
43739.769
43739.65
43739.515
43739.362
43739.185
43738.979
43738.744
43738.477
43738.177
43737.841
43737.46
43737.019
43736.504
43735.897
43735.227
43734.592
43733.719
43732.773
43732.53
43732.227
43733.07
43732.831
43733.28
43734.8
43736.434
43737.782
43740.459
43742.538
43745.403
43749.391
43754.078
43759.916
43766.059
43772.192
43779.29
43786.978
43795.413
43805.061
43815.954
43828.166
43842.366
43858.459
43875.773
43891.958
43909.169
43924.468
43939.846
43955.387
43968.652
43986.897
44014.514
44050.82
44079.704
44097.376
44120.181
44148.556
44179.653
44212.132
44246.63
44284.764
44325.35
44368.907
44417.139
44470.291
44528.782
44593.657
44664.996
44741.43
44821.893
44905.447
44992.203
45082.332
45175.661
45271.854
45370.677
45470.216
45567.765
45661.892
45753.685
45845.316
45935.471
46020.346
46102.928
46189.974
46276.034
46354.398
46454.859
46546.084
46591.04
43687.206
43687.198
43687.19
43687.181
43687.171
43687.161
43687.15
43687.137
43687.124
43687.11
43687.094
43687.076
43687.057
43687.036
43687.012
43686.985
43686.954
43686.92
43686.881
43686.837
43686.786
43686.728
43686.661
43686.584
43686.496
43686.394
43686.277
43686.15
43686.02
43685.881
43685.727
43685.556
43685.366
43685.155
43684.92