/*--------------------------------*- C++ -*----------------------------------*\
| =========                 |                                                 |
| \\      /  F ield         | OpenFOAM: The Open Source CFD Toolbox           |
|  \\    /   O peration     | Version:  2506                                  |
|   \\  /    A nd           | Website:  www.openfoam.com                      |
|    \\/     M anipulation  |                                                 |
\*---------------------------------------------------------------------------*/
FoamFile
{
    version     2.0;
    format      ascii;
    arch        "LSB;label=32;scalar=64";
    class       volScalarField;
    location    "0.7";
    object      T;
}
// * * * * * * * * * * * * * * * * * * * * * * * * * * * * * * * * * * * * * //

dimensions      [0 0 0 1 0 0 0];

internalField   nonuniform List<scalar> 
1376
(
245.79511
245.79464
245.78071
245.76539
245.7505
245.73862
245.72952
245.72121
245.71126
245.69867
245.68626
245.84239
245.8245
245.80603
245.78786
245.77231
245.75966
245.74859
245.73643
245.72215
245.70639
245.85942
245.84549
245.83106
245.81584
245.80054
245.78633
245.77356
245.76032
245.74541
245.72946
245.81148
245.8077
245.80265
245.79548
245.78675
245.77704
245.7674
245.75769
245.74553
245.73426
245.74599
245.747
245.74701
245.7457
245.74287
245.73849
245.73355
245.7286
245.72025
245.71609
245.69819
245.69907
245.69949
245.6992
245.69836
245.69626
245.69372
245.69126
245.68583
245.68606
245.67036
245.66958
245.66871
245.66754
245.66616
245.66397
245.66151
245.65948
245.65503
245.65598
245.65583
245.65362
245.65138
245.64879
245.6461
245.64322
245.63973
245.6371
245.63201
245.63212
245.64895
245.64586
245.64265
245.63883
245.63502
245.63112
245.62653
245.62304
245.61704
245.61539
245.64631
245.64264
245.63892
245.63432
245.62956
245.62472
245.61929
245.615
245.60852
245.60479
245.64587
245.64193
245.63785
245.63277
245.62738
245.62183
245.61582
245.61079
245.60433
245.59885
245.65082
245.64649
245.6424
245.63808
245.63273
245.62694
245.62094
245.61452
245.6089
245.60254
245.59596
245.65181
245.64747
245.64332
245.63883
245.6333
245.62727
245.62101
245.61436
245.60834
245.60196
245.59486
245.65269
245.64836
245.64421
245.63962
245.63399
245.62779
245.62136
245.61458
245.60839
245.60198
245.59471
245.65327
245.64894
245.64483
245.64019
245.63451
245.62816
245.62158
245.61478
245.60852
245.60217
245.59499
245.65344
245.64915
245.64508
245.6404
245.63467
245.62817
245.62147
245.61472
245.60845
245.60227
245.59535
245.65325
245.64906
245.64497
245.64019
245.63438
245.62776
245.621
245.61436
245.60807
245.60212
245.59558
245.65281
245.64872
245.64446
245.63948
245.63359
245.62699
245.62025
245.61374
245.60742
245.60167
245.59558
245.6521
245.64809
245.64356
245.63834
245.6324
245.62591
245.61928
245.61282
245.6065
245.60093
245.59531
245.65119
245.6472
245.64246
245.63708
245.63104
245.6246
245.61808
245.61157
245.60534
245.59998
245.59475
245.65009
245.6461
245.64136
245.63592
245.62971
245.62322
245.61677
245.61018
245.60411
245.59898
245.59402
245.64921
245.64515
245.64044
245.63492
245.62846
245.62195
245.6155
245.60886
245.60304
245.59812
245.59332
245.64866
245.64441
245.63966
245.63399
245.62741
245.62096
245.61442
245.60775
245.60214
245.59742
245.59276
245.64772
245.64344
245.63883
245.63306
245.62652
245.62032
245.61372
245.60702
245.60138
245.59665
245.59216
245.64661
245.64252
245.63792
245.63206
245.62563
245.61966
245.61314
245.60659
245.6009
245.59597
245.59143
245.64939
245.64564
245.6418
245.63691
245.63094
245.62488
245.61907
245.6125
245.60606
245.60041
245.59536
245.59066
245.64806
245.64416
245.64058
245.63582
245.62997
245.62439
245.61861
245.612
245.60558
245.5998
245.59456
245.58969
245.64664
245.64308
245.63928
245.63444
245.62895
245.62395
245.61829
245.6118
245.60534
245.59917
245.59361
245.58856
245.64542
245.64207
245.63801
245.63313
245.62844
245.62364
245.6179
245.6115
245.60499
245.59855
245.59266
245.58744
245.64421
245.64092
245.63682
245.63233
245.62813
245.62326
245.61745
245.61118
245.6045
245.59786
245.59178
245.58645
245.6433
245.63989
245.63584
245.63197
245.62782
245.62267
245.61689
245.61063
245.60402
245.59729
245.59107
245.58563
245.64501
245.64224
245.63874
245.63491
245.63139
245.62736
245.62226
245.61638
245.61016
245.60374
245.59698
245.59059
245.58499
245.64399
245.64082
245.63725
245.63393
245.63077
245.62677
245.62166
245.61596
245.60996
245.60365
245.5969
245.59041
245.58458
245.64239
245.63949
245.63638
245.63338
245.63003
245.62558
245.62071
245.61541
245.60967
245.60346
245.59691
245.59038
245.58444
245.64323
245.64109
245.63856
245.63578
245.63254
245.62858
245.62446
245.62001
245.615
245.60936
245.60317
245.5965
245.59008
245.58424
245.64196
245.63997
245.63752
245.63457
245.63123
245.62761
245.62379
245.61956
245.61446
245.60879
245.60265
245.59632
245.59013
245.58415
245.6405
245.63862
245.63641
245.63378
245.63077
245.62727
245.62308
245.61842
245.61323
245.60789
245.60247
245.59677
245.59085
245.58418
245.64062
245.63926
245.63754
245.63548
245.63299
245.62984
245.62633
245.6222
245.61767
245.61314
245.60844
245.60332
245.59794
245.59165
245.5845
245.63972
245.63842
245.63673
245.63461
245.63198
245.62877
245.62513
245.62135
245.61762
245.61393
245.61004
245.60548
245.59984
245.59309
245.58553
245.6408
245.63965
245.6382
245.63632
245.63388
245.63108
245.62793
245.62471
245.62195
245.61922
245.61626
245.61264
245.60797
245.60212
245.59516
245.58844
245.64088
245.64002
245.63874
245.63714
245.63516
245.63271
245.63007
245.62759
245.62543
245.62331
245.62108
245.61823
245.61436
245.60958
245.6039
245.59808
245.59294
245.64158
245.6407
245.6393
245.63735
245.63508
245.63271
245.63053
245.62897
245.62743
245.62559
245.62327
245.6202
245.61616
245.61135
245.60633
245.60188
245.59752
245.64135
245.64047
245.63911
245.6375
245.63582
245.63417
245.63279
245.63159
245.63044
245.62918
245.62734
245.62475
245.62128
245.61709
245.6129
245.6094
245.60626
245.60317
245.63932
245.63899
245.63831
245.6374
245.63648
245.63572
245.63517
245.63485
245.63441
245.63359
245.63229
245.63038
245.62761
245.62412
245.62051
245.61756
245.6156
245.61415
245.61195
245.63185
245.63255
245.63296
245.63336
245.63386
245.63433
245.63483
245.63535
245.6355
245.63532
245.63477
245.63383
245.63238
245.63036
245.62822
245.62663
245.6257
245.6247
245.62395
245.62203
245.6191
245.62106
245.62296
245.62498
245.62695
245.62861
245.63003
245.63115
245.6319
245.6323
245.63236
245.63184
245.63107
245.6302
245.62938
245.62899
245.62947
245.63027
245.63165
245.63105
245.6292
245.62647
245.58674
245.58884
245.59105
245.59352
245.59648
245.59973
245.60299
245.60595
245.6085
245.61043
245.61222
245.61369
245.61439
245.6147
245.61544
245.61651
245.61883
245.62194
245.62439
245.62567
245.62461
245.62285
245.62126
245.55402
245.55243
245.55246
245.55264
245.55245
245.55479
245.55809
245.55973
245.5583
245.55789
245.55942
245.56038
245.56328
245.56806
245.57003
245.57084
245.57177
245.57432
245.57968
245.58644
245.58625
245.58466
245.58978
245.59481
245.5986
245.51373
245.50722
245.51042
245.51495
245.51196
245.51245
245.50896
245.50333
245.50493
245.51038
245.5106
245.50226
245.4987
245.49743
245.49396
245.49437
245.49957
245.50214
245.50078
245.49756
245.49006
245.4875
245.4887
245.49088
245.49252
245.49717
245.49878
245.6734
245.69297
245.71514
245.72014
245.70289
245.67402
245.64545
245.62293
245.6073
245.5974
245.59172
245.58904
245.58819
245.58827
245.58877
245.58934
245.5898
245.59003
245.58998
245.58964
245.58911
245.58855
245.58809
245.58765
245.58706
245.58634
245.58552
245.58452
245.58344
245.58237
245.58142
245.5806
245.58016
245.57994
245.5793
245.57858
245.57851
245.57867
245.58043
245.58383
245.58859
245.59366
245.59986
245.60921
245.61935
245.62443
245.62144
245.59776
245.49729
245.66526
245.68437
245.70503
245.70918
245.69151
245.66337
245.63624
245.61521
245.60085
245.59192
245.58693
245.5847
245.58406
245.58426
245.58484
245.58545
245.58594
245.5862
245.58615
245.58585
245.58542
245.58501
245.58466
245.5843
245.5838
245.58315
245.58234
245.58132
245.58029
245.57944
245.57859
245.57774
245.57709
245.57653
245.57583
245.57505
245.57454
245.57478
245.5768
245.58032
245.58506
245.58994
245.59633
245.60566
245.61646
245.62349
245.62156
245.59469
245.49274
245.66315
245.68173
245.70021
245.70263
245.68379
245.65623
245.6305
245.61084
245.59755
245.58941
245.58497
245.58301
245.58241
245.58258
245.5831
245.58364
245.58404
245.58424
245.5842
245.58385
245.58333
245.58279
245.58237
245.58202
245.58159
245.58101
245.58039
245.57966
245.57891
245.5781
245.57728
245.57644
245.57544
245.57434
245.57339
245.5725
245.57186
245.57245
245.57423
245.57709
245.58139
245.58571
245.59216
245.60172
245.6141
245.62253
245.61936
245.59109
245.49005
245.66528
245.68361
245.70022
245.70043
245.6804
245.65351
245.62905
245.6106
245.59817
245.59054
245.58638
245.58448
245.5838
245.58376
245.584
245.58416
245.5842
245.58401
245.58345
245.58271
245.58193
245.58127
245.58079
245.58045
245.58014
245.57977
245.57942
245.57916
245.5789
245.57844
245.5778
245.57688
245.57578
245.57459
245.57343
245.57222
245.57141
245.5717
245.57296
245.57462
245.57734
245.58092
245.58794
245.5984
245.61232
245.62091
245.6163
245.58548
245.49085
245.66901
245.68726
245.70243
245.70132
245.68095
245.65455
245.63072
245.61271
245.60058
245.59321
245.58918
245.58724
245.58637
245.58607
245.58598
245.58583
245.58551
245.58496
245.58418
245.58326
245.5823
245.5814
245.58068
245.58019
245.57991
245.57981
245.5797
245.57956
245.57945
245.57934
245.57901
245.57831
245.57719
245.57588
245.57448
245.57325
245.57244
245.57227
245.57256
245.57272
245.5738
245.57652
245.58382
245.59563
245.61031
245.61834
245.61315
245.58572
245.49842
245.67326
245.69157
245.70588
245.70344
245.6828
245.657
245.634
245.61663
245.60491
245.59776
245.59381
245.5918
245.59078
245.59024
245.58981
245.58922
245.5885
245.5876
245.58648
245.58525
245.58406
245.58304
245.58229
245.58175
245.58138
245.58117
245.58108
245.58109
245.58114
245.58117
245.58095
245.58043
245.57949
245.57813
245.57655
245.57511
245.57402
245.57324
245.57238
245.57129
245.57127
245.57299
245.58018
245.59287
245.60771
245.6148
245.61081
245.58806
245.5077
245.67623
245.69477
245.70865
245.70549
245.68502
245.65996
245.63784
245.62128
245.61018
245.6034
245.59961
245.59763
245.59656
245.59591
245.5953
245.59454
245.59357
245.59233
245.59096
245.58956
245.58825
245.5871
245.58614
245.5854
245.58488
245.58455
245.58435
245.58426
245.58423
245.58404
245.58371
245.58315
245.58218
245.58069
245.57892
245.57716
245.57564
245.57424
245.57257
245.57074
245.56961
245.57069
245.57738
245.58957
245.60417
245.61071
245.60874
245.59306
245.51447
245.67816
245.6969
245.7105
245.70687
245.68673
245.66255
245.64144
245.62574
245.61528
245.60894
245.60544
245.60364
245.60273
245.60218
245.60162
245.60089
245.59988
245.59861
245.59717
245.59568
245.59426
245.59299
245.59192
245.59105
245.59033
245.58979
245.5894
245.58902
245.58853
245.58795
245.58719
245.58622
245.58495
245.58339
245.58161
245.57965
245.57769
245.57571
245.57342
245.57095
245.56948
245.56978
245.57521
245.58582
245.59949
245.60637
245.60759
245.59669
245.50848
245.68066
245.69954
245.71286
245.7088
245.68885
245.66539
245.64513
245.63014
245.62017
245.61411
245.61076
245.60905
245.60822
245.60774
245.60729
245.60673
245.60592
245.60487
245.60368
245.60246
245.60125
245.60011
245.59906
245.59807
245.5971
245.59619
245.59533
245.59442
245.59337
245.59219
245.59083
245.58943
245.58808
245.58673
245.58508
245.58295
245.58051
245.57781
245.57501
245.57208
245.57002
245.56982
245.57331
245.58204
245.59419
245.60235
245.60647
245.59369
245.50899
245.68373
245.70269
245.71567
245.71104
245.69125
245.6684
245.64884
245.63446
245.62492
245.61912
245.61587
245.61417
245.61331
245.61281
245.61239
245.61192
245.61128
245.61042
245.60947
245.60852
245.6076
245.60672
245.60581
245.60482
245.60371
245.60244
245.60104
245.59953
245.59795
245.59634
245.59474
245.59323
245.59189
245.59066
245.58912
245.58691
245.58408
245.5807
245.57718
245.57368
245.57083
245.56972
245.57157
245.57819
245.58895
245.59873
245.60437
245.58922
245.50592
245.68714
245.70598
245.71833
245.71301
245.69334
245.67107
245.65219
245.63841
245.6293
245.62377
245.62067
245.61903
245.61815
245.61758
245.6171
245.61652
245.61578
245.61495
245.61405
245.61322
245.61249
245.61181
245.61106
245.61016
245.60904
245.60769
245.60613
245.60438
245.60255
245.60072
245.59893
245.59728
245.59586
245.59461
245.59313
245.59094
245.58792
245.58408
245.57974
245.5752
245.5716
245.56958
245.56992
245.57415
245.58416
245.59502
245.60088
245.58486
245.50744
245.69047
245.70915
245.72085
245.71488
245.69539
245.67374
245.65557
245.64236
245.63368
245.62838
245.62535
245.62366
245.62265
245.62194
245.62132
245.62065
245.61982
245.61884
245.61785
245.6169
245.61609
245.61541
245.61478
245.61408
245.61323
245.61212
245.6107
245.60897
245.60704
245.60506
245.6031
245.60128
245.59958
245.59803
245.59638
245.59422
245.59117
245.5869
245.58158
245.57639
245.57231
245.56935
245.56788
245.57046
245.57973
245.5911
245.59795
245.58445
245.5079
245.64591
245.63774
245.63279
245.62995
245.62831
245.62724
245.62642
245.62563
245.62476
245.62376
245.62264
245.62151
245.62045
245.61955
245.61879
245.6181
245.61745
245.6167
245.61577
245.6146
245.61314
245.61128
245.60913
245.60684
245.60455
245.60228
245.60011
245.59809
245.59586
245.59279
245.58834
245.58304
245.5773
245.57223
245.56879
245.56686
245.56818
245.57594
245.58726
245.59513
245.58226
245.50902
245.6243
245.62321
245.62226
245.62139
245.62055
245.61967
245.61869
245.61753
245.61609
245.61424
245.61191
245.60919
245.6063
245.60357
245.6011
245.59873
245.59631
245.59327
245.58902
245.58337
245.57712
245.57176
245.56809
245.56663
245.56704
245.57283
245.58333
245.59057
245.57839
245.51306
245.61703
245.61518
245.613
245.6104
245.60739
245.60423
245.60123
245.59843
245.59571
245.59246
245.5882
245.58263
245.57646
245.57108
245.56781
245.56645
245.56594
245.56999
245.57876
245.58413
245.57356
245.51612
245.59746
245.59427
245.59091
245.58678
245.58159
245.57583
245.571
245.56781
245.56569
245.56448
245.5673
245.57345
245.57661
245.56732
245.5165
245.58029
245.57522
245.5709
245.5673
245.56392
245.56195
245.56434
245.56863
245.57012
245.56371
245.51231
245.56127
245.55845
245.56113
245.56528
245.56673
245.56
245.50857
245.55861
245.56278
245.5648
245.55785
245.50861
245.56288
245.55567
245.51251
245.51878
)
;

boundaryField
{
    Side
    {
        type            empty;
    }
    Inlet
    {
        type            totalTemperature;
        gamma           1.4;
        T0              uniform 250;
        value           nonuniform List<scalar> 
48
(
245.56963
245.56994
245.57043
245.57041
245.57001
245.56945
245.56937
245.56944
245.56941
245.56954
245.56982
245.56986
245.56931
245.56819
245.56789
245.56819
245.56796
245.56745
245.56707
245.56649
245.56594
245.56546
245.56503
245.56528
245.56595
245.56586
245.56493
245.56375
245.56309
245.56297
245.56338
245.56437
245.56579
245.56628
245.56545
245.56475
245.56463
245.56483
245.56529
245.56566
245.56591
245.5658
245.56599
245.56596
245.56598
245.56646
245.56712
245.56734
)
;
    }
    Airfoil
    {
        type            zeroGradient;
    }
    Outlet
    {
        type            inletOutlet;
        inletValue      nonuniform List<scalar> 0();
        value           nonuniform List<scalar> 0();
    }
    procBoundary10to2
    {
        type            processor;
        value           uniform 245.80707;
    }
    procBoundary10to3
    {
        type            processor;
        value           nonuniform List<scalar> 
23
(
245.68637
245.69796
245.71072
245.72156
245.73101
245.74081
245.75269
245.76702
245.78164
245.78164
245.84456
245.67455
245.6666
245.66418
245.66595
245.66931
245.6733
245.67617
245.67821
245.68087
245.68407
245.68754
245.69081
)
;
    }
    procBoundary10to9
    {
        type            processor;
        value           nonuniform List<scalar> 
66
(
245.80649
245.85944
245.87303
245.81506
245.74492
245.69761
245.67137
245.65819
245.65227
245.65023
245.65009
245.65009
245.65541
245.65649
245.65747
245.65814
245.65835
245.65806
245.65732
245.65619
245.65488
245.65362
245.65267
245.65207
245.65144
245.6505
245.6505
245.65238
245.65164
245.65018
245.64872
245.64729
245.64614
245.64614
245.64756
245.64658
245.64502
245.64502
245.64526
245.64362
245.64215
245.64215
245.64162
245.64082
245.64082
245.64162
245.64162
245.64131
245.64214
245.64214
245.64178
245.64178
245.63939
245.63939
245.62998
245.63101
245.63101
245.61695
245.61695
245.58315
245.58482
245.58482
245.55258
245.55254
245.55254
245.52188
)
;
    }
    procBoundary10to11
    {
        type            processor;
        value           nonuniform List<scalar> 
58
(
245.69291
245.71148
245.72263
245.71618
245.69694
245.67592
245.65845
245.65845
245.64878
245.64119
245.63672
245.63425
245.63287
245.63197
245.6312
245.63038
245.62938
245.62818
245.62686
245.62552
245.62552
245.62851
245.62707
245.62573
245.62441
245.62306
245.62163
245.62015
245.61864
245.61864
245.61734
245.61544
245.61327
245.61073
245.60774
245.60431
245.60083
245.60083
245.59647
245.59284
245.58927
245.58518
245.58518
245.57903
245.57467
245.57045
245.5661
245.5661
245.55855
245.55557
245.55557
245.5572
245.55979
245.55979
245.56117
245.55548
245.55548
245.51562
)
;
    }
}


// ************************************************************************* //
