/*--------------------------------*- C++ -*----------------------------------*\
| =========                 |                                                 |
| \\      /  F ield         | OpenFOAM: The Open Source CFD Toolbox           |
|  \\    /   O peration     | Version:  2506                                  |
|   \\  /    A nd           | Website:  www.openfoam.com                      |
|    \\/     M anipulation  |                                                 |
\*---------------------------------------------------------------------------*/
FoamFile
{
    version     2.0;
    format      ascii;
    arch        "LSB;label=32;scalar=64";
    class       surfaceScalarField;
    location    "0.018";
    object      phi;
}
// * * * * * * * * * * * * * * * * * * * * * * * * * * * * * * * * * * * * * //

dimensions      [1 0 -1 0 0 0 0];

oriented        oriented;

internalField   nonuniform List<scalar> 
27010
(
0.212254
-53.580719
53.597574
0.19610466
-49.697013
49.711684
0.18342257
-45.687367
45.700849
0.17014056
-42.153515
42.166205
0.15872221
-38.84748
38.859146
0.14759051
-35.803023
35.813756
0.13724109
-32.993202
33.003049
0.12755191
-30.397657
30.406701
0.11844077
-28.005666
28.013948
0.10949154
-25.800593
25.808261
0.10069545
-23.770686
23.777796
0.092884994
-21.903686
21.910397
0.088539093
-20.210368
20.216915
0.085846289
-18.67149
18.677442
0.082205063
-17.253439
17.258765
0.07682474
-15.92081
15.925364
0.070510972
-14.650783
14.654712
0.066008106
-13.465017
13.468968
0.06312951
-12.435665
12.439611
0.059550434
-11.482235
11.485773
0.055953536
-10.582914
10.585883
0.053097895
-9.7455455
9.7485942
0.050298131
-8.9924867
8.9953207
0.047649518
-8.2947829
8.2973442
0.045292981
-7.6490576
7.6514086
0.043081856
-7.0563834
7.0585973
0.040985635
-6.5092316
6.5112995
0.039015623
-6.0049316
6.0068651
0.037189429
-5.5396173
5.5414578
0.035517695
-5.1094233
5.1111286
0.033900151
-4.7134717
4.7150483
0.032371274
-4.350431
4.3519025
0.030999719
-4.0141035
4.0155377
0.029654833
-3.7022771
3.7036105
0.028358168
-3.4167657
3.4180029
0.02714249
-3.1534101
3.1545671
0.026010413
-2.9102082
2.9113124
0.024910247
-2.6854337
2.6865257
0.023867009
-2.4777693
2.4788148
0.022862104
-2.2863993
2.2874014
0.02189479
-2.1097054
2.1106675
0.02094978
-1.9471696
1.9481153
0.020041806
-1.7966605
1.797567
-1.658541
1.6594032
0.22048543
-53.563166
0.20362585
-49.681706
0.19037064
-45.673225
0.17650719
-42.140343
0.16459864
-38.835322
0.1529751
-35.791808
0.14217498
-32.982935
0.13206859
-30.388215
0.12254532
-27.996995
0.11321934
-25.792586
0.10405926
-23.763266
0.09591012
-21.896706
0.091326756
-20.203542
0.088474713
-18.66528
0.084668093
-17.247874
0.079072983
-15.916048
0.072517621
-14.646672
0.067800886
-13.460899
0.06478179
-12.431547
0.061066526
-11.478558
0.057308346
-10.579789
0.054322978
-9.7423667
0.05140684
-8.9895374
0.048657705
-8.2921252
0.046188255
-7.6465949
0.043876167
-7.0540673
0.041686443
-6.5070703
0.039635791
-6.0029166
0.03776028
-5.5377262
0.036021069
-5.1076508
0.034338981
-4.7118327
0.032749435
-4.3488995
0.031325022
-4.0126136
0.0299304
-3.7008949
0.028585834
-3.4154818
0.02732896
-3.1522123
0.026159693
-2.9090664
0.025024324
-2.6843052
0.023948371
-2.4766905
0.022913133
-2.2853673
0.021918081
-2.1087151
0.020947123
-1.9461976
0.020016639
-1.7957322
-1.657658
0.22907077
-53.544847
0.21147625
-49.665619
0.19762589
-45.658595
0.18316012
-42.12659
0.17072347
-38.822637
0.15859405
-35.7801
0.14732477
-32.972221
0.13678183
-30.378357
0.12685131
-27.987942
0.11713448
-25.784225
0.10759392
-23.75552
0.099095258
-21.88942
0.094262119
-20.196425
0.091244598
-18.658802
0.087268555
-17.242061
0.081452309
-15.91107
0.074646876
-14.642374
0.069705424
-13.456608
0.066540241
-12.427253
0.062669084
-11.474722
0.058760331
-10.576516
0.055638499
-9.7390517
0.052598093
-8.9864643
0.049732516
-8.2893541
0.047157485
-7.6440277
0.044747837
-7.0516524
0.042467045
-6.504818
0.040332277
-6.0008167
0.038380439
-5.5357575
0.036570563
-5.105808
0.034821747
-4.7101293
0.03317156
-4.3473081
0.031692785
-4.0110663
0.030246706
-3.6994621
0.028853218
-3.4141504
0.027553249
-3.1509717
0.026342307
-2.9078826
0.025169713
-2.6831383
0.024062741
-2.47558
0.022997025
-2.2843052
0.02197321
-2.1076957
0.020977832
-1.9452011
0.020024689
-1.7947818
0.019109942
-1.656753
-1.5294085
0.23801573
-53.525748
0.21966296
-49.648823
0.20519437
-45.6433
0.19010226
-42.112171
0.17711688
-38.809402
0.16446243
-35.767881
0.15270584
-32.961013
0.14170959
-30.368068
0.13135644
-27.978491
0.121234
-25.775499
0.11129796
-23.747437
0.10243628
-21.881812
0.097344385
-20.189007
0.094154847
-18.652044
0.090002312
-17.235988
0.083956211
-15.905874
0.076891367
-14.637881
0.071717168
-13.452138
0.068400434
-12.422774
0.064366879
-11.470722
0.060301777
-10.573089
0.057038548
-9.7355961
0.053868919
-8.9832613
0.050882289
-8.2864652
0.048197542
-7.6413519
0.045686671
-7.0491348
0.043311186
-6.5024709
0.041089258
-5.9986288
0.039057962
-5.5337079
0.037174687
-5.103892
0.035356538
-4.7083591
0.03364331
-4.3456541
0.032107971
-4.0094596
0.030608296
-3.6979768
0.029163963
-3.4127695
0.027820237
-3.149688
0.026569078
-2.9066582
0.025359433
-2.6819328
0.024217611
-2.4744342
0.023119221
-2.2832108
0.022065824
-2.1066461
0.02104309
-1.9441768
0.020065788
-1.7938081
0.019128282
-1.6558256
-1.5284937
0.24734518
-53.505772
0.22819991
-49.631382
0.21308875
-45.627512
0.19734641
-42.097075
0.18379057
-38.795591
0.17059065
-35.75513
0.15832826
-32.949312
0.14686128
-30.357329
0.13606937
-27.968627
0.12552597
-25.766392
0.11517997
-23.739004
0.10594044
-21.873878
0.1005759
-20.181275
0.097207107
-18.644996
0.092873013
-17.229647
0.08659047
-15.90045
0.079257525
-14.633186
0.073838443
-13.447481
0.070363528
-12.418103
0.066162564
-11.466551
0.061935808
-10.569505
0.058524865
-9.7319948
0.055220922
-8.9799228
0.052108775
-8.2834545
0.04931007
-7.6385632
0.046693999
-7.0465102
0.044220406
-6.5000256
0.041907882
-5.9963494
0.039794075
-5.5315746
0.037834649
-5.1019002
0.035944709
-4.7065197
0.034165973
-4.3439351
0.032571974
-4.0077914
0.03101676
-3.6964369
0.029519985
-3.4113374
0.028129588
-3.1483583
0.026833678
-2.9053885
0.025583808
-2.6806857
0.024408505
-2.4732546
0.023277115
-2.2820835
0.022192715
-2.1055651
0.021143717
-1.9431261
0.020142012
-1.7928107
0.019180413
-1.6548743
-1.527557
0.25707204
-53.484702
0.23710174
-49.613259
0.22132317
-45.610479
0.20490534
-42.081318
0.19075637
-38.781175
0.17698963
-35.741826
0.16420129
-32.937126
0.15224507
-30.346122
0.14099738
-27.958335
0.1300168
-25.756889
0.11924466
-23.730207
0.10961241
-21.865607
0.10396486
-20.173219
0.10040932
-18.637648
0.095886386
-17.223041
0.089357606
-15.894836
0.081746039
-14.628282
0.076072988
-13.442633
0.072433921
-12.413232
0.068058661
-11.4622
0.063663447
-10.565754
0.06009917
-9.7282441
0.056655773
-8.9764435
0.053412866
-8.2803171
0.050495894
-7.6356573
0.047770512
-7.0437742
0.045194818
-6.4974781
0.042788084
-5.9939752
0.040588457
-5.5293542
0.038549762
-5.0998295
0.036585092
-4.7046082
0.034738197
-4.3421486
0.033083161
-4.0060593
0.031470121
-3.6948403
0.029918704
-3.4098521
0.02848063
-3.1469816
0.027141271
-2.9040747
0.025851731
-2.6793972
0.024638908
-2.4720374
0.023471839
-2.2809209
0.022355708
-2.1044516
0.021277458
-1.9420457
0.020249348
-1.7917878
0.019263153
-1.6538988
-1.5265972
0.26721253
-53.462603
0.24638598
-49.594457
0.22991349
-45.592616
0.21279309
-42.064824
0.19802704
-38.766126
0.18367132
-35.727948
0.17033637
-32.924409
0.15787181
-30.334431
0.14615048
-27.947596
0.13471607
-25.746976
0.12350134
-23.721032
0.11345981
-21.856986
0.10751411
-20.164825
0.10376356
-18.629985
0.099045726
-17.216158
0.092263607
-15.888928
0.084364483
-14.623155
0.078424254
-13.437583
0.074613744
-12.408154
0.070058118
-11.457663
0.065488791
-10.561831
0.061764249
-9.7243397
0.058175713
-8.9728175
0.054797154
-8.2770472
0.051756966
-7.6326291
0.048917965
-7.0409223
0.046236495
-6.4948245
0.043731786
-5.9915025
0.041442828
-5.5270434
0.039321871
-5.0976768
0.037279732
-4.7026221
0.035362045
-4.3402917
0.03364354
-4.0042611
0.031970479
-3.6931847
0.030362692
-3.4083119
0.028874023
-3.1455551
0.027486451
-2.9027119
0.026153438
-2.6780636
0.024904196
-2.4707837
0.023701312
-2.2797224
0.022551799
-2.1033041
0.021445143
-1.9409369
0.020390638
-1.7907393
0.019378488
-1.6528974
-1.5256134
0.27778573
-53.439577
0.25607002
-49.574842
0.23887549
-45.574415
0.22102463
-42.047588
0.20561623
-38.75042
0.19064756
-35.713472
0.1767441
-32.911121
0.16375083
-30.322234
0.15153708
-27.936392
0.13963067
-25.736634
0.1279559
-23.711464
0.11748846
-21.848
0.11123263
-20.15608
0.10727921
-18.621997
0.10235848
-17.208967
0.095312371
-15.882641
0.087114154
-14.617779
0.080896213
-13.432327
0.076907452
-12.402861
0.072164163
-11.452931
0.067413139
-10.557729
0.063522208
-9.720278
0.059782955
-8.9690389
0.056262968
-8.2736388
0.053094868
-7.6294738
0.050137409
-7.0379494
0.047345858
-6.4920602
0.044739267
-5.9889276
0.042357356
-5.5246387
0.040150658
-5.0954388
0.038027772
-4.7005581
0.036036441
-4.3383616
0.034251771
-4.002394
0.032516239
-3.6914677
0.030849665
-3.4067148
0.029308997
-3.1440773
0.027874281
-2.901301
0.026498703
-2.6766856
0.025208985
-2.4694897
0.023967134
-2.2784849
0.022783491
-2.1021217
0.021645464
-1.9397966
0.020562023
-1.7896627
0.0195231
-1.6518692
0.018508963
-1.5246047
-1.4070091
0.28878582
-53.415608
0.26617264
-49.55427
0.24822549
-45.555523
0.2296148
-42.029581
0.21353783
-38.73403
0.19793185
-35.698373
0.18343709
-32.897275
0.16989376
-30.309512
0.15716808
-27.924705
0.14477146
-25.725848
0.13261864
-23.701486
0.12170687
-21.838635
0.11512428
-20.146969
0.11095835
-18.613669
0.1058286
-17.201452
0.098510562
-15.876085
0.090003082
-14.612162
0.083493075
-13.426856
0.079317804
-12.397344
0.074380131
-11.447993
0.069441489
-10.55344
0.065376484
-9.7160532
0.061480157
-8.9651007
0.057813508
-8.2700861
0.054512037
-7.6261859
0.051431435
-7.0348506
0.048525703
-6.4891812
0.045812853
-5.9862464
0.043334276
-5.5221366
0.041038505
-5.093112
0.038831742
-4.6984133
0.036764015
-4.3363554
0.034910505
-4.0004557
0.03311007
-3.689687
0.031382715
-3.4050588
0.029787136
-3.1425452
0.028300386
-2.8998368
0.026877858
-2.6752589
0.025548272
-2.468156
0.024267515
-2.2772083
0.023047969
-2.1009026
0.021879008
-1.9386256
0.020766836
-1.7885583
0.01969992
-1.6508129
0.018660112
-1.5235697
-1.4060149
0.30029007
-53.390891
0.27670518
-49.532834
0.257978
-45.535994
0.23858017
-42.010895
0.22180693
-38.716933
0.20553751
-35.682625
0.1904272
-32.882843
0.17631161
-30.296241
0.16305325
-27.912515
0.15014662
-25.714599
0.13749641
-23.691082
0.12612213
-21.828875
0.11919916
-20.137481
0.11481171
-18.604989
0.10946442
-17.193606
0.10186242
-15.86932
0.093033461
-14.606308
0.08621963
-13.421162
0.081850628
-12.391595
0.076710742
-11.442842
0.071575988
-10.548957
0.067329725
-9.7116593
0.063270061
-8.9609966
0.059450522
-8.2663827
0.056010324
-7.6227598
0.052801526
-7.0316206
0.049776734
-6.4861822
0.046953499
-5.983455
0.04437421
-5.5195331
0.041985483
-5.0906926
0.039691349
-4.6961844
0.037544009
-4.3342698
0.035618575
-3.9984429
0.033750566
-3.6878398
0.031959803
-3.4033414
0.030307556
-3.1409571
0.02876952
-2.8983199
0.027301261
-2.6737846
0.025927857
-2.4667787
0.024604578
-2.275889
0.023348248
-2.0996457
0.02214552
-1.937421
0.021001596
-1.7874227
0.019905433
-1.649727
0.018839491
-1.5225081
-1.4049969
0.31232172
-53.365295
0.28770303
-49.510206
0.2681594
-45.51515
0.24793718
-41.991564
0.23043931
-38.699109
0.21347938
-35.666203
0.19772838
-32.86777
0.18301724
-30.282401
0.16920466
-27.899801
0.15576795
-25.702866
0.14260075
-23.680235
0.13074403
-21.818702
0.12346206
-20.127599
0.11884205
-18.59594
0.11326988
-17.185427
0.10537561
-15.862321
0.09621451
-14.600201
0.089081575
-13.415238
0.084509165
-12.385603
0.079159386
-11.437467
0.07382188
-10.544271
0.069386192
-9.7070895
0.065156131
-8.9567195
0.061177556
-8.262523
0.057593145
-7.6191898
0.054250659
-7.0282539
0.05110222
-6.4830587
0.048164085
-5.9805492
0.045479832
-5.5168242
0.042994489
-5.0881767
0.040609457
-4.6938679
0.038379462
-4.3321015
0.036379232
-3.9963529
0.034440978
-3.6859235
0.032584578
-3.4015607
0.030872679
-3.1393096
0.029278459
-2.8967451
0.027759441
-2.6722577
0.026342292
-2.4653582
0.024976679
-2.2745268
0.023681802
-2.0983494
0.022445144
-1.9361829
0.021269789
-1.7862563
0.020143471
-1.6486105
0.019049867
-1.5214182
-1.403955
0.32484448
-53.338566
0.29918684
-49.486454
0.27878823
-45.49277
0.25770428
-41.971517
0.23945154
-38.680532
0.22177233
-35.649078
0.20535415
-32.852059
0.19002268
-30.267967
0.17563332
-27.88654
0.1616448
-25.690631
0.14793946
-23.668925
0.13557972
-21.808103
0.1279234
-20.117307
0.12306134
-18.58651
0.11725485
-17.176898
0.10905564
-15.854958
0.099548945
-14.593819
0.092082714
-13.409074
0.087299261
-12.379358
0.081731375
-11.431856
0.076182179
-10.539372
0.071548976
-9.7023368
0.067141643
-8.952263
0.062997304
-8.2585002
0.059262577
-7.6154686
0.055780813
-7.0247453
0.052503586
-6.4798054
0.049445587
-5.9775243
0.046652193
-5.5140057
0.044065919
-5.0855602
0.041586149
-4.6914601
0.039270037
-4.3298469
0.037191638
-3.9941826
0.035180158
-3.683935
0.033255214
-3.3997139
0.03148155
-3.1376007
0.029831485
-2.8951126
0.028263266
-2.6706798
0.026798507
-2.4638904
0.025386519
-2.2731176
0.024051915
-2.0970124
0.022778723
-1.9349087
0.021568655
-1.7850557
0.020410395
-1.6474616
0.019288847
-1.5202998
0.018220499
-1.4028878
-1.2950076
0.33791353
-53.310687
0.31116547
-49.461784
0.28987823
-45.469733
0.26790061
-41.950481
0.24886101
-38.661169
0.23043292
-35.63122
0.21331983
-32.835685
0.19734254
-30.252913
0.18235252
-27.87271
0.16779028
-25.677873
0.1535253
-23.657133
0.14064086
-21.797062
0.13258962
-20.106588
0.1274725
-18.576681
0.12142383
-17.167997
0.11291021
-15.847197
0.10304679
-14.587146
0.095230558
-13.402661
0.090225264
-12.372848
0.084430872
-11.425998
0.07866235
-10.534252
0.073822961
-9.6973934
0.069230691
-8.9476209
0.064913832
-8.2543066
0.061022562
-7.6115898
0.057395789
-7.0210893
0.053984317
-6.4764169
0.050801801
-5.9743757
0.047894608
-5.5110732
0.045203267
-5.0828386
0.042624933
-4.6889574
0.040219289
-4.3275025
0.038059405
-3.9919285
0.035971808
-3.6818712
0.033975889
-3.3977987
0.032137354
-3.135827
0.030426639
-2.8934173
0.028803446
-2.6690454
0.027290558
-2.462375
0.025832532
-2.2716615
0.024456489
-2.0956328
0.023146004
-1.9335975
0.021901507
-1.783821
0.020710799
-1.6462798
0.019559421
-1.5191512
0.01846485
-1.4017945
-1.2939665
0.35155176
-53.281671
0.32366786
-49.436132
0.30145521
-45.446241
0.2785468
-41.928331
0.2586858
-38.640977
0.23947721
-35.612599
0.22164001
-32.818591
0.20498999
-30.237215
0.18937463
-27.858287
0.17421487
-25.664568
0.15936713
-23.644839
0.14593576
-21.785553
0.13747176
-20.095424
0.13208938
-18.566437
0.12578827
-17.158709
0.1169464
-15.839134
0.1067112
-14.580178
0.098529922
-13.39599
0.093294392
-12.366063
0.08726399
-11.419882
0.081266562
-10.528901
0.076211625
-9.6922554
0.07142682
-8.9427872
0.066930215
-8.2499339
0.062875755
-7.6075469
0.059097709
-7.0172804
0.055546329
-6.4728876
0.052234066
-5.9710985
0.049208253
-5.5080217
0.046407249
-5.0800075
0.043726072
-4.6863553
0.041227056
-4.3250644
0.038982002
-3.9895874
0.03681508
-3.679729
0.034745088
-3.3958122
0.032839172
-3.1339858
0.031067605
-2.8916589
0.029391266
-2.6673562
0.027826445
-2.4608082
0.026318028
-2.2701542
0.024898981
-2.0942094
0.023548769
-1.9322471
0.022266477
-1.7825487
0.021041047
-1.6450628
0.019859518
-1.5179721
0.018737549
-1.400674
-1.2928995
0.36578785
-53.251206
0.33671929
-49.409596
0.3135419
-45.421753
0.28966318
-41.905205
0.26894563
-38.619914
0.24892401
-35.593181
0.23033243
-32.800777
0.2129813
-30.220844
0.19671452
-27.843246
0.18093303
-25.650694
0.16547921
-23.632023
0.15147671
-21.773555
0.14257729
-20.083798
0.13691496
-18.55576
0.13035247
-17.149023
0.12117208
-15.830727
0.11055372
-14.572905
0.10198871
-13.389048
0.096510376
-12.358989
0.090235043
-11.413497
0.084000349
-10.523307
0.078720705
-9.6869159
0.073735077
-8.9377562
0.069051191
-8.2453738
0.064826842
-7.6033324
0.060891069
-7.0133124
0.057193888
-6.4692116
0.053746451
-5.9676871
0.050597133
-5.5048462
0.047681758
-5.0770618
0.044893585
-4.6836497
0.0422976
-4.3225286
0.039963712
-3.9871557
0.037714164
-3.677505
0.03556735
-3.3937518
0.033590897
-3.1320738
0.03175377
-2.8898326
0.03001782
-2.6656061
0.028399944
-2.4591887
0.026841429
-2.2685957
0.025377692
-2.0927402
0.023986595
-1.9308562
0.022666592
-1.7812388
0.021406281
-1.6438106
0.020192395
-1.5167605
0.019041649
-1.3995249
-1.2918074
0.38064776
-53.219547
0.3503454
-49.381969
0.32616096
-45.396665
0.30127179
-41.881096
0.27966032
-38.59794
0.25879105
-35.572935
0.23941301
-32.782198
0.2213313
-30.203771
0.20438584
-27.82756
0.18795679
-25.636227
0.17187136
-23.61866
0.15727326
-21.761053
0.14791824
-20.07169
0.14196479
-18.544633
0.13512976
-17.138914
0.12559626
-15.821911
0.11457833
-14.565304
0.10561245
-13.381828
0.099882159
-12.351614
0.093351492
-11.406835
0.086869179
-10.517462
0.0813543
-9.6813581
0.076159399
-8.9325221
0.071280332
-8.2406167
0.06687874
-7.5989384
0.0627786
-7.0091794
0.058929172
-6.4653829
0.055340914
-5.9641357
0.052062671
-5.5015414
0.049027933
-5.0739967
0.046128105
-4.6808357
0.04343094
-4.3198911
0.041004055
-3.9846295
0.038668468
-3.6751957
0.036441565
-3.3916143
0.03439155
-3.1300875
0.032488128
-2.8879375
0.030694484
-2.6637971
0.029019922
-2.4575127
0.027406803
-2.2669818
0.025896382
-2.0912233
0.024461971
-1.9294225
0.023100907
-1.779888
0.021802946
-1.6425204
0.020556235
-1.5155159
0.019375934
-1.3983466
-1.2906871
0.39616379
-53.186625
0.3645561
-49.353166
0.33932475
-45.370516
0.31339497
-41.856125
0.29085185
-38.575019
0.26909895
-35.551822
0.24890105
-32.762816
0.23005772
-30.185967
0.21240502
-27.811201
0.19530194
-25.62114
0.17855964
-23.604729
0.16334014
-21.748026
0.15350447
-20.059081
0.14724229
-18.533036
0.14012487
-17.128366
0.13022651
-15.81271
0.1187971
-14.557363
0.10941111
-13.374316
0.10341466
-12.343921
0.096618334
-11.399887
0.089878734
-10.511353
0.084118859
-9.6755904
0.078705401
-8.9270749
0.07362316
-8.2356553
0.069036933
-7.5943569
0.064765182
-7.0048741
0.060756992
-6.4613951
0.057022058
-5.9604383
0.05360965
-5.4981016
0.050450396
-5.0708069
0.047434189
-4.6779086
0.044631828
-4.3171474
0.042108032
-3.982005
0.039682766
-3.6727976
0.037372642
-3.3893965
0.03524577
-3.1280233
0.033271447
-2.885969
0.031413073
-2.6619224
0.029679988
-2.4557783
0.028012398
-2.2653124
0.026453638
-2.0896571
0.024974492
-1.9279444
0.023572203
-1.778496
0.022236753
-1.6411926
0.020954743
-1.514236
0.01974276
-1.3971368
0.018590877
-1.2895392
-1.1902741
0.41236417
-53.15229
0.3794145
-49.323183
0.35308766
-45.342874
0.32605708
-41.830275
0.30254214
-38.55112
0.27986747
-35.529807
0.2588144
-32.742613
0.23917727
-30.167399
0.22078753
-27.79414
0.20298195
-25.605408
0.18555477
-23.590203
0.16968607
-21.734451
0.15934652
-20.045951
0.15276429
-18.520949
0.14535193
-17.117359
0.13507305
-15.803128
0.12321481
-14.549067
0.11338882
-13.366502
0.10711648
-12.335899
0.100044
-11.392645
0.093035557
-10.504967
0.087018797
-9.6696069
0.081377657
-8.921406
0.076083543
-8.2304839
0.071304716
-7.5895794
0.066854108
-7.0003898
0.062680175
-6.4572416
0.058792251
-5.9565884
0.055239791
-5.494521
0.051950515
-5.0674868
0.048812841
-4.6748632
0.045900679
-4.3142929
0.043275388
-3.979278
0.040756692
-3.670307
0.038359713
-3.3870947
0.036152591
-3.1258773
0.034106131
-2.8839257
0.032184871
-2.6599839
0.030389928
-2.4539821
0.028663161
-2.2635827
0.027053685
-2.0880393
0.025527229
-1.9264196
0.024080429
-1.7770596
0.022704288
-1.6398237
0.021386136
-1.51292
0.020142195
-1.3958954
0.018959289
-1.2883605
-1.1891418
0.429285
-53.116438
0.39494885
-49.291425
0.36747374
-45.312771
0.3392834
-41.80343
0.31475475
-38.526212
0.29111943
-35.50685
0.26917464
-32.721534
0.24870925
-30.148035
0.22955109
-27.776346
0.21101417
-25.589001
0.19287465
-23.575059
0.17632915
-21.720303
0.16545798
-20.032275
0.15853556
-18.50835
0.15081792
-17.105876
0.14014568
-15.793125
0.1278453
-14.5404
0.11755861
-13.358376
0.11099404
-12.32753
0.10363377
-11.385096
0.096346016
-10.498293
0.090061904
-9.6633785
0.084182782
-8.9155086
0.0786679
-8.2250938
0.073688299
-7.5845978
0.069051003
-6.995719
0.064704202
-6.4529157
0.06065679
-5.9525791
0.056958322
-5.4907934
0.053533593
-5.0640312
0.05026927
-4.6716944
0.047242792
-4.311323
0.044511662
-3.9764442
0.041895618
-3.6677203
0.039408334
-3.3847053
0.037117492
-3.1236457
0.034994258
-2.8818026
0.033002607
-2.6579745
0.031143058
-2.4521213
0.029357062
-2.2617924
0.027695441
-2.0863685
0.026119915
-1.9248462
0.024628167
-1.7755781
0.023211795
-1.6384145
0.021854994
-1.5115654
0.020576035
-1.3946191
0.019362518
-1.2871515
-1.1879817
0.44695995
-53.078923
0.41116046
-49.258223
0.38248872
-45.281741
0.3531024
-41.775137
0.32751437
-38.500252
0.30287603
-35.482909
0.28000105
-32.699556
0.25867231
-30.127839
0.23871304
-27.757788
0.2194138
-25.571891
0.20053125
-23.559267
0.18327841
-21.705558
0.17184984
-20.018031
0.16457466
-18.49522
0.15653687
-17.093895
0.14545424
-15.782675
0.13269386
-14.531342
0.12192434
-13.349923
0.11505678
-12.3188
0.10739741
-11.37723
0.099817797
-10.491319
0.093253309
-9.65689
0.087125971
-8.9093747
0.081380905
-8.2194747
0.07619173
-7.5794033
0.071359485
-6.9908541
0.06683218
-6.4484101
0.062618415
-5.9484034
0.058767392
-5.4869124
0.055201327
-5.0604343
0.051804769
-4.6683961
0.048658984
-4.3082323
0.045817014
-3.9734991
0.043099339
-3.6650333
0.04051775
-3.3822239
0.038139416
-3.1213244
0.03593771
-2.8795982
0.033877308
-2.6558958
0.031950256
-2.4501926
0.030100153
-2.2599364
0.028383429
-2.084642
0.026756107
-1.9232218
0.025216234
-1.7740485
0.023756131
-1.6369612
0.022359161
-1.5101707
0.021045476
-1.3933085
0.019798414
-1.2859092
-1.1867897
0.46542436
-53.040034
0.42809993
-49.22377
0.39817892
-45.250283
0.36754256
-41.745417
0.34084753
-38.473173
0.31516382
-35.457943
0.29131815
-32.67663
0.26908835
-30.106776
0.24829355
-27.738432
0.22820008
-25.554047
0.20854462
-23.542802
0.19055402
-21.690191
0.17853694
-20.003193
0.17088629
-18.481533
0.1625176
-17.081392
0.15101076
-15.771764
0.13777586
-14.521877
0.12650177
-13.341132
0.11931224
-12.309689
0.11134096
-11.369033
0.10345761
-10.484031
0.096601592
-9.6501375
0.090214505
-8.9029941
0.084229636
-8.2136166
0.078821912
-7.5739879
0.073786331
-6.9857874
0.069070635
-6.4437176
0.064683222
-5.9440542
0.060673068
-5.4828712
0.056959686
-5.0566904
0.05342528
-4.664963
0.050155344
-4.3050159
0.047197641
-3.970438
0.044373978
-3.6622419
0.04169436
-3.3796469
0.039224956
-3.1189095
0.036940153
-2.8773076
0.034803051
-2.65374
0.032804647
-2.4481922
0.03089018
-2.2580141
0.029117114
-2.0828586
0.027435906
-1.9215441
0.025847106
-1.7724699
0.024344047
-1.6354646
0.022904722
-1.5087338
0.021552281
-1.3919594
0.020271631
-1.2846336
0.019043063
-1.185567
-1.0940195
0.48471418
-52.999651
0.44579645
-49.187956
0.41457083
-45.21785
0.38263273
-41.714335
0.35478088
-38.444906
0.32800522
-35.431905
0.30314672
-32.652719
0.27997727
-30.084806
0.25831123
-27.718242
0.23738981
-25.535436
0.21692809
-23.525631
0.19816642
-21.674175
0.18553122
-19.987736
0.17749036
-18.467267
0.16877691
-17.068345
0.15682745
-15.760365
0.14309782
-14.51199
0.1312953
-13.331988
0.12377127
-12.300184
0.11547535
-11.360492
0.10727484
-10.476416
0.1001124
-9.643115
0.093454383
-8.896357
0.087219551
-8.2075094
0.081583645
-7.5683426
0.07633546
-6.9805104
0.071423189
-6.4388304
0.066854416
-5.9395238
0.062678074
-5.4786632
0.058810819
-5.0527932
0.055132442
-4.6613888
0.051732853
-4.3016681
0.048653992
-3.9672559
0.045719684
-3.6593421
0.042937649
-3.3769698
0.040372969
-3.1163965
0.038002742
-2.8749288
0.035790098
-2.6515083
0.033717903
-2.4461165
0.031734379
-2.2560207
0.029901367
-2.0810152
0.028163212
-1.9198103
0.026522641
-1.7708392
0.02497177
-1.6339197
0.023489331
-1.5072539
0.022098789
-1.3905727
0.020782235
-1.2833224
0.019517393
-1.1843081
-1.0928191
0.50486892
-52.957469
0.46427501
-49.150871
0.43169373
-45.184217
0.39840311
-41.682083
0.36934383
-38.415393
0.34142953
-35.404747
0.31551383
-32.627777
0.29136327
-30.061891
0.26878813
-27.697181
0.2470041
-25.516024
0.22570322
-23.507726
0.20613733
-21.657482
0.19285012
-19.971635
0.18439443
-18.452398
0.17532234
-17.054731
0.16291451
-15.748461
0.14867557
-14.501665
0.1363217
-13.322472
0.12844117
-12.290263
0.11980666
-11.35159
0.11127598
-10.468456
0.10379557
-9.6358093
0.096854072
-8.8894518
0.090358559
-8.2011415
0.084484614
-7.5624586
0.079014562
-6.9750142
0.073896968
-6.4337401
0.069139037
-5.9348048
0.064789417
-5.4742814
0.060761762
-5.0487365
0.056933206
-4.6576677
0.053398488
-4.2981833
0.050193202
-3.9639479
0.047143396
-3.6563292
0.044254784
-3.3741883
0.041590933
-3.1137812
0.039130745
-2.8724572
0.036834377
-2.6491927
0.034683592
-2.4439611
0.032630242
-2.2539552
0.030736029
-2.0791106
0.028938658
-1.918018
0.027245232
-1.7691553
0.025645626
-1.6323256
0.024120222
-1.5057312
0.022687903
-1.3891446
0.021333249
-1.2819734
0.020033803
-1.1830148
-1.0915869
0.52593083
-52.913535
0.48359983
-49.112035
0.4495961
-45.148125
0.414885
-41.648893
0.38456572
-38.384609
0.355462
-35.376419
0.32844281
-32.60176
0.30326905
-30.037987
0.27974578
-27.675211
0.25706206
-25.495777
0.23488601
-23.489052
0.21447925
-21.64008
0.20050675
-19.954864
0.19161955
-18.436902
0.18217296
-17.040524
0.16928773
-15.736029
0.15451786
-14.490878
0.14158604
-13.312567
0.13333459
-12.27991
0.12434803
-11.342308
0.11547202
-10.460135
0.10765738
-9.6282053
0.10042019
-8.8822659
0.093652944
-8.1945011
0.087530143
-7.5563255
0.081828313
-6.9692895
0.076496425
-6.4284381
0.071540929
-5.9298894
0.067010078
-5.469718
0.062814973
-5.0445138
0.058829569
-4.6537929
0.055153768
-4.2945549
0.051816128
-3.9605084
0.04864559
-3.6531987
0.045645667
-3.3712978
0.042878149
-3.1110586
0.040324791
-2.8698896
0.037945231
-2.6467936
0.035713846
-2.4417231
0.033586395
-2.2518134
0.03162668
-2.0771409
0.029766639
-1.9161637
0.028017908
-1.7674156
0.026363642
-1.6306762
0.024792919
-1.5041636
0.023321489
-1.3876781
0.021926365
-1.2805842
0.020586751
-1.1816814
0.019314863
-1.0903203
-1.0063645
0.54794545
-52.867633
0.50381216
-49.071299
0.46831453
-45.109647
0.43211349
-41.614312
0.40047935
-38.352516
0.37013483
-35.346867
0.34196344
-32.574619
0.31572097
-30.013051
0.2912081
-27.652292
0.26758657
-25.474656
0.24449944
-23.469576
0.22321572
-21.621942
0.2085196
-19.937394
0.19917341
-18.420749
0.18933728
-17.025696
0.17595688
-15.723042
0.16064131
-14.47961
0.14710765
-13.302258
0.13846098
-12.269102
0.12910713
-11.332624
0.11987061
-10.451433
0.11170869
-9.6202952
0.10416232
-8.8747847
0.097111743
-8.1875749
0.090729172
-7.5499328
0.084785171
-6.9633264
0.079229761
-6.4229151
0.074068015
-5.9247694
0.06934819
-5.4649655
0.064978285
-5.040118
0.060829271
-4.6497576
0.057006385
-4.2907769
0.053530607
-3.9569319
0.050234074
-3.6499456
0.047118255
-3.3682933
0.044242885
-3.1082244
0.041591866
-2.8672216
0.039120611
-2.6443027
0.036802878
-2.4393967
0.034599809
-2.249594
0.032573475
-2.0751053
0.030648589
-1.9142451
0.028842474
-1.765618
0.027133433
-1.6289719
0.025516026
-1.5025497
0.023998601
-1.3861661
0.022561995
-1.2791539
0.021186719
-1.1803125
0.019879405
-1.0890183
-1.0051348
0.57095569
-52.819806
0.52492778
-49.029092
0.48787553
-45.070449
0.45012686
-41.577817
0.41711655
-38.319041
0.38547577
-35.316036
0.35610148
-32.546305
0.3287441
-29.987037
0.3031987
-27.62838
0.27859929
-25.452624
0.25456182
-23.449262
0.23236102
-21.603032
0.21690392
-19.919195
0.2070789
-18.403911
0.19684164
-17.010223
0.1829438
-15.70948
0.16705641
-14.467832
0.15289363
-13.291527
0.14383318
-12.257819
0.13409718
-11.322519
0.12448417
-10.442329
0.11595722
-9.612065
0.10808832
-8.866992
0.10074216
-8.1803481
0.09408774
-7.5432681
0.087891007
-6.9571148
0.082102053
-6.4171611
0.076724856
-5.9194362
0.071807542
-5.4600155
0.067254894
-5.0355414
0.06293494
-4.6455545
0.058958463
-4.286842
0.055338183
-3.9532126
0.051909752
-3.6465648
0.048672777
-3.3651692
0.04568479
-3.1052732
0.042932134
-2.8644493
0.040369073
-2.6417197
0.03796343
-2.4369799
0.035680936
-2.2472933
0.033583174
-2.0729993
0.031589168
-1.9122577
0.029722216
-1.7637592
0.027953964
-1.6272081
0.026285621
-1.5008856
0.024723345
-1.38461
0.023244103
-1.2776813
0.021829334
-1.1789042
0.020483009
-1.0876773
-1.0038722
0.5950015
-52.769994
0.54698804
-48.985218
0.50830779
-45.030337
0.46893685
-41.539584
0.43448199
-38.284094
0.40148357
-35.283869
0.3708485
-32.51676
0.34232219
-29.959892
0.31569511
-27.603427
0.29007243
-25.429634
0.26504206
-23.428068
0.24188205
-21.583313
0.22561944
-19.900233
0.21528342
-18.386349
0.20461859
-16.99407
0.19018256
-15.695304
0.17370901
-14.455522
0.15889092
-13.280358
0.14938778
-12.246035
0.13925133
-11.311976
0.12924303
-10.432805
0.12033558
-9.6035052
0.11212801
-8.8588687
0.10447231
-8.1728027
0.097533068
-7.5363178
0.091071019
-6.9506427
0.085037502
-6.4111649
0.079434635
-5.9138797
0.074310391
-5.4548586
0.069566175
-5.0307755
0.065067265
-4.6411755
0.060929906
-4.2827427
0.057158198
-3.9493443
0.053591334
-3.6430498
0.050227635
-3.3619196
0.047121976
-3.1021999
0.044262512
-2.8615677
0.041598564
-2.6390353
0.039098065
-2.4344656
0.03673328
-2.2449087
0.034562838
-2.0708217
0.032497199
-1.910199
0.030564952
-1.7618344
0.028737864
-1.6253857
0.027017737
-1.4991705
0.025404712
-1.3830037
0.023879306
-1.2761629
0.022425469
-1.1774571
0.021044262
-1.0863016
-1.0025735
0.62013435
-52.718108
0.57003862
-48.938904
0.52964734
-44.988621
0.48857467
-41.499556
0.45260237
-38.247586
0.41817939
-35.250304
0.38622241
-32.485923
0.35647135
-29.931561
0.32871089
-27.577382
0.30201666
-25.405642
0.27594677
-23.405952
0.2517797
-21.562747
0.23466404
-19.88047
0.22379071
-18.368032
0.21268293
-16.97721
0.19768404
-15.680496
0.18059615
-14.442649
0.16508936
-13.268733
0.15511818
-12.23372
0.14456448
-11.300975
0.1341421