/*--------------------------------*- C++ -*----------------------------------*\
| =========                 |                                                 |
| \\      /  F ield         | OpenFOAM: The Open Source CFD Toolbox           |
|  \\    /   O peration     | Version:  2506                                  |
|   \\  /    A nd           | Website:  www.openfoam.com                      |
|    \\/     M anipulation  |                                                 |
\*---------------------------------------------------------------------------*/
FoamFile
{
    version     2.0;
    format      ascii;
    arch        "LSB;label=32;scalar=64";
    class       volVectorField;
    location    "0.012";
    object      U;
}
// * * * * * * * * * * * * * * * * * * * * * * * * * * * * * * * * * * * * * //

dimensions      [0 1 -1 0 0 0 0];

internalField   nonuniform List<vector> 
13761
(
(114.20048 36.393582 0)
(115.59634 37.394975 0)
(117.05904 38.413847 -8.3161959e-21)
(118.56583 39.47512 1.1842844e-18)
(120.08594 40.510917 -4.9302898e-21)
(121.72439 41.53746 5.5685434e-21)
(123.38155 42.515009 -7.8189415e-19)
(125.10087 43.477385 -8.5819523e-19)
(126.8293 44.4237 0)
(128.60491 45.293435 0)
(130.40422 46.194836 0)
(132.20382 46.968571 0)
(134.02042 47.754252 -1.350394e-18)
(135.83938 48.43573 0)
(137.63481 49.103328 8.1814902e-19)
(139.43044 49.681607 4.3954872e-19)
(141.18121 50.2226 4.6458284e-19)
(142.88653 50.672836 5.229184e-19)
(144.56907 51.082457 -1.77783e-20)
(146.21343 51.420977 3.1058091e-19)
(147.76428 51.687726 4.228105e-20)
(149.3102 51.916277 -7.8914516e-23)
(150.75954 52.088478 -8.2325799e-23)
(152.15119 52.214019 -2.1821835e-19)
(153.49986 52.316552 -2.3749561e-19)
(154.74454 52.367073 -2.9057335e-19)
(155.93182 52.39271 -3.1592029e-19)
(157.05335 52.397058 -2.670432e-19)
(158.10517 52.375083 -8.9440241e-23)
(159.08825 52.337931 0)
(159.99123 52.282754 2.450362e-19)
(160.85304 52.225137 -1.0270098e-22)
(161.65554 52.159391 5.777204e-20)
(162.37601 52.07661 0)
(163.05739 51.994904 0)
(163.69477 51.91616 1.4841813e-19)
(164.28171 51.833306 0)
(164.83572 51.754494 -8.7543931e-20)
(165.34356 51.676561 0)
(165.80161 51.596903 1.0324714e-19)
(166.23272 51.522125 -5.6055091e-20)
(166.64218 51.454814 0)
(167.0148 51.390946 -6.6072189e-20)
(167.36016 51.330877 -1.4333e-19)
(167.68887 51.279257 3.1137489e-19)
(167.98956 51.229214 -1.6898921e-19)
(168.26684 51.1847 -1.8333052e-19)
(168.53212 51.147925 1.493474e-19)
(168.7802 51.116692 1.0803537e-19)
(169.01081 51.088665 -2.0512743e-19)
(169.23643 51.072422 5.4082742e-19)
(169.46073 51.067656 -3.1080898e-19)
(169.66508 51.069158 3.7458217e-19)
(169.84501 51.071501 -3.4569874e-19)
(170.0247 51.079903 3.3082426e-19)
(170.20326 51.083109 -3.8313732e-19)
(170.36056 51.119721 -4.1554695e-19)
(170.48043 51.250145 4.3703296e-19)
(170.56685 51.305728 4.7278498e-19)
(170.00308 51.204143 -5.1248586e-19)
(165.78392 49.997184 -1.7947082e-20)
(158.81772 47.869075 -1.9601013e-20)
(152.95937 46.046935 -2.1228033e-20)
(147.86571 44.519789 1.1466975e-20)
(143.32709 43.189028 -1.2353704e-20)
(139.22351 41.997243 -1.3331456e-20)
(135.47067 40.939899 7.1741666e-21)
(132.01428 39.970439 7.7424683e-21)
(128.80957 39.07824 -1.6655149e-20)
(125.82297 38.253264 8.9495885e-21)
(123.0282 37.486126 -4.8109457e-21)
(120.40461 36.769331 5.1694453e-21)
(117.93294 36.096225 0)
(115.59437 35.460489 -5.9567194e-21)
(113.37175 34.856408 1.642943e-18)
(111.24976 34.279166 -1.7615106e-18)
(109.21565 33.724747 1.8805134e-18)
(107.25819 33.189785 8.9587183e-23)
(105.36675 32.671121 -2.1694536e-18)
(103.53098 32.165686 -2.2607393e-21)
(101.74107 31.670564 -2.4196026e-21)
(99.987409 31.182921 2.5890343e-21)
(98.260703 30.700009 -2.8408666e-18)
(96.551904 30.219148 3.040389e-18)
(94.851809 29.737605 0)
(93.151364 29.252669 -1.6922521e-21)
(91.440973 28.761459 1.8223389e-21)
(89.710096 28.260803 9.7259518e-22)
(87.947781 27.747391 1.0501098e-21)
(86.141488 27.217276 0)
(84.275243 26.664793 0)
(82.328355 26.081808 5.4077444e-18)
(80.271153 25.462968 -1.1751252e-17)
(78.059008 24.794623 6.4186361e-18)
(75.619827 24.055021 7.0571295e-18)
(72.840428 23.191974 -7.7915628e-18)
(69.562188 22.168776 0)
(65.55232 20.909269 0)
(60.474135 19.303976 6.5564463e-22)
(53.898072 17.2149 0)
(45.508256 14.541277 0)
(35.601396 11.379159 -4.3276226e-22)
(25.1139 8.0294029 4.6444012e-22)
(14.795985 4.732288 0)
(4.9045955 1.5677831 4.6764374e-22)
(114.13541 36.469252 1.7382909e-18)
(115.52588 37.481915 -7.4954677e-21)
(116.98181 38.507884 -1.0526753e-18)
(118.48459 39.582796 -1.1607459e-18)
(120.00085 40.629979 -2.5829988e-18)
(121.63749 41.662227 -1.1080683e-20)
(123.28998 42.655097 7.9177982e-19)
(125.00541 43.628902 1.6988154e-18)
(126.73189 44.593415 7.3514369e-21)
(128.50564 45.474198 8.0265846e-21)
(130.30485 46.395923 -8.8264815e-21)
(132.10629 47.184511 0)
(133.92471 47.989241 6.7484165e-19)
(135.74782 48.686264 -7.2607335e-19)
(137.54853 49.37106 -2.5175211e-20)
(139.35112 49.966972 -4.2600565e-19)
(141.11063 50.525655 1.4965566e-20)
(142.82564 50.991487 -1.643692e-20)
(144.51847 51.416671 5.7058935e-19)
(146.17304 51.773226 -3.1095872e-19)
(147.73866 52.052826 -3.5985547e-19)
(149.29783 52.296591 2.3097155e-20)
(150.76178 52.480778 2.5062256e-20)
(152.1681 52.616773 1.9126005e-19)
(153.52882 52.732109 -2.9685985e-20)
(154.78773 52.791425 -2.2631938e-19)
(155.98814 52.825367 2.8138777e-19)
(157.12351 52.835626 6.1214548e-19)
(158.19027 52.819625 -1.2487937e-19)
(159.18627 52.78919 -4.5260277e-20)
(160.10077 52.742386 0)
(160.97312 52.691795 5.3346077e-20)
(161.78688 52.632364 -1.1613062e-19)
(162.51765 52.554456 1.2609538e-19)
(163.20757 52.477465 -6.8548327e-20)
(163.85241 52.401021 -1.4875241e-19)
(164.447 52.321596 -8.0788834e-20)
(165.0087 52.246273 8.7746346e-20)
(165.52012 52.171911 -9.5297835e-20)
(165.97841 52.095131 1.0347696e-19)
(166.41173 52.024584 -1.1248517e-19)
(166.81739 51.962488 -1.2200813e-19)
(167.18101 51.901337 1.9882538e-19)
(167.52136 51.849493 2.1572187e-19)
(167.84467 51.80592 -7.8122848e-20)
(168.1433 51.769889 3.3232572e-23)
(168.41182 51.736899 1.3797424e-19)
(168.66881 51.71421 -1.9982434e-19)
(168.91857 51.702411 -5.42242e-20)
(169.13888 51.694861 -2.9426177e-20)
(169.32837 51.687267 0)
(169.50084 51.686553 0)
(169.67128 51.695144 -3.7613589e-20)
(169.83695 51.713143 2.0399839e-20)
(169.98681 51.736571 0)
(170.12846 51.776592 0)
(170.26489 51.815302 -2.607291e-20)
(170.40793 51.775838 2.0541595e-24)
(170.40757 51.730457 0)
(169.48239 51.422323 -5.480896e-19)
(164.87936 49.828394 1.1536292e-18)
(157.7765 47.608587 -1.580452e-22)
(151.94874 45.808844 -6.7089209e-19)
(146.84759 44.230149 7.2524006e-19)
(142.24577 42.804111 -8.0850859e-19)
(138.03625 41.509688 1.3430612e-20)
(134.15457 40.326461 -9.2687857e-19)
(130.54853 39.237795 9.9181424e-19)
(127.18176 38.23218 1.085603e-18)
(124.02302 37.299213 -1.1695012e-18)
(121.04824 36.430485 0)
(118.23814 35.619011 0)
(115.57642 34.858617 0)
(113.04808 34.14322 1.5543745e-18)
(110.63854 33.46661 -1.6706034e-18)
(108.33079 32.825315 -3.5049597e-21)
(106.11495 32.212506 1.922941e-18)
(103.98061 31.623915 -2.0618113e-18)
(101.91684 31.055809 4.3215339e-21)
(99.912836 30.504389 2.3158186e-21)
(97.958186 29.965986 -2.536135e-18)
(96.042456 29.437026 2.7180346e-18)
(94.155227 28.914036 0)
(92.285975 28.393581 0)
(90.423586 27.872117 3.3556597e-18)
(88.55687 27.346108 -7.205684e-18)
(86.673739 26.811785 3.8684016e-18)
(84.760478 26.264911 0)
(82.802252 25.7009 4.4791644e-18)
(80.781712 25.114393 -9.666057e-18)
(78.676777 24.498566 1.0444432e-17)
(76.459046 23.844608 -5.6553178e-18)
(74.091022 23.140816 2.7330017e-25)
(71.521549 22.371149 0)
(68.679835 21.513274 0)
(65.46623 20.535642 0)
(61.737526 19.392808 8.8829012e-18)
(57.292189 18.020466 -9.8492527e-18)
(51.859498 16.332632 1.0939924e-17)
(45.145059 14.235566 -2.4235072e-17)
(37.071491 11.703871 1.3302501e-17)
(28.176581 8.9063299 0)
(19.368349 6.1294936 -4.6875449e-22)
(11.158645 3.5355466 1.6228723e-17)
(3.6110492 1.1457576 -1.5482448e-17)
(115.45813 37.564402 -7.475414e-21)
(116.91021 38.599694 1.0556712e-18)
(118.40451 39.688021 -1.1648824e-18)
(119.91661 40.743978 1.2890492e-18)
(121.54979 41.784608 -1.1044317e-20)
(123.19974 42.791006 6.0843064e-21)
(124.911 43.778133 -8.540577e-19)
(126.63607 44.760199 9.4485363e-19)
(128.40689 45.653849 -1.6060782e-20)
(130.20621 46.593595 1.1352764e-18)
(132.00791 47.399094 -6.2624645e-19)
(133.82829 48.222002 1.0561362e-20)
(135.65419 48.935763 7.3751666e-19)
(137.45961 49.637791 7.9330392e-19)
(139.26773 50.251983 5.5812894e-23)
(141.03701 50.828476 1.5037378e-20)
(142.76033 51.312264 -5.4030023e-19)
(144.46281 51.75476 -1.1248122e-18)
(146.12963 52.128973 1.9424511e-20)
(147.70697 52.424671 6.7857165e-19)
(149.2797 52.684343 -8.1155782e-23)
(150.75842 52.881824 3.7722816e-19)
(152.1763 53.033396 0)
(153.55354 53.159855 -2.3835471e-19)
(154.82821 53.232224 2.2707252e-19)
(156.04323 53.276657 -5.642481e-19)
(157.19348 53.297322 -5.7536197e-19)
(158.27207 53.29046 0)
(159.27791 53.268364 0)
(160.20254 53.227204 0)
(161.0869 53.181152 0)
(161.91233 53.126544 -5.8299291e-20)
(162.65345 53.053345 -1.2649367e-19)
(163.35222 52.981235 -6.8609051e-20)
(164.00501 52.910538 1.493536e-19)
(164.60615 52.836964 8.1121162e-20)
(165.17012 52.76677 -1.7615707e-19)
(165.68582 52.69836 7.6724609e-23)
(166.1487 52.627873 1.0385392e-19)
(166.58105 52.563136 0)
(166.98762 52.505987 0)
(167.35383 52.452278 -6.6529594e-20)
(167.6882 52.402279 1.4428095e-19)
(168.00237 52.362007 -1.5682119e-19)
(168.28513 52.325162 4.2558459e-20)
(168.53976 52.2946 4.6198114e-20)
(168.77755 52.272883 0)
(168.99341 52.257748 0)
(169.19429 52.250664 0)
(169.38779 52.255481 0)
(169.56416 52.26618 0)
(169.70817 52.277824 -3.774221e-20)
(169.83171 52.293729 -2.0489105e-20)
(169.95253 52.319875 3.556392e-19)
(170.06581 52.340808 -7.7203288e-19)
(170.16058 52.379715 8.6398704e-19)
(170.22443 52.459915 -4.4016547e-19)
(170.26189 52.477409 4.9223843e-19)
(169.5773 52.264096 -5.508302e-19)
(164.72839 50.740953 5.8409389e-19)
(157.5359 48.400016 -6.1581204e-19)
(151.6613 46.564638 1.0752963e-20)
(146.50267 44.972324 1.1556734e-20)
(141.83928 43.541961 -4.931263e-24)
(137.58045 42.242785 1.3441671e-20)
(133.65453 41.054054 0)
(130.01113 39.957284 0)
(126.61597 38.940004 8.4401162e-21)
(123.43339 37.989497 1.8187458e-20)
(120.43755 37.09746 0)
(117.60785 36.256736 -5.2736488e-21)
(114.92744 35.461703 0)
(112.38171 34.70793 0)
(109.95875 33.992109 0)
(107.65047 33.30822 3.5205136e-21)
(105.4404 32.653792 3.7772188e-21)
(103.31417 32.024413 0)
(101.25944 31.415831 0)
(99.264927 30.824448 0)
(97.320081 30.246976 2.4970408e-21)
(95.414455 29.680167 2.676391e-21)
(93.537735 29.120804 0)
(91.679642 28.565681 0)
(89.829441 28.011458 0)
(87.976309 27.454766 0)
(86.108535 26.891966 1.9038181e-21)
(84.21299 26.318982 0)
(82.275696 25.731465 1.1012072e-21)
(80.280487 25.124375 0)
(78.206875 24.491316 -1.2828475e-21)
(76.028637 23.82408 0)
(73.711244 23.111824 -6.1831155e-18)
(71.207284 22.33963 6.7394356e-18)
(68.450041 21.486465 9.006548e-22)
(65.34294 20.521858 0)
(61.742516 19.400506 0)
(57.440297 18.056897 4.9996811e-25)
(52.155392 16.402096 0)
(45.585736 14.341016 7.4310078e-22)
(37.634398 11.843019 -8.1526904e-22)
(28.795478 9.0636522 4.4060331e-22)
(19.929641 6.27422 -4.6967955e-22)
(11.551372 3.6371568 -4.9646729e-22)
(3.7620766 1.1845482 -1.5540612e-17)
(115.38934 37.65172 -1.9075104e-18)
(116.83579 38.695388 -8.191659e-21)
(118.32249 39.796249 1.1775229e-18)
(119.83112 40.860882 1.2689447e-18)
(121.46122 41.910446 0)
(123.10672 42.931 -6.0439605e-21)
(124.81389 43.929655 8.6525149e-19)
(126.53612 44.928331 -9.5010211e-19)
(128.30343 45.836131 8.0325617e-21)
(130.10323 46.79395 8.0451937e-23)
(131.90555 47.615946 6.2563193e-19)
(133.72763 48.457438 -1.0555583e-20)
(135.55685 49.188324 0)
(137.36723 49.907165 1.7873408e-24)
(139.1821 50.539011 4.4015956e-19)
(140.95975 51.133414 -4.6557773e-19)
(142.69303 51.633931 -1.6419307e-20)
(144.40644 52.092109 7.1667514e-23)
(146.08302 52.484522 0)
(147.67383 52.795555 -3.1868551e-19)
(149.26062 53.069309 -8.2293848e-23)
(150.75241 53.281909 -4.2855319e-19)
(152.18558 53.443359 2.1947616e-19)
(153.5756 53.582283 2.0915246e-19)
(154.86425 53.664356 2.6004476e-19)
(156.09316 53.717702 3.1834365e-19)
(157.2571 53.745747 -3.8253761e-20)
(158.35033 53.746572 2.09101e-19)
(159.36999 53.731693 1.8179392e-19)
(160.30777 53.698573 1.9761513e-19)
(161.20323 53.658629 -2.1479816e-19)
(162.03934 53.610254 -1.1672259e-19)
(162.78982 53.541485 6.338692e-20)
(163.49577 53.472814 2.0674067e-19)
(164.1548 53.40394 7.4832488e-20)
(164.76234 53.332159 8.1209497e-20)
(165.33274 53.263704 -2.2932741e-23)
(165.85076 53.19548 1.9197713e-19)
(166.31343 53.1244 -1.0429596e-19)
(166.74747 53.059677 5.6585684e-20)
(167.14993 53.003402 -1.2287768e-19)
(167.50784 52.948033 2.6696492e-19)
(167.83786 52.901763 -2.8990653e-19)
(168.14692 52.863749 1.5727274e-19)
(168.42571 52.831483 -1.2817468e-19)
(168.67071 52.801913 4.6336435e-20)
(168.90188 52.781715 0)
(169.12037 52.770617 2.1841145e-19)
(169.30009 52.758272 -2.3720204e-19)
(169.44596 52.745774 2.5733085e-19)
(169.58276 52.74311 -1.2078784e-22)
(169.71989 52.750823 3.7788846e-20)
(169.83915 52.760071 -3.4967972e-19)
(169.93989 52.768733 3.570703e-19)
(170.03285 52.789703 -2.4332398e-20)
(170.1158 52.81193 -8.1491319e-19)
(170.1925 52.794052 4.421806e-19)
(170.14121 52.774717 1.5472135e-20)
(169.3872 52.581675 2.2503411e-24)
(165.07726 51.099809 0)
(157.7141 48.670438 2.0052832e-20)
(151.65181 46.714857 -2.1738654e-20)
(146.40016 45.019544 -1.1694506e-20)
(141.67656 43.524274 1.2598715e-20)
(137.35268 42.166603 8.5709636e-19)
(133.36629 40.927626 -9.306756e-19)
(129.66178 39.787466 7.8752117e-21)
(126.19583 38.723971 -8.4748954e-21)
(122.9471 37.729433 1.1591448e-18)
(119.88974 36.798091 -1.2578729e-18)
(117.00061 35.921793 -1.3481782e-18)
(114.26087 35.093137 1.4567606e-18)
(111.6556 34.307189 -1.5685105e-18)
(109.17039 33.560098 1.0094008e-23)
(106.79166 32.847401 1.8147713e-18)
(104.50589 32.164975 3.8038326e-21)
(102.30313 31.508649 2.0885757e-18)
(100.17322 30.874932 4.0251926e-24)
(98.105457 30.260222 -2.3975028e-18)
(96.089349 29.661022 -2.5747047e-18)
(94.114514 29.073906 2.7566174e-18)
(92.170645 28.495503 -2.9523397e-18)
(90.247323 27.922437 3.1702639e-18)
(88.333469 27.351159 -3.3990823e-18)
(86.41776 26.77807 -1.3163205e-23)
(84.487841 26.199279 3.9158421e-18)
(82.529783 25.610428 0)
(80.528714 25.006869 4.5381746e-18)
(78.467633 24.3833 -4.8928257e-18)
(76.32539 23.733138 0)
(74.075359 23.048091 -5.7237566e-18)
(71.683111 22.317422 6.2135752e-18)
(69.102494 21.526718 6.7711581e-18)
(66.270327 20.656222 -1.4819532e-17)
(63.097487 19.678026 8.1453903e-18)
(59.453778 18.551328 8.9929302e-18)
(55.152317 17.21752 -9.9743371e-18)
(49.941013 15.597759 1.1075955e-17)
(43.525355 13.599601 -1.2261801e-17)
(35.810424 11.193196 1.345162e-17)
(27.286466 8.5317426 -2.9063598e-17)
(18.8017 5.8806335 3.0969562e-17)
(10.85005 3.3946109 -3.274764e-17)
(3.516056 1.1004452 3.1237769e-17)
(115.32132 37.736133 7.2428674e-21)
(116.76121 38.787975 -1.0526419e-18)
(118.23996 39.901818 -1.1538248e-18)
(119.74667 40.973723 -1.2782788e-18)
(121.37158 42.033696 5.4913198e-21)
(123.01388 43.066137 -7.7259292e-19)
(124.71539 44.08012 -8.4285603e-19)
(126.43678 45.09385 -7.3050143e-21)
(128.20044 46.016486 0)
(130.00026 46.992048 -1.1232526e-18)
(131.80222 47.831008 -9.5943543e-21)
(133.62595 48.690455 6.842956e-19)
(135.45731 49.439795 -1.1491792e-20)
(137.27277 50.174577 -1.5991468e-18)
(139.0923 50.826845 -8.8052738e-19)
(140.87972 51.437911 4.8083331e-19)
(142.62112 51.957653 0)
(144.34437 52.433159 1.1451476e-18)
(146.03233 52.844711 -1.9474014e-20)
(147.63511 53.171661 7.9264495e-23)
(149.23432 53.463756 8.3432391e-23)
(150.74216 53.689248 -3.7862509e-19)
(152.18671 53.867278 -1.9253264e-19)
(153.59242 54.018722 -2.9975395e-20)
(154.89744 54.11392 -2.6064346e-19)
(156.14079 54.178368 3.1887147e-19)
(157.31984 54.21631 2.6991182e-19)
(158.42491 54.226004 -1.6775123e-19)
(159.45408 54.21964 -4.1019435e-19)
(160.40175 54.192819 -1.4867706e-19)
(161.30932 54.158406 1.4086694e-22)
(162.15783 54.115017 -5.841746e-20)
(162.91978 54.050467 6.3692072e-20)
(163.63579 53.986108 -1.3834324e-19)
(164.30357 53.921409 2.2526405e-19)
(164.91845 53.853841 -8.1766518e-20)
(165.49176 53.788065 -8.8720925e-20)
(166.01497 53.724007 -9.7675961e-23)
(166.4821 53.656256 -1.018897e-22)
(166.91453 53.593494 -1.1360508e-19)
(167.31677 53.536992 -1.233052e-19)
(167.67519 53.482089 1.3401162e-19)
(167.99836 53.429778 7.2748356e-20)
(168.29885 53.386259 1.5784179e-19)
(168.56608 53.34644 -8.5827931e-20)
(168.8011 53.310785 -2.3269634e-19)
(169.01709 53.282762 0)
(169.21092 53.260199 -5.4804963e-20)
(169.39035 53.245984 2.974485e-20)
(169.55556 53.237084 0)
(169.69269 53.226962 -2.8036942e-19)
(169.7973 53.213674 3.4245821e-19)
(169.89177 53.207189 3.509421e-19)
(169.98189 53.208169 -3.5857974e-19)
(170.06238 53.205256 1.0823228e-23)
(170.12869 53.207424 3.9580439e-19)
(170.16774 53.237142 1.4231815e-20)
(170.17302 53.229938 -9.9444292e-19)
(169.60534 53.02676 1.0973051e-18)
(165.47058 51.688617 -7.6369017e-23)
(158.09057 49.219799 -6.6453364e-19)
(151.97879 47.240072 -6.8770339e-19)
(146.66049 45.517493 7.678473e-19)
(141.84278 43.963737 -8.17035e-19)
(137.43181 42.55422 8.8219676e-19)
(133.36547 41.258 9.3523788e-19)
(129.60606 40.063757 -1.0288196e-18)
(126.1135 38.964214 0)
(122.84719 37.944866 1.1899968e-18)
(119.77539 36.990138 -4.9623511e-21)
(116.87154 36.089187 -1.3573473e-18)
(114.10945 35.236329 0)
(111.47557 34.425518 -6.140044e-21)
(108.95837 33.651856 -1.6948119e-18)
(106.54786 32.912167 1.8183022e-18)
(104.23573 32.203242 -3.8108638e-21)
(102.01083 31.522101 0)
(99.86293 30.865837 0)
(97.779367 30.229955 -4.4531418e-25)
(95.748576 29.610739 -2.5848005e-18)
(93.760265 29.004977 -2.7111818e-21)
(91.804585 28.409472 5.9416758e-18)
(89.871537 27.820963 -3.1874778e-18)
(87.950135 27.235897 0)
(86.029083 26.650661 -3.6711801e-18)
(84.096265 26.061418 3.8394657e-21)
(82.138106 25.463881 4.2386474e-18)
(80.140154 24.853496 1.1137945e-21)
(78.085807 24.225047 -1.201385e-21)
(75.954306 23.572041 0)
(73.719501 22.886317 0)
(71.347478 22.157299 -6.2488146e-18)
(68.792456 21.370715 -8.4180144e-22)
(65.991068 20.506814 7.4552777e-18)
(62.852586 19.537319 -8.1966904e-18)
(59.242886 18.420355 5.4287771e-22)
(54.971634 17.096649 6.0342242e-22)
(49.779845 15.485521 1.1128185e-17)
(43.378141 13.496855 0)
(35.678796 11.103294 -8.6148539e-26)
(27.176408 8.4587481 4.4529565e-22)
(18.718033 5.826958 0)
(10.796442 3.361469 0)
(3.4964364 1.0888342 0)
(115.25014 37.822052 1.8689123e-18)
(116.68119 38.882856 2.0848617e-18)
(118.15476 40.009838 1.1387792e-18)
(119.65873 41.089893 0)
(121.27903 42.161889 0)
(122.91798 43.204551 7.6979159e-19)
(124.61521 44.232605 0)
(126.33467 45.261311 -7.2581581e-21)
(128.09341 46.199919 1.0301527e-18)
(129.89377 47.191398 0)
(131.69487 48.049503 0)
(133.5205 48.926045 -1.3462182e-18)
(135.35468 49.694368 -7.251748e-19)
(137.17475 50.445849 7.9306916e-19)
(139.0003 51.115844 7.6406292e-24)
(140.79552 51.744869 -4.6598147e-19)
(142.54661 52.28188 -1.6442761e-20)
(144.28133 52.774021 -5.5523384e-19)
(145.97923 53.203042 -1.9570817e-20)
(147.5935 53.547637 3.6201248e-19)
(149.2071 53.853509 -3.9462747e-19)
(150.72745 54.095687 4.2995926e-19)
(152.18694 54.285062 -5.5086479e-20)
(153.60705 54.447839 2.3996657e-19)
(154.92596 54.55386 9.9133517e-23)
(156.18406 54.627774 -2.4868561e-19)
(157.37671 54.674699 -3.0910302e-19)
(158.49565 54.693805 4.1976811e-20)
(159.53902 54.695439 3.1985747e-19)
(160.50127 54.67617 0)
(161.42114 54.646624 1.6219722e-19)
(162.28076 54.608628 1.9534552e-22)
(163.05196 54.548035 6.3882183e-20)
(163.77476 54.4861 -1.3866121e-19)
(164.44884 54.422875 -7.5417046e-20)
(165.06982 54.355744 8.1936274e-20)
(165.64952 54.290249 8.8889441e-20)
(166.17521 54.223681 -9.6685075e-20)
(166.64365 54.152649 -1.0499898e-19)
(167.08003 54.086969 5.701874e-20)
(167.48194 54.027978 0)
(167.83782 53.969151 0)
(168.16123 53.916532 -7.2946146e-20)
(168.46061 53.870655 -7.9199391e-20)
(168.7252 53.826987 8.6017852e-20)
(168.95463 53.784664 1.867165e-19)
(169.16827 53.748729 -3.5485088e-19)
(169.36461 53.718588 4.9525898e-19)
(169.52095 53.683444 -2.9984068e-20)
(169.64954 53.651008 -2.5940144e-19)
(169.77619 53.62898 0)
(169.89945 53.614374 -3.82029e-20)
(169.9954 53.593544 -2.0718613e-20)
(170.07687 53.572431 0)
(170.15373 53.558355 1.4288272e-23)
(170.22044 53.543385 -3.9732595e-19)
(170.28407 53.493387 4.6002295e-19)
(170.23366 53.449154 -1.5608301e-20)
(169.66608 53.27209 0)
(166.2339 52.076409 0)
(158.80458 49.575332 0)
(152.49245 47.490457 -7.0171867e-19)
(147.09649 45.732098 1.4951903e-18)
(142.24763 44.156599 -8.3372136e-19)
(137.81735 42.72405 -8.7251233e-19)
(133.72483 41.407678 1.91244e-18)
(129.91414 40.187599 -1.0308285e-18)
(126.34831 39.050889 -1.1017802e-18)
(123.00189 37.988982 1.1955217e-18)
(119.85425 36.994864 5.0252834e-21)
(116.88673 36.06359 0)
(114.08466 35.187037 0)
(111.42406 34.358039 1.5922138e-18)
(108.88656 33.570186 -3.3996131e-18)
(106.45654 32.818027 1.8315672e-18)
(104.11957 32.096697 0)
(101.8622 31.401696 2.1033099e-18)
(99.671524 30.728303 -2.2581597e-18)
(97.538657 30.074699 -2.3540118e-21)
(95.456275 29.436989 2.5230578e-21)
(93.4157 28.812968 2.7707017e-18)
(91.40794 28.199639 -9.8220949e-25)
(89.423963 27.593936 -3.1942296e-18)
(87.4521 26.992274 0)
(85.480282 26.390777 1.0318293e-24)
(83.496998 25.785702 3.9564503e-18)
(81.488875 25.172812 -2.0722484e-21)
(79.441398 24.547525 -9.1649322e-18)
(77.337721 23.904541 1.1995919e-21)
(75.156725 23.237257 1.0674888e-17)
(72.87206 22.537463 6.7564695e-24)
(70.450238 21.794754 -6.2746705e-18)
(67.846989 20.995384 -6.8347387e-18)
(65.0022 20.120681 7.478323e-18)
(61.831212 19.144344 -8.2201617e-18)
(58.209649 18.027805 1.8140437e-17)
(53.952835 16.713657 -1.0050954e-17)
(48.807201 15.123166 -1.1159914e-17)
(42.486665 13.167529 2.4714846e-17)
(34.90114 10.818715 -4.1137611e-22)
(26.538962 8.2280566 -2.9300448e-17)
(18.243208 5.6570228 1.5612526e-17)
(10.50168 3.2570215 1.6509524e-17)
(3.3932225 1.0526774 -1.574824e-17)
(115.17652 37.904978 0)
(116.60053 38.973983 1.0321755e-18)
(118.06861 40.11393 0)
(119.57202 41.200895 -4.9184488e-21)
(121.18733 42.286218 5.4454537e-21)
(122.8232 43.340325 0)
(124.51375 44.383555 0)
(126.23183 45.426557 9.2837851e-19)
(127.98583 46.380984 -1.0196742e-18)
(129.78576 47.389151 -1.119288e-18)
(131.58613 48.265458 0)
(133.41332 49.159417 6.828247e-19)
(135.24897 49.947728 1.4606764e-18)
(137.07388 50.714652 0)
(138.90334 51.405454 4.402579e-19)
(140.7079 52.051136 4.811006e-19)
(142.46708 52.60849 0)
(144.21234 53.118162 5.7345966e-19)
(145.92094 53.567158 0)
(147.54702 53.928401 -3.4122655e-19)
(149.17224 54.253555 3.4877667e-19)
(150.70877 54.510075 2.5374998e-20)
(152.18096 54.715289 -1.9315958e-19)
(153.6154 54.892723 -2.705152e-19)
(154.9507 55.011774 2.6163954e-19)
(156.22285 55.097452 2.847555e-19)
(157.43032 55.154272 3.0997041e-19)
(158.56156 55.182105 4.2076977e-20)
(159.6154 55.192008 -1.8343372e-19)
(160.58844 55.179607 -4.9879088e-20)
(161.52052 55.156838 2.1661532e-19)
(162.39294 55.124308 8.1437226e-23)
(163.17671 55.067896 0)
(163.91102 55.009703 1.0438086e-22)
(164.5952 54.949423 -1.5123745e-19)
(165.22539 54.884892 0)
(165.81035 54.820178 -1.7836417e-19)
(166.34405 54.755922 9.6996954e-20)
(166.81859 54.685619 0)
(167.25472 54.618131 0)
(167.65746 54.55497 0)
(168.01385 54.490983 -2.0223118e-19)
(168.33336 54.428444 2.1977836e-19)
(168.62935 54.37264 7.9542883e-20)
(168.8918 54.32018 -2.1577144e-19)
(169.11947 54.268697 -4.6728836e-20)
(169.32796 54.223553 2.0350759e-19)
(169.51727 54.182916 2.2085665e-19)
(169.68919 54.148329 -2.0989333e-19)
(169.83711 54.111057 0)
(169.95443 54.070123 2.8249208e-19)
(170.0492 54.027867 -3.0672961e-19)
(170.14165 53.996054 2.0811113e-20)
(170.22572 53.967076 3.612366e-19)
(170.30063 53.93553 -3.6762742e-19)
(170.36333 53.907368 -1.9347016e-23)
(170.4063 53.902157 4.7607481e-19)
(170.4222 53.876767 -1.0021702e-18)
(170.01935 53.69625 5.4457015e-19)
(166.84325 52.653611 -5.7600784e-19)
(159.59867 50.176655 1.2989963e-18)
(153.16674 48.016039 -1.4203547e-18)
(147.70378 46.207243 7.7470327e-19)
(142.78611 44.582517 1.2887722e-20)
(138.29202 43.105878 -1.391743e-20)
(134.14974 41.752256 9.6065733e-19)
(130.30849 40.503379 -1.0357039e-18)
(126.72639 39.344141 -1.124492e-18)
(123.36781 38.261882 -9.3632965e-21)
(120.20295 37.246269 2.5851104e-18)
(117.20755 36.288969 5.4072152e-21)
(114.36181 35.383508 -1.4937529e-18)
(111.64995 34.524455 -6.2644026e-21)
(109.05866 33.707117 -2.527103e-24)
(106.57608 32.927244 -3.6114282e-21)
(104.1911 32.180858 0)
(101.89309 31.464199 -4.1506312e-21)
(99.671635 30.773549 2.278843e-18)
(97.516518 30.104492 -3.696032e-24)
(95.416266 29.454538 -2.608636e-18)
(93.359625 28.819072 0)
(91.335399 28.194475 2.9877285e-18)
(89.332379 27.577264 -3.2143412e-18)
(87.341299 26.96397 0)
(85.352688 26.352016 3.6924075e-18)
(83.355292 25.737578 -3.9614126e-18)
(81.335952 25.116476 1.0404973e-21)
(79.280471 24.48425 -4.5870782e-18)
(77.172455 23.835829 9.8970847e-18)
(74.990653 23.164592 -5.3525191e-18)
(72.707772 22.462024 7.0754836e-22)
(70.289358 21.717459 -6.2992885e-18)
(67.690012 20.916833 6.8633376e-18)
(64.848143 20.041071 0)
(61.676818 19.063224 0)
(58.049572 17.944169 0)
(53.783073 16.627162 0)
(48.626716 15.034642 0)
(42.299291 13.07958 0)
(34.717104 10.736041 0)
(26.373394 8.1565169 1.4707653e-17)
(18.111098 5.6017169 -1.5673882e-17)
(10.415011 3.2216393 0)
(3.3611935 1.0399252 -2.4131948e-22)
(116.52148 39.070951 -2.0508623e-18)
(117.98259 40.221458 0)
(119.48291 41.316679 0)
(121.09272 42.415227 1.3800696e-18)
(122.72512 43.478169 5.9774594e-21)
(124.40933 44.536793 -8.4123756e-19)
(126.12576 45.593269 -1.8510361e-18)
(127.87419 46.565373 -7.9295662e-21)
(129.67522 47.588226 1.1255641e-18)
(131.47365 48.485505 0)
(133.30263 49.395416 0)
(135.14047 50.203566 -7.4687321e-19)
(136.96913 50.987578 2.5150593e-20)
(138.8043 51.696807 -5.7785644e-23)
(140.61682 52.360227 -6.2650846e-23)
(142.38531 52.935556 -1.6456881e-20)
(144.14173 53.462806 -5.7386701e-19)
(145.86087 53.92867 -1.9529931e-20)
(147.4971 54.308633 2.1387424e-20)
(149.13599 54.649115 -3.9560027e-19)
(150.6854 54.921843 2.5412862e-20)
(152.17138 55.14096 6.6328261e-19)
(153.62176 55.328886 -2.7082247e-19)
(154.97133 55.459865 -2.294374e-19)
(156.25891 55.555783 -1.2958206e-22)
(157.48036 55.62294 -3.1050341e-19)
(158.62505 55.661607 -1.2670114e-19)
(159.69314 55.680469 -4.5986113e-20)
(160.68146 55.675333 4.989289e-20)
(161.62714 55.65661 -2.7171309e-19)
(162.51203 55.628391 5.9153203e-20)
(163.30604 55.575609 4.6590316e-23)
(164.04773 55.519292 -1.5488179e-23)
(164.73943 55.460276 -1.2185652e-22)
(165.37665 55.395558 -1.6479245e-19)
(165.96891 55.330338 8.954572e-20)
(166.5066 55.262337 -9.7184165e-20)
(166.98559 55.187858 1.0570169e-19)
(167.42967 55.116962 -1.1468542e-19)
(167.8377 55.050074 2.4924355e-19)
(168.19915 54.982136 -1.3533529e-19)
(168.52441 54.916392 0)
(168.82383 54.855697 -1.5951263e-19)
(169.0856 54.793882 3.8979693e-19)
(169.3123 54.732274 -1.4111435e-19)
(169.52178 54.674642 -2.5524138e-19)
(169.71089 54.620795 5.5506211e-20)
(169.86576 54.562205 4.5125999e-19)
(170.00189 54.51074 -2.9394861e-19)
(170.13591 54.467604 3.189639e-19)
(170.25662 54.427055 -9.3635111e-23)
(170.34723 54.376567 -3.341427e-19)
(170.43008 54.328943 -2.2653382e-20)
(170.50912 54.286527 0)
(170.57878 54.245621 -2.6703128e-20)
(170.64675 54.175154 -1.4490191e-20)
(170.62001 54.111981 0)
(170.24056 53.966808 0)
(167.76718 53.096696 -1.6860855e-23)
(160.73168 50.690243 -2.0358721e-20)
(154.06571 48.430161 -6.9646584e-19)
(148.52338 46.590308 4.745871e-23)
(143.5647 44.943753 8.2820401e-19)
(139.03444 43.445224 0)
(134.85054 42.06764 1.5078347e-20)
(130.96019 40.792678 8.1246665e-21)
(127.325 39.60691 -8.7534946e-21)
(123.9145 38.499581 1.2070295e-18)
(120.70286 37.461479 -1.3038443e-18)
(117.66745 36.484507 -5.4580444e-21)
(114.78804 35.561442 -1.5010025e-18)
(112.04637 34.685858 1.6122059e-18)
(109.42651 33.852221 1.7275524e-18)
(106.91442 33.055693 -3.6403328e-21)
(104.49737 32.291933 -1.9924977e-18)
(102.16395 31.557055 4.1744121e-21)
(99.903627 30.847496 -4.4700642e-21)
(97.706582 30.159949 0)
(95.563629 29.491265 2.5687305e-21)
(93.465634 28.838344 2.8140805e-18)
(91.403404 28.198025 -3.0185178e-18)
(89.367463 27.567083 0)
(87.34738 26.942355 -1.6850395e-21)
(85.332557 26.319876 0)
(83.309923 25.695712 -1.9434595e-21)
(81.264949 25.065242 -4.2760088e-18)
(79.182152 24.423561 2.3310659e-24)
(77.043792 23.765049 9.9351252e-18)
(74.828629 23.083075 -5.371063e-18)
(72.510988 22.369681 -5.8173249e-18)
(70.057769 21.614621 7.6875863e-22)
(67.425142 20.804172 6.8628069e-18)
(64.553656 19.919983 -7.5099483e-18)
(61.359534 18.936151 1.6506561e-17)
(57.718233 17.814127 -9.1084876e-18)
(53.448912 16.498012 0)
(48.302376 14.910798 -1.1241485e-17)
(41.996855 12.965406 -4.5818026e-25)
(34.446646 10.635328 2.732372e-17)
(26.143544 8.0723792 -2.9528459e-17)
(17.932976 5.5376162 1.5734416e-17)
(10.300441 3.1810034 1.6638894e-17)
(3.3196562 1.0254074 -1.5870344e-17)
(116.44212 39.166043 1.0186733e-18)
(117.89531 40.324618 8.8263547e-21)
(119.39383 41.427217 -9.7331392e-21)
(120.99868 42.54051 -1.3624674e-18)
(122.62658 43.614166 -5.9517328e-21)
(124.30515 44.687451 8.3145862e-19)
(126.01913 45.758701 9.224722e-19)
(127.76271 46.747254 1.5846523e-20)
(129.56254 47.785576 -8.7218854e-21)
(131.35946 48.702886 6.0191269e-19)
(133.18997 49.629202 6.8099361e-19)
(135.02898 50.458137 -1.1452937e-20)
(136.86201 51.258514 2.5131523e-20)
(138.7011 51.988143 -2.7495505e-20)
(140.52208 52.669395 3.006424e-20)
(142.29864 53.264939 -5.4211974e-19)
(144.06513 53.810547 0)
(145.79538 54.29635 3.1331576e-19)
(147.44246 54.694365 0)
(149.09253 55.053528 7.4568871e-19)
(150.65688 55.34349 -2.5355554e-20)
(152.15745 55.577105 -4.2945139e-23)