/*--------------------------------*- C++ -*----------------------------------*\
| =========                 |                                                 |
| \\      /  F ield         | OpenFOAM: The Open Source CFD Toolbox           |
|  \\    /   O peration     | Version:  2506                                  |
|   \\  /    A nd           | Website:  www.openfoam.com                      |
|    \\/     M anipulation  |                                                 |
\*---------------------------------------------------------------------------*/
FoamFile
{
    version     2.0;
    format      ascii;
    arch        "LSB;label=32;scalar=64";
    class       surfaceScalarField;
    location    "0.002";
    object      phi;
}
// * * * * * * * * * * * * * * * * * * * * * * * * * * * * * * * * * * * * * //

dimensions      [1 0 -1 0 0 0 0];

oriented        oriented;

internalField   nonuniform List<scalar> 
27183
(
-0.068837135
-26.209778
26.21596
-0.075545061
-28.437592
28.4443
-0.082823089
-30.854769
30.862047
-0.090719795
-33.477404
33.4853
-0.099287766
-36.322961
36.331529
-0.108584
-39.41039
39.419687
-0.11867072
-42.760252
42.770338
-0.12962243
-46.394918
46.405863
-0.1415454
-50.339193
50.351064
-0.1550615
-54.624597
54.637568
-59.293549
59.307535
-0.067612504
-26.20352
-0.074402912
-28.430801
-0.08177063
-30.847402
-0.089764484
-33.46941
-0.098437813
-36.314288
-0.10784849
-39.40098
-0.11805942
-42.750041
-0.1291471
-46.383837
-0.14121413
-50.327179
-0.15488695
-54.611458
-59.279368
-0.066917801
-26.197218
-0.073755153
-28.423964
-0.081173576
-30.839983
-0.089222585
-33.461361
-0.09795577
-36.305555
-0.10743126
-39.391504
-0.11771265
-42.739761
-0.12887574
-46.372681
-0.14102986
-50.315077
-0.15475449
-54.598282
-59.265039
-0.060036387
-24.139076
-0.066371953
-26.190882
-0.073245971
-28.41709
-0.080704382
-30.832525
-0.0887967
-33.453269
-0.097576892
-36.296775
-0.1071034
-39.381978
-0.11744011
-42.729424
-0.12866242
-46.361466
-0.14088728
-50.302904
-0.15465988
-54.585072
-59.250596
-0.059537234
-24.13321
-0.065901944
-26.184518
-0.072807738
-28.410184
-0.080300433
-30.825032
-0.088430107
-33.445139
-0.097250724
-36.287954
-0.10682116
-39.372407
-0.11720551
-42.71904
-0.1284804
-46.350198
-0.14075667
-50.290681
-0.1546208
-54.571782
-59.236109
-0.05909148
-24.12732
-0.065482389
-26.178127
-0.072416388
-28.40325
-0.079939857
-30.817509
-0.088102749
-33.436976
-0.09695953
-36.279097
-0.10656908
-39.362798
-0.11699604
-42.708614
-0.12831704
-46.338885
-0.14064355
-50.278407
-0.15456265
-54.558446
-59.221569
-0.052757105
-22.231725
-0.058669982
-24.121407
-0.06508546
-26.171711
-0.072046285
-28.396289
-0.07959871
-30.809956
-0.087793128
-33.428782
-0.096684068
-36.270206
-0.10633078
-39.353151
-0.11679785
-42.698147
-0.12816062
-46.32753
-0.14054101
-50.26608
-0.15447938
-54.545102
-59.206951
-0.052328588
-22.226255
-0.058263402
-24.115472
-0.064702634
-26.165272
-0.071689281
-28.389303
-0.079269785
-30.802376
-0.087494538
-33.420557
-0.096418446
-36.261283
-0.10610089
-39.343469
-0.11660683
-42.687642
-0.12801319
-46.316132
-0.14043532
-50.253712
-0.15443459
-54.531707
-59.192284
-0.051937488
-22.220767
-0.057892358
-24.109517
-0.064353339
-26.158811
-0.071363427
-28.382292
-0.07896944
-30.79477
-0.087222022
-33.412304
-0.096175952
-36.252329
-0.10589105
-39.333754
-0.11643239
-42.677101
-0.12787712
-46.304695
-0.14034222
-50.241301
-0.1543818
-54.518271
-59.177552
-0.046071868
-20.474907
-0.051577225
-22.215261
-0.057550397
-24.103544
-0.064031371
-26.15233
-0.07106327
-28.375261
-0.078692787
-30.78714
-0.086970878
-33.404026
-0.095952574
-36.243347
-0.10569769
-39.324009
-0.1162716
-42.666527
-0.12774976
-46.293224
-0.14025692
-50.228849
-0.15434195
-54.504796
-59.162801
-0.045721696
-20.469819
-0.051242722
-22.20974
-0.057233129
-24.097554
-0.063732656
-26.145831
-0.070784674
-28.368209
-0.078436065
-30.779489
-0.086737785
-33.395724
-0.095745241
-36.234339
-0.10551831
-39.314236
-0.11612252
-42.655924
-0.12763595
-46.281717
-0.14017013
-50.216369
-0.15432352
-54.491259
-59.148032
-0.045393586
-20.464716
-0.050929466
-22.204205
-0.056935856
-24.091547
-0.063452744
-26.139314
-0.070523565
-28.361138
-0.078195451
-30.771817
-0.086519484
-33.3874
-0.095550944
-36.225308
-0.10535022
-39.304436
-0.11598289
-42.645292
-0.12752812
-46.270178
-0.14009289
-50.203859
-0.15428909
-54.477677
-59.133209
-0.045056576
-20.4596
-0.050607561
-22.198654
-0.056630372
-24.085525
-0.063165186
-26.132779
-0.070255436
-28.354047
-0.077948382
-30.764124
-0.086295103
-33.379054
-0.095351447
-36.216252
-0.10517749
-39.29461
-0.11583934
-42.63463
-0.12741501
-46.258608
-0.14001754
-50.191312
-0.15425928
-54.464036
-59.118349
-0.039599355
-18.852058
-0.044729093
-20.45447
-0.050294806
-22.193088
-0.056333725
-24.079486
-0.062885838
-26.126227
-0.069994891
-28.346938
-0.077708206
-30.756411
-0.08607724
-33.370685
-0.095157526
-36.207171
-0.10500971
-39.284758
-0.11569972
-42.623941
-0.12730455
-46.247009
-0.13994769
-50.178723
-0.15420642
-54.450379
-59.103439
-0.039279706
-18.847318
-0.044422104
-20.449328
-0.050001732
-22.187508
-0.056055568
-24.073432
-0.062623976
-26.119658
-0.069750704
-28.339812
-0.077483198
-30.748678
-0.085872916
-33.362295
-0.094975827
-36.198068
-0.10485244
-39.274882
-0.11556912
-42.613224
-0.12720351
-46.235382
-0.13988048
-50.166099
-0.15412687
-54.436744
-59.08844
-0.038979111
-18.842567
-0.044133606
-20.444174
-0.049726144
-22.181916
-0.055794083
-24.067364
-0.062377847
-26.113075
-0.069521121
-28.332668
-0.077271603
-30.740928
-0.085680876
-33.353886
-0.094804909
-36.188944
-0.10470459
-39.264982
-0.11544626
-42.602483
-0.12710872
-46.223726
-0.13981282
-50.153446
-0.15409335
-54.423077
-59.073395
-0.033934989
-17.362044
-0.038696002
-18.837806
-0.043861716
-20.439008
-0.049466539
-22.176311
-0.055547765
-24.061283
-0.062145819
-26.106476
-0.069304826
-28.325509
-0.077072293
-30.73316
-0.085499992
-33.345458
-0.094644019
-36.1798
-0.10456531
-39.255061
-0.1153304
-42.591719
-0.12701818
-46.212046
-0.1397475
-50.140768
-0.15408194
-54.409356
-59.058335
-0.033657897
-17.357647
-0.038428751
-18.833035
-0.043605119
-20.433831
-0.049221538
-22.170694
-0.055315236
-24.055189
-0.061926954
-26.099865
-0.069100689
-28.318336
-0.076884139
-30.725377
-0.085329199
-33.337013
-0.094492093
-36.170638
-0.10443382
-39.245119
-0.11522108
-42.580932
-0.12693224
-46.200343
-0.13968676
-50.128065
-0.15406556
-54.395587
-59.043259
-0.033387199
-17.353241
-0.038167641
-18.828255
-0.043354477
-20.428645
-0.048982052
-22.165067
-0.055088035
-24.049083
-0.061713102
-26.09324
-0.06890119
-28.311148
-0.076700309
-30.717578
-0.085162355
-33.328551
-0.094343612
-36.161456
-0.10430533
-39.235157
-0.11511428
-42.570124
-0.12684891
-46.188616
-0.13962918
-50.115338
-0.15404353
-54.381775
-59.028166
-0.028682594
-15.989711
-0.033097948
-17.348826
-0.037888669
-18.823464
-0.043086536
-20.423447
-0.04872627
-22.159427
-0.054845352
-24.042964
-0.061484585
-26.0866
-0.068688091
-28.303944
-0.076503945
-30.709762
-0.084984041
-33.320071
-0.094185041
-36.152255
-0.10416814
-39.225174
-0.11500025
-42.559292
-0.12676061
-46.176864
-0.13956915
-50.102582
-0.15400881
-54.367936
-59.013045
-0.028399109
-15.985633
-0.032823426
-17.344402
-0.037623862
-18.818664
-0.042832321
-20.418238
-0.048483462
-22.153776
-0.054614955
-24.036833
-0.0612676
-26.079948
-0.068485772
-28.296726
-0.07631742
-30.70193
-0.084814878
-33.311573
-0.094034556
-36.143036
-0.10403784
-39.215171
-0.11489195
-42.548438
-0.12667576
-46.165088
-0.13951302
-50.0898
-0.1539502
-54.354098
-0.028133237
-15.981547
-0.032566014
-17.339969
-0.037375539
-18.813854
-0.042593838
-20.41302
-0.04825576
-22.148114
-0.054398972
-24.030689
-0.061064278
-26.073283
-0.068296114
-28.289494
-0.076142679
-30.694083
-0.084656182
-33.30306
-0.093893346
-36.133798
-0.10391569
-39.205149
-0.1147905
-42.537564
-0.12659721
-46.153289
-0.13945942
-50.076994
-54.34025
-0.023791152
-14.725774
-0.027883848
-15.977455
-0.032324523
-17.335528
-0.037142571
-18.809036
-0.042370209
-20.407792
-0.048042159
-22.142442
-0.054196214
-24.024535
-0.060873429
-26.066605
-0.068118176
-28.282249
-0.075978718
-30.686223
-0.084507326
-33.294531
-0.093760911
-36.124545
-0.10380112
-39.195109
-0.11469516
-42.526671
-0.12652288
-46.141468
-0.13940699
-50.064167
-54.326371
-0.02355035
-14.721995
-0.027650003
-15.973355
-0.032098011
-17.33108
-0.036924145
-18.80421
-0.042160432
-20.402556
-0.047841846
-22.136761
-0.05400618
-24.018371
-0.060694425
-26.059917
-0.067951207
-28.274993
-0.075824785
-30.678349
-0.084367683
-33.285988
-0.093636687
-36.115276
-0.10369356
-39.185052
-0.11460579
-42.515759
-0.12645299
-46.129629
-0.13935562
-50.051319
-54.312456
-0.019540323
-13.565179
-0.023324652
-14.718211
-0.027430573
-15.969249
-0.031885538
-17.326625
-0.036719193
-18.799376
-0.041963691
-20.397312
-0.047653942
-22.13107
-0.053827866
-24.012197
-0.060526578
-26.053218
-0.067794704
-28.267724
-0.07568063
-30.670463
-0.084236815
-33.277432
-0.093520234
-36.105992
-0.10359284
-39.174979
-0.1145221
-42.50483
-0.12638804
-46.117771
-0.13930782
-50.038453
-54.298501
-0.019321959
-13.561686
-0.023111867
-14.714421
-0.027223804
-15.965137
-0.031685351
-17.322164
-0.036526025
-18.794536
-0.041778232
-20.392059
-0.047476882
-22.125372
-0.053659831
-24.006014
-0.060368383
-26.04651
-0.067647164
-28.260446
-0.075544622
-30.662566
-0.084113343
-33.268863
-0.093410425
-36.096695
-0.10349777
-39.164892
-0.11444319
-42.493885
-0.12632721
-46.105896
-0.13926538
-50.025568
-0.019082849
-13.558188
-0.022878774
-14.710625
-0.026997355
-15.961019
-0.031465984
-17.317695
-0.036314493
-18.789687
-0.041575098
-20.386799
-0.047282899
-22.119664
-0.053475814
-23.999821
-0.060195146
-26.03979
-0.067485522
-28.253155
-0.075395641
-30.654656
-0.08397815
-33.260281
-0.09329015
-36.087383
-0.10339373
-39.154788
-0.1143566
-42.482923
-0.12625912
-46.094002
-50.012661
-0.015338884
-12.492804
-0.01884305
-13.554684
-0.022645054
-14.706823
-0.026770279
-15.956893
-0.031246115
-17.313219
-0.036102396
-18.784831
-0.041371463
-20.38153
-0.047088352
-22.113947
-0.053291232
-23.993618
-0.060021345
-26.03306
-0.067323504
-28.245853
-0.075246409
-30.646733
-0.083842644
-33.251685
-0.093169624
-36.078056
-0.10328937
-39.144669
-0.1142697
-42.471943
-0.12618886
-46.082091
-49.99973
-0.015107922
-12.489569
-0.018617353
-13.551174
-0.022425123
-14.703015
-0.026556553
-15.952762
-0.031039158
-17.308737
-0.035902773
-18.779967
-0.041179799
-20.376253
-0.046905337
-22.108222
-0.053117619
-23.987406
-0.059857823
-26.02632
-0.067171075
-28.23854
-0.075105763
-30.638798
-0.083715098
-33.243075
-0.093056054
-36.068715
-0.10319113
-39.134533
-0.11418802
-42.460947
-0.12612505
-46.070163
-49.986779
-0.014890686
-12.48633
-0.018405131
-13.54766
-0.022218354
-14.699202
-0.026355613
-15.948625
-0.030844549
-17.304248
-0.035715057
-18.775097
-0.040999542
-20.370968
-0.046733228
-22.102488
-0.052954222
-23.981185
-0.059704078
-26.01957
-0.067027609
-28.231216
-0.074973704
-30.630852
-0.083595073
-33.234454
-0.092949441
-36.059361
-0.10309875
-39.124384
-0.11411127
-42.449935
-0.12606547
-46.058217
-49.973809
-0.011443179
-11.505156
-0.014686675
-12.483087
-0.018205821
-13.544141
-0.022023995
-14.695384
-0.02616677
-15.944482
-0.030661722
-17.299753
-0.035538686
-18.77022
-0.040830254
-20.365677
-0.046571524
-22.096747
-0.052800853
-23.974956
-0.059559609
-26.012812
-0.066892918
-28.223883
-0.07484948
-30.622896
-0.083482444
-33.225821
-0.092849096
-36.049994
-0.10301207
-39.114221
-0.11403912
-42.438908
-0.12600929
-46.046255
-0.011247754
-11.502163
-0.014495199
-12.479839
-0.018018669
-13.540617
-0.02184167
-14.691561
-0.025989646
-15.940334
-0.030490177
-17.295252
-0.035373221
-18.765337
-0.040671307
-20.360379
-0.046419784
-22.090998
-0.052656823
-23.968719
-0.059424103
-26.006044
-0.066766437
-28.216541
-0.074733027
-30.614929
-0.083376709
-33.217177
-0.092755082
-36.040616
-0.10293059
-39.104046
-0.11397153
-42.427868
-46.034278
-0.0080680627
-10.598316
-0.011064614
-11.499166
-0.014315882
-12.476588
-0.017843489
-13.53709
-0.02167094
-14.687734
-0.025823742
-15.936181
-0.030329413
-17.290747
-0.035218223
-18.760448
-0.040522513
-20.355074
-0.046277635
-22.085243
-0.052522007
-23.962474
-0.059297058
-25.999269
-0.066648105
-28.20919
-0.074623908
-30.606953
-0.083277618
-33.208524
-0.092666959
-36.031227
-0.10285438
-39.093858
-0.11390825
-42.416815
-46.022285
-0.0078921932
-10.595551
-0.010892066
-11.496166
-0.014146844
-12.473333
-0.017678337
-13.533558
-0.021509987
-14.683902
-0.025667303
-15.932024
-0.030178049
-17.286236
-0.035072124
-18.755554
-0.040382244
-20.349764
-0.046143758
-22.079481
-0.052394899
-23.956223
-0.059177472
-25.992487
-0.066536478
-28.201831
-0.074521056
-30.598969
-0.083184293
-33.19986
-0.092583913
-36.021827
-0.10278249
-39.08366
-0.11384853
-42.405749
-46.010278
-0.0049269172
-9.7629393
-0.0076952017
-10.592783
-0.01069871
-11.493163
-0.013957499
-12.470074
-0.017493317
-13.530022
-0.021329667
-14.680066
-0.025492122
-15.927861
-0.030008385
-17.28172
-0.034908477
-18.750654
-0.040225115
-20.344447
-0.045993649
-22.073713
-0.052252561
-23.949964
-0.059043407
-25.985696
-0.066411502
-28.194463
-0.074405795
-30.590974
-0.083079686
-33.191186
-0.092490839
-36.012416
-0.10270202
-39.073449
-0.11378152
-42.39467
-45.998256
-0.0047244729
-9.7603847
-0.0074960793
-10.590011
-0.010503286
-11.490155
-0.013766211
-12.466811
-0.017306416
-13.526482
-0.021147468
-14.676224
-0.025315062
-15.923694
-0.029836903
-17.277198
-0.034743137
-18.745748
-0.040066356
-20.339124
-0.045842035
-22.067937
-0.052108657
-23.943698
-0.058907901
-25.978897
-0.066285147
-28.187085
-0.074289468
-30.58297
-0.082974077
-33.182502
-0.092396888
-36.002993
-0.10262066
-39.063225
-0.11371391
-42.383577
-45.98622
-0.0045341878
-9.7578272
-0.0073090534
-10.587236
-0.01031977
-11.487145
-0.013586393
-12.463545
-0.017130735
-13.522938
-0.020976361
-14.672379
-0.025148782
-15.919521
-0.029675887
-17.272671
-0.034587762
-18.740836
-0.039917186
-20.333795
-0.045699572
-22.062155
-0.051973464
-23.937424
-0.058780669
-25.972089
-0.066166438
-28.1797
-0.074180035
-30.574956
-0.082874797
-33.173807
-0.092308577
-35.993559
-0.1025442
-39.052989
-0.11365038
-42.372472
-0.0017953611
-8.9910347
-0.0043556232
-9.755267
-0.0071334972
-10.584458
-0.010147598
-11.484131
-0.013417794
-12.460275
-0.016965896
-13.51939
-0.020815659
-14.668529
-0.024992718
-15.915344
-0.029524712
-17.268139
-0.034441977
-18.735919
-0.039777168
-20.32846
-0.045565946
-22.056366
-0.05184667
-23.931143
-0.05866127
-25.965275
-0.066055125
-28.172306
-0.074077434
-30.566934
-0.082781598
-33.165103
-0.092225657
-35.984115
-0.10247251
-39.042742
-42.361354
-0.0016255712
-8.9886726
-0.0041884656
-9.7527041
-0.0069692227
-10.581677
-0.0099862693
-11.481114
-0.01325985
-12.457001
-0.01681165
-13.515838
-0.020665362
-14.664675
-0.024846557
-15.911163
-0.029383252
-17.263602
-0.034305531
-18.730996
-0.039646174
-20.323119
-0.045440719
-22.050572
-0.051727898
-23.924856
-0.058549456
-25.958453
-0.065950831
-28.164904
-0.073981288
-30.558904
-0.082694415
-33.15639
-0.092148064
-35.974662
-0.10240539
-39.032485
-42.350225
0.00089733585
-8.2823171
-0.0014670003
-8.9863083
-0.0040323391
-9.7501387
-0.0068157286
-10.578894
-0.009835721
-11.478094
-0.01311231
-12.453724
-0.016667495
-13.512283
-0.020524842
-14.660818
-0.024710048
-15.906978
-0.029251005
-17.259061
-0.034177985
-18.726069
-0.039523705
-20.317773
-0.04532389
-22.044771
-0.051616962
-23.918563
-0.058445037
-25.951625
-0.065853433
-28.157496
-0.073891599
-30.550865
-0.082612936
-33.147668
-0.09207561
-35.965199
-0.10234264
-39.022218
-42.339085
0.0010471321
-8.280136
-0.001319335
-8.9839418
-0.0038868675
-9.7475712
-0.0066727014
-10.576108
-0.0096953262
-11.475071
-0.012974924
-12.450445
-0.016533242
-13.508724
-0.020393974
-14.656957
-0.024582941
-15.902789
-0.029127972
-17.254516
-0.034059213
-18.721138
-0.039409697
-20.312423
-0.045214959
-22.038966
-0.051513671
-23.912264
-0.058347701
-25.944791
-0.06576274
-28.150081
-0.073807926
-30.54282
-0.082537035
-33.138939
-0.092008107
-35.955728
-0.10228415
-39.011942
-42.327935
0.0033691617
-7.6294546
0.0011862733
-8.2779531
-0.001182074
-8.9815735
-0.0037518002
-9.7450015
-0.0065399531
-10.57332
-0.0095650222
-11.472046
-0.012847252
-12.447163
-0.016408516
-13.505163
-0.020272507
-14.653093
-0.024464859
-15.898597
-0.029013525
-17.249967
-0.033948966
-18.716203
-0.039303837
-20.307068
-0.045113799
-22.033156
-0.051417714
-23.90596
-0.058257385
-25.937951
-0.06567844
-28.14266
-0.073730333
-30.534768
-0.082466524
-33.130203
-0.091945368
-35.946249
-0.10222993
-39.001658
-42.316776
0.0055259768
-7.0299033
0.0035125023
-7.6274411
0.0013277963
-8.2757684
-0.0010425567
-8.9792031
-0.0036144766
-9.7424296
-0.0064048858
-10.57053
-0.0094325246
-11.469018
-0.012717512
-12.443878
-0.016281722
-13.501599
-0.020148847
-14.649226
-0.024344771
-15.894401
-0.02889726
-17.245415
-0.033836713
-18.711263
-0.039196033
-20.301709
-0.045010948
-22.027341
-0.051320064
-23.899651
-0.058165501
-25.931106
-0.065592762
-28.135233
-0.073651298
-30.52671
-0.082394885
-33.12146
-0.091881626
-35.936762
-0.10217478
-38.991365
0.0056948893
-7.0280457
0.0036793465
-7.6254256
0.0014926349
-8.2735817
-0.00088009988
-8.9768304
-0.0034544014
-9.7398552
-0.0062475684
-10.567736
-0.0092782157
-11.465988
-0.012566337
-12.44059
-0.016133994
-13.498031
-0.020004942
-14.645355
-0.024204878
-15.890201
-0.02876188
-17.240858
-0.033706095
-18.706319
-0.039070681
-20.296344
-0.044891173
-22.021521
-0.051206432
-23.893336
-0.058058513
-25.924254
-0.065492919
-28.127798
-0.073559352
-30.518643
-0.082311401
-33.112708
-0.091807355
-35.927266
-38.981061
0.0077131271
-6.4757518
0.0058538362
-7.0261864
0.0038366012
-7.6234083
0.0016477586
-8.2713929
-0.00072704448
-8.9744556
-0.0033037904
-9.7372785
-0.0060995271
-10.564941
-0.0091328068
-11.462954
-0.012424062
-12.437298
-0.015994979
-13.49446
-0.019869436
-14.641481
-0.024073195
-15.885997
-0.028634271
-17.236297
-0.033583125
-18.70137
-0.038952536
-20.290975
-0.044778356
-22.015695
-0.051099381
-23.887015
-0.057957667
-25.917396
-0.065398967
-28.120357
-0.073472733
-30.51057
-0.082232805
-33.103947
-0.091737408
-35.917762
-38.970749
0.0078622339
-6.4740368
0.0060013761
-7.0243256
0.0039823235
-7.6213893
0.0017916632
-8.2692022
-0.00058514545
-8.9720788
-0.0031640224
-9.7346996
-0.0059620781
-10.562143
-0.0089980529
-11.459918
-0.012292003
-12.434004
-0.015865928
-13.490886
-0.019743708
-14.637603
-0.023951039
-15.88179
-0.028516001
-17.231732
-0.033468991
-18.696417
-0.038842978
-20.285601
-0.044673749
-22.009864
-0.051000165
-23.880688
-0.057864279
-25.910531
-0.065311847
-28.112909
-0.073392445
-30.502489
-0.082159849
-33.09518
-0.091672538
-35.908249
-38.960428
0.009716447
-5.9652761
0.0080000589
-6.4723204
0.0061377596
-7.0224633
0.0041170774
-7.6193686
0.0019247876
-8.2670099
-0.00045396407
-8.9697
-0.0030348466
-9.7321187
-0.0058351587
-10.559342
-0.0088733898
-11.45688
-0.012169972
-12.430708
-0.015746718
-13.48731
-0.019627443
-14.633722
-0.023838096
-15.877579
-0.028406693
-17.227163
-0.033363507
-18.69146
-0.038741693
-20.280222
-0.04457704
-22.004029
-0.050908344
-23.874357
-0.057777849
-25.903662
-0.065231245
-28.105456
-0.073318174
-30.494402
-0.082092472
-33.086406
-0.09161262
-35.898729
-38.950098
0.011427549
-5.4964934
0.009844432
-5.9636929
0.0081267903
-6.4706027
0.0062631748
-7.0205997
0.0042411137
-7.6173465
0.0020471943
-8.264816
-0.00033324961
-8.9673196
-0.0029160124
-9.729536
-0.0057182675
-10.55654
-0.008758755
-11.45384
-0.012057657
-12.427409
-0.015637034
-13.48373
-0.01952058
-14.629839
-0.023734242
-15.873365
-0.028306035
-17.222591
-0.033266484
-18.6865
-0.038648494
-20.27484
-0.04448804
-21.998189
-0.050823919
-23.868021
-0.057698375
-25.896788
-0.065157099
-28.097997
-0.073249794
-30.486309
-0.082030423
-33.077625
-0.091557402
-35.889202
0.011545815
-5.4950334
0.0099616994
-5.9621088
0.0082429294
-6.468884
0.0063779977
-7.0187347
0.0043546204
-7.6153232
0.0021591968
-8.2626206
-0.00022275139
-8.9649376
-0.0028071438
-9.7269516
-0.0056112791
-10.553736
-0.0086538349
-11.450797
-0.011954868
-12.424108
-0.015536502
-13.480149
-0.01942268
-14.625953
-0.023639099
-15.869149
-0.028213901
-17.218017
-0.033177609
-18.681536
-0.038563254
-20.269455
-0.044406561
-21.992346
-0.050746639
-23.861681
-0.057625545
-25.889909
-0.065089221
-28.090533
-0.073187306
-30.478211
-0.081973701
-33.068839
-35.879669
0.013113756
-5.0631901
0.011653305
-5.4935725
0.010068249
-5.9605237
0.0083484135
-6.4671641
0.006482479
-7.0168688
0.0044579108
-7.6132986
0.002261171
-8.2604238
-0.00012221868
-8.9625543
-0.0027082407
-9.7243656
-0.0055140683
-10.55093
-0.0085583163
-11.447753
-0.011861417
-12.420805
-0.015445245
-13.476565
-0.019333617
-14.622064
-0.023552606
-15.86493
-0.028130166
-17.213439
-0.03309682
-18.676569
-0.038485598
-20.264066
-0.044332477
-21.986499
-0.050676316
-23.855337
-0.057559359
-25.883026
-0.065027485
-28.083065
-0.073130396
-30.470108
-0.081922056
-33.060047
-35.87013
0.01455318
-4.6651435
0.013211754
-5.0618406
0.011750397
-5.4921107
0.010164456
-5.9589377
0.0084437441
-6.4654434
0.0065766814
-7.0150017
0.0045509851
-7.6112729
0.0023531797
-8.258226
-3.1526153e-05
-8.9601696
-0.002618927
-9.7217782
-0.0054261962
-10.548123
-0.0084721365
-11.444707
-0.011776992
-12.4175
-0.015362763
-13.472979
-0.019253329
-14.618174
-0.023474511
-15.860709
-0.028054578
-17.208859
-0.033023864
-18.6716
-0.038415589
-20.258674
-0.044265664
-21.980649
-0.050612888
-23.84899
-0.057499692
-25.876139
-0.064971766
-28.075593
-0.073079064
-30.462001
-0.081875425
-33.051251
-35.860586
0.015824014
-4.2975001
0.014655485
-4.6639022
0.013313874
-5.0604911
0.011851808
-5.490648
0.010265052
-5.957351
0.0085433366
-6.4637217
0.0066752711
-7.0131337
0.0046484466
-7.6092461
0.0024493251
-8.2560269
6.3240334e-05
-8.9577835
-0.0025256021
-9.7191893
-0.0053345008
-10.545314
-0.0083821334
-11.441659
-0.011688807
-12.414193
-0.015276583
-13.469391
-0.01916928
-14.614281
-0.023392907
-15.856485
-0.027975481
-17.204276
-0.03294765
-18.666628
-0.038342446
-20.253279
-0.044195718
-21.974796
-0.050546514
-23.842639
-0.057437203
-25.869248
-0.064913602
-28.068117
-0.073025413
-30.453889
-0.081826725
-33.042449
-35.851036
0.016671876
-3.9551742
0.015953467
-4.2963626
0.014781912
-4.6626582
0.0134402
-5.0591421
0.011977159
-5.4891844
0.010389276
-5.955763
0.0086663701
-6.4619988
0.0067970511
-7.0112643
0.004768785
-7.6072178
0.0025680966
-8.2538262
0.00018044492
-8.9553958
-0.0024102151
-9.7165987
-0.0052210568
-10.542503
-0.0082708831
-11.438609
-0.011579876
-12.410884
-0.015170096
-13.465801
-0.019065551
-14.610385
-0.023292123
-15.852259
-0.027877894
-17.199691
-0.03285351
-18.661652
-0.038251941
-20.247881
-0.04410935
-21.968938
-0.050464659
-23.836284
-0.057360049
-25.862353
-0.064841587
-28.060635
-0.072959102
-30.445772
-0.081766556
-33.033642
-35.84148
0.016304273
-3.6313816
0.016795277
-3.9541552
0.016073524
-4.2952137
0.014899444
-4.6614086
0.013557622
-5.0577933
0.012093673
-5.4877199
0.010504664
-5.954174
0.0087806916
-6.4602748
0.006910119
-7.0093938
0.0048805994
-7.6051883
0.0026785321
-8.2516242
0.00028931356
-8.9530066
-0.0023030387
-9.7140063
-0.0051156981
-10.53969
-0.0081674046
-11.435558
-0.011478591
-12.407573
-0.015071193
-13.462208
-0.018969155
-14.606487
-0.02319836
-15.848029
-0.027787201
-17.195102
-0.032765952
-18.656674
-0.038167955
-20.242479
-0.044029124
-21.963077
-0.050388444
-23.829924
-0.057288347
-25.855453
-0.064774774
-28.053149
-0.072897491
-30.437649
-0.081710649
-33.024829
0.013672214
-3.3215396
0.01640682
-3.6304567
0.016902889
-3.9531313
0.016181807
-4.2940618
0.015007475
-4.6601607
0.013664861
-5.0564432
0.012200097
-5.4862546
0.010610273
-5.9525842
0.0088851729
-6.4585497
0.0070135348
-7.0075221
0.0049827617
-7.6031575
0.0027794409
-8.2494208
0.00038871809
-8.9506159
-0.0022050758
-9.7114125
-0.0050194273
-10.536876
-0.0080729515
-11.432504
-0.011386018
-12.40426
-0.014980751
-13.458614
-0.018880969
-14.602587
-0.023112807
-15.843797
-0.027704218
-17.19051
-0.032685977
-18.651692
-0.038091176
-20.237074
-0.04395573
-21.957213
-0.050318874
-23.823561
-0.057222851
-25.848549
-0.064713665
-28.045658
-0.072841145
-30.429522
-33.01601
0.0085473593
-3.0259629
0.013753111
-3.3207785
0.01649944
-3.6295394
0.017000568
-3.9520907
0.016281699
-4.2929098
0.015106488
-4.6589134
0.013762396
-5.0550915
0.012296681
-5.4847884
0.01070598
-5.9509934
0.0089800648
-6.4568238
0.0071073612
-7.0056494
0.0050755226
-7.6011257
0.0028710109
-8.2472163
0.00047909724
-8.948224
-0.0021161382
-9.7088173
-0.004931994
-10.53406
-0.0079872104
-11.429449
-0.011302032
-12.400945
-0.014898646
-13.455017
-0.018800994
-14.598685
-0.023035025
-15.839563
-0.027628944
-17.185916
-0.032613335
-18.646707
-0.038021418
-20.231666
-0.043889231
-21.951345
-0.050255696
-23.817195
-0.057163371
-25.841641
-0.064658197
-28.038163
-0.072790064
-30.42139
-33.007187
0.0016724277
-2.753964
0.0086050558
-3.0254379
0.013825374
-3.3200285
0.016582455
-3.6286179
0.017088458
-3.9510424
0.016371033
-4.2917594
0.015195049
-4.6576665
0.013850086
-5.0537388
0.012383737
-5.4833215
0.010792222
-5.9494019
0.0090654298
-6.455097
0.0071919114
-7.0037759
0.00515907
-7.5990928
0.0029534302
-8.2450107
0.00056038834
-8.9458309
-0.0020361006
-9.7062208
-0.0048532726
-10.531243
-0.0079099306
-11.426392
-0.011226444
-12.397629
-0.01482475
-13.451419
-0.018728979
-14.594781
-0.022965079
-15.835327
-0.027561191
-17.18132
-0.032548026
-18.641721
-0.037958679
-20.226255
-0.04382925
-21.945474
-0.050198849
-23.810825
-0.057109845
-25.83473
-0.064608244
-28.030665
-0.072743997
-30.413254
-32.99836
-0.0044293701
-2.52349
0.0017100872
-2.7537403
0.0086554834
-3.0249273
0.013888986
-3.3192778
0.016656104
-3.6276925
0.017166687
-3.949996
0.016448307
-4.2906075
0.015273371
-4.6564205
0.013928241
-5.0523861
0.012461267
-5.481854
0.010869063
-5.9478097
0.0091415815
-6.4533695
0.0072671856
-7.0019015
0.0052335294
-7.5970592
0.0030269494
-8.2428041
0.00063284208
-8.9434368
-0.001964775
-9.7036232
-0.0047832006
-10.528425
-0.007841112
-11.423334
-0.011159005
-12.394311
-0.01475894
-13.447819
-0.018664799
-14.590875
-0.022902653
-15.831089
-0.027500833
-17.176722
-0.032489737
-18.636732
-0.037902772
-20.220842
-0.043775849
-21.939601
-0.050148206
-23.804453
-0.057062149
-25.827816
-0.064563743
-28.023163
-0.072703069
-30.405115
-32.989529
-0.001219925
-2.1861348
-0.0052873936
-2.3427744
-0.0043967241
-2.5235425
0.0017421921
-2.7535204
0.0086985207
-3.024424
0.013944219
-3.3185234
0.016720531
-3.62677
0.017235431
-3.9489493
0.016511713
-4.2894488
0.015340457
-4.6551771
0.013996887
-5.0510348
0.012529516
-5.4803861
0.010936753
-5.9462169
0.0092085197
-6.4516413
0.0073334344
-7.0000264
0.0052990261
-7.5950248
0.0030916313
-8.2405967
0.0006966465
-8.9410418
-0.0019019734
-9.7010246
-0.0047214018
-10.525605
-0.0077805041
-11.420275
-0.01109965
-12.390992
-0.014700902
-13.444218
-0.018608327
-14.586967
-0.022847811
-15.82685
-0.027447621
-17.172122
-0.032438406
-18.631741
-0.037853508
-20.215427
-0.04372878
-21.933726
-0.050103518
-23.798078
-0.057020093
-25.8209
-0.064524571
-28.015659
-0.072666905
-30.396972
0.0027330362
-2.0181132
-0.0012182675
-2.1864879
-0.0052551286
-2.3430118
-0.0043680585
-2.5236061
0.0017686719
-2.7533108
0.0087343063
-3.0239216
0.013991031
-3.3177731
0.016775844
-3.6258513
0.017294885
-3.9478997
0.016574572
-4.288294
0.015401031
-4.6539313
0.014056498
-5.0496823
0.01258862
-5.4789176
0.010995356
-5.9446236
0.0092665579
-6.4499125
0.0073909085
-6.9981508
0.0053557481
-7.5929896
0.0031476639
-8.2383886
0.00075186427
-8.938646
-0.0018475704
-9.6984251
-0.0046679389
-10.522785
-0.0077281068
-11.417215
-0.011048256
-12.387671
-0.014650698
-13.440615
-0.018559315
-14.583059
-0.02280024
-15.822609
-0.027401554
-17.167521
-0.032394031
-18.626748
-0.037810826
-20.21001
-0.043688103
-21.927849
-0.05006491
-23.791701
-0.056983678
-25.813981
-0.0644906
-28.008152
-30.388827
0.0015168382
-1.6888721
0.0020744397
-1.8426847
0.0026501931
-2.0186912
-0.0012122272
-2.1868222
-0.0052211885
-2.3432451
-0.0043397568
-2.5236832
0.0017931909
-2.753112
0.0087666292
-3.0234215
0.014033252
-3.3170333
0.016825948
-3.6249327
0.017348871
-3.9468479
0.016636227
-4.2871476
0.015458001
-4.6526811
0.014110687
-5.0483274
0.012642211
-5.4774487
0.011048442
-5.9430298
0.0093192686
-6.4481833
0.0074429925
-6.9962745
0.005407268
-7.5909539
0.0031984943
-8.2361799
0.00080200527
-8.9362495
-0.0017981816
-9.6958249
-0.0046194275
-10.519964
-0.0076804101
-11.414154
-0.011001687
-12.38435
-0.014605195
-13.437012
-0.018515002
-14.579149
-0.022757056
-15.818367
-0.027359812
-17.162918
-0.032353793
-18.621755
-0.037772154
-20.204592
-0.043651186
-21.92197
-0.050029811
-23.785323
-0.05695071
-25.80706
-0.064459889
-28.000643
-30.38068
0.004962261
-1.3210566
0.0055833728
-1.4342205
0.0039345868
-1.5594982
0.001270847
-1.6902917
0.0019099643
-1.8437564
0.0026066069
-2.0192712
-0.0011702857
-2.1871464
-0.0051550878
-2.3434718
-0.0042810151
-2.5237725
0.0018439769
-2.7529182
0.0088248819
-3.0229261
0.014100524
-3.3163039
0.016900782
-3.6240134
0.017427157
-3.9457965
0.016714451
-4.2860012
0.015536096
-4.6514319
0.01418846
-5.0469728
0.012719364
-5.4759791
0.01112497
-5.9414354
0.0093949189
-6.4464533
0.0075178906
-6.9943975
0.0054812886
-7.5889173
0.0032716375
-8.2339702
0.00087408296
-8.933852
-0.001727232
-9.6932236
-0.0045496689
-10.517141
-0.0076119677
-11.411092
-0.010934561
-12.381028
-0.014539636
-13.433407
-0.018451073
-14.575238
-0.022695069
-15.814123
-0.027299705
-17.158314
-0.032295754
-18.616758
-0.037716498
-20.199171
-0.043597974
-21.916088
-0.049979419
-23.778941
-0.056903264
-25.800136
-0.064415577
-27.99313
-30.372529
0.0052022793
-1.1197886
0.0049428424
-1.21771
0.004961287
-1.3215259
0.0055304974
-1.4348481
0.0037161946
-1.5608106
0.0010319857
-1.69172
0.0017603839
-1.8447767
0.0025757134
-2.0198407
-0.0011186002