/*--------------------------------*- C++ -*----------------------------------*\
| =========                 |                                                 |
| \\      /  F ield         | OpenFOAM: The Open Source CFD Toolbox           |
|  \\    /   O peration     | Version:  2506                                  |
|   \\  /    A nd           | Website:  www.openfoam.com                      |
|    \\/     M anipulation  |                                                 |
\*---------------------------------------------------------------------------*/
FoamFile
{
    version     2.0;
    format      ascii;
    arch        "LSB;label=32;scalar=64";
    class       volScalarField;
    location    "2.999";
    object      T;
}
// * * * * * * * * * * * * * * * * * * * * * * * * * * * * * * * * * * * * * //

dimensions      [0 0 0 1 0 0 0];

internalField   nonuniform List<scalar> 
19257
(
245.58052
245.58394
245.5823
245.58137
245.58038
245.5799
245.57936
245.57874
245.57813
245.57749
245.57672
245.57578
245.57463
245.57329
245.57178
245.5701
245.56824
245.56617
245.56386
245.5613
245.55846
245.55535
245.55197
245.54834
245.54451
245.5405
245.53638
245.5322
245.52804
245.52398
245.52005
245.51644
245.51333
245.51053
245.5079
245.50527
245.50242
245.49898
245.49415
245.48703
245.47453
245.4581
245.4154
245.39699
245.2342
245.25046
244.80068
244.75452
243.63755
245.58123
245.58157
245.58235
245.58165
245.58076
245.58031
245.5798
245.57923
245.57872
245.57818
245.57752
245.57668
245.57564
245.57444
245.57311
245.57164
245.57003
245.56827
245.56633
245.56419
245.56185
245.55933
245.55663
245.5538
245.5509
245.54797
245.54511
245.54239
245.53993
245.53783
245.5362
245.53525
245.53519
245.53606
245.5378
245.54038
245.54381
245.54799
245.55252
245.55692
245.55918
245.55902
245.54589
245.5336
245.44906
245.42138
245.09108
245.03078
243.87588
245.58223
245.58061
245.58247
245.58197
245.58119
245.58075
245.5803
245.5798
245.57939
245.57898
245.57845
245.57772
245.57683
245.57579
245.57465
245.57343
245.57211
245.57068
245.56914
245.56746
245.56566
245.56374
245.56176
245.55975
245.55778
245.55593
245.5543
245.553
245.55215
245.5519
245.55238
245.55387
245.55655
245.56069
245.56624
245.57331
245.58208
245.5927
245.60508
245.6192
245.63364
245.64875
245.65651
245.66537
245.62542
245.61976
245.35279
245.32782
243.9871
245.58273
245.57978
245.58235
245.58236
245.58164
245.5812
245.5808
245.58041
245.58012
245.57984
245.57943
245.57885
245.5781
245.57724
245.57631
245.57534
245.57432
245.57325
245.57211
245.5709
245.56963
245.56833
245.56706
245.56586
245.56482
245.56403
245.56361
245.56367
245.56437
245.56589
245.56839
245.57217
245.57742
245.58458
245.59364
245.60482
245.61846
245.63493
245.65441
245.6773
245.70276
245.73186
245.75825
245.78945
245.78732
245.81152
245.61889
245.63513
244.35017
245.5832
245.57951
245.58226
245.5828
245.58214
245.58166
245.58134
245.58108
245.58092
245.58078
245.58052
245.58008
245.5795
245.57883
245.57814
245.57745
245.57675
245.57605
245.57534
245.57462
245.57391
245.57325
245.5727
245.57233
245.57222
245.57249
245.57326
245.57467
245.57689
245.58011
245.58455
245.59049
245.5982
245.60817
245.62046
245.6354
245.65345
245.67518
245.701
245.73167
245.76685
245.80841
245.851
245.90396
245.93238
245.99319
245.86493
245.94078
244.62153
245.58377
245.57936
245.5822
245.58323
245.58266
245.58214
245.5819
245.5818
245.58179
245.58179
245.58168
245.5814
245.58101
245.58056
245.58013
245.57973
245.57937
245.57906
245.57879
245.57857
245.57844
245.57843
245.57862
245.57908
245.57991
245.58124
245.5832
245.58594
245.58964
245.59452
245.60082
245.60885
245.6189
245.63152
245.64683
245.66525
245.68736
245.71388
245.74545
245.78312
245.827
245.87965
245.9367
246.00936
246.06488
246.16412
246.09762
246.2421
245.01299
245.58447
245.5793
245.58212
245.58367
245.58321
245.58264
245.58251
245.58259
245.58274
245.58288
245.58292
245.58282
245.58263
245.58243
245.58227
245.58219
245.58219
245.58229
245.58248
245.58278
245.58323
245.58388
245.58482
245.58612
245.5879
245.59029
245.59342
245.59747
245.60264
245.60915
245.61725
245.62729
245.63959
245.65473
245.67289
245.69457
245.72045
245.75137
245.78819
245.83218
245.88389
245.94644
246.01637
246.10666
246.18614
246.32232
246.30961
246.53204
245.37822
245.58561
245.57916
245.58213
245.58419
245.5838
245.5832
245.58319
245.58344
245.58374
245.58402
245.58422
245.58432
245.58436
245.58441
245.58455
245.5848
245.58519
245.5857
245.58636
245.58719
245.58823
245.58956
245.59125
245.5934
245.59612
245.59956
245.60387
245.60921
245.61582
245.62391
245.63378
245.64575
245.66023
245.67776
245.69862
245.72337
245.75277
245.78778
245.82942
245.87919
245.93799
246.00941
246.09089
246.19685
246.29774
246.46792
246.50329
246.80815
245.76762
245.58694
245.57894
245.58219
245.58478
245.58447
245.58389
245.58396
245.58435
245.58478
245.5852
245.58557
245.58588
245.58617
245.5865
245.58696
245.58756
245.58833
245.58927
245.5904
245.59176
245.59341
245.5954
245.59784
245.60084
245.6045
245.60898
245.61444
245.62107
245.62907
245.63871
245.65029
245.66414
245.6807
245.70053
245.72395
245.75159
245.7843
245.82312
245.86922
245.92428
245.98953
246.06897
246.16083
246.28071
246.40075
246.60147
246.67955
247.06635
246.14802
245.58837
245.57917
245.58219
245.58532
245.58527
245.58473
245.58483
245.58531
245.58585
245.5864
245.58694
245.58748
245.58804
245.58868
245.58946
245.59042
245.59157
245.59294
245.59455
245.59644
245.59867
245.60134
245.60452
245.60835
245.61294
245.61844
245.62503
245.63289
245.64226
245.6534
245.66662
245.68227
245.70083
245.72286
245.7487
245.77907
245.81488
245.85726
245.9075
245.96743
246.03857
246.12526
246.22649
246.35875
246.49595
246.72373
246.83955
247.30555
246.51544
245.58994
245.57964
245.58238
245.58593
245.58611
245.58566
245.58577
245.58629
245.58692
245.58759
245.58832
245.5891
245.58995
245.5909
245.59201
245.59333
245.59487
245.59665
245.59872
245.60113
245.60394
245.60726
245.61117
245.61581
245.62129
245.62779
245.63546
245.64452
245.65521
245.66778
245.68258
245.69994
245.72041
245.74451
245.77262
245.80557
245.84428
245.88997
245.94403
246.00844
246.08497
246.17822
246.28792
246.43117
246.58378
246.83525
246.98171
247.52442
246.85938
245.59168
245.58017
245.58262
245.58653
245.587
245.5867
245.58678
245.58728
245.58796
245.58877
245.58969
245.59073
245.59186
245.59313
245.59457
245.59623
245.59813
245.60032
245.60283
245.60573
245.60911
245.61305
245.61766
245.62307
245.62942
245.63686
245.64557
245.65577
245.6677
245.68163
245.69791
245.71689
245.73915
245.76519
245.79543
245.83077
245.87218
245.92094
245.97851
246.04701
246.12845
246.22763
246.34496
246.49796
246.66439
246.93622
247.11579
247.72457
247.17082
245.59354
245.58091
245.58295
245.58709
245.58804
245.58783
245.5878
245.58825
245.58898
245.58993
245.59105
245.59233
245.59375
245.59532
245.59707
245.59905
245.60129
245.60385
245.60678
245.61015
245.61406
245.61859
245.62386
245.63
245.63716
245.64548
245.65517
245.66643
245.67951
245.6947
245.71237
245.73285
245.75677
245.78458
245.81679
245.85434
245.89823
245.94978
246.01055
246.08275
246.16862
246.27313
246.39729
246.55887
246.73767
247.02724
247.23247
247.901
247.44043
245.59552
245.58158
245.58336
245.58764
245.58917
245.58892
245.58874
245.58915
245.58997
245.59108
245.5924
245.59391
245.59557
245.5974
245.59942
245.60169
245.60425
245.60715
245.61046
245.61427
245.61866
245.62374
245.62963
245.63644
245.64433
245.65347
245.66404
245.67627
245.69041
245.70676
245.72567
245.74752
245.77294
245.80236
245.83635
245.87591
245.92203
245.97609
246.03972
246.11524
246.20506
246.31427
246.44451
246.61354
246.80336
247.10776
247.33678
248.05684
247.66207
245.59755
245.58235
245.5838
245.58815
245.58994
245.58975
245.58952
245.58997
245.59095
245.59223
245.59372
245.59539
245.59725
245.59929
245.60155
245.60407
245.60691
245.61012
245.61378
245.61798
245.62281
245.62839
245.63482
245.64223
245.65079
245.66065
245.67201
245.6851
245.70018
245.71754
245.73757
245.76062
245.78735
245.81821
245.85381
245.89512
245.94321
245.99946
246.0656
246.14402
246.23729
246.3506
246.48612
246.66154
246.86103
247.17776
247.42771
248.18541
247.85585
245.59975
245.58329
245.58413
245.58829
245.59042
245.59038
245.59019
245.59075
245.5919
245.59332
245.59491
245.5967
245.5987
245.60092
245.60338
245.60612
245.6092
245.61268
245.61665
245.62119
245.62641
245.6324
245.63931
245.64724
245.65637
245.66685
245.67889
245.69272
245.7086
245.72683
245.74781
245.7719
245.79974
245.83184
245.86881
245.91161
245.96137
246.0195
246.08778
246.16866
246.26486
246.38163
246.52163
246.70236
246.91017
247.23683
247.50499
248.29698
248.01899
245.60289
245.58215
245.58345
245.58848
245.59119
245.59113
245.59084
245.59143
245.59267
245.59416
245.59582
245.5977
245.59983
245.60221
245.60485
245.60778
245.61106
245.61477
245.61899
245.62382
245.62935
245.6357
245.64299
245.65135
245.66094
245.67193
245.68452
245.69895
245.71548
245.73443
245.75617
245.78111
245.80987
245.84298
245.88105
245.92507
245.97619
246.03585
246.10587
246.18876
246.28733
246.4069
246.55055
246.73554
246.95023
247.28457
247.56845
248.38955
248.15061
245.60144
245.58512
245.5844
245.58918
245.59207
245.59166
245.59128
245.59187
245.59314
245.59468
245.59641
245.59839
245.60065
245.60317
245.60595
245.60902
245.61246
245.61634
245.62075
245.62579
245.63156
245.63817
245.64575
245.65443
245.66437
245.67574
245.68875
245.70363
245.72066
245.74014
245.76247
245.78804
245.81749
245.85136
245.89026
245.9352
245.98735
246.04817
246.11951
246.20392
246.3043
246.42599
246.5724
246.76056
246.98054
247.32051
247.61704
248.46205
248.24694
245.60521
245.58233
245.58366
245.58926
245.59239
245.59205
245.59166
245.59223
245.5935
245.59508
245.59687
245.5989
245.60121
245.60379
245.60665
245.60981
245.61335
245.61734
245.62187
245.62704
245.63296
245.63974
245.6475
245.65639
245.66655
245.67816
245.69144
245.70661
245.72394
245.74377
245.76647
245.79245
245.82234
245.8567
245.89614
245.94168
245.9945
246.05608
246.12829
246.21371
246.31529
246.43838
246.58661
246.77686
247.00029
247.34414
247.64849
248.51398
248.30673
245.60114
245.58489
245.58456
245.58936
245.59276
245.59233
245.59194
245.59242
245.59363
245.59519
245.59699
245.59904
245.60137
245.60398
245.60686
245.61005
245.61361
245.61763
245.6222
245.62741
245.63338
245.64021
245.64803
245.65698
245.66722
245.67892
245.69228
245.70755
245.72499
245.74493
245.76776
245.79388
245.82393
245.85846
245.8981
245.94386
245.99695
246.05883
246.13141
246.21725
246.31933
246.44301
246.59201
246.78319
247.00786
247.35408
247.65825
248.55071
248.33062
245.60546
245.58236
245.58346
245.58848
245.59128
245.59147
245.59136
245.59203
245.59329
245.5948
245.59648
245.59842
245.60067
245.60324
245.60611
245.60929
245.61285
245.61684
245.62137
245.62653
245.63242
245.63916
245.64688
245.65571
245.66581
245.67736
245.69057
245.70568
245.72295
245.74271
245.76535
245.79127
245.8211
245.85541
245.89479
245.94029
245.99306
246.0546
246.12679
246.21217
246.31372
246.43679
246.585
246.77521
246.99856
247.34218
247.64649
248.50907
248.3055
245.59937
245.58538
245.58431
245.58886
245.59194
245.59145
245.59104
245.59152
245.59266
245.59406
245.59566
245.59752
245.59969
245.60217
245.60495
245.60805
245.61151
245.6154
245.6198
245.62482
245.63054
245.63709
245.64458
245.65317
245.663
245.67426
245.68715
245.70192
245.71882
245.73819
245.7604
245.78586
245.8152
245.84896
245.88777
245.93263
245.9847
246.04545
246.11673
246.2011
246.30144
246.42309
246.56945
246.75753
246.97738
247.31691
247.61326
248.45467
248.24056
245.60182
245.5808
245.58238
245.58815
245.59098
245.59083
245.59055
245.59107
245.59212
245.59337
245.59481
245.59652
245.59855
245.60088
245.60349
245.60642
245.6097
245.6134
245.61759
245.62237
245.62784
245.6341
245.64127
245.64951
245.65895
245.66979
245.68223
245.69649
245.71286
245.73164
245.75322
245.778
245.80661
245.83957
245.8775
245.9214
245.97241
246.03197
246.10191
246.18474
246.28327
246.4028
246.54639
246.73126
246.94578
247.27948
247.56307
248.38004
248.14016
245.5975
245.58269
245.58328
245.58782
245.58994
245.58976
245.58957
245.59013
245.59113
245.59231
245.59367
245.59527
245.59715
245.5993
245.60171
245.60441
245.60745
245.61089
245.61481
245.61928
245.6244
245.63029
245.63705
245.64483
245.65378
245.66407
245.67592
245.68954
245.70522
245.72324
245.74401
245.7679
245.79555
245.82745
245.86424
245.90689
245.9565
246.01451
246.08269
246.1635
246.25965
246.37637
246.51632
246.69692
246.90453
247.23036
247.49814
248.28542
248.00552
245.59572
245.58085
245.58258
245.58741
245.58923
245.58894
245.58871
245.58916
245.59002
245.59107
245.59229
245.59376
245.59547
245.59742
245.59961
245.60206
245.60481
245.60794
245.61151
245.61561
245.62032
245.62575
245.63202
245.63925
245.6476
245.65724
245.66837
245.68122
245.69605
245.71317
245.73294
245.75575
245.78224
245.81287
245.84824
245.88936
245.93727
245.99337
246.0594
246.13774
246.23095
246.34422
246.47969
246.65496
246.85424
247.16997
247.4195
248.17214
247.83978
245.59376
245.58007
245.58239
245.58685
245.58823
245.58791
245.58776
245.5882
245.58892
245.58978
245.59082
245.5921
245.5936
245.59532
245.59725
245.59941
245.60185
245.60463
245.6078
245.61147
245.6157
245.62061
245.6263
245.6329
245.64056
245.64944
245.65975
245.6717
245.68556
245.70161
245.72024
245.74179
245.76692
245.79608
245.82982
245.86913
245.91504
245.96892
246.03241
246.10784
246.1976
246.30678
246.43699
246.60587
246.7955
247.09874
247.32724
248.04151
247.6434
245.59169
245.57959
245.58214
245.58628
245.58702
245.58674
245.58669
245.5871
245.58772
245.58842
245.58928
245.59034
245.59162
245.59307
245.59472
245.59656
245.59865
245.60103
245.60377
245.60695
245.61065
245.61498
245.62002
245.62592
245.63281
245.64086
245.65024
245.66119
245.67395
245.68881
245.70614
245.72629
245.74986
245.77737
245.80929
245.84656
245.8902
245.94153
246.00214
246.07424
246.16006
246.26454
246.38871
246.55014
246.72878
247.01703
247.22188
247.88262
247.41892
245.58983
245.57907
245.58181
245.58546
245.586
245.58564
245.58559
245.58593
245.58642
245.58698
245.58767
245.58853
245.58956
245.59074
245.59208
245.59358
245.59528
245.59724
245.59951
245.60217
245.6053
245.60899
245.61335
245.61848
245.62453
245.63166
245.64004
245.64989
245.66145
245.67501
245.69091
245.70952
245.73139
245.75706
245.78697
245.822
245.86312
245.91162
245.969
246.03737
246.11876
246.21795
246.33532
246.4882
246.65453
246.92492
247.1039
247.70846
247.14633
245.58808
245.57859
245.58151
245.58464
245.58504
245.58461
245.58451
245.58474
245.58508
245.58549
245.58602
245.58669
245.58748
245.58838
245.58939
245.59054
245.59184
245.59335
245.59513
245.59724
245.59977
245.60279
245.6064
245.61073
245.61589
245.62203
245.62934
245.63802
245.6483
245.66046
245.67483
245.69178
245.7118
245.73548
245.76322
245.7958
245.83418
245.87958
245.93341
245.99768
246.07416
246.16744
246.27723
246.42041
246.57301
246.82295
246.96898
247.50413
246.8327
245.58648
245.57815
245.58133
245.58397
245.58409
245.5836
245.58346
245.58356
245.58373
245.58399
245.58437
245.58485
245.58541
245.58603
245.58673
245.5875
245.58839
245.58944
245.59071
245.59226
245.59416
245.59649
245.59934
245.60282
245.60705
245.61217
245.61836
245.6258
245.63473
245.64541
245.65816
245.67334
245.69141
245.71296
245.73836
245.76832
245.80375
245.8458
245.89577
245.95553
246.02663
246.11336
246.21476
246.34701
246.48434
246.71054
246.82575
247.28366
246.48722
245.58495
245.57797
245.58129
245.58341
245.58321
245.58264
245.58244
245.58239
245.5824
245.58252
245.58275
245.58306
245.58339
245.58375
245.58412
245.58453
245.585
245.58559
245.58634
245.58731
245.58858
245.5902
245.59227
245.59489
245.59816
245.60223
245.60725
245.61342
245.62094
245.63009
245.64114
245.65447
245.67049
245.68979
245.7127
245.73987
245.77213
245.81057
245.85636
245.91123
245.97642
246.05594
246.14804
246.26801
246.38835
246.58751
246.66519
247.04352
246.11939
245.58373
245.57811
245.58114
245.58284
245.58241
245.58175
245.58144
245.58125
245.58112
245.58111
245.5812
245.58133
245.58146
245.58155
245.58161
245.58166
245.58173
245.58185
245.58209
245.58249
245.58312
245.58403
245.58531
245.58705
245.58936
245.59235
245.59619
245.60104
245.60713
245.61468
245.62398
245.63538
245.64926
245.66619
245.68648
245.71068
245.73957
245.77414
245.81541
245.86493
245.92366
245.99519
246.07701
246.18319
246.28463
246.45331
246.48868
246.78517
245.7383
245.58287
245.57806
245.58097
245.58228
245.58165
245.58091
245.58048
245.58016
245.57991
245.57979
245.57975
245.57972
245.57964
245.57948
245.57924
245.57894
245.5786
245.57828
245.57801
245.57785
245.57784
245.57806
245.57855
245.57942
245.58075
245.58266
245.58529
245.58881
245.59342
245.59934
245.60683
245.61624
245.62789
245.64236
245.65987
245.68093
245.70622
245.73662
245.77299
245.81669
245.86831
245.93098
246.00135
246.09202
246.17242
246.3072
246.29525
246.50918
245.35262
245.58214
245.57805
245.5809
245.58169
245.58088
245.58011
245.57958
245.57913
245.57879
245.57857
245.57841
245.57822
245.57794
245.57754
245.57702
245.57638
245.57566
245.5749
245.57414
245.57343
245.57281
245.57233
245.57205
245.57204
245.5724
245.57322
245.57464
245.57681
245.57992
245.58417
245.5898
245.59715
245.60649
245.61837
245.63295
245.65065
245.67208
245.69797
245.72901
245.76629
245.81003
245.86281
245.9204
245.99366
246.05064
246.14861
246.08372
246.2204
244.98175
245.5816
245.57815
245.58086
245.58105
245.58016
245.57936
245.57874
245.57819
245.57778
245.57748
245.5772
245.57686
245.5764
245.57577
245.57496
245.574
245.57292
245.57175
245.57052
245.56927
245.56805
245.5669
245.56585
245.56499
245.56438
245.56411
245.56432
245.56513
245.56671
245.56926
245.57298
245.57819
245.58513
245.59428
245.60575
245.61988
245.63715
245.65814
245.68332
245.71351
245.74849
245.79015
245.83346
245.88704
245.91806
245.97712
245.85366
245.92077
244.62047
245.58121
245.57835
245.5807
245.58052
245.57951
245.57868
245.57797
245.57735
245.57687
245.5765
245.57612
245.57563
245.57498
245.57413
245.57307
245.57181
245.57037
245.5688
245.56712
245.56537
245.56356
245.56174
245.55995
245.55823
245.55666
245.5553
245.55428
245.55371
245.55373
245.55453
245.55625
245.55923
245.56368
245.5699
245.57801
245.58824
245.60094
245.61649
245.63513
245.65734
245.68242
245.71156
245.7387
245.77087
245.77287
245.79471
245.61083
245.61613
244.31524
245.58098
245.57887
245.58053
245.58008
245.57896
245.57806
245.57728
245.57661
245.57609
245.57564
245.57516
245.57454
245.57372
245.57267
245.57136
245.56982
245.56806
245.56612
245.56401
245.56177
245.55941
245.55696
245.55444
245.55189
245.54937
245.54694
245.54469
245.54273
245.54117
245.54017
245.53985
245.5405
245.54234
245.5455
245.55005
245.55612
245.56389
245.57353
245.585
245.59836
245.61239
245.62724
245.63676
245.64413
245.615
245.59667
245.35746
245.3105
244.0179
245.58026
245.57963
245.58015
245.57962
245.57843
245.57749
245.57666
245.57595
245.57539
245.57488
245.57429
245.57354
245.57255
245.57129
245.56975
245.56794
245.56586
245.56355
245.56103
245.5583
245.55538
245.55227
245.54901
245.5456
245.54209
245.53853
245.53498
245.53154
245.52828
245.52533
245.52276
245.52084
245.51976
245.5194
245.51979
245.52097
245.5229
245.52552
245.52845
245.53122
245.53247
245.53129
245.51967
245.50522
245.43831
245.39411
245.10247
245.01882
243.82493
245.57917
245.58147
245.57997
245.5792
245.57797
245.57699
245.57613
245.5754
245.57481
245.57424
245.57357
245.5727
245.57158
245.57016
245.56842
245.56637
245.56403
245.56141
245.55853
245.55538
245.55198
245.54832
245.5444
245.54024
245.53587
245.5313
245.5266
245.52181
245.51701
245.51227
245.50762
245.50328
245.49949
245.49595
245.49255
245.48921
245.48569
245.48159
245.4763
245.46889
245.45677
245.43785
245.40716
245.36067
245.26226
245.18652
244.8947
244.71433
243.73429
247.40836
246.86299
246.46164
246.25994
246.13698
246.0503
245.98231
245.92632
245.87841
245.83568
245.79891
245.76461
245.73571
245.70899
245.68673
245.66577
245.64749
245.63012
245.6153
245.6029
245.59354
245.58636
245.58092
245.57682
245.57387
245.57188
245.57068
245.5701
245.57001
245.57026
245.57077
245.57144
245.57221
245.57302
245.57383
245.57461
245.5753
245.57589
245.57631
245.5767
245.57695
245.57737
245.57765
245.57804
245.57798
245.57728
245.57765
245.57448
245.56911
246.37659
246.17983
246.02284
245.97091
245.9407
245.91117
245.87776
245.84513
245.81352
245.78166
245.75345
245.72487
245.70139
245.67837
245.65976
245.64142
245.62577
245.61063
245.59812
245.58791
245.58062
245.57525
245.57141
245.56874
245.56706
245.56619
245.56596
245.56621
245.56682
245.56767
245.56867
245.56975
245.57085
245.57194
245.57297
245.57392
245.57473
245.57542
245.57591
245.57635
245.57663
245.57708
245.57738
245.57783
245.57784
245.57728
245.57771
245.57462
245.56902
246.26224
246.00418
245.85148
245.81522
245.79449
245.7808
245.76458
245.74856
245.73208
245.71221
245.69507
245.67461
245.65885
245.64143
245.62828
245.61396
245.60205
245.58998
245.58033
245.57267
245.56765
245.56424
245.5621
245.56092
245.56053
245.56077
245.56149
245.56254
245.56383
245.56524
245.56671
245.56818
245.56959
245.57093
245.57216
245.57326
245.57419
245.57497
245.57553
245.57602
245.57632
245.5768
245.57712
245.57761
245.5777
245.57726
245.57776
245.57462
245.56876
245.99684
245.75653
245.64403
245.63753
245.63932
245.64517
245.64571
245.64479
245.64271
245.63428
245.6286
245.61675
245.60973
245.59882
245.59215
245.58273
245.57537
245.567
245.56077
245.55612
245.55372
245.55254
245.55231
245.55277
245.55378
245.55521
245.55693
245.55883
245.56082
245.56281
245.56475
245.5666
245.56833
245.56992
245.57135
245.57261
245.57366
245.57454
245.57516
245.57569
245.57602
245.57653
245.57685
245.57738
245.57754
245.57723
245.57781
245.57463
245.56906
245.85168
245.59771
245.49697
245.50105
245.51162
245.52606
245.53632
245.54507
245.5543
245.55496
245.55979
245.55589
245.55761
245.55334
245.55343
245.5494
245.54703
245.54276
245.54026
245.53889
245.53931
245.54052
245.54232
245.54451
245.54699
245.54965
245.55239
245.55514
245.55783
245.5604
245.56282
245.56505
245.56709
245.56893
245.57055
245.57197
245.57314
245.5741
245.57479
245.57537
245.57572
245.57625
245.57659
245.57715
245.57738
245.57719
245.57785
245.57485
245.56984
245.70404
245.4462
245.36593
245.37882
245.39464
245.41565
245.43477
245.4507
245.46951
245.47728
245.49153
245.49454
245.50457
245.50659
245.51339
245.51487
245.51763
245.51766
245.51909
245.52117
245.52455
245.52827
245.53219
245.53617
245.54015
245.54407
245.54786
245.55148
245.55487
245.55802
245.5609
245.56352
245.56586
245.56794
245.56977
245.57134
245.57262
245.57367
245.57442
245.57505
245.57542
245.57597
245.57632
245.57691
245.5772
245.57712
245.57788
245.57512
245.56985
245.58041
245.31531
245.25253
245.27134
245.29311
245.31751
245.3424
245.36291
245.38977
245.40281
245.42543
245.4343
245.45207
245.45989
245.47312
245.48
245.48786
245.49225
245.49764
245.50326
245.50964
245.51593
245.52201
245.52781
245.53333
245.53852
245.54336
245.54784
245.55194
245.55567
245.55901
245.562
245.56465
245.56697
245.56899
245.57071
245.57211
245.57325
245.57406
245.57473
245.57513
245.57569
245.57606
245.57668
245.57702
245.57704
245.5779
245.57515
245.56946
245.4649
245.19407
245.1496
245.1725
245.19928
245.22637
245.25844
245.28147
245.31545
245.33213
245.36217
245.37599
245.40095
245.41406
245.43335
245.4454
245.45822
245.46692
245.47624
245.48538
245.49478
245.50363
245.51188
245.51952
245.52656
245.53302
245.53891
245.54425
245.54905
245.55334
245.55715
245.56051
245.56345
245.56602
245.56822
245.57008
245.5716
245.57283
245.5737
245.57442
245.57485
245.57542
245.5758
245.57645
245.57683
245.57694
245.57791
245.5752
245.56957
245.35763
245.08127
245.05582
245.08129
245.11363
245.14199
245.1809
245.20511
245.24669
245.26576
245.30269
245.32052
245.35181
245.36982
245.39478
245.41171
245.42928
245.44216
245.45525
245.46784
245.48017
245.49155
245.50193
245.51138
245.51993
245.52764
245.53456
245.54074
245.54622
245.55107
245.55532
245.55904
245.56228
245.56507
245.56746
245.56947
245.5711
245.57241
245.57335
245.57412
245.57457
245.57516
245.57554
245.57623
245.57663
245.57682
245.57791
245.57522
245.56949
245.25688
244.97549
244.97009
244.99655
245.03523
245.06383
245.10981
245.13442
245.18324
245.20393
245.24823
245.26898
245.30581
245.32822
245.35836
245.37976
245.40174
245.41855
245.43517
245.45104
245.46615
245.47994
245.49237
245.50354
245.51354
245.52245
245.53036
245.53734
245.54349
245.54887
245.55355
245.55762
245.56113
245.56415
245.56671
245.56887
245.5706
245.572
245.573
245.57382
245.5743
245.57491
245.57528
245.57602
245.57643
245.57671
245.57791
245.57515
245.56918
245.15999
244.87366
244.88959
244.91558
244.96176
244.98959
245.04378
245.06779
245.12415
245.1459
245.19638
245.22001
245.26289
245.28906
245.32379
245.34937
245.37544
245.39597
245.41593
245.4349
245.45266
245.46875
245.48313
245.49597
245.50735
245.51742
245.52628
245.53405
245.54083
245.54673
245.55183
245.55623
245.56001
245.56325
245.56598
245.56827
245.57012
245.5716
245.57265
245.57352
245.57403
245.57467
245.57504
245.57581
245.57623
245.57659
245.57791
245.575
245.56875
245.06589
244.77523
244.81361
244.83777
244.89278
244.91889
244.98216
245.00487
245.06912
245.09145
245.14853
245.17467
245.22261
245.25243
245.29142
245.3209
245.35071
245.37474
245.39776
245.41964
245.43987
245.45812
245.47434
245.48874
245.50145
245.51261
245.52237
245.53088
245.53827
245.54466
245.55016
245.55488
245.55892
245.56236
245.56527
245.56769
245.56964
245.5712
245.57232
245.57323
245.57378
245.57443
245.5748
245.57559
245.57602
245.57647
245.5779
245.57488
245.5689
244.97348
244.68011
244.74187
244.76285
244.82816
244.85167
244.92491
244.9458
245.01821
245.04088
245.10423
245.13268
245.18551
245.21875
245.26154
245.29464
245.32782
245.3551
245.38091
245.40546
245.42795
245.44818
245.4661
245.48195
245.49587
245.50805
245.51867
245.52787
245.53583
245.54268
245.54855
245.55358
245.55787
245.56151
245.56457
245.56712
245.56917
245.57081
245.57199
245.57295
245.57353
245.57421
245.57458
245.57537
245.57581
245.57636
245.57788
245.57483
245.56942
244.88422
244.5893
244.67536
244.69159
244.76864
244.78866
244.87255
244.89123
244.97193
244.9948
245.06423
245.09488
245.15205
245.18853
245.23464
245.27108
245.30718
245.33743
245.36568
245.39263
245.41712
245.43912
245.45857
245.47572
245.49074
245.50384
245.51522
245.52506
245.53354
245.54082
245.54704
245.55235
245.55686
245.56069
245.5639
245.56657
245.56872
245.57043
245.57167
245.57268
245.57329
245.57399
245.57437
245.57516
245.57561
245.57625
245.57785
245.57484
245.56975
244.79727
244.50044
244.61232
244.62222
244.71276
244.72847
244.82377
244.84008
244.92923
244.9523
245.02759
245.06044
245.12162
245.16124
245.21029
245.24984
245.28853
245.32149
245.35192
245.381
245.40727
245.43086
245.45166
245.46998
245.486
245.49994
245.51201
245.52243
245.53139
245.53906
245.5456
245.55117
245.5559
245.5599
245.56325
245.56604
245.56828
245.57007
245.57136
245.57242
245.57307
245.5738
245.57418
245.57496
245.57541
245.57614
245.57779
245.57484
245.56988
244.71174
244.41416
244.55336
244.55514
244.66088
244.67174
244.7789
244.79294
244.89044
244.91383
244.99461
245.02979
245.0945
245.13722
245.18875
245.2312
245.2721
245.30749
245.33981
245.37073
245.39856
245.4235
245.44549
245.46482
245.48171
245.49638
245.50908
245.52002
245.5294
245.53743
245.54426
245.55007
245.55499
245.55915
245.56264
245.56553
245.56785
245.56971
245.57106
245.57217
245.57286
245.57362
245.57401
245.57478
245.57522
245.57603
245.57772
245.57483
245.56989
244.62832
244.33079
244.49908
244.49084
244.61318
244.61913
244.738
244.75012
244.85592
244.87985
244.96545
245.00322
245.07089
245.11672
245.17023
245.21536
245.25807
245.29557
245.32948
245.36195
245.39107
245.41714
245.44012
245.46031
245.47793
245.49323
245.50646
245.51784
245.5276
245.53594
245.54303
245.54906
245.55415
245.55845
245.56206
245.56505
245.56745
245.56938
245.57078
245.57194
245.57266
245.57346
245.57386
245.57463
245.57505
245.57593
245.57764
245.57479
245.56983
244.5501
244.24936
244.44899
244.42975
244.56963
244.57105
244.70094
244.71133
244.82697
244.85114
244.94023
244.98095
245.05092
245.09986
245.15483
245.20241
245.24651
245.28581
245.321
245.35472
245.38486
245.41183
245.4356
245.45648
245.4747
245.49051
245.50417
245.51593
245.52601
245.53461
245.54192
245.54813
245.55338
245.55781
245.56152
245.5646
245.56707
245.56906
245.57052
245.57172
245.57248
245.57332
245.57374
245.5745
245.57491
245.57585
245.57756
245.57473
245.56971
244.47374
244.16961
244.40282
244.37158
244.52964
244.52679
244.66848
244.67887
244.79961
244.82581
244.91877
244.96289
245.03442
245.0865
245.14246
245.19223
245.23737
245.27813
245.31432
245.34899
245.37991
245.40755
245.43192
245.45332
245.472
245.48821
245.50223
245.51428
245.52462
245.53344
245.54094
245.5473
245.55268
245.55722
245.56102
245.56418
245.56672
245.56876
245.57027
245.57151
245.57233
245.5732
245.57364
245.5744
245.5748
245.5758
245.57749
245.57465
245.56954
244.39482
244.09734
244.35881
244.31744
244.49472
244.48692
244.64026
244.65169
244.77595
244.80555
244.90134
244.94936
245.02168
245.07681
245.13329
245.18491
245.23075
245.27263
245.30952
245.34483
245.37628
245.40436
245.42913
245.45088
245.46989
245.48638
245.50065
245.51293
245.52345
245.53244
245.54009
245.54658
245.55207
245.5567
245.56058
245.5638
245.5664
245.56849
245.57005
245.57133
245.57219
245.5731
245.57357
245.57434
245.57473
245.57577
245.57744
245.57456
245.56933
244.3219
244.02831
244.31753
244.26803
244.46239
244.45388
244.61731
244.6294
244.75622
244.79141
244.88811
244.94041
245.0129
245.07089
245.12729
245.18054
245.22668
245.26937
245.30663
245.34226
245.37398
245.40227
245.42725
245.44919
245.46837
245.48503
245.49945
245.51188
245.52253
245.53164
245.5394
245.54598
245.55156
245.55626
245.56019
245.56347
245.56612
245.56825
245.56985
245.57117
245.57207
245.57303
245.57352
245.57431
245.57469
245.57579
245.5774
245.57447
245.56911
244.25002
243.96454