/*--------------------------------*- C++ -*----------------------------------*\
| =========                 |                                                 |
| \\      /  F ield         | OpenFOAM: The Open Source CFD Toolbox           |
|  \\    /   O peration     | Version:  2506                                  |
|   \\  /    A nd           | Website:  www.openfoam.com                      |
|    \\/     M anipulation  |                                                 |
\*---------------------------------------------------------------------------*/
FoamFile
{
    version     2.0;
    format      ascii;
    arch        "LSB;label=32;scalar=64";
    class       volScalarField;
    location    "1.7";
    object      T;
}
// * * * * * * * * * * * * * * * * * * * * * * * * * * * * * * * * * * * * * //

dimensions      [0 0 0 1 0 0 0];

internalField   nonuniform List<scalar> 
1376
(
245.59063
245.59458
245.59247
245.59
245.58774
245.58633
245.58439
245.58363
245.58262
245.58145
245.58107
245.57984
245.575
245.57403
245.57314
245.56882
245.56908
245.56979
245.56489
245.56271
245.56064
245.55652
245.55354
245.55033
245.54415
245.54078
245.5356
245.52896
245.52352
245.5223
245.51866
245.5153
245.51455
245.51219
245.51017
245.50878
245.507
245.50945
245.50987
245.51117
245.50301
245.48775
245.48199
245.41548
245.34336
245.32121
245.03168
244.69314
244.188
245.58995
245.59385
245.59211
245.5891
245.58762
245.5864
245.58522
245.58396
245.58303
245.58187
245.58208
245.5813
245.57674
245.57555
245.57469
245.57033
245.57211
245.57198
245.56741
245.56535
245.56415
245.5609
245.55757
245.55561
245.55029
245.54784
245.54483
245.53983
245.53517
245.53521
245.5353
245.5348
245.53701
245.53925
245.54175
245.54237
245.54359
245.55204
245.56874
245.58029
245.59034
245.59637
245.58167
245.5587
245.52069
245.48347
245.25212
245.0459
244.38692
245.59221
245.59338
245.59008
245.58793
245.58795
245.58683
245.58601
245.58422
245.58391
245.58259
245.5829
245.58298
245.57962
245.57726
245.57563
245.57265
245.57376
245.57403
245.57018
245.56839
245.56817
245.56607
245.56229
245.56124
245.55792
245.55608
245.55472
245.55135
245.54771
245.54933
245.55217
245.55414
245.55827
245.56514
245.57304
245.57724
245.58242
245.59274
245.61477
245.63709
245.66335
245.68324
245.7023
245.71609
245.69554
245.66596
245.47556
245.39245
244.62919
245.59197
245.59033
245.58786
245.58732
245.58838
245.5873
245.58666
245.5847
245.58438
245.58356
245.58396
245.58507
245.58176
245.57899
245.57812
245.57507
245.57516
245.57693
245.57415
245.57219
245.57316
245.5712
245.56865
245.56687
245.56601
245.56511
245.56405
245.56246
245.56073
245.56372
245.56806
245.57321
245.57947
245.58952
245.60204
245.61152
245.62057
245.63525
245.65971
245.69232
245.72735
245.76261
245.80923
245.83112
245.85446
245.857
245.79316
245.71481
244.85075
245.59181
245.59016
245.58699
245.58734
245.58905
245.58791
245.58742
245.58524
245.58478
245.58473
245.58542
245.58633
245.58359
245.58163
245.58067
245.57783
245.57795
245.57995
245.5784
245.57678
245.57728
245.57676
245.57552
245.57276
245.57412
245.57362
245.57286
245.57372
245.57365
245.57784
245.58496
245.59219
245.60026
245.61363
245.62985
245.644
245.65764
245.67511
245.70541
245.74533
245.79031
245.84301
245.8936
245.95658
246.00275
246.02705
246.01385
246.00321
245.27567
245.59213
245.58983
245.58813
245.58869
245.59016
245.58934
245.58829
245.58584
245.58573
245.5859
245.58644
245.58699
245.58564
245.58391
245.58299
245.58101
245.58037
245.5824
245.5827
245.58107
245.5806
245.58261
245.58166
245.5794
245.5817
245.58241
245.58223
245.58472
245.58677
245.59272
245.60196
245.61113
245.62101
245.63656
245.65615
245.67548
245.69495
245.71636
245.74704
245.79222
245.84554
245.90566
245.98067
246.05423
246.12761
246.20633
246.25603
246.26924
245.62147
245.59105
245.59166
245.58946
245.59032
245.59113
245.59043
245.58894
245.5872
245.5873
245.58723
245.58769
245.58809
245.58793
245.58614
245.58582
245.58524
245.58307
245.58444
245.58618
245.58524
245.58492
245.58801
245.58807
245.5868
245.58972
245.59195
245.59257
245.59571
245.59972
245.6076
245.61888
245.63015
245.64194
245.65907
245.68168
245.70572
245.73038
245.75536
245.79034
245.83863
245.89936
245.9707
246.05033
246.14715
246.25651
246.35974
246.45761
246.5345
246.05808
245.59054
245.59211
245.58907
245.59091
245.59159
245.59137
245.5901
245.58955
245.58912
245.58889
245.58941
245.58955
245.59009
245.58895
245.5884
245.58892
245.58666
245.58704
245.59049
245.5903
245.58961
245.5934
245.59534
245.59464
245.59804
245.60162
245.60319
245.60703
245.61269
245.62211
245.63553
245.64912
245.66296
245.68155
245.70664
245.7343
245.76417
245.79392
245.8309
245.88289
245.94852
246.02624
246.12109
246.23634
246.35691
246.49575
246.63911
246.78009
246.45063
245.59161
245.59198
245.58933
245.59116
245.59173
245.59282
245.59199
245.59186
245.591
245.59083
245.5909
245.59116
245.59234
245.59157
245.59043
245.59189
245.59101
245.59078
245.59448
245.59552
245.59516
245.59883
245.60212
245.60231
245.60651
245.61147
245.6149
245.61895
245.62556
245.63654
245.65198
245.66782
245.68363
245.7038
245.73072
245.76224
245.79633
245.83205
245.87169
245.92666
245.997
246.08144
246.18532
246.30808
246.45669
246.63218
246.81772
247.01158
246.84031
245.59402
245.59319
245.58934
245.59076
245.59192
245.5935
245.59337
245.59351
245.59264
245.59239
245.59265
245.59296
245.59395
245.59453
245.59322
245.59475
245.59552
245.59419
245.59774
245.6005
245.60021
245.60395
245.60874
245.61057
245.61521
245.62133
245.62705
245.63155
245.63883
245.65072
245.66777
245.68584
245.70354
245.72544
245.75431
245.78919
245.82671
245.86754
245.91138
245.96883
246.04336
246.13372
246.24562
246.3827
246.55051
246.74485
246.95801
247.2247
247.19982
245.59547
245.59433
245.58949
245.59113
245.59253
245.5933
245.59462
245.59438
245.59391
245.59405
245.59444
245.59476
245.59571
245.59726
245.59641
245.59803
245.5996
245.59818
245.60164
245.60504
245.60596
245.60968
245.61552
245.61925
245.62399
245.63102
245.63875
245.6444
245.65208
245.66409
245.68253
245.70309
245.72279
245.74617
245.77719
245.81484
245.85634
245.90098
245.94957
246.00929
246.087
246.18346
246.29955
246.44783
246.62802
246.84519
247.10791
247.43719
247.5277
245.59716
245.59579
245.58951
245.59091
245.59191
245.59406
245.59508
245.59502
245.59516
245.5958
245.596
245.59651
245.59766
245.59996
245.59986
245.60123
245.60352
245.60304
245.60593
245.60999
245.61255
245.61592
245.62228
245.62746
245.63258
245.64045
245.64957
245.65682
245.66498
245.67688
245.69628
245.71937
245.74132
245.76571
245.79837
245.83894
245.8841
245.93258
245.98579
246.049
246.12902
246.22885
246.35272
246.50841
246.70353
246.9426
247.23546
247.61395
247.81876
245.59946
245.59713
245.5892
245.59135
245.59158
245.59429
245.59498
245.59592
245.59615
245.59659
245.59712
245.59817
245.59947
245.60172
245.60267
245.60414
245.60714
245.60777
245.61023
245.61474
245.61822
245.6214
245.62825
245.63462
245.64068
245.6495
245.65952
245.6684
245.67739
245.68939
245.70908
245.73428
245.75892
245.78415
245.81747
245.86052
245.90946
245.96178
246.0184
246.08533
246.16852
246.27176
246.40151
246.56271
246.76982
247.02778
247.34145
247.7916
248.07529
245.60216
245.59896
245.58919
245.59262
245.59265
245.59426
245.59501
245.59552
245.59592
245.59678
245.59802
245.59924
245.60078
245.60319
245.60489
245.6066
245.61014
245.61177
245.61373
245.6186
245.62297
245.62647
245.6335
245.64071
245.64784
245.65756
245.66848
245.67885
245.68897
245.70145
245.72106
245.74758
245.77501
245.80142
245.83473
245.87912
245.9317
245.98782
246.04864
246.11815
246.20425
246.31119
246.44389
246.61362
246.82692
247.1032
247.44793
247.93833
248.29623
245.60414
245.60098
245.58894
245.59227
245.59324
245.59443
245.59636
245.59689
245.59674
245.59741
245.59879
245.60051
245.6024
245.60475
245.60684
245.60889
245.61258
245.61515
245.61711
245.62195
245.627
245.63103
245.63825
245.64599
245.65388
245.66438
245.67627
245.68796
245.69917
245.71243
245.73209
245.75923
245.78902
245.81723
245.85038
245.89494
245.95015
246.01024
246.07471
246.1475
246.23584
246.34596
246.4828
246.65704
246.8792
247.1665
247.53962
248.05883
248.48517
245.60565
245.6026
245.58915
245.59237
245.59393
245.59509
245.5968
245.59751
245.59791
245.59905
245.60048
245.60177
245.6034
245.6056
245.60779
245.6103
245.61445
245.61786
245.62019
245.62482
245.63039
245.63504
245.64234
245.65049
245.65898
245.66998
245.68268
245.69548
245.70757
245.72164
245.74161
245.76911
245.8006
245.83087
245.86414
245.90831
245.96466
246.02815
246.09618
246.17207
246.26235
246.37511
246.51596
246.69338
246.92376
247.22028
247.61015
248.16871
248.64048
245.60713
245.60382
245.58955
245.59235
245.59378
245.59584
245.59865
245.5985
245.59825
245.5996
245.60118
245.60295
245.60475
245.60656
245.60839
245.61104
245.61558
245.6197
245.6226
245.62705
245.63297
245.63843
245.64586
245.65427
245.66319
245.67443
245.68763
245.70125
245.71402
245.72862
245.74899
245.77682
245.8094
245.84152
245.87536
245.91898
245.97544
246.04101
246.11208
246.19057
246.28317
246.39757
246.54132
246.72295
246.95679
247.26384
247.66505
248.25055
248.75543
245.60881
245.60492
245.58963
245.59196
245.59358
245.59601
245.59966
245.59988
245.5996
245.60056
245.60176
245.60363
245.6057
245.60785
245.60948
245.61174
245.61602
245.6205
245.62408
245.62849
245.63456
245.64064
245.64823
245.65672
245.66593
245.67744
245.69102
245.70512
245.71836
245.73331
245.75396
245.78205
245.81538
245.84904
245.8838
245.92709
245.98296
246.04947
246.12296
246.20375
246.29794
246.41409
246.5596
246.74379
246.98031
247.29225
247.70413
248.30383
248.83814
245.61011
245.60578
245.58986
245.59153
245.59341
245.59574
245.5991
245.60047
245.59989
245.60069
245.60181
245.60329
245.60557
245.60798
245.60989
245.61231
245.61631
245.62086
245.62499
245.62939
245.63551
245.64197
245.64968
245.65814
245.66759
245.67949
245.69351
245.7078
245.72135
245.73671
245.75763
245.78596
245.81994
245.85481
245.89054
245.93374
245.98888
246.05562
246.1307
246.21361
246.30963
246.42726
246.57472
246.76067
246.99971
247.31485
247.73332
248.34219
248.89097
245.61055
245.6062
245.59021
245.59154
245.59361
245.59604
245.59799
245.60039
245.59995
245.60099
245.60237
245.60293
245.60472
245.60735
245.60986
245.61255
245.61638
245.62089
245.62542
245.62976
245.63587
245.6425
245.65026
245.563
245.56597
245.5682
245.57041
245.57375
245.57749
245.57884
245.58025
245.58116
245.58361
245.58465
245.58703
245.58711
245.58708
245.58003
245.43477
245.45518
245.47145
245.48627
245.49862
245.50772
245.51704
245.52777
245.53805
245.54559
245.54798
245.55419
245.5594
245.56361
245.56666
245.56873
245.5708
245.57371
245.57782
245.57877
245.58052
245.58153
245.58365
245.58492
245.58718
245.58692
245.58648
245.57992
245.14422
245.18785
245.23023
245.26826
245.30038
245.33992
245.36771
245.38718
245.40844
245.42807
245.44388
245.46168
245.47797
245.49241
245.50284
245.51212
245.52203
245.53283
245.54053
245.54588
245.54909
245.55601
245.55969
245.56405
245.56727
245.56888
245.57125
245.57515
245.57814
245.57899
245.58059
245.58201
245.58382
245.58514
245.58757
245.5869
245.58668
245.57917
244.14217
244.44384
244.41241
244.73353
244.77143
244.9277
244.99414
245.07182
245.14377
245.18432
245.22421
245.2552
245.29523
245.33634
245.36445
245.38416
245.40458
245.42471
245.43729
245.45262
245.46938
245.48346
245.49743
245.50766
245.51727
245.52738
245.53619
245.54167
245.54638
245.5518
245.55803
245.55997
245.56471
245.56745
245.568
245.57176
245.57638
245.57854
245.57951
245.5807
245.58236
245.58418
245.58523
245.58784
245.58717
245.58773
245.57822
243.97791
243.87184
244.30501
244.56342
244.57643
244.79468
244.84051
245.01622
245.05028
245.11989
245.17318
245.22143
245.26595
245.30412
245.33635
245.36195
245.3808
245.40097
245.42167
245.43842
245.45074
245.46528
245.47903
245.49157
245.50376
245.51189
245.52116
245.53164
245.53897
245.54444
245.54905
245.55347
245.56003
245.5614
245.56473
245.5673
245.57093
245.573
245.57573
245.57896
245.58015
245.5811
245.58253
245.58431
245.5853
245.58815
245.5875
245.58931
245.5777
244.04015
243.996
244.33128
244.62462
244.54806
244.84402
244.91248
245.05229
245.10397
245.17096
245.23235
245.28312
245.31304
245.34188
245.36725
245.38526
245.40525
245.42225
245.43794
245.44925
245.46199
245.47563
245.4887
245.5012
245.51111
245.5169
245.52607
245.53523
245.54175
245.54765
245.55044
245.55526
245.56135
245.5632
245.56541
245.5684
245.57166
245.57422
245.57692
245.57946
245.58061
245.58167
245.58278
245.58416
245.58565
245.58817
245.58812
245.59253
245.57833
243.99919
244.03027
244.21358
244.74733
244.69838
244.95122
245.01571
245.14887
245.21442
245.2524
245.29881
245.32917
245.35848
245.37562
245.39425
245.41353
245.4275
245.44122
245.45353
245.46431
245.47525
245.48599
245.49711
245.50863
245.51741
245.5241
245.53324
245.53969
245.54477
245.55046
245.55238
245.55764
245.56204
245.56434
245.56682
245.56959
245.57208
245.57483
245.5787
245.58029
245.58104
245.58211
245.58314
245.5844
245.58585
245.58896
245.58938
245.59479
245.57913
243.90791
244.0355
244.5202
244.9185
244.85525
245.072
245.12967
245.22549
245.27478
245.31238
245.34447
245.37949
245.39973
245.41533
245.42706
245.43638
245.44807
245.45976
245.46959
245.47887
245.48828
245.49708
245.50664
245.51679
245.52395
245.53008
245.53877
245.54426
245.54879
245.55329
245.55555
245.56115
245.56386
245.56485
245.56802
245.5704
245.57277
245.57646
245.57987
245.58081
245.58161
245.5828
245.58322
245.58501
245.58683
245.5894
245.59025
245.5946
245.57753
244.05734
244.20756
244.55654
244.99194
244.95422
245.15138
245.23119
245.3102
245.3511
245.38742
245.41103
245.43013
245.43758
245.4429
245.45073
245.4613
245.4718
245.47859
245.48543
245.49333
245.49979
245.50699
245.5166
245.52499
245.53065
245.53682
245.5439
245.54791
245.5526
245.55629
245.55765
245.56407
245.56669
245.56631
245.56903
245.57163
245.5732
245.57758
245.58073
245.58098
245.58203
245.58331
245.58362
245.58557
245.5873
245.58981
245.59125
245.60118
245.5849
244.2316
244.43306
244.65301
245.11393
245.16669
245.30375
245.3429
245.39989
245.43865
245.44853
245.46388
245.46708
245.47051
245.47446
245.47997
245.48661
245.49316
245.49626
245.50237
245.50849
245.51154
245.51744
245.52623
245.53292
245.53762
245.54389
245.54894
245.55217
245.55636
245.55953
245.56059
245.56619
245.56784
245.56816
245.57039
245.57284
245.5739
245.57876
245.58092
245.58092
245.58226
245.58356
245.58403
245.58608
245.58745
245.59018
245.59197
245.5957
245.59052
)
;

boundaryField
{
    Side
    {
        type            empty;
    }
    Inlet
    {
        type            totalTemperature;
        gamma           1.4;
        T0              uniform 250;
        value           nonuniform List<scalar> 
30
(
245.59119
245.59167
245.59207
245.59207
245.59198
245.59191
245.59182
245.59184
245.59195
245.59203
245.59206
245.59202
245.59189
245.59168
245.59137
245.59101
245.59064
245.59032
245.59011
245.59003
245.58566
245.58588
245.58615
245.58633
245.58628
245.58591
245.58599
245.58765
245.58916
245.59059
)
;
    }
    Airfoil
    {
        type            zeroGradient;
    }
    Outlet
    {
        type            inletOutlet;
        inletValue      nonuniform List<scalar> 0();
        value           nonuniform List<scalar> 0();
    }
    procBoundary7to0
    {
        type            processor;
        value           nonuniform List<scalar> 
50
(
245.65864
245.66816
245.68028
245.69463
245.70882
245.72239
245.73828
245.75946
245.78774
245.8218
245.85735
245.89398
245.93727
245.99171
246.05799
246.13331
246.21718
246.31436
246.43299
246.58128
246.76791
247.00724
247.32311
247.74492
248.36009
248.91589
245.60993
245.60591
245.59037
245.59183
245.59356
245.59607
245.59779
245.59981
245.6002
245.60083
245.6019
245.60264
245.60429
245.60669
245.60897
245.61199
245.61606
245.62053
245.62507
245.62915
245.63512
245.64179
245.65864
245.64948
)
;
    }
    procBoundary7to8
    {
        type            processor;
        value           nonuniform List<scalar> 
53
(
245.56208
245.56541
245.56722
245.57034
245.5743
245.57712
245.57877
245.57981
245.58058
245.58328
245.58436
245.58705
245.58741
245.58792
245.57981
245.42428
245.44412
245.46356
245.47904
245.49494
245.50645
245.51662
245.52487
245.53393
245.54292
245.54695
245.55317
245.55888
245.55888
245.08309
245.15061
245.18982
245.23282
245.2845
245.3169
245.34501
245.37125
245.39855
245.41696
245.41696
244.13438
244.39771
244.42286
244.62357
244.73209
244.83741
244.89872
244.98816
245.05657
245.05657
244.08452
243.87686
243.87686
)
;
    }
}


// ************************************************************************* //
