/*--------------------------------*- C++ -*----------------------------------*\
| =========                 |                                                 |
| \\      /  F ield         | OpenFOAM: The Open Source CFD Toolbox           |
|  \\    /   O peration     | Version:  2506                                  |
|   \\  /    A nd           | Website:  www.openfoam.com                      |
|    \\/     M anipulation  |                                                 |
\*---------------------------------------------------------------------------*/
FoamFile
{
    version     2.0;
    format      ascii;
    arch        "LSB;label=32;scalar=64";
    class       volScalarField;
    location    "0.0225";
    object      Ma;
}
// * * * * * * * * * * * * * * * * * * * * * * * * * * * * * * * * * * * * * //

dimensions      [0 0 0 0 0 0 0];

internalField   nonuniform List<scalar> 
13761
(
0.0016410237
0.0049589434
0.0084416772
0.012085328
0.015878607
0.019802322
0.023809648
0.027805435
0.03163704
0.035124378
0.038135099
0.040631739
0.042655791
0.04428453
0.045596839
0.046658672
0.047520835
0.048221032
0.048786839
0.049238694
0.049591833
0.049857367
0.0500434
0.050155729
0.050198214
0.050173147
0.050081414
0.049922654
0.049695318
0.049396701
0.049022934
0.04856891
0.04802817
0.047392648
0.046652207
0.045794194
0.044802628
0.043656967
0.042330344
0.040786767
0.038976629
0.036829578
0.0017242448
0.005234626
0.0089463223
0.012859466
0.016966551
0.021252009
0.025670022
0.030120093
0.034433426
0.038402524
0.04186553
0.044765915
0.047140278
0.049070473
0.050643262
0.051932279
0.052994659
0.05387298
0.054598457
0.055194323
0.055678021
0.056062368
0.056356838
0.056568364
0.056701744
0.056760069
0.056744911
0.056656511
0.056493859
0.056254745
0.055935781
0.055532345
0.055038497
0.054446761
0.05374771
0.052929561
0.051977433
0.050872202
0.049588898
0.0016354992
0.0050034825
0.0086068957
0.01245246
0.01653955
0.020859574
0.025373079
0.02998298
0.034516059
0.038747844
0.04249104
0.045666333
0.048297379
0.050462088
0.05224808
0.053731456
0.054971969
0.056014443
0.056891859
0.057628879
0.058244145
0.058751442
0.059161052
0.059480636
0.059715633
0.059869727
0.059945054
0.059942393
0.059861283
0.059700079
0.059456002
0.059125113
0.058702271
0.058180972
0.057553026
0.056808248
0.0012983789
0.0040327069
0.0070247842
0.010290893
0.013841422
0.017679926
0.021781792
0.026066701
0.030375399
0.034485721
0.038195854
0.041402163
0.044105202
0.046366288
0.048262624
0.049864047
0.051226517
0.05239249
0.053393367
0.054252771
0.054988688
0.055614464
0.056140113
0.056573185
0.056919108
0.057181662
0.05736316
0.057464645
0.057486018
0.057426115
0.057282769
0.00058124037
0.0019299337
0.0035398111
0.0054407191
0.0076596255
0.010218921
0.013120191
0.016318795
0.019697044
0.023065544
0.026227691
0.029056402
0.031515546
0.03363113
0.035452658
0.037030096
0.038405552
0.039611818
0.040673439
0.041609082
0.042433117
0.043156214
0.043786373
0.044329702
0.00041480397
0.0042263785
0.013023987
0.022556677
0.032870009
0.043941393
0.055579332
0.067297198
0.078444465
0.088555095
0.097498603
0.10537177
0.11234445
0.11858078
0.12422091
0.12937853
0.13414335
0.13858597
0.14276151
0.1467122
0.150472
0.15406945
0.15752695
0.16086245
0.16409132
0.16722598
0.17027715
0.17325409
0.17616481
0.17901662
0.18181613
0.1845694
0.18728215
0.18995975
0.19260773
0.19523212
0.19783936
0.20043672
0.20303294
0.20563894
0.20826895
0.21094248
0.21368705
0.21654313
0.21957344
0.22288057
0.22664536
0.23121802
0.23749773
0.24707621
0.25492055
0.25689968
0.25712862
0.25711235
0.257071
0.25702428
0.25697334
0.25691778
0.25685734
0.25679163
0.25672029
0.25664292
0.25655906
0.25646826
0.25637012
0.25626413
0.25614968
0.25602628
0.25589343
0.25575059
0.25559718
0.25543258
0.25525621
0.0042217454
0.013009833
0.022532357
0.032834921
0.043895267
0.05552285
0.067232539
0.078374652
0.088482606
0.097424826
0.10529731
0.11226947
0.1185053
0.12414487
0.12930183
0.13406588
0.13850764
0.14268223
0.14663188
0.15039059
0.15398689
0.1574432
0.16077749
0.16400514
0.16713861
0.1701886
0.17316441
0.17607406
0.17892489
0.18172352
0.18447602
0.18718812
0.18986524
0.19251287
0.1951371
0.19774434
0.20034189
0.20293848
0.20554502
0.20817573
0.21085006
0.21359546
0.21645228
0.219483
0.22278983
0.22655294
0.23112169
0.23738943
0.24699337
0.25522474
0.25741225
0.25768167
0.25767039
0.25762977
0.25758353
0.25753311
0.25747811
0.25741825
0.25735317
0.2572825
0.25720586
0.25712276
0.25703278
0.2569355
0.25683043
0.25671695
0.25659458
0.25646282
0.25632112
0.2561689
0.25600556
0.25583049
0.25564314
0.25544296
0.25522942
0.25500201
0.2547603
0.25450393
0.25423263
0.25394626
0.25364482
0.2533285
0.0042171066
0.012995641
0.022507944
0.032799663
0.043848867
0.055465965
0.067167308
0.078304066
0.088409125
0.097349839
0.10522142
0.1121929
0.11842807
0.12406693
0.12922311
0.1339863
0.1384271
0.14260065
0.14654918
0.15030668
0.15390173
0.15735674
0.16068968
0.16391597
0.16704807
0.17009672
0.17307121
0.1759796
0.17882924
0.18162677
0.18437827
0.18708951
0.1897659
0.19241296
0.19503678
0.1976438
0.2002413
0.20283802
0.20544487
0.20807603
0.21075092
0.21349691
0.21635422
0.2193851
0.22269137
0.22645256
0.23101729
0.23727282
0.24689473
0.25550696
0.25791466
0.258229
0.25822347
0.25818358
0.25813781
0.25808788
0.25803339
0.2579741
0.25790961
0.25783958
0.25776361
0.25768124
0.25759202
0.25749557
0.25739137
0.25727882
0.25715743
0.2570267
0.2568861
0.25673503
0.25657289
0.25639909
0.25621305
0.25601424
0.25580211
0.25557615
0.25533592
0.25508104
0.25481123
0.25452632
0.25422629
0.2539113
0.25358175
0.25323831
0.25288197
0.25251412
0.25213665
0.25175199
0.004212467
0.012981427
0.02248347
0.032764279
0.043802242
0.055408725
0.067101578
0.078232833
0.088334862
0.097273949
0.10514452
0.1121152
0.11834961
0.12398766
0.12914297
0.13390519
0.13834494
0.14251735
0.14646466
0.15022087
0.15381456
0.15726814
0.16059961
0.16382439
0.16695498
0.17000211
0.17297511
0.17588205
0.17873029
0.18152652
0.18427681
0.18698696
0.1896624
0.19230865
0.19493184
0.19753838
0.20013559
0.2027322
0.2053391
0.20797047
0.21064568
0.213392
0.21624954
0.21928032
0.22258575
0.22634478
0.23090533
0.23714845
0.24678224
0.25576783
0.25840706
0.25877093
0.25877197
0.25873286
0.25868754
0.25863805
0.25858404
0.25852526
0.25846132
0.25839187
0.25831652
0.25823482
0.25814632
0.25805063
0.25794723
0.25783555
0.25771507
0.25758532
0.25744575
0.25729577
0.25713479
0.25696219
0.25677743
0.25657994
0.25636919
0.25614464
0.25590586
0.25565245
0.25538412
0.25510068
0.25480207
0.25448843
0.25416012
0.25381775
0.25346228
0.25309501
0.25271777
0.25233289
0.25194333
0.25155281
0.25116585
0.25078793
0.004207803
0.012967128
0.022458821
0.03272861
0.0437552
0.055350919
0.067035168
0.078160868
0.088259864
0.097197349
0.10506694
0.11203684
0.1182705
0.12390774
0.12906215
0.13382338
0.13826204
0.14243326
0.14637928
0.15013411
0.15372633
0.15717837
0.16050826
0.16373141
0.16686033
0.16990579
0.17287714
0.17578244
0.17862911
0.18142383
0.18417271
0.18688155
0.1895558
0.19220101
0.19482331
0.19742913
0.2000258
0.20262204
0.20522873
0.20786004
0.21053528
0.21328166
0.21613914
0.21916951
0.2224738
0.22623038
0.23078655
0.23701716
0.24665804
0.25600833
0.25888973
0.2593079
0.25931635
0.25927812
0.25923317
0.25918407
0.25913047
0.25907213
0.25900867
0.25893973
0.25886493
0.25878382
0.25869595
0.25860094
0.25849827
0.25838737
0.25826773
0.25813887
0.25800025
0.25785129
0.25769139
0.25751994
0.25733639
0.25714018
0.25693075
0.25670759
0.25647023
0.25621827
0.25595141
0.25566943
0.25537225
0.25505997
0.25473293
0.25439168
0.25403712
0.25367051
0.25329358
0.25290857
0.25251835
0.25212651
0.25173744
0.25135646
0.25098991
0.25064519
0.25033087
0.0042032336
0.012953106
0.022434639
0.032693581
0.043708947
0.05529401
0.066969712
0.078089878
0.088185835
0.097121693
0.10499027
0.11195936
0.11819221
0.12382859
0.12898203
0.13374219
0.13817967
0.1423496
0.14629422
0.15004756
0.15363819
0.15708857
0.16041672
0.16363808
0.16676517
0.16980878
0.17277828
0.17568176
0.17852664
0.18131963
0.18406687
0.18677417
0.18944699
0.19209092
0.19471207
0.19731692
0.19991276
0.20250836
0.20511456
0.20774552
0.21042051
0.21316665
0.21602377
0.21905342
0.22235627
0.22611012
0.23066172
0.23687991
0.24652454
0.25622985
0.25936301
0.25984025
0.25985703
0.25981975
0.2597751
0.25972631
0.25967304
0.25961506
0.25955198
0.25948345
0.2594091
0.25932847
0.25924113
0.25914669
0.25904465
0.25893443
0.25881553
0.25868747
0.25854972
0.2584017
0.2582428
0.25807244
0.25789003
0.25769504
0.2574869
0.25726508
0.25702911
0.25677859
0.25651318
0.25623266
0.25593691
0.25562602
0.25530026
0.25496018
0.25460659
0.25424069
0.25386414
0.2534791
0.25308834
0.25269532
0.2523043
0.25192047
0.25154998
0.25120008
0.25087913
0.25059669
0.25036341
0.0041990976
0.01294032
0.022412431
0.032661187
0.043665908
0.055240812
0.066908374
0.078023354
0.088116599
0.097051137
0.10491897
0.11188746
0.11811968
0.12375532
0.12890788
0.13366702
0.13810332
0.14227193
0.1462151
0.14996685
0.15355577
0.15700434
0.16033058
0.16354995
0.16667501
0.16971654
0.17268394
0.17558532
0.17842814
0.1812191
0.18396438
0.18666981
0.18934086
0.19198314
0.19460278
0.19720625
0.19980088
0.20239542
0.20500071
0.20763087
0.21030514
0.21305056
0.21590682
0.21893524
0.22223611
0.22598668
0.23053324
0.23673884
0.24638446
0.25643413
0.25982811
0.26036924
0.26039516
0.26035871
0.2603141
0.2602654
0.26021224
0.26015442
0.26009152
0.26002323
0.25994916
0.25986887
0.25978191
0.25968791
0.25958638
0.25947673
0.25935847
0.25923112
0.25909416
0.25894701
0.25878905
0.25861971
0.2584384
0.25824459
0.25803769
0.25781719
0.25758259
0.25733348
0.25706952
0.25679045
0.25649615
0.25618665
0.25586221
0.25552331
0.25517073
0.25480561
0.25442953
0.25404455
0.25365336
0.25325929
0.25286649
0.25247999
0.25210578
0.25175094
0.25142366
0.25113329
0.25089031
0.25070628
0.25059365
0.0041942393
0.012925417
0.022386735
0.032623971
0.04361678
0.055180406
0.066838971
0.077948235
0.088038521
0.096971681
0.10483883
0.11180688
0.11803868
0.12367381
0.12882575
0.13358412
0.13801951
0.14218705
0.146129
0.14987938
0.1534668
0.15691374
0.16023824
0.16345577
0.1665789
0.16961844
0.17258381
0.17548314
0.17832391
0.18111285
0.18385614
0.18655964
0.18922886
0.1918694
0.19448742
0.1970894
0.19968267
0.20227597
0.20488017
0.20750934
0.21018266
0.21292711
0.21578222
0.21880906
0.22210755
0.22585437
0.23039532
0.23658775
0.24623076
0.25661342
0.26028059
0.2608925
0.26092898
0.2608935
0.26084886
0.26080016
0.26074704
0.26068929
0.2606265
0.26055836
0.2604845
0.26040447
0.26031783
0.26022421
0.26012313
0.260014
0.25989632
0.25976965
0.25963343
0.25948711
0.25933007
0.25916171
0.25898149
0.25878883
0.25858316
0.25836396
0.25813072
0.25788302
0.2576205
0.25734288
0.25705003
0.25674195
0.25641885
0.25608117
0.25572966
0.25536537
0.25498981
0.25460499
0.25421346
0.25381848
0.25342405
0.25303505
0.25265734
0.25229781
0.25196446
0.25166647
0.25141414
0.25121883
0.25109283
0.25104919
0.25110146
0.0041879115
0.012906183
0.022353832
0.032576711
0.043554886
0.055104766
0.066752306
0.077854345
0.087940604
0.096871637
0.10473759
0.11170484
0.11793598
0.12357049
0.12872177
0.13347942
0.137914
0.14208063
0.14602157
0.14977083
0.15335703
0.15680263
0.1601257
0.16334171
0.16646323
0.16950111
0.17246477
0.17536236
0.17820137
0.18098856
0.18373013
0.18643196
0.18909957
0.19173858
0.19435516
0.19695581
0.19954786
0.20214008
0.20474328
0.20737155
0.210044
0.21278752
0.21564149
0.21866675
0.22196281
0.22570581
0.23024106
0.23642036
0.24605839
0.25676259
0.26071526
0.26140559
0.2614546
0.26142061
0.26137627
0.26132781
0.26127495
0.26121749
0.26115502
0.26108722
0.26101372
0.26093409
0.26084789
0.26075475
0.26065421
0.26054567
0.26042865
0.26030269
0.26016727
0.2600218
0.2598657
0.25969836
0.25951923
0.25932774
0.25912332
0.25890542
0.25867355
0.25842726
0.25816619
0.25789005
0.25759866
0.25729201
0.25697027
0.25663385
0.25628344
0.25592003
0.25554508
0.25516049
0.25476874
0.25437296
0.25397704
0.25358572
0.2532047
0.2528407
0.25250156
0.25219626
0.2519349
0.25172867
0.2515897
0.2515309
0.25156569
0.25170757
0.0041813462
0.012886139
0.022319422
0.032527104
0.04348966
0.055024716
0.066660155
0.077753986
0.087835355
0.096763488
0.10462752
0.11159328
0.11782314
0.12345643
0.12860652
0.13336295
0.13779628
0.14196162
0.14590122
0.14964908
0.15323381
0.1566779
0.15999939
0.16321377
0.16633363
0.16936982
0.17233175
0.17522762
0.1780649
0.18085039
0.18359029
0.18629048
0.18895652
0.19159402
0.19420918
0.1968085
0.19939932
0.20199039
0.20459254
0.2072198
0.20989126
0.2126337
0.21548636
0.21850982
0.22180322
0.22554217
0.23007151
0.23623778
0.24586908
0.25688266
0.26113153
0.26190775
0.26197123
0.26193916
0.26189534
0.2618473
0.26179493
0.26173799
0.26167605
0.26160881
0.26153589
0.26145687
0.26137131
0.26127885
0.26117902
0.26107123
0.26095501
0.2608299
0.26069538
0.26055087
0.26039579
0.26022954
0.26005156
0.25986128
0.25965814
0.25944158
0.25921111
0.25896626
0.25870666
0.25843201
0.2581421
0.2578369
0.25751656
0.25718144
0.25683216
0.25646969
0.2560954
0.25571113
0.25531925
0.25492279
0.25452551
0.25413204
0.2537479
0.25337967
0.25303498
0.25272265
0.25245258
0.2522358
0.25208425
0.25201069
0.25202845
0.25215097
0.2523914
0.25276235
0.0041746239
0.012865557
0.022283995
0.032475906
0.043422186
0.054941717
0.066564412
0.077649538
0.087725653
0.096650586
0.10451241
0.11147641
0.11770466
0.12333641
0.12848494
0.1332398
0.13767151
0.14183519
0.14577307
0.14951918
0.15310211
0.15654436
0.15986398
0.16307648
0.16619443
0.16922871
0.17218875
0.17508273
0.17791816
0.18070183
0.18343997
0.18613846
0.18880285
0.19143878
0.19405245
0.19665036
0.19923986
0.20182969
0.20443065
0.20705678
0.20972708
0.21246824
0.21531937
0.21834079
0.22163125
0.2253659
0.22988914
0.23604251
0.24566593
0.25697627
0.26153068
0.26240012
0.26248
0.26245019
0.26240699
0.2623594
0.2623076
0.26225125
0.26218994
0.26212336
0.26205115
0.26197287
0.26188809
0.26179644
0.26169746
0.26159057
0.26147528
0.26135115
0.26121765
0.26107422
0.26092026
0.26075519
0.26057844
0.26038944
0.26018764
0.25997247
0.25974343
0.25950006
0.25924196
0.25896882
0.25868043
0.25837671
0.25805779
0.25772399
0.2573759
0.25701442
0.25664086
0.25625697
0.25586505
0.25546802
0.25506953
0.25467406
0.25428699
0.25391473
0.25356475
0.25324566
0.25296721
0.2527402
0.25257646
0.25248855
0.2524897
0.2525933
0.25281249
0.25315995
0.25364715
0.0041678556
0.01284481
0.02224825
0.032424166
0.043353872
0.054857519
0.066467103
0.077543214
0.087613821
0.096535336
0.10439475
0.11135675
0.11758317
0.12321311
0.12835982
0.13311281
0.13754259
0.14170428
0.14564012
0.14938412
0.15296491
0.15640497
0.15972238
0.16293266
0.16604839
0.16908046
0.17203832
0.17493016
0.17776351
0.18054515
0.18328133
0.18597793
0.18864052
0.19127474
0.19388678
0.19648316
0.1990712
0.20165964
0.20425928
0.2068841
0.20955305
0.21229274
0.21514211
0.21816124
0.22144854
0.22517867
0.22969567
0.23583635
0.24545123
0.25704561
0.26191368
0.26288368
0.262982
0.26295477
0.26291225
0.26286513
0.2628139
0.26275817
0.26269751
0.26263163
0.26256016
0.26248266
0.2623987
0.26230794
0.26220988
0.26210395
0.26198968
0.26186661
0.26173422
0.26159194
0.26143919
0.26127537
0.26109992
0.26091227
0.26071187
0.26049814
0.26027058
0.26002872
0.25977216
0.25950056
0.25921371
0.25891151
0.25859404
0.2582616
0.25791473
0.25755429
0.25718152
0.25679809
0.25640622
0.25600873
0.25560915
0.25521183
0.25482201
0.25444592
0.25409088
0.25376531
0.25347877
0.25324189
0.25306631
0.25296445
0.25294941
0.25303452
0.25323291
0.25355731
0.2540193
0.25462982
0.0041609506
0.012823626
0.022211716
0.032371239
0.043283934
0.05477127
0.066367393
0.077434253
0.087499229
0.096417277
0.10427425
0.11123424
0.11745877
0.12308685
0.12823164
0.13298262
0.13741033
0.14156984
0.14550342
0.1492451
0.15282349
0.15626111
0.15957604
0.16278381
0.16589704
0.16892662
0.17188202
0.17477145
0.17760244
0.18038181
0.18311579
0.1858103
0.18847088
0.19110319
0.19371342
0.19630808
0.19889449
0.20148139
0.20407952
0.20670285
0.20937026
0.21210827
0.21495566
0.21797228
0.22125618
0.2249816
0.22949222
0.23562047
0.24522659
0.25709235
0.26228113
0.26335902
0.26347795
0.26345366
0.26341185
0.26336524
0.26331456
0.26325945
0.26319944
0.26313427
0.26306355
0.26298684
0.26290373
0.26281385
0.26271673
0.2626118
0.26249857
0.26237659
0.26224535
0.26210428
0.26195278
0.26179025
0.26161615
0.2614299
0.26123093
0.26101868
0.26079264
0.26055233
0.26029733
0.26002731
0.25974203
0.25944136
0.25912537
0.25879433
0.25844873
0.25808937
0.25771744
0.25733455
0.25694282
0.25654497
0.25614442
0.25574539
0.25535299
0.25497328
0.25461341
0.25428163
0.25398729
0.25374086
0.25355379
0.25343837
0.25340754
0.25347459
0.25365261
0.25395437
0.25439158
0.25497535
0.25571443
0.004154062
0.012802464
0.02217518
0.032318258
0.043213836
0.054684702
0.066267176
0.077324602
0.087383794
0.096298243
0.10415266
0.11111051
0.11733304
0.12295911
0.12810183
0.13285067
0.13727611
0.14143327
0.14536439
0.14910351
0.15267928
0.15611419
0.15942637
0.16263136
0.1657418
0.1687686
0.17172124
0.17460797
0.17743633
0.18021314
0.18294465
0.18563679
0.18829512
0.19092528
0.19353347
0.19612619
0.19871076
0.20129589
0.20389232
0.20651395
0.20917961
0.21191572
0.2147609
0.21777478
0.22105508
0.2247756
0.22927976
0.23539587
0.24499337
0.25711807
0.26263352
0.26382658
0.2639684
0.26394745
0.26390639
0.2638603
0.26381015
0.26375565
0.2636963
0.26363182
0.26356184
0.26348592
0.26340365
0.26331466
0.26321848
0.26311454
0.26300235
0.26288147
0.26275138
0.26261152
0.26246128
0.26230007
0.26212733
0.2619425
0.26174499
0.26153424
0.26130974
0.26107099
0.26081758
0.26054916
0.26026546
0.25996636
0.25965188
0.25932226
0.25897796
0.25861974
0.2582487
0.25786641
0.2574749
0.25707679
0.2566754
0.25627481
0.25587999
0.25549685
0.25513238
0.25479462
0.25449278
0.25423711
0.25403891
0.25391029
0.25386408
0.25391348
0.25407155
0.25435109
0.25476392
0.25532134
0.25603235
0.25690606
0.0041470728
0.012780983
0.022138071
0.032264417
0.043142583
0.054596694
0.066165288
0.077213143
0.08726651
0.096177378
0.10402927
0.11098502
0.11720558
0.12282964
0.12797028
0.13271692
0.13714005
0.14129476
0.14522331
0.14895975
0.15253272
0.15596477
0.15927401
0.16247601
0.16558343
0.1686072
0.17155685
0.17444062
0.17726607
0.18004006
0.18276884
0.18545835
0.18811415
0.19074191
0.19334781
0.19593836
0.19852085
0.20110399
0.20369847
0.20631817
0.20898186
0.21171584
0.21455858
0.2175695
0.22084599
0.22456148
0.2290591
0.23516342
0.24475273
0.25712429
0.26297131
0.26428676
0.26445388
0.26443669
0.26439641
0.26435084
0.26430119
0.26424728
0.26418857
0.26412477
0.26405551
0.26398036
0.2638989
0.26381078
0.26371552
0.26361255
0.26350139
0.2633816
0.26325264
0.26311397
0.26296498
0.26280508
0.2626337
0.26245027
0.26225422
0.26204497
0.261822
0.26158483
0.26133302
0.2610662
0.26078411
0.26048658
0.26017364
0.25984547
0.25950251
0.25914545
0.25877537
0.25839375
0.25800253
0.25760426
0.25720213
0.25680012
0.25640304
0.25601667
0.2556478
0.25530432
0.25499525
0.25473065
0.25452165
0.25438021
0.25431901
0.25435115
0.25448968
0.25474742
0.25513628
0.25566772
0.25635101
0.25719561
0.25820648
0.0041401498
0.012759686
0.022101256
0.032210951
0.04307175
0.054509097
0.066063757
0.077101965
0.087149423
0.096056626
0.10390592
0.11085948
0.11707796
0.12269994
0.12783839
0.13258273
0.13700341
0.14115554
0.14508138
0.14881497
0.15238499
0.15581397
0.15912006
0.16231886
0.16542303
0.16844355
0.17138994
0.17427048
0.17709276
0.17986365
0.18258942
0.18527602
0.18792903
0.1905541
0.19315744
0.19574553
0.19832568
0.20090655
0.20349885
0.20611637
0.20877783
0.21150943
0.2143495
0.21735724
0.22062972
0.22434002
0.22883106
0.23492399
0.24450586
0.25711262
0.26329502
0.26473994
0.26493487
0.26492189
0.26488244
0.26483739
0.2647882
0.26473485
0.26467675
0.2646136
0.26454502
0.26447061
0.26438993
0.26430263
0.26420826
0.26410622
0.26399605
0.26387729
0.26374944
0.26361192
0.26346414
0.26330551
0.26313545
0.26295341
0.26275879
0.26255103
0.26232958
0.26209397
0.26184375
0.26157854
0.26129805
0.26100212
0.26069072
0.26036403
0.26002244
0.25966659
0.25929752
0.25891662
0.25852577
0.25812743
0.25772468
0.25732137
0.2569222
0.25653276
0.25615971
0.25581076
0.25549472
0.2552215
0.25500203
0.25484812
0.2547723
0.25478759
0.25490698
0.25514332
0.2555086
0.25601445
0.25667037
0.25748616
0.25846747
0.25961272
0.0041331812
0.012738235
0.02206416
0.032157066
0.043000349
0.054420793
0.065961408
0.076989924
0.087031491
0.095935081
0.10378184
0.11073328
0.11694975
0.12256967
0.12770595
0.13244798
0.1368662
0.14101571
0.14493877
0.14866944
0.15223639
0.15566219
0.15896501
0.16216044
0.1652612
0.16827826
0.1712212
0.1740983
0.17691718
0.17968472
0.18240723
0.18509065
0.18774059
0.19036271
0.1929632
0.19554857
0.19812609
0.20070444
0.20329426
0.20590934
0.20856831
0.21129727
0.21413442
0.21713874
0.22040703
0.22411202
0.22859644
0.23467844
0.24425388
0.25708474
0.26360526
0.26518653
0.26541187
0.26540361
0.265365
0.26532044
0.26527169
0.26521886
0.26516131
0.26509876
0.26503083
0.2649571
0.26487714
0.26479062
0.26469706
0.2645959
0.26448665
0.26436888
0.26424206
0.26410564
0.26395902
0.26380159
0.26363281
0.2634521
0.26325888
0.26305256
0.26283261
0.26259854
0.26234989
0.26208628
0.26180739
0.26151305
0.26120321
0.26087802
0.26053782
0.26018322
0.25981519
0.25943508
0.25904468
0.25864636
0.25824309
0.25783862
0.25743749
0.25704518
0.25666815
0.25631395
0.25599121
0.25570965
0.25548004
0.25531401
0.25522394
0.25522276
0.25532342
0.25553875
0.25588084
0.25636146
0.25699037
0.25777764
0.25872966
0.25984522
0.26113199
0.0041263336
0.012717155
0.022027685
0.032104038
0.042930007
0.0543337
0.065860361
0.076879222
0.086914903
0.09581487
0.10365907
0.11060836
0.11682277
0.12244057
0.12757463
0.13231428
0.13672996
0.14087675
0.14479692
0.14852455
0.15208832
0.15551079
0.15881017
0.16200207
0.16509923
0.16811264
0.17105191
0.17392535
0.17674058
0.17950453
0.18222351
0.18490349
0.18755008
0.19016896
0.19276632
0.19534866
0.19792327
0.20049878
0.20308584
0.20569818
0.20835436
0.21108042
0.21391438
0.21691503
0.22017891
0.22387844
0.22835624
0.23442783
0.24399813
0.25704262
0.26390286
0.26562704
0.26588543
0.26588239
0.26584467
0.26580056
0.26575218
0.2656998
0.26564275
0.26558073
0.26551336
0.26544024
0.26536093
0.2652751
0.26518229
0.26508191
0.26497351
0.26485662
0.26473076
0.26459536
0.26444981
0.26429353
0.26412595
0.26394651
0.26375462
0.2635497
0.2633312
0.26309863
0.26285153
0.2625895
0.26231221
0.26201946
0.26171118
0.2613875
0.26104871
0.2606954
0.26032846
0.25994919
0.25955931
0.25916109
0.25875742
0.25835191
0.25794898
0.25755395
0.25717315
0.25681392
0.25648474
0.25619514
0.25595569
0.25577788
0.25567393
0.25565665
0.25573896
0.25593368
0.25625296
0.25670872
0.25731095
0.25807003
0.258993
0.26007908
0.26133732
0.2627237
0.0041195749
0.012696324
0.021991613
0.032051569
0.042860388
0.054247485
0.065760327
0.07676964
0.086799536
0.095695973
0.10353769
0.11048491
0.11669731
0.12231304
0.12744488
0.13218215
0.13659526
0.1407393
0.14465654
0.14838106
0.15194155
0.1553606
0.15865642
0.16184465
0.16493806
0.16794766
0.17088307
0.17375264
0.17656402
0.17932415
0.18203936
0.18471564
0.18735861
0.18997396
0.1925679
0.19514692
0.1977183
0.20029068
0.20287466
0.20548395
0.20813705
0.21085988
0.21369037
0.2166871
0.21994636
0.22364031
0.22811149
0.23417329
0.24374007
0.25698852
0.26418885
0.26606198
0.26635606
0.26635879
0.26632197
0.26627824
0.26623018
0.26617815
0.26612151
0.26605993
0.26599303
0.26592041
0.26584165
0.2657564
0.26566421
0.26556452
0.26545684
0.26534075
0.26521573
0.26508124
0.26493668
0.26478145
0.26461499
0.26443675
0.26424612
0.26404254
0.26382545
0.26359434
0.26334875
0.26308827
0.26281256
0.26252139
0.26221469
0.26189252
0.26155518
0.26120318
0.26083738
0.260459
0.26006971
0.25967168
0.2592677
0.25886127
0.25845668
0.25805912
0.25767473
0.25731071
0.25697533
0.25667796
0.25642898
0.25623972
0.25612225
0.25608925
0.25615358
0.25632808
0.25662492
0.25705618
0.25763207
0.25836325
0.25925744
0.26031424
0.26154408
0.26290401
0.26440332
0.0041132579
0.012676808
0.021957745
0.032002181
0.042794682
0.054165907
0.065665484
0.076665625
0.086689955
0.095582983
0.10342229
0.11036744
0.11657782
0.12219144
0.12732101
0.13205582
0.13646628
0.14060746
0.14452164
0.1482429
0.15179996
0.15521542
0.1585075
0.16169187
0.1647813
0.16778686
0.17071817
0.17358362
0.17639087
0.17914688
0.18185801
0.18453027
0.18716929
0.18978077
0.19237093
0.19494625
0.19751404
0.20008289
0.20266341
0.20526925
0.20791888
0.21063812
0.21346477
0.21645724
0.21971159
0.22339977
0.22786432
0.23391699
0.24348217
0.25692572
0.26446503
0.26649238
0.26682464
0.26683362
0.26679764
0.26675416
0.26670626
0.26665443
0.26659804
0.26653674
0.26647016
0.26639789
0.26631951
0.2662347
0.266143
0.26604384
0.26593676
0.26582133
0.26569705
0.26556336
0.26541968
0.2652654
0.26509999
0.26492286
0.26473344
0.26453113
0.26431539
0.26408571
0.2638416
0.26358265
0.26330851
0.26301892
0.26271378
0.26239315
0.26205726
0.2617066
0.26134198
0.26096456
0.26057592
0.26017816
0.25977397
0.25936674
0.25896064
0.2585607
0.25817291
0.25780431
0.25746299
0.25715813
0.25689993
0.25669955
0.2565689
0.25652054
0.25656728
0.25672191
0.25699669
0.2574038
0.25795369
0.25865726
0.25952293
0.26055066
0.26175222
0.2630858
0.26456112
0.26609886
0.0041072057
0.012658044
0.021925093
0.03195445
0.042731031
0.054086754
0.065573426
0.076564767
0.086583931
0.09547397
0.10331127
0.11025473
0.11646344
0.12207524
0.12720281
0.13193538
0.13634336
0.14048182
0.14439304
0.14811112
0.15166478
0.15507664
0.15836494
0.16154538
0.16463075
0.16763213
0.17055919
0.17342032
0.17622323
0.17897489
0.18168167
0.18434961
0.18698436
0.18959162
0.19217763
0.19474887
0.19731264
0.19987755
0.20245416
0.2050561
0.20770178
0.21041695
0.21323927
0.21622701
0.21947598
0.22315793
0.22761549
0.2336591
0.2432235
0.25685271
0.26473061
0.26691855
0.26729184
0.26730749
0.26727216
0.26722867
0.26718068
0.26712878
0.26707241
0.26701116
0.26694468
0.26687257
0.2667944
0.26670986
0.26661849
0.26651974
0.26641314
0.26629825
0.2661746
0.26604162
0.26589873
0.26574534
0.2655809
0.26540483
0.26521656
0.26501548
0.26480106
0.26457276
0.26433011
0.26407267
0.26380008
0.26351207
0.2632085
0.26288941
0.262555
0.26220572
0.26184232
0.2614659
0.26107798
0.26068057
0.26027627
0.25986836
0.25946088
0.25905872
0.25866773
0.25829477
0.25794774
0.25763565
0.25736853
0.25715735
0.25701387
0.25695052
0.25698002
0.25711517
0.25736824
0.25775155
0.25827575
0.25895202
0.25978942
0.26078829
0.2619617
0.26326902
0.26472036
0.2662392
0.0040999513
0.01263578
0.021886683
0.031898781
0.042657408
0.053995833
0.065468159
0.076449681
0.086463042
0.09534973
0.10318485
0.11012661
0.11633372
0.12194388
0.12706967
0.13180027
0.13620608
0.14034216
0.14425078
0.14796604
0.15151667
0.15492529
0.15821017
0.16138702
0.16446864
0.16746615
0.17038922
0.17324629
0.17604506
0.17879255
0.18149515
0.1841589
0.18678947
0.18939259
0.19197448
0.19454166
0.19710142
0.19966234
0.20223499
0.20483297
0.20747461
0.21018561
0.2130035
0.21598636
0.2192298
0.22290536
0.22735568
0.2333901
0.24295315
0.25675731
0.26497651
0.26733495
0.26775371
0.26777714
0.26774269
0.26769924
0.26765123
0.26759924
0.26754289
0.2674817
0.26741531
0.26734334
0.26726536
0.26718107
0.26709001
0.26699163
0.26688547
0.26677111
0.26664805
0.26651575
0.26637363
0.26622109
0.26605759
0.26588256
0.26569541
0.26549555
0.26528242
0.2650555
0.26481429
0.26455836
0.26428731
0.26400087
0.26369889
0.26338135
0.26304844
0.26270056
0.26233842
0.26196306
0.26157592
0.26117894
0.26077463
0.26036615
0.25995743
0.25955322
0.25915921
0.25878209
0.2584296
0.25811055
0.25783479
0.25761313
0.25745716
0.25737916
0.25739179
0.25750781
0.25773954
0.25809938
0.25859823
0.25924749
0.26005687
0.2610271
0.26217249
0.26345365
0.26488102
0.26638093
0.2678988
0.0040913854
0.012609626
0.02184176
0.031833964
0.042572059
0.053890781
0.065346683
0.07631672
0.086322985
0.09520531
0.10303746
0.10997686
0.11618187
0.12179
0.12691372
0.13164218
0.13604573
0.14017941
0.14408549
0.14779806
0.15134583
0.15475145
0.15803318
0.16120673
0.16428493
0.1672789
0.17019834
0.17305169
0.17584669
0.17859034
0.18128907
0.18394893
0.18657561
0.18917484
0.19175285
0.19431618
0.1968721
0.1994292
0.20199803
0.20459215
0.20722987
0.20993678
0.21275031
0.21572838
0.21896639
0.22263567
0.22707893
0.23310462
0.2426666
0.25663644
0.26519876
0.26773704
0.26820599
0.26823864
0.26820558
0.26816253
0.26811484
0.26806309
0.26800703
0.26794617
0.26788013
0.26780853
0.26773095
0.26764708
0.26755649
0.26745862
0.26735301
0.26723926
0.26711688
0.26698533
0.26684403
0.26669239
0.26652987
0.2663559
0.26616989
0.26597125
0.26575943
0.26553389
0.26529414
0.26503971
0.26477021
0.26448536
0.26418496
0.263869
0.26353762
0.26319117
0.26283033
0.26245607
0.26206978
0.26167331
0.26126908
0.26086015
0.26045032
0.26004421
0.25964735
0.25926628
0.25890857
0.25858282
0.25829872
0.25806688
0.25789876
0.25780647
0.25780259
0.25789983
0.25811056
0.25844728
0.25892108
0.25954361
0.26032522
0.26126702
0.26238453
0.26363963
0.26504307
0.26652402
0.26802614
0.26953147
0.0040828385
0.012583437
0.021796625
0.031768604
0.04248566
0.053784009
0.065222718
0.07618048
0.086178879
0.095056085
0.1028845
0.10982079
0.11602297
0.12162835
0.12674933
0.131475
0.1358757
0.14000644
0.14390949
0.14761893
0.15116347
0.15456576
0.15784407
0.16101411
0.16408873
0.16707905
0.16999477
0.17284436
0.17563555
0.17837537
0.18107024
0.18372623
0.18634902
0.18894437
0.19151851
0.19407796
0.19663
0.19918322
0.20174814
0.2043383
0.20697196
0.20967464
0.21248365
0.21545676
0.21868918
0.22235208
0.22678824
0.23280549
0.24236663
0.2564932
0.26539882
0.26812525
0.26864882
0.26869197
0.26866062
0.26861816
0.26857097
0.26851969
0.2684641
0.26840379
0.26833832
0.26826731
0.26819034
0.26810712
0.2680172
0.26792004
0.26781518
0.26770221
0.26758066
0.26744999
0.26730962
0.26715898
0.26699752
0.26682468
0.26663986
0.2664425
0.26623202
0.26600788
0.2657696
0.2655167
0.26524878
0.26496552
0.26466674
0.26435237