/*--------------------------------*- C++ -*----------------------------------*\
| =========                 |                                                 |
| \\      /  F ield         | OpenFOAM: The Open Source CFD Toolbox           |
|  \\    /   O peration     | Version:  2506                                  |
|   \\  /    A nd           | Website:  www.openfoam.com                      |
|    \\/     M anipulation  |                                                 |
\*---------------------------------------------------------------------------*/
FoamFile
{
    version     2.0;
    format      ascii;
    arch        "LSB;label=32;scalar=64";
    class       volScalarField;
    location    "0.003";
    object      rho;
}
// * * * * * * * * * * * * * * * * * * * * * * * * * * * * * * * * * * * * * //

dimensions      [1 -3 0 0 0 0 0];

internalField   nonuniform List<scalar> 
13761
(
0.66507079
0.66507075
0.66507071
0.66507068
0.66507064
0.66526816
0.66507061
0.66526821
0.66507058
0.66526826
0.66507055
0.66526831
0.66507052
0.66526835
0.6650705
0.66507297
0.6652684
0.66507047
0.66507298
0.66526845
0.66507045
0.66507298
0.6652685
0.66507043
0.66507299
0.66526855
0.66507041
0.665073
0.6652686
0.66507039
0.66507301
0.66526864
0.66507038
0.66507585
0.66507302
0.66526869
0.66507036
0.66507585
0.66507302
0.66526874
0.66507035
0.66507585
0.66507303
0.66526879
0.66507034
0.66507585
0.66507304
0.66526883
0.66507033
0.66507585
0.66507305
0.66526888
0.66507032
0.66507585
0.66507306
0.66526893
0.66507031
0.66507063
0.66507585
0.66507307
0.66526898
0.66507031
0.66507063
0.66507585
0.66507307
0.66526902
0.6650703
0.66507063
0.66507585
0.66507308
0.66526907
0.6650703
0.66507063
0.66507586
0.66507309
0.66526911
0.6650703
0.66507063
0.66507586
0.6650731
0.66526916
0.66507031
0.66507062
0.66507063
0.66507586
0.66507311
0.6652692
0.66507031
0.66507062
0.66507063
0.66507586
0.66507311
0.66526925
0.66507032
0.66507062
0.66507063
0.66507586
0.66507312
0.66526929
0.66507034
0.66507062
0.66507063
0.66507586
0.66507313
0.66526934
0.66507036
0.66507062
0.66507063
0.66507586
0.66507314
0.66526938
0.66507038
0.66507062
0.66507064
0.66507586
0.66507315
0.66526942
0.66507041
0.66507055
0.66507062
0.66507064
0.66507586
0.66507315
0.66526946
0.66507045
0.66507055
0.66507062
0.66507064
0.66507586
0.66507316
0.6652695
0.66507048
0.66507055
0.66507062
0.66507064
0.66507586
0.66507317
0.66526954
0.66507052
0.66507055
0.66507062
0.66507064
0.66507586
0.66507318
0.66526958
0.66507056
0.66507055
0.66507062
0.66507064
0.66507586
0.66507318
0.66526961
0.6650706
0.66507055
0.66507055
0.66507062
0.66507064
0.66507586
0.66507319
0.66526965
0.66507064
0.66507055
0.66507055
0.66507062
0.66507064
0.66507586
0.6650732
0.66526968
0.66507067
0.66507055
0.66507055
0.66507062
0.66507064
0.66507587
0.6650732
0.66526972
0.6650707
0.66507055
0.66507055
0.66507062
0.66507064
0.66507587
0.66507321
0.66526975
0.66507072
0.66507055
0.66507055
0.66507062
0.66507064
0.66507587
0.66507322
0.66526978
0.66507074
0.66507055
0.66507055
0.66507062
0.66507064
0.66507587
0.66507322
0.66526981
0.66507075
0.66507055
0.66507055
0.66507055
0.66507062
0.66507064
0.66507587
0.66507323
0.66526984
0.66507077
0.66507055
0.66507055
0.66507055
0.66507062
0.66507064
0.66507587
0.66507324
0.66526987
0.66507055
0.66507055
0.66507055
0.66507062
0.66507064
0.66507587
0.66507324
0.66526989
0.66507055
0.66507055
0.66507055
0.66507062
0.66507064
0.66507587
0.66507325
0.66526992
0.66507055
0.66507055
0.66507055
0.66507062
0.66507064
0.66507587
0.66507326
0.66526994
0.66507055
0.66507055
0.66507055
0.66507055
0.66507062
0.66507064
0.66507587
0.66507326
0.66526997
0.66507055
0.66507055
0.66507055
0.66507055
0.66507062
0.66507064
0.66507588
0.66507327
0.66526999
0.66507055
0.66507055
0.66507055
0.66507055
0.66507062
0.66507064
0.66507588
0.66507328
0.66527001
0.66507055
0.66507055
0.66507055
0.66507055
0.66507062
0.66507064
0.66507588
0.66507329
0.66527004
0.66507055
0.66507055
0.66507055
0.66507055
0.66507062
0.66507064
0.66507588
0.66507329
0.66507055
0.66507055
0.66507055
0.66507055
0.66507062
0.66507064
0.66507588
0.6650733
0.66507055
0.66507055
0.66507055
0.66507055
0.66507055
0.66507062
0.66507064
0.66507588
0.66507331
0.66507055
0.66507055
0.66507055
0.66507055
0.66507055
0.66507062
0.66507064
0.66507588
0.66507331
0.66507055
0.66507055
0.66507055
0.66507055
0.66507055
0.66507062
0.66507064
0.66507589
0.66507332
0.66507055
0.66507055
0.66507055
0.66507055
0.66507055
0.66507062
0.66507064
0.66507589
0.66507333
0.66507055
0.66507055
0.66507055
0.66507055
0.66507055
0.66507062
0.66507064
0.66507589
0.66507333
0.66507055
0.66507055
0.66507055
0.66507055
0.66507055
0.66507055
0.66507062
0.66507064
0.66507589
0.66507334
0.66507055
0.66507055
0.66507055
0.66507055
0.66507055
0.66507055
0.66507062
0.66507064
0.66507589
0.66507055
0.66507055
0.66507055
0.66507055
0.66507055
0.66507055
0.66507062
0.66507064
0.6650759
0.66507055
0.66507055
0.66507055
0.66507055
0.66507055
0.66507055
0.66507062
0.66507064
0.6650759
0.66507055
0.66507055
0.66507055
0.66507055
0.66507055
0.66507055
0.66507062
0.66507064
0.6650759
0.66507055
0.66507055
0.66507055
0.66507055
0.66507055
0.66507055
0.66507055
0.66507062
0.66507064
0.6650759
0.66507055
0.66507055
0.66507055
0.66507055
0.66507055
0.66507055
0.66507055
0.66507062
0.66507064
0.6650759
0.66507055
0.66507055
0.66507055
0.66507055
0.66507055
0.66507055
0.66507055
0.66507062
0.66507064
0.66507591
0.66507055
0.66507055
0.66507055
0.66507055
0.66507055
0.66507055
0.66507055
0.66507062
0.66507064
0.66507055
0.66507055
0.66507055
0.66507055
0.66507055
0.66507055
0.66507055
0.66507055
0.66507062
0.66507064
0.66507055
0.66507055
0.66507055
0.66507055
0.66507055
0.66507055
0.66507055
0.66507055
0.66507062
0.66507064
0.66507055
0.66507055
0.66507055
0.66507055
0.66507055
0.66507055
0.66507055
0.66507055
0.66507062
0.66507064
0.66507055
0.66507055
0.66507055
0.66507055
0.66507055
0.66507055
0.66507055
0.66507055
0.66507062
0.66507064
0.66507055
0.66507055
0.66507055
0.66507055
0.66507055
0.66507055
0.66507055
0.66507055
0.66507062
0.66507064
0.66507055
0.66507055
0.66507055
0.66507055
0.66507055
0.66507055
0.66507055
0.66507055
0.66507055
0.66507062
0.66507064
0.66507055
0.66507055
0.66507055
0.66507055
0.66507055
0.66507055
0.66507055
0.66507055
0.66507055
0.66507062
0.66507064
0.66507055
0.66507055
0.66507055
0.66507055
0.66507055
0.66507055
0.66507055
0.66507055
0.66507055
0.66507062
0.66507055
0.66507055
0.66507055
0.66507055
0.66507055
0.66507055
0.66507055
0.66507055
0.66507055
0.66507062
0.66507055
0.66507055
0.66507055
0.66507055
0.66507055
0.66507055
0.66507055
0.66507055
0.66507055
0.66507055
0.66507062
0.66507055
0.66507055
0.66507055
0.66507055
0.66507055
0.66507055
0.66507055
0.66507055
0.66507055
0.66507055
0.66507062
0.66507055
0.66507055
0.66507055
0.66507055
0.66507055
0.66507055
0.66507055
0.66507055
0.66507055
0.66507055
0.66507062
0.66507055
0.66507055
0.66507055
0.66507055
0.66507055
0.66507055
0.66507055
0.66507055
0.66507055
0.66507055
0.66507062
0.66507055
0.66507055
0.66507055
0.66507055
0.66507055
0.66507055
0.66507055
0.66507055
0.66507055
0.66507055
0.66507055
0.66507062
0.66507055
0.66507055
0.66507055
0.66507055
0.66507055
0.66507055
0.66507055
0.66507055
0.66507055
0.66507055
0.66507055
0.66507062
0.66507055
0.66507055
0.66507055
0.66507055
0.66507055
0.66507055
0.66507055
0.66507055
0.66507055
0.66507055
0.66507055
0.66507055
0.66507055
0.66507055
0.66507055
0.66507055
0.66507055
0.66507055
0.66507055
0.66507055
0.66507055
0.66507055
0.66507055
0.66507055
0.66507055
0.66507055
0.66507055
0.66507055
0.66507055
0.66507055
0.66507055
0.66507055
0.66507055
0.66507055
0.66507055
0.66507055
0.66507055
0.66507055
0.66507055
0.66507055
0.66507055
0.66507055
0.66507055
0.66507055
0.66507055
0.66507055
0.66507055
0.66507055
0.66507055
0.66507055
0.66507055
0.66507055
0.66507055
0.66507055
0.66507055
0.66507055
0.66507055
0.66507055
0.66507055
0.66507055
0.66507055
0.66507055
0.66507055
0.66507055
0.66507055
0.66507055
0.66507055
0.66507055
0.66507055
0.66507055
0.66507055
0.66507055
0.66507055
0.66507055
0.66507055
0.66507055
0.66507055
0.66507055
0.66507055
0.66507055
0.66507055
0.66507055
0.66507055
0.66507055
0.66507055
0.66507055
0.66507055
0.66507055
0.66507055
0.66507055
0.66507055
0.66507055
0.66507055
0.66507055
0.66507055
0.66507055
0.66507055
0.66507055
0.66507055
0.66507055
0.66507055
0.66507055
0.66507055
0.66507055
0.66507055
0.66507055
0.66507055
0.66507055
0.66507055
0.66507055
0.66507055
0.66507055
0.66507055
0.66507055
0.66507055
0.66507055
0.66507055
0.66507055
0.66507055
0.66507055
0.66507055
0.66507055
0.66507055
0.66507055
0.66507055
0.66507055
0.66507055
0.66507055
0.66507055
0.66507055
0.66507055
0.66507055
0.66507055
0.66507055
0.66507055
0.66507055
0.66507055
0.66507055
0.66507055
0.66507055
0.66507055
0.66507055
0.66507055
0.66507055
0.66507055
0.66507055
0.66507055
0.66507055
0.66507055
0.66507055
0.66507055
0.66507055
0.66507055
0.66507055
0.66507055
0.66507055
0.66507055
0.66507055
0.66507054
0.66507055
0.66507055
0.66507055
0.66507055
0.66507055
0.66507055
0.66507055
0.66507055
0.66507055
0.66507055
0.66507055
0.66507055
0.66507055
0.66507054
0.66507055
0.66507055
0.66507055
0.66507055
0.66507055
0.66507055
0.66507055
0.66507055
0.66507055
0.66507055
0.66507055
0.66507055
0.66507054
0.66507055
0.66507055
0.66507055
0.66507055
0.66507055
0.66507055
0.66507055
0.66507055
0.66507055
0.66507055
0.66507055
0.66507055
0.66507051
0.66507054
0.66507055
0.66507055
0.66507055
0.66507055
0.66507055
0.66507055
0.66507055
0.66507055
0.66507055
0.66507055
0.66507055
0.66507055
0.66507051
0.66507054
0.66507055
0.66507055
0.66507055
0.66507055
0.66507055
0.66507055
0.66507055
0.66507055
0.66507055
0.66507055
0.66507055
0.66507055
0.66507051
0.66507054
0.66507055
0.66507055
0.66507055
0.66507055
0.66507055
0.66507055
0.66507055
0.66507055
0.66507055
0.66507055
0.66507055
0.66507055
0.66507019
0.66507051
0.66507054
0.66507055
0.66507055
0.66507055
0.66507055
0.66507055
0.66507055
0.66507055
0.66507055
0.66507055
0.66507055
0.66507055
0.66507055
0.66507019
0.66507051
0.66507054
0.66507055
0.66507055
0.66507055
0.66507055
0.66507055
0.66507055
0.66507055
0.66507055
0.66507055
0.66507055
0.66507055
0.66507055
0.66507019
0.66507051
0.66507054
0.66507055
0.66507055
0.66507055
0.66507055
0.66507055
0.66507055
0.66507055
0.66507055
0.66507055
0.66507055
0.66507055
0.66506763
0.66507019
0.66507051
0.66507054
0.66507055
0.66507055
0.66507055
0.66507055
0.66507055
0.66507055
0.66507055
0.66507055
0.66507055
0.66507055
0.66507055
0.66506765
0.66507019
0.66507051
0.66507054
0.66507055
0.66507055
0.66507055
0.66507055
0.66507055
0.66507055
0.66507055
0.66507055
0.66507055
0.66507055
0.66507055
0.66506767
0.6650702
0.66507051
0.66507054
0.66507055
0.66507055
0.66507055
0.66507055
0.66507055
0.66507055
0.66507055
0.66507055
0.66507055
0.66507055
0.66507055
0.66505079
0.66506768
0.6650702
0.66507051
0.66507054
0.66507055
0.66507055
0.66507055
0.66507055
0.66507055
0.66507055
0.66507055
0.66507055
0.66507055
0.66507055
0.66507055
0.6650509
0.6650677
0.6650702
0.66507051
0.66507054
0.66507055
0.66507055
0.66507055
0.66507055
0.66507055
0.66507055
0.66507055
0.66507055
0.66507055
0.66507055
0.66507055
0.66495892
0.66505102
0.66506772
0.6650702
0.66507051
0.66507054
0.66507055
0.66507055
0.66507055
0.66507055
0.66507055
0.66507055
0.66507055
0.66507055
0.66507055
0.66507055
0.66507055
0.66495956
0.66505114
0.66506774
0.6650702
0.66507051
0.66507054
0.66507055
0.66507055
0.66507055
0.66507055
0.66507055
0.66507055
0.66507055
0.66507055
0.66507055
0.66507055
0.66455945
0.66496022
0.66505126
0.66506775
0.66507021
0.66507051
0.66507054
0.66507055
0.66507055
0.66507055
0.66507055
0.66507055
0.66507055
0.66507055
0.66507055
0.66507055
0.66507055
0.66456235
0.66496089
0.66505138
0.66506777
0.66507021
0.66507051
0.66507054
0.66507055
0.66507055
0.66507055
0.66507055
0.66507055
0.66507055
0.66507055
0.66507055
0.66507055
0.66507055
0.66456534
0.66496157
0.6650515
0.66506779
0.66507021
0.66507051
0.66507054
0.66507055
0.66507055
0.66507055
0.66507055
0.66507055
0.66507055
0.66507055
0.66507055
0.66507055
0.66507055
0.66330392
0.66456838
0.66496226
0.66505163
0.66506781
0.66507021
0.66507051
0.66507054
0.66507055
0.66507055
0.66507055
0.66507055
0.66507055
0.66507055
0.66507055
0.66507055
0.66507055
0.66507055
0.66331378
0.66457148
0.66496297
0.66505176
0.66506783
0.66507022
0.66507051
0.66507054
0.66507055
0.66507055
0.66507055
0.66507055
0.66507055
0.66507055
0.66507055
0.66507055
0.66507055
0.66507055
0.66031487
0.66332388
0.66457464
0.66496369
0.66505189
0.66506785
0.66507022
0.66507051
0.66507054
0.66507055
0.66507055
0.66507055
0.66507055
0.66507055
0.66507055
0.66507055
0.66507055
0.66507055
0.66507055
0.66034144
0.66333415
0.66457786
0.66496443
0.66505203
0.66506787
0.66507022
0.66507051
0.66507054
0.66507055
0.66507055
0.66507055
0.66507055
0.66507055
0.66507055
0.66507055
0.66507055
0.66507055
0.65459777
0.66036863
0.66334462
0.66458113
0.66496517
0.66505216
0.66506789
0.66507022
0.66507051
0.66507054
0.66507055
0.66507055
0.66507055
0.66507055
0.66507055
0.66507055
0.66507055
0.66507055
0.66507055
0.64572672
0.65465892
0.66039626
0.66335528
0.66458446
0.66496593
0.6650523
0.66506791
0.66507023
0.66507051
0.66507054
0.66507055
0.66507055
0.66507055
0.66507055
0.66507055
0.66507055
0.66507055
0.66507055
0.66507055
0.64584725
0.65472129
0.66042438
0.66336612
0.66458785
0.6649667
0.66505244
0.66506793
0.66507023
0.66507051
0.66507054
0.66507055
0.66507055
0.66507055
0.66507055
0.66507055
0.66507055
0.66507055
0.66507055
0.66507055
0.63534953
0.64596986
0.65478466
0.66045299
0.66337715
0.6645913
0.66496749
0.66505258
0.66506795
0.66507023
0.66507051
0.66507054
0.66507055
0.66507055
0.66507055
0.66507055
0.66507055
0.66507055
0.66507055
0.66507055
0.66507055
0.63556084
0.64609409
0.65484903
0.66048207
0.66338837
0.6645948
0.66496828
0.66505273
0.66506798
0.66507023
0.66507051
0.66507054
0.66507055
0.66507055
0.66507055
0.66507055
0.66507055
0.66507055
0.66507055
0.66507055
0.66507055
0.62712796
0.63577454
0.64622004
0.65491442
0.66051163
0.66339978
0.66459836
0.66496909
0.66505287
0.665068
0.66507024
0.66507051
0.66507054
0.66507055
0.66507055
0.66507055
0.66507055
0.66507055
0.66507055
0.66507055
0.66507055
0.62480854
0.62744102
0.63599015
0.64634769
0.65498084
0.66054168
0.66341139
0.66460198
0.66496991
0.66505302
0.66506802
0.66507024
0.66507051
0.66507054
0.66507055
0.66507055
0.66507055
0.66507055
0.66507055
0.66507055
0.66507055
0.66507055
0.62846764
0.62516613
0.62775478
0.63620769
0.64647702
0.65504827
0.66057223
0.66342318
0.66460565
0.66497074
0.66505317
0.66506804
0.66507024
0.66507051
0.66507054
0.66507055
0.66507055
0.66507055
0.66507055
0.66507055
0.66507055
0.66507055
0.66507055
0.62872838
0.62552032
0.62806883
0.63642703
0.64660798
0.65511669
0.66060325
0.66343516
0.66460939
0.66497159
0.66505333
0.66506806
0.66507025
0.66507051
0.66507054
0.66507055
0.66507055
0.66507055
0.66507055
0.66507055
0.66507055
0.66507055
0.66507055
0.63192748
0.62898223
0.6258712
0.62838307
0.63664807
0.64674052
0.6551861
0.66063476
0.66344733
0.66461318
0.66497244
0.66505348
0.66506809
0.66507025
0.66507052
0.66507054
0.66507055
0.66507055
0.66507055
0.66507055
0.66507055
0.66507055
0.66507055
0.66507055
0.62763401
0.63199634
0.62922994
0.62621868
0.62869734
0.63687072
0.6468746
0.65525648
0.66066673
0.66345969
0.66461702
0.66497331
0.66505364
0.66506811
0.66507025
0.66507052
0.66507054
0.66507055
0.66507055
0.66507055
0.66507055
0.66507055
0.66507055
0.66507055
0.66507055
0.62404133
0.62771944
0.63206277
0.6294716
0.62656271
0.62901148
0.63709488
0.64701017
0.6553278
0.66069917
0.66347223
0.66462092
0.66497419
0.6650538
0.66506814
0.66507025
0.66507052
0.66507054
0.66507055
0.66507055
0.66507055
0.66507055
0.66507055
0.66507055
0.66507055
0.66507055
0.62578467
0.62425401
0.62781014
0.63212752
0.62970745
0.62690321
0.62932536
0.63732043
0.64714718
0.65540005
0.66073206
0.66348496
0.66462487
0.66497508
0.66505396
0.66506816
0.66507026
0.66507052
0.66507054
0.66507055
0.66507055
0.66507055
0.66507055
0.66507055
0.66507055
0.66507055
0.62602296
0.62593623
0.62446675
0.62790584
0.63219086
0.62993773
0.62724016
0.62963885
0.6375473
0.6472856
0.65547321
0.66076541
0.66349786
0.66462888
0.66497598
0.66505412
0.66506818
0.66507026
0.66507052
0.66507054
0.66507055
0.66507055
0.66507055
0.66507055
0.66507055
0.66507055
0.66507055
0.62287981
0.62607139
0.62608289
0.62467902
0.62800655
0.63225311
0.63016266
0.62757351
0.62995182
0.63777537
0.64742535
0.65554725
0.66079919
0.66351093
0.66463294
0.6649769
0.66505429
0.66506821
0.66507026
0.66507052
0.66507054
0.66507055
0.66507055
0.66507055
0.66507055
0.66507055
0.66507055
0.66507055
0.62302556
0.62291148
0.62302681
0.62612225
0.62622541
0.62489043
0.62811227
0.63231452
0.63038251
0.62790325
0.63026414
0.63800455
0.6475664
0.65562216
0.66083341
0.66352418
0.66463704
0.66497782
0.66505445
0.66506823
0.66507027
0.66507052
0.66507054
0.66507055
0.66507055
0.66507055
0.66507055
0.66507055
0.66507055
0.66507055
0.62145238
0.62310456
0.62305187
0.62317613
0.62617585
0.62636422
0.62510056
0.628223
0.63237533
0.63059753
0.62822937
0.63057571
0.63823474
0.6477087
0.65569791
0.66086806
0.6635376
0.6646412
0.66497876
0.66505462
0.66506826
0.66507027
0.66507052
0.66507054
0.66507055
0.66507055
0.66507055
0.66507055
0.66507055
0.66507055
0.66507055
0.62083637
0.62127476
0.62156855
0.62318436
0.62318939
0.62332705
0.6262323
0.62649981
0.62530913
0.62833873
0.63243571
0.63080799
0.62855186
0.63088645
0.63846589
0.64785221
0.6557745
0.66090313
0.66355119
0.66464541
0.6649797
0.66505479
0.66506828
0.66507027
0.66507052
0.66507054
0.66507055
0.66507055
0.66507055
0.66507055
0.66507055
0.66507055
0.66507055
0.61977352
0.62015374
0.62092405
0.62138254
0.62168589
0.62326522
0.62332438
0.62347909
0.62629162
0.62663267
0.62551589
0.62845936
0.63249582
0.63101414
0.62887075
0.63119629
0.63869793
0.64799692
0.65585192
0.66093862
0.66356495
0.66464967
0.66498066
0.66505496
0.66506831
0.66507028
0.66507052
0.66507054
0.66507055
0.66507055
0.66507055
0.66507055
0.66507055
0.66507055
0.61895188
0.6194103
0.6198625
0.62025174
0.62101204
0.62148902
0.62180424
0.62334721
0.62345705
0.62363178
0.62635377
0.62676325
0.62572074
0.62858467
0.63255582
0.6312163
0.62918604
0.63150514
0.63893079
0.64814279
0.65593015
0.66097454
0.66357888
0.66465397
0.66498162
0.66505514
0.66506833
0.66507028
0.66507052
0.66507054
0.66507055
0.66507055
0.66507055
0.66507055
0.66507055
0.66507055
0.61799269
0.61830789
0.6186613
0.61903539
0.61949495
0.61995135
0.62034931
0.6211004
0.62159437
0.62192343
0.62343042
0.62358762
0.62378474
0.62641881
0.62689187
0.62592361
0.6287143
0.63261593
0.63141481
0.62949775
0.63181292
0.63916438
0.64828976
0.65600917
0.66101086
0.66359297
0.66465833
0.6649826
0.66505531
0.66506836
0.66507028
0.66507052
0.66507054
0.66507055
0.66507055
0.66507055
0.66507055
0.66507055
0.66507055
0.61744179
0.61755612
0.61778585
0.61806519
0.61838363
0.61874036
0.61911838
0.61957918
0.62004007
0.62044648
0.62118916
0.62169863
0.62204328
0.62351487
0.62371635
0.62393762
0.62648677
0.62701875
0.6261245
0.62884779
0.63267647
0.63160998
0.62980584
0.63211954
0.6393986
0.64843777
0.65608896
0.66104757
0.66360723
0.66466273
0.66498358
0.66505549
0.66506839
0.66507029
0.66507052
0.66507054
0.66507055
0.66507055
0.66507055
0.66507055
0.66507055
0.66507055
0.6221688
0.6204932
0.61905917
0.61809593
0.61761378
0.61750737
0.61762351
0.61785524
0.61813728
0.6184589
0.61881888
0.61920089
0.61966308
0.6201286
0.62054322
0.62127832
0.62180189
0.62216361
0.62360059
0.62384345
0.62409018
0.62655782
0.62714398
0.62632346
0.62898461
0.63273791
0.63180211
0.63011022
0.63242495
0.63963338
0.64858677
0.65616947
0.66108467
0.66362164
0.66466717
0.66498457
0.66505567
0.66506841
0.66507029
0.66507052
0.66507054
0.66507055
0.66507055
0.66507055
0.66507055
0.66507055
0.66507055
0.61553378
0.61682678
0.61853053
0.61976684
0.62126513
0.6230264
0.6239943
0.62359307
0.62221053
0.62054555
0.6191175
0.61815757
0.61767752
0.61757264
0.6176905
0.61792419
0.61820897
0.61853372
0.61889693
0.61928291
0.61974665
0.62021687
0.62063955
0.62136787
0.62190425
0.6222842
0.62368757
0.62396915
0.62424228
0.62663211
0.62726757
0.62652053
0.62912426
0.63280082
0.63199154
0.63041066
0.63272906
0.63986863
0.64873671
0.65625069
0.66112214
0.66363619
0.66467166
0.66498558
0.66505585
0.66506844
0.66507029
0.66507052
0.66507054
0.66507055
0.66507055
0.66507055
0.66507055
0.66507055
0.66507055
0.62344968
0.62475428
0.62623859
0.62747835
0.62872471
0.63005614
0.63141882
0.63267956
0.63364693
0.63410452
0.6338682
0.63282149
0.63089979
0.62838923
0.62623157
0.62506966
0.62450558
0.62432939
0.62542453
0.62771479
0.62958189
0.62973622
0.62793746
0.62521562
0.62263533
0.62000498
0.61723999
0.61514615
0.61421574
0.6144753
0.6158165
0.61736714
0.61756854
0.61618574
0.61558171
0.61685343
0.61854982
0.61978577
0.62127531
0.62302899
0.62400347
0.62361865
0.62225186
0.62059752
0.61917543
0.61821879
0.61774079
0.61763748
0.61775704
0.6179927
0.6182802
0.61860806
0.61897448
0.61936444
0.61982993
0.62030481
0.62073548
0.62145783
0.62200579
0.62240486
0.6237758
0.62409363
0.62439383
0.62670979
0.62738951
0.62671575
0.62926628
0.63286586
0.63217861
0.63070682
0.63303182
0.64010427
0.64888753
0.65633259
0.66115998
0.6636509
0.66467619
0.66498659
0.66505603
0.66506847
0.6650703
0.66507052
0.66507054
0.66507055
0.66507055
0.66507055
0.66507055
0.66507055
0.62266243
0.62273404
0.62284104
0.62302529
0.62345919
0.62474188
0.62621262
0.62744139
0.62867933
0.63000373
0.63136038
0.63261663
0.63358221
0.63404197
0.63381254
0.63277769
0.63087168
0.62837389
0.62621917
0.62505475
0.62449014
0.62430904
0.62538642
0.62766033
0.62953003
0.62970345
0.6279289
0.62522499
0.62265757
0.62004525
0.61729563
0.61520334
0.61426524
0.61451127
0.61583644
0.61738331
0.61760335
0.6162418
0.61563053
0.61688074
0.61856935
0.61980473
0.62128537
0.62303117
0.62401193
0.62364343
0.62229249
0.62064886
0.61923278
0.61827947
0.61780352
0.6177018
0.61782307
0.61806073
0.61835095
0.61868192
0.61905154
0.6194455
0.61991292
0.62039242
0.62083098
0.62154817
0.62210661
0.62252537
0.62386523
0.62421705
0.6245448
0.62679084
0.62750993
0.62690915
0.62941034
0.63293367
0.63236322
0.63099869
0.63333318
0.64034023
0.64903919
0.65641514
0.66119816
0.66366575
0.66468075
0.66498761
0.66505621
0.66506849
0.6650703
0.66507052
0.66507054
0.66507055
0.66507055
0.66507055
0.66507055
0.66507055
0.62257443
0.62260223
0.62263912
0.62268932
0.62275999
0.62286542
0.6230465
0.62347154
0.62473197
0.62618898
0.62740632
0.62863555
0.62995276
0.63130326
0.63255495
0.63351868
0.63398062
0.63375813
0.63273527
0.63084512
0.62836029
0.62620856
0.62504147
0.62447617
0.62429009
0.62534944
0.6276065
0.62947845
0.62967096
0.62792082
0.625235
0.62268049
0.62008625
0.61735215
0.6152615
0.61431561
0.61454794
0.61585678
0.6173995
0.61763799
0.61629791
0.61567969
0.6169082
0.61858867
0.61982334
0.62129497
0.62303267
0.62401945
0.62366721
0.62233218
0.62069937
0.61928939
0.61833947
0.61786561
0.61776553
0.61788853
0.61812826
0.61842122
0.61875532
0.61912814
0.61952612
0.61999565
0.6204797
0.62092605
0.62163887
0.6222068
0.62264557
0.62395581
0.62433953
0.62469521
0.62687509
0.62762907
0.62710076
0.62955618
0.63300479
0.63254501
0.6312865
0.63363308
0.64057643
0.64919162
0.65649831
0.66123667
0.66368073
0.66468536
0.66498863
0.6650564
0.66506852
0.6650703
0.66507052
0.66507054
0.66507055
0.66507055
0.66507055
0.66507055
0.66507055
0.62255478
0.62256787
0.62258442
0.62260559
0.62263307
0.62266949
0.62271898
0.6227886
0.62289236
0.62307022
0.62348637
0.62472433
0.62616756
0.62737304
0.62859326
0.62990309
0.63124731
0.63249432
0.63345614
0.63392024
0.63370473
0.63269393
0.63081979
0.62834805
0.62619924
0.6250292
0.62446299
0.62427177
0.62531271
0.62755236
0.62942623
0.62963791
0.62791244
0.62524494
0.62270338
0.62012728
0.61740892
0.61532002
0.61436627
0.61458476
0.61587701
0.61741522
0.61767202
0.61635364
0.61572873
0.61693539
0.61860739
0.61984123
0.62130379
0.62303319
0.62402578
0.62368977
0.62237079
0.62074894
0.61934517
0.61839873
0.61792701
0.61782863
0.61795341
0.61819527
0.61849101
0.61882824
0.61920428
0.6196063
0.62007811
0.62056666
0.62102067
0.62172991
0.62230645
0.62276529
0.62404745
0.62446119
0.62484511
0.62696231
0.62774723
0.62729058
0.6297036
0.63307947
0.63272387
0.63157043
0.63393148
0.64081279
0.64934477
0.65658208
0.66127551
0.66369585
0.66469
0.66498967
0.66505658
0.66506855
0.66507031
0.66507052
0.66507054
0.66507055
0.66507055
0.66507055
0.66507055
0.66507055
0.62255758
0.62256094
0.62256568
0.62257197
0.62258006
0.62259031
0.62260321
0.62261951
0.62264032
0.62266731
0.62270307
0.62275169
0.6228201
0.62292206
0.62309657
0.62350368
0.62471871
0.62614793
0.62734101
0.62855174
0.62985384
0.63119148
0.63243359
0.63339336
0.63385955
0.63365104
0.63265242
0.63079446
0.62833598
0.62619
0.62501668
0.62444929
0.62425279
0.62527494
0.62749661
0.62937218
0.6296033
0.62790298
0.62525414
0.62272563
0.6201678
0.61746543
0.6153784
0.61441673
0.61462124
0.61589665
0.61743005
0.61770505
0.61640869
0.61577736
0.61696202
0.61862524
0.61985818
0.62131162
0.62303254
0.62403076
0.62371102
0.62240821
0.6207975
0.61940008
0.61845723
0.6179877
0.61789111
0.6180177
0.61826177
0.61856032
0.61890069
0.61927999
0.61968607
0.62016031
0.62065334
0.62111486
0.62182127
0.62240564
0.62288443
0.62414004
0.62458211
0.62499458
0.62705226
0.6278647
0.62747867
0.62985247
0.63315762
0.63289995
0.63185066
0.63422833
0.64104926
0.6494986
0.65666642
0.66131466
0.6637111
0.66469468
0.66499071
0.66505677
0.66506857
0.66507031
0.66507052
0.66507054
0.66507055
0.66507055
0.66507055
0.66507055
0.66507055
0.62259774
0.62259502
0.62259286
0.62259136
0.62259059
0.62259066
0.62259166
0.62259372
0.62259696
0.62260152
0.62260759
0.62261542
0.62262535
0.62263788
0.62265373
0.622674
0.62270035
0.62273533
0.62278295
0.62285003
0.62295007
0.62312112
0.62351903
0.62471063
0.6261256
0.62730589
0.62850676
0.62980089
0.63113186
0.63236907
0.63332692
0.63379549
0.63359441
0.63260847
0.63076728
0.62832254
0.62617944
0.62500251
0.62443378
0.62423197
0.62523494
0.62743809
0.62931531
0.62956639
0.6278919
0.62526218
0.62274688
0.62020748
0.6175214
0.61543638
0.61446671
0.61465708
0.6159154
0.61744368
0.61773686
0.61646288
0.61582544
0.61698791
0.61864205
0.61987402
0.62131832
0.6230306
0.62403428
0.62373085
0.62244441
0.62084503
0.61945411
0.61851494
0.61804768
0.61795294
0.61808141
0.61832776
0.61862915
0.6189727
0.61935527
0.61976544
0.62024224
0.62073975
0.62120866
0.62191294
0.62250443
0.62300292
0.62423344
0.62470237
0.62514372
0.62714475
0.62798174
0.62766504
0.63000266
0.63323883
0.63307371
0.63212735
0.63452362
0.64128579
0.64965308
0.65675131
0.66135411
0.66372647
0.66469939
0.66499176
0.66505695
0.6650686
0.66507031
0.66507052
0.66507054
0.66507055
0.66507055
0.66507055
0.66507055
0.62274634
0.62274406
0.62274061
0.62273589
0.62273002
0.62272334
0.62271631
0.62270927
0.62270241
0.62269577
0.62268936
0.62268318
0.62267722
0.62267145
0.62266588
0.62266049
0.62265529
0.6226503
0.62264552
0.62264098
0.62263672
0.62263275
0.62262915
0.62262595
0.62262322
0.62262104
0.62261949
0.62261865
0.62261862
0.62261951
0.62262144
0.62262452
0.6226289
0.62263478
0.62264239
0.62265207
0.62266432
0.62267984
0.62269973
0.6227256
0.62275996
0.62280677
0.62287272
0.62297108
0.62313892
0.62352796
0.62469639
0.62609713
0.62726459
0.62845563
0.62974195
0.63106646
0.63229907
0.63325535
0.63372673
0.63353358
0.63256086
0.63073701
0.62830654
0.62616655
0.62498598
0.6244159
0.62420888
0.62519252
0.62737678
0.62925548
0.62952679
0.62787859
0.6252684
0.62276652
0.62024574
0.61757628
0.61549353
0.61451594
0.61469216
0.61593322
0.61745608
0.61776729
0.61651597
0.61587281
0.61701304
0.61865782
0.61988873
0.62132387
0.62302736
0.62403632
0.62374922
0.6224793
0.62089146
0.61950721
0.61857185
0.61810694
0.61801413
0.61814453
0.61839324
0.61869752
0.61904425
0.61943013
0.61984441
0.62032392
0.62082592
0.62130211
0.6220049
0.62260292
0.62312074
0.62432752
0.62482202
0.62529262
0.62723962
0.62809854
0.62784973
0.63015404
0.63332263
0.63324568
0.63240068
0.63481735
0.64152236
0.64980818
0.65683674
0.66139387
0.66374196
0.66470413
0.66499281
0.66505714
0.66506863
0.66507032
0.66507052
0.66507054
0.66507055
0.66507055
0.66507055
0.66507055
0.62277384
0.62277296
0.62277106
0.62276796
0.62276359
0.62275803
0.62275162
0.62274481
0.62273795
0.62273121
0.62272467
0.62271833
0.6227122
0.62270626
0.6227005
0.62269492
0.62268951
0.62268429
0.62267925
0.62267441
0.6226698
0.62266546
0.6226614
0.62265769
0.62265437
0.62265151
0.62264919
0.62264748
0.62264647
0.62264627
0.62264697
0.62264869
0.62265156
0.62265572
0.62266135
0.6226687
0.62267809
0.62269001
0.62270517
0.62272461
0.62274994
0.62278363
0.62282956
0.62289431
0.62299092
0.62315555
0.62353598
0.62468202
0.62606815
0.6272221
0.6284029
0.62968119
0.63099904
0.63222681
0.63318122
0.63365508
0.6334695
0.6325097
0.63070301
0.62828691
0.62615045
0.62496667
0.6243955
0.62418357
0.62514826
0.62731362
0.62919334
0.62948441
0.62786228
0.62527178
0.62278361
0.62028168
0.61762924
0.61554925
0.61456411
0.61472643
0.61595026
0.61746741
0.61779627
0.6165677
0.61591934
0.61703749
0.61867266
0.6199024
0.62132838
0.62302292
0.6240369
0.62376603
0.62251274
0.62093664
0.61955928
0.61862789
0.61816545
0.61807467
0.61820705
0.61845821
0.61876542
0.61911537
0.61950459
0.61992299
0.62040533
0.62091186
0.62139527
0.62209715
0.62270121
0.62323787
0.62442215
0.62494111
0.62544132
0.62733675
0.62821527
0.62803278
0.63030649
0.63340873
0.63341624
0.6326708
0.6351095
0.64175893
0.64996388
0.6569227
0.66143392
0.66375758
0.66470891
0.66499387
0.66505733
0.66506866
0.66507032
0.66507052
0.66507054
0.66507055
0.66507055
0.66507055
0.66507055
0.62279983
0.62279899
0.62279712
0.6227941
0.62278981
0.62278433
0.62277798
0.62277122
0.62276439
0.62275767
0.62275112
0.62274476
0.62273859
0.6227326