/*--------------------------------*- C++ -*----------------------------------*\
| =========                 |                                                 |
| \\      /  F ield         | OpenFOAM: The Open Source CFD Toolbox           |
|  \\    /   O peration     | Version:  2506                                  |
|   \\  /    A nd           | Website:  www.openfoam.com                      |
|    \\/     M anipulation  |                                                 |
\*---------------------------------------------------------------------------*/
FoamFile
{
    version     2.0;
    format      ascii;
    arch        "LSB;label=32;scalar=64";
    class       volScalarField;
    location    "1.1";
    object      k;
}
// * * * * * * * * * * * * * * * * * * * * * * * * * * * * * * * * * * * * * //

dimensions      [0 2 -2 0 0 0 0];

internalField   nonuniform List<scalar> 
1376
(
34.489236
20.529779
11.357329
9.7056355
9.6386604
9.5334946
9.3651669
9.1040736
8.8769735
8.6608232
8.4469715
8.2206915
8.0388755
7.8763147
7.7120749
7.5549617
7.4216884
7.299289
7.1846738
7.0759429
6.9839704
6.9169526
6.869184
6.8351227
6.8101159
6.791104
6.7759441
34.321055
16.874942
10.549803
9.5160509
9.5878555
9.4579513
9.2855654
9.0140433
8.7936198
8.5787703
8.3931055
8.182867
8.0015111
7.8217977
7.6917358
7.5542801
7.4162809
7.2916707
7.1784415
7.0743777
6.9915934
6.9284857
6.8817721
6.8486509
6.8247949
6.8065953
6.7920237
6.781746
6.773128
34.526594
15.433349
10.26204
9.5206712
9.534454
9.4046511
9.2546126
8.9726085
8.7556278
8.5268109
8.3612411
8.1687401
7.996861
7.8147934
7.6762844
7.5441893
7.4167796
7.2919122
7.1778301
7.0814205
7.0038128
6.9423582
6.895572
6.8627373
6.8394945
6.8217762
6.8076058
6.7979923
6.7899133
6.7832798
34.067978
15.572703
10.351048
9.4690858
9.5207689
9.3309703
9.1979419
8.9371786
8.7224183
8.476812
8.3131689
8.1331092
7.9737729
7.8065741
7.6784491
7.5365738
7.4140259
7.2921983
7.180521
7.0859595
7.0115357
6.9532703
6.9085093
6.876432
6.8536563
6.8365023
6.8227139
6.8137679
6.8059232
6.7992398
6.7937735
33.282845
14.926645
10.258542
9.5000782
9.4936654
9.2747286
9.1529696
8.8963005
8.6968387
8.4483938
8.2813142
8.0970449
7.9660206
7.8074773
7.6700885
7.5286015
7.416628
7.2958912
7.181559
7.0892003
7.0169624
6.9627447
6.9211292
6.8901756
6.8673358
6.8508007
6.8374705
6.8290384
6.82123
6.8146795
6.8097031
6.8064859
6.8044498
32.424546
15.273219
10.415177
9.5111393
9.5246767
9.2319373
9.1093216
8.8462177
8.6514351
8.4187258
8.2516912
8.0762631
7.942483
7.7984414
7.6713154
7.5234551
7.4061871
7.2897138
7.1833566
7.0928185
7.0232476
6.9720946
6.932842
6.9035104
6.8804579
6.8645683
6.8519522
6.8438779
6.8360474
6.8297612
6.8253112
6.8222815
6.8205448
6.8205501
31.343495
14.7662
10.416673
9.5546739
9.5239935
9.1991412
9.0854271
8.8043825
8.6153882
8.3937464
8.2380085
8.0754833
7.9438089
7.7963861
7.6547715
7.5166106
7.3993567
7.2867525
7.1864743
7.0962124
7.0304622
6.9818371
6.9446005
6.9165398
6.8935359
6.8782116
6.8663631
6.858463
6.8507077
6.844695
6.8406711
6.8379432
6.8365094
6.8368519
6.8389359
30.664218
14.964352
10.485072
9.5842974
9.5500582
9.1809421
9.073447
8.7784323
8.589384
8.3680305
8.2160293
8.0696291
7.9422087
7.7961884
7.6453927
7.5093406
7.3973682
7.2852722
7.1889929
7.1011344
7.0418715
6.9929972
6.9567216
6.9291502
6.906728
6.8918285
6.8806573
6.8729822
6.8654584
6.8596017
6.8558769
6.8535556
6.8523975
6.8531098
6.8555487
6.8604855
29.739137
14.278547
10.402813
9.6254056
9.5462267
9.1672491
9.0637732
8.7479635
8.5668747
8.3492894
8.2120383
8.0682505
7.9377384
7.7997574
7.6391263
7.4991895
7.3919069
7.2861031
7.1916631
7.1076807
7.0550485
7.0042988
6.9686219
6.940842
6.9196973
6.9054335
6.8947679
6.8874088
6.8801756
6.8744413
6.8709453
6.8690818
6.8682234
6.8692884
6.8721543
6.8775368
29.481197
14.429928
10.411157
9.6563168
9.53195
9.162381
9.0365017
8.7076908
8.5231061
8.3235163
8.2119662
8.0661694
7.9258009
7.7965734
7.6372226
7.4934718
7.3867818
7.2886572
7.1945918
7.1156264
7.065362
7.0151862
6.9804337
6.9522612
6.9325697
6.9190101
6.9086033
6.9017376
6.894752
6.8892236
6.8859859
6.8845325
6.8840575
6.8854323
6.8887866
6.8946703
6.9033313
28.969293
13.358876
10.241153
9.7022777
9.5093393
9.1580639
8.9985724
8.6748393
8.4800249
8.2810025
8.2154963
8.0804037
7.9261811
7.7863247
7.6296066
7.4869562
7.3829316
7.2884272
7.1961975
7.1235266
7.0723377
7.0255751
6.9915071
6.9635981
6.9452054
6.9324643
6.9220841
6.9158626
6.9091771
6.9039721
6.9011116
6.8999686
6.8999736
6.9016729
6.9055374
6.9119705
6.9211693
6.9340744
29.079066
13.386669
10.223961
9.7158217
9.5215001
9.1621135
8.9590968
8.6628693
8.455356
8.2418716
8.1824468
8.0779009
7.9299397
7.7751117
7.6210992
7.4782216
7.3814919
7.2844567
7.1966963
7.1303079
7.077739
7.0348471
7.0015923
6.9754167
6.9576731
6.9457652
6.9353113
6.9296135
6.9234526
6.918721
6.9162943
6.9154334
6.9159551
6.9180631
6.9224398
6.9294547
6.9392674
6.9528298
6.9711125
28.310674
11.749625
10.089451
9.713741
9.5559311
9.1590134
8.9227879
8.6515816
8.4416079
8.2320739
8.1569785
8.0573914
7.9221491
7.7594087
7.6111562
7.4694679
7.3787884
7.2828893
7.1979976
7.1345009
7.084215
7.0442991
7.0109641
6.9877176
6.9702046
6.9586895
6.948619
6.943013
6.9374879
6.9334842
6.9314283
6.9309189
6.9319438
6.9345562
6.9394822
6.9470911
6.9575916
6.9718786
6.9909478
7.0161682
28.475944
11.795117
10.106822
9.6490817
9.5812584
9.1675724
8.9112792
8.6200962
8.4129632
8.2316207
8.1450539
8.0497004
7.8971583
7.7382468
7.5909258
7.4620167
7.3704313
7.2809082
7.2027375
7.1393085
7.0911189
7.0539373
7.0207536
6.9998767
6.9829467
6.9713586
6.9619635
6.9563947
6.9513231
6.9482527
6.94652
6.946469
6.9479909
6.9511683
6.9567073
6.9649312
6.976171
6.9912583
7.0111814
7.0373857
7.0715679
26.794476
10.753068
10.04701
9.630247
9.6073188
9.1791705
8.9175563
8.5839635
8.3755417
8.2160775
8.1258071
8.0572525
7.8881946
7.7331669
7.5655479
7.4511088
7.362482
7.2784969
7.2046921
7.1482814
7.0992294
7.062989
7.0321611
7.0116994
6.9955389
6.9842768
6.9752748
6.9699767
6.9652287
6.9629808
6.9616868
6.9621597
6.9642238
6.9679867
6.9741898
6.983087
6.9950891
7.0110567
7.0319081
7.0591693
7.0945477
7.1403298
25.998255
10.906585
10.188516
9.6208217
9.5503965
9.165017
8.9016684
8.5694696
8.3556525
8.1898264
8.0981694
8.0614186
7.8797586
7.7445719
7.5540499
7.4389445
7.3526287
7.2786704
7.2035056
7.1548857
7.1097413
7.0700974
7.043835
7.0236283
7.0075318
6.9972141
6.9886916
6.9835578
6.9793622
6.9775497
6.9769214
6.9779682
6.9806311
6.9850371
6.9919183
7.0015611
7.0143564
7.0312811
7.053146
7.0815417
7.1182025
7.1654214
7.2264729
24.776589
10.934928
10.245929
9.6549725
9.4968717
9.14004
8.8313406
8.5573943
8.3220854
8.1617559
8.0736516
8.058113
7.8672257
7.7512363
7.5496696
7.4331484
7.3444426
7.2788468
7.2061666
7.1569883
7.1182142
7.0774618
7.0536506
7.0351956
7.0194498
7.0093752
7.0022823
6.9971094
6.9936376
6.9919947
6.9921996
6.9938595
6.9971563
7.0023249
7.0098893
7.0203276
7.0339811
7.0519279
7.0748997
7.1045132
7.1425502
7.1913216
7.2541293
7.3356218
23.69868
11.186378
10.34124
9.6623236
9.4581598
9.1222553
8.7885527
8.5450083
8.2846142
8.1255195
8.0444088
8.0374235
7.8498683
7.7516613
7.5435252
7.4297162
7.3436557
7.2694331
7.213024
7.1591195
7.1230175
7.0856691
7.0623491
7.0445894
7.0318092
7.020922
7.0156878
7.0108331
7.0079946
7.0065256
7.0075823
7.0098843
7.0138304
7.0198638
7.028188
7.0394289
7.0540232
7.07305
7.0972247
7.1281435
7.1676509
7.2180994
7.2827875
7.3664926
7.4767493
22.644515
11.173252
10.344702
9.6579878
9.3754778
9.0745494
8.7595101
8.5386663
8.2658232
8.1009554
8.0193855
7.9917535
7.8114576
7.7518286
7.5400352
7.4271977
7.3510245
7.2670026
7.2148516
7.162774
7.1272972
7.0935263
7.0731279
7.051911
7.0437064
7.0329833
7.0286077
7.0248133
7.0224673
7.0214009
7.0231574
7.0261319
7.0307586
7.0376719
7.0468903
7.0589522
7.0745588
7.0947223
7.1201941
7.1525116
7.193592
7.2458399
7.3125418
7.3986206
7.5116877
7.6637523
21.827668
11.511516
10.329881
9.676058
9.2899057
9.0496236
8.716337
8.5254841
8.2417323
8.0920962
8.0059123
7.9774365
7.760943
7.715649
7.5342873
7.4284301
7.3528628
7.2779674
7.2170101
7.1661719
7.1323902
7.101022
7.0836629
7.061979
7.0542103
7.04587
7.0413603
7.0388688
7.0369991
7.0366833
7.0389588
7.0426339
7.0480196
7.0557543
7.0659744
7.0789518
7.0956253
7.1169763
7.1438363
7.1776533
7.2204148
7.2745788
7.3434555
7.4320725
7.5481544
7.7039425
7.9233248
20.704116
11.152555
10.227665
9.6207869
9.229779
9.0300673
8.6778575
8.5038587
8.2113978
8.09358
7.9918728
7.9960346
7.7422016
7.6839393
7.5030139
7.4303687
7.346393
7.2837472
7.2262927
7.1754308
7.140206
7.107345
7.0924031
7.0740441
7.0657259
7.0589656
7.0544008
7.0527356
7.0515156
7.052151
7.055014
7.0594108
7.0656258
7.0741504
7.0854066
7.09943
7.1172418
7.1398339
7.1681678
7.2035931
7.2481458
7.3043503
7.3755724
7.4669131
7.5862279
7.7460195
7.9705703
8.310288
8.9102945
20.136212
11.360536
10.154523
9.5451157
9.1801212
8.9913983
8.6316247
8.4932293
8.1703728
8.0803647
7.9696142
8.0233192
7.7548477
7.6799531
7.4877396
7.4248622
7.342316
7.2792392
7.2296854
7.1819418
7.1502419
7.1159905
7.1017994
7.0848945
7.0777182
7.0716864
7.0677834
7.0663235
7.0660061
7.0676023
7.0712751
7.0764835
7.0836024
7.0929551
7.1052337
7.1204114
7.1394649
7.1633703
7.1932519
7.2303937
7.2768571
7.3352286
7.408973
7.5032393
7.6260194
7.7901098
8.0201886
8.3676079
8.9771697
19.149775
11.046596
10.105917
9.5172145
9.1416105
8.9682988
8.5603948
8.4878504
8.1341354
8.0365306
7.9480799
8.019144
7.7712964
7.6941501
7.4856546
7.4127677
7.3411959
7.2724141
7.2236716
7.1817971
7.154951
7.1248133
7.111827
7.0953025
7.0882664
7.0833536
7.0810359
7.0798936
7.0805439
7.0831277
7.0876439
7.0937941
7.101976
7.1122298
7.1255402
7.1419592
7.1623441
7.1876678
7.2191687
7.2581394
7.306642
7.3673121
7.4437554
7.5411639
7.6676592
7.8363519
8.0723561
8.4280149
9.0477612
18.702335
11.152133
10.064059
9.5284584
9.1113559
8.9629891
8.4951916
8.4611335
8.1110872
8.0259017
7.9377048
7.9712389
7.7483717
7.7106181
7.4905248
7.4099852
7.3416174
7.2710304
7.2236436
7.1834372
7.1540861
7.13095
7.1210609
7.1063707
7.0992721
7.0950432
7.0944168
7.0939398
7.0953357
7.098944
7.104252
7.1113082
7.120659
7.1319788
7.1463725
7.164107
7.1859205
7.212766
7.2459719
7.2868944
7.3375666
7.4006826
7.4799998
7.5807694
7.7112539
7.884877
8.1272292
8.4917186
9.1222965
17.860856
10.700807
10.040094
9.6206634
9.0791204
8.9570203
8.4413475
8.41246
8.0863479
8.0421221
7.9349195
7.9381759
7.7103804
7.7149323
7.4992523
7.4168102
7.3519947
7.2835879
7.2363125
7.1954673
7.1571824
7.1379111
7.1292397
7.1177549
7.1114459
7.1076986
7.1073293
7.1083563
7.1102844
7.1150086
7.1212612
7.1292207
7.139607
7.152218
7.1677708
7.1868697
7.2102239
7.238706
7.2737303
7.3167287
7.3697007
7.4354343
7.5177977
7.6221564
7.7569231
7.9358248
8.1849833
8.558958
9.2011329
17.254477
10.731562
10.039827
9.6867942
9.065101
8.9772204
8.4139097
8.3893117
8.0614171
8.0212754
7.9326322
7.9314101
7.70291
7.7077555
7.4960578
7.4160815
7.3502401
7.2798942
7.2360725
7.2014748
7.1706841
7.148271
7.1357326
7.1284742
7.1239032
7.1211179
7.1206994
7.1230958
7.1258584
7.1314958
7.1386802
7.147678
7.1589597
7.1729288
7.1897358
7.2103115
7.2352656
7.2655253
7.3024949
7.3476957
7.4031226
7.4716596
7.5572328
7.6654188
7.8048018
7.989361
8.2458165
8.6299829
9.2846693
16.542739
10.794849
9.8841002
9.644083
9.0165258
8.9423735
8.4004408
8.3548876
8.0399304
7.9439825
7.8764041
7.9313227
7.715135
7.6749309
7.4645611
7.3921604
7.3339536
7.2735998
7.2277861
7.2043073
7.1767878
7.156272
7.1458634
7.139091
7.1368468
7.1346873
7.1355945
7.1381624
7.1418384
7.1483195
7.1563648
7.1666906
7.1789215
7.1941439
7.21239
7.2344796
7.261094
7.2932791
7.3323337
7.3798616
7.4379091
7.5094518
7.5984264
7.7106971
7.8550201
8.0456592
8.3099537
8.7050601
9.3733952
15.894956
10.862419
9.7997104
9.4868472
8.891345
8.8513246
8.3880542
8.3132989
8.0309459
7.9170325
7.8366786
7.9279228
7.7440969
7.6612021
7.4503602
7.3886308
7.3300204
7.2761196
7.2362253
7.2068518
7.1788205
7.1625977
7.1580287
7.1499828
7.1485845
7.1471635
7.1497065
7.1527088
7.1575716
7.1651341
7.1743893
7.1861115
7.1995066
7.2159731
7.2357071
7.2593765
7.2877756
7.3220076
7.3633072
7.413327
7.4741544
7.5489116
7.6415646
7.758195
7.9077577
8.1049201
8.3776479
8.7845252
9.4678708
15.277627
10.933307
9.77892
9.4189721
8.8352636
8.8077053
8.3652466
8.3141177
8.032701
7.9063391
7.8337146
7.9037227
7.742973
7.6380707
7.4493589
7.3931533
7.3368936
7.2792258
7.243365
7.2068708
7.1867605
7.1700707
7.1646656
7.1602842
7.1580317
7.1591894
7.1623561
7.1668887
7.1735425
7.1822472
7.1928503
7.2057259
7.2206884
7.2384022
7.2597273
7.2851165
7.3154274
7.3518047
7.395482
7.448146
7.5119657
7.5901429
7.6867755
7.8080488
7.9632099
8.1673815
8.449171
8.8687378
9.5687373
14.651573
10.945232
9.7857193
9.3792018
8.8234933
8.7648693
8.2992267
8.2564173
7.9927415
7.8830232
7.8490424
7.8718339
7.6577182
7.6124348
7.4480134
7.3847333
7.3272727
7.2839378
7.2425542
7.216298
7.1955172
7.1821524
7.1751197
7.172018
7.1716563
7.1728764
7.1769912
7.1826488
7.1905066
7.2001496
7.2119205
7.2255828
7.2423863
7.2615784
14.10966
10.922095
9.6999755
9.3657796
8.8097465
8.7230286
8.2842575
8.1730763
7.9359436
7.8483755
7.865965
7.8666695
7.6233873
7.5654721
7.4418151
7.3669002
7.3206883
7.2769569
7.2424401
7.2187161
7.2006334
13.638777
11.000576
9.5833574
9.3814678
8.7552894
8.7209698
8.2843479
8.1628916
7.9228893
7.8385148
7.8352075
13.132219
10.958319
24.984654
28.064025
31.37579
31.003681
27.735309
25.046423
22.588935
20.556619
19.11919
20.872895
20.625001
20.141358
19.799945
18.910907
18.06178
11.257298
11.040468
10.841722
10.806059
10.608323
10.397125
9.771009
9.7372802
9.6763073
9.5787795
9.4417746
9.3095474
9.6911707
9.6508926
9.5858156
9.4997676
9.385902
9.2715852
9.599864
9.5848267
9.5574626
9.4943228
9.397344
9.2920366
9.4126869
9.4050818
9.3915297
9.348858
9.2699863
9.1812755
9.1593573
9.1648636
9.1604233
9.1305147
9.0649944
8.9952301
8.9221023
8.9201358
8.9138342
8.8874496
8.8328161
8.6773563
8.6681482
8.6604823
8.639658
8.5989592
8.4457335
8.4371812
8.4298007
8.4092583
8.3716484
8.2232896
8.2200838
8.2163794
8.1990833
8.1654951
8.0414737
8.0353514
8.0255984
8.0038954
7.9723107
7.8682202
7.850291
7.8377836
7.8184784
7.7984455
7.6922367
7.6970888
7.6827146
7.662315
7.5557658
7.5467875
7.5311916
7.5128068
7.4100391
7.4079843
7.4016636
7.3836815
7.2882816
7.2790357
7.2669038
7.2476696
7.1720004
7.1548983
7.1355311
7.0619701
7.0441124
7.0238208
6.9696435
6.9547225
6.9384583
6.9023166
6.8890578
6.8537291
6.8404508
6.8192473
6.8047878
6.7937985
6.7746758
)
;

boundaryField
{
    Side
    {
        type            empty;
    }
    Inlet
    {
        type            turbulentIntensityKineticEnergyInlet;
        intensity       0.03;
        value           nonuniform List<scalar> 9(12.022921 12.022829 12.022584 12.022207 12.021821 12.021558 12.021405 12.021208 12.020901);
    }
    Airfoil
    {
        type            kqRWallFunction;
        value           nonuniform List<scalar> 
33
(
34.489236
34.321055
34.526594
34.067978
33.282845
32.424546
31.343495
30.664218
29.739137
29.481197
28.969293
29.079066
28.310674
28.475944
26.794476
25.998255
24.776589
23.69868
22.644515
21.827668
20.704116
20.136212
19.149775
18.702335
17.860856
17.254477
16.542739
15.894956
15.277627
14.651573
14.10966
13.638777
13.132219
)
;
    }
    Outlet
    {
        type            inletOutlet;
        inletValue      nonuniform List<scalar> 0();
        value           nonuniform List<scalar> 0();
    }
    procBoundary8to1
    {
        type            processor;
        value           nonuniform List<scalar> 8(34.665047 19.066117 20.792525 22.635009 22.635009 20.168418 20.559273 20.615186);
    }
    procBoundary8to7
    {
        type            processor;
        value           nonuniform List<scalar> 
53
(
7.2845812
7.3118494
7.3441389
7.3827588
7.428961
7.4844157
7.5514463
7.6332777
7.734138
7.8604168
8.0215827
8.233285
8.5248299
8.9580745
9.6766239
7.1901677
7.1878159
7.1845763
7.1850582
7.1873889
7.1925246
7.1989819
7.2080683
7.2185396
7.231398
7.2465283
7.2647232
7.2845812
7.2855894
7.8595864
7.6123294
7.5548129
7.4074646
7.3649715
7.3213838
7.2815819
7.2490061
7.2215565
7.1901677
7.2065786
9.5202037
9.3328646
8.6958729
8.7042072
8.2700396
8.1558193
7.9157521
7.8184863
7.8595864
7.7087279
12.701198
9.5202037
11.052171
)
;
    }
    procBoundary8to9
    {
        type            processor;
        value           nonuniform List<scalar> 
75
(
6.7650409
6.7593637
6.7650409
6.7557894
6.7665757
6.7665757
6.7774638
6.7774638
6.7904252
6.7904252
6.7881461
6.8041642
6.8041642
6.8223362
6.8223362
6.8434766
6.8434766
6.8682496
6.8857251
6.8857251
6.9156319
6.9156319
6.9516312
6.9516312
6.9954178
6.9954178
7.0492381
7.0492381
7.1160202
7.1160202
7.1997533
7.1997533
7.3059194
7.3059194
7.4432653
7.4432653
7.6253497
7.6253497
7.8783098
7.8783098
8.2558395
8.2558395
8.8468435
17.917925
17.472288
10.236221
9.1870657
9.1643627
9.1953185
9.1020676
8.9324701
8.7775877
8.7775877
8.5591703
8.3392385
8.1356146
7.945524
7.7766653
7.6401284
7.6401284
7.4897934
7.3568341
7.2238825
7.1185204
7.1185204
7.0071629
6.9231045
6.8753923
6.8753923
6.8258224
6.7896525
6.778735
6.778735
6.7591798
6.7593637
)
;
    }
}


// ************************************************************************* //
