/*--------------------------------*- C++ -*----------------------------------*\
| =========                 |                                                 |
| \\      /  F ield         | OpenFOAM: The Open Source CFD Toolbox           |
|  \\    /   O peration     | Version:  2506                                  |
|   \\  /    A nd           | Website:  www.openfoam.com                      |
|    \\/     M anipulation  |                                                 |
\*---------------------------------------------------------------------------*/
FoamFile
{
    version     2.0;
    format      ascii;
    arch        "LSB;label=32;scalar=64";
    class       volVectorField;
    location    "1.1";
    object      U;
}
// * * * * * * * * * * * * * * * * * * * * * * * * * * * * * * * * * * * * * //

dimensions      [0 1 -1 0 0 0 0];

internalField   nonuniform List<vector> 
1376
(
(63.999628 -11.071549 2.4390234e-17)
(85.061737 -7.7303226 -5.943199e-17)
(86.949509 -11.951372 5.5674079e-17)
(88.923418 -7.9112895 -2.5682262e-17)
(89.283136 -8.5365913 0)
(89.994097 -7.4525941 -1.0997126e-17)
(90.581399 -6.2751487 0)
(91.053436 -5.9097101 9.8073515e-21)
(91.500034 -5.109939 -1.7455132e-17)
(91.935036 -4.710996 -8.0702849e-18)
(92.33452 -4.1439176 -1.1308628e-22)
(92.698336 -3.6003326 0)
(92.942118 -3.1248409 0)
(93.186286 -2.8329907 0)
(93.426394 -2.4965474 0)
(93.624477 -2.2478955 0)
(93.806664 -2.1531601 9.409663e-18)
(93.967785 -1.6276424 3.086039e-21)
(94.088773 -1.9258218 1.6200733e-17)
(94.212218 -1.3719841 2.2500086e-17)
(94.266356 -1.5347434 -6.9483615e-18)
(94.336563 -1.3698992 3.2046964e-17)
(94.393693 -1.1310908 -5.9241291e-18)
(94.429112 -0.97988568 1.3077501e-22)
(94.451161 -0.81758599 5.0913241e-18)
(94.461531 -0.72017108 0)
(94.466999 -0.62909178 3.4901767e-17)
(75.958978 -4.4951608 -3.1130986e-17)
(89.231103 -11.228911 4.1136898e-17)
(90.504041 -3.8211589 0)
(90.885464 -7.3628824 0)
(91.251857 -4.466586 0)
(91.504685 -5.0642444 -1.2017121e-17)
(91.783134 -4.4243848 0)
(92.055373 -4.4420437 3.0967236e-17)
(92.314535 -4.0024904 -3.8216361e-17)
(92.62241 -3.9854662 2.6543093e-17)
(92.902467 -3.533352 0)
(93.175503 -3.7515393 -1.5141256e-17)
(93.387759 -3.3842592 1.401242e-17)
(93.567422 -3.1284002 1.2964547e-17)
(93.743971 -2.7885016 1.199388e-17)
(93.89185 -2.5242472 2.2220628e-17)
(93.990807 -2.0870251 2.0612971e-17)
(94.104911 -2.3109074 -9.5173718e-18)
(94.27368 -1.8275305 1.0397882e-21)
(94.378501 -1.8677425 6.4113682e-22)
(94.45629 -1.4177726 3.7486895e-22)
(94.482648 -1.2261697 -2.777977e-17)
(94.503744 -1.059671 3.2157488e-17)
(94.515501 -0.90429401 0)
(94.521282 -0.80985548 -5.5031409e-18)
(94.523015 -0.71091074 -3.5514142e-17)
(94.515636 -0.61923416 -3.750294e-17)
(94.502234 -0.52176926 0)
(94.4908 -0.438269 6.4101292e-17)
(79.289746 -11.091119 0)
(91.850892 -9.7910281 -2.6275723e-17)
(91.838232 -11.792702 6.4584669e-17)
(92.402035 -9.8921029 -6.7113594e-17)
(92.341154 -9.8015687 3.4452184e-17)
(92.567004 -9.2718163 5.1103743e-17)
(92.743545 -8.0239551 1.1816671e-17)
(92.93524 -7.5763032 -1.0960516e-17)
(93.105279 -6.5247667 -2.0254323e-17)
(93.306669 -6.0086944 3.6215608e-21)
(93.499027 -5.1815962 5.2043868e-17)
(93.711379 -4.4990744 -1.6060007e-17)
(93.82175 -3.8557454 0)
(93.954996 -3.4302916 0)
(94.084898 -3.1085676 -2.5397684e-17)
(94.208703 -2.8014331 -1.1737453e-17)
(94.279951 -2.5800564 -4.3372377e-17)
(94.364076 -2.1080681 3.0073159e-17)
(94.467286 -1.9313156 2.7792624e-17)
(94.572088 -1.6553434 3.4204321e-17)
(94.609302 -1.4752918 -7.9107281e-18)
(94.598115 -1.3060194 5.853637e-17)
(94.59716 -1.1274881 -2.0270197e-17)
(94.599267 -1.0122522 -6.2274607e-18)
(94.599447 -0.85424627 4.0181486e-17)
(94.581695 -0.72833817 4.779058e-17)
(94.561755 -0.61742246 -2.4531588e-18)
(94.54082 -0.5423167 4.5278685e-18)
(94.521231 -0.46510766 -2.086653e-18)
(94.500585 -0.40374272 -1.9257601e-18)
(82.496879 -5.7050523 -2.0104821e-17)
(93.692887 -11.487822 3.6867922e-17)
(94.071537 -6.63457 -8.4806466e-18)
(94.188873 -8.5214787 -1.5683455e-17)
(94.054829 -6.3126872 7.2483213e-18)
(94.120667 -6.4978111 -1.0899863e-20)
(94.057605 -5.7219337 -1.2430916e-17)
(94.145393 -5.5809558 -1.1488801e-17)
(94.145151 -4.9803035 2.1240206e-17)
(94.198498 -4.8407682 0)
(94.228756 -4.3260762 9.1029696e-18)
(94.30057 -4.3128483 -8.4318208e-18)
(94.339671 -4.034737 -1.5590971e-17)
(94.426831 -3.7928809 0)
(94.495738 -3.242172 -3.3316586e-17)
(94.561248 -2.9110264 6.1561397e-18)
(94.617179 -2.4884184 -5.6741539e-18)
(94.6121 -2.1757213 2.6227317e-17)
(94.651224 -2.0020576 -1.4559027e-17)
(94.734832 -1.766317 -3.5836171e-17)
(94.744137 -1.5537507 5.407894e-23)
(94.722182 -1.3267185 -3.8271309e-18)
(94.709701 -1.1407327 0)
(94.696173 -0.95983454 -4.8675182e-17)
(94.674576 -0.80958795 -5.0861017e-17)
(94.637418 -0.71332287 2.7626533e-18)
(94.606771 -0.62103878 3.8221663e-17)
(94.582195 -0.52547323 0)
(94.551486 -0.44227318 6.9037654e-17)
(94.525054 -0.39180339 -1.2715141e-16)
(94.496645 -0.32466406 -1.8270627e-18)
(84.486736 -10.983206 2.1191482e-17)
(95.790171 -10.004755 -2.9093132e-17)
(95.274135 -10.343256 8.9313386e-18)
(95.475495 -10.091472 -8.2609834e-18)
(95.108216 -9.1497295 -1.524968e-17)
(95.093411 -9.3019047 1.4108887e-17)
(94.954669 -8.0462542 -1.306605e-17)
(95.017056 -7.8813214 -1.2052947e-17)
(94.945001 -6.8300241 -1.1172965e-17)
(94.92848 -6.4412094 -1.0341254e-17)
(94.861993 -5.4929632 -9.5923595e-18)
(94.87951 -4.9977264 -8.8448186e-18)
(94.904109 -4.1649584 1.6298202e-17)
(94.944274 -3.6313551 -7.5060597e-18)
(94.923706 -3.1936701 4.1696464e-17)
(94.908875 -2.9012631 -6.4236925e-18)
(94.920685 -2.5609758 -1.7739738e-17)
(94.884118 -2.2886925 -4.3734248e-17)
(94.860739 -1.9037719 1.5171397e-17)
(94.892302 -1.7612275 0)
(94.909166 -1.6009144 4.2810008e-18)
(94.86037 -1.3626594 -6.736248e-17)
(94.815276 -1.1322445 -2.9277649e-17)
(94.786547 -0.97025574 8.0735366e-17)
(94.741664 -0.85626959 4.6490304e-17)
(94.694188 -0.72090075 4.8518815e-17)
(94.653432 -0.60696179 -4.205611e-17)
(94.621881 -0.51666437 -3.8625257e-17)
(94.580385 -0.44123149 -1.3976355e-16)
(94.548336 -0.38392911 6.3213854e-17)
(94.516916 -0.32710869 -1.8713979e-18)
(94.487031 -0.27843646 5.6655894e-17)
(94.462719 -0.22362796 5.0367505e-17)
(86.318069 -5.0060399 -4.443174e-17)
(97.111583 -10.841187 2.0286826e-17)
(96.781493 -7.0801762 0)
(96.830844 -8.7453275 -8.6291945e-18)
(96.470332 -6.7246733 7.9668965e-18)
(96.394134 -7.2375215 0)
(96.129825 -6.148164 0)
(96.095063 -6.2244493 1.2609497e-17)
(95.885942 -5.4268402 1.3282539e-20)
(95.776567 -5.447524 -1.0774267e-17)
(95.597795 -4.6684517 -9.1826941e-21)
(95.512883 -4.6840731 1.8432786e-17)
(95.450898 -4.1160334 -8.4994983e-18)
(95.413533 -4.1147755 0)
(95.345799 -3.5423953 0)
(95.268524 -3.1435791 0)
(95.228582 -2.7317984 2.4644579e-17)
(95.175719 -2.3584502 2.2669959e-17)
(95.085054 -2.0106639 5.2374572e-18)
(95.045276 -1.6744508 3.3891588e-17)
(95.063118 -1.5251347 -3.5359445e-17)
(95.014188 -1.3109503 3.2572041e-17)
(94.918603 -1.1484175 3.0222151e-17)
(94.87375 -0.94158151 -2.776461e-17)
(94.808946 -0.81843319 -1.0218588e-16)
(94.752297 -0.70262714 -4.694004e-17)
(94.704104 -0.59667763 -2.6924565e-18)
(94.660186 -0.50153221 4.4543011e-17)
(94.608936 -0.43297434 6.8121672e-17)
(94.572629 -0.37280271 2.0795634e-18)
(94.537039 -0.3201952 0)
(94.504789 -0.26751182 -5.5863663e-17)
(94.473627 -0.21385219 5.111808e-17)
(94.438828 -0.2093566 0)
(87.784967 -11.23277 0)
(98.678657 -9.6110083 -1.0551822e-17)
(97.612788 -8.8003096 -1.9394188e-17)
(97.797818 -9.9162323 8.9845347e-18)
(97.333508 -8.0784943 2.4882895e-17)
(97.270665 -8.9065523 7.6630349e-18)
(96.976146 -7.2991332 -1.4185873e-17)
(96.847013 -7.5598433 -1.3125333e-17)
(96.590758 -6.3711827 1.2125495e-17)
(96.478843 -6.333924 1.1181244e-17)
(96.261834 -5.3631272 3.095119e-17)
(96.155011 -5.042065 -5.7208391e-17)
(96.001037 -4.1146235 1.7650688e-17)
(95.888009 -3.6015932 1.6268797e-17)
(95.765485 -3.2269385 -7.4766362e-18)
(95.660672 -2.953663 -3.4421869e-17)
(95.536259 -2.5949395 3.8221791e-17)
(95.436054 -2.2772412 -1.1745631e-17)
(95.338573 -1.9975707 -1.617997e-17)
(95.202648 -1.6902626 -1.1027913e-20)
(95.178216 -1.5113352 7.6495951e-21)
(95.160361 -1.3196225 0)
(95.044058 -1.1525526 3.4732506e-17)
(94.960333 -0.95819101 -3.5615536e-18)
(94.878648 -0.82256625 5.5382011e-21)
(94.811651 -0.70075891 -3.0031988e-18)
(94.756725 -0.59129079 2.7471815e-18)
(94.700363 -0.49090048 0)
(94.637439 -0.41749781 0)
(94.596468 -0.3585586 -6.9792545e-17)
(94.556971 -0.30771233 -1.1333723e-22)
(94.521855 -0.2666009 -5.4816984e-17)
(94.484199 -0.21442155 0)
(94.449494 -0.19853577 0)
(94.433915 -0.15802096 8.5696525e-17)
(89.507044 -3.1378748 0)
(99.673346 -10.737315 3.284903e-17)
(98.454305 -6.5763487 -2.0421602e-17)
(98.941449 -8.5739984 0)
(98.223572 -6.3885772 -1.7347649e-17)
(98.316386 -7.2457458 -4.0842213e-21)
(97.911031 -5.7294226 2.9478816e-17)
(97.730557 -6.2175729 -1.3616992e-17)
(97.369743 -5.1964542 0)
(97.2385 -5.3941618 -1.160652e-17)
(96.976932 -4.6083549 -1.0681033e-17)
(96.85835 -4.7082152 3.9175038e-17)
(96.589709 -4.0657892 1.8130714e-17)
(96.295108 -3.9860325 0)
(96.117681 -3.3704577 0)
(96.022341 -3.0356046 2.8409721e-17)
(95.849796 -2.6843781 -2.6192762e-17)
(95.67875 -2.3618455 0)
(95.585668 -1.9941612 0)
(95.426566 -1.6308107 -3.5721093e-17)
(95.286673 -1.4197095 3.3184114e-17)
(95.256447 -1.2513982 3.4677394e-17)
(95.168588 -1.0852083 -5.9189421e-17)
(95.05055 -0.93051826 -3.6382979e-18)
(94.953561 -0.79033004 5.0136803e-17)
(94.872152 -0.65258849 6.1310799e-18)
(94.804179 -0.56384399 -2.8038623e-18)
(94.740506 -0.47607254 -3.8422665e-17)
(94.667436 -0.3894909 7.2877189e-17)
(94.618721 -0.34061845 2.1501371e-18)
(94.576448 -0.29735939 -1.9561848e-18)
(94.538802 -0.24794891 1.2413776e-21)
(94.49473 -0.20470963 5.2189353e-17)
(94.460763 -0.18642978 -9.3328651e-17)
(94.442263 -0.15122162 -8.7199776e-17)
(94.408045 -0.14770371 -7.8316661e-17)
(90.809407 -11.207032 -1.8946126e-17)
(100.8319 -9.2576155 3.4889125e-17)
(98.872282 -8.418023 1.0825024e-17)
(99.824193 -9.1088741 -1.9647632e-17)
(98.951356 -6.7790761 -4.0204105e-21)
(99.051922 -8.2580926 1.673762e-17)
(98.624712 -6.3961679 -1.5476061e-17)
(98.447288 -7.0847327 -2.1354022e-17)
(98.006864 -5.7885279 1.977278e-17)
(97.820019 -5.8819452 0)
(97.481338 -4.8447768 0)
(97.37625 -4.7051919 -2.0593133e-17)
(97.154443 -3.9607901 -3.7560152e-17)
(96.788882 -3.6694183 4.3785838e-18)
(96.465539 -3.1140419 -4.0645591e-18)
(96.315257 -2.801876 -3.7313927e-18)
(96.16664 -2.5233316 2.718377e-17)
(95.956476 -2.2149799 -8.4747949e-22)
(95.786157 -2.0053941 2.6109868e-17)
(95.650705 -1.6691328 4.2365172e-17)
(95.454123 -1.3162997 0)
(95.325674 -1.2090517 -3.6152502e-17)
(95.256506 -1.0501494 6.7808308e-17)
(95.137865 -0.90380792 -1.8767005e-18)
(95.029479 -0.77629676 -5.4991158e-17)
(94.933258 -0.63487283 0)
(94.846318 -0.53455807 1.4418811e-18)
(94.776132 -0.47505766 -2.625176e-18)
(94.700067 -0.38331253 -7.5545812e-17)
(94.640888 -0.31718467 1.4029979e-16)
(94.594493 -0.28505004 6.378852e-17)
(94.555257 -0.24053744 1.1587577e-21)
(94.505958 -0.20042127 -5.284399e-17)
(94.471837 -0.17529893 9.5833795e-17)
(94.449193 -0.14710995 6.7586531e-19)
(94.413192 -0.14438275 7.8048977e-17)
(92.024226 2.2671461 6.6839678e-18)
(101.22248 -10.969215 -6.0189652e-18)
(100.3598 -3.1169858 -2.209906e-17)
(100.57236 -8.7453517 2.033841e-17)
(100.13271 -4.8355008 0)
(99.888228 -7.2753777 0)
(99.459714 -5.1471926 0)
(99.25889 -6.0422853 2.9390378e-17)
(98.779862 -4.7123566 -1.3538079e-17)
(98.509737 -5.1588612 1.2495424e-17)
(97.96864 -4.1355163 1.7473866e-17)
(97.687647 -4.3486621 2.2294919e-21)
(97.517404 -3.7159153 -9.791213e-18)
(97.309686 -3.7028849 4.4605577e-18)
(96.908451 -3.1309257 0)
(96.560205 -2.8089669 0)
(96.399281 -2.4213111 -2.821537e-17)
(96.241887 -2.1337888 2.5527419e-17)
(96.005732 -1.8619077 -2.3635505e-17)
(95.806898 -1.7027855 -4.6458932e-17)
(95.632941 -1.3433636 2.4869942e-18)
(95.444568 -1.0921316 -3.8840158e-17)
(95.326239 -0.98991929 2.1005735e-18)
(95.211719 -0.8501945 0)
(95.099063 -0.73584042 5.5965816e-17)
(94.993435 -0.61708077 -5.1072046e-17)
(94.888982 -0.49327213 -4.8214851e-17)
(94.806627 -0.44383623 4.3997805e-17)
(94.731783 -0.37110892 0)
(94.664561 -0.294138 -7.0629579e-17)
(94.611226 -0.25941154 -6.4335583e-17)
(94.569944 -0.2263649 1.1642237e-16)
(94.518641 -0.18492128 0)
(94.482667 -0.15583205 7.4911167e-19)
(94.454476 -0.14318285 -8.8035656e-17)
(94.418576 -0.13644015 1.2215501e-18)
(94.389165 -0.12241353 -4.8509762e-22)
(91.496767 -15.890817 -3.5160211e-20)
(102.70833 -9.2153588 -3.0674637e-17)
(101.63651 -7.2884966 1.1094166e-17)
(101.19457 -10.194717 -2.0984856e-17)
(101.17217 -5.9988915 -9.5456703e-18)
(100.55267 -8.1702284 1.7957604e-17)
(100.08246 -5.5360243 -8.284919e-18)
(99.790431 -6.5147222 -2.3004227e-17)
(99.363889 -4.886426 -3.2766157e-21)
(99.171261 -5.3463141 6.3668191e-18)
(98.636958 -4.1473311 -2.3590868e-17)
(98.045465 -4.1992429 2.212992e-17)
(97.678266 -3.549888 2.065758e-17)
(97.669364 -3.3701982 -4.6382177e-18)
(97.400244 -2.8284217 4.1892252e-18)
(96.93442 -2.5251443 3.9036582e-18)
(96.582967 -2.2710424 -3.6385234e-18)
(96.427202 -2.0260251 -2.6527195e-17)
(96.257049 -1.7242942 2.9855247e-18)
(95.974831 -1.5586931 1.9427148e-17)
(95.757009 -1.4272638 4.095141e-17)
(95.586391 -1.1100856 5.3735316e-21)
(95.421139 -0.93038526 -6.811543e-17)
(95.282716 -0.80673123 -1.952301e-18)
(95.159384 -0.68129957 5.6927637e-17)
(95.046113 -0.60239593 1.6226676e-18)
(94.933257 -0.47529465 9.2977656e-17)
(94.836569 -0.40732139 -1.6141772e-22)
(94.759733 -0.35740114 1.2226413e-18)
(94.68888 -0.29234801 0)
(94.628491 -0.23340162 1.0093175e-18)
(94.582455 -0.20910112 -1.1799144e-16)
(94.531421 -0.18552787 -5.2743729e-17)
(94.49388 -0.13900049 0)
(94.458955 -0.13678852 8.5972675e-17)
(94.423585 -0.12994548 -7.7102592e-17)
(94.395054 -0.11968064 -6.9975438e-17)
(94.370328 -0.098526364 1.2593706e-16)
(93.744485 6.0949874 1.3951548e-17)
(102.76403 -13.127326 -6.5503144e-18)
(102.92442 -3.3317649 2.3363662e-17)
(102.0304 -8.1291092 -1.0942689e-17)
(101.94862 -4.7738196 9.7625713e-18)
(101.51206 -6.3312252 0)
(100.70015 -4.4780794 0)
(100.34103 -5.5395207 0)
(99.777531 -4.1007151 0)
(99.592769 -4.7513732 -1.3445055e-17)
(99.297202 -3.6180935 1.2002505e-17)
(98.867121 -3.6020997 -1.6446485e-20)
(98.016963 -2.9504524 5.2398441e-18)
(97.852137 -3.1561537 2.4532827e-21)
(97.659212 -2.7446117 -4.3848806e-18)
(97.352518 -2.4486251 1.1824648e-17)
(96.888269 -1.99201 3.6718963e-18)
(96.53577 -1.908229 0)
(96.404777 -1.6891958 0)
(96.191915 -1.3421927 -2.514043e-17)
(95.892977 -1.2469807 -3.8969202e-17)
(95.686552 -1.118915 3.816309e-17)
(95.52464 -0.89965092 3.4579547e-17)
(95.365302 -0.75665303 -3.1582025e-17)
(95.216676 -0.61996814 -2.8883076e-17)
(95.091395 -0.55548509 3.1855283e-21)
(94.974767 -0.46337474 -4.6259247e-17)
(94.868736 -0.38111083 4.2074303e-17)
(94.785552 -0.31868737 -3.9451565e-17)
(94.710578 -0.28431797 0)
(94.647348 -0.22306233 -1.0097993e-18)
(94.594467 -0.17768025 9.1817332e-19)
(94.542092 -0.17489214 8.2693147e-19)
(94.504992 -0.12884368 -7.4110067e-19)
(94.464173 -0.12252845 0)
(94.427831 -0.12147209 7.7382028e-17)
(94.40061 -0.1132852 6.8742662e-17)
(94.375692 -0.094975383 4.847947e-19)
(94.352488 -0.080811468 1.1151303e-16)
(96.294379 -8.0820662 -2.1019004e-17)
(103.9391 -2.5313854 2.04678e-17)
(102.74388 -5.2038957 1.2213719e-17)
(102.71902 -5.1602305 -2.4983636e-21)
(102.17038 -4.6710856 -2.1265254e-17)
(102.26309 -5.9539398 4.0286823e-21)
(101.33912 -4.3251304 -8.8689086e-18)
(101.13901 -5.4186791 0)
(100.28149 -3.7513279 0)
(99.796716 -4.5600954 -1.4258237e-17)
(99.51243 -3.6201184 6.4978148e-18)
(99.393435 -3.6475197 -5.7784808e-18)
(98.751579 -2.5576417 -5.2985116e-18)
(98.170138 -2.5391402 4.9686392e-18)
(97.765399 -2.4122972 1.3981442e-17)
(97.555712 -2.3125071 -1.6752734e-17)
(97.241441 -1.9303022 3.7546207e-18)
(96.768313 -1.4721446 0)
(96.468193 -1.60032 0)
(96.319941 -1.3676367 0)
(96.07175 -1.0586531 0)
(95.787677 -0.97524282 -3.6705807e-17)
(95.600467 -0.85426284 -2.2343296e-18)
(95.443444 -0.72008349 3.2351561e-17)
(95.275035 -0.57610439 -2.9519385e-17)
(95.135129 -0.49470906 5.3659977e-17)
(95.011403 -0.42198348 4.7177393e-17)
(94.899687 -0.36725224 -4.2808979e-17)
(94.810935 -0.28855928 8.0056058e-17)
(94.728283 -0.25949797 0)
(94.665576 -0.22617262 -6.4164945e-17)
(94.60821 -0.15298279 1.1692878e-16)
(94.551075 -0.15587931 5.3375933e-17)
(94.513774 -0.12684163 -4.7658069e-17)
(94.470518 -0.11018437 -6.6804609e-19)
(94.431928 -0.10840342 -7.602924e-17)
(94.405423 -0.1061011 -7.0120871e-17)
(94.380593 -0.090908427 -6.0577319e-17)
(94.356254 -0.082592677 -4.3003439e-19)
(94.336438 -0.062391238 3.840991e-19)
(96.339837 -4.1979313 -7.4045245e-18)
(104.81532 -10.476807 0)
(102.52834 -4.0907918 0)
(103.31044 -7.4001052 -2.3679891e-17)
(102.27398 -3.6657423 1.1273448e-17)
(102.59505 -5.3920862 3.6890585e-21)
(101.91066 -3.2949015 0)
(101.95455 -4.510139 4.0542766e-18)
(101.18357 -2.6082119 -3.8076279e-18)
(100.52196 -3.3653612 2.4916917e-17)
(99.64326 -2.3577232 -1.0163341e-17)
(99.482107 -3.4866001 -1.5492829e-17)
(99.167956 -2.411343 5.4916947e-18)
(98.642549 -2.428079 -2.4857467e-18)
(98.036633 -1.7767827 -1.6350072e-17)
(97.630305 -2.0477623 -2.1843522e-18)
(97.399421 -1.9242347 0)
(97.088292 -1.4505657 0)
(96.641654 -1.0594861 1.6331261e-18)
(96.368421 -1.2648652 -2.5867295e-17)
(96.183633 -1.0525436 0)
(95.91691 -0.82186546 3.9248909e-17)
(95.670837 -0.73344558 0)
(95.502887 -0.65837156 0)
(95.329189 -0.53851541 -1.8641142e-18)
(95.17751 -0.44845508 1.6892637e-18)
(95.045312 -0.37354865 -4.8967758e-17)
(94.928208 -0.33470801 4.4422919e-17)
(94.835729 -0.27603373 -1.3786672e-21)
(94.744418 -0.22249783 0)
(94.680298 -0.21737912 6.6388828e-17)
(94.622909 -0.15746251 -5.9370648e-17)
(94.561537 -0.12189182 0)
(94.519802 -0.11794508 9.5323491e-17)
(94.476132 -0.10629038 -8.4742967e-17)
(94.4368 -0.094701284 7.6112593e-17)
(94.409896 -0.095263463 0)
(94.384551 -0.081907354 -6.0704615e-17)
(94.359906 -0.080983963 5.3796737e-17)
(94.341054 -0.061099107 1.879725e-19)
(94.329833 -0.052342751 0)
(97.982218 -2.0798158 7.9105588e-18)
(105.94066 -5.2108606 -7.200909e-18)
(103.72122 -3.3922868 6.563309e-18)
(104.30546 -5.4021189 6.0716512e-18)
(103.03139 -2.5836859 0)
(102.70406 -5.4952473 1.0650563e-17)
(102.2074 -2.9397471 -4.8220627e-18)
(102.20127 -4.5288143 8.1975558e-18)
(101.6816 -2.6236976 -3.9393227e-18)
(101.26105 -3.7406648 -1.423526e-17)
(100.28798 -1.60307 9.4896795e-21)
(99.602656 -2.5105761 -8.675048e-21)
(99.260109 -2.159407 -2.0446169e-17)
(98.864775 -2.4131489 1.8297609e-17)
(98.450652 -1.7210594 2.3390378e-18)
(97.86041 -1.3738928 1.5397064e-21)
(97.476706 -1.5449003 1.2713227e-21)
(97.243515 -1.485527 -1.8282073e-18)
(96.900628 -1.0659339 2.6104923e-17)
(96.485545 -0.77196324 2.4276507e-17)
(96.225609 -0.96523712 1.4016575e-18)
(96.009469 -0.80316182 -4.24596e-17)
(95.754942 -0.62543511 -3.5235046e-17)
(95.55407 -0.57003306 0)
(95.37743 -0.4796341 3.0069687e-17)
(95.213899 -0.40722714 0)
(95.075619 -0.34461556 0)
(94.955924 -0.28778397 -4.5246867e-17)
(94.859075 -0.25899993 -3.951383e-17)
(94.762476 -0.19548085 0)
(94.692815 -0.1768221 -6.4929574e-17)
(94.634185 -0.16181509 4.1279357e-23)
(94.574712 -0.11101873 -5.2640923e-17)
(94.526012 -0.092685588 -9.440841e-17)
(94.479895 -0.10071224 1.6922375e-16)
(94.441964 -0.086410449 -7.4763723e-17)
(94.414882 -0.080911302 -6.7241961e-17)
(94.387946 -0.073835388 5.9709276e-17)
(94.36305 -0.076459639 -2.6421285e-22)
(94.345643 -0.061070111 0)
(94.332842 -0.052312433 0)
(94.311362 -0.041879291 7.4246416e-17)
(99.27907 -1.5836487 -8.2825752e-18)
(106.35955 -8.3804561 6.0946502e-21)
(104.56167 -1.2914752 1.349486e-17)
(104.86925 -6.8388464 -6.3181981e-18)
(103.99216 -1.4742472 1.1486758e-17)
(103.61157 -4.3593277 0)
(102.58169 -1.0822874 4.986865e-18)
(102.18782 -3.8902498 -1.3246212e-17)
(101.7896 -2.1111083 1.7081855e-17)
(101.53476 -3.3221433 0)
(100.86719 -1.9989523 1.3680949e-17)
(100.18919 -2.4781598 -1.2467583e-17)
(99.420059 -1.1570771 2.381141e-17)
(98.935818 -2.0489096 -4.4169985e-17)
(98.634783 -1.6833583 -1.9692694e-17)
(98.145891 -1.4680487 0)
(97.707524 -0.95954168 2.0238882e-18)
(97.333229 -1.0505423 2.6297667e-17)
(97.017066 -1.1088806 -2.5323249e-17)
(96.665109 -0.74339003 1.5183793e-18)
(96.285877 -0.60557754 -1.418438e-18)
(96.053467 -0.71566328 4.1303839e-17)
(95.825776 -0.56219378 2.3207011e-21)
(95.603448 -0.48516772 0)
(95.422191 -0.41504953 -2.934024e-17)
(95.246366 -0.33989229 -8.6250669e-19)
(95.100414 -0.3135294 0)
(94.981808 -0.25134871 0)
(94.879759 -0.22485576 0)
(94.782812 -0.18555877 0)
(94.707119 -0.13046786 1.2967699e-16)
(94.641617 -0.14413944 4.5937037e-19)
(94.586268 -0.11615144 5.1763037e-17)
(94.534837 -0.077404717 9.2781741e-17)
(94.483425 -0.083321221 -8.3784982e-17)
(94.446235 -0.079045644 7.4022954e-17)
(94.420062 -0.068698104 6.6127566e-17)
(94.391526 -0.061030239 0)
(94.365749 -0.06773512 -5.2061594e-17)
(94.349637 -0.058631568 0)
(94.335965 -0.054481217 8.1281406e-17)
(94.313842 -0.040923726 1.4117439e-19)
(94.30002 -0.051622188 -6.3781178e-17)
(99.598471 -2.8907115 2.7056931e-21)
(107.07364 -5.5892344 -3.989669e-18)
(105.06379 -2.2453877 0)
(105.55775 -4.2616042 -6.621157e-18)
(104.52692 -2.0141106 -1.1977502e-17)
(104.48754 -3.993404 0)
(103.16552 -1.3872201 0)
(102.78582 -2.5950125 8.526231e-21)
(101.93585 -0.94890767 -1.7649501e-17)
(101.58379 -2.7836022 1.6470249e-17)
(101.1094 -1.4158803 3.625e-18)
(100.45859 -2.3703369 -3.3064131e-18)
(99.862819 -1.1573579 0)
(99.187776 -1.0956952 2.4850529e-17)
(98.712773 -1.0789291 1.80625e-17)
(98.274519 -1.2807138 2.3306831e-18)
(97.906336 -1.0269923 -4.1649999e-18)
(97.500628 -0.59269351 -5.9951884e-21)
(97.066289 -0.79202453 3.4983637e-18)
(96.746942 -0.7899028 -2.6736169e-17)
(96.388226 -0.53851294 -1.4312796e-18)
(96.101006 -0.4991341 1.3094229e-18)
(95.869676 -0.47970129 2.2388335e-21)
(95.642383 -0.41151108 1.068885e-18)
(95.458269 -0.36723368 -9.5787513e-19)
(95.280571 -0.28349937 0)
(95.124826 -0.25182913 0)
(95.004644 -0.21899349 -4.5186678e-17)
(94.897303 -0.18185997 0)
(94.799952 -0.16513628 5.6575544e-19)
(94.723138 -0.11677271 -3.2766354e-17)
(94.650159 -0.093745301 5.898269e-17)
(94.592601 -0.10509868 3.1876397e-23)
(94.542432 -0.082694612 -4.6270975e-17)
(94.48967 -0.062646666 4.1378002e-17)
(94.450205 -0.059874368 -7.4027319e-17)
(94.424111 -0.056972798 6.5116484e-17)
(94.394695 -0.051502192 -5.6797998e-17)
(94.368269 -0.057122948 1.9949688e-19)
(94.352608 -0.051383499 -4.4951732e-17)
(94.338468 -0.05519921 -7.9733809e-17)
(94.316901 -0.04328714 -7.0081502e-17)
(94.302886 -0.042058737 6.1936428e-17)
(94.29805 -0.032508081 -1.5568878e-19)
(99.806005 0.69669645 4.5938835e-18)
(107.97517 -4.5874113 4.0549117e-18)
(105.26295 -1.2336348 1.1476451e-17)
(106.0107 -4.9466449 6.8931264e-18)
(104.83317 -1.0370435 0)
(104.83326 -3.8279363 -8.3483707e-18)
(103.66267 -1.0910274 -2.6342159e-18)
(103.48394 -3.4120786 -2.3338302e-18)
(102.56224 -0.14919531 2.1639683e-18)
(101.77617 -1.9789541 -3.2661142e-17)
(101.21519 -0.40215033 0)
(100.51926 -1.8444974 0)
(100.1011 -1.1076265 0)
(99.50445 -1.0912493 0)
(98.899996 -0.58204373 2.0490663e-17)
(98.383765 -0.51959855 0)
(97.975944 -0.80816582 -1.7299978e-17)
(97.596851 -0.61440906 -6.3605945e-17)
(97.124654 -0.44532985 -4.5532928e-22)
(96.779826 -0.59985266 2.5803995e-17)
(96.465943 -0.537196 7.2087153e-19)
(96.171711 -0.37781038 0)
(95.903891 -0.37333325 2.2827022e-21)
(95.671903 -0.3183723 3.4051224e-17)
(95.48065 -0.31786336 -3.017333e-17)
(95.312787 -0.25788221 -4.3357285e-19)
(95.153685 -0.19259204 -3.9131228e-19)
(95.0263 -0.17182574 4.5412118e-17)
(94.914528 -0.13500391 0)
(94.810901 -0.12512156 -3.6392883e-17)
(94.734344 -0.11761949 -3.2311263e-17)
(94.663283 -0.066249696 -1.1393344e-16)
(94.596294 -0.070578139 -5.1722979e-17)
(94.545982 -0.08107262 -3.5900774e-19)
(94.497896 -0.06597353 -8.0671236e-17)
(94.456547 -0.035614007 7.2619667e-17)
(94.427199 -0.03890301 -2.5027761e-19)
(94.396014 -0.043856971 5.6195383e-17)
(94.370531 -0.048566847 1.9507146e-19)
(94.355051 -0.043551859 8.780542e-17)
(94.340028 -0.052516405 1.5181597e-19)
(94.320224 -0.047933368 6.8272863e-17)
(94.305974 -0.032806912 0)
(94.297946 -0.031205902 -5.2258823e-17)
(94.293301 -0.056819697 -9.2292807e-17)
(101.24119 -3.0420172 4.6927095e-18)
(108.885 -5.6411685 -8.3436666e-18)
(106.06729 0.60175844 -1.1917166e-21)
(106.53822 -3.8033487 3.5014938e-18)
(105.0332 0.41514313 -3.3224581e-18)
(104.9497 -3.3176635 1.4597978e-21)
(104.09471 0.19673692 2.7186419e-18)
(103.74594 -2.2818352 9.6580241e-18)
(102.8849 -0.38583972 0)
(102.0976 -1.5157698 1.6566108e-17)
(101.38192 -0.29221078 -1.8879538e-18)
(100.68016 -0.63197923 1.5623509e-17)
(100.16061 -0.61683219 -1.3038449e-17)
(99.602012 -0.92222466 1.4522859e-18)
(99.064245 -0.53429767 -2.2232975e-17)
(98.548188 -0.39370986 -1.867494e-17)
(98.049924 -0.099364033 3.4501938e-17)
(97.596824 -0.44017135 3.1859857e-17)
(97.17155 -0.39584633 2.7881011e-17)
(96.818192 -0.35752922 -2.5104731e-17)
(96.517085 -0.37217837 7.2803627e-19)
(96.216005 -0.31144141 -6.5504442e-19)
(95.938723 -0.29401918 1.4606764e-21)
(95.703243 -0.21646123 -3.4522262e-17)
(95.496822 -0.22171745 6.3103951e-17)
(95.335033 -0.20985061 0)
(95.179719 -0.16064026 -2.4509589e-17)
(95.045978 -0.13186263 4.4567107e-17)
(94.934881 -0.10424133 -3.1345702e-19)
(94.820124 -0.059879622 3.6543225e-17)
(94.73925 -0.099414126 3.2026459e-17)
(94.673717 -0.067916448 5.6025414e-17)
(94.601378 -0.042623512 5.0429536e-17)
(94.548085 -0.060585594 4.5669104e-17)
(94.504202 -0.066034899 3.9758519e-17)
(94.465091 -0.039377968 3.5178333e-17)
(94.430328 -0.021084461 -1.2557063e-16)
(94.395947 -0.030764321 5.5226384e-17)
(94.372484 -0.037053162 0)
(94.357279 -0.037918896 -4.2532774e-17)
(94.341294 -0.044694338 0)
(94.323472 -0.049785055 6.4779728e-20)
(94.309185 -0.032132671 -5.6802153e-20)
(94.298204 -0.024358138 1.0187882e-16)
(94.295312 -0.056920597 -4.4667281e-17)
(94.277292 -0.0084116138 -7.8011825e-17)
(101.56564 8.1383112 -7.4955829e-18)
(109.48046 -3.5500567 -8.3969287e-18)
(106.70123 2.1418747 1.9700772e-18)
(107.13124 -2.7011679 -8.6789145e-18)
(105.36126 1.9095985 -1.6827411e-18)
(105.03688 -2.5474652 1.5915248e-18)
(104.37662 0.93202745 1.2822312e-17)
(103.79785 -1.4867518 -1.1719265e-17)
(102.9614 0.12883619 1.1808483e-18)
(102.23161 -1.3308691 -1.9524905e-17)
(101.51187 -0.13611424 1.000577e-18)
(100.92819 -0.78913231 -1.3648108e-17)
(100.26604 0.46957912 3.8778881e-21)
(99.612356 -0.40240041 1.229839e-17)
(99.127337 -0.088202036 -6.7745667e-19)
(98.626022 -0.37291748 1.870297e-17)
(98.132316 -0.097689286 -3.3487313e-17)
(97.58663 -0.24411544 -4.8296535e-19)
(97.210438 -0.19975139 -2.8744146e-17)
(96.848463 -0.25919097 5.285899e-17)
(96.545121 -0.1846284 3.6930804e-19)
(96.230858 -0.22457082 2.1721882e-17)
(95.966677 -0.20260193 3.8516149e-17)
(95.735117 -0.15725975 2.6524608e-19)
(95.520046 -0.096543579 -2.4537012e-19)
(95.348336 -0.11549961 2.8025281e-17)
(95.195458 -0.11633839 6.5841918e-22)
(95.060719 -0.097228586 -4.4911882e-17)
(94.952286 -0.087800085 0)
(94.83421 -0.025066325 0)
(94.742949 -0.026615517 -3.1924572e-17)
(94.676099 -0.052481036 1.0538813e-23)
(94.606231 -0.043636173 -9.7566793e-20)
(94.552488 -0.029079222 -4.4429303e-17)
(94.508002 -0.046696387 3.9363534e-17)
(94.47132 -0.040440898 -6.863446e-17)
(94.433172 -0.013735342 6.1743384e-17)
(94.395639 -0.022303561 -1.0732696e-16)
(94.374241 -0.021212859 -4.6769729e-17)
(94.358619 -0.032508949 4.1032671e-17)
(94.342892 -0.035016294 -3.6628615e-17)
(94.326586 -0.04388043 0)
(94.312127 -0.037409226 0)
(94.298644 -0.023684463 -9.8803727e-17)
(94.297281 -0.055083556 2.563569e-22)
(94.27759 -0.010113095 1.5060297e-16)
(94.25886 -0.055632637 1.3093913e-16)
(103.2621 -3.0613456 1.2524881e-18)
(109.87194 -3.1902661 0)
(107.04873 1.3597626 0)
(107.34417 -2.6573552 7.971009e-18)
(105.8573 1.6400947 -8.6889454e-19)
(105.65432 -1.1980973 1.1534364e-17)
(104.61521 2.0225831 -1.0171087e-17)
(103.84413 -0.80445781 1.1224662e-17)
(102.93282 1.6151026 -1.2278513e-18)
(102.37136 -0.53866507 1.8442433e-17)
(101.56895 1.1634715 -5.2402212e-19)
(100.98412 -0.49487638 0)
(100.43097 0.53070747 1.2894325e-17)
(99.663974 0.12419283 -7.9034598e-22)
(99.183476 0.42787806 -3.3763002e-19)
(98.639327 -0.083701439 6.1599637e-19)
(98.146275 -0.0015596208 -2.7469604e-19)
(97.638297 -0.02541539 2.4705434e-19)
(97.245876 0.079825272 -1.4660047e-17)
(96.868808 0.04365889 -2.7479882e-17)
(96.561762 0.024333821 -1.8428738e-19)
(96.242159 -0.015405452 -2.1598664e-17)
(95.981096 -0.058302533 0)
(95.751156 -0.097979682 0)
(95.548385 -0.039821761 -3.0836808e-17)
(95.358935 -0.025390582 -7.6541507e-22)
(95.203737 -0.06652813 2.4703951e-17)
(95.071909 -0.047564307 0)
(94.961811 -0.05883357 0)
(94.8471 -0.037190275 3.489269e-17)
(94.749196 0.00051292842 3.1656081e-17)
(94.674155 -0.012821884 5.0921303e-24)
(94.60852 -0.032109294 2.4941117e-17)
(94.557811 -0.022827946 -4.3361841e-17)
(94.511297 -0.016888618 -1.1004152e-22)
(94.473567 -0.032528195 6.8134612e-17)
(94.436452 -0.019333561 3.0072176e-17)
(94.398129 -0.015351333 1.0623078e-16)
(94.375079 -0.011693716 4.5393416e-17)
(94.358963 -0.025515559 -2.0972191e-22)
(94.344303 -0.030579452 3.5584829e-17)
(94.329215 -0.033965496 0)
(94.314733 -0.03532613 0)
(94.298834 -0.017237483 9.6481514e-17)
(94.299352 -0.050890829 4.1688639e-17)
(94.278056 -0.011345938 -7.1857997e-17)
(94.260552 -0.057073525 -6.3354079e-17)
(94.290801 0.011761134 5.4333211e-17)
(94.379672 -0.065471985 -1.4570856e-21)
(104.55541 8.7787549 0)
(109.53397 -2.6114667 0)
(107.25656 4.3854269 1.372234e-19)
(107.2126 -1.6135485 -7.827545e-18)
(106.08649 2.8903509 7.3425139e-18)
(105.941 -0.94088072 0)
(104.92106 2.6248734 -1.1437935e-17)
(103.94378 -0.22575553 8.5695617e-20)
(102.79652 2.0217693 -7.768281e-20)
(102.49095 -0.2090935 0)
(101.83298 1.6979943 -6.3131781e-20)
(100.94314 0.2097313 6.1453187e-20)
(100.48146 0.75237801 0)