/*--------------------------------*- C++ -*----------------------------------*\
| =========                 |                                                 |
| \\      /  F ield         | OpenFOAM: The Open Source CFD Toolbox           |
|  \\    /   O peration     | Version:  2506                                  |
|   \\  /    A nd           | Website:  www.openfoam.com                      |
|    \\/     M anipulation  |                                                 |
\*---------------------------------------------------------------------------*/
FoamFile
{
    version     2.0;
    format      ascii;
    arch        "LSB;label=32;scalar=64";
    class       volScalarField;
    location    "0.0235";
    object      k;
}
// * * * * * * * * * * * * * * * * * * * * * * * * * * * * * * * * * * * * * //

dimensions      [0 2 -2 0 0 0 0];

internalField   nonuniform List<scalar> 
13761
(
0.060463024
0.060462941
0.060464179
0.060463328
0.060463277
0.06046451
0.060463566
0.060464591
0.059574478
0.060463749
0.059574491
0.060465047
0.059574512
0.060464084
0.059574528
0.060464006
0.05957452
0.060465311
0.05957451
0.060464263
0.059574511
0.060465607
0.059574542
0.0604646
0.059569896
0.059574715
0.060465987
0.059569895
0.059575578
0.06046507
0.059569915
0.059576861
0.060464937
0.059569926
0.059577912
0.060468671
0.059569899
0.059578422
0.060465857
0.059569866
0.059578541
0.060469733
0.059569834
0.059578454
0.060461252
0.059570027
0.059569844
0.059578172
0.060460801
0.059570023
0.059570035
0.059578034
0.060461113
0.059570013
0.059570737
0.059578017
0.060524581
0.059570006
0.059571931
0.059578177
0.060502231
0.059569989
0.059573034
0.059579034
0.060476578
0.059569973
0.059573664
0.059580298
0.060488251
0.059569955
0.059573874
0.059581392
0.059569952
0.059573885
0.059582303
0.059569636
0.059569943
0.059573675
0.059583276
0.05956964
0.059570007
0.059573419
0.059584334
0.059569634
0.059570565
0.05957333
0.059585425
0.059569625
0.059571721
0.059573369
0.059586762
0.059569613
0.0595729
0.059573981
0.059588769
0.0595696
0.059573684
0.059575274
0.059592343
0.059569587
0.059574035
0.059576507
0.059596393
0.059569579
0.059574103
0.059577414
0.059569521
0.05956959
0.059573967
0.059578167
0.059569549
0.059569999
0.059573611
0.059578996
0.059569564
0.059571005
0.059573413
0.059579957
0.059569564
0.059572248
0.059573333
0.059581006
0.059569539
0.059573158
0.05957346
0.059582289
0.05956949
0.059573569
0.059574165
0.059584313
0.059569427
0.05957366
0.059575284
0.059587926
0.059569519
0.059569384
0.059573593
0.059576437
0.059591988
0.059569517
0.059569417
0.05957325
0.059577419
0.059569501
0.05956969
0.059572979
0.05957839
0.059569484
0.059570545
0.059572902
0.059579404
0.059569462
0.059571787
0.059572911
0.059580403
0.059569435
0.059572823
0.059573237
0.059581415
0.0595694
0.05957337
0.059574027
0.059582624
0.059569975
0.059569367
0.05957353
0.059574943
0.059584594
0.059569969
0.059569366
0.059573527
0.059575833
0.059588174
0.059569946
0.059569375
0.059573245
0.059576778
0.059592171
0.059569922
0.059569526
0.059572882
0.0595779
0.059569893
0.059570185
0.059572723
0.059579118
0.059569859
0.059571368
0.059572693
0.05958024
0.059569817
0.059572516
0.059572833
0.059581253
0.059570592
0.059569779
0.059573212
0.059573504
0.059582431
0.059570587
0.059569778
0.059573469
0.059574501
0.059584395
0.05957056
0.05956978
0.059573506
0.059575495
0.059587954
0.059570533
0.059569859
0.059573331
0.0595764
0.059591854
0.0595705
0.059570338
0.059572935
0.059577295
0.059570461
0.059571412
0.059572706
0.059578265
0.059570411
0.059572635
0.059572649
0.059579274
0.059570962
0.059570365
0.059573491
0.059572668
0.059580234
0.059570961
0.059570362
0.059573871
0.059573107
0.059581178
0.059570935
0.05957036
0.059573953
0.05957405
0.05958237
0.059570908
0.059570397
0.059573876
0.05957513
0.059584418
0.059570875
0.05957072
0.05957349
0.059576114
0.059588074
0.059570834
0.059571643
0.059573166
0.059576949
0.059592008
0.059570781
0.05957289
0.059573051
0.059577714
0.059569329
0.059570733
0.059573889
0.059573038
0.059578515
0.059569332
0.059570736
0.059574407
0.059573207
0.059579369
0.059569304
0.05957074
0.059574557
0.059573779
0.059580237
0.059569279
0.05957076
0.059574549
0.059574557
0.059581168
0.059569241
0.059570967
0.059574247
0.059575387
0.059582414
0.059569192
0.059571722
0.059573848
0.059576241
0.059584568
0.059567468
0.059569149
0.059572944
0.059573658
0.059577127
0.059588323
0.059567436
0.05956917
0.059574067
0.059573617
0.059578083
0.059592267
0.059567383
0.059569192
0.059574735
0.059573665
0.059579087
0.059567345
0.059569214
0.059574982
0.059574075
0.059580049
0.059567303
0.059569241
0.059575018
0.05957484
0.059580928
0.059567244
0.059569375
0.059574833
0.059575734
0.059581809
0.059567161
0.05956996
0.05957441
0.059576653
0.059582996
0.059569409
0.059567079
0.059571099
0.05957415
0.05957752
0.059585109
0.059569372
0.059567062
0.059572304
0.059574081
0.059578318
0.059588814
0.059569287
0.059567047
0.059573121
0.059574089
0.059579108
0.059592673
0.059569206
0.059567041
0.05957349
0.059574317
0.059579926
0.05956911
0.0595671
0.059573587
0.059574832
0.059580741
0.059568999
0.059567519
0.05957355
0.059575444
0.059581542
0.059572728
0.059568899
0.059568543
0.059573199
0.059576121
0.05958242
0.059572696
0.059568877
0.059569799
0.059572873
0.059576895
0.059583677
0.05957261
0.059568855
0.05957075
0.059572745
0.05957776
0.059585911
0.059572529
0.059568836
0.059571212
0.059572727
0.059578707
0.059589718
0.059572429
0.059568823
0.059571323
0.059572806
0.059579711
0.059593587
0.059572313
0.059568834
0.059571285
0.059573195
0.059580697
0.05957462
0.059572206
0.059569101
0.059570953
0.059573813
0.059581582
0.059574606
0.059572186
0.059569945
0.059570538
0.059574539
0.059582372
0.05957453
0.059572165
0.059571152
0.05957034
0.059575381
0.059583202
0.059574458
0.059572144
0.059572176
0.059570296
0.059576284
0.059584417
0.059574359
0.059572127
0.059572747
0.059570326
0.059577155
0.059586631
0.05957157
0.05957427
0.059572125
0.059572938
0.059570609
0.059577981
0.0595904
0.059571594
0.059574278
0.0595723
0.059572953
0.059571061
0.059578802
0.059594195
0.059571568
0.059574284
0.059573006
0.059572753
0.059571532
0.059579619
0.059571549
0.05957429
0.059574188
0.059572307
0.059572062
0.059580397
0.059571506
0.059574296
0.059575314
0.059571996
0.059572731
0.059581158
0.059571442
0.059574303
0.059576015
0.059571866
0.059573541
0.059582031
0.059565087
0.059571378
0.059574317
0.059576289
0.059571825
0.059574442
0.059583355
0.059565109
0.059571436
0.059574443
0.059576331
0.059571901
0.059575404
0.059585711
0.059565069
0.059571486
0.059575023
0.059576219
0.059572239
0.05957638
0.059589581
0.059565034
0.059571538
0.059576149
0.059575803
0.05957269
0.059577296
0.059593388
0.05956497
0.059571589
0.059577348
0.059575425
0.059573225
0.059578097
0.059562678
0.059564906
0.059571643
0.059578181
0.05957525
0.059573929
0.059578812
0.059562649
0.059564983
0.059571703
0.059578572
0.059575198
0.059574791
0.059579615
0.059562538
0.05956505
0.059571839
0.059578675
0.059575201
0.059575663
0.059580881
0.059562429
0.059565119
0.059572349
0.059578657
0.059575444
0.059576461
0.059583195
0.059562281
0.05956519
0.059573439
0.059578344
0.05957588
0.059577214
0.059587006
0.059561126
0.05956215
0.059565263
0.05957473
0.059577953
0.059576417
0.059577955
0.059590735
0.059561097
0.059562152
0.059565341
0.059575735
0.059577759
0.059577123
0.059578667
0.059560968
0.059562152
0.059565472
0.059576297
0.059577712
0.059578027
0.059579331
0.059560853
0.05956216
0.059565898
0.059576525
0.05957772
0.059578949
0.059579996
0.059558911
0.05956074
0.059562174
0.059566902
0.059576584
0.059577895
0.0595797
0.059580823
0.059558936
0.059560775
0.059562189
0.059568208
0.059576454
0.059578228
0.059580287
0.059582179
0.059558872
0.059560799
0.059562206
0.059569303
0.059576058
0.059578588
0.059580829
0.059584596
0.059558816
0.059560824
0.059562228
0.059569957
0.0595758
0.05957902
0.059581411
0.059588456
0.059558728
0.059560851
0.059562291
0.059570245
0.059575731
0.059579661
0.059582048
0.059592137
0.059555091
0.059558648
0.059560881
0.059562598
0.059570326
0.059575748
0.059580539
0.059582719
0.059555028
0.059558728
0.059560909
0.059563465
0.059570283
0.059575841
0.059581475
0.05958344
0.059554819
0.059558794
0.059560933
0.05956471
0.059569941
0.059576116
0.059582313
0.059584375
0.059554641
0.059558861
0.059560956
0.059565821
0.059569705
0.059576539
0.059583055
0.059585872
0.059558633
0.059554491
0.059558928
0.059561005
0.059566516
0.05956965
0.059577059
0.05958376
0.059588412
0.05955852
0.059554493
0.059558993
0.059561244
0.059566824
0.059569696
0.059577775
0.059584449
0.05959231
0.059558221
0.059554494
0.059559054
0.05956201
0.059566902
0.059569833
0.059578743
0.059585112
0.059595929
0.059557954
0.059554496
0.059559109
0.059563224
0.059566865
0.059570132
0.059579777
0.059585749
0.059563366
0.059557704
0.059554501
0.05955916
0.059564393
0.059566533
0.059570498
0.059580631
0.059586409
0.059563222
0.059557621
0.059554504
0.059559231
0.059565187
0.059566144
0.05957086
0.059581268
0.059587293
0.059562875
0.05955753
0.059554511
0.059559457
0.059565586
0.059565962
0.059571307
0.059581806
0.059588773
0.059562575
0.059557444
0.05955452
0.059560175
0.05956572
0.059565921
0.059571995
0.059582359
0.059591307
0.059565165
0.059562299
0.059557364
0.059554534
0.059561376
0.059565728
0.059565936
0.05957297
0.05958298
0.059595192
0.059564963
0.059562213
0.059557286
0.059554553
0.059562596
0.059565492
0.059566044
0.059574032
0.059583658
0.059598766
0.059564519
0.059562122
0.059557212
0.059554592
0.05956347
0.059565074
0.059566303
0.059574969
0.059584372
0.059564111
0.05956204
0.059557141
0.059554762
0.059563939
0.059564837
0.059566651
0.059575761
0.05958515
0.059565172
0.059563745
0.05956196
0.059557071
0.059555396
0.05956412
0.059564767
0.059567097
0.059576484
0.059586191
0.059564914
0.059563599
0.059561877
0.059557006
0.059556558
0.059564153
0.059564761
0.059567776
0.059577192
0.059587842
0.059564347
0.059563453
0.059561793
0.059556972
0.059557826
0.059564017
0.059564843
0.059568752
0.0595779
0.059590504
0.059563758
0.059563333
0.059561704
0.05955701
0.059558802
0.059563601
0.059565044
0.059569826
0.059578606
0.059594441
0.059563956
0.059563234
0.059563224
0.059561608
0.059557497
0.059559372
0.059563321
0.059565315
0.059570708
0.059579314
0.059597994
0.059563658
0.059562963
0.059563115
0.059561509
0.0595585
0.059559621
0.059563216
0.059565609
0.059571322
0.059580093
0.059563043
0.059562645
0.059563013
0.059561417
0.059559639
0.059559687
0.059563191
0.059566019
0.059571783
0.059581144
0.059560759
0.059562511
0.059562348
0.059562915
0.059561361
0.059560514
0.059559593
0.059563227
0.0595667
0.059572234
0.059582844
0.059560814
0.05956221
0.059562056
0.059562819
0.059561371
0.059560997
0.05955913
0.059563363
0.059567675
0.059572758
0.05958556
0.059560728
0.059561847
0.05956179
0.059562721
0.059561811
0.059561159
0.059558733
0.05956358
0.059568716
0.059573372
0.059589545
0.059539178
0.059560667
0.059561498
0.059561536
0.059562623
0.059562805
0.059561171
0.059558557
0.059563796
0.059569584
0.059574049
0.059593106
0.059541114
0.059560676
0.059561147
0.05956129
0.059562553
0.059563982
0.059561026
0.059558521
0.059564047
0.059570248
0.059574762
0.059542399
0.059560593
0.05956081
0.059561053
0.059562548
0.059564927
0.059560607
0.059558547
0.059564459
0.059570802
0.059575559
0.059485721
0.059543708
0.059560475
0.059560468
0.059560829
0.05956292
0.059565471
0.059560161
0.05955866
0.059565166
0.059571338
0.059576669
0.05948972
0.059545156
0.059560289
0.059560127
0.05956062
0.059563846
0.059565668
0.059559906
0.059558914
0.059566133
0.059571897
0.059578411
0.059492666
0.059546464
0.059560082
0.059559794
0.059560455
0.059564992
0.059565691
0.05955979
0.059559251
0.05956713
0.059572491
0.059581114
0.059436274
0.059495723
0.05954766
0.059559865
0.059559466
0.0595604
0.059565942
0.059565526
0.059559743
0.059559626
0.059567994
0.059573113
0.059585022
0.05943718
0.059499104
0.059548698
0.059559625
0.059559131
0.059560681
0.059566516
0.059565056
0.059559737
0.059560144
0.059568725
0.059573765
0.059588454
0.059438948
0.059438057
0.059502352
0.059549627
0.059559387
0.059558794
0.059561511
0.059566735
0.059564476
0.059559853
0.059560952
0.059569378
0.059574532
0.059438302
0.059439428
0.059505545
0.05955044
0.059559146
0.059558503
0.059562594
0.059566764
0.059564105
0.05956
0.059562027
0.059569983
0.05957563
0.05943683
0.05944089
0.059508688
0.059551131
0.059558885
0.059558376
0.059563531
0.059566608
0.059563911
0.059560122
0.059563103
0.059570547
0.059577385
0.059467911
0.059435504
0.059442556
0.05951175
0.059551707
0.059558613
0.059558504
0.059564108
0.059566182
0.059563813
0.059560254
0.059563938
0.059571084
0.059580091
0.059467442
0.059434401
0.059444435
0.059514704
0.05955221
0.059558318
0.059559237
0.059564316
0.059565556
0.059563779
0.059560485
0.059564518
0.059571612
0.059583986
0.059498048
0.059466137
0.059433212
0.059446537
0.059517537
0.059552616
0.059558072
0.059560213
0.059564329
0.05956512
0.059563834
0.059560944
0.059564963
0.059572169
0.059587344
0.059498012
0.059465454
0.059432073
0.059448877
0.059520224
0.059552915
0.059557974
0.059561056
0.059564101
0.059564877
0.059564013
0.059561669
0.059565393
0.059572874
0.05949739
0.059464679
0.059431025
0.059451515
0.05952276
0.059553142
0.059558149
0.059561551
0.05956365
0.059564742
0.059564194
0.059562544
0.059565879
0.059573961
0.059492728
0.05949698
0.059463835
0.059430028
0.059454393
0.059525139
0.059553348
0.059558903
0.059561702
0.059563014
0.059564688
0.059564379
0.059563424
0.059566451
0.059575731
0.059493623
0.059496928
0.059462798
0.059429061
0.05945741
0.059527332
0.059553636
0.059559904
0.059561644
0.059562492
0.059564703
0.059564668
0.059564263
0.059567101
0.059578454
0.059453938
0.059494218
0.059496634
0.059461705
0.059428179
0.059460629
0.05952932
0.059554263
0.059560756
0.059561314
0.059562167
0.059564865
0.059565204
0.059565045
0.059567795
0.059582359
0.059455026
0.0594951
0.059496313
0.059460522
0.059427374
0.059463994
0.059531145
0.0595553
0.05956122
0.059560782
0.05956195
0.05956505
0.05956603
0.059565738
0.059568522
0.059585665
0.059381365
0.059456183
0.059496049
0.059496008
0.059459214
0.059426682
0.0594675
0.059532876
0.059556551
0.059561333
0.059560088
0.059561833
0.059565227
0.059566982
0.059566315
0.059569385
0.059382347
0.059457971
0.059496924
0.059495791
0.059457755
0.059426097
0.059471168
0.059534637
0.059557706
0.05956115
0.059559424
0.059561806
0.059565451
0.05956784
0.059566787
0.059570623
0.059247687
0.059382835
0.059459586
0.059497739
0.059495625
0.059456121
0.059425643
0.059474856
0.059536612
0.059558571
0.059560642
0.059558945
0.059561892
0.059565838
0.059568523
0.059567188
0.059572503
0.059005986
0.059252926
0.059384055
0.059461182
0.0594986
0.05949544
0.059454392
0.059425381
0.059478575
0.059538912
0.059559088
0.059559921
0.059558601
0.059562029
0.059566497
0.059569064
0.059567564
0.059575285
0.059017424
0.059255823
0.059385038
0.059462971
0.059499594
0.059495209
0.059452626
0.059425312
0.059482487
0.05954134
0.059559266
0.059559066
0.059558369
0.059562152
0.0595674
0.059569517
0.059567989
0.059579203
0.058713104
0.059024259
0.059259437
0.059386113
0.059464811
0.059500659
0.0594949
0.05945076
0.059425481
0.0594868
0.059543529
0.05955925
0.059558245
0.05955825
0.059562284
0.059568365
0.059569917
0.05956863
0.059582454
0.058489195
0.058737402
0.059033148
0.059263191
0.059387325
0.059466651
0.059501663
0.059494568
0.059448788
0.059426005
0.059491484
0.059545249
0.0595589
0.059557609
0.059558234
0.05956251
0.059569231
0.059570294
0.059569743
0.058529547
0.058746053
0.059041844
0.059267288
0.059388974
0.059468472
0.059502461
0.059494209
0.059446596
0.059427028
0.059496333
0.059546483
0.05955837
0.059557155
0.059558297
0.059562951
0.059569957
0.059570681
0.059571535
0.058428504
0.058539161
0.058759405
0.05905118
0.059271745
0.05939164
0.059470137
0.059503233
0.059493806
0.0594443
0.059428779
0.059501022
0.05954727
0.059557775
0.059556842
0.059558362
0.05956367
0.059570567
0.059571101
0.059574251
0.058395102
0.058501345
0.058546808
0.058773794
0.05906073
0.05927655
0.059395949
0.059471481
0.059504036
0.059493269
0.059442081
0.05943128
0.059505281
0.059547669
0.059557278
0.059556647
0.059558413
0.059564572
0.059571088
0.059571554
0.059578098
0.058376433
0.05847889
0.058517493
0.058558521
0.058789694
0.059070331
0.059281546
0.059401012
0.059472555
0.059504857
0.059492576
0.059439985
0.059434304
0.059509039
0.059547775
0.05955692
0.059556557
0.059558518
0.059565491
0.059571543
0.059572077
0.05958123
0.058386406
0.058549383
0.058517775
0.058576135
0.058806371
0.059079937
0.059286494
0.059406242
0.059473458
0.05950567
0.059491841
0.059438207
0.059437521
0.059512301
0.059547583
0.059556658
0.059556511
0.05955879
0.05956632
0.059571964
0.059572817
0.058251058
0.058425874
0.058576137
0.058515466
0.058596173
0.058823344
0.059089849
0.059291345
0.059411756
0.059474225
0.059506256
0.05949105
0.059436941
0.059440826
0.059515035
0.059547368
0.059556465
0.059556447
0.059559277
0.059567038
0.059572384
0.059574021
0.058135253
0.058254002
0.058511108
0.05856821
0.058523646
0.058617698
0.05884054
0.059099983
0.059296017
0.059416745
0.059475059
0.059506677
0.059490242
0.059435933
0.059444286
0.059517272
0.059547296
0.059556371
0.059556332
0.059559984
0.059567648
0.059572821
0.059575877
0.058107503
0.058135691
0.058300413
0.058546095
0.058544388
0.058541176
0.058639878
0.058857941
0.059110224
0.059300526
0.059421108
0.059475668
0.059507006
0.05948959
0.059434749
0.059447772
0.059519147
0.059547336
0.059556344
0.059556237
0.05956082
0.059568157
0.059573285
0.059578619
0.058105861
0.058094191
0.058106979
0.058143479
0.058393253
0.058537892
0.058540231
0.058559129
0.058662295
0.058875481
0.059120512
0.059305872
0.05942464
0.059476134
0.059507346
0.059489176
0.059433318
0.059451202
0.059520834
0.05954753
0.05955633
0.059556219
0.059561654
0.059568579
0.059573835
0.059582427
0.058174045
0.058127797
0.058097601
0.058105414
0.058210719
0.058435098
0.058494039
0.058541721
0.058578424
0.058684788
0.058892835
0.059130427
0.059313864
0.059427387
0.059476576
0.059507915
0.059488728
0.059431711
0.059454718
0.059522473
0.059547768
0.059556248
0.059556404
0.059562396
0.059568967
0.059574647
0.059585435
0.058221531
0.058194875
0.058126213
0.05809306
0.058126529
0.058310185
0.058428207
0.058478885
0.058552268
0.058598173
0.058707365
0.058909979
0.05913983
0.059325886
0.05942947
0.059477163
0.059509108
0.059487671
0.059429978
0.059458296
0.059524156
0.059548049
0.059556111
0.059556869
0.059563029
0.059569359
0.059575951
0.0581811
0.058207503
0.058228971
0.058192184
0.0581197
0.058095696
0.058218705
0.058348532
0.058378936
0.058475183
0.05856303
0.058618152
0.05872997
0.058926507
0.059148437
0.059339962
0.059431176
0.059478002
0.059510658
0.059485845
0.059428143
0.059462152
0.059525803
0.059548392
0.059555988
0.059557521
0.059563559
0.059569773
0.059577873
0.058161505
0.05818831
0.058213605
0.058223195
0.058183817
0.058118005
0.058151022
0.058305808
0.058333397
0.058362389
0.058475637
0.05857453
0.058638376
0.058752187
0.058942304
0.05915658
0.059353098
0.059432671
0.05947918
0.059512029
0.059483532
0.059426366
0.059466371
0.059527353
0.059548718
0.059555939
0.059558222
0.059563984
0.059570226
0.059580671
0.058237999
0.058147643
0.058163235
0.058185145
0.058205799
0.058213062
0.058180343
0.058146964
0.058264803
0.058326206
0.058287983
0.058358693
0.058481441
0.058586586
0.058658734
0.058773471
0.058957426
0.059166101
0.059361099
0.059434082
0.059480883
0.05951281
0.059480965
0.059424942
0.059470586
0.059528804
0.059548954
0.05955597
0.059558864
0.059564332
0.059570794
0.0595845
0.060010561
0.059351208
0.058663576
0.05823498
0.058145073
0.058154563
0.058175373
0.058194654
0.058207767
0.058193413
0.058255336
0.058316879
0.058285604
0.058277884
0.058359835
0.058487313
0.058599132
0.058678875
0.058793676
0.058971583
0.059181758
0.059365229
0.059435592
0.059482932
0.059512987
0.059477983
0.059424104
0.059474903
0.059530115
0.059549124
0.059556211
0.05955942
0.059564651
0.059571676
0.059587448
0.059683858
0.060281887
0.060291153
0.059990178
0.059338277
0.058656828
0.058224754
0.058134167
0.058142377
0.058162586
0.058188399
0.05821489
0.058285502
0.058338169
0.058306376
0.058249038
0.058277293
0.058366944
0.058494258
0.058612041
0.058698317
0.058812763
0.05898437
0.059208355
0.059367948
0.059437533
0.059484913
0.059512675
0.059474594
0.059423859
0.059479431
0.059531185
0.059549302
0.059556616
0.059559886
0.059564987
0.059573076
0.059246465
0.059066868
0.05918759
0.059662526
0.060254862
0.06026595
0.059956263
0.059311216
0.058637396
0.058210881
0.058119336
0.058127897
0.058156098
0.058194429
0.058297499
0.058387845
0.058348635
0.058244891
0.058242955
0.058285463
0.058374425
0.058502089
0.058624841
0.058716571
0.058830682
0.058996365
0.059239519
0.059370568
0.059439722
0.059486473
0.059512082
0.059470829
0.059424418
0.059484117
0.059531981
0.059549557
0.059557191
0.05956023
0.05956535
0.059575069
0.05953584
0.0594503
0.059433621
0.059566685
0.059598741
0.059475962
0.059232733
0.059054976
0.059172164
0.059628438
0.060213462
0.060224213
0.05992101
0.059283181
0.058615225
0.058191653
0.058104649
0.058121643
0.058164149
0.058276458
0.058409448
0.058411659
0.058288771
0.058227885
0.058244295
0.05829701
0.0583831
0.058510394
0.058637035
0.058733475
0.058847236
0.059011335
0.05926123
0.059373596
0.059441739
0.059487482
0.059511243
0.059467003
0.059425796
0.059488676
0.059532541
0.059549948
0.059557886
0.05956049
0.059565768
0.059577933
0.064755268
0.064327983
0.062844273
0.0610195
0.059723004
0.059162249
0.059064847
0.059084902
0.059269349
0.059515298
0.059434599
0.059416382
0.059545968
0.059579145
0.059457905
0.059205755
0.059029402
0.059143641
0.059596355
0.060173501
0.060180806
0.059878684
0.059247292
0.058588591
0.058175785
0.058099932
0.058135857
0.058253102
0.058391039
0.058440794
0.058358783
0.058254473
0.058226032
0.058254517
0.058309336
0.058392554
0.058518403
0.058648275
0.058749137
0.058861893
0.059039631
0.059269486
0.059376954
0.059443472
0.059488041
0.059509988
0.059463426
0.059427778
0.059493011
0.059532952
0.059550531
0.059558574
0.059560717
0.059566341
0.05958178
0.0072252623
0.010206873
0.073228671
0.29892216
0.86094154
1.988397
3.9017139
6.6723881
10.107281
13.839991
17.55329
21.078294
24.356698
27.387824
30.191109
32.790482
35.206449
37.455335
39.547445
41.489955
43.286886
44.939578
46.446787
47.806425
49.014784
50.067811
50.960693
51.688398
52.245416
52.625942
52.823574
52.831112
52.642407
52.247615
51.638007
50.803308
49.731703
48.40948
46.820329
44.9445
42.757566
40.22926
37.322238
33.990922
30.180579
25.823735
20.835627
15.068375
8.156831
1.9592583
0.47523719
0.26885483
0.21029038
0.17614716
0.14413736
0.11173139
0.10222983
0.11080277
0.10545834
0.086234327
0.069197338
0.062330668
0.059827829
0.058601761
0.059658543
0.060634344
0.059470269
0.058407187
0.059499092
0.062972027
0.064679164
0.064267908
0.062799489
0.060984685
0.0596998
0.059144837
0.059048577
0.059069201
0.059251117
0.059483325
0.059406462
0.05938667
0.059510224
0.059543668
0.059424111
0.059178419
0.059004896
0.059116641
0.059560667
0.060127212
0.060129407
0.05983041
0.059211652
0.058572464
0.058172647
0.058131069
0.058237863
0.058364134
0.05842358
0.058391221
0.05830647
0.058249252
0.058231833
0.058265881
0.058322451
0.058402098
0.058525686
0.058658263
0.058763586
0.058874676
0.059088942
0.059272791
0.059380531
0.059444872
0.059488452
0.059508307
0.05945998
0.059430391
0.059497034
0.059533273
0.05955125
0.059559116
0.059560954
0.059567277
0.059584657
0.009842119
0.010930238
0.076152238
0.31044475
0.89353464
2.0609623
4.0343599
6.873893
10.367955
14.139483
17.874734
21.410962
24.695524
27.72944
30.533809
33.132248
35.546005
37.79094
39.878008
41.814055
43.603765
45.248278
46.747012
48.097774
49.29746
50.341971
51.226962
51.947383
52.497976
52.872878
53.065739
53.069091
52.877772
52.480644
51.869301
51.033418
49.961122
48.638647
47.049648
45.17441
42.988561
40.461889
37.557032
34.228284
30.421006
26.067641
21.081447
15.311101
8.3767619
2.0690908
0.48472128
0.27694395
0.21622733
0.1784358
0.14513402
0.11188621
0.10052585
0.10587288
0.10396839
0.087525177
0.069978297
0.062357861
0.059801422
0.05857563
0.059582532
0.060592193
0.059476134
0.058385699
0.059430298
0.062862072
0.064590146
0.064193032
0.062740819
0.060939108
0.059664459
0.059114953
0.059019707
0.059040464
0.059218238
0.059450974
0.059378923
0.059357298
0.059474952
0.059507869
0.059391165
0.059147757
0.058975733
0.059084474
0.059518486
0.060073789
0.060077131
0.05978986
0.05919522
0.058573543
0.058227114
0.058252738
0.058338744
0.058391154
0.058371814
0.058328025
0.058296834
0.058252637
0.058243773
0.058278098
0.058335397
0.058411045
0.058532219
0.058667037
0.058776452
0.058889245
0.059137266
0.059276146
0.059384035
0.059445892
0.05948909
0.059506555
0.05945663
0.059433662
0.059500697
0.0595336
0.059551995
0.059559371
0.059561236
0.05956874
0.013118312
0.011784073
0.079415326
0.323505
0.93153298
2.1484573
4.1994185
7.1306134
10.703133
14.522179
18.276078
21.81229
25.087463
28.108081
30.898185
33.482511
35.882785
38.11489
40.189726
42.114105
43.892578
45.526395
47.014852
48.355982
49.546591
50.582849
51.460361
52.174285
52.719345
53.089768
53.279186
53.280183
53.087695
52.690217
52.079301
51.244465
50.17368
48.85296
47.265815
45.392336
43.207996
40.68234
37.777642
34.447512
30.636035
26.273993
21.275775
15.492761
8.5328079
2.1475829
0.49425346
0.28764344
0.22510251
0.18309137
0.14692808
0.11165054
0.098424328
0.10334334
0.1040605
0.086868473
0.068833182
0.062115717
0.059813097
0.05855266
0.059489091
0.06052652
0.059460311
0.058347953
0.059354794
0.062747029
0.064505441
0.064121593
0.062687664
0.060898323
0.059631719
0.05908597
0.05899069
0.059010894
0.059184639
0.059414787
0.059347671
0.059323732
0.059436623
0.05946877
0.059353529
0.059112088
0.058940107
0.05904514
0.059472954
0.060025199
0.060044934
0.059775971
0.05920597
0.058653314
0.058356145
0.05833245
0.058354603
0.058329175
0.058303799
0.058314306
0.058297169
0.058263312
0.058254787
0.05829004
0.058347596
0.058419189
0.058538042
0.058674865
0.058786829
0.05891904
0.059160204
0.059281527
0.059387191
0.059446555
0.059489853
0.059504902
0.059453539
0.05943773
0.059503962
0.059534044
0.059552667
0.059559418
0.059561572
0.059570772
0.015225904
0.012550938
0.08324927
0.33917193
0.97749649
2.2554231
4.4037103
7.4530568
11.13073
15.018426
18.803573
22.344888
25.60984
28.612848
31.382116
33.944895
36.32378
38.535238
40.590123
42.495304
44.255161
45.870897
47.341739
48.665709
49.839684
50.859919
51.722208
52.421884
52.95391
53.312707
53.492072
53.484942
53.285361
52.882531
52.267503
51.429453
50.355985
49.032757
47.442932
45.566263
43.377862
40.846827
37.934797
34.594409
30.76836
26.385955
21.358498
15.54017
8.5433914
2.134626
0.49269125
0.29915481
0.23634165
0.18870977
0.14850791
0.11216142
0.099173468
0.10610876
0.10446957
0.081299884
0.065779429
0.061635483
0.059805166
0.058525028
0.059410303
0.060468979
0.059443467
0.058315343
0.059289859
0.062641851
0.064419626
0.064049027
0.062634437
0.06085475
0.059595632
0.059053483
0.058957528
0.058977163
0.05914743
0.059376765
0.059314138
0.05928782
0.059394467
0.059425536
0.059310621
0.059069335
0.058902348
0.059010536
0.059443172
0.060005153
0.06004177
0.0598072
0.059302747
0.05876284
0.058410929
0.058329905
0.058276591
0.058262336
0.058287777
0.058313133
0.05830337
0.058273235
0.058265367
0.058301182
0.05835882
0.058426781
0.05854326
0.058681426
0.058794907
0.058982519
0.059165025
0.059288092
0.059390031
0.059447041
0.05949041
0.059503334
0.059450763
0.059442604
0.059506911
0.059534615
0.059553229
0.059559263
0.059561996
0.059573671
0.015881056
0.013054792
0.086564505
0.35294038
1.0181791
2.351061
4.588881
7.7506364
11.53429
15.498953
19.328107
22.887995
26.15468
29.149629
31.905222
34.451518
36.812398
39.005278
41.041305
42.927676
44.668812
46.266062
47.718676
49.024776
50.181302
51.184604
52.030578
52.714649
53.231913
53.576869
53.743453
53.724872
53.514468
53.102304
52.479189
51.634167
50.554707
49.226198
47.631496
45.749963
43.556308
41.019149
38.099565
34.749401
30.91011
26.509651
21.456412
15.608211
8.6024473
2.1648388
0.4968643
0.30882931
0.24633912
0.19448639
0.14933814
0.11312206
0.10460611
0.11309357
0.10117905
0.07507891
0.063583217
0.060986618
0.059719479
0.058488113
0.059335195
0.060412543
0.059422748
0.058284331
0.059226454
0.062533825
0.06433309
0.063976749
0.062581272
0.060808508
0.059557705
0.059019755
0.05892255
0.058941907
0.059108806
0.059335548
0.059276383
0.059248685
0.059347061
0.059377558
0.059267314
0.059034221
0.058881161
0.058998301
0.059439292
0.0600208
0.060105585
0.059900984
0.059371702
0.05878776
0.058378967
0.058233227
0.058217379
0.058245558
0.058285179
0.058315819
0.058310487
0.058282124
0.058274909
0.058311396
0.058369326
0.058434162
0.058547892
0.058685773
0.058805455
0.059052778
0.059166479
0.059295044
0.059392692
0.059447545
0.059490922
0.059501816
0.059448144
0.059447723
0.059509617
0.059535264
0.059553645
0.059559015
0.059562606
0.059577479
0.016368464
0.013486673
0.089487835
0.36496331
1.0531879
2.4320246
4.7436012
7.9974087
11.869348
15.901642
19.774547
23.358657
26.635639
29.631638
32.382282
34.919866
37.269661
39.45008
41.472864
43.34572
45.073344
46.657397
48.097277
49.391323
50.536545
51.529444
52.365923
53.041483
53.55117
53.889498
54.050306
54.026799
53.811905
53.395955
52.769523
51.921559
50.839419
49.508427
47.911344
46.027444
43.831298
41.29135
38.368404
35.013895
31.168637
26.760387
21.697682
15.84614
8.8798339
2.3407939
0.51516085
0.31527499
0.25317427
0.20048432
0.14905908
0.1134981
0.11120058
0.11625093
0.094819166
0.071520259
0.062643204
0.060708923
0.059643743
0.058446728
0.059265182
0.060357647
0.059403073
0.058255804
0.059162705
0.062419386
0.064244007
0.063903048
0.062525948
0.060759903
0.059517458
0.058983823
0.058885275
0.058904911
0.059067999
0.059291063
0.059235846
0.059208591
0.059303082
0.05934143
0.059243338
0.059023394
0.058883038