/*--------------------------------*- C++ -*----------------------------------*\
| =========                 |                                                 |
| \\      /  F ield         | OpenFOAM: The Open Source CFD Toolbox           |
|  \\    /   O peration     | Version:  2506                                  |
|   \\  /    A nd           | Website:  www.openfoam.com                      |
|    \\/     M anipulation  |                                                 |
\*---------------------------------------------------------------------------*/
FoamFile
{
    version     2.0;
    format      ascii;
    arch        "LSB;label=32;scalar=64";
    class       surfaceScalarField;
    location    "0.0235";
    object      phi;
}
// * * * * * * * * * * * * * * * * * * * * * * * * * * * * * * * * * * * * * //

dimensions      [1 0 -1 0 0 0 0];

oriented        oriented;

internalField   nonuniform List<scalar> 
27059
(
-57.591615
-57.583381
-57.575193
-57.567019
-57.558863
-57.550714
-57.542493
-57.53417
0.0058092207
-53.056768
-57.525851
0.005834364
-53.049596
-57.517575
0.0058591693
-53.042396
-57.509364
0.0058823659
-53.035177
-57.501119
0.0059033484
-53.027917
-57.492847
0.0059257698
-53.020641
-57.484571
0.0059471593
-53.013308
-57.47628
0.0059681494
-53.005953
-57.46794
0.013082401
-48.825627
0.0059886
-52.998532
-57.459949
0.013121117
-48.818795
0.0060080203
-52.990646
-57.452569
0.013161059
-48.811811
0.0060289293
-52.982925
-57.445211
0.013195076
-48.805214
0.006046188
-52.975696
-57.437377
0.013225923
-48.798711
0.0060639686
-52.96873
-57.429163
0.013260941
-48.791886
0.0060806464
-52.96151
-57.420689
0.013288381
-48.78465
0.0060957402
-52.954279
-57.412184
0.019937399
-44.980005
0.013314002
-48.777083
0.0061097801
-52.946709
-57.403763
0.019977444
-44.973717
0.013343749
-48.769665
0.0061249562
-52.938681
-57.395763
0.020020827
-44.967375
0.013373174
-48.762423
0.0061398663
-52.93115
-57.388222
0.020063758
-44.960984
0.013399442
-48.755231
0.0061547488
-52.924026
-57.380184
0.020104574
-44.954587
0.013426133
-48.748064
0.006168033
-52.917216
-57.371677
0.02014305
-44.948214
0.01345197
-48.740951
0.006180032
-52.910227
0.020179448
-44.941815
0.013475742
-48.73383
-52.902938
0.020213381
-44.93539
0.013498075
-48.726782
-52.895564
0.024561699
-41.426406
0.020245273
-44.929003
0.013518418
-48.719647
-52.887929
0.02460431
-41.420457
0.020275043
-44.922694
0.013538457
-48.712628
-52.880386
0.024644154
-41.414493
0.020303274
-44.916458
0.013556184
-48.705838
-52.872338
0.024681484
-41.408518
0.0203328
-44.910069
0.01357917
-48.698899
-52.863822
0.024718147
-41.402531
0.020357029
-44.903662
0.013597154
-48.691738
-52.856057
0.024759438
-41.396539
0.020381867
-44.896609
0.013610178
-48.684395
-52.848785
0.024801446
-41.390556
0.020414196
-44.889307
0.013628063
-48.6771
0.02483779
-41.384566
0.020440124
-44.882786
-48.669829
0.027782871
-38.164842
0.024868612
-41.378563
0.020458226
-44.876727
-48.662581
0.027825237
-38.159609
0.024899428
-41.372557
0.020477915
-44.871059
-48.655513
0.027863757
-38.154585
0.024927373
-41.366556
0.020500106
-44.865194
-48.648416
0.027898836
-38.149771
0.024952716
-41.360561
0.020515111
-44.859273
-48.641189
0.027930818
-38.145055
0.024975489
-41.354565
0.020528846
-44.852765
-48.633873
0.02795989
-38.140298
0.024995973
-41.348561
0.020540873
-44.846156
-48.62657
0.027985976
-38.135364
0.025013881
-41.34255
0.020547683
-44.838774
-48.619341
0.02854361
-35.172059
0.028013125
-38.130191
0.025035959
-41.336556
0.020564163
-44.831128
0.028577403
-35.167546
0.028045767
-38.124861
0.025058484
-41.330563
-44.824497
0.028608191
-35.163038
0.028075503
-38.119535
0.025075937
-41.324547
-44.818395
0.028635637
-35.158534
0.028101972
-38.114311
0.025093607
-41.318514
-44.812846
0.028659784
-35.15403
0.028125397
-38.109186
0.025108715
-41.312466
-44.807308
0.028680545
-35.149524
0.028145649
-38.1041
0.025121207
-41.306411
-44.801406
0.028698096
-35.145013
0.028162972
-38.099002
0.025131194
-41.300358
-44.795302
0.029700543
-32.431483
0.028712106
-35.140497
0.028177103
-38.093873
0.025138747
-41.29431
-44.788884
0.029698503
-32.42764
0.028723016
-35.135976
0.028188526
-38.088722
0.025143799
-41.288269
-44.782259
0.029692611
-32.4238
0.028730613
-35.131455
0.02819697
-38.08356
0.025146379
-41.282231
0.029683236
-32.419957
0.028734831
-35.126934
0.028202119
-38.078393
-41.276197
0.029673113
-32.416116
0.028738654
-35.122413
0.028206997
-38.07322
-41.270166
0.029671558
-32.412271
0.028749648
-35.117892
0.028217959
-38.068039
-41.264139
0.029667433
-32.408428
0.02875843
-35.113369
0.028226891
-38.062855
-41.258116
0.034704917
-29.873169
0.029659864
-32.404585
0.028764327
-35.108844
0.028233278
-38.057669
-41.252096
0.034667461
-29.869824
0.029648691
-32.400744
0.028766783
-35.104316
0.028236367
-38.052486
-41.246081
0.034625921
-29.866482
0.029634097
-32.396906
0.028766184
-35.099786
0.028236806
-38.047307
-41.240078
0.034580614
-29.863144
0.029615932
-32.393071
0.028762396
-35.095256
0.028234272
-38.042133
0.034531128
-29.859811
0.029594346
-32.389237
0.028755356
-35.090724
-38.036964
0.034477879
-29.856482
0.029569181
-32.385405
0.028745354
-35.086192
-38.0318
0.034420492
-29.853159
0.029540587
-32.381574
0.028732059
-35.08166
-38.026642
0.044889178
-27.504556
0.03435941
-29.849842
0.02950845
-32.377743
0.028715663
-35.077128
-38.021491
0.044790954
-27.501429
0.034294699
-29.84653
0.029473413
-32.373914
0.028696542
-35.072598
-38.016349
0.044702798
-27.498313
0.03423937
-29.843222
0.029446701
-32.370085
0.028684772
-35.068068
-38.01121
0.044615353
-27.495203
0.034185238
-29.839919
0.029421377
-32.366257
0.028674053
-35.063539
-38.006068
0.044523634
-27.492101
0.034127121
-29.836619
0.029392371
-32.36243
0.028660064
-35.059011
-38.000914
0.044426721
-27.489006
0.034064761
-29.833324
0.029359697
-32.358605
0.028642648
-35.054487
0.044325486
-27.485918
0.033998283
-29.830034
0.029323363
-32.354783
-35.049967
0.05870579
-25.302591
0.04421927
-27.482839
0.033927714
-29.826747
0.029283368
-32.350964
-35.045452
0.058595391
-25.299052
0.044108683
-27.479768
0.033853096
-29.823465
0.029239743
-32.347148
-35.040942
0.058478893
-25.295529
0.04399305
-27.476705
0.033774221
-29.820188
0.029192435
-32.343337
-35.036435
0.058357589
-25.292031
0.043873155
-27.473651
0.03369136
-29.816915
0.029141568
-32.33953
-35.03193
0.058230303
-25.288559
0.043748217
-27.470606
0.03360434
-29.813646
0.02908701
-32.335728
-35.027428
0.058098289
-25.285112
0.043619012
-27.467572
0.033513255
-29.810382
0.029028836
-32.331931
-35.022927
0.064603202
-23.31787
0.057964824
-25.281685
0.043489124
-27.464549
0.033422047
-29.807124
0.028970647
-32.328138
-35.018429
0.064547702
-23.314748
0.057843575
-25.278282
0.043370824
-27.461537
0.033341535
-29.80387
0.028922253
-32.32435
0.064488528
-23.311544
0.057718169
-25.274913
0.043249259
-27.458536
0.03325858
-29.800621
-32.320565
0.064424731
-23.308304
0.057588382
-25.271588
0.043123827
-27.455546
0.033171886
-29.797378
-32.316784
0.064355741
-23.30508
0.057453215
-25.268308
0.042993879
-27.452564
0.033081386
-29.794143
-32.313007
0.064281651
-23.301885
0.057313472
-25.26507
0.042859946
-27.44959
0.032987222
-29.790914
-32.309236
0.064202388
-23.298694
0.05716849
-25.261858
0.04272168
-27.446623
0.032889386
-29.787693
-32.30547
0.059299657
-21.502849
0.064117871
-23.295471
0.057018892
-25.258653
0.04257935
-27.443665
0.032787707
-29.78448
-32.30171
0.05922396
-21.500757
0.064028137
-23.292195
0.056864036
-25.255427
0.042432709
-27.440718
0.032682378
-29.781273
-32.297956
0.059143394
-21.498657
0.063933251
-23.288871
0.05670449
-25.252163
0.042282028
-27.437783
0.032573279
-29.778072
0.059058095
-21.496548
0.063833362
-23.285526
0.056539626
-25.248861
0.0421269
-27.434862
-29.774879
0.058967785
-21.49443
0.063728203
-23.282188
0.056370096
-25.245544
0.041967765
-27.431953
-29.771692
0.05888167
-21.492305
0.063626332
-23.278884
0.056203238
-25.242252
0.041811715
-27.429057
-29.768513
0.057036699
-19.829384
0.058807411
-21.490174
0.063535204
-23.275631
0.056046864
-25.239017
0.041665811
-27.42617
-29.765341
0.0569172
-19.827299
0.058728549
-21.48804
0.063439121
-23.272442
0.055885372
-25.235848
0.041515683
-27.423295
-29.762175
0.056793017
-19.825225
0.058644784
-21.485907
0.063337783
-23.269324
0.05571916
-25.232722
0.041361314
-27.42043
-29.759017
0.056662453
-19.823163
0.058555647
-21.483778
0.063230705
-23.266248
0.055547515
-25.2296
0.041202479
-27.417577
-29.755866
0.05652798
-19.821114
0.058461637
-21.481655
0.063118747
-23.263151
0.055371125
-25.22646
0.041039479
-27.414737
0.056386776
-19.81908
0.058362039
-21.479545
0.063001154
-23.259967
0.055189217
-25.223309
-27.411912
0.060112278
-18.280675
0.056241467
-19.817061
0.058257635
-21.477451
0.062879072
-23.25668
0.055002645
-25.220171
-27.409102
0.059938096
-18.278973
0.056089945
-19.815059
0.058147671
-21.475368
0.062751278
-23.25333
0.054810638
-25.217063
-27.406307
0.059758244
-18.277278
0.055933772
-19.813072
0.058032816
-21.473278
0.062618612
-23.249976
0.054613687
-25.213987
-27.403527
0.059572866
-18.275573
0.055771404
-19.811098
0.057912145
-21.471169
0.06248014
-23.246648
0.054411406
-25.210933
-27.400762
0.059380729
-18.273864
0.055604369
-19.809141
0.057787116
-21.469039
0.062336771
-23.243348
0.054204207
-25.207896
-27.398014
0.062261055
-16.863536
0.05919432
-18.27214
0.055441204
-19.807201
0.057665617
-21.466902
0.062196967
-23.240069
0.053999867
-25.204876
-27.395284
0.062108244
-16.862051
0.059021417
-18.270417
0.0552932
-19.805287
0.057558607
-21.46478
0.06207047
-23.236817
0.053807697
-25.201876
0.061961753
-16.860573
0.058845383
-18.268691
0.055140512
-19.8034
0.057446423
-21.462683
0.061939307
-23.233596
-25.198899
0.06179828
-16.859102
0.058661749
-18.266973
0.054982893
-19.801545
0.057329828
-21.46061
0.061803504
-23.230402
-25.195943
0.061639056
-16.857632
0.058474155
-18.265255
0.054819818
-19.799716
0.05720764
-21.458543
0.061662614
-23.227214
-25.193006
0.061464912
-16.856168
0.058279585
-18.263541
0.054651777
-19.79791
0.057080925
-21.45646
0.061516955
-23.223998
-25.190084
0.060360662
-15.585551
0.06129262
-16.854702
0.058080144
-18.261817
0.054478252
-19.796119
0.056948577
-21.454347
0.061365753
-23.220717
-25.187177
0.060172968
-15.584339
0.061107818
-16.85324
0.057874563
-18.260087
0.054299762
-19.79434
0.056811519
-21.452201
0.061209378
-23.217357
-25.184291
0.059993553
-15.583121
0.06092222
-16.851776
0.057663297
-18.258349
0.054115866
-19.792572
0.056669051
-21.450033
0.06104689
-23.213947
-25.181432
0.059795078
-15.581895
0.060726775
-16.850321
0.057446738
-18.256611
0.053926924
-19.790812
0.056521737
-21.447865
0.06087837
-23.210551
0.059602564
-15.580665
0.060527771
-16.848868
0.057223762
-18.254872
0.05373262
-19.78906
0.056369264
-21.445715
-23.207232
0.060468671
-14.397784
0.059392615
-15.579433
0.060321361
-16.84743
0.056996042
-18.253134
0.053533338
-19.787313
0.056211876
-21.443592
-23.204016
0.060254445
-14.396618
0.059193427
-15.578196
0.060114804
-16.845998
0.056766578
-18.251394
0.053333586
-19.785567
0.056053695
-21.441492
-23.200881
0.06004763
-14.395445
0.059002368
-15.576959
0.059926783
-16.844582
0.056556599
-18.24965
0.053151824
-19.783815
0.055912422
-21.439401
-23.197767
0.059852119
-14.394281
0.058821499
-15.575721
0.059736831
-16.843169
0.05634339
-18.247902
0.052968077
-19.782056
0.055768884
-21.437303
-23.194605
0.059636505
-14.393104
0.058621649
-15.574481
0.059540173
-16.841767
0.056125516
-18.246153
0.052779413
-19.780292
0.05562027
-21.435182
-23.191358
0.061137979
-13.312419
0.05942984
-14.391934
0.058430164
-15.573239
0.059339682
-16.84036
0.05590213
-18.244406
0.052586108
-19.778531
0.055467327
-21.433031
0.060924227
-13.311626
0.05920224
-14.390751
0.058218849
-15.571996
0.059131126
-16.83896
0.055673477
-18.242666
0.052387834
-19.776783
-21.430848
0.060701872
-13.31083
0.058984364
-14.389574
0.058016501
-15.570752
0.058920069
-16.837555
0.055439676
-18.24093
0.052184881
-19.775063
-21.428636
0.060472433
-13.310025
0.058744096
-14.388389
0.057793501
-15.569508
0.05869987
-16.83616
0.055200588
-18.239204
0.051976992
-19.773381
-21.426405
0.060436382
-12.311194
0.06024037
-13.309223
0.058515945
-14.387213
0.057580171
-15.568261
0.058477687
-16.834769
0.054956014
-18.237486
0.051764155
-19.771743
-21.424166
0.060201222
-12.310737
0.059995196
-13.308411
0.05826236
-14.386035
0.057345627
-15.567016
0.058246353
-16.8334
0.054706243
-18.235781
0.051546628
-19.770147
-21.42193
0.059953409
-12.31029
0.059753265
-13.307604
0.058023616
-14.384866
0.057120679
-15.565768
0.058012566
-16.832045
0.054450918
-18.234087
0.051323903
-19.768585
-21.419709
0.059703839
-12.309859
0.059492723
-13.306786
0.057757527
-14.383697
0.05687547
-15.564525
0.057770555
-16.830719
0.054190406
-18.232402
0.051096668
-19.767045
-21.417516
0.059446594
-12.309439
0.059240378
-13.305971
0.057506903
-14.382536
0.056637755
-15.563279
0.057525037
-16.82941
0.05392439
-18.230719
0.050864335
-19.765519
0.059826706
-11.38562
0.059204547
-12.30903
0.05898835
-13.305146
0.057251924
-14.381376
0.056404121
-15.562039
0.0572932
-16.828121
0.053672999
-18.229036
-19.764002
0.059595375
-11.385097
0.058974361
-12.308629
0.058760177
-13.304319
0.057022913
-14.380219
0.056186471
-15.560797
0.057068488
-16.826838
0.053427694
-18.227347
-19.762495
0.059352091
-11.384571
0.058732847
-12.308233
0.05850978
-13.303481
0.056771435
-14.379063
0.055956725
-15.559563
0.05683954
-16.825559
0.053178225
-18.225652
-19.761006
0.059108615
-11.384047
0.058491546
-12.307838
0.05826942
-13.302641
0.056530074
-14.377907
0.055726663
-15.558327
0.056604162
-16.824271
0.052923102
-18.223948
-19.759542
0.059490096
-10.542981
0.058853418
-11.383527
0.058238792
-12.307442
0.058007746
-13.301786
0.05626866
-14.37675
0.055487689
-15.5571
0.056365985
-16.822978
0.052663749
-18.222232
-19.758106
0.059236899
-10.542435
0.05859755
-11.383019
0.057984733
-12.307041
0.057755426
-13.300928
0.056015617
-14.375592
0.05524596
-15.555872
0.056120659
-16.821673
0.052398886
-18.220505
-19.756697
0.058973187
-10.541876
0.058329943
-11.382526
0.057721809
-12.306636
0.057481923
-13.300053
0.055743332
-14.374434
0.054996793
-15.554654
0.055872908
-16.820363
0.052129582
-18.218763
0.058709397
-10.541341
0.058061563
-11.382042
0.057454371
-12.30622
0.057217951
-13.299176
0.055479397
-14.373274
0.054744162
-15.553435
0.055618147
-16.819045
-18.217011
0.058804935
-9.7678991
0.058430284
-10.540792
0.057781253
-11.381571
0.057180703
-12.3058
0.05693233
-13.298282
0.055195328
-14.372117
0.054483774
-15.552229
0.055360566
-16.817723
-18.215251
0.058517543
-9.767453
0.058155881
-10.540271
0.05749954
-11.381106
0.056900661
-12.30537
0.056657148
-13.297388
0.054921144
-14.370961
0.054220773
-15.551025
0.055096611
-16.816394
-18.213486
0.058254236
-9.766993
0.057862173
-10.539735
0.057207273
-11.380653
0.056614838
-12.304936
0.056358529
-13.296476
0.054624762
-14.36981
0.053948697
-15.54984
0.054828834
-16.815061
-18.21172
0.057955045
-9.7665514
0.057575636
-10.539228
0.056911138
-11.380204
0.056323039
-12.304495
0.056072732
-13.295564
0.054340348
-14.368659
0.053675166
-15.548661
0.054555135
-16.813722
-18.209953
0.057882135
-9.0530286
0.057679733
-9.7660973
0.057273283
-10.538712
0.056611989
-11.379769
0.05602829
-12.304046
0.055765074
-13.294635
0.054036074
-14.367513
0.053395727
-15.547504
0.054280499
-16.812385
-18.208186
0.057603128
-9.0526468
0.057406111
-9.7656602
0.057007753
-10.53822
0.056334813
-11.379334
0.055757985
-12.303592
0.055499651
-13.293708
0.053770906
-14.366369
0.053140312
-15.546356
0.05402416
-16.811047
0.057369963
-9.0522568
0.0571473
-9.7652099
0.056726612
-10.537724
0.056056639
-11.378911
0.055481055
-12.303126
0.055210692
-13.292765
0.053486318
-14.365231
0.052879607
-15.545229
-16.80972
0.057086873
-9.0518669
0.056870783
-9.7647782
0.056454204
-10.537249
0.055773287
-11.378487
0.055207421
-12.302655
0.054940004
-13.291822
0.053214694
-14.364096
0.05261818
-15.544111
-16.808399
0.05696141
-8.3960474
0.056841296
-9.0514704
0.056597704
-9.7643321
0.056163354
-10.536775
0.055483389
-11.378071
0.054917136
-12.302169
0.054639902
-13.290866
0.052921148
-14.362974
0.052348167
-15.54301
-16.807089
0.056672307
-8.3956911
0.056545661
-9.0510757
0.056310179
-9.7639062
0.055877594
-10.53632
0.055189882
-11.377654
0.054635384
-12.301678
0.054359316
-13.289908
0.052638365
-14.361858
0.052076474
-15.541915
-16.805783
0.056426439
-8.3953187
0.056288589
-9.050678
0.056024603
-9.763466
0.055578141
-10.535869
0.054888324
-11.377239
0.054332962
-12.301168
0.054048592
-13.288938
0.052336025
-14.360759
0.051797187
-15.540835
-16.804482
0.056125889
-8.394951
0.055980088
-9.0502825
0.055724849
-9.7630468
0.05527862
-10.535436
0.054584324
-11.376825
0.054040879
-12.300653
0.053756629
-13.287963
0.052041446
-14.359666
0.051515011
-15.539756
-16.803181
0.05591421
-7.7919381
0.055866805
-8.3945699
0.055710384
-9.0498864
0.055426823
-9.7626139
0.054969778
-10.535006
0.054271414
-11.37641
0.053728189
-12.300122
0.053436735
-13.286977
0.051730504
-14.358589
0.051226398
-15.538687
0.055598905
-7.7916474
0.055553002
-8.3941944
0.055389435
-9.0494939
0.055114461
-9.7622012
0.05465766
-10.534591
0.053956456
-11.375996
0.053424818
-12.299586
0.053131918
-13.285986
0.05142378
-14.357519
-15.537624
0.055341961
-7.7913206
0.055284239
-8.3938103
0.055107508
-9.0490991
0.054804825
-9.7617739
0.054337647
-10.534181
0.053631827
-11.37558
0.053100859
-12.299037
0.052802595
-13.284987
0.05110401
-14.356463
-15.536573
0.05495944
-7.2309266
0.05501315
-7.79098
0.054953774
-8.3934309
0.054772835
-9.0487115
0.054479002
-9.761366
0.054014265
-10.533792
0.0533057
-11.375162
0.052786919
-12.298486
0.052486018
-13.283982
0.050785425
-14.35541
-15.535529
0.054708908
-7.2308246
0.054745424
-7.7906052
0.054676793
-8.393049
0.054479428
-9.0483195
0.054157488
-9.7609416
0.053681556
-10.533415
0.052969574
-11.374743
0.052451034
-12.29792
0.05214534
-13.282973
0.05045574
-14.354371
-15.534498
0.054369782
-7.2306932
0.054408323
-7.7902178
0.054338453
-8.392676
0.054138648
-9.0479377
0.053826647
-9.7605367
0.053355265
-10.533059
0.052637977
-11.37432
0.052132582
-12.29735
0.051824701
-13.281962
0.050132904
-14.35333
-15.533474
0.053932752
-6.7112548
0.054145918
-7.2305263
0.054168309
-7.7898042
0.054085718
-8.3923016
0.053868661
-9.0475515
0.053526029
-9.7601124
0.053043448
-10.532703
0.052325433
-11.373898
0.051818809
-12.296763
0.05150428
-13.280945
0.049823576
-14.3523
0.05361895
-6.7113554
0.053825398
-7.2303299
0.053849805
-7.7893858
0.053767381
-8.3919398
0.053546715
-9.0471761
0.053215481
-9.7597084
0.05273679
-10.532362
0.052009756
-11.373467
0.051516516
-12.296173
0.051200119
-13.279928
-14.351268
0.053395924
-6.7114156
0.05359074
-7.2300976
0.053598326
-7.7889467
0.053504199
-8.3915778
0.053266377
-9.0467976
0.052903066
-9.7592839
0.052415933
-10.532021
0.051689908
-11.373036
0.051195025
-12.295566
0.050871767
-13.278908
-14.350248
0.052815872
-6.2285778
0.053071036
-6.7114388
0.053262343
-7.2298377
0.053273813
-7.7885078
0.053175376
-8.3912225
0.05293517
-9.0464313
0.052585049
-9.758882
0.05209979
-10.53169
0.051365059
-11.372593
0.050883943
-12.294957
0.050558384
-13.277889
-14.349228
0.052594783
-6.2287787
0.052834838
-6.711421
0.053012001
-7.2295386
0.053006582
-7.7880538
0.052899738
-8.3908679
0.05264019
-9.0460584
0.052258256
-9.7584602
0.051769365
-10.531361
0.051033355
-11.372146
0.050550607
-12.294332
0.050219532
-13.27687
-14.348222
0.052271378
-6.2289559
0.052499971
-6.7113714
0.052673175
-7.2292128
0.052672758
-7.7876041
0.052562095
-8.3905193
0.05230213
-9.0456984
0.051932211
-9.758059
0.051442105
-10.531036
0.05070066
-11.37169
0.050232077
-12.293707
0.04989687
-13.275852
-14.347216
0.051860261
-5.7881963
0.052035756
-6.2291159
0.052250382
-6.7112882
0.052411943
-7.2288539
0.052393094
-7.7871388
0.052270258
-8.3901687
0.051991746
-9.045332
0.051591462
-9.7576369
0.051102602
-10.530712
0.05035688
-11.371225
0.049886903
-12.293066
0.049548399
-13.274838
-14.346225
0.051539659
-5.7885814
0.051699585
-6.2292557
0.051904305
-6.7111772
0.052059754
-7.2284709
0.052049217
-7.7866845
0.051925326
-8.3898277
0.051644832
-9.044975
0.051256482
-9.7572337
0.050763793
-10.530385
0.050015434
-11.370753
0.0495597
-12.292425
0.049215101
-13.273823
0.051088255
-5.3798238
0.051311226
-5.7889643
0.051449568
-6.2293657
0.051640956
-6.7110356
0.051786889
-7.2280631
0.051755206
-7.7862173
0.051618065
-8.3894844
0.051320965
-9.0446128
0.050903184
-9.7568085
0.0504144
-10.530061
0.049660147
-11.370269
0.049204272
-12.291767
-13.272812
0.050787525
-5.3802581
0.05097636
-5.7893099
0.051099175
-6.2294497
0.051282543
-6.7108683
0.051424155
-7.2276409
0.051403382
-7.7857703
0.051263279
-8.3891502
0.05096476
-9.0442609
0.050557033
-9.7564
0.050064576
-10.529737
0.049309805
-11.36978
0.048867087
-12.291109
-13.271797
0.050548899
-5.3806931
0.050733402
-5.7896408
0.050836514
-6.2295013
0.051005957
-6.7106706
0.051135085
-7.2271968
0.051093926
-7.7853226
0.050942275
-8.3888159
0.050624483
-9.0439027
0.050193883
-9.7559746
0.049704685
-10.529423
0.048942741
-11.369279
0.048501804
-12.290435
-13.270786
0.049944245
-5.003988
0.050235036
-5.3810849
0.050385914
-5.7898904
0.050473426
-6.2295238
0.050635315
-6.7104484
0.050764792
-7.2267452
0.050732675
-7.7849038
0.050575479
-8.3884909
0.050260531
-9.0435573
0.049833269
-9.755558
0.049343588
-10.529118
0.048583628
-11.368776
0.048154535
-12.289753
-13.269768
0.049695878
-5.0044926
0.049989241
-5.3814696
0.050132521
-5.7900901
0.0502028
-6.2295115
0.050352093
-6.7101978
0.050463969
-7.2262633
0.050415108
-7.7844938
0.050247712
-8.3881707
0.049909836
-9.0432023
0.049467351
-9.7551308
0.048978684
-10.52882
0.048209981
-11.368261
0.047784055
-12.289057
-13.268751
0.048927476
-4.6513315
0.049442891
-5.0049505
0.049695523
-5.381794
0.049808687
-5.7902373
0.049861251
-6.2294649
0.050001138
-6.7099211
0.05011598
-7.2257815
0.050072556
-7.7841108
0.049897897
-8.3878604
0.049564834
-9.0428626
0.049121457
-9.7547077
0.048634618
-10.528527
0.047869497
-11.367745
0.047454163
-12.288352
0.048702904
-4.6518928
0.049215544
-5.0053953
0.049468385
-5.3820889
0.049571873
-5.7903596
0.049611378
-6.2293888
0.04973846
-6.7096186
0.049833811
-7.2252787
0.049775551
-7.7837315
0.04959046
-8.3875565
0.049234153
-9.0425094
0.048776191
-9.7542755
0.048288641
-10.528229
0.047513612
-11.367214
-12.287633
0.048479168
-4.6524207
0.048953558
-5.0057887
0.049166763
-5.3823175
0.049241212
-5.7904388
0.049262855
-6.2292848
0.049381388
-6.7092972
0.049479462
-7.2247834
0.049424799
-7.7833712
0.049231528
-8.3872613
0.048879075
-9.0421697
0.048423987
-9.7538521
0.047938299
-10.527932
0.047167857
-11.366683
-12.286906
0.04763839
-4.3281539
0.048241412
-4.6529109
0.048715158
-5.0061662
0.048928079
-5.3825347
0.04899233
-5.7904925
0.049004399
-6.2291624
0.049109815
-6.7089592
0.049190394
-7.2242754
0.049121896
-7.7830088
0.048917948
-8.3869709
0.048544033
-9.0418172
0.048070966
-9.753418
0.04758523
-10.527633
0.046805252
-11.366138
-12.286164
0.047425017
-4.328761
0.048003387
-4.6533593
0.048438496
-5.0064859
0.048615645
-5.3827121
0.048651204
-5.7905023
0.048644751
-6.2290169
0.04874273
-6.708612
0.048825197
-7.223778
0.048759762
-7.7826605
0.048547108
-8.3866834
0.048176749
-9.0414751
0.047711452
-9.7529985
0.047226307
-10.527337
0.046451413
-11.365595
-12.285417
0.04658125
-4.0249906
0.047196034
-4.329314
0.047756927
-4.6537724
0.048189176
-5.0067846
0.048364077
-5.3828832
0.048390497
-5.7904954
0.048374828
-6.2288586
0.048461426
-6.7082553
0.04852779
-7.2232752
0.048449312
-7.7823119
0.048226584
-8.3863959
0.047832538
-9.0411177
0.04734931
-9.752569
0.046865367
-10.527044
0.046080923
-11.365038
-12.284655
0.046371869
-4.0257107
0.046969866
-4.329824
0.04750452
-4.6541358
0.047900258
-5.0070283
0.04804057
-5.3830112
0.048038979
-5.7904556
0.048006896
-6.2286814
0.048085499
-6.70789
0.048154246
-7.2227868
0.048076709
-7.7819764
0.047845457
-8.3861118
0.047457896
-9.0407713
0.046982512
-9.7521541
0.046498656
-10.526752
0.045720166
-11.364485
0.045532792
-3.7462752
0.046155944
-4.0263878
0.046729115
-4.3302901
0.047249285
-4.6544591
0.047639964
-5.0072464
0.047776612
-5.3831234
0.047765659
-5.790406
0.047725417
-6.2284919
0.047794187
-6.7075116
0.047846092
-7.2222961
0.047756532
-7.7816378
0.047514561
-8.3858269
0.047099812
-9.0404051
0.046611003
-9.7517325
0.046129014
-10.526461
-11.363916
0.045325575
-3.7471069
0.045931554
-4.0270278
0.046488933
-4.3307253
0.046984034
-4.6547286
0.047338297
-5.007408
0.047442898
-5.38319
0.04740532
-5.7903286
0.047349669
-6.2282832
0.047408648
-6.7071245
0.047462988
-7.2218213
0.047373604
-7.7813157
0.047125353
-8.3855499
0.046720378
-9.0400521
0.046237145
-9.7513218
0.04575506
-10.526168
-11.36335
0.044445833
-3.4840227
0.045118094
-3.7479017
0.045703388
-4.0276255
0.046236792
-4.3311197
0.046718829
-4.6549627
0.04706511
-5.0075446
0.047165179
-5.383238
0.047120149
-5.790245
0.047056925
-6.2280625
0.047107764
-6.7067315
0.047145645
-7.2213476
0.047043805
-7.7809991
0.046782093
-8.3852697
0.046347561
-9.0396757
0.045855213
-9.7509066
0.04537561
-10.525874
-11.362769
0.043365792
-3.2383093
0.044249185
-3.4850354
0.044899859
-3.7486549
0.04546594
-4.0281795
0.045983505
-4.3314791
0.046442202
-4.6551552
0.046753403
-5.0076353
0.046820053
-5.383241
0.04675027
-5.7901357
0.046673402
-6.2278271
0.046713291
-6.706332
0.046752806
-7.2208938
0.046652021
-7.7807103
0.046385899
-8.3849957
0.045962318
-9.0393136
0.045475426
-9.7504994
0.04499492
-10.525575
-11.362191
0.04318017
-3.2391414
0.04404536
-3.4860316
0.044676084
-3.7493669
0.045224853
-4.0286911
0.045719855
-4.3317951
0.04616349
-4.6553239
0.046464978
-5.0077109
0.046528986
-5.3832347
0.046455437
-5.7900238
0.046371559
-6.2275862
0.046402207
-6.7059337
0.046424622
-7.2204466
0.046309811
-7.7804255
0.046029688
-8.3847101
0.045576004
-9.0389262
0.045082296
-9.750088
0.044604901
-10.525275
-11.361599
0.042276872
-3.0159732
0.042983609
-3.239973
0.043837062
-3.4870136
0.044446033
-3.7500346
0.044974265
-4.0291553
0.045454742
-4.3320768
0.045874887
-4.6554648
0.046142733
-5.007753
0.046173861
-5.3831924
0.046073265
-5.7898871
0.045978432
-6.2273425
0.046000202
-6.70554
0.046025315
-7.2200262
0.045912503
-7.7801509
0.045626572
-8.384423
0.045184866
-9.0385526
0.044697351
-9.7496846
0.044218382
-10.524967
0.041285265
-2.8013444
0.042113857
-3.0168575
0.042807084
-3.2408028
0.043642415
-3.487971
0.044232586
-3.7506623
0.044747404
-4.0295777
0.045202371
-4.3323141
0.045604568
-4.6555907
0.045860789
-5.0077885
0.045891332
-5.3831521
0.045791123
-5.7897577
0.045687063
-6.2270985
0.045700146
-6.7051495
0.045705337
-7.2196114
0.045575267
-7.7798708
0.045277563
-8.3841295
0.044804411
-9.0381514
0.044312758
-9.7492784
-10.524656
0.041154437
-2.8023402
0.041955058
-3.0177454
0.042632791
-3.2416242
0.043453385
-3.488904
0.044021774
-3.7512468
0.04451924
-4.0299552
0.044958081
-4.3325187
0.045333376
-4.6556964
0.045557012
-5.0078004
0.045555264
-5.3830815
0.045428082
-5.7896092
0.045314631
-6.2268568
0.045316849
-6.7047638
0.045327251
-7.2192231
0.045200436
-7.7796001
0.044895681
-8.3838353
0.044435078
-9.0377641
0.043946995
-9.7488782
-10.524338
0.039977573
-2.6045672
0.041022174
-2.803347
0.041786579
-3.0186277
0.042452933
-3.2424391
0.043259063
-3.4898108
0.043808734
-3.7517932
0.044293532
-4.030295
0.044704764
-4.3326833
0.045061185
-4.6557923
0.045274889
-5.0078123
0.045272951
-5.3830139
0.045145652
-5.7894702
0.045022473
-6.2266136
0.045017161
-6.704386
0.045004594
-7.21883
0.044859934
-7.7793197
0.044543297
-8.3835333
0.044051976
-9.0373513
0.043564845
-9.7484849
-10.524016
0.038803632
-2.4221436
0.039858051
-2.6054426
0.040874166
-2.8043794
0.041615329
-3.0195182
0.042270636
-3.2432427
0.04305778
-3.4906842
0.043587899
-3.7523002
0.044056946
-4.0305963
0.044450091
-4.3328241
0.044777108
-4.6558698
0.044957187
-5.0078021
0.044926578
-5.3829187
0.044775858
-5.7893176
0.044643453
-6.2263705
0.04462838
-6.7040186
0.044623935
-7.2184565
0.044479517
-7.7790463
0.04415884
-8.3832307
0.043677499
-9.0369517
0.043190528
-9.748098
-10.523689
0.037646315
-2.2516604
0.038738274
-2.4230196
0.039746151
-2.6063163
0.040722909
-2.8054224
0.041432226
-3.0204059
0.042077205
-3.2440343
0.042853256
-3.4915293
0.043366024
-3.7527687
0.043822197
-4.0308703
0.044185443
-4.3329379
0.04449314
-4.6559387
0.044666313
-5.0077984
0.044636072
-5.3828271
0.044484133
-5.7891744
0.044342519
-6.2261284
0.044315631
-6.703657
0.044286582
-7.2180734
0.044128509
-7.7787651
0.043792966
-8.3829167
0.043287168
-9.0365338
0.042804962
-9.7477132
0.037550257
-2.2526931
0.038617983
-2.4239074
0.03961021
-2.6072298
0.040562432
-2.8064858
0.041247828
-3.0212947
0.041884434
-3.2448127
0.042643844
-3.4923366
0.043137499
-3.7531941
0.043577522
-4.0311193
0.043920231
-4.333041
0.044198233
-4.6559919
0.044337474
-5.0077741
0.044277962
-5.3827107
0.044106925
-5.7890232
0.043955414
-6.225886
0.043923164
-6.7033088
0.043902513
-7.217713
0.043741179
-7.7784865
0.043405233
-8.3826051
0.042902921
-9.0361243
-9.7473296
0.036251272
-2.0896619
0.037507352
-2.2537151
0.038531151
-2.4247864
0.039476978
-2.6081468
0.040393136
-2.8075452
0.041055118
-3.0221771
0.041682857
-3.2455739
0.042428962
-3.4931066
0.042906388
-3.7535785
0.043328709
-4.0313471
0.043641336
-4.3331326
0.043903784
-4.6560431
0.044036832
-5.0077579
0.04397977
-5.3826043
0.043806272
-5.7888796
0.043645533
-6.2256469
0.04359765
-6.7029588
0.043553204
-7.2173485
0.043381092
-7.7782021
0.043029282
-8.3822806
0.042509572
-9.0357028
-9.7469473
0.034799979
-1.9417072
0.036171625
-2.0907481
0.037396258
-2.2547434
0.038393383
-2.4256865
0.039325025
-2.6090972
0.040222062
-2.8086192
0.040858512
-3.0230429
0.041480021
-3.2463173
0.04221341
-3.4938375
0.042669119
-3.7539162
0.043075414
-4.0315638
0.043366006
-4.3332255
0.04359779
-4.6560807
0.043699109
-5.0077214
0.043612442
-5.3824771
0.043421216
-5.7887294
0.043251573
-6.2254091
0.043199479
-6.7026185
0.043161217
-7.2170102
0.042985233
-7.7779194
0.042633175
-8.3819567
0.042113201
-9.0352859
-9.7465685