/*--------------------------------*- C++ -*----------------------------------*\
| =========                 |                                                 |
| \\      /  F ield         | OpenFOAM: The Open Source CFD Toolbox           |
|  \\    /   O peration     | Version:  2506                                  |
|   \\  /    A nd           | Website:  www.openfoam.com                      |
|    \\/     M anipulation  |                                                 |
\*---------------------------------------------------------------------------*/
FoamFile
{
    version     2.0;
    format      ascii;
    arch        "LSB;label=32;scalar=64";
    class       volScalarField;
    location    "1.2";
    object      p;
}
// * * * * * * * * * * * * * * * * * * * * * * * * * * * * * * * * * * * * * //

dimensions      [1 -1 -2 0 0 0 0];

internalField   nonuniform List<scalar> 
19257
(
47049.826
47041.888
47040.873
47042.266
47041.468
47040.86
47039.626
47037.958
47037.458
47037.396
47036.78
47035.398
47034.091
47033.567
47034.421
47032.566
47028.828
47027.649
47026.133
47024.284
47020.203
47019.426
47015.957
47013.235
47011.088
47007.482
47007.084
47003.753
47001.474
46997.842
46991.87
46989.97
46987.848
46987.123
46987.996
46993.468
46992.109
46984.606
46983.619
46988.868
46982.505
46971.379
46966.304
46944.452
46908.604
46805.765
46535.932
46649.817
45938.109
47050.478
47042.192
47041.273
47042.111
47041.428
47041.066
47039.918
47038.594
47038.076
47037.657
47037.201
47036.267
47034.949
47033.991
47034.42
47033.553
47030.943
47029.638
47028.286
47026.803
47022.66
47022.266
47019.869
47017.15
47015.785
47012.566
47012.697
47011.305
47010.042
47008.222
47003.345
47002.081
47000.685
47002.433
47007.78
47015.356
47020.535
47018.592
47018.827
47030.052
47041.564
47039.267
47041.565
47045.027
47024.811
46978.573
46741.212
46834.486
46067.695
47053.166
47044.276
47041.75
47041.656
47040.961
47040.955
47040.228
47039.205
47038.407
47038.151
47037.242
47036.765
47035.67
47034.646
47035.133
47035.292
47033.161
47031.489
47030.493
47029.449
47025.956
47025.31
47023.928
47021.146
47020.428
47017.564
47017.893
47018.276
47019.385
47018.069
47014.654
47013.95
47014.01
47017.648
47026.134
47036.355
47045.717
47052.096
47057.666
47070.037
47087.228
47099.459
47112.44
47138.354
47132.902
47079.599
47001.66
47040.72
46253.413
47054.247
47043.89
47040.466
47040.976
47040.37
47040.674
47040.428
47039.695
47038.775
47038.534
47037.969
47037.669
47036.664
47036.098
47036.562
47036.645
47034.752
47033.001
47032.446
47032.185
47029.601
47028.415
47028.04
47025.464
47024.915
47022.986
47022.758
47025.523
47028.284
47027.578
47026.199
47026.596
47028.224
47032.839
47043.534
47056.052
47069.293
47080.6
47092.163
47108.178
47133.672
47153.459
47182.419
47219.015
47240.43
47227.555
47179.727
47192.508
46503.66
47053.215
47044.266
47039.657
47040.441
47040.012
47040.176
47040.798
47039.902
47039.3
47039.116
47039.052
47038.419
47037.907
47037.536
47037.583
47037.795
47036.326
47034.705
47034.367
47034.744
47032.926
47031.562
47031.975
47030.318
47029.498
47028.825
47028.68
47032.842
47037.262
47038.584
47037.805
47039.293
47042.675
47048.173
47060.489
47075.231
47091.156
47107.414
47125.744
47146.019
47174.892
47205.531
47244.49
47287.508
47325.884
47341.09
47366.752
47358.855
46780.647
47053.134
47044.516
47039.543
47039.959
47039.927
47040.027
47041.049
47039.746
47040.076
47039.527
47039.877
47039.462
47038.962
47038.712
47038.761
47038.983
47038.269
47036.9
47036.754
47037.073
47036.006
47035.479
47035.771
47035.487
47035.125
47035.349
47035.596
47039.939
47046.615
47050.001
47049.602
47052.047
47057.553
47064.364
47077.039
47094.782
47113.02
47134.404
47155.839
47181.536
47215.17
47256.131
47297.652
47353.644
47409.884
47462.382
47520.337
47515.052
47088.391
47053.714
47044.786
47039.472
47039.575
47039.656
47039.625
47040.354
47040.332
47040.695
47040.125
47040.528
47040.595
47040.001
47039.972
47040.048
47040.165
47040.384
47039.646
47039.6
47039.39
47039.964
47039.843
47039.587
47041.159
47041.637
47041.73
47042.664
47046.993
47055.437
47061.312
47061.882
47065.024
47072.357
47080.961
47093.974
47113.656
47134.694
47158.526
47183.886
47215.614
47251.603
47298.392
47350.422
47415.103
47487.103
47568.604
47652.131
47674.441
47403.035
47054.195
47045.21
47039.793
47039.64
47039.882
47039.522
47040.337
47041.278
47041.287
47041.057
47041.699
47041.498
47041.115
47041.14
47041.058
47041.44
47042.59
47042.399
47042.072
47042.165
47043.998
47044.565
47044.464
47046.245
47047.984
47048.344
47049.793
47054.224
47063.613
47072.232
47074.684
47078.169
47086.811
47097.16
47111.002
47131.95
47156.476
47182.47
47212.736
47246.438
47288.158
47340.904
47401.109
47470.515
47558.416
47659.556
47776.29
47835.497
47707.601
47056.06
47045.392
47039.205
47039.496
47039.996
47039.459
47040.404
47041.848
47041.774
47041.74
47042.264
47042.644
47042.546
47042.688
47042.349
47042.894
47044.172
47044.644
47044.451
47045.439
47047.405
47049.09
47049.033
47050.815
47053.917
47055.3
47057.012
47061.638
47071.353
47082.303
47087.387
47091.268
47100.661
47112.942
47127.819
47149.722
47177.272
47206.335
47239.127
47276.291
47322.665
47378.01
47446.467
47523.98
47625.662
47749.566
47884.337
47990.53
47995.45
47057.336
47045.793
47039.31
47039.333
47039.823
47039.392
47040.424
47041.987
47041.97
47042.25
47043.026
47043.897
47043.931
47044.431
47044.112
47044.592
47045.924
47047.104
47046.822
47048.205
47050.517
47052.936
47053.561
47055.59
47059.461
47062.351
47064.364
47069.252
47078.977
47091.52
47099.521
47104.304
47114.144
47128.122
47144.366
47167.119
47196.696
47229.141
47264.575
47305.529
47354.22
47415.037
47487.972
47576.114
47685.917
47824.759
47982.958
48144.475
48254.831
47059.79
47046.381
47038.85
47038.775
47039.486
47039.927
47040.657
47041.667
47042.433
47043.012
47043.719
47044.927
47045.635
47045.909
47045.822
47046.418
47048.062
47049.551
47049.591
47051.047
47053.685
47056.709
47058.535
47060.839
47064.91
47069.121
47071.81
47077.068
47086.9
47100.338
47110.959
47117.232
47127.396
47142.813
47160.552
47183.81
47214.705
47250.631
47289.226
47333.225
47384.416
47449.509
47527.327
47624.814
47740.397
47896.907
48079.014
48284.863
48490.001
47061.735
47047.4
47039.099
47038.801
47039.869
47040.697
47040.574
47041.453
47042.991
47043.769
47044.668
47045.951
47046.924
47047.316
47047.695
47048.348
47050.087
47051.821
47052.624
47054.001
47056.896
47060.422
47063.188
47066.006
47070.259
47075.31
47079.04
47084.794
47094.969
47108.869
47121.473
47129.742
47140.397
47156.837
47176.203
47199.983
47231.552
47270.089
47312.076
47358.701
47413.594
47480.5
47565.138
47665.355
47794.494
47956.177
48165.306
48412.243
48699.916
47064.54
47048.642
47038.878
47038.166
47039.957
47040.789
47040.524
47041.761
47043.318
47044.579
47045.495
47046.647
47047.953
47048.679
47049.627
47050.316
47052.092
47054.147
47055.393
47056.937
47059.981
47063.865
47067.373
47070.844
47075.502
47081.169
47085.896
47092.135
47102.715
47116.956
47130.923
47141.305
47152.792
47169.926
47190.926
47215.445
47247.335
47287.548
47333.181
47382.611
47439.914
47509.181
47597.494
47704.167
47841.455
48013.197
48242.032
48528.104
48886.867
47067.293
47049.678
47038.14
47037.425
47039.91
47041.055
47041.514
47042.458
47044.229
47045.66
47046.409
47047.451
47048.799
47049.675
47051.058
47051.92
47053.771
47056.12
47057.67
47059.601
47062.926
47067.041
47071.09
47075.228
47080.431
47086.623
47092.156
47098.952
47109.963
47124.503
47139.268
47151.501
47164.176
47181.898
47204.256
47230.031
47262.112
47303.334
47351.816
47404.427
47463.781
47536.148
47626.054
47739.366
47879.674
48068.543
48307.808
48633.403
49049.006
47070.271
47050.822
47038.123
47037.298
47040.195
47041.756
47042.828
47043.657
47045.374
47046.537
47047.27
47048.375
47049.734
47050.719
47052.435
47053.571
47055.37
47057.834
47059.682
47061.891
47065.423
47069.746
47074.262
47078.967
47084.675
47091.383
47097.636
47105.075
47116.58
47131.378
47146.504
47160.188
47174.239
47192.599
47215.949
47243.157
47275.839
47317.506
47368.13
47423.735
47485.5
47559.467
47651.998
47768.508
47915.194
48111.236
48369.836
48721.967
49188.04
47073.47
47051.93
47038.281
47037.547
47040.15
47042.228
47043.689
47044.776
47045.986
47046.751
47047.707
47049.134
47050.584
47051.6
47053.496
47055.057
47056.955
47059.555
47061.681
47064.127
47067.813
47072.266
47077.133
47082.253
47088.35
47095.449
47102.261
47110.34
47122.437
47137.483
47152.638
47167.35
47182.816
47201.882
47225.898
47254.339
47288.057
47330.164
47382.124
47440.198
47504.297
47579.901
47674.511
47793.461
47946.373
48147.657
48422.187
48795.485
49303.603
47076.26
47053.366
47037.976
47037.196
47040.225
47042.437
47044.167
47045.944
47046.851
47046.945
47047.947
47049.504
47050.995
47052.132
47054.188
47056.144
47058.121
47060.829
47063.265
47066.015
47070.052
47074.66
47079.754
47085.143
47091.451
47098.739
47105.859
47114.483
47127.293
47142.629
47157.514
47172.82
47189.599
47209.421
47233.847
47263.107
47297.912
47340.708
47393.39
47453.334
47519.16
47596.483
47692.031
47812.966
47970.038
48178.458
48462.009
48853.69
49393.123
47078.261
47054.932
47037.957
47036.611
47040.006
47041.968
47043.926
47046.46
47046.398
47046.75
47048.182
47049.798
47051.352
47052.629
47054.779
47057.037
47058.995
47061.57
47064.156
47067.177
47071.562
47076.308
47081.593
47087.276
47093.763
47101.102
47108.225
47117.189
47130.803
47146.497
47160.801
47176.139
47193.962
47214.594
47239.238
47268.821
47304.386
47347.897
47400.952
47461.763
47528.846
47607.064
47703.139
47824.87
47983.922
48197.707
48489.577
48894.943
49454.707
47079.288
47056.053
47038.081
47036.473
47039.553
47041.739
47042.799
47044.523
47045.958
47046.723
47048.129
47049.761
47051.479
47052.809
47055.015
47057.557
47059.592
47061.965
47064.569
47067.83
47072.353
47076.969
47082.275
47088.207
47094.871
47102.212
47109.135
47118.259
47132.669
47148.715
47162.245
47177.129
47195.626
47216.979
47241.77
47271.352
47307.216
47351.271
47404.399
47465.276
47532.825
47611.316
47707.012
47828.341
47988.388
48204.671
48501.076
48914.556
49485.334
47079.096
47056.099
47040.686
47036.123
47038.953
47042.167
47042.837
47043.65
47045.757
47046.632
47048.073
47049.818
47051.563
47052.764
47054.942
47057.661
47059.812
47062.033
47064.644
47068.079
47072.632
47077.036
47082.232
47088.309
47095.077
47102.326
47108.995
47118.32
47133.433
47149.616
47162.357
47176.649
47195.531
47217.483
47242.474
47272.068
47308.019
47352.37
47405.459
47465.99
47533.497
47611.8
47706.83
47827.519
47987.603
48204.746
48502.797
48918.877
49493.65
47078.287
47055.313
47042.333
47037.122
47038.431
47041.069
47042.339
47043.263
47044.715
47046.162
47048.101
47049.975
47051.443
47052.393
47054.614
47057.548
47059.701
47061.717
47064.311
47067.826
47072.378
47076.63
47081.73
47087.922
47094.705
47101.731
47108.226
47117.971
47133.656
47149.63
47161.614
47175.386
47194.545
47217.005
47242.306
47272.084
47308.045
47352.449
47405.439
47465.447
47532.585
47610.448
47704.856
47825.034
47984.889
48202.001
48500.135
48914.332
49485.62
47076.667
47054.816
47040.582
47037.441
47039.216
47041.414
47041.732
47042.667
47043.875
47045.26
47047.215
47049.204
47050.622
47051.558
47053.992
47057.175
47059.139
47060.833
47063.406
47067.021
47071.521
47075.575
47080.63
47086.886
47093.497
47100.098
47106.495
47116.897
47132.934
47148.187
47159.279
47172.646
47191.983
47214.739
47240.367
47270.452
47306.253
47350.334
47402.963
47462.051
47528.182
47605.029
47698.565
47817.98
47976.743
48192.176
48487.045
48895.402
49454.328
47074.361
47053.443
47039.79
47037.857
47039.109
47041.201
47041.765
47042.374
47043.178
47044.474
47046.514
47048.499
47049.743
47050.607
47053.175
47056.448
47058.158
47059.593
47062.166
47065.873
47070.205
47073.934
47078.88
47084.979
47091.211
47097.262
47103.626
47114.716
47130.654
47144.722
47154.813
47167.878
47187.163
47209.818
47235.603
47265.817
47301.003
47344.212
47396.024
47453.61
47517.741
47592.856
47685.205
47802.886
47959.344
48170.516
48457.658
48853.683
49393.73
47071.665
47051.859
47039.53
47037.909
47038.606
47040.142
47041.846
47042.521
47042.589
47043.456
47045.515
47047.658
47048.658
47049.505
47052.236
47055.523
47056.949
47058.116
47060.662
47064.343
47068.347
47071.633
47076.44
47082.269
47088.051
47093.507
47099.936
47111.571
47126.892
47139.508
47148.611
47161.454
47180.433
47202.68
47228.488
47258.492
47292.394
47334.332
47384.765
47440.086
47501.521
47575.027
47665.282
47780.97
47933.082
48138.178
48420.145
48793.923
49303.882
47068.58
47050.36
47039.327
47037.567
47038.489
47039.42
47042.335
47042.507
47042.481
47043.11
47044.923
47046.845
47047.523
47048.476
47051.309
47054.375
47055.232
47056.14
47058.748
47062.283
47065.769
47068.563
47073.323
47078.892
47084.126
47088.885
47095.531
47107.567
47121.911
47132.886
47141.003
47153.632
47172.184
47194.003
47219.884
47249.228
47281.331
47321.703
47370.299
47422.654
47481.523
47552.338
47641.219
47753.533
47900.298
48098.003
48364.743
48723.619
49187.767
47065.201
47048.984
47039.162
47038.005
47039.899
47040.088
47041.509
47041.979
47042.202
47043.228
47045.107
47046.553
47046.797
47047.722
47050.37
47052.869
47053.03
47053.929
47056.507
47059.575
47062.432
47065
47069.894
47075.096
47079.532
47083.549
47090.625
47102.816
47115.826
47125.006
47132.203
47144.631
47162.752
47184.285
47210.212
47238.153
47268.054
47306.847
47353.136
47402.043
47457.765
47527.386
47613.594
47721.88
47864.885
48057.217
48297.231
48634.018
49050.161
47062.047
47047.882
47038.948
47037.922
47040.624
47040.821
47040.613
47040.909
47041.344
47043.065
47044.979
47046.101
47045.945
47046.888
47049.344
47051.207
47050.731
47051.665
47054.012
47056.699
47059.038
47061.632
47066.495
47070.992
47074.493
47077.97
47085.58
47097.436
47108.706
47115.925
47122.348
47134.658
47152.436
47173.88
47199.405
47224.96
47252.616
47289.697
47332.988
47378.339
47432.188
47499.67
47583.764
47686.952
47820.912
48000.558
48242.312
48528.174
48888.179
47059.051
47047.232
47039.268
47037.87
47040.485
47041.476
47041.23
47040.353
47040.916
47042.804
47044.631
47045.574
47045.391
47046.513
47048.595
47049.513
47048.591
47049.582
47051.627
47053.84
47055.557
47058.155
47062.666
47066.268
47068.888
47072.086
47080.107
47091.156
47100.466
47105.806
47111.773
47124.073
47141.572
47162.877
47187.034
47209.417
47235.093
47270.268
47310.174
47352.666
47404.486
47470.14
47549.287
47649.658
47777.744
47937.054
48156.73
48416.652
48703.059
47057.437
47047.233
47039.976
47038.56
47040.275
47042.481
47041.74
47040.519
47041.162
47042.834
47044.4
47045.149
47044.986
47046.223
47047.907
47047.832
47046.704
47047.602
47049.203
47050.742
47051.887
47054.35
47058.279
47061.017
47062.83
47066.085
47074.245
47083.942
47091.146
47094.953
47100.827
47113.226
47130.399
47151.081
47172.639
47191.668
47215.762
47248.906
47285.244
47325.977
47375.519
47439.394
47513.226
47604.363
47724.058
47887.34
48066.872
48281.521
48493.755
47056.136
47047.028
47040.463
47039.183
47039.768
47042.178
47041.793
47040.881
47041.604
47043.027
47044.076
47044.454
47044.419
47045.481
47046.892
47045.944
47044.78
47045.5
47046.546
47047.491
47048.465
47050.829
47053.914
47055.997
47056.911
47060.374
47068.255
47076.118
47081.318
47083.944
47089.847
47102.3
47118.868
47138.079
47156.112
47172.356
47195.407
47225.786
47259.842
47296.882
47345.928
47404.396
47475.896
47557.744
47665.534
47808.35
47978.958
48143.057
48257.029
47055.967
47046.387
47039.786
47039.141
47039.922
47041.073
47041.055
47040.611
47041.513
47042.8
47043.611
47043.537
47043.786
47044.567
47045.676
47044.173
47042.715
47043.265
47044.078
47044.22
47044.948
47047.321
47049.642
47051.232
47051.233
47054.98
47062.031
47067.813
47071.462
47073.174
47079.151
47091.434
47106.765
47123.661
47138.007
47152.404
47174.234
47201.791
47233.04
47268.094
47314.605
47367.318
47432.927
47510.137
47612.889
47727.703
47864.619
47987.348
47999.729
47054.925
47045.615
47039.864
47039.162
47039.901
47040.603
47040.319
47040.372
47041.295
47041.974
47042.514
47042.437
47043.01
47043.675
47044.145
47042.497
47041.265
47041.011
47041.65
47041.468
47041.816
47043.722
47045.229
47046.164
47045.713
47049.482
47055.247
47059.333
47061.594
47062.426
47068.598
47080.405
47093.828
47107.85
47119.013
47132.437
47152.242
47177.557
47205.573
47239.705
47281.028
47331.927
47385.165
47453.625
47542.709
47653.868
47763.633
47824.953
47709.007
47054.089
47044.573
47039.193
47039.077
47039.984
47040.356
47039.88
47040.128
47040.925
47041.516
47041.701
47041.708
47042.572
47042.468
47042.359
47040.462
47039.649
47039.227
47038.69
47038.487
47038.82
47040.14
47040.555
47040.767
47040.475
47043.561
47047.788
47050.903
47051.812
47051.874
47058.082
47068.876
47079.953
47091.237
47100.141
47112.583
47130.012
47152.755
47178.321
47209.96
47245.372
47292.195
47339.57
47399.953
47459.055
47546.644
47638.565
47667.361
47407.921
47053.119
47043.683
47039.117
47039.575
47040.394
47040.505
47039.95
47040.5
47040.895
47041.424
47041.294
47041.523
47042.233
47041.907
47040.418
47038.681
47037.784
47037.284
47036.199
47035.799
47035.731
47036.657
47036.067
47035.204
47035.249
47037.753
47040.375
47042.568
47041.994
47041.742
47047.685
47056.844
47065.626
47074.442
47081.72
47092.591
47107.706
47127.598
47151.259
47179.283
47210.202
47247.552
47287.349
47337.158
47395.686
47456.164
47493.18
47492.251
47089.616
47052.108
47042.414
47039.172
47040.349
47040.844
47040.386
47040.065
47040.599
47041.06
47041.533
47040.728
47041.594
47041.609
47041.703
47038.917
47037.075
47036.464
47035.578
47034.489
47034.022
47033.333
47033.18
47031.788
47030.529
47030.982
47031.565
47033.33
47034.474
47032.635
47032.065
47037.226
47044.159
47051.285
47057.75
47063.367
47072.377
47085.14
47102.679
47124.23
47144.736
47173.932
47203.011
47229.757
47263.761
47294.282
47331.135
47346.549
47335.439
46788.371
47051.167
47040.593
47038.826
47040.759
47041.554
47040.441
47040.612
47040.401
47040.584
47041.068
47039.958
47041.141
47040.395
47040.487
47037.59
47035.876
47035.029
47033.905
47032.342
47032.295
47031.051
47029.841
47027.89
47026.302
47026.944
47026.043
47026.576
47026.199
47023.929
47022.725
47026.574
47031.325
47037.111
47041.37
47044.855
47051.945
47062.947
47078.098
47095.032
47109.86
47132.296
47152.722
47168.46
47196.078
47203.198
47214.196
47159.171
47148.08
46505.283
47050.193
47039.726
47038.9
47041.128
47041.943
47040.698
47040.937
47040.258
47040.148
47040.691
47039.499
47040.643
47039.546
47038.68
47035.817
47034.892
47033.26
47031.878
47029.862
47029.991
47028.154
47026.416
47023.859
47022.663
47022.139
47020.453
47019.991
47018.297
47015.527
47013.665
47015.315
47018.668
47023.15
47024.728
47025.934
47031.311
47040.175
47053.477
47062.876
47071.495
47090.28
47100.72
47102.786
47112.137
47108.514
47072.896
46991.047
47004.479
46258.288
47047.845
47039.934
47039.15
47041.57
47042.158
47040.933
47040.608
47040.682
47040.667
47040.043
47038.979
47040.125
47038.974
47037.5
47034.229
47033.333
47031.96
47030.199
47028.221
47027.836
47025.512
47023.144
47019.98
47019.179
47017.115
47014.922
47013.226
47010.972
47007.325
47004.492
47004.559
47006.566
47008.68
47008.088
47006.189
47009.794
47016.921
47026.13
47028.934
47028.139
47040.41
47043.466
47027.006
47009.79
46997.223
46969.481
46777.85
46840.591
46083.934
47046.673
47040.256
47039.787
47041.94
47042.201
47041.142
47040.813
47040.734
47040.748
47039.506
47038.937
47039.944
47038.661
47037.284
47033.141
47031.767
47030.685
47029.2
47027.42
47026.056
47023.264
47020.056
47016.908
47015.556
47011.999
47009.2
47006.765
47003.726
46998.737
46994.711
46994.074
46995.201
46993.533
46990.1
46987.84
46989.154
46991.717
46993.193
46986.807
46983.779
46988.314
46977.505
46959.228
46920.258
46883.86
46860.09
46539.474
46646.317
45976.153
47522.605
47454.616
47426.081
47328.594
47322.85
47284.13
47252.823
47225.47
47199.943
47176.427
47153.802
47131.357
47113.64
47098.464
47083.835
47072.627
47060.521
47053.317
47049.428
47044.76
47038.842
47033.397
47031.107
47029.089
47028.134
47027.287
47026.606
47027.047
47028.288
47029.469
47029.724
47030.476
47031.368
47032.245
47032.767
47033.916
47034.54
47035.273
47035.91
47036.36
47036.56
47036.724
47037.294
47038.834
47039.071
47040.466
47039.836
47040.552
47039.54
47253.368
47259.485
47238.116
47238.909
47219.731
47207.101
47189.787
47172.505
47154.385
47136.561
47119.573
47104.609
47090.125
47076.247
47064.251
47053.137
47046.456
47040.842
47035.597
47030.69
47026.378
47024.662
47024.654
47025.267
47024.973
47024.024
47023.589
47024.596
47026.109
47027.539
47028.26
47029.277
47030.483
47031.578
47032.238
47033.525
47034.247
47035.041
47035.75
47036.255
47036.539
47036.678
47037.3
47038.78
47039.117
47040.494
47039.94
47040.632
47039.618
47123.292
47127.253
47132.074
47128.041
47124.646
47119.22
47111.527
47103.503
47095.105
47086.194
47076.935
47067.905
47058.184
47049.987
47041.415
47034.756
47029.332
47023.854
47021.618
47019.784
47018.571
47018.516
47018.995
47020.985
47020.753
47020.122
47020.152
47021.934
47023.893
47025.708
47026.873
47028.127
47029.619
47030.931
47031.73
47033.162
47033.959
47034.799
47035.604
47036.154
47036.52
47036.659
47037.3
47038.746
47039.172
47040.529
47040.022
47040.725
47039.697
46977.971
47003.376
47004.916
47023.988
47028.785
47034.854
47038.395
47040.111
47039.226
47037.883
47034.414
47030.733
47027.322
47023.248
47018.476
47014.306
47011.032
47009.651
47009.157
47009.806
47010.199
47010.48
47011.786
47015.267
47016.002
47016.233
47017.174
47019.633
47021.87
47023.959
47025.54
47027.012
47028.749
47030.279
47031.218
47032.815
47033.68
47034.56
47035.473
47036.058
47036.502
47036.658
47037.31
47038.762
47039.219
47040.568
47040.101
47040.814
47039.778
46901.228
46908.603
46925.751
46935.773
46947.173
46957.747
46965.976
46975.096
46979.438
46983.97
46986.547
46989.206
46990.659
46991.509
46992.43
46993.098
46993.562
46993.69
46995.135
46998.446
47000.389
47002.108
47004.873
47009.454
47011.472
47012.609
47014.326
47017.224
47019.623
47022.107
47024.265
47025.942
47027.831
47029.61
47030.721
47032.477
47033.416
47034.322
47035.34
47035.973
47036.476
47036.664
47037.339
47038.771
47039.253
47040.616
47040.195
47040.916
47039.858
46802.38
46833.767
46843.548
46861.766
46875.607
46890.375
46902.201
46913.255
46922.667
46931.509
46939.14
46947.215
46954.201
46961.461
46966.278
46970.251
46974.505
46978.301
46981.897
46986.882
46991.04
46993.867
46997.922
47003.343
47006.501
47008.614
47011.324
47014.596
47017.335
47020.305
47023.021
47024.932
47026.899
47028.903
47030.233
47032.144
47033.156
47034.094
47035.21
47035.897
47036.437
47036.674
47037.381
47038.783
47039.333
47040.657
47040.304
47041.021
47039.944
46763.707
46739.997
46776.502
46794.069
46808.76
46827.133
46840.898
46857.728
46870.983
46883.61
46894.486
46906.834
46918.337
46929.684
46939.908
46948.675
46955.055
46961.581
46968.277
46975.168
46980.707
46984.979
46990.659
46997.061
47001.467
47004.74
47008.334
47011.915
47015.11
47018.621
47021.835
47023.946
47025.966
47028.17
47029.75
47031.817
47032.886
47033.876
47035.077
47035.82
47036.385
47036.689
47037.46
47038.785
47039.451
47040.699
47040.404
47041.125
47040.045
46655.012
46718.8
46705.208
46729.583
46742.491
46766.681
46783.899
46806.496
46824.55
46843.093
46858.423
46873.104
46886.125
46900.029
46912.752
46926.058
46936.662
46944.84
46953.246
46962.635
46970.68
46976.944
46983.899
46991.092
46996.792
47001.072
47005.24
47009.218
47012.988
47017.054
47020.711
47022.974
47025.06
47027.44
47029.262
47031.474
47032.605
47033.677
47034.938
47035.734
47036.324
47036.717
47037.528
47038.783
47039.539
47040.767
47040.491
47041.201
47040.152
46629.308
46609.28
46654.671
46676.523
46688.575
46718.675
46731.8
46757.862
46777.491
46799.911
46819.362
46838.49
46855.787
46873.544
46887.834
46902.364
46917.72
46930.361
46939.314
46949.872
46960.674
46969.889
46977.832
46985.231
46992.121
46997.515
47002.028
47006.612
47011.128
47015.613
47019.638
47022.033
47024.187
47026.724
47028.77
47031.121
47032.343
47033.511
47034.8
47035.634
47036.263
47036.747
47037.573
47038.806
47039.604
47040.824
47040.556
47041.228
47040.252
46488.648
46630.139
46605.382
46654.347
46643.459
46676.586
46690.063
46717.459
46734.872
46755.782
46777.073
46801.766
46824.666
46848.459
46867.414
46882.162
46898.064
46915.524
46927.9
46938.514
46950.307
46962.33
46972.374
46980.12
46987.472
46993.954
46998.911
47004.202
47009.51
47014.277
47018.562
47021.124
47023.387
47026.034
47028.288
47030.766
47032.116
47033.371
47034.667
47035.524
47036.204
47036.773
47037.597
47038.848
47039.667
47040.842
47040.593
47041.246
47040.353
46595.119
46431.568
46542.456
46593.301
46578.813
46624.552
46642.935
46679.415
46699.001
46723.461
46744.845
46771.035
46794.183
46819.447
46844.643
46866.484
46881.403
46898.652
46916.495
46930.455
46941.861
46954.249
46966.454
46975.797
46983.08
46990.175
46995.945
47002.012
47008.027
47013.01
47017.466
47020.198
47022.677
47025.398
47027.808
47030.412
47031.915
47033.242
47034.534
47035.403
47036.146
47036.794
47037.608
47038.902
47039.704
47040.837
47040.605
47041.226
47040.498
46372.278
46584.896
46393.46
46522.106
46516.978
46578.54
46593.457
46630.152
46657.541
46694.93
46722.785
46752.262
46774.549
46796.348
46818.18
46845.514
46868.281
46885.095
46903.356
46921.608
46936.141
46947.845
46959.393
46970.757
46979.082
46986.374
46993.152
47000.135
47006.554
47011.741
47016.398
47019.21
47022.024
47024.863
47027.349
47030.063
47031.714
47033.116
47034.383
47035.268
47036.082
47036.794
47037.621
47038.964
47039.751
47040.861
47040.599
47041.094
47040.676
46400.673
46594.621
46444.114
46486.951
46488.016
46545.557
46558.665
46594.841
46617.936
46653.594
46686.654
46725.724
46757.641
46785.407
46801.048
46821.574
46850.395
46875.471
46893.381
46910.898
46929.458
46943.815
46953.361
46964.59
46974.961
46983.051
46990.625
46998.508
47005.103
47010.449
47015.364
47018.219
47021.372
47024.424
47026.967
47029.708
47031.479
47032.996
47034.227
47035.135
47036.013
47036.8
47037.653
47039.016
47039.806
47040.884
47040.552
47040.914
47040.824
46346.072
46292.414
46390.962
46424.263
46436.539
46503.43
46532.632
46581.51
46599.239
46630.013
46654.484
46691.319
46725.812
46766.994
46794.99
46810.24
46832.606
46862.542
46886.584
46903.31
46920.575
46938.448
46949.974
46958.719
46970.189
46980.138
46988.542
46997.036
47003.72
47009.135
47014.321
47017.345
47020.7
47024
47026.662
47029.359
47031.202
47032.879
47034.094
47035.006
47035.96
47036.818
47037.707
47039.074
47039.866
47040.852
47040.474
47040.737
47040.911
46349.273
46375.916
46349.44
46414.574
46420.312
46474.119
46491.866
46540.154
46577.495
46623.769
46641.862
46672.53
46700.111
46735.289
46773.36
46809.095
46826.02
46849.99
46877.142
46898.836
46914.116
46930.817
46945.248
46955.337
46965.642
46977.157
46986.913
46995.719
47002.4
47007.902
47013.208
47016.599
47020.124
47023.504
47026.342
47029.057
47030.923
47032.752
47033.967
47034.876
47035.9
47036.877
47037.735
47039.115
47039.913
47040.755
47040.365
47040.53
47040.946
46125.584
46376.174
46224.419
46404.244
46385.124
46440.038
46463.415
46499.73
46530.189
46585.891
46627.495
46667.841
46689.113
46721.73
46752.856
46791.418
46823.08
46844.327
46867.227
46892.159
46910.975
46924.156
46939.051
46952.039
46963.038
46974.466
46985.399
46994.55
47001.167
47006.865
47012.031
47015.874
47019.7
47023.042
47025.924
47028.763
47030.702
47032.613
47033.811
47034.768
47035.841
47036.888
47037.69
47039.215
47039.949
47040.715
47040.244
47040.311
47040.918
46186.431
46299.873
46213.416
46390.274
46363.096
46418.637
46441.78
46490.831
46509.506
46556.406
46595.977
46643.568
46679.661
46716.201
46745.805
46778.757
46810.983
46840.523
46861.577
46884.147
46905.467
46921.334
46933.383
46948.081
46961.773
46972.904
46983.931
46993.325
47000.005
47005.991
47011.023
47015.006
47019.328
47022.81
47025.486
47028.394
47030.514
47032.487
47033.654
47034.672
47035.756
47036.87
47037.754
47039.307
47039.984
47040.753
47040.116
47040.12
47040.773
46189.638
46261.9
46241.033
46304.534
46323.679
46370.301
46396.746
46471.692
46504.786
46551.681
46580.808
46627.109
46658.922
46702.508
46740.356
46774.311
46803.417
46831.833
46857.285
46878.52
46899.312
46917.738
46931.116
46945.039
46959.586
46972.587
46982.829
46991.987
46998.853
47005.202
47010.321
47014.144
47018.788
47022.586
47025.292
47028.018
47030.264
47032.305
47033.531
47034.556
47035.67
47036.899
47037.838
47039.318
47039.994
47040.863
47039.99
47040.003
47040.558
46130.619
46261.208
46223.305
46257.492
46286.777
46354.324
46374.173
46432.796
46476.568
46541.945
46566.841
46623.595
46650.554
46693.307
46728.824
46766.903
46798.953
46825.949
46851.808
46875.521
46895.413
46914.824
46929.547
46943.519
46957.611
46971.539
46982.32
46990.917
46997.731
47004.416
47009.753
47013.656
47018.049
47022.133
47025.238
47027.903
47029.984
47032.061
47033.437
47034.444
47035.564
47036.882
47037.863
47039.402
47039.98
47040.979
47039.904
47040.01
47040.232
46075.175
46151.324
46160.741
46248.628
46268.896
46345.939
46370.585
46430.631
46458.057
46523.896
46555.285
46617.77
46647.925
46690.513
46725.331
46762.688
46793.15
46822.318
46847.848
46872.974
46894.488
46913.072
46928.306
46942.933
46956.367
46970.569
46981.731
46990.369
46996.836
47003.569
47009.243
47013.336
47017.64
47021.658
47024.844
47027.987
47029.829
47031.879
47033.297
47034.34
47035.45
47036.808
47037.881
47039.548
47039.929
47041.042
47039.859
47040.066
47039.893
46048.44
46145.27
46110.903
46211.747
46230.407
46318.087
46347.071
46441.297
46460.808
46524.42
46543.271
46608.362
46641.44
46688.461
46722.126
46760.903
46791.056
46819.066
46846.8
46872.102
46892.597
46912.118
46927.933
46942.949
46956.085
46969.531
46981.051
46989.91
46996.366
47002.682
47008.651
47013.075
47017.465
47021.356
47024.542
47027.694
47029.847
47031.839
47033.13
47034.251
47035.362
47036.749
47037.927
47039.642
47039.895
47041.106
47039.833
47040.224
47039.701
45979.42
46121.131
46089.949
46217.216
46214.782