/*--------------------------------*- C++ -*----------------------------------*\
| =========                 |                                                 |
| \\      /  F ield         | OpenFOAM: The Open Source CFD Toolbox           |
|  \\    /   O peration     | Version:  2506                                  |
|   \\  /    A nd           | Website:  www.openfoam.com                      |
|    \\/     M anipulation  |                                                 |
\*---------------------------------------------------------------------------*/
FoamFile
{
    version     2.0;
    format      ascii;
    arch        "LSB;label=32;scalar=64";
    class       volScalarField;
    location    "0.75";
    object      rho;
}
// * * * * * * * * * * * * * * * * * * * * * * * * * * * * * * * * * * * * * //

dimensions      [1 -3 0 0 0 0 0];

internalField   nonuniform List<scalar> 
1375
(
0.66632721
0.6664006
0.66647838
0.66657153
0.66667078
0.6667834
0.66690833
0.6670514
0.6672441
0.6674825
0.66773197
0.66798754
0.66828857
0.66865894
0.6690882
0.66955982
0.67010907
0.67082587
0.67174349
0.67282565
0.67408266
0.67559299
0.67756119
0.68037706
0.6844234
0.69094108
0.66730151
0.66586229
0.6653851
0.66550219
0.66564902
0.66570406
0.66572597
0.66574131
0.66577017
0.6658008
0.66582972
0.66585468
0.66588619
0.66591849
0.66593856
0.66596941
0.66600412
0.66602779
0.66605902
0.66610167
0.66615165
0.66619712
0.66625319
0.66632856
0.66639987
0.66647493
0.66657027
0.66667214
0.6667848
0.66690878
0.66705051
0.66724475
0.66748425
0.66773131
0.66798152
0.66827697
0.66864692
0.66908235
0.66956468
0.67012541
0.67084586
0.67175263
0.6728221
0.67407102
0.67558601
0.6775762
0.68041305
0.68444934
0.69093253
0.66726501
0.66585912
0.66538908
0.66551278
0.66564888
0.66570513
0.66574677
0.66575905
0.66577777
0.6658062
0.66583411
0.66585621
0.66588542
0.66591564
0.66593362
0.66596397
0.66599874
0.66602323
0.66605443
0.66609658
0.66614542
0.66619126
0.6662486
0.66632308
0.66639103
0.66646369
0.66655942
0.6666615
0.66677273
0.66689507
0.66703751
0.66723455
0.66747235
0.66771244
0.66795439
0.66824331
0.66861292
0.66905501
0.6695458
0.67011826
0.67084227
0.67173432
0.6727803
0.6740167
0.67552582
0.67752712
0.68035511
0.68432645
0.69068099
0.66720756
0.66586011
0.66539614
0.66552084
0.66566603
0.66574084
0.66576855
0.66577405
0.66578943
0.66581265
0.66583396
0.66585258
0.66588163
0.66590917
0.66592268
0.66595296
0.66599
0.66601547
0.66604526
0.66608524
0.6661317
0.66617756
0.66623513
0.6663063
0.66636942
0.66643976
0.66653421
0.66663314
0.66673986
0.66685867
0.66700297
0.66720065
0.66743056
0.6676573
0.66788775
0.66816998
0.66853898
0.66898245
0.66947281
0.67005091
0.67077073
0.6716298
0.67264833
0.67385984
0.67534171
0.67735532
0.68011452
0.68392705
0.69007652
0.66712781
0.66585373
0.6654174
0.66554623
0.66568309
0.66576208
0.66579065
0.66578536
0.66579416
0.66581298
0.66583009
0.66584722
0.6658761
0.6659016
0.6659132
0.66594378
0.66598065
0.66600323
0.66603116
0.66606929
0.66611234
0.66615749
0.66621365
0.66627998
0.66633807
0.66640667
0.66649865
0.66659184
0.6666916
0.66680679
0.66695425
0.6671488
0.66736485
0.66757405
0.66779308
0.66807019
0.66843785
0.66887496
0.66935973
0.66993574
0.67063531
0.67145466
0.6724478
0.67361099
0.67508855
0.67704249
0.67973683
0.68339324
0.68918694
0.6670294
0.66585017
0.6654521
0.66559282
0.66571016
0.6657635
0.66578243
0.66578543
0.66579573
0.66581444
0.66582868
0.6658429
0.66586727
0.66588833
0.66590003
0.66592946
0.66596273
0.66598076
0.66600854
0.66604497
0.66608454
0.66612939
0.6661833
0.66624473
0.66629842
0.66636564
0.66645401
0.6665401
0.66663227
0.66674594
0.66689646
0.66708326
0.66728141
0.66747119
0.66768125
0.66795564
0.66832002
0.66874442
0.6692225
0.6697916
0.67045585
0.6712474
0.67219592
0.67329402
0.67480249
0.67669002
0.67918867
0.68265892
0.68805427
0.66692502
0.66585269
0.66548965
0.6656263
0.66572612
0.6657731
0.66577216
0.66577797
0.66579474
0.66581592
0.66582637
0.66583338
0.66585296
0.66587001
0.66587939
0.6659072
0.66593805
0.66595372
0.66598312
0.66601625
0.66605247
0.66609561
0.66614594
0.666203
0.66625267
0.66631752
0.66640052
0.66647838
0.66656375
0.6666787
0.66682931
0.6670035
0.66718112
0.66735288
0.66755717
0.66783117
0.66818946
0.66859507
0.66906578
0.66962475
0.67024932
0.67100145
0.67190786
0.6730466
0.67438941
0.67619792
0.67872265
0.68182572
0.68667212
0.66686018
0.66585784
0.66551941
0.66565497
0.66573938
0.66575937
0.66576307
0.665772
0.66578968
0.66580913
0.66581427
0.66582059
0.66583973
0.66585118
0.66585948
0.66588777
0.66591584
0.66592885
0.66595876
0.66598747
0.66602291
0.66606372
0.66610926
0.66616048
0.66620424
0.66626464
0.66634061
0.66640918
0.66649001
0.6666072
0.6667519
0.66690953
0.66706486
0.66722234
0.66742402
0.66769922
0.66803959
0.66843018
0.66890147
0.66941828
0.67000675
0.67074151
0.67156973
0.67265036
0.67400063
0.67565921
0.67797142
0.68085295
0.6850847
0.66678369
0.66584902
0.66553801
0.66567665
0.6657543
0.66575872
0.66576525
0.66577046
0.66578372
0.66579866
0.66580107
0.66581273
0.66583142
0.6658343
0.66584152
0.66587094
0.66589495
0.66590631
0.66593457
0.66595968
0.66599555
0.66603158
0.66607124
0.66611677
0.66615427
0.66620847
0.66627626
0.66633548
0.66641562
0.66653321
0.66666455
0.66680284
0.66693545
0.6670826
0.66728323
0.66755435
0.6678729
0.66825291
0.66871277
0.66918235
0.66974576
0.6704319
0.67130723
0.67221839
0.67349752
0.67532691
0.67726389
0.67969418
0.68321214
0.66673026
0.6658237
0.66554105
0.66568329
0.66574914
0.66575829
0.66576545
0.66576987
0.66577931
0.66578855
0.66579351
0.66580743
0.66582108
0.66581581
0.66582333
0.66585349
0.66587033
0.66588145
0.66590354
0.66592677
0.66596329
0.66599585
0.66603078
0.66606995
0.66609918
0.66614781
0.66620777
0.66625919
0.66634127
0.66645351
0.66656649
0.66668431
0.66679633
0.66693628
0.6671369
0.66739608
0.66769086
0.66806927
0.66849509
0.66892211
0.66945699
0.67010739
0.67086756
0.67180216
0.67293321
0.67441015
0.67636281
0.67848956
0.68112891
0.66667107
0.66581176
0.66553929
0.66569026
0.66573536
0.66575262
0.66576059
0.66576603
0.66577488
0.66578148
0.66578612
0.66579627
0.66580247
0.66579226
0.66580277
0.66583134
0.66584425
0.66585707
0.66587221
0.66589576
0.66592848
0.66595679
0.66598835
0.66601898
0.66603822
0.66608392
0.66613783
0.66618492
0.66626799
0.66636602
0.66645811
0.66655527
0.66665214
0.66678828
0.66698536
0.66722743
0.66749793
0.66787866
0.66824089
0.6686455
0.66912305
0.66980215
0.67044832
0.67132598
0.67251649
0.67376589
0.6753514
0.6770586
0.67877726
0.6665868
0.66578102
0.66556738
0.66570838
0.66573351
0.66574481
0.66574899
0.6657569
0.66576659
0.66576927
0.66577919
0.66578596
0.66578555
0.66577658
0.66578977
0.66581597
0.66582598
0.66584015
0.66585025
0.6658708
0.66589441
0.66591671
0.66594954
0.6659715
0.66598003
0.66602311
0.66606738
0.66611185
0.6661921
0.66627027
0.66634248
0.66641918
0.66650627
0.66663897
0.66683149
0.66704462
0.6673009
0.66766123
0.66798486
0.66832537
0.66884314
0.66938719
0.67000168
0.6707028
0.67164965
0.6729736
0.67457996
0.67563668
0.67617961
0.66656841
0.66575242
0.66554503
0.66571362
0.6657434
0.66574075
0.66574026
0.66574654
0.6657536
0.66575923
0.66576763
0.66577361
0.66577147
0.66576959
0.66577956
0.66579531
0.66580936
0.66582638
0.66583104
0.66584977
0.66586698
0.66587914
0.66590906
0.66592178
0.6659243
0.66596568
0.66599698
0.66603886
0.66611014
0.66616694
0.66622216
0.66628109
0.66636224
0.66649206
0.66667603
0.66684804
0.66710676
0.66741519
0.66770055
0.66799695
0.66848783
0.66900186
0.66949782
0.67021542
0.67074983
0.67222282
0.67342484
0.67410817
0.67328697
0.66649684
0.6657556
0.6655934
0.66571662
0.66573583
0.66572531
0.66572686
0.66573703
0.66574226
0.66575482
0.66575661
0.66576204
0.66575245
0.66575753
0.66576646
0.66577615
0.66578848
0.66580215
0.66581074
0.66582125
0.66583365
0.66584238
0.66586779
0.66586544
0.66586663
0.66590539
0.665924
0.66596416
0.66602222
0.6660593
0.66610003
0.66614432
0.66622143
0.66635191
0.66650864
0.6666532
0.66689795
0.66717684
0.66737586
0.66774524
0.66810931
0.66856225
0.66898027
0.66959028
0.66989486
0.6711186
0.67216966
0.67257874
0.67015921
0.6664479
0.6657571
0.66564047
0.66572387
0.66573663
0.66572273
0.66572462
0.66573255
0.66574145
0.66575087
0.66575234
0.66575223
0.66574865
0.66575107
0.66575727
0.66576287
0.66577083
0.66577746
0.66578685
0.66579057
0.66579762
0.66581219
0.6658263
0.66581435
0.66581218
0.66584508
0.66585533
0.6658893
0.66592954
0.66595304
0.66597711
0.66601174
0.66608858
0.66621086
0.66633241
0.66645582
0.66668629
0.66692221
0.6670811
0.66733195
0.66776782
0.66797388
0.66844364
0.66877464
0.66923198
0.66966687
0.67042016
0.67090562
0.6668817
0.6663852
0.66575265
0.66568838
0.66574075
0.66574253
0.66572514
0.66572004
0.66573206
0.66574283
0.66574525
0.66575114
0.66574208
0.66574164
0.66574629
0.66575835
0.66575375
0.66576404
0.66576058
0.66576945
0.66576435
0.66577053
0.66578468
0.66578281
0.6657679
0.66576815
0.66578757
0.66579443
0.66581905
0.66583689
0.66585011
0.66585746
0.66588452
0.66596339
0.66606608
0.66614982
0.66624941
0.66647005
0.66663467
0.66680275
0.66707632
0.6673382
0.66763694
0.66786661
0.66829734
0.66843335
0.66870862
0.6688851
0.66924021
0.6637069
0.66633329
0.66572674
0.66571134
0.66574542
0.66574727
0.66572899
0.66571891
0.66573224
0.665743
0.66574844
0.66574659
0.66573484
0.66573178
0.66573299
0.66574511
0.66574485
0.66575313
0.66574756
0.66576117
0.66574181
0.66575363
0.66575951
0.66574195
0.66572152
0.66572499
0.6657294
0.66573822
0.66574616
0.66574893
0.66574708
0.66574212
0.66576584
0.66584099
0.66591447
0.66596178
0.66605701
0.66624093
0.66635742
0.66641398
0.66665433
0.66679623
0.66702192
0.66708599
0.66762832
0.66775364
0.66695035
0.66741606
0.66804371
0.66060824
0.66633263
0.66576233
0.66572436
0.66573938
0.66574263
0.66572082
0.66571821
0.66573175
0.66574362
0.66574819
0.66574646
0.66574089
0.66573109
0.6657296
0.66572884
0.66573091
0.66572786
0.66573276
0.66573627
0.6657212
0.66573102
0.66573244
0.66570386
0.66567861
0.66568036
0.66567327
0.66568405
0.6656691
0.66565918
0.6656492
0.66562901
0.6656561
0.66571378
0.66575231
0.66577334
0.66585566
0.66601035
0.66606164
0.66616981
0.66619917
0.66647776
0.66637506
0.66638629
0.66664472
0.66744321
0.66574821
0.66432825
0.66588911
0.65869823
0.66632163
0.66581908
0.66575536
0.66574061
0.66573837
0.66572213
0.66571635
0.66572724
0.66574785
0.66574428
0.66574227
0.66573729
0.66573521
0.66573436
0.66572834
0.6657241
0.66570632
0.66571745
0.66570906
0.66569841
0.6657065
0.66569725
0.66566394
0.66564424
0.66564063
0.66562296
0.66562802
0.66559815
0.66556679
0.66555001
0.66553243
0.66554954
0.66557606
0.66558096
0.66558002
0.66564541
0.66574778
0.66576596
0.66576403
0.66592483
0.66586884
0.66584817
0.66612909
0.6661881
0.66575948
0.66507389
0.66348978
0.66443615
0.65608865
0.66628682
0.66584559
0.66577261
0.66575167
0.66573475
0.66572035
0.6657205
0.66572868
0.66574316
0.66574222
0.66573966
0.66572926
0.66572414
0.66572963
0.66573168
0.66571974
0.66570331
0.66571043
0.66569805
0.66567847
0.66568243
0.6656677
0.66562645
0.66560603
0.66559913
0.66557963
0.66557014
0.66552309
0.66548067
0.66543633
0.66543543
0.66544893
0.66542313
0.66540713
0.66538384
0.66542383
0.66543645
0.66540339
0.66535937
0.66527875
0.66516514
0.66501939
0.66466271
0.66491625
0.66400016
0.66364248
0.66236795
0.66364242
0.65700296
0.65415566
0.66230864
0.65870425
0.66190154
0.66225764
0.66363233
0.66414955
0.66449611
0.6649193
0.66489167
0.66517029
0.66507349
0.66518938
0.66521409
0.66519264
0.66522977
0.66527567
0.66533735
0.66533738
0.66534503
0.66540509
0.66545257
0.66551159
0.66553569
0.66555559
0.66557076
0.66559676
0.66564409
0.66566675
0.66567003
0.66568578
0.66570636
0.6657052
0.6657135
0.6657236
0.66572031
0.66571434
0.66572399
0.66573906
0.66574389
0.66573806
0.66572939
0.66572119
0.66572114
0.66573499
0.66576243
0.66578143
0.66587252
0.66617785
0.65159843
0.66021822
0.6564844
0.6616223
0.66271133
0.66332281
0.66447727
0.66432725
0.66447795
0.66464801
0.66466184
0.66476473
0.66488587
0.66497368
0.66500087
0.66505583
0.66512226
0.66521313
0.66525409
0.66525798
0.66531649
0.66537557
0.6654458
0.66548706
0.66551291
0.66553711
0.66556751
0.66561535
0.66564849
0.66565703
0.66566504
0.66569913
0.6657011
0.66570007
0.66570067
0.66571399
0.6657232
0.66572488
0.66573423
0.66573954
0.66573479
0.66573194
0.66572046
0.66571591
0.66573128
0.6657623
0.66578321
0.66587871
0.66600903
0.65130557
0.65973224
0.65626763
0.66146305
0.662372
0.66269797
0.66317422
0.66358491
0.66351299
0.66408492
0.66422598
0.66439836
0.6645849
0.66471941
0.66480456
0.66487618
0.66496646
0.66508163
0.66514969
0.66516025
0.66522458
0.66529618
0.66537379
0.66543396
0.66547393
0.66550464
0.66553289
0.6655871
0.66562516
0.66564299
0.66565835
0.66568275
0.66568478
0.66569407
0.66570135
0.66571404
0.66572234
0.66572229
0.66572678
0.66573564
0.66573855
0.66573309
0.66572089
0.66571166
0.66572409
0.66575714
0.66578097
0.66586809
0.66593738
0.65242223
0.65923096
0.65568827
0.66029923
0.66130025
0.66183654
0.66224789
0.66243802
0.66309399
0.66359749
0.66391786
0.6641298
0.66432568
0.66450704
0.66461163
0.66469321
0.66479815
0.66494165
0.66504796
0.66507872
0.6651383
0.665223
0.66530946
0.66538014
0.66543136
0.66546995
0.66550001
0.66556145
0.66560729
0.66563489
0.66563391
0.66566422
0.66568206
0.66569169
0.66570686
0.66571847
0.66571792
0.66571621
0.66572236
0.66573735
0.66573659
0.66572929
0.66572375
0.66571203
0.6657184
0.66575159
0.66576899
0.66584037
0.66595037
0.65259066
0.65835484
0.65685203
0.6594604
0.65881114
0.66098396
0.66145146
0.66211113
0.6630869
0.66323833
0.66364898
0.66388461
0.66399761
0.66424887
0.66439886
0.66451264
0.66463634
0.66479191
0.66493902
0.66499133
0.66504424
0.66513847
0.66523405
0.66532025
0.66538706
0.6654367
0.66547201
0.66553237
0.6655869
0.66562083
0.66562315
0.66565858
0.66566617
0.66568288
0.66570116
0.66572139
0.66571531
0.6657129
0.66572049
0.66573325
0.66573267
0.66573078
0.66572444
0.66571486
0.66571852
0.66574536
0.66574871
0.66582554
0.66595569
0.65179001
0.65728105
0.6567765
0.65970145
0.65803362
0.6610298
0.66127343
0.66195236
0.66219473
0.66292224
0.66329973
0.66351121
0.66376465
0.66395091
0.66418004
0.66433753
0.66448289
0.66463643
0.66479602
0.66489423
0.66496639
0.66506076
0.66517646
0.6652707
0.66534989
0.66541683
0.66544451
0.66549855
0.66555147
0.66560032
0.66563719
0.66563654
0.66566367
0.66567717
0.66569117
0.66570624
0.66571196
0.66572775
0.66572657
0.6657307
0.66572915
0.66573154
0.66572669
0.66572048
0.66571802
0.66573554
0.66573236
0.66578383
0.66594035
0.65792404
0.66069711
0.66096363
0.66169948
0.66150296
0.66222845
0.66285139
0.66321123
0.66352947
0.66377981
0.66397469
0.66418253
0.66433149
0.66449979
0.66468953
0.66481365
0.66490718
0.66501017
0.66512743
0.6652334
0.66530836
0.665374
0.6654187
0.66547807
0.66552341
0.66558249
0.66561237
0.66561724
0.6656775
0.66568341
0.66569814
0.6657005
0.66571305
0.66572416
0.66572999
0.6657324
0.6657305
0.66573124
0.66572957
0.66572987
0.66572014
0.66572533
0.66571654
0.66576571
0.66593757
0.66310266
0.66344869
0.66370728
0.66400697
0.6642083
0.66436917
0.66456702
0.66471483
0.66482912
0.66495124
0.66505899
0.66516401
0.66525293
0.66533059
0.6653955
0.66546249
0.66552588
0.66557016
0.66558802
0.66562744
0.66567427
0.66568744
0.66570523
0.66570639
0.66571737
0.66571765
0.66572989
0.66573485
0.66573341
0.66573415
0.66573299
0.66573224
0.66572095
0.66572244
0.6657059
0.66574915
0.66592554
0.66502526
0.66513374
0.66522037
0.66531401
0.66537212
0.66544603
0.66549244
0.66555156
0.66564286
0.6656373
0.66565294
0.66567796
0.66570077
0.66571341
0.66572065
0.66571842
0.6657288
0.66573945
0.66574031
0.66573886
0.66573506
0.66573002
0.6657188
0.66571713
0.66569803
0.66574543
0.66591118
0.66569882
0.66571808
0.66572342
0.66572492
0.66573268
0.66574214
0.66574475
0.66574276
0.66573879
0.66572978
0.66571178
0.66571009
0.66569819
0.66574117
0.66589839
)
;

boundaryField
{
    Side
    {
        type            empty;
    }
    Inlet
    {
        type            calculated;
        value           nonuniform List<scalar> 
29
(
0.6657772
0.66578152
0.66578787
0.66579533
0.66580286
0.66580983
0.66581649
0.66582228
0.66582727
0.66583049
0.665833
0.66583524
0.66583559
0.66583432
0.6658296
0.66582981
0.66583379
0.66583575
0.66582876
0.66581113
0.66576057
0.66571978
0.66572003
0.66572341
0.66572729
0.66572641
0.66572269
0.6657183
0.66571772
)
;
    }
    Airfoil
    {
        type            calculated;
        value           nonuniform List<scalar> 
26
(
0.69094108
0.69093253
0.69068099
0.69007652
0.68918694
0.68805427
0.68667212
0.6850847
0.68321214
0.68112891
0.67877726
0.67617961
0.67328697
0.67015921
0.6668817
0.6637069
0.66060824
0.65869823
0.65608865
0.65700296
0.65415566
0.65159843
0.65130557
0.65242223
0.65259066
0.65179001
)
;
    }
    Outlet
    {
        type            calculated;
        value           nonuniform List<scalar> 0();
    }
    procBoundary0to1
    {
        type            processor;
        value           nonuniform List<scalar> 
53
(
0.65135417
0.6573032
0.65492002
0.65945738
0.65945738
0.65738498
0.65950492
0.66002381
0.66151275
0.66179477
0.66193668
0.66247437
0.66287692
0.66287692
0.66312621
0.66318016
0.66355618
0.66384811
0.664102
0.66425771
0.66443131
0.66463165
0.66475596
0.66487282
0.66487282
0.66497278
0.66511655
0.66520418
0.66527839
0.66534748
0.66542119
0.66549262
0.66553854
0.66559691
0.66562667
0.66565496
0.66567426
0.66567426
0.66570046
0.66571476
0.66572542
0.66573123
0.66573821
0.66574321
0.66574625
0.66574545
0.66574075
0.66573357
0.66571143
0.66570526
0.66569608
0.66574466
0.66590094
)
;
    }
    procBoundary0to7
    {
        type            processor;
        value           nonuniform List<scalar> 
50
(
0.6663245
0.66639998
0.66648143
0.66657138
0.66666717
0.66677989
0.6669069
0.66705377
0.66724663
0.66748297
0.66773229
0.66799226
0.66829893
0.66867079
0.66909715
0.66955994
0.67009954
0.67081586
0.67174249
0.67283511
0.67409928
0.67560989
0.67756382
0.68036155
0.68439593
0.69087814
0.66731634
0.66586896
0.66538363
0.66549384
0.66564407
0.66570229
0.66571822
0.66573122
0.66576382
0.66579884
0.66583073
0.66585547
0.66588602
0.66591695
0.66593504
0.66596489
0.66600129
0.66602667
0.66605886
0.66610111
0.66615126
0.66619715
0.6662527
0.6662527
)
;
    }
}


// ************************************************************************* //
