/*--------------------------------*- C++ -*----------------------------------*\
| =========                 |                                                 |
| \\      /  F ield         | OpenFOAM: The Open Source CFD Toolbox           |
|  \\    /   O peration     | Version:  2506                                  |
|   \\  /    A nd           | Website:  www.openfoam.com                      |
|    \\/     M anipulation  |                                                 |
\*---------------------------------------------------------------------------*/
FoamFile
{
    version     2.0;
    format      ascii;
    arch        "LSB;label=32;scalar=64";
    class       volScalarField;
    location    "8e-05";
    object      nut;
}
// * * * * * * * * * * * * * * * * * * * * * * * * * * * * * * * * * * * * * //

dimensions      [0 2 -1 0 0 0 0];

internalField   nonuniform List<scalar> 
13761
(
2.2114062e-09
2.2084405e-09
2.2080142e-09
2.2080577e-09
2.2088519e-09
2.2110007e-09
2.2125046e-09
2.2157576e-09
2.2079439e-09
2.2088318e-09
2.2104998e-09
2.2135397e-09
2.2160182e-09
2.2137166e-09
2.2137928e-09
2.2075741e-09
2.2087694e-09
2.2085486e-09
2.212581e-09
2.2163589e-09
2.2143727e-09
2.2155164e-09
2.2136304e-09
2.2087371e-09
2.2060726e-09
2.2071556e-09
2.2099599e-09
2.212515e-09
2.2149121e-09
2.2154587e-09
2.2158225e-09
2.215401e-09
2.2096527e-09
2.200991e-09
2.1716253e-09
2.2061992e-09
2.2073653e-09
2.2099576e-09
2.2111556e-09
2.2141386e-09
2.2162107e-09
2.2160686e-09
2.2147975e-09
2.210948e-09
2.2023704e-09
2.1726265e-09
2.1245666e-09
2.0828923e-09
2.2073762e-09
2.21011e-09
2.2089452e-09
2.2108448e-09
2.2168533e-09
2.2147613e-09
2.2182071e-09
2.2161719e-09
2.2106541e-09
2.202366e-09
2.1739029e-09
2.1264663e-09
2.083878e-09
2.0649442e-09
2.066972e-09
2.2087491e-09
2.2084052e-09
2.2091253e-09
2.2140708e-09
2.2148472e-09
2.2173597e-09
2.2148069e-09
2.2129775e-09
2.2150649e-09
2.2027664e-09
2.1747455e-09
2.1267411e-09
2.0850869e-09
2.0658644e-09
2.0689237e-09
2.0971907e-09
2.1397074e-09
2.1807389e-09
2.2074534e-09
2.2080552e-09
2.2113403e-09
2.2127026e-09
2.2135491e-09
2.2158681e-09
2.2159528e-09
2.2125545e-09
2.2120593e-09
2.2003235e-09
2.1721729e-09
2.1273787e-09
2.0841798e-09
2.0648476e-09
2.0677074e-09
2.0967053e-09
2.1402402e-09
2.1812329e-09
2.3733206e-09
3.7956811e-09
2.2074898e-09
2.2081361e-09
2.2093965e-09
2.2125855e-09
2.2142394e-09
2.2157184e-09
2.2145061e-09
2.2141743e-09
2.2107803e-09
2.2015407e-09
2.1702345e-09
2.1238295e-09
2.0870238e-09
2.0650895e-09
2.0673374e-09
2.0964792e-09
2.1387319e-09
2.1805382e-09
2.3697198e-09
3.7424208e-09
1.1502737e-08
2.3809139e-08
2.2074098e-09
2.2079691e-09
2.2086816e-09
2.2123098e-09
2.2162083e-09
2.2160358e-09
2.2141524e-09
2.2137001e-09
2.2117727e-09
2.2038244e-09
2.1715606e-09
2.1238057e-09
2.0840933e-09
2.0692e-09
2.0656542e-09
2.0963825e-09
2.1379548e-09
2.1785002e-09
2.3445084e-09
3.5615914e-09
1.1223664e-08
2.3706382e-08
2.454394e-08
1.9074798e-08
2.2082144e-09
2.2082363e-09
2.2096637e-09
2.2134135e-09
2.2148814e-09
2.2143703e-09
2.2139185e-09
2.2142298e-09
2.2133178e-09
2.2013395e-09
2.1727181e-09
2.1240239e-09
2.0826609e-09
2.0667859e-09
2.0656654e-09
2.0963994e-09
2.1387176e-09
2.176267e-09
2.3303643e-09
3.4416274e-09
1.0313932e-08
2.3126572e-08
2.5125657e-08
2.1145118e-08
4.8866068e-08
2.0919515e-06
2.2074639e-09
2.2072836e-09
2.2104791e-09
2.2123877e-09
2.2159088e-09
2.2135503e-09
2.215347e-09
2.2147459e-09
2.2123965e-09
2.2017643e-09
2.1738886e-09
2.1260107e-09
2.0843883e-09
2.0652549e-09
2.0652348e-09
2.0961328e-09
2.1388954e-09
2.1739941e-09
2.3138338e-09
3.3118317e-09
9.5849238e-09
2.2346364e-08
2.5218186e-08
2.181562e-08
4.652101e-08
1.8436675e-06
3.0659316e-05
0.00011516018
0.00025970513
2.2068983e-09
2.2077227e-09
2.2089117e-09
2.2117824e-09
2.2145386e-09
2.2144835e-09
2.214713e-09
2.2137445e-09
2.2124474e-09
2.2037047e-09
2.1731319e-09
2.1263899e-09
2.0832905e-09
2.0662319e-09
2.0673561e-09
2.0967661e-09
2.1383402e-09
2.1718762e-09
2.2985957e-09
3.1888046e-09
8.8059091e-09
2.1414418e-08
2.5246252e-08
2.3034431e-08
4.3018501e-08
1.5861953e-06
2.8388487e-05
0.00011134022
0.00025267342
0.00046367487
0.0022192801
2.2076396e-09
2.2086321e-09
2.2091169e-09
2.2118936e-09
2.2140174e-09
2.2154749e-09
2.2146593e-09
2.2126462e-09
2.2117613e-09
2.2017655e-09
2.1750708e-09
2.1265139e-09
2.0831528e-09
2.0667501e-09
2.0655726e-09
2.0964065e-09
2.1376861e-09
2.1699273e-09
2.2838802e-09
3.0713339e-09
8.0409809e-09
2.0347825e-08
2.512184e-08
2.4221685e-08
4.0244222e-08
1.3438853e-06
2.590365e-05
0.00010734746
0.00024527482
0.00045241137
0.0021618415
0.14290737
2.1418365
4.1087131
2.2070101e-09
2.2078987e-09
2.2091531e-09
2.2126306e-09
2.2148332e-09
2.2138991e-09
2.2150004e-09
2.2150203e-09
2.2126322e-09
2.2020009e-09
2.1755487e-09
2.1287229e-09
2.0819126e-09
2.0665075e-09
2.0659166e-09
2.0955366e-09
2.1368733e-09
2.1679613e-09
2.2703076e-09
2.9596449e-09
7.287752e-09
1.9093039e-08
2.4820769e-08
2.5418636e-08
3.7822662e-08
1.1181222e-06
2.3367839e-05
0.00010316059
0.0002374172
0.0004398239
0.0020808501
0.13564309
2.0447437
3.8955437
5.5691793
0.11676041
0.0018157596
2.206616e-09
2.2076246e-09
2.208915e-09
2.2118749e-09
2.2141703e-09
2.2142848e-09
2.2139343e-09
2.2135394e-09
2.2118734e-09
2.2012706e-09
2.1774901e-09
2.1303721e-09
2.0833358e-09
2.0680823e-09
2.0662079e-09
2.0946361e-09
2.136009e-09
2.1661347e-09
2.2575823e-09
2.8552292e-09
6.5508792e-09
1.7594808e-08
2.4247346e-08
2.6318126e-08
3.5815985e-08
9.1231734e-07
2.0798775e-05
9.8777081e-05
0.0002290573
0.00042603605
0.0019766995
0.12811305
1.9434738
3.6776128
5.20375
0.11936409
0.0019268895
2.2071662e-09
2.2079329e-09
2.2089822e-09
2.2121038e-09
2.2140818e-09
2.2142143e-09
2.2145638e-09
2.2130015e-09
2.2112294e-09
2.2013853e-09
2.178443e-09
2.1314559e-09
2.0842022e-09
2.0663045e-09
2.0659316e-09
2.0936601e-09
2.135137e-09
2.1644454e-09
2.2458938e-09
2.7587745e-09
5.8559786e-09
1.5861168e-08
2.3473951e-08
2.6636073e-08
3.4194843e-08
7.2928513e-07
1.8240317e-05
9.4174043e-05
0.0002201821
0.00041114192
0.0018513871
0.12034921
1.8386513
3.4564411
4.8392068
0.12095138
0.0020272159
2.2068691e-09
2.2077634e-09
2.2091192e-09
2.2121323e-09
2.2141609e-09
2.2142508e-09
2.2148833e-09
2.2131364e-09
2.2120594e-09
2.2015862e-09
2.1791981e-09
2.1321602e-09
2.0852197e-09
2.065419e-09
2.0658248e-09
2.0926353e-09
2.1341774e-09
2.1628543e-09
2.2351961e-09
2.671244e-09
5.2073717e-09
1.3984569e-08
2.2518533e-08
2.6671119e-08
3.2877257e-08
5.7113056e-07
1.573811e-05
8.9288398e-05
0.00021078392
0.00039523699
0.0017083334
0.11238295
1.7309723
3.233582
4.4787536
0.12153527
0.0021153147
2.2066207e-09
2.2078481e-09
2.2090172e-09
2.2121127e-09
2.2137595e-09
2.2145588e-09
2.2139818e-09
2.2131878e-09
2.2113599e-09
2.2030539e-09
2.1797433e-09
2.1329062e-09
2.0864977e-09
2.0652889e-09
2.0653988e-09
2.0915765e-09
2.1331911e-09
2.161312e-09
2.2257067e-09
2.5929342e-09
4.6170719e-09
1.2120433e-08
2.1239864e-08
2.6350452e-08
3.1766141e-08
4.3898302e-07
1.3338972e-05
8.4018777e-05
0.00020085363
0.00037842385
0.0015525326
0.10424641
1.6212136
3.0106423
4.1253742
0.12110993
0.0021895727
2.2068196e-09
2.207887e-09
2.2090436e-09
2.2120749e-09
2.2140523e-09
2.2142942e-09
2.2140921e-09
2.2135407e-09
2.2111135e-09
2.2022946e-09
2.1802502e-09
2.1337377e-09
2.0871857e-09
2.0653227e-09
2.0649581e-09
2.0904084e-09
2.1321363e-09
2.1598758e-09
2.2172141e-09
2.5250579e-09
4.110661e-09
1.0401005e-08
1.9493394e-08
2.5176952e-08
3.0797052e-08
3.3220325e-07
1.1081381e-05
7.8232677e-05
0.0001903875
0.00036078894
0.0013903363
0.095970947
1.5102016
2.7892146
3.781702
0.11967784
0.0022485218
2.2067688e-09
2.2078232e-09
2.2089058e-09
2.2119667e-09
2.2139604e-09
2.2144187e-09
2.2139937e-09
2.2132544e-09
2.2116468e-09
2.2022995e-09
2.180821e-09
2.1345993e-09
2.0876706e-09
2.0658394e-09
2.0645019e-09
2.0891991e-09
2.1310582e-09
2.1585087e-09
2.2098361e-09
2.4669198e-09
3.6889183e-09
8.8671463e-09
1.7348837e-08
2.3324246e-08
2.9844224e-08
2.4846117e-07
8.9922015e-06
7.1801031e-05
0.00017939755
0.00034238052
0.0012286146
0.087582086
1.3987514
2.5707694
3.4498878
0.11725662
0.0022909214
2.2066579e-09
2.2077019e-09
2.2087571e-09
2.2117971e-09
2.2139463e-09
2.2143755e-09
2.2140761e-09
2.213276e-09
2.2111995e-09
2.2021039e-09
2.18138e-09
2.1355251e-09
2.0882154e-09
2.0657744e-09
2.0640328e-09
2.0878804e-09
2.1298512e-09
2.1572152e-09
2.2033577e-09
2.4181498e-09
3.3443037e-09
7.5094371e-09
1.5034161e-08
2.1404195e-08
2.8570257e-08
1.8450579e-07
7.089938e-06
6.4664129e-05
0.00016791684
0.00032321446
0.0010736937
0.079100374
1.2876934
2.3567241
3.1317478
0.11386572
0.0023151979
2.2065243e-09
2.2075791e-09
2.208605e-09
2.2116135e-09
2.2138015e-09
2.2142417e-09
2.2140028e-09
2.2131055e-09
2.2111975e-09
2.2028166e-09
2.1819975e-09
2.1365214e-09
2.0888116e-09
2.0658766e-09
2.0635311e-09
2.0865104e-09
2.1285882e-09
2.156017e-09
2.1978211e-09
2.3778326e-09
3.0682538e-09
6.328068e-09
1.2815113e-08
1.9427261e-08
2.6486426e-08
1.3647508e-07
5.3934105e-06
5.6914595e-05
0.00015598301
0.00030328193
0.00093021281
0.070541523
1.1778578
2.1484254
2.8287621
0.10952963
0.0023230234
2.2064413e-09
2.2074418e-09
2.2084534e-09
2.2114176e-09
2.2136528e-09
2.2140944e-09
2.2138453e-09
2.2129336e-09
2.2111406e-09
2.2029428e-09
2.1826596e-09
2.1375944e-09
2.0894886e-09
2.0657664e-09
2.0630319e-09
2.085044e-09
2.12717e-09
2.1548953e-09
2.1930748e-09
2.3444286e-09
2.8514077e-09
5.349135e-09
1.0848423e-08
1.7345075e-08
2.3551484e-08
1.0054594e-07
3.925915e-06
4.8787987e-05
0.00014360966
0.00028255582
0.00080044188
0.061913063
1.0700205
1.9470597
2.5419963
0.10427697
0.0023160973
2.2063175e-09
2.2072981e-09
2.2082975e-09
2.211205e-09
2.2134878e-09
2.2139334e-09
2.2136828e-09
2.2127528e-09
2.2110731e-09
2.2027577e-09
2.183294e-09
2.1387445e-09
2.090245e-09
2.0659771e-09
2.0625214e-09
2.0834914e-09
2.1256634e-09
2.153812e-09
2.1890864e-09
2.3170803e-09
2.6808656e-09
4.5739844e-09
9.1158687e-09
1.5192068e-08
2.0434159e-08
7.3469533e-08
2.7112413e-06
4.0570826e-05
0.00013076008
0.00026101135
0.00068466518
0.053214786
0.96490431
1.7536777
2.2721866
0.098137884
0.0022922435
2.2061607e-09
2.2071459e-09
2.2081278e-09
2.2109881e-09
2.2133166e-09
2.2137633e-09
2.2135123e-09
2.2125707e-09
2.210925e-09
2.2035714e-09
2.1840131e-09
2.1399774e-09
2.0910742e-09
2.0658219e-09
2.0620007e-09
2.0818476e-09
2.1239965e-09
2.1527778e-09
2.1857642e-09
2.2953727e-09
2.5457112e-09
3.9596971e-09
7.5802737e-09
1.3077576e-08
1.7466692e-08
5.3060628e-08
1.7605453e-06
3.2495201e-05
0.00011730797
0.00023864375
0.00058215699
0.044440256
0.86315206
1.5691583
2.0197386
0.091144907
0.0022530845
2.2060472e-09
2.2069849e-09
2.2079577e-09
2.2107497e-09
2.2131349e-09
2.2135905e-09
2.2133363e-09
2.2123687e-09
2.210756e-09
2.203288e-09
2.1847519e-09
2.1412948e-09
2.0920074e-09
2.0660405e-09
2.0614779e-09
2.0801279e-09
2.1222143e-09
2.1517794e-09
2.1830944e-09
2.2788866e-09
2.4409781e-09
3.469375e-09
6.2752963e-09
1.1068829e-08
1.4659709e-08
3.8058736e-08
1.0729672e-06
2.4705096e-05
0.00010300951
0.00021548567
0.00049215312
0.035579605
0.76530135
1.3941833
1.7847485
0.083331413
0.0022002899
2.2059117e-09
2.2068106e-09
2.2077811e-09
2.2104935e-09
2.2129314e-09
2.2134089e-09
2.2131463e-09
2.2121633e-09
2.2105646e-09
2.2033447e-09
2.1855085e-09
2.1427078e-09
2.09304e-09
2.0656294e-09
2.0609538e-09
2.0783054e-09
2.1202931e-09
2.1507609e-09
2.1810105e-09
2.2676845e-09
2.3636885e-09
3.0922602e-09
5.2310934e-09
9.2145871e-09
1.2057094e-08
2.7340015e-08
6.1749759e-07
1.7439642e-05
8.7554805e-05
0.00019161739
0.00041424026
0.026636664
0.67178046
1.2292462
1.567058
0.074733351
0.0021357322
2.2057337e-09
2.2066297e-09
2.2076005e-09
2.2102263e-09
2.2127175e-09
2.2132101e-09
2.2129488e-09
2.2119466e-09
2.2103597e-09
2.2036332e-09
2.1862989e-09
2.1442199e-09
2.0941967e-09
2.0657288e-09
2.0604225e-09
2.07639e-09
2.1182139e-09
2.1497258e-09
2.1795134e-09
2.2622527e-09
2.3119478e-09
2.807503e-09
4.4186515e-09
7.5673336e-09
9.7325834e-09
1.9643823e-08
3.3473826e-07
1.1279742e-05
7.0844952e-05
0.00016713707
0.00034783487
0.017696968
0.5828847
1.0746293
1.3662661
0.065392643
0.0020611318
2.2055999e-09
2.2064264e-09
2.2074067e-09
2.2099453e-09
2.2124878e-09
2.2129969e-09
2.2127372e-09
2.2117179e-09
2.2101326e-09
2.2036038e-09
2.1871142e-09
2.1458333e-09
2.095494e-09
2.0656634e-09
2.0598911e-09
2.074403e-09
2.1159746e-09
2.1486231e-09
2.1789251e-09
2.2602596e-09
2.2773276e-09
2.6039276e-09
3.807083e-09
6.1506553e-09
7.7205114e-09
1.4033591e-08
1.7111613e-07
6.5722028e-06
5.3535515e-05
0.00014211387
0.00029131104
0.0093561189
0.49877479
0.93041759
1.1817776
0.05536455
0.0019784655
2.2054087e-09
2.2062088e-09
2.2072065e-09
2.2096469e-09
2.2122338e-09
2.2127757e-09
2.2125172e-09
2.2114807e-09
2.2098757e-09
2.203588e-09
2.1879301e-09
2.1475668e-09
2.0969342e-09
2.0660783e-09
2.0593765e-09
2.0723521e-09
2.1135591e-09
2.1474332e-09
2.1787098e-09
2.2602421e-09
2.2551393e-09
2.4710879e-09
3.3736638e-09
4.9811774e-09
6.0501828e-09
9.9709901e-09
8.296143e-08
3.329257e-06
3.7125198e-05
0.00011663078
0.00024221446
0.0038214585
0.41949939
0.79651042
1.0128464
0.044741322
0.0018894098
2.205273e-09
2.2059784e-09
2.2069878e-09
2.2093359e-09
2.2119638e-09
2.2125356e-09
2.2122851e-09
2.2112306e-09
2.2095984e-09
2.2035492e-09
2.1887652e-09
2.1494119e-09
2.0985359e-09
2.0663681e-09
2.0588623e-09
2.0702413e-09
2.1109777e-09
2.1461048e-09
2.1780117e-09
2.2671704e-09
2.2477423e-09
2.3940697e-09
3.0893365e-09
4.0755809e-09
4.7457177e-09
7.1278509e-09
3.9073082e-08
1.4460759e-06
2.3190899e-05
9.1012197e-05
0.00019825424
0.0017634878
0.34498683
0.67261654
0.8585996
0.033716792
0.0017939516
2.2050839e-09
2.2057341e-09
2.2067504e-09
2.2090178e-09
2.2116669e-09
2.2122787e-09
2.2120335e-09
2.2109733e-09
2.2092874e-09
2.2034486e-09
2.1896084e-09
2.1513785e-09
2.1003222e-09
2.0666899e-09
2.0583602e-09
2.0681072e-09
2.1082464e-09
2.1444458e-09
2.1772982e-09
2.2796856e-09
2.2492313e-09
2.3535264e-09
2.9174953e-09
3.4140759e-09
3.7989111e-09
5.245598e-09
1.9052777e-08
5.4245735e-07
1.2738167e-05
6.6104392e-05
0.00015787799
0.00098209403
0.27496578
0.55825162
0.7180491
0.022790792
0.0016934582
2.2048771e-09
2.2054703e-09
2.2064944e-09
2.2086946e-09
2.2113513e-09
2.2120019e-09
2.2117704e-09
2.210707e-09
2.2089439e-09
2.2033169e-09
2.1904516e-09
2.1534699e-09
2.1023083e-09
2.0671273e-09
2.0578744e-09
2.0659693e-09
2.1053316e-09
2.1420731e-09
2.1765014e-09
2.293907e-09
2.2613761e-09
2.3308785e-09
2.7878412e-09
2.945353e-09
3.1513302e-09
4.0532566e-09
1.0214476e-08
1.7995212e-07
5.9820791e-06
4.3352429e-05
0.00012151516
0.00055976262
0.20886685
0.45272136
0.59008307
0.013218055
0.0015893082
2.2047228e-09
2.2051902e-09
2.2062182e-09
2.2083643e-09
2.2110099e-09
2.2117035e-09
2.2114824e-09
2.2104335e-09
2.2085704e-09
2.2031513e-09
2.1912889e-09
2.1556815e-09
2.1045192e-09
2.067695e-09
2.0574101e-09
2.0638488e-09
2.1021534e-09
2.1384673e-09
2.1754225e-09
2.3044501e-09
2.2860971e-09
2.3249424e-09
2.6613105e-09
2.6171461e-09
2.7202081e-09
3.3153392e-09
6.1801448e-09
5.7551245e-08
2.2941991e-06
2.4754305e-05
8.9499698e-05
0.00031842724
0.14553289
0.35507623
0.47345056
0.0067640948
0.0014808674
2.2045193e-09
2.2048882e-09
2.2059228e-09
2.2080265e-09
2.2106439e-09
2.2113875e-09
2.2111662e-09
2.2101587e-09
2.2081682e-09
2.202946e-09
2.1920911e-09
2.1580198e-09
2.1069872e-09
2.0684353e-09
2.0569462e-09
2.0617863e-09
2.098712e-09
2.1342465e-09
2.1729492e-09
2.308848e-09
2.3267424e-09
2.3314883e-09
2.5564347e-09
2.4013831e-09
2.4361334e-09
2.8567007e-09
4.2452229e-09
2.0391116e-08
6.9649876e-07
1.201693e-05
6.0724623e-05
0.00018717864
0.081618924
0.26393881
0.36672902
0.0035224812
0.0013671075
2.2042896e-09
2.204566e-09
2.205609e-09
2.207677e-09
2.2102566e-09
2.2110472e-09
2.2108174e-09
2.2098676e-09
2.2077507e-09
2.2027065e-09
2.1928355e-09
2.1604719e-09
2.1097439e-09
2.0693785e-09
2.0564715e-09
2.0597835e-09
2.0950774e-09
2.1305126e-09
2.1679863e-09
2.3088361e-09
2.3712822e-09
2.3435213e-09
2.4549598e-09
2.2675622e-09
2.2681197e-09
2.5557967e-09
3.2720673e-09
8.895701e-09
1.8083387e-07
4.8390549e-06
3.5977248e-05
0.00011556947
0.018214827
0.17685141
0.26809818
0.0020136788
0.0012467193
2.2040963e-09
2.2042313e-09
2.2052658e-09
2.207313e-09
2.2098444e-09
2.2106801e-09
2.2104387e-09
2.2095614e-09
2.2073191e-09
2.2024202e-09
2.1935037e-09
2.1630196e-09
2.1128221e-09
2.0705804e-09
2.0559756e-09
2.0578565e-09
2.0912657e-09
2.1274469e-09
2.1623149e-09
2.294556e-09
2.4211442e-09
2.3537479e-09
2.3537761e-09
2.1816e-09
2.1801539e-09
2.3507014e-09
2.7593454e-09
4.9826334e-09
4.7466166e-08
1.5553536e-06
1.7849158e-05
7.0355791e-05
0.00038349545
0.08824139
0.17420567
0.0012586648
0.0011202058
2.2038865e-09
2.2038918e-09
2.2048911e-09
2.2069259e-09
2.2094153e-09
2.2102758e-09
2.2100329e-09
2.2092331e-09
2.2068779e-09
2.2020911e-09
2.1940747e-09
2.165633e-09
2.1162367e-09
2.072107e-09
2.0554739e-09
2.0560415e-09
2.0871461e-09
2.1245779e-09
2.1547869e-09
2.2680144e-09
2.4674179e-09
2.3656425e-09
2.2553211e-09
2.1340827e-09
2.1351089e-09
2.2275706e-09
2.468709e-09
3.4573981e-09
1.4775898e-08
3.8745197e-07
7.180698e-06
4.1191977e-05
0.00014051302
0.011623847
0.077767026
0.00086069306
0.00098908224
2.2035747e-09
2.203562e-09
2.2044937e-09
2.2065025e-09
2.208973e-09
2.2098343e-09
2.2095998e-09
2.208881e-09
2.2064407e-09
2.201732e-09
2.1945232e-09
2.1682785e-09
2.1199912e-09
2.0740371e-09
2.0549785e-09
2.0543517e-09
2.0826189e-09
2.1212787e-09
2.1451918e-09
2.2341105e-09
2.4804061e-09
2.3674491e-09
2.2088892e-09
2.1140725e-09
2.1135421e-09
2.1624085e-09
2.29445e-09
2.7809708e-09
6.3464786e-09
8.95867e-08
2.3089081e-06
2.0931545e-05
8.0929956e-05
0.00027496099
0.0065146149
0.00067178754
0.00085291661
2.2032622e-09
2.2032331e-09
2.2040685e-09
2.2060419e-09
2.2085145e-09
2.2093602e-09
2.209139e-09
2.2084973e-09
2.2060027e-09
2.2013595e-09
2.1948427e-09
2.1709211e-09
2.1240839e-09
2.0763813e-09
2.054749e-09
2.0527696e-09
2.0776648e-09
2.1175767e-09
2.1398586e-09
2.2016712e-09
2.4511139e-09
2.3443961e-09
2.2008646e-09
2.1077548e-09
2.1030248e-09
2.1224366e-09
2.1891707e-09
2.4485659e-09
3.790178e-09
2.3155895e-08
5.7181416e-07
8.3412608e-06
4.1728057e-05
0.00014411661
0.00033116621
0.0005353406
0.00071419806
2.2029552e-09
2.2029062e-09
2.2036179e-09
2.2055529e-09
2.2080356e-09
2.2088642e-09
2.2086538e-09
2.2080802e-09
2.2055474e-09
2.2009634e-09
2.1950313e-09
2.1735219e-09
2.12848e-09
2.0792376e-09
2.0547301e-09
2.0513644e-09
2.0724206e-09
2.1135996e-09
2.1375202e-09
2.1749527e-09
2.4080401e-09
2.3099605e-09
2.2030403e-09
2.1072555e-09
2.0969601e-09
2.0960073e-09
2.1305351e-09
2.2762112e-09
2.8608142e-09
8.271978e-09
1.2399392e-07
2.4187455e-06
1.8030479e-05
7.7173593e-05
0.00020866849
0.00040279996
0.00057507622
2.2026504e-09
2.2025826e-09
2.2031453e-09
2.2050127e-09
2.2075281e-09
2.2083527e-09
2.2081477e-09
2.2076245e-09
2.205067e-09
2.2005309e-09
2.1950936e-09
2.1760297e-09
2.1331768e-09
2.0826595e-09
2.0551257e-09
2.0501575e-09
2.067041e-09
2.1088792e-09
2.1356261e-09
2.1587366e-09
2.3421276e-09
2.2801551e-09
2.1701634e-09
2.1116798e-09
2.0946977e-09
2.0855359e-09
2.0983029e-09
2.1745958e-09
2.4501063e-09
4.3225923e-09
2.9453434e-08
5.3583656e-07
6.2646733e-06
3.2634227e-05
0.00011670343
0.0002751526
0.00043791357
2.2023479e-09
2.2022616e-09
2.2026585e-09
2.2044233e-09
2.2069718e-09
2.2078281e-09
2.2076308e-09
2.2071285e-09
2.204549e-09
2.2000712e-09
2.1950868e-09
2.1783817e-09
2.1381479e-09
2.0867204e-09
2.0558636e-09
2.0491171e-09
2.0616458e-09
2.1031225e-09
2.1329654e-09
2.1483073e-09
2.2125003e-09
2.2135794e-09
2.1448922e-09
2.1189503e-09
2.0969971e-09
2.0822244e-09
2.0820614e-09
2.1135898e-09
2.2490224e-09
3.0261562e-09
9.9680331e-09
1.0792889e-07
1.4914971e-06
1.0226261e-05
5.0365697e-05
0.0001590237
0.00030461253
2.2020442e-09
2.2019424e-09
2.2021618e-09
2.2037895e-09
2.2063475e-09
2.2072867e-09
2.2071139e-09
2.2065986e-09
2.2039896e-09
2.1995635e-09
2.1950269e-09
2.1804981e-09
2.1433294e-09
2.0915105e-09
2.0570636e-09
2.048224e-09
2.0565495e-09
2.0964836e-09
2.1300867e-09
2.1450894e-09
2.1565173e-09
2.171525e-09
2.1484302e-09
2.1255934e-09
2.1001479e-09
2.0812271e-09
2.0763241e-09
2.0842366e-09
2.144097e-09
2.4679067e-09
4.9037637e-09
2.7347703e-08
2.8282376e-07
2.3270494e-06
1.4499707e-05
6.8616669e-05
0.00018015859
2.2017335e-09
2.2016168e-09
2.2016673e-09
2.203117e-09
2.2056726e-09
2.2067252e-09
2.2065975e-09
2.2060356e-09
2.2033905e-09
2.1990088e-09
2.194912e-09
2.182358e-09
2.1486231e-09
2.0971102e-09
2.0588742e-09
2.0474181e-09
2.0519391e-09
2.088958e-09
2.1263388e-09
2.1459223e-09
2.1517926e-09
2.1624242e-09
2.1515305e-09
2.1321873e-09
2.1066779e-09
2.0855114e-09
2.0751196e-09
2.0742131e-09
2.0907948e-09
2.2001717e-09
3.1056459e-09
1.0038807e-08
6.1455099e-08
4.3729611e-07
2.6144107e-06
1.7359854e-05
7.7205356e-05
2.2014063e-09
2.201267e-09
2.2011982e-09
2.2024177e-09
2.2049198e-09
2.2061256e-09
2.2060745e-09
2.2054427e-09
2.2027504e-09
2.1983983e-09
2.1947104e-09
2.1839756e-09
2.1539087e-09
2.1035522e-09
2.0615354e-09
2.0466859e-09
2.048062e-09
2.0804567e-09
2.1204878e-09
2.1436625e-09
2.1536659e-09
2.1594478e-09
2.1542993e-09
2.1387181e-09
2.1144044e-09
2.0927484e-09
2.0779218e-09
2.0724779e-09
2.0727416e-09
2.0971299e-09
2.3576047e-09
4.4833314e-09
1.7887109e-08
8.9385415e-08
3.951889e-07
2.281028e-06
1.5971207e-05
2.2010608e-09
2.2008933e-09
2.2007499e-09
2.2017082e-09
2.2040904e-09
2.2054748e-09
2.2055341e-09
2.2048297e-09
2.2020744e-09
2.1977339e-09
2.1943808e-09
2.1853252e-09
2.1590584e-09
2.1107763e-09
2.065327e-09
2.0461609e-09
2.0451195e-09
2.071417e-09
2.1134521e-09
2.1397047e-09
2.152132e-09
2.1576403e-09
2.1551759e-09
2.143618e-09
2.1222921e-09
2.1005196e-09
2.0827672e-09
2.0723245e-09
2.0698785e-09
2.0708991e-09
2.1177207e-09
2.6083666e-09
6.034625e-09
2.2856141e-08
8.2062538e-08
2.531038e-07
1.3695371e-06
2.2007019e-09
2.2005074e-09
2.2003091e-09
2.2010158e-09
2.2032203e-09
2.2047528e-09
2.2049684e-09
2.2042191e-09
2.2013622e-09
2.1970106e-09
2.1939223e-09
2.1863856e-09
2.1639485e-09
2.1186407e-09
2.0703551e-09
2.0462816e-09
2.0428106e-09
2.0621219e-09
2.1052988e-09
2.1353732e-09
2.149884e-09
2.1551326e-09
2.1537153e-09
2.1461094e-09
2.1298502e-09
2.1094025e-09
2.0908578e-09
2.0775067e-09
2.069845e-09
2.0672538e-09
2.0694147e-09
2.1508417e-09
2.7863722e-09
6.3504347e-09
2.1143357e-08
6.0939971e-08
1.4569111e-07
2.2003287e-09
2.2001058e-09
2.1998618e-09
2.2003547e-09
2.202331e-09
2.2039511e-09
2.2043166e-09
2.2036391e-09
2.2006109e-09
2.1962326e-09
2.1933566e-09
2.1871485e-09
2.16838e-09
2.1269647e-09
2.0768061e-09
2.047387e-09
2.0411325e-09
2.0532593e-09
2.0951766e-09
2.1294946e-09
2.146442e-09
2.1528523e-09
2.1519414e-09
2.1469178e-09
2.1361177e-09
2.1185743e-09
2.0997141e-09
2.0849294e-09
2.0745587e-09
2.0663658e-09
2.0629804e-09
2.0713428e-09
2.1695577e-09
2.7425554e-09
5.5271286e-09
1.6222034e-08
4.0529978e-08
2.1999467e-09
2.1996865e-09
2.1993978e-09
2.1997305e-09
2.2014296e-09
2.2030486e-09
2.203529e-09
2.2030843e-09
2.1998353e-09
2.1954152e-09
2.1926854e-09
2.1875308e-09
2.1721837e-09
2.135621e-09
2.0848912e-09
2.0496577e-09
2.0398839e-09
2.0456025e-09
2.0833564e-09
2.1223267e-09
2.1421006e-09
2.1495605e-09
2.1501364e-09
2.1463732e-09
2.1404583e-09
2.1270967e-09
2.1093267e-09
2.0932649e-09
2.0800439e-09
2.0690149e-09
2.0620542e-09
2.0614341e-09
2.0748641e-09
2.163486e-09
2.5746964e-09
4.2897547e-09
9.8295045e-09
2.1995596e-09
2.1992514e-09
2.1989123e-09
2.1991344e-09
2.2005431e-09
2.2020786e-09
2.2026588e-09
2.2024675e-09
2.199066e-09
2.1945805e-09
2.1919316e-09
2.1876154e-09
2.1752957e-09
2.1441841e-09
2.0947209e-09
2.0536202e-09
2.038948e-09
2.0397875e-09
2.0700233e-09
2.1130074e-09
2.1369245e-09
2.1459523e-09
2.1477762e-09
2.1451762e-09
2.1422541e-09
2.134196e-09
2.119359e-09
2.1036373e-09
2.0889458e-09
2.0757599e-09
2.0655172e-09
2.0610038e-09
2.0611582e-09
2.0742157e-09
2.1416398e-09
2.4023361e-09
3.1771245e-09
2.1991654e-09
2.1988063e-09
2.1984078e-09
2.1985447e-09
2.1996882e-09
2.2010695e-09
2.2017232e-09
2.201652e-09
2.1983206e-09
2.1937517e-09
2.191137e-09
2.1874328e-09
2.1776209e-09
2.1521551e-09
2.1060071e-09
2.059936e-09
2.0384163e-09
2.0359293e-09
2.0561208e-09
2.1007327e-09
2.1302775e-09
2.1418466e-09
2.1449523e-09
2.1433534e-09
2.1420922e-09
2.1385757e-09
2.128095e-09
2.1142511e-09
2.1000422e-09
2.0855465e-09
2.0723169e-09
2.06357e-09
2.05983e-09
2.0590625e-09
2.0685534e-09
2.1062357e-09
2.1959478e-09
2.1987806e-09
2.1983579e-09
2.1978958e-09
2.1979538e-09
2.198878e-09
2.2000529e-09
2.2007023e-09
2.2007056e-09
2.1975462e-09
2.1929445e-09
2.1903078e-09
2.187029e-09
2.1791712e-09
2.159062e-09
2.1181094e-09
2.069051e-09
2.0398097e-09
2.033339e-09
2.043514e-09
2.0854703e-09
2.1217205e-09
2.1371566e-09
2.141723e-09
2.1414806e-09
2.1410847e-09
2.1401601e-09
2.1343816e-09
2.1237781e-09
2.1113914e-09
2.0975242e-09
2.0827273e-09
2.0694902e-09
2.0602875e-09
2.0567064e-09
2.0557946e-09
2.0604023e-09
2.0677972e-09
2.1983998e-09
2.1979134e-09
2.1973793e-09
2.197368e-09
2.1980893e-09
2.1990657e-09
2.1996264e-09
2.1996219e-09
2.1966033e-09
2.1921455e-09
2.1894627e-09
2.1864538e-09
2.1799716e-09
2.1645929e-09
2.1303718e-09
2.081163e-09
2.0436834e-09
2.0316687e-09
2.0337953e-09
2.0671937e-09
2.1098153e-09
2.1310738e-09
2.1378225e-09
2.13918e-09
2.1398333e-09
2.1400522e-09
2.1378812e-09
2.1313351e-09
2.1215011e-09
2.1095929e-09
2.0962212e-09
2.0819102e-09
2.0676107e-09
2.0574348e-09
2.0536293e-09
2.0525665e-09
2.0520036e-09
2.1980302e-09
2.1974784e-09
2.1968575e-09
2.19681e-09
2.197307e-09
2.1980837e-09
2.1985049e-09
2.1984281e-09
2.1955248e-09
2.1912857e-09
2.1886266e-09
2.1857535e-09
2.1802271e-09
2.1685761e-09
2.1416976e-09
2.0959966e-09
2.0513089e-09
2.0306072e-09
2.0281999e-09
2.048001e-09
2.0928878e-09
2.1224105e-09
2.132841e-09
2.1356926e-09
2.1372927e-09
2.138653e-09
2.1390676e-09
2.1362064e-09
2.1295749e-09
2.1197013e-09
2.1085245e-09
2.0968452e-09
2.083565e-09
2.0693872e-09
2.0578239e-09
2.0516309e-09
2.0491857e-09
2.1976693e-09
2.1970545e-09
2.1963615e-09
2.1962724e-09
2.1965345e-09
2.197086e-09
2.1973904e-09
2.1971774e-09
2.1943011e-09
2.1902991e-09
2.1877562e-09
2.1849793e-09
2.1800872e-09
2.1711225e-09
2.1511136e-09
2.1121325e-09
2.0636886e-09
2.0328267e-09
2.025062e-09
2.0319809e-09
2.0711185e-09
2.1097464e-09
2.1264857e-09
2.1315409e-09
2.1336309e-09
2.1358992e-09
2.1376831e-09
2.1381433e-09
2.135216e-09
2.1283082e-09
2.1183599e-09
2.108318e-09
2.0987254e-09
2.0882432e-09
2.0760977e-09
2.0633856e-09
2.053243e-09
2.197331e-09
2.1966508e-09
2.1958987e-09
2.1957539e-09
2.1957891e-09
2.196052e-09
2.1962526e-09
2.1958771e-09
2.1929962e-09
2.1892075e-09
2.1867436e-09
2.1841548e-09
2.1797226e-09
2.1724828e-09
2.1580544e-09
2.1279017e-09
2.0809056e-09
2.0396128e-09
2.0233888e-09
2.0230254e-09
2.0470337e-09
2.0903244e-09
2.117082e-09
2.1267101e-09
2.129772e-09
2.1319968e-09
2.1348794e-09
2.137031e-09
2.1375439e-09
2.1346196e-09
2.1274064e-09
2.117673e-09
2.1092017e-09
2.1024942e-09
2.0957339e-09
2.0860644e-09
2.0728308e-09
2.1970152e-09
2.1962751e-09
2.1954786e-09
2.1952418e-09
2.1950954e-09
2.1950226e-09
2.1950659e-09
2.1945009e-09
2.1916689e-09
2.1880502e-09
2.1855707e-09
2.1831338e-09
2.1791545e-09
2.1730573e-09
2.1626592e-09
2.141209e-09
2.1010705e-09
2.0537831e-09
2.025686e-09
2.0193975e-09
2.0268078e-09
2.0630849e-09
2.100821e-09
2.1195965e-09
2.1257625e-09
2.1280639e-09
2.1303317e-09
2.133709e-09
2.1364221e-09
2.1371313e-09
2.1345032e-09
2.128106e-09
2.1189238e-09
2.1118646e-09
2.1073138e-09
2.1032243e-09
2.0972753e-09
2.196712e-09
2.1959222e-09
2.1950947e-09
2.1947904e-09
2.1944577e-09
2.1940592e-09
2.1937848e-09
2.1930121e-09
2.1903444e-09
2.1868762e-09
2.1843059e-09
2.1819437e-09
2.1783714e-09
2.1731804e-09
2.1653901e-09
2.1509579e-09
2.1211566e-09
2.0754673e-09
2.0350089e-09
2.0178665e-09
2.0162245e-09
2.033631e-09
2.073666e-09
2.1059178e-09
2.1203051e-09
2.1247613e-09
2.1263842e-09
2.1282553e-09
2.1317171e-09
2.1355008e-09
2.1369811e-09
2.1365202e-09
2.1313494e-09
2.1227668e-09
2.1145493e-09
2.1103526e-09
2.1082723e-09
2.1964155e-09
2.1955798e-09
2.1947344e-09
2.1944132e-09
2.193951e-09
2.1931457e-09
2.1924481e-09
2.1914092e-09
2.1889804e-09
2.1856832e-09
2.1830093e-09
2.1806297e-09
2.1774165e-09
2.1729272e-09
2.1668094e-09
2.1571556e-09
2.1374041e-09
2.1001392e-09
2.0536738e-09
2.021881e-09
2.0127709e-09
2.0138132e-09
2.0386065e-09
2.0788418e-09
2.1080016e-09
2.1204333e-09
2.123862e-09
2.1246885e-09
2.1253955e-09
2.1283867e-09
2.1337203e-09
2.138183e-09
2.1392694e-09
2.1386144e-09
2.1289415e-09
2.1172333e-09
2.1093066e-09
2.1961313e-09
2.1952498e-09
2.1944044e-09
2.1940912e-09
2.1935654e-09
2.1923351e-09
2.1911244e-09
2.1897784e-09
2.1875461e-09
2.1844478e-09
2.181694e-09
2.1792032e-09
2.1762461e-09
2.1724132e-09
2.1674405e-09
2.1606378e-09
2.1483642e-09
2.1229419e-09
2.0810878e-09
2.0373321e-09
2.0130296e-09
2.007723e-09
2.0111011e-09
2.0392547e-09
2.0793461e-09
2.107959e-09
2.1200285e-09
2.1228074e-09
2.1229764e-09
2.1223604e-09
2.1222427e-09
2.1287884e-09
2.1378314e-09
2.144263e-09
2.1461098e-09
2.1450049e-09
2.1295303e-09
2.1958482e-09
2.1949264e-09
2.1940965e-09
2.1938203e-09
2.193285e-09
2.1916727e-09
2.1898636e-09
2.1881776e-09
2.1860452e-09
2.1831699e-09
2.180365e-09
2.1776646e-09
2.1747947e-09
2.1715612e-09
2.1676383e-09
2.1625318e-09
2.1546446e-09
2.1394406e-09
2.1098097e-09
2.0664362e-09
2.026136e-09
2.0060847e-09
2.0022123e-09
2.0063945e-09
2.034532e-09
2.0741621e-09
2.1050054e-09
2.1190057e-09
2.1219963e-09
2.1214581e-09
2.1184824e-09
2.1169384e-09
2.1166118e-09
2.1273983e-09
2.1424902e-09
2.1568753e-09
2.1641216e-09
2.1955801e-09
2.1946116e-09
2.1938196e-09
2.1935901e-09
2.1930853e-09
2.1911771e-09
2.1887378e-09
2.1866309e-09
2.184503e-09
2.1818758e-09
2.1790485e-09
2.1760419e-09
2.1730412e-09
2.1702382e-09
2.1672941e-09
2.1635358e-09
2.1581877e-09
2.149119e-09
2.131611e-09
2.0999156e-09
2.0568461e-09
2.0187211e-09
2.0001927e-09
1.9965266e-09
1.9986079e-09
2.022624e-09
2.0602641e-09
2.0971875e-09
2.1175129e-09
2.1232872e-09
2.1236413e-09
2.1175713e-09
2.1103614e-09
2.1057863e-09
2.1045469e-09
2.1099049e-09
2.1316063e-09
2.1953435e-09
2.1943194e-09
2.1935755e-09
2.1933926e-09