/*--------------------------------*- C++ -*----------------------------------*\
| =========                 |                                                 |
| \\      /  F ield         | OpenFOAM: The Open Source CFD Toolbox           |
|  \\    /   O peration     | Version:  2506                                  |
|   \\  /    A nd           | Website:  www.openfoam.com                      |
|    \\/     M anipulation  |                                                 |
\*---------------------------------------------------------------------------*/
FoamFile
{
    version     2.0;
    format      ascii;
    arch        "LSB;label=32;scalar=64";
    class       volScalarField;
    location    "0.00032";
    object      Cy;
}
// * * * * * * * * * * * * * * * * * * * * * * * * * * * * * * * * * * * * * //

dimensions      [0 1 0 0 0 0 0];

internalField   nonuniform List<scalar> 
3427
(
5.7091388
6.1870064
6.705498
7.2680668
3.5322915
3.8251117
4.1428256
4.4875493
4.861579
5.2674058
5.7077327
6.1854924
6.7038669
7.2663086
7.8765634
8.5386954
9.2571143
3.0128818
3.2615572
3.5313735
3.8241277
4.1417701
4.4864161
4.8603615
5.2660968
5.7063245
6.1839765
6.7022341
7.264549
7.8746661
8.5366486
9.2549054
10.03422
10.879781
2.5717523
2.782938
3.0120775
3.260697
3.5304525
3.823141
4.1407118
4.4852804
4.8591416
5.2647857
5.7049142
6.1824587
6.7005996
7.2627879
7.8727675
8.5346009
9.2526957
10.031834
10.877205
2.1971007
2.3764487
2.5710437
2.7821821
3.0112701
3.2598337
3.5295287
3.8221514
4.139651
4.4841421
4.8579194
5.2634723
5.7035019
6.1809391
6.6989635
7.2610253
7.8708677
8.5325521
9.2504853
10.029448
10.874629
1.878904
2.0312141
2.1964727
2.3757805
2.5703319
2.7814229
3.0104596
3.2589675
3.5286021
3.8211591
4.1385875
4.4830014
4.8566948
5.2621567
5.7020876
6.1794175
6.6973257
7.2592612
7.8689666
8.5305024
9.2482742
10.027062
10.872053
1.4894364
1.6086503
1.7379989
1.8783438
2.0306198
2.1958414
2.3751091
2.5696169
2.7806607
3.0096461
3.2580984
3.5276725
3.8201641
4.1375214
4.4818581
4.8554678
5.2608389
5.7006712
6.1778942
6.6956862
7.2574957
7.8670643
8.5284517
9.2460624
10.024675
10.869476
0.8168698
0.87892203
0.94624926
1.0193
1.0985607
1.1845594
1.277869
1.379111
1.4889597
1.608147
1.7374666
1.8777801
2.0300221
2.1952067
2.3744343
2.5688987
2.7798953
3.0088295
3.2572263
3.5267401
3.8191663
4.1364526
4.4807124
4.8542385
5.2595189
5.6992528
6.1763689
6.694045
7.2557287
7.8651608
8.5264
9.2438499
10.022288
10.8669
0.70666398
0.75936196
0.81653971
0.87857806
0.94589023
1.0189246
1.0981676
1.1841471
1.2774359
1.3786552
1.4884794
1.60764
1.7369308
1.877213
2.029421
2.1945687
2.3737563
2.5681773
2.7791268
3.0080099
3.2563512
3.5258049
3.8181659
4.1353813
4.4795642
4.8530069
5.2581967
5.6978323
6.1748419
6.6924022
7.2539603
7.8632561
8.5243473
9.2416366
10.019901
10.864323
0.61304228
0.65779623
0.7063546
0.7590408
0.81620577
0.87823026
0.94552741
1.0185455
1.0977708
1.1837311
1.2769991
1.3781958
1.4879955
1.6071296
1.7363915
1.8766424
2.0288165
2.1939274
2.3730751
2.5674527
2.7783552
3.0071873
3.2554733
3.5248669
3.8171627
4.1343074
4.4784135
4.8517729
5.2568723
5.6964099
6.1733129
6.6907577
7.2521904
7.8613501
8.5222936
9.2394227
10.017513
10.861746
0.57151149
0.6127499
0.65749386
0.70604139
0.75871583
0.81586805
0.87787871
0.94516085
1.0181626
1.0973703
1.1833115
1.2765586
1.3777328
1.4875081
1.6066156
1.7358488
1.8760684
2.0282087
2.1932828
2.3723906
2.566725
2.7775805
3.0063617
3.2545924
3.5239261
3.8161568
4.1332309
4.4772604
4.8505366
5.2555458
5.6949854
6.1717822
6.6891117
7.2504192
7.859443
8.520239
9.237208
10.015125
10.859169
0.49820352
0.53322549
0.57122453
0.61245375
0.65718773
0.70572444
0.75838715
0.81552663
0.87752348
0.94479064
1.0177762
1.0969662
1.1828883
1.2761147
1.3772664
1.4870172
1.6060982
1.7353027
1.8754912
2.0275976
2.1926351
2.371703
2.5659943
2.7768029
3.0055332
3.2537088
3.5229826
3.8151483
4.132152
4.4761049
4.8492982
5.2542173
5.6935591
6.1702498
6.687464
7.2486465
7.8575347
8.5181835
9.2349927
10.012736
10.856592
0.40850304
0.4359155
0.46565815
0.4979291
0.53294327
0.57093385
0.61215388
0.65687791
0.70540382
0.75805481
0.81518158
0.87716464
0.94441684
1.0173861
1.0965586
1.1824615
1.2756672
1.3767965
1.4865229
1.6055775
1.7347533
1.8749106
2.0269833
2.1919842
2.3710124
2.5652605
2.7760224
3.0047019
3.2528224
3.5220364
3.8141373
4.1310705
4.4749471
4.8480575
5.2528866
5.6921308
6.1687155
6.6858148
7.2468725
7.8556252
8.5161271
9.2327767
10.010347
10.854015
0.35970531
0.38298559
0.4082448
0.43565116
0.4653872
0.49765097
0.53265735
0.57063948
0.61185035
0.65656443
0.70507955
0.75771885
0.81483293
0.87680222
0.94403949
1.0169926
1.0961475
1.1820314
1.2752164
1.3763232
1.4860253
1.6050535
1.7342006
1.8743269
2.0263658
2.1913301
2.3703187
2.5645237
2.7752389
3.0038678
3.2519332
3.5210876
3.8131237
4.1299867
4.473787
4.8468146
5.251554
5.6907007
6.1671796
6.6841641
7.2450972
7.8537147
8.5140697
9.23056
10.007957
10.851438
0.35945416
0.38272927
0.40798287
0.43538313
0.46511256
0.49736916
0.53236777
0.57034146
0.61154318
0.65624734
0.70475169
0.7573793
0.81448071
0.87643626
0.94365862
1.0165955
1.0957329
1.1815977
1.2747621
1.3758465
1.4855243
1.6045262
1.7336447
1.87374
2.0257452
2.190673
2.369622
2.563784
2.7744526
3.0030308
3.2510414
3.5201362
3.8121077
4.1289005
4.4726247
4.8455696
5.2502193
5.6892687
6.165642
6.6825118
7.2433205
7.8518029
8.5120114
9.2283427
10.005567
10.848861
0.35919933
0.38246927
0.40771726
0.43511145
0.46483428
0.49708372
0.53207456
0.57003984
0.61123242
0.65592667
0.70442027
0.75703621
0.81412497
0.8760668
0.94327427
1.016195
1.0953149
1.1811607
1.2743045
1.3753665
1.4850201
1.6039956
1.7330856
1.8731499
2.0251216
2.1900129
2.3689223
2.5630414
2.7736634
3.0021911
3.2501469
3.5191822
3.8110891
4.1278119
4.47146
4.8443225
5.2488826
5.6878348
6.1641027
6.680858
7.2415425
7.8498901
8.5099522
9.2261247
10.003177
10.846283
0.29952249
0.31773649
0.33749874
0.35894086
0.38220564
0.40744803
0.43483614
0.46455239
0.49679468
0.53177777
0.56973464
0.6109181
0.65560245
0.70408531
0.75668962
0.81376575
0.87569387
0.94288647
1.0157911
1.0948934
1.1807203
1.2738435
1.3748832
1.4845126
1.6034618
1.7325233
1.8725567
2.0244948
2.1893497
2.3682196
2.5622959
2.7728714
3.0013487
3.2492497
3.5182257
3.8100681
4.1267209
4.4702932
4.8430732
5.2475439
5.6863991
6.1625617
6.6792028
7.2397632
7.8479762
8.5078922
9.2239061
10.000786
10.843706
0.29927358
0.31748354
0.33724141
0.35867878
0.38193841
0.40717521
0.43455726
0.46426693
0.49650209
0.53147744
0.56942591
0.61060026
0.65527473
0.70374688
0.75633956
0.81340307
0.87531751
0.94249528
1.0153838
1.0944687
1.1802766
1.2733792
1.3743967
1.4840019
1.6029249
1.7319579
1.8719604
2.023865
2.1886836
2.3675141
2.5615476
2.7720767
3.0005036
3.2483499
3.5172666
3.8090446
4.1256276
4.4691241
4.8418219
5.2462033
5.6849617
6.161019
6.677546
7.2379826
7.8460611
8.5058313
9.2216868
9.998395
10.841128
0.31722701
0.33698051
0.35841313
0.38166762
0.40689884
0.43427483
0.46397793
0.49620597
0.53117359
0.56911368
0.61027893
0.65494354
0.70340499
0.75598606
0.81303698
0.87493776
0.94210071
1.0149732
1.0940406
1.1798296
1.2729117
1.3739069
1.483488
1.6023848
1.7313893
1.871361
2.0232322
2.1880145
2.3668056
2.5607964
2.7712791
2.9996558
3.2474476
3.516305
3.8080188
4.124532
4.4679528
4.8405685
5.2448608
5.6835224
6.1594748
6.6758878
7.2362007
7.844145
8.5037695
9.2194669
9.9960035
10.83855
0.31696693
0.33671607
0.35814395
0.3813933
0.40661895
0.4339889
0.46368544
0.49590637
0.53086627
0.56879799
0.60995416
0.65460892
0.70305968
0.75562916
0.81266751
0.87455465
0.94170281
1.0145592
1.0936093
1.1793794
1.272441
1.373414
1.4829709
1.6018415
1.7308178
1.8707587
2.0225965
2.1873425
2.3660943
2.5600425
2.7704789
2.9988054
3.2465426
3.5153409
3.8069906
4.1234342
4.4667794
4.8393131
5.2435164
5.6820814
6.1579289
6.6742282
7.2344176
7.8422279
8.5017069
9.2172464
9.9936116
10.835973
0.31670334
0.33644812
0.35787128
0.3811155
0.40633559
0.4336995
0.4633895
0.49560332
0.53055551
0.56847887
0.60962598
0.6542709
0.70271099
0.7552689
0.8122947
0.87416822
0.9413016
1.014142
1.0931746
1.1789259
1.2719671
1.3729179
1.4824507
1.6012953
1.7302431
1.8701533
2.0219578
2.1866677
2.3653802
2.5592858
2.769676
2.9979523
3.2456352
3.5143744
3.80596
4.1223341
4.4656038
4.8380556
5.2421701
5.6806386
6.1563815
6.6725671
7.2326332
7.8403096
8.4996434
9.2150253
9.9912194
10.833395
0.31643628
0.33617671
0.35759515
0.38083425
0.40604878
0.43340666
0.46309012
0.49529685
0.53024135
0.56815637
0.60929442
0.65392952
0.70235896
0.75490531
0.81191857
0.8737785
0.94089713
1.0137215
1.0927368
1.1784693
1.27149
1.3724186
1.4819274
1.6007459
1.7296655
1.869545
2.0213161
2.1859899
2.3646633
2.5585263
2.7688704
2.9970966
3.2447252
3.5134055
3.8049271
4.1212317
4.4644262
4.8367962
5.2408219
5.6791941
6.1548324
6.6709046
7.2308475
7.8383904
8.497579
9.2128035
9.9888268
10.830817
0.31616579
0.33590187
0.3573156
0.38054958
0.40575856
0.43311043
0.46278736
0.49498701
0.52992383
0.5678305
0.60895952
0.65358481
0.70200362
0.75453843
0.81153917
0.87338552
0.94048943
1.0132979
1.0922958
1.1780095
1.2710098
1.3719163
1.4814011
1.6001935
1.7290849
1.8689338
2.0206717
2.1853094
2.3639436
2.5577642
2.7680622
2.9962384
3.2438127
3.5124342
3.8038919
4.1201272
4.4632464
4.8355348
5.2394718
5.6777479
6.1532818
6.6692407
7.2290607
7.83647
8.4955139
9.2105812
9.9864338
10.828238
0.31589189
0.33562364
0.35703265
0.38026153
0.40546497
0.43281083
0.46248124
0.49467382
0.52960297
0.56750132
0.60862131
0.65323682
0.701645
0.75416829
0.81115653
0.87298933
0.94007852
1.012871
1.0918516
1.1775465
1.2705265
1.3714109
1.4808718
1.5996382
1.7285014
1.8683196
2.0200243
2.184626
2.3632211
2.5569993
2.7672514
2.9953777
3.2428978
3.5114605
3.8028544
4.1190205
4.4620646
4.8342714
5.23812
5.6763
6.1517297
6.6675754
7.2272726
7.8345487
8.4934479
9.2083582
9.9840404
10.82566
0.31561463
0.33534204
0.35674636
0.37997014
0.40516805
0.43250791
0.46217181
0.49435732
0.52927881
0.56716886
0.60827983
0.65288556
0.70128313
0.75379492
0.81077069
0.87258994
0.93966445
1.012441
1.0914044
1.1770805
1.2700402
1.3709025
1.4803394
1.5990799
1.7279149
1.8677026
2.0193742
2.1839399
2.362496
2.5562319
2.766438
2.9945144
3.2419805
3.5104844
3.8018146
4.1179116
4.4608807
4.8330061
5.2367663
5.6748504
6.150176
6.6659088
7.2254834
7.8326264
8.4913811
9.2061346
9.9816468
10.823082
0.31533406
0.33505714
0.35645676
0.37967545
0.40486783
0.4322017
0.4618591
0.49403756
0.5289514
0.56683316
0.60793513
0.65253109
0.70091808
0.75341837
0.81038168
0.87218742
0.93924727
1.0120079
1.090954
1.1766115
1.2695508
1.3703911
1.4798041
1.5985187
1.7273256
1.8670828
2.0187212
2.1832511
2.3617682
2.5554618
2.765622
2.9936487
3.2410607
3.5095061
3.8007727
4.1168006
4.4596948
4.8317389
5.2354108
5.6733991
6.1486208
6.6642408
7.2236929
7.830703
8.4893136
9.2039105
9.9792527
10.820503
0.31505023
0.33476899
0.35616392
0.37937753
0.4045644
0.43189228
0.46154319
0.49371461
0.52862081
0.56649428
0.60758726
0.65217348
0.70054989
0.75303871
0.80998957
0.87178181
0.93882702
1.0115718
1.0905007
1.1761394
1.2690585
1.3698768
1.479266
1.5979546
1.7267334
1.8664602
2.0180656
2.1825595
2.3610378
2.5546892
2.7648036
2.9927806
3.2401386
3.5085254
3.7997285
4.1156875
4.4585069
4.8304698
5.2340536
5.6719463
6.1470642
6.6625714
7.2219013
7.8287787
8.4872452
9.2016858
9.9768583
10.817925
0.31476321
0.33447765
0.35586791
0.37907643
0.40425779
0.4315797
0.46122413
0.49338852
0.52828709
0.56615228
0.6072363
0.65181277
0.70017862
0.75265599
0.80959443
0.87137319
0.93840377
1.0111327
1.0900443
1.1756644
1.2685632
1.3693596
1.478725
1.5973878
1.7261385
1.8658348
2.0174073
2.1818654
2.3603048
2.553914
2.7639827
2.99191
3.2392143
3.5075426
3.7986823
4.1145724
4.457317
4.8291988
5.2326947
5.6704918
6.1455061
6.6609008
7.2201086
7.8268534
8.485176
9.1994605
9.9744636
10.815346
0.31447305
0.33418319
0.35556877
0.37877222
0.40394808
0.43126402
0.46090198
0.49305934
0.5279503
0.56580723
0.60688228
0.65144903
0.69980433
0.75227026
0.80919629
0.87096159
0.93797757
1.0106906
1.0895851
1.1751866
1.2680652
1.3688396
1.4781812
1.5968182
1.7255409
1.8652069
2.0167463
2.1811687
2.3595693
2.5531364
2.7631594
2.9910372
3.2382876
3.5065576
3.7976339
4.1134553
4.4561253
4.8279261
5.2313341
5.6690358
6.1439465
6.6592289
7.2183147
7.8249272
8.4831061
9.1972347
9.9720685
10.812767
0.31417981
0.33388565
0.35526656
0.37846495
0.40363531
0.4309453
0.46057678
0.49272714
0.52761049
0.56545917
0.60652526
0.65108231
0.69942708
0.75188159
0.80879522
0.87054708
0.93754848
1.0102457
1.0891231
1.1747059
1.2675643
1.3683168
1.4776346
1.5962459
1.7249407
1.8645762
2.0160828
2.1804695
2.3588313
2.5523564
2.7623337
2.990162
3.2373587
3.5055704
3.7965834
4.1123362
4.4549317
4.8266516
5.2299718
5.6675783
6.1423856
6.6575557
7.2165197
7.823
8.4810355
9.1950083
9.9696731
10.810189
0.31388355
0.33358509
0.35496134
0.37815467
0.40331955
0.43062358
0.46024861
0.49239196
0.52726772
0.56510815
0.60616531
0.65071266
0.69904691
0.75149001
0.80839127
0.8701297
0.93711654
1.009798
1.0886582
1.1742224
1.2670607
1.3677913
1.4770854
1.5956709
1.7243378
1.8639431
2.0154167
2.1797677
2.3580909
2.551574
2.7615058
2.9892846
3.2364277
3.5045811
3.795531
4.1112151
4.4537362
4.8253754
5.2286079
5.6661193
6.1408233
6.6558814
7.2147237
7.8210719
8.4789641
9.1927814
9.9672773
10.80761
0.31358432
0.33328156
0.35465315
0.37784143
0.40300084
0.43029892
0.45991751
0.49205386
0.52692203
0.56475424
0.60580247
0.65034014
0.69866388
0.75109559
0.80798448
0.86970951
0.93668181
1.0093475
1.0881906
1.1737363
1.2665544
1.3672632
1.4765335
1.5950933
1.7237323
1.8633073
2.0147482
2.1790636
2.3573481
2.5507892
2.7606755
2.988405
3.2354945
3.5035897
3.7944765
4.1100922
4.4525389
4.8240974
5.2272424
5.6646587
6.1392596
6.6542058
7.2129266
7.819143
8.476892
9.1905539
9.9648813
10.805031
0.31328217
0.33297512
0.35434207
0.3775253
0.40267923
0.42997138
0.45958353
0.4917129
0.52657349
0.56439748
0.60543679
0.64996479
0.69827804
0.75069837
0.80757492
0.86928656
0.93624433
1.0088943
1.0877203
1.1732474
1.2660454
1.3667324
1.4759791
1.5945132
1.7231243
1.8626691
2.0140772
2.178357
2.3566029
2.5500022
2.759843
2.9875232
3.2345591
3.5025964
3.7934201
4.1089674
4.4513399
4.8228178
5.2258753
5.6631968
6.1376946
6.652529
7.2111284
7.8172131
8.4748192
9.1883259
9.9624849
10.802451
0.31297715
0.33266583
0.35402813
0.37720633
0.40235479
0.42964101
0.45924673
0.49136912
0.52622214
0.56403792
0.60506833
0.64958667
0.69788945
0.75029841
0.80716264
0.8688609
0.93580417
1.0084384
1.0872473
1.1727559
1.2655338
1.366199
1.4754221
1.5939306
1.7225139
1.8620285
2.0134038
2.1776481
2.3558555
2.5492129
2.7590084
2.9866393
3.2336218
3.501601
3.7923618
4.1078408
4.4501391
4.8215366
5.2245067
5.6617334
6.1361283
6.650851
7.2093293
7.8152824
8.4727457
9.1860975
9.9600882
10.799872
0.33235373
0.35371139
0.37688456
0.40202756
0.42930786
0.45890715
0.49102258
0.52586805
0.56367563
0.60469714
0.64920583
0.69749815
0.74989576
0.80674767
0.86843258
0.93536136
1.0079798
1.0867717
1.1722619
1.2650197
1.3656632
1.4748626
1.5933455
1.721901
1.8613855
2.0127281
2.1769369
2.3551058
2.5484214
2.7581716
2.9857533
3.2326824
3.5006037
3.7913016
4.1067123
4.4489366
4.8202537
5.2231366
5.6602686
6.1345608
6.6491719
7.2075291
7.8133508
8.4706715
9.1838685
9.9576913
10.797293
0.33203888
0.35339191
0.37656005
0.4016976
0.42897199
0.45856486
0.49067333
0.52551125
0.56331064
0.60432327
0.64882233
0.69710419
0.74949046
0.80633008
0.86800165
0.93491597
1.0075187
1.0862936
1.1717653
1.2645031
1.3651248
1.4743007
1.592758
1.7212858
1.8607401
2.0120501
2.1762235
2.3543538
2.5476278
2.7573326
2.9848652
3.231741
3.4996044
3.7902396
4.1055821
4.4477324
4.8189693
5.2217651
5.6588024
6.132992
6.6474917
7.205728
7.8114184
8.4685966
9.181639
9.955294
10.794714
0.33172133
0.35306973
0.37623285
0.40136496
0.42863343
0.4582199
0.49032142
0.5251518
0.56294301
0.60394677
0.64843621
0.69670763
0.74908258
0.80590992
0.86756817
0.93446803
1.0070551
1.085813
1.1712662
1.263984
1.364584
1.4737364
1.5921681
1.7206682
1.8600925
2.0113698
2.1755078
2.3535998
2.546832
2.7564916
2.9839751
3.2307977
3.4986033
3.7891757
4.1044502
4.4465266
4.8176833
5.220392
5.6573349
6.1314219
6.6458104
7.2039258
7.8094852
8.4665211
9.1794091
9.9528964
10.792134
0.33140113
0.35274491
0.37590301
0.40102968
0.42829226
0.45787233
0.4899669
0.52478975
0.56257279
0.6035677
0.64804752
0.69630852
0.74867216
0.80548723
0.86713217
0.9340176
1.006589
1.0853299
1.1707647
1.2634625
1.3640409
1.4731697
1.5915759
1.7200483
1.8594426
2.0106873
2.1747899
2.3528435
2.5460342
2.7556486
2.9830831
3.2298525
3.4976003
3.7881101
4.1033166
4.4453192
4.8163957
5.2190176
5.6558661
6.1298507
6.644128
7.2021228
7.8075512
8.464445
9.1771786
9.9504985
10.789554
0.33107834
0.35241749
0.37557059
0.40069183
0.42794851
0.45752219
0.48960983
0.52442515
0.56220004
0.60318609
0.64765631
0.6959069
0.74825924
0.80506206
0.86669371
0.93356472
1.0061205
1.0848444
1.1702608
1.2629387
1.3634954
1.4726007
1.5909814
1.7194262
1.8587904
2.0100026
2.1740699
2.3520852
2.5452343
2.7548036
2.9821891
3.2289054
3.4965956
3.7870427
4.1021813
4.4441102
4.8151067
5.2176417
5.654396
6.1282783
6.6424445
7.2003188
7.8056164
8.4623682
9.1749477
9.9481004
10.786975
0.33075299
0.35208754
0.37523563
0.40035144
0.42760224
0.45716953
0.48925025
0.52405805
0.56182479
0.602802
0.64726263
0.69550282
0.74784388
0.80463446
0.86625284
0.93310945
1.0056496
1.0843566
1.1697546
1.2624125
1.3629476
1.4720294
1.5903847
1.7188018
1.8581362
2.0093158
2.1733479
2.3513249
2.5444324
2.7539567
2.9812933
3.2279564
3.495589
3.7859737
4.1010444
4.4428997
4.8138163
5.2162645
5.6529246
6.1267047
6.64076
7.1985139
7.8036808
8.4602908
9.1727164
9.945702
10.784395
0.33042515
0.35175509
0.37489818
0.40000857
0.42725349
0.4568144
0.4888882
0.5236885
0.5614471
0.60241548
0.64686653
0.69509633
0.74742612
0.80420447
0.86580959
0.93265182
1.0051764
1.0838664
1.1692461
1.2618841
1.3623976
1.471456
1.5897858
1.7181753
1.8574797
2.0086269
2.1726237
2.3505625
2.5436286
2.7531078
2.9803956
3.2270057
3.4945808
3.784903
4.0999059
4.4416876
4.8125244
5.2148859
5.651452
6.12513
6.6390745
7.1967081
7.8017445
8.4582128
9.1704846
9.9433033
10.781815
0.33009483
0.35142017
0.37455828
0.39966325
0.42690229
0.45645683
0.48852372
0.52331653
0.56106699
0.60202655
0.64646804
0.69468745
0.74700599
0.80377213
0.86536401
0.93219187
1.0047009
1.083374
1.1687353
1.2613534
1.3618453
1.4708803
1.5891848
1.7175467
1.8568212
2.007936
2.1718976
2.3497982
2.5428228
2.7522571
2.979496
3.2260532
3.4935708
3.7838306
4.0987658
4.4404741
4.8112311
5.2135061
5.6499782
6.1235542
6.637388
7.1949015
7.7998074
8.4561342
9.1682524
9.9409043
10.779235
0.3297621
0.35108284
0.37421596
0.39931552
0.4265487
0.45609688
0.48815686
0.52294218
0.56068452
0.60163527
0.6460672
0.69427625
0.74658354
0.80333749
0.86491613
0.93172964
1.0042231
1.0828793
1.1682223
1.2608206
1.3612909
1.4703025
1.5885816
1.716916
1.8561607
2.007243
2.1711695
2.3490319
2.5420151
2.7514045
2.9785946
3.2250989
3.4925591
3.7827566
4.0976242
4.439259
4.8099364
5.2121249
5.6485031
6.1219773
6.6357005
7.1930939
7.7978696
8.454055
9.1660197
9.9385051
10.776655
0.30978088
0.32942702
0.35074317
0.37387131
0.39896547
0.42619278
0.4557346
0.48778769
0.52256553
0.56029975
0.6012417
0.64566409
0.69386278
0.74615884
0.80290061
0.86446603
0.93126521
1.0037431
1.0823825
1.1677072
1.2602856
1.3607343
1.4697226
1.5879764
1.7162833
1.8554981
2.0065481
2.1704394
2.3482638
2.5412056
2.7505501
2.9776916
3.224143
3.4915458
3.781681
4.0964811
4.4380426
4.8086403
5.2107424
5.6470269
6.1203993
6.634012
7.1912856
7.7959311
8.4519752
9.1637866
9.9361056
10.774075
0.30944775
0.32908966
0.35040122
0.37352439
0.39861315
0.42583461
0.45537008
0.48741628
0.52218664
0.55991276
0.60084592
0.64525877
0.69344712
0.74573196
0.80246155
0.86401378
0.93079863
1.003261
1.0818835
1.1671899
1.2597485
1.3601758
1.4691407
1.5873691
1.7156486
1.8548336
2.0058512
2.1697075
2.3474938
2.5403943
2.7496939
2.9767868
3.2231854
3.4905309
3.780604
4.0953365
4.4368247
4.8073429
5.2093588
5.6455495
6.1188202
6.6323226
7.1894764
7.7939919
8.4498948
9.1615531
9.9337058
10.771495
0.30911241
0.32875009
0.35005707
0.37317527
0.39825864
0.42547425
0.45500338
0.48704269
0.52180559
0.55952362
0.60044799
0.64485131
0.69302933
0.74530296
0.8020204
0.86355943
0.93032998
1.0027768
1.0813825
1.1666707
1.2592094
1.3596152
1.4685568
1.58676
1.715012
1.8541672
2.0051526
2.1689738
2.346722
2.5395813
2.7488361
2.9758804
3.2222262
3.4895145
3.7795254
4.0941905
4.4356055
4.8060443
5.2079739
5.6440711
6.1172402
6.6306323
7.1876664
7.792052
8.447814
9.1593192
9.9313059
10.768915
0.30877493
0.32840839
0.34971079
0.37282402
0.39790201
0.42511177
0.45463456
0.486667
0.52142245
0.55913238
0.60004798
0.64444178
0.69260948
0.74487191
0.8015772
0.86310306
0.92985932
1.0022907
1.0808795
1.1661495
1.2586684
1.3590527
1.4679711
1.5861489
1.7143735
1.853499
2.0044521
2.1682383
2.3459485
2.5387666
2.7479767
2.9749723
3.2212655
3.4884966
3.7784454
4.0930432
4.4343851
4.8047445
5.2065879
5.6425916
6.1156592
6.6289411
7.1858556
7.7901115
8.4457326
9.1570849
9.9289056
10.766334
0.30843537
0.32806462
0.34936245
0.37247071
0.39754332
0.42474725
0.4542637
0.48628927
0.52103727
0.55873912
0.59964596
0.64403025
0.69218763
0.74443888
0.80113203
0.86264473
0.92938672
1.0018026
1.0803746
1.1656263
1.2581255
1.3584884
1.4673835
1.5855361
1.7137333
1.8528291
2.0037499
2.1675011
2.3451734
2.5379502
2.7471156
2.9740628
3.2203033
3.4874773
3.7773641
4.0918945
4.4331633
4.8034434
5.2052008
5.641111
6.1140772
6.6272491
7.1840441
7.7881703
8.4436506
9.1548502
9.9265051
10.763754
0.30809381
0.32771884
0.3490121
0.37211541
0.39718264
0.42438074
0.45389086
0.48590957
0.52065013
0.55834391
0.59924198
0.64361678
0.69176386
0.74400393
0.80068496
0.86218451
0.92891223
1.0013126
1.0798679
1.1651014
1.2575808
1.3579223
1.4667941
1.5849215
1.7130914
1.8521575
2.0030461
2.1667623
2.3443967
2.5371323
2.7462531
2.9731518
3.2193397
3.4864565
3.7762814
4.0907445
4.4319404
4.8021412
5.2038126
5.6396295
6.1124944
6.6255563
7.1822319
7.7862285
8.4415682
9.1526152
9.9241044
10.761173
0.30775031
0.32737113
0.34865983
0.37175818
0.39682004
0.42401231
0.45351612
0.48552797
0.52026109
0.5579468
0.59883613
0.64320143
0.69133822
0.74356712
0.80023604
0.86172245
0.92843592
1.0008208
1.0793594
1.1645747
1.2570344
1.3573544
1.466203
1.5843052
1.7124478
1.8514842
2.0023406
2.1660219
2.3436184
2.536313
2.7453891
2.9722393
3.2183747
3.4854345
3.7751974
4.0895934
4.4307163
4.8008379
5.2024234
5.638147
6.1109106
6.6238626
7.180419
7.7842861
8.4394854
9.1503798
9.9217035
10.758593
0.30740493
0.32702155
0.34830569
0.3713991
0.39645558
0.42364203
0.45313953
0.48514453
0.51987021
0.55754787
0.59842846
0.64278428
0.69091078
0.74312853
0.79978535
0.86125863
0.92795786
1.0003273
1.0788491
1.1640462
1.2564862
1.3567849
1.4656103
1.5836873
1.7118025
1.8508093
2.0016336
2.16528
2.3428386
2.5354921
2.7445236
2.9713255
3.2174083
3.4844111
3.7741122
4.088441
4.429491
4.7995336
5.2010331
5.6366636
6.109326
6.6221682
7.1786055
7.7823432
8.437402
9.1481441
9.9193024
10.756012
0.30705775
0.32667017
0.34794975
0.37103821
0.39608934
0.42326997
0.45276115
0.48475931
0.51947757
0.55714718
0.59801903
0.64236538
0.6904816
0.7426882
0.79933293
0.86079311
0.92747811
0.99983215
1.0783372
1.1635162
1.2559365
1.3562137
1.4650159
1.5830678
1.7111558
1.8501329
2.0009251
2.1645367
2.3420574
2.5346698
2.7436568
2.9704103
3.2164407
3.4833865
3.7730258
4.0872875
4.4282647
4.7982282
5.199642
5.6351793
6.1077406
6.6204731
7.1767912
7.7803997
8.4353182
9.145908
9.9169011
10.753432
0.30670883
0.32631705
0.34759207
0.3706756
0.39572137
0.42289619
0.45238107
0.48437239
0.51908323
0.55674479
0.59760791
0.6419448
0.69005075
0.74224622
0.79887887
0.86032594
0.92699673
0.99933535
1.0778237
1.1629845
1.2553851
1.355641
1.4644201
1.5824468
1.7105075
1.8494551
2.0002151
2.1637919
2.3412748
2.5338462
2.7427887
2.9694939
3.2154718
3.4823607
3.7719382
4.0861329
4.4270373
4.7969218
5.1982498
5.6336941
6.1061545
6.6187773
7.1749764
7.7784557
8.433234
9.1436716
9.9144995
10.750851
0.30635824
0.32596226
0.34723273
0.37031132
0.39535174
0.42252075
0.45199933
0.48398382
0.51868725
0.55634077
0.59719517
0.6415226
0.68961829
0.74180263
0.79842321
0.85985719
0.92651378
0.99883699
1.0773086
1.1624513
1.2548323
1.3550668
1.4638227
1.5818244
1.7098578
1.8487758
1.9995038
2.1630457
2.3404909
2.5330213
2.7419193
2.9685762
3.2145017
3.4813338
3.7708495
4.0849772
4.4258089
4.7956145
5.1968568
5.6322081
6.1045675
6.6170808
7.173161
7.7765112
8.4311494
9.141435
9.9120978
10.74827
0.32560586
0.34687179
0.36994544
0.39498051
0.42214372
0.451616
0.48359366
0.51828969
0.55593517
0.59678087
0.64109884
0.68918429
0.74135751
0.79796602
0.85938692
0.92602932
0.99833714
1.076792
1.1619166
1.2542779
1.3544912
1.463224
1.5812005
1.7092067
1.8480952
1.9987911
2.1622983
2.3397057
2.5321951
2.7410487
2.9676573
3.2135305
3.4803057
3.7697598
4.0838205
4.4245795
4.7943063
5.195463
5.6307213
6.1029798
6.6153836
7.1713449
7.7745662
8.4290644
9.139198
9.9096959
10.745689
0.32524792
0.3465093
0.36957803
0.39460775
0.42176516
0.45123115
0.48320199
0.51789062
0.55552807
0.59636506
0.64067359
0.6887488
0.7409109
0.79750737
0.85891519
0.92554341
0.99783585
1.0762741
1.1613806
1.2537222
1.3539142
1.4626238
1.5805753
1.7085543
1.8474133
1.9980772
2.1615495
2.3389193
2.5313678
2.7401769
2.9667373
3.2125582
3.4792766
3.768669
4.0826628
4.4233492
4.7929971
5.1940683
5.6292337
6.1013915
6.6136858
7.1695284
7.7726207
8.426979
9.1369607
9.9072938
10.743108
0.32488849
0.34614533
0.36920914
0.39423351
0.42138513
0.45084484
0.48280886
0.51749009
0.55511953
0.59594782
0.64024691
0.68831188
0.74046288
0.79704731
0.85844207
0.92505612
0.99733319
1.0757547
1.1608431
1.2531652
1.3533359
1.4620224
1.5799488
1.7079006
1.8467301
1.997362
2.1607996
2.3381317
2.5305393
2.739304
2.9658163
3.2115848
3.4782465
3.7675773
4.0815042
4.4221181
4.7916872
5.1926728
5.6277454
6.0998024
6.6119874
7.1677113
7.7706748
8.4248932
9.1347232
9.9048916
10.740527
0.32452762
0.34577992
0.3688388
0.39385784
0.42100367
0.45045709
0.4824143
0.51708814
0.55470957
0.59552916
0.63981882
0.68787356
0.74001347
0.79658586
0.85796757
0.92456746
0.99682917
1.0752341
1.1603044
1.2526068
1.3527562
1.4614197
1.5793211
1.7072457
1.8460457
1.9966456
2.1600485
2.3373429
2.5297096
2.73843
2.9648941
3.2106104
3.4772153
3.7664846
4.0803447
4.420886
4.7903764
5.1912766
5.6262564
6.0982127
6.6102884
7.1658937
7.7687284
8.4228071
9.1324854
9.9024891
10.737946
0.32416531
0.34541308
0.36846704
0.39348074
0.42062078
0.45006793
0.48201833
0.51668479
0.55429821
0.59510911
0.63938935
0.68743387
0.7395627
0.79612306
0.85749172
0.92407746
0.99632383
1.0747121
1.1597643
1.2520472
1.3521753
1.4608157
1.5786921
1.7065896
1.8453601
1.995928
2.1592963
2.336553
2.5288789
2.7375549
2.9639709
3.209635
3.4761832
3.7653909
4.0791843
4.4196531
4.7890648
5.1898795
5.6247667
6.0966224
6.6085888
7.1640755
7.7667816
8.4207206
9.1302473
9.9000865
10.735365
0.32380163
0.34504487
0.36809392
0.39310229
0.42023655
0.44967743
0.48162102
0.5162801
0.55388551
0.59468773
0.63895856
0.68699286
0.73911061
0.79565896
0.85701458
0.92358619
0.99581721
1.0741888
1.159223
1.2514863
1.3515932
1.4602106
1.5780619
1.7059323
1.8446734
1.9952093
2.1585429
2.335762
2.5280471
2.7366788
2.9630467
3.2086585
3.4751502
3.7642964
4.078023
4.4184193
4.7877524
5.1884818
5.6232763
6.0950314
6.6068887
7.1622569
7.7648344
8.4186338
9.128009
9.8976838
10.732784
0.32343667
0.34467538
0.36771951
0.39272255
0.41985103
0.44928565
0.48122244
0.51587415
0.55347156
0.59426511
0.63852652
0.68655062
0.73865729
0.79519363
0.85653623
0.9230937
0.9953094
1.0736644
1.1586805
1.2509242
1.3510099
1.4596043
1.5774306
1.7052739
1.8439855
1.9944896
2.1577885
2.33497
2.5272143
2.7358017
2.9621215
3.2076812
3.4741162
3.763201
4.0768609
4.4171848
4.7864393
5.1870834
5.6217852
6.0934398
6.605188
7.1604378
7.7628867
8.4165466
9.1257704
9.8952808
10.730202
0.32307049
0.34430467
0.3673439
0.39234162
0.41946432
0.44889267
0.48082267
0.51546701
0.55305642
0.5938413
0.63809331
0.68610721
0.73820282
0.79472715
0.85605674
0.92260009
0.99480046
1.0731388
1.158137
1.2503611
1.3504256
1.4589969
1.5767983
1.7046144
1.8432967
1.9937688
2.1570331
2.3341771
2.5263805
2.7349237
2.9611955
3.206703
3.4730814
3.7621048
4.075698
4.4159495
4.7851254
5.1856843
5.6202936
6.0918477
6.6034868
7.1586182
7.7609387
8.4144591
9.1235316
9.8928777
10.727621
0.32270318
0.34393284
0.36696716
0.39195956
0.41907649
0.44849858
0.48042179
0.51505876
0.55264019
0.5934164
0.63765901
0.68566271
0.73774726
0.7942596
0.85557618
0.92210541
0.99429048
1.0726122
1.1575924
1.249797
1.3498402
1.4583885
1.5761649
1.703954
1.8426069
1.9930471
2.1562768
2.3333832
2.5255459
2.7340448
2.9602686
3.2057241
3.4720459
3.7610078
4.0745344
4.4147136
4.783811
5.1842846
5.6188014
6.0902551
6.6017852
7.1567983
7.7589903
8.4123714
9.1212925
9.8904745
10.725039
0.32233481
0.34355995
0.36658937
0.39157645
0.41868761
0.44810344
0.48001987
0.51464948
0.55222292
0.59299047
0.63722369
0.6852172
0.7372907
0.79379105
0.85509462
0.92160975
0.99377952
1.0720847
1.1570468
1.2492319
1.3492539
1.4577792
1.5755307
1.7032927
1.8419162
1.9923246
2.1555197
2.3325885
2.5247105
2.7331652
2.959341
3.2047443
3.4710096
3.7599102
4.0733701
4.413477
4.7824959
5.1828843
5.6173086
6.0886619
6.6000831
7.154978
7.7570416
8.4102834
9.1190533
9.8880711
10.722458
0.32196547
0.34318609
0.36621061
0.39119237
0.41829777
0.44770734
0.47961698
0.51423923
0.5518047
0.59256359
0.63678742
0.68477075
0.7368332
0.79332157
0.85461215
0.92111318
0.99326765
1.0715562
1.1565003
1.2486659
1.3486668
1.4571691
1.5748956
1.7026306
1.8412247
1.9916012
2.1547618
2.3317931
2.5238743
2.7322848
2.9584126
3.2037639
3.4699727
3.7588119
4.0722053
4.4122399
4.7811803
5.1814835
5.6158154
6.0870684
6.5983806
7.1531573
7.7550926
8.4081951
9.1168138
9.8856676
10.719876
0.30204131
0.32159522
0.34281133
0.36583094
0.39080739
0.41790703
0.44731035
0.47921321
0.51382811
0.55138559
0.59213584
0.63635028
0.68432343
0.73637484
0.79285124
0.85412882
0.92061576
0.99275495