/*--------------------------------*- C++ -*----------------------------------*\
| =========                 |                                                 |
| \\      /  F ield         | OpenFOAM: The Open Source CFD Toolbox           |
|  \\    /   O peration     | Version:  2506                                  |
|   \\  /    A nd           | Website:  www.openfoam.com                      |
|    \\/     M anipulation  |                                                 |
\*---------------------------------------------------------------------------*/
FoamFile
{
    version     2.0;
    format      ascii;
    arch        "LSB;label=32;scalar=64";
    class       volScalarField;
    location    "0.4";
    object      Ma;
}
// * * * * * * * * * * * * * * * * * * * * * * * * * * * * * * * * * * * * * //

dimensions      [0 0 0 0 0 0 0];

internalField   nonuniform List<scalar> 
1375
(
0.29640468
0.29602371
0.29562429
0.29519956
0.29469955
0.29407614
0.29332439
0.29249799
0.29161402
0.29060305
0.28940753
0.28801157
0.28639977
0.28453637
0.2823657
0.27977666
0.27661271
0.27277383
0.26813817
0.26239663
0.25502295
0.24519612
0.23160441
0.21189109
0.18040105
0.13477942
0.29197807
0.2976024
0.30039539
0.29956448
0.29880505
0.29858839
0.29872306
0.29889846
0.29895952
0.29892376
0.29883534
0.29871796
0.29859051
0.29846208
0.29833516
0.29820566
0.29806901
0.29792133
0.29775534
0.29755867
0.29732899
0.29707521
0.29679693
0.29646959
0.29609282
0.29569591
0.29526934
0.29476182
0.29413014
0.29337536
0.29255115
0.29166974
0.29066106
0.28946923
0.2880788
0.28647526
0.28462087
0.28245816
0.2798844
0.27674641
0.27292436
0.26828756
0.26254678
0.2551902
0.24540707
0.23188959
0.21234892
0.18128615
0.13653142
0.29220378
0.29772123
0.30039109
0.29955833
0.29883202
0.29864482
0.29875105
0.2988741
0.29891394
0.29888074
0.29880684
0.29871353
0.2986078
0.29848831
0.29836215
0.29823396
0.29809868
0.29795076
0.29778812
0.2976035
0.29739081
0.29715135
0.29688103
0.29655744
0.29618528
0.29579224
0.29536482
0.29485118
0.29421467
0.29346622
0.29265763
0.2917891
0.29079081
0.28961315
0.28824037
0.28665567
0.28482049
0.28267964
0.28013828
0.27704547
0.27325823
0.26863822
0.26292301
0.25563767
0.24598253
0.23265825
0.2134563
0.18313697
0.1402766
0.29258848
0.29792186
0.30038587
0.29953937
0.2987394
0.29863433
0.29876561
0.29891847
0.29891663
0.29887378
0.29880709
0.29872995
0.29864715
0.29854836
0.29843141
0.2983051
0.29817104
0.29802269
0.29785623
0.29766854
0.29745579
0.29722058
0.29695803
0.29664339
0.29628282
0.29590168
0.29548535
0.29498199
0.29435565
0.2936247
0.29284056
0.29199163
0.29101124
0.28985778
0.28851332
0.28695598
0.28515153
0.28304818
0.2805587
0.27752671
0.27379237
0.26921337
0.26355331
0.2564043
0.24696748
0.23399575
0.21542079
0.18632566
0.14660095
0.29309193
0.29815168
0.3003611
0.29953436
0.2987465
0.29868083
0.298804
0.29893512
0.2989253
0.29887795
0.29881231
0.29873661
0.298656
0.2985705
0.29847532
0.2983631
0.29823347
0.29808423
0.29791368
0.2977225
0.29751079
0.29728469
0.29703776
0.29674158
0.29640294
0.29604497
0.29565173
0.29517023
0.29456696
0.29386741
0.29311668
0.29229346
0.29133913
0.29021958
0.28891369
0.28739608
0.28563682
0.28359417
0.28117452
0.27822078
0.27455803
0.27003435
0.26450507
0.25757811
0.24842516
0.23592959
0.2181812
0.19077499
0.15490414
0.29370055
0.29838295
0.3002565
0.29944278
0.29870714
0.29873552
0.2988339
0.29889493
0.29887158
0.29882308
0.29876534
0.29869927
0.29863033
0.29856386
0.29848887
0.29839116
0.298271
0.29813018
0.29797055
0.29779307
0.29759532
0.29738501
0.29715599
0.2968812
0.29657057
0.29624258
0.29587567
0.29541635
0.29483974
0.29417959
0.29346897
0.29267877
0.2917591
0.29068091
0.28942139
0.28795389
0.28625812
0.28429152
0.28195876
0.27909044
0.27549727
0.27107328
0.26576145
0.2590518
0.25025863
0.23834644
0.22154804
0.19658288
0.1651444
0.29434613
0.29860426
0.30013043
0.29936321
0.29863979
0.2986714
0.29878444
0.29884333
0.29881763
0.29877407
0.2987285
0.29868204
0.29863396
0.2985784
0.29851063
0.29842701
0.29832495
0.29820378
0.29806697
0.29791133
0.29772933
0.29753391
0.29732068
0.29706516
0.29678031
0.29647968
0.29613616
0.29569887
0.29515476
0.29454151
0.29387657
0.29312798
0.29225215
0.29122175
0.29001459
0.288609
0.2869918
0.28511138
0.28287407
0.28008542
0.27658613
0.27232645
0.26725418
0.26080246
0.25246032
0.2412476
0.22573156
0.20315853
0.1768404
0.29495357
0.29878529
0.2999531
0.29924128
0.29856655
0.29863817
0.29878685
0.29884741
0.29882866
0.29879149
0.29875155
0.29870921
0.29866715
0.29862146
0.29856412
0.29849477
0.29841292
0.2983145
0.29819898
0.29805879
0.29788963
0.29770832
0.29750857
0.29727158
0.2970127
0.29673945
0.29641947
0.2960085
0.29550581
0.29494545
0.29433033
0.29363143
0.29280666
0.29182843
0.29068011
0.28935048
0.28781753
0.28603811
0.28388814
0.2811957
0.27780923
0.27377515
0.26888065
0.2628016
0.25496539
0.24459217
0.23057694
0.2102971
0.18967487
0.29544346
0.29894034
0.29974546
0.2990885
0.2985207
0.29861405
0.29876772
0.29883797
0.29883946
0.29883048
0.29880618
0.2987709
0.29873369
0.29869137
0.29863969
0.29858056
0.29851306
0.29843371
0.29833761
0.29821213
0.29805755
0.29789424
0.29771451
0.29749977
0.29726685
0.29702035
0.29672505
0.29634648
0.29589187
0.29538618
0.29482462
0.29418228
0.29341254
0.29248994
0.29141097
0.29016564
0.28872672
0.28704453
0.28498948
0.28240677
0.27914414
0.27536633
0.2707182
0.26505064
0.25771583
0.24804219
0.23550267
0.21848132
0.20330884
0.29583564
0.29904234
0.29954825
0.29894724
0.2984803
0.29858216
0.29873761
0.29881811
0.2988408
0.29885557
0.29884392
0.29881925
0.29878991
0.29875167
0.29870368
0.29865597
0.29860628
0.29854973
0.29847394
0.2983674
0.29823543
0.29809723
0.29793735
0.29774317
0.29753759
0.29731902
0.29705015
0.2967083
0.29630373
0.29585306
0.29535116
0.29477101
0.29405718
0.2931966
0.29219876
0.29104237
0.28970092
0.28811407
0.28618382
0.28369252
0.28065705
0.27707864
0.27283245
0.26759649
0.26085395
0.25180827
0.24078211
0.22729426
0.21781525
0.29613478
0.29918299
0.29932513
0.29881111
0.2984598
0.29856481
0.29871054
0.29878884
0.29883251
0.29885893
0.29885212
0.29884256
0.29882181
0.29878651
0.29874739
0.29871778
0.29869104
0.29866004
0.29860758
0.2985213
0.29840922
0.29829617
0.29815908
0.29799188
0.29781921
0.29763327
0.29739665
0.29709462
0.29673783
0.29634317
0.29590632
0.2953881
0.29472925
0.29393974
0.29303009
0.29196664
0.29071701
0.28925241
0.28742588
0.28505714
0.28230704
0.27897853
0.27510254
0.27023683
0.26413001
0.25637435
0.24683229
0.23665508
0.23311227
0.2963854
0.29932002
0.29908606
0.29864096
0.29842975
0.29854857
0.29869863
0.29878515
0.29884204
0.2988668
0.29886752
0.29887036
0.29885631
0.29882522
0.29879498
0.29877976
0.29877131
0.29876014
0.29872759
0.29866178
0.29857378
0.29849018
0.2983794
0.29824488
0.29811009
0.29795956
0.2977606
0.29750165
0.29719322
0.29685799
0.2964866
0.2960229
0.29541935
0.29471142
0.29389553
0.29292054
0.29177047
0.29044692
0.28869857
0.28656401
0.2840077
0.28109894
0.2775163
0.27311957
0.26752257
0.26140921
0.25372832
0.24606828
0.24888697
0.29662677
0.29939366
0.29890682
0.29845989
0.29842029
0.2985581
0.29870435
0.2987973
0.29886252
0.29888724
0.29890222
0.29891593
0.29890595
0.29888053
0.2988593
0.2988531
0.29886023
0.29886204
0.29884707
0.29880588
0.29874927
0.2986944
0.2986059
0.29850346
0.29840748
0.29828897
0.29812657
0.29791009
0.29765587
0.29738932
0.29708169
0.29666341
0.29611987
0.29550539
0.29478031
0.29388907
0.29288276
0.29165577
0.29007879
0.28813697
0.28588427
0.28323883
0.28003303
0.27613729
0.27151377
0.26626515
0.2603907
0.25579434
0.26489568
0.29683172
0.29934662
0.29875602
0.29832229
0.29841749
0.29857452
0.29869815
0.29880558
0.29888002
0.29891155
0.29894356
0.2989636
0.29895721
0.29894239
0.29893654
0.29893718
0.29896155
0.29897099
0.29897452
0.29894835
0.29893398
0.29890599
0.29884033
0.29876523
0.29869992
0.29861263
0.29848417
0.29830581
0.29811453
0.29792323
0.29767445
0.29729866
0.29682837
0.29631172
0.29567104
0.29488215
0.29401413
0.29289788
0.29150341
0.28976802
0.28788333
0.28551027
0.28269615
0.27943455
0.27576518
0.2720158
0.26735851
0.26556352
0.28098133
0.29695216
0.29922171
0.29858076
0.29818594
0.29836104
0.29855859
0.2986836
0.2988007
0.29887684
0.29892108
0.29897037
0.29899477
0.2989988
0.29899084
0.29899564
0.29901348
0.29904777
0.29906759
0.29908099
0.29907781
0.29910293
0.29910008
0.29906719
0.29902601
0.29898807
0.29893219
0.29883593
0.29869588
0.29856872
0.29844941
0.29825505
0.29792627
0.29754515
0.29712408
0.29656861
0.29590544
0.29515323
0.29420873
0.29294184
0.29152899
0.2899177
0.2880566
0.28558334
0.28295697
0.27991802
0.27775581
0.27543914
0.27584038
0.2962416
0.29704044
0.29905331
0.29838757
0.29805743
0.29824631
0.29849924
0.29866333
0.29879636
0.29887301
0.29892889
0.29899132
0.29901485
0.29902742
0.29902521
0.29903477
0.29907781
0.29911567
0.29915123
0.29916193
0.29919338
0.29923435
0.2992633
0.29927452
0.29928188
0.29927568
0.29925026
0.29918696
0.29909477
0.29902497
0.29896579
0.29881794
0.29855089
0.29826724
0.29793968
0.29748215
0.29695473
0.29634798
0.29553483
0.29445414
0.29339475
0.29188583
0.29077041
0.28890187
0.28686407
0.28481236
0.2838618
0.28368562
0.28527715
0.31067669
0.29713414
0.29890571
0.29825543
0.2979879
0.29824611
0.2984902
0.29866879
0.29880704
0.29888175
0.2989479
0.29901276
0.29904148
0.29905172
0.29906103
0.29908396
0.29913653
0.29918196
0.29922846
0.29924953
0.29931018
0.29935562
0.29940417
0.29945684
0.29951864
0.29955449
0.29955394
0.29952665
0.299499
0.29949556
0.29947073
0.29936593
0.29917813
0.29899242
0.29875858
0.29840627
0.29801578
0.297557
0.296854
0.29610389
0.29514611
0.29420435
0.29358781
0.29196572
0.29051707
0.28947757
0.28976897
0.29307288
0.29619743
0.32277904
0.29714595
0.29867196
0.29808278
0.29798405
0.29828834
0.29852894
0.29869736
0.29882846
0.29890276
0.29897733
0.29903276
0.29907634
0.29908205
0.29909822
0.29914064
0.2991933
0.29923615
0.29929519
0.29935698
0.299433
0.29948865
0.29954834
0.29962487
0.29972808
0.29980364
0.2998368
0.29984908
0.29988383
0.29996036
0.29996778
0.29990638
0.29980885
0.29972801
0.29958538
0.2993626
0.29911895
0.29876622
0.29828542
0.29777342
0.29693317
0.29686821
0.29689199
0.2955777
0.29444378
0.29456469
0.29615702
0.30282456
0.30514745
0.33240156
0.29710904
0.29825204
0.29785091
0.29796616
0.29828618
0.29855502
0.29873686
0.29884925
0.29892597
0.29900075
0.2990543
0.29909907
0.29911556
0.29913399
0.29917933
0.29924147
0.29928535
0.29935058
0.29944476
0.29952811
0.29962037
0.29970695
0.29980132
0.29992041
0.30002808
0.30010791
0.30015927
0.30025781
0.30039161
0.3004606
0.30044639
0.30044829
0.3004675
0.3004179
0.30035258
0.30024754
0.30005375
0.29978066
0.29940369
0.29917554
0.29912289
0.29965919
0.29997755
0.29968747
0.30114547
0.30175272
0.31127478
0.3147339
0.33946311
0.29736255
0.29774532
0.29755157
0.29788662
0.29825336
0.29854183
0.29874665
0.29886968
0.29895172
0.29901942
0.29908042
0.29910979
0.2991433
0.29917344
0.29921683
0.29927604
0.29934026
0.29940403
0.29950347
0.29959547
0.29972447
0.29984878
0.2999776
0.30010703
0.30024127
0.30036806
0.30046312
0.30063508
0.30079694
0.30093676
0.30100608
0.30110412
0.30120873
0.30125818
0.30134693
0.30139003
0.30138292
0.30136275
0.30125671
0.30165486
0.30213312
0.3020459
0.30295703
0.30417741
0.30582352
0.3086102
0.32734813
0.32446841
0.34359016
0.34594964
0.32864159
0.33210058
0.31789985
0.31156816
0.30797305
0.30546142
0.30591298
0.30798923
0.30413865
0.30335878
0.3029265
0.30272073
0.30256907
0.30234994
0.30214226
0.301962
0.30176959
0.30156826
0.30139468
0.30121619
0.30101264
0.30078564
0.30063195
0.30046386
0.30029726
0.30015116
0.29998081
0.29982626
0.29968917
0.29959601
0.29948567
0.29939663
0.29932356
0.29927766
0.29921671
0.29915525
0.29911893
0.29908753
0.29903976
0.29898109
0.29890021
0.29876748
0.29854951
0.29826435
0.29790784
0.29755356
0.29716197
0.29817279
0.3479543
0.33236785
0.33086206
0.32367605
0.32158707
0.31304647
0.31269871
0.3135454
0.30635464
0.30632171
0.3053062
0.30443733
0.30406528
0.30370978
0.30334536
0.30301148
0.30270569
0.30242944
0.30212918
0.30186668
0.30165557
0.30138754
0.30112319
0.30089211
0.30069543
0.30050141
0.30032258
0.30013091
0.29995682
0.29981482
0.29970181
0.29958437
0.29946702
0.29940585
0.29931355
0.2992352
0.29916682
0.29913279
0.29909721
0.29906796
0.2990078
0.29893116
0.29879953
0.29857794
0.29831434
0.29798655
0.29768772
0.29726511
0.29938424
0.35041618
0.33967847
0.33368551
0.3244207
0.32809104
0.31771579
0.31852617
0.31319376
0.30586472
0.30805395
0.30666172
0.30609643
0.30536963
0.30485263
0.30434423
0.30387538
0.30347299
0.30309363
0.30270359
0.30237436
0.30209905
0.30177222
0.30146186
0.30115835
0.30092865
0.30071257
0.30049185
0.30029012
0.30009735
0.2999291
0.29976912
0.29966925
0.29956696
0.29945957
0.29931681
0.2992476
0.29918245
0.29912831
0.29910878
0.29908283
0.29903075
0.29896753
0.29884485
0.2986349
0.29839472
0.2980941
0.29789129
0.2974986
0.30005653
0.35142459
0.34892015
0.34169566
0.32602599
0.32763757
0.31908296
0.31564156
0.31361944
0.31352041
0.3104353
0.30843889
0.30749398
0.30668566
0.30604791
0.30538899
0.3048285
0.30427238
0.30377256
0.30329083
0.30287639
0.30251495
0.3021636
0.30180665
0.3014378
0.30115272
0.30089365
0.30064306
0.30042036
0.30020177
0.30001311
0.29983399
0.2997343
0.29964557
0.2994594
0.29932816
0.29926209
0.29919339
0.29912709
0.29911503
0.29909693
0.29905717
0.29899553
0.29889909
0.29869892
0.29847448
0.29819659
0.29807905
0.29773726
0.29994616
0.34748204
0.35186509
0.34304001
0.32947736
0.32861121
0.32045678
0.3158323
0.31617586
0.3200166
0.31268005
0.31172457
0.30917771
0.30813339
0.30716508
0.30640949
0.3057109
0.30504911
0.30443898
0.30387729
0.30339617
0.30294354
0.30254127
0.30212458
0.30170765
0.30137204
0.30107784
0.3007997
0.30054273
0.30030803
0.30010839
0.29993185
0.29979396
0.2996634
0.29947672
0.29935788
0.29927432
0.29920071
0.29914021
0.2991292
0.29912423
0.29907646
0.29900532
0.29893543
0.29875563
0.29856021
0.29828576
0.29823486
0.29791121
0.29977673
0.34856995
0.35187636
0.34441567
0.33339894
0.33233385
0.32399658
0.32135308
0.32191457
0.31726035
0.31407805
0.31341409
0.31115058
0.30962528
0.30837322
0.30746693
0.30657344
0.305821
0.30511928
0.30444653
0.30388289
0.30337688
0.30291382
0.30243264
0.30197263
0.30158789
0.30127499
0.30098381
0.30070054
0.30043639
0.30020501
0.3000034
0.29983436
0.29968246
0.29951449
0.29938849
0.29928857
0.29921332
0.29917479
0.29914436
0.29912235
0.29907655
0.29901807
0.29895666
0.2988094
0.29865323
0.29837262
0.29835633
0.29806961
0.29975699
0.33628955
0.32813042
0.33174167
0.32247444
0.31515117
0.31585903
0.31327789
0.31239751
0.31085814
0.30960504
0.30846029
0.30752087
0.30662415
0.30583289
0.30504361
0.30432792
0.30373501
0.30326105
0.30275948
0.30226043
0.30180777
0.3014366
0.30114256
0.30083806
0.30055066
0.30027446
0.30002721
0.29984911
0.29970986
0.29956935
0.29943329
0.29931399
0.29923269
0.29919767
0.29913676
0.29910684
0.29907582
0.29904278
0.29898689
0.29886381
0.29873789
0.29847019
0.29849307
0.29824571
0.29979699
0.31196132
0.31068636
0.30938973
0.30825607
0.30734864
0.30643763
0.30559655
0.30483978
0.30412075
0.30352893
0.30298828
0.30249439
0.3020149
0.30159456
0.30126222
0.30092256
0.30063843
0.30036379
0.30010124
0.29988281
0.29971379
0.29960491
0.29949382
0.29935934
0.299277
0.29919278
0.29912118
0.29908942
0.29907811
0.29905549
0.2990235
0.29891928
0.29881129
0.29856348
0.29865924
0.29841908
0.2998668
0.30320725
0.30265
0.30218206
0.30174938
0.30137856
0.30103963
0.30072098
0.30047953
0.30026414
0.29996745
0.29971697
0.29961225
0.29953885
0.29941173
0.29928349
0.29918486
0.29912073
0.29908693
0.29908029
0.29904706
0.2990414
0.29896046
0.29888011
0.29864853
0.29874119
0.29845959
0.29996513
0.29955465
0.29942761
0.2992678
0.29918229
0.29912119
0.29908361
0.29908262
0.29904664
0.29905334
0.29898188
0.2989411
0.29872526
0.29874476
0.29846503
0.30008369
)
;

boundaryField
{
    Side
    {
        type            empty;
    }
    Inlet
    {
        type            calculated;
        value           nonuniform List<scalar> 
29
(
0.29950485
0.29945441
0.29937935
0.2992911
0.2992034
0.29912637
0.29906378
0.29900967
0.2989629
0.29891941
0.29888138
0.29885637
0.29883764
0.29880755
0.29877622
0.29875729
0.29871186
0.29865728
0.29870209
0.29883738
0.29944827
0.29978504
0.29973025
0.2996442
0.29963338
0.29965305
0.29968737
0.29973553
0.29979392
)
;
    }
    Airfoil
    {
        type            calculated;
        value           uniform 0;
    }
    Outlet
    {
        type            calculated;
        value           nonuniform List<scalar> 0();
    }
    procBoundary0to1
    {
        type            processor;
        value           nonuniform List<scalar> 
53
(
0.35088232
0.35270343
0.34729548
0.33747087
0.33747087
0.33784649
0.32937654
0.33417569
0.32236859
0.31748768
0.31854298
0.31444249
0.31369548
0.31369548
0.31357302
0.31184231
0.31044379
0.30906688
0.30802946
0.30705204
0.30606844
0.30522325
0.30452237
0.30385975
0.30385975
0.30356073
0.30294422
0.30237817
0.30189032
0.30150569
0.30114359
0.30078872
0.30051556
0.30025972
0.30003723
0.29974233
0.29962546
0.29962546
0.29954797
0.2994239
0.29927662
0.29918468
0.29911304
0.29907754
0.29909385
0.29905618
0.29906713
0.29899863
0.29899308
0.29879317
0.29877374
0.29851157
0.30019194
)
;
    }
    procBoundary0to7
    {
        type            processor;
        value           nonuniform List<scalar> 
50
(
0.2964612
0.29608271
0.29568537
0.29525728
0.29475249
0.29412652
0.29337501
0.29255063
0.29166771
0.29065781
0.28946492
0.28807396
0.28646666
0.28460825
0.28244732
0.27986338
0.27670019
0.2728754
0.26826643
0.26255518
0.25521765
0.24543552
0.23192554
0.21235752
0.18124505
0.1365375
0.29189848
0.2975596
0.30040819
0.29956521
0.29873971
0.29859769
0.29876115
0.29895453
0.29894989
0.2988931
0.29880448
0.29871253
0.29861933
0.29851115
0.29838638
0.29824849
0.29810349
0.29794914
0.29777098
0.29755249
0.29729939
0.29702801
0.29673838
0.29673838
)
;
    }
}


// ************************************************************************* //
