/*--------------------------------*- C++ -*----------------------------------*\
| =========                 |                                                 |
| \\      /  F ield         | OpenFOAM: The Open Source CFD Toolbox           |
|  \\    /   O peration     | Version:  2506                                  |
|   \\  /    A nd           | Website:  www.openfoam.com                      |
|    \\/     M anipulation  |                                                 |
\*---------------------------------------------------------------------------*/
FoamFile
{
    version     2.0;
    format      ascii;
    arch        "LSB;label=32;scalar=64";
    class       volScalarField;
    location    "1.7";
    object      alphat;
}
// * * * * * * * * * * * * * * * * * * * * * * * * * * * * * * * * * * * * * //

dimensions      [1 -1 -1 0 0 0 0];

internalField   nonuniform List<scalar> 
1376
(
0.026479838
0.030791931
0.037887933
0.046898548
0.057368736
0.068525456
0.079501436
0.027039195
0.031591396
0.039018308
0.048354584
0.059065032
0.070330221
0.081285816
0.091310522
0.1000495
0.10733614
0.11313725
0.11755906
0.12074452
0.12270449
0.12381957
0.12432138
0.12442619
0.12431046
0.12409982
0.027582145
0.032372181
0.040116869
0.049759479
0.060691584
0.072052699
0.082981981
0.092881754
0.10142306
0.10846529
0.11400399
0.11817864
0.12110313
0.12287052
0.12384003
0.1242461
0.12429776
0.12416003
0.1239457
0.12371935
0.12351859
0.12338469
0.12330896
0.12322993
0.12317536
0.12314567
0.12313212
0.028121578
0.033148883
0.04119748
0.05112277
0.06225001
0.073685595
0.084575378
0.094344999
0.10269067
0.10949686
0.11478566
0.1187268
0.1214103
0.12300196
0.12384096
0.12416267
0.12416866
0.12401262
0.12379527
0.12357354
0.12338789
0.12328051
0.12320375
0.1231264
0.12307995
0.12305519
0.12304482
0.12304537
0.12305376
0.12306745
0.12308562
0.12310795
0.12313384
0.12316372
0.028665497
0.0339269
0.042267808
0.052452728
0.063746106
0.075230246
0.086062773
0.09569375
0.10384424
0.1104225
0.11547456
0.11919756
0.12166244
0.123096
0.12382016
0.12406931
0.12403724
0.12386647
0.12364689
0.12343148
0.12326747
0.12317927
0.12309677
0.1230258
0.12298648
0.12296606
0.12295873
0.12296123
0.12297093
0.12298597
0.12300537
0.12302865
0.12305557
0.12308646
0.12312185
0.12316204
0.12320785
0.12325993
0.029202022
0.034688218
0.043312438
0.053738733
0.065173966
0.076684019
0.087443295
0.096928053
0.10488429
0.11124292
0.11607174
0.11959251
0.12186075
0.12315332
0.12377762
0.12396543
0.12390242
0.12372028
0.12350014
0.12329482
0.12315632
0.12307682
0.1229892
0.12292735
0.1228941
0.12287769
0.12287314
0.12287749
0.12288865
0.12290497
0.12292559
0.12294996
0.12297786
0.12300973
0.12304598
0.12308692
0.12313348
0.12318657
0.12324689
0.12331571
0.12339566
0.12348948
0.029706662
0.03540353
0.044304373
0.054960993
0.066523181
0.078045133
0.088721624
0.098056811
0.10582191
0.11196969
0.11658816
0.11992132
0.12201234
0.12317885
0.12371609
0.12385204
0.12376401
0.12357353
0.12335534
0.12316417
0.12305156
0.12297099
0.12288424
0.12283145
0.12280351
0.12279035
0.12278791
0.12279412
0.12280684
0.12282435
0.12284604
0.12287143
0.12290046
0.12293332
0.12297037
0.12301214
0.12305946
0.12311316
0.12317434
0.12324434
0.12332529
0.12342008
0.12353193
0.12366502
0.030160282
0.036052759
0.045226209
0.056110186
0.067795208
0.079325054
0.089916625
0.099103184
0.10668158
0.11262613
0.11704445
0.1202012
0.12212957
0.12318125
0.12364118
0.12373255
0.12362393
0.1234275
0.12321408
0.12304303
0.1229497
0.12286313
0.12278159
0.1227365
0.12271292
0.12270299
0.12270319
0.12271122
0.12272534
0.12274428
0.12276707
0.12279342
0.12282327
0.12285693
0.12289475
0.1229373
0.1229854
0.12303986
0.12310184
0.12317285
0.12325477
0.12335055
0.1234633
0.1235973
0.12375968
0.12396511
0.030565101
0.03664075
0.046084763
0.057198856
0.069010808
0.080552357
0.091062143
0.10010281
0.10749731
0.11324204
0.11746465
0.12045052
0.12222427
0.12316801
0.12355697
0.12360846
0.12348191
0.12328138
0.12307662
0.12292994
0.12284747
0.12275363
0.1226812
0.12264244
0.12262267
0.12261578
0.12261853
0.12262856
0.12264419
0.1226643
0.12268811
0.1227153
0.12274593
0.12278039
0.12281903
0.12286242
0.12291131
0.12296658
0.12302939
0.12310133
0.12318415
0.12328084
0.12339439
0.12352921
0.12369279
0.12389966
0.12416468
0.12438313
0.030949724
0.037205455
0.046921735
0.058271982
0.070218346
0.081777708
0.092208647
0.10110277
0.10830986
0.11385
0.11787289
0.1206866
0.12230636
0.12314491
0.12346644
0.12348095
0.12333842
0.12313628
0.12294428
0.12282331
0.12274145
0.12264555
0.12258306
0.12254969
0.12253335
0.12252922
0.12253428
0.12254617
0.12256324
0.12258439
0.12260916
0.12263722
0.12266869
0.12270397
0.12274347
0.12278774
0.12283741
0.12289345
0.12295707
0.12302985
0.12311351
0.123211
0.1233253
0.12346086
0.12362552
0.12383381
0.1240982
0.12430679
0.12242098
0.031353966
0.037800018
0.047794542
0.059386753
0.071472789
0.083052896
0.093403453
0.10214423
0.1091529
0.11447514
0.11828548
0.12092227
0.12238274
0.12311597
0.12337195
0.12335144
0.12319451
0.12299328
0.12281886
0.12272024
0.12263214
0.12254033
0.12248698
0.12245826
0.12244511
0.12244361
0.12245083
0.1224645
0.12248292
0.12250515
0.12253079
0.12255971
0.12259202
0.12262802
0.12266827
0.12271332
0.12276372
0.1228205
0.12288487
0.12295844
0.12304295
0.12314113
0.12325609
0.12339234
0.12355793
0.1237674
0.12403136
0.12422977
0.12223742
0.031804157
0.038461607
0.048741834
0.060577274
0.072801405
0.084398724
0.094661961
0.10323785
0.11003243
0.11512059
0.11871326
0.12115231
0.12245386
0.12308155
0.12327373
0.12322003
0.12305049
0.12285362
0.12270167
0.12261714
0.12252067
0.12243803
0.12239286
0.12236859
0.12235848
0.12235931
0.12236849
0.12238366
0.12240322
0.12242643
0.12245297
0.12248274
0.12251579
0.12255243
0.12259329
0.12263903
0.12269022
0.12274778
0.12281291
0.12288714
0.12297238
0.1230712
0.12318668
0.1233236
0.12349001
0.12370059
0.12396421
0.12415203
0.1220467
0.032298712
0.039191283
0.049758938
0.061828974
0.074180218
0.085784809
0.09595099
0.10435096
0.11091946
0.11576481
0.11914057
0.12136595
0.12251442
0.12303954
0.12317117
0.12308692
0.12290772
0.12271965
0.12259219
0.12251123
0.12240972
0.12233862
0.12230038
0.1222802
0.12227303
0.12227597
0.12228678
0.12230333
0.12232395
0.12234806
0.12237548
0.12240608
0.1224398
0.12247714
0.12251866
0.122565
0.12261695
0.12267528
0.12274111
0.12281606
0.12290192
0.12300119
0.12311718
0.12325464
0.12342176
0.12363347
0.12389656
0.1240734
0.12184744
0.032813196
0.039960783
0.050808005
0.063092499
0.075550013
0.087145798
0.097204118
0.10542176
0.11176228
0.11636901
0.11953595
0.12154883
0.1225562
0.12298676
0.1230637
0.12295313
0.12276829
0.12259228
0.1224881
0.12240187
0.12230192
0.12224168
0.12220941
0.12219311
0.12218865
0.12219359
0.12220586
0.12222338
0.12224501
0.12227012
0.12229847
0.12232985
0.12236433
0.12240235
0.12244454
0.12249148
0.12254405
0.12260304
0.12266951
0.12274505
0.12283138
0.1229311
0.12304753
0.12318543
0.12335319
0.12356595
0.12382855
0.12399371
0.12163933
0.033314415
0.040729202
0.051839134
0.06430929
0.076845145
0.088411978
0.098352382
0.10638778
0.11250993
0.11689462
0.11986973
0.12168855
0.12257226
0.12292073
0.12295104
0.12281926
0.12263283
0.12247396
0.12238627
0.12229111
0.12219802
0.12214701
0.12211985
0.12210719
0.12210547
0.12211234
0.1221257
0.12214393
0.12216615
0.12219209
0.12222143
0.12225379
0.12228919
0.12232796
0.12237074
0.1224183
0.12247131
0.12253087
0.1225979
0.12267397
0.12276074
0.12286094
0.12297774
0.12311599
0.12328424
0.12349808
0.12376029
0.1239129
0.12142247
0.033773374
0.041456732
0.052807486
0.065432281
0.078017516
0.089535769
0.099351429
0.10721111
0.11313298
0.11732024
0.1201267
0.12178019
0.12256026
0.12284099
0.12283348
0.12268602
0.12250278
0.12236425
0.12228455
0.12218028
0.12209776
0.12205437
0.1220316
0.12202214
0.12202281
0.12203132
0.12204585
0.12206506
0.12208809
0.12211462
0.12214454
0.12217774
0.12221399
0.12225349
0.12229694
0.12234508
0.12239866
0.12245867
0.12252621
0.12260281
0.12269009
0.12279069
0.12290771
0.12304622
0.12321503
0.12342981
0.12369158
0.12383105
0.12119739
0.03417493
0.042113124
0.053680737
0.066432688
0.079043758
0.090499726
0.10018978
0.10788576
0.11362954
0.11764618
0.12030835
0.12182699
0.12252254
0.12274902
0.122712
0.12255457
0.12237925
0.12226153
0.12218041
0.1220721
0.12200071
0.12196349
0.12194451
0.12193781
0.12194059
0.12195069
0.12196642
0.12198657
0.12201055
0.12203791
0.12206847
0.12210216
0.12213897
0.12217915
0.12222323
0.12227187
0.12232618
0.12238664
0.12245465
0.12253178
0.12261967
0.12272052
0.1228376
0.12297621
0.1231455
0.12336116
0.12362235
0.12374821
0.12096485
0.034525054
0.042690083
0.054453931
0.067314905
0.079937848
0.091325176
0.10089293
0.10843802
0.11402352
0.11789199
0.12042976
0.12183844
0.12246449
0.12264736
0.12258782
0.12242572
0.12226135
0.12216291
0.12207372
0.12196753
0.1219063
0.12187434
0.12185891
0.12185493
0.1218596
0.12187097
0.12188761
0.12190859
0.1219332
0.12196125
0.12199253
0.12202672
0.12206414
0.12210506
0.12214974
0.12219892
0.1222536
0.12231474
0.12238346
0.12246084
0.12254915
0.12265032
0.12276748
0.12290616
0.12307578
0.12329226
0.1235523
0.12366429
0.12072569
0.034847142
0.043200321
0.05514686
0.068111176
0.080743526
0.09206308
0.10151347
0.10891665
0.11435577
0.118089
0.12051385
0.1218273
0.12239298
0.12253896
0.12246178
0.1222989
0.12214952
0.12206496
0.12196533
0.12186631
0.12181391
0.12178662
0.12177441
0.12177295
0.1217795
0.12179213
0.12180961
0.12183111
0.12185628
0.12188485
0.12191664
0.12195166
0.1219896
0.12203086
0.12207602
0.12212584
0.12218098
0.12224258
0.12231167
0.12238965
0.12247844
0.12257995
0.1226973
0.12283605
0.12300597
0.12322294
0.12348132
0.1235791
0.12048075
0.03517104
0.043672338
0.055797597
0.068871436
0.081519903
0.092776415
0.10211218
0.10937505
0.11466916
0.1182689
0.12058317
0.12180538
0.12231421
0.12242655
0.12233488
0.12217475
0.12204325
0.12196548
0.12185584
0.12176785
0.12172303
0.12170001
0.12169094
0.12169175
0.12169989
0.12171362
0.12173187
0.12175403
0.12177991
0.12180907
0.1218414
0.12187674
0.12191502
0.12195685
0.12200256
0.12205278
0.1221083
0.12217005
0.12223964
0.12231839
0.12240746
0.12250947
0.12262705
0.12276596
0.12293611
0.12315328
0.12340959
0.12349214
0.12023079
0.035519527
0.044137545
0.056444516
0.069640423
0.082316209
0.093515327
0.10273589
0.10985322
0.1149949
0.11845402
0.12065324
0.12178053
0.12223211
0.1223118
0.12220806
0.12205408
0.1219415
0.12186208
0.1217476
0.12167175
0.12163338
0.12161429
0.12160799
0.12161093
0.12162067
0.12163555
0.12165468
0.12167767
0.12170417
0.12173392
0.1217666
0.12180224
0.12184101
0.12188321
0.12192935
0.12197996
0.12203588
0.12209781
0.12216775
0.12224684
0.12233647
0.12243885
0.12255683
0.12269596
0.12286628
0.12308341
0.12333701
0.12340373
0.1199755
0.035901012
0.044619113
0.057113266
0.070443197
0.083156537
0.094302516
0.10340501
0.1103682
0.115346
0.11865355
0.12073052
0.12175619
0.12214858
0.12219608
0.12208268
0.1219371
0.12184171
0.1217544
0.12164195
0.12157758
0.12154476
0.12152925
0.12152556
0.12153033
0.12154146
0.12155751
0.12157758
0.12160134
0.1216285
0.12165881
0.12169204
0.12172815
0.12176746
0.12181007
0.12185643
0.12190728
0.12196343
0.12202588
0.12209596
0.12217509
0.12226518
0.12236799
0.12248647
0.12262591
0.12279665
0.12301333
0.1232639
0.12331367
0.11971426
0.036312507
0.045130135
0.057814014
0.071282621
0.084037754
0.095131345
0.10411169
0.11091267
0.11571678
0.11886374
0.12081299
0.12173212
0.122064
0.12208022
0.12195927
0.12182337
0.12174283
0.12164408
0.12153917
0.12148482
0.12145699
0.12144474
0.12144346
0.12145003
0.12146244
0.12147952
0.12150055
0.12152509
0.12155289
0.12158375
0.12161754
0.12165414
0.12169385
0.12173698
0.12178391
0.12183508
0.12189153
0.12195415
0.1220241
0.12210334
0.12219362
0.12229685
0.12241575
0.12255567
0.12272697
0.12294319
0.12319057
0.12322224
0.11944575
0.036747374
0.045681667
0.058554557
0.072156616
0.084947948
0.095983355
0.10483491
0.11146664
0.11609083
0.11907285
0.12089286
0.12170532
0.12197791
0.12196497
0.12183872
0.12171544
0.1216428
0.12153288
0.12143926
0.12139314
0.12136985
0.12136076
0.12136161
0.12136982
0.12138355
0.12140168
0.12142359
0.12144893
0.12147739
0.12150883
0.12154314
0.12158035
0.12162064
0.12166424
0.12171159
0.12176317
0.12181965
0.12188245
0.12195283
0.12203207
0.12212229
0.12222553
0.12234476
0.12248519
0.122657
0.12287322
0.12311696
0.12312954
0.11916784
0.037197809
0.046281177
0.059342459
0.073066304
0.08588048
0.096845154
0.10555777
0.11201322
0.11645359
0.11926942
0.12096338
0.12167256
0.12188917
0.12185046
0.1217222
0.12161339
0.1215406
0.12142319
0.12134242
0.12130288
0.12128328
0.12127689
0.12127982
0.12128954
0.12130455
0.12132385
0.12134675
0.12137283
0.12140188
0.1214338
0.12146864
0.12150643
0.12154734
0.12159153
0.12163937
0.12169142
0.1217484
0.12181155
0.12188209
0.12196123
0.12205105
0.12215407
0.12227354
0.12241442
0.12258669
0.12280288
0.12304304
0.12303508
0.11887912
0.086833884
0.097711006
0.10627178
0.11254287
0.11679623
0.11945237
0.12101779
0.12163232
0.12179765
0.12173738
0.12161033
0.12151547
0.1214353
0.1213169
0.12124805
0.12121408
0.12119785
0.12119379
0.12119841
0.12120945
0.12122555
0.12124584
0.12126971
0.12129663
0.12132622
0.1213585
0.12139377
0.12143217
0.12147375
0.12151864
0.12156715
0.12161983
0.1216774
0.12174095
0.12181153
0.12189063
0.1219802
0.12208289
0.12220213
0.1223431
0.12251583
0.122732
0.12296884
0.12293856
0.11857784
0.1210549
0.12158458
0.12170413
0.12162694
0.12150321
0.1214202
0.12132842
0.12121454
0.12115573
0.12112638
0.12111328
0.12111153
0.1211179
0.12113021
0.12114716
0.1211681
0.12119247
0.12122009
0.12125048
0.12128324
0.12131877
0.12135759
0.12139975
0.1214453
0.12149454
0.12154798
0.12160615
0.12167021
0.12174116
0.12182036
0.12190971
0.12201199
0.12213064
0.12227134
0.12244436
0.1226608
0.12289421
0.12283968
0.11826175
0.12132699
0.12122199
0.12111644
0.1210656
0.12103991
0.12102939
0.12102971
0.1210378
0.12105157
0.1210697
0.12109134
0.12111609
0.12114366
0.12117452
0.12120805
0.121244
0.12128302
0.12132553
0.12137163
0.12142152
0.12147559
0.12153459
0.12159922
0.12167065
0.12175012
0.12183941
0.12194129
0.12205934
0.12219944
0.12237243
0.12258928
0.12281901
0.12273818
0.11792933
0.12095522
0.120947
0.12094905
0.12095852
0.12097344
0.12099254
0.12101503
0.12104047
0.12106842
0.12109891
0.12113257
0.12116919
0.1212086
0.12125137
0.12129794
0.12134826
0.12140285
0.12146257
0.12152786
0.12159983
0.12167968
0.12176912
0.12187059
0.12198807
0.12212764
0.12230041
0.12251727
0.12274305
0.12263383
0.11758037
0.12089633
0.12091617
0.12093918
0.12096506
0.12099359
0.1210245
0.12105799
0.1210945
0.12113418
0.12117724
0.12122405
0.12127482
0.12133006
0.12139011
0.12145599
0.12152849
0.12160889
0.12169854
0.12179995
0.1219169
0.12205597
0.1222285
0.1224449
0.12266615
0.12252619
0.11721576
0.12091898
0.12095029
0.12098413
0.12102079
0.12106046
0.12110344
0.12115
0.12120106
0.12125685
0.12131746
0.12138376
0.12145674
0.12153763
0.1216276
0.12172907
0.12184575
0.12198447
0.12215675
0.1223724
0.12258841
0.12241508
0.11683694
0.12094724
0.12098705
0.12103018
0.12107688
0.12112759
0.12118336
0.1212445
0.12131124
0.12138459
0.12146575
0.12155614
0.12165777
0.12177432
0.12191288
0.12208507
0.12229987
0.12251008
0.1223012
0.1164454
0.1210041
0.12105495
0.12111023
0.12117104
0.12123817
0.12131196
0.12139346
0.12148418
0.12158604
0.12170258
0.12184106
0.1220133
0.12222717
0.12243108
0.1221847
0.11604254
0.12103767
0.12109825
0.12116493
0.1212388
0.12132068
0.12141162
0.12151374
0.12163047
0.12176893
0.12194121
0.12215419
0.1223515
0.12206564
0.11562976
0.12116586
0.12124751
0.12133852
0.12144093
0.12155788
0.12169646
0.12186888
0.12208072
0.12227098
0.12194375
0.11520835
0.12126572
0.12136785
0.12148484
0.12162372
0.12179605
0.12200685
0.12218967
0.12181842
0.11477978
0.12141179
0.12155069
0.12172304
0.12193243
0.12210748
0.12168898
0.1143528
0.12147764
0.12165006
0.12185744
0.12202386
0.12155524
0.11401171
0.12178211
0.12193906
0.12141562
0.11363892
0.1218533
0.12126896
0.11293539
0.11248238
0.026486606
)
;

boundaryField
{
    Side
    {
        type            empty;
    }
    Inlet
    {
        type            calculated;
        value           nonuniform List<scalar> 
32
(
0.13261791
0.13261917
0.13262052
0.13262156
0.13262236
0.13262333
0.13262424
0.13262446
0.13262447
0.13262411
0.13262412
0.13262425
0.1326245
0.13262472
0.13262418
0.13262363
0.13262381
0.13262403
0.13262373
0.13262269
0.13262107
0.13262024
0.13262085
0.13262151
0.1326221
0.13262248
0.13262262
0.13262349
0.1326257
0.13262851
0.13263096
0.13263273
)
;
    }
    Airfoil
    {
        type            compressible::alphatWallFunction;
        value           nonuniform List<scalar> 0();
    }
    Outlet
    {
        type            calculated;
        value           nonuniform List<scalar> 0();
    }
    procBoundary11to3
    {
        type            processor;
        value           uniform 0.025931792;
    }
    procBoundary11to4
    {
        type            processor;
        value           nonuniform List<scalar> 
26
(
0.027037667
0.02756583
0.02807775
0.028593256
0.029122725
0.029656118
0.030173639
0.030664319
0.031134699
0.031602017
0.032078807
0.032559944
0.033023028
0.033439289
0.033789892
0.034080207
0.034344939
0.034638965
0.035012683
0.035484664
0.036037659
0.036632872
0.037226726
0.037782675
0.030734965
0.027037667
)
;
    }
    procBoundary11to10
    {
        type            processor;
        value           nonuniform List<scalar> 
58
(
0.025912964
0.029985002
0.036744017
0.045417888
0.055636332
0.066676463
0.077667992
0.089649984
0.089649984
0.098589558
0.10612748
0.11220133
0.11688118
0.12034059
0.12250832
0.12378217
0.12438999
0.12455497
0.12446491
0.12425851
0.12386915
0.12386915
0.12365695
0.1234972
0.12341183
0.12333652
0.12327371
0.12323851
0.12322144
0.12313054
0.12313054
0.12313755
0.12315009
0.12316696
0.123188
0.12321264
0.12324142
0.123198
0.123198
0.12323725
0.1232821
0.12333296
0.12331909
0.12331909
0.12338687
0.12346584
0.12355867
0.12360026
0.12360026
0.12373226
0.12382613
0.12382613
0.12403019
0.12423057
0.12423057
0.12445866
0.12259951
0.12259951
)
;
    }
    procBoundary11to12
    {
        type            processor;
        value           nonuniform List<scalar> 
65
(
0.037656493
0.046929561
0.060182327
0.074015302
0.074015302
0.087806244
0.098578778
0.10697419
0.11305252
0.11711718
0.11962083
0.11962083
0.1210762
0.12153003
0.12160935
0.12151931
0.12140035
0.12140035
0.12123338
0.1211169
0.12102208
0.12097769
0.12097769
0.120872
0.12086591
0.12086962
0.12088039
0.12088039
0.12081994
0.12084045
0.12086398
0.12089019
0.12089019
0.12084465
0.12087625
0.1209104
0.1209104
0.12087386
0.12091388
0.12095715
0.12095715
0.12093118
0.12098225
0.12098225
0.12096499
0.12102572
0.12109227
0.12109227
0.12109303
0.12117464
0.12117464
0.12119292
0.121295
0.121295
0.12133871
0.12133871
0.12140433
0.12157692
0.12157692
0.12170651
0.12170651
0.12176673
0.12111726
0.12111726
0.11221548
)
;
    }
}


// ************************************************************************* //
