/*--------------------------------*- C++ -*----------------------------------*\
| =========                 |                                                 |
| \\      /  F ield         | OpenFOAM: The Open Source CFD Toolbox           |
|  \\    /   O peration     | Version:  2506                                  |
|   \\  /    A nd           | Website:  www.openfoam.com                      |
|    \\/     M anipulation  |                                                 |
\*---------------------------------------------------------------------------*/
FoamFile
{
    version     2.0;
    format      ascii;
    arch        "LSB;label=32;scalar=64";
    class       volScalarField;
    location    "1";
    object      Co;
}
// * * * * * * * * * * * * * * * * * * * * * * * * * * * * * * * * * * * * * //

dimensions      [0 0 0 0 0 0 0];

internalField   nonuniform List<scalar> 
1376
(
0.034589809
0.034442608
0.034300642
0.034168949
0.034046941
0.033932009
0.033823982
0.033725777
0.033637669
0.033552641
0.033476183
0.033410552
0.033351479
0.033297622
0.033246401
0.033210254
0.033170155
0.033145112
0.033113007
0.033093714
0.033098126
0.033131832
0.03647395
0.036256994
0.036044319
0.035831275
0.035616588
0.035403089
0.035190914
0.034972639
0.034752492
0.034532309
0.034307705
0.034075892
0.033834872
0.033593646
0.033335518
0.033077336
0.032796305
0.032511196
0.032232114
0.031961675
0.03744593
0.037154297
0.036857634
0.036553461
0.036244133
0.035930189
0.035604768
0.035270709
0.034929622
0.034577557
0.034211878
0.033830289
0.03344055
0.033028133
0.032608812
0.032159967
0.03170041
0.031240675
0.030782034
0.038063465
0.037680987
0.037286733
0.036881567
0.0364666
0.036036479
0.035592269
0.035135811
0.034663708
0.034174286
0.03366465
0.033142181
0.032594304
0.032036112
0.03144615
0.030842998
0.030237839
0.029631198
0.037835043
0.037335635
0.036821974
0.03629092
0.035741905
0.035177015
0.034593543
0.033991163
0.033366429
0.032726035
0.032060669
0.031384271
0.030676794
0.029956211
0.029234353
0.028512349
0.037630474
0.037021716
0.036394357
0.035746431
0.035080525
0.03439464
0.033689844
0.032962472
0.032219104
0.031452634
0.030675543
0.029870282
0.029054047
0.028238962
0.027427439
0.037090267
0.03637135
0.035630584
0.034871121
0.034091532
0.033294255
0.032475775
0.031642359
0.030788738
0.029926952
0.029041113
0.028147263
0.027258086
0.026377471
0.036261794
0.035432435
0.034584952
0.033718298
0.032836181
0.03193559
0.031022155
0.030092405
0.029157796
0.028204193
0.027246722
0.026297905
0.025363427
0.036279782
0.035346931
0.034397945
0.033432004
0.032454052
0.031461848
0.030460512
0.029448092
0.028435771
0.027410862
0.026387681
0.025378547
0.024390528
0.034984912
0.033961679
0.032924359
0.031878767
0.030823584
0.029763153
0.028696592
0.027635
0.026566667
0.025504919
0.024461847
0.023445859
0.033472631
0.032371156
0.031265605
0.030155579
0.029044801
0.027933119
0.026831378
0.025728857
0.024637925
0.023570259
0.022535511
0.031798168
0.030637471
0.029477869
0.028322597
0.027171675
0.026036019
0.024905697
0.023792103
0.022706325
0.021658847
0.030096907
0.0288771
0.027668301
0.026470184
0.025293965
0.024130062
0.022989195
0.02188169
0.020818322
0.028150844
0.026914714
0.025694286
0.02450092
0.023325172
0.022177311
0.021066591
0.020003847
0.026162851
0.024925574
0.023720109
0.022537466
0.021387483
0.020278156
0.019219888
0.024183638
0.022966562
0.021777762
0.020626649
0.019519518
0.018466568
0.022236408
0.021042878
0.019892188
0.018788697
0.017742296
0.020306438
0.019166379
0.01807542
0.017043389
0.018463376
0.017387366
0.016371781
0.016724768
0.015726531
0.025770869
0.024726054
0.023716731
0.022801012
0.021897288
0.021052495
0.020074828
0.019215281
0.01839679
0.017614334
0.016859963
0.016113919
0.015403584
0.014726171
0.014085441
0.013472991
0.012861946
0.012270614
0.011714583
0.011185926
0.01068012
0.010195218
0.0097315042
0.028634348
0.027230005
0.025873421
0.02463819
0.023610844
0.022553045
0.02136974
0.020315289
0.019370301
0.01846715
0.017613256
0.016753879
0.015937087
0.01520831
0.014515124
0.013844113
0.013179522
0.012545111
0.011949618
0.011387334
0.010862855
0.010355548
0.0098570389
0.029227043
0.027922723
0.02665831
0.025419417
0.024344233
0.023225081
0.022020909
0.020956367
0.019980898
0.019042685
0.018144518
0.017244939
0.01639587
0.015635188
0.014906611
0.014198186
0.0134988
0.012835897
0.012215136
0.011629578
0.011081098
0.010550098
0.010031201
0.029491682
0.028235919
0.026899054
0.025614123
0.02452282
0.023381046
0.022187084
0.021138762
0.020171056
0.019230843
0.018328907
0.017431225
0.016586214
0.015824558
0.015089833
0.014375333
0.013670287
0.013003166
0.012377544
0.011785739
0.011228316
0.010687624
0.010160884
0.029625724
0.028390695
0.026987121
0.025675212
0.02457327
0.023426217
0.022252753
0.021213045
0.020235288
0.019283742
0.018382564
0.017487979
0.016650137
0.015888996
0.015154168
0.014441577
0.01373795
0.013072542
0.012447998
0.011856705
0.011298552
0.010757158
0.010231074
0.029725996
0.028509806
0.027059059
0.025715733
0.024601712
0.023448346
0.022288658
0.02125779
0.020273549
0.019311095
0.018404261
0.017511623
0.016680281
0.01591686
0.01518125
0.014469111
0.013767465
0.013104799
0.012481315
0.011890196
0.011332015
0.01079152
0.010267924
0.029818129
0.028602998
0.027107108
0.025744309
0.024622181
0.023463037
0.022319596
0.021295731
0.020300615
0.019329707
0.018418628
0.017528438
0.016702163
0.015936029
0.015198528
0.014485972
0.013786556
0.013126082
0.01250281
0.011910937
0.011352392
0.010812642
0.010291398
0.029847427
0.028654674
0.027142438
0.02576849
0.024637573
0.023475255
0.022349406
0.021329879
0.020322422
0.019344672
0.018430847
0.017543598
0.016722263
0.015952881
0.015212743
0.014499526
0.013802396
0.013144196
0.012520824
0.01192744
0.011368608
0.010829418
0.010310066
0.031436491
0.029882332
0.028676771
0.0271589
0.025787969
0.024648606
0.023485756
0.022376821
0.021358199
0.020338577
0.019357205
0.01844249
0.01755885
0.016742293
0.01596925
0.015226193
0.014512314
0.013817424
0.013161536
0.012538161
0.011942999
0.011384025
0.010845224
0.010327321
0.031448096
0.029928166
0.028686694
0.02716825
0.02581207
0.024662155
0.023499336
0.02240336
0.021379581
0.020349695
0.019368922
0.018454968
0.017575189
0.016762875
0.015985773
0.015239732
0.014525286
0.013832525
0.013178954
0.012555777
0.01195921
0.011400127
0.01086136
0.010344539
0.031502553
0.029966293
0.028684058
0.027168405
0.025837827
0.024678371
0.0235164
0.022427183
0.021392696
0.020357212
0.019381443
0.018469428
0.017593295
0.016784127
0.016002571
0.015253722
0.014538966
0.013848231
0.013197025
0.012574201
0.011976722
0.011417424
0.010878445
0.010362353
0.031530014
0.02998507
0.028675696
0.027168333
0.025864522
0.024698
0.023535419
0.022445757
0.021399177
0.02036436
0.019397017
0.018486995
0.017613517
0.016805668
0.016019491
0.015268483
0.014553932
0.013865192
0.013216359
0.012593812
0.011995853
0.011436232
0.010896797
0.03149261
0.029997557
0.028652268
0.027170171
0.025894486
0.024722543
0.023550683
0.022454678
0.021401408
0.020374343
0.019417925
0.018508169
0.017635449
0.016826745
0.016036465
0.015284625
0.014570976
0.013884184
0.01323748
0.012614807
0.012016709
0.011456716
0.010916692
0.031495395
0.030016962
0.028624374
0.027187534
0.025928331
0.024743201
0.023560137
0.022463035
0.021409266
0.020391091
0.01944259
0.018529905
0.017657665
0.016847484
0.016054479
0.01530336
0.014590972
0.013905793
0.01326054
0.012637218
0.012039335
0.011479064
0.01093847
0.033070527
0.031512931
0.030011278
0.028594508
0.027196839
0.025948886
0.024748187
0.0235633
0.022473563
0.021421753
0.02041131
0.019465588
0.018549888
0.017680757
0.016869402
0.016075018
0.015325735
0.014614346
0.013930108
0.013285423
0.012661189
0.012063972
0.011503579
0.010962513
0.033060951
0.03148302
0.029984287
0.028578845
0.027220319
0.025974078
0.024746728
0.023569186
0.022487929
0.021436372
0.0204329
0.019487775
0.01857147
0.017706565
0.016892642
0.01609805
0.015351623
0.014640869
0.013956987
0.013312232
0.012687206
0.012091081
0.011530605
0.010989148
0.033024139
0.031432421
0.029980797
0.028580497
0.027233767
0.025975371
0.024739829
0.02358166
0.022507759
0.021452836
0.020454635
0.019509047
0.018594373
0.017734556
0.016917884
0.016124931
0.015381357
0.014670079
0.013986166
0.013341256
0.01271584
0.012121064
0.011560343
0.011018541
0.032973347
0.031413807
0.029979552
0.028566178
0.02722908
0.025971656
0.024747825
0.023606867
0.022529503
0.021469767
0.020478079
0.019531305
0.018620324
0.017765507
0.016946318
0.016156297
0.015414175
0.014701245
0.014017819
0.013373156
0.012747612
0.012154075
0.011592775
0.011050695
0.034523287
0.032927603
0.031401697
0.029956184
0.028543244
0.027229573
0.0259695
0.024758824
0.023629956
0.022540427
0.021487871
0.020503998
0.019556727
0.01865122
0.017798442
0.016976946
0.016190516
0.01544838
0.014734226
0.014052524
0.013408133
0.012782278
0.012189733
0.011627802
0.011085636
0.034465203
0.03287504
0.03136448
0.029926719
0.028526832
0.027224751
0.025968275
0.024776953
0.023644385
0.022549442
0.021515708
0.020533499
0.019584026
0.018684991
0.017831199
0.017009905
0.016227194
0.015484591
0.014770256
0.01409047
0.013445459
0.012819176
0.012227693
0.01166549
0.011123334
0.034392808
0.032826318
0.031312168
0.02989437
0.028509937
0.027213522
0.025971693
0.024788099
0.023649262
0.022567729
0.021543823
0.020555965
0.019612324
0.018720975
0.017864762
0.017045298
0.016265121
0.015522164
0.014809004
0.014131093
0.013485249
0.012858949
0.012268711
0.011706176
0.011163806
0.035926682
0.0343055
0.032761851
0.03126031
0.029852618
0.028495128
0.027204416
0.025970056
0.024792324
0.023659658
0.022591385
0.021563647
0.020578429
0.019645538
0.018752888
0.017896815
0.017081757
0.016305462
0.015562793
0.014850692
0.014173748
0.013527501
0.012902325
0.012313432
0.0117502
0.011207451
0.035817477
0.034216053
0.032687813
0.031213564
0.029808558
0.028476263
0.02719436
0.025960373
0.024793062
0.023670705
0.022607421
0.021583229
0.020609681
0.019679568
0.018784631
0.01793506
0.017123651
0.016349195
0.015606094
0.014895013
0.014220648
0.013573162
0.012949559
0.012360894
0.011796755
0.011254392
0.035710351
0.034120781
0.032608504
0.031163789
0.029766559
0.028442694
0.027174943
0.025948502
0.024793901
0.023684965
0.022625468
0.021610081
0.020641978
0.01970959
0.018821013
0.017977067
0.017166853
0.016393522
0.015650959
0.014943832
0.014272437
0.013622257
0.013000809
0.012411892
0.011847436
0.011305966
0.037221121
0.035595995
0.034022852
0.032528109
0.031102731
0.029722299
0.028410153
0.027157
0.02594524
0.024797999
0.023700213
0.022644125
0.021635371
0.020672189
0.019744406
0.018863699
0.018021147
0.017213242
0.016443157
0.015701697
0.014998233
0.014325339
0.013674606
0.013056022
0.012467816
0.011903219
0.011362277
0.037066913
0.03547396
0.03392254
0.032445962
0.031034177
0.029677996
0.028378255
0.027135924
0.025943341
0.024803631
0.023712148
0.022663041
0.021660676
0.020704217
0.019785177
0.018907819
0.018067518
0.01726479
0.016496722
0.015757066
0.015055988
0.01438174
0.013733438
0.013116491
0.012528697
0.011963434
0.038540379
0.036906514
0.035336204
0.033814037
0.032360163
0.030971947
0.029640504
0.028347937
0.027116425
0.025944107
0.024810815
0.0237237
0.022684517
0.021693758
0.020738977
0.019828125
0.018953733
0.018118976
0.017320126
0.016552471
0.015818046
0.015117859
0.014443542
0.013798072
0.01318275
0.012594413
0.012029121
0.038354718
0.036743063
0.035198472
0.03370476
0.032270523
0.030903196
0.029584081
0.028310969
0.027097378
0.02593216
0.024810499
0.023736979
0.022710132
0.021728471
0.020776907
0.019874331
0.019004467
0.018175316
0.017378471
0.016614524
0.015883929
0.01518296
0.01451123
0.013869173
0.013254066
0.012665346
0.01210179
0.038158168
0.036572989
0.035056926
0.033588411
0.032179784
0.030830548
0.029525638
0.028276532
0.027074519
0.025921957
0.024819703
0.023754359
0.022735423
0.021760118
0.020820494
0.019923255
0.019061067
0.01823572
0.017441362
0.016682157
0.015953789
0.015255331
0.014586922
0.01394582
0.013331105
0.012744042
0.012181465
0.037949451
0.036395924
0.034907009
0.033466988
0.032082457
0.03075271
0.029468654
0.028236985
0.02705059
0.025911996
0.024821034
0.023769281
0.022761916
0.021797449
0.020869966
0.019976133
0.019121116
0.018299675
0.017510558
0.016755411
0.016030089
0.015334732
0.01466787
0.014028159
0.013416028
0.01283043
0.012267991
0.037733589
0.036214687
0.034750558
0.033341205
0.031976489
0.030670559
0.029406924
0.028192598
0.027030077
0.025904622
0.024829623
0.02379388
0.02279385
0.021840142
0.020920801
0.020033724
0.019184991
0.018370062
0.017585456
0.01683455
0.016113763
0.015420699
0.014756055
0.0141193
0.013509512
0.012924693
0.012363366
0.037506341
0.036020326
0.034584618
0.033204564
0.031864782
0.030584114
0.029341929
0.028149388
0.027005495
0.025895615
0.024836639
0.023811999
0.022824603
0.021882598
0.020972842
0.020095371
0.019253739
0.018445061
0.017664927
0.0169206
0.016204027
0.015514247
0.014853503
0.014220013
0.01361211
0.013028269
0.037261546
0.035809079
0.034406297
0.033054725
0.031746932
0.030491019
0.02927606
0.02810647
0.026979736
0.025890542
0.024844084
0.023835542
0.022863704
0.021930315
0.021031614
0.020162979
0.019328656
0.018526557
0.017754026
0.01701586
0.016302256
0.015617828
0.014961142
0.014330315
0.013724084
0.01314136
0.037003334
0.035589382
0.034222353
0.032903144
0.031627039
0.030396546
0.029207532
0.028059022
0.026951935
0.025882996
0.024851804
0.023860494
0.022901906
0.021980454
0.021093217
0.020234857
0.019410167
0.018616215
0.017851471
0.017117813
0.016410914
0.015731886
0.015078665
0.014450358
0.013846182
0.013265211
0.036733935
0.035359067
0.034028737
0.03274264
0.031498
0.030295128
0.029131988
0.028007629
0.026922019
0.025874238
0.024861719
0.023886826
0.02294459
0.02203663
0.021160236
0.020314275
0.019499504
0.018714899
0.017958539
0.017231525
0.016531888
0.015856182
0.015206676
0.014581668
0.013980378
0.036451286
0.035116092
0.033822947
0.032570469
0.031358049
0.030184655
0.029049456
0.027951683
0.026890491
0.025865397
0.024873997
0.02391699
0.02299194
0.022097848
0.021234451
0.0204016
0.019597093
0.01882227
0.018075153
0.017355817
0.016662068
0.015992281
0.015347594
0.014726536
0.014128268
0.036147688
0.034854905
0.033601394
0.032386273
0.031208765
0.030068069
0.028963231
0.027893929
0.026858784
0.025857174
0.024887985
0.023949605
0.023042416
0.022164586
0.021315759
0.020496848
0.019704951
0.018940622
0.018204825
0.017491224
0.01680402
0.016141401
0.015502183
0.014885765
0.01429112
0.035829425
0.034581761
0.033370646
0.032195392
0.031054968
0.029948943
0.028876095
0.027836129
0.026827611
0.025850399
0.02490317
0.023985425
0.023097333
0.02223739
0.021404926
0.020600997
0.019822951
0.019069954
0.01834472
0.017638719
0.016961619
0.01630635
0.015673354
0.015062058
0.035497984
0.034296805
0.033129273
0.031994616
0.030892192
0.029821391
0.02878134
0.027771571
0.02679141
0.025840568
0.024918071
0.024024075
0.023157215
0.022317127
0.021502794
0.02071496
0.019951055
0.019211345
0.01849636
0.017803238
0.017135972
0.016488697
0.015862703
0.015257242
0.035146745
0.033993351
0.032870857
0.031778512
0.030715877
0.029682353
0.02867748
0.027700671
0.026751835
0.025830085
0.024934874
0.024065856
0.023221814
0.02240276
0.02160827
0.020838245
0.02009085
0.01936693
0.018665134
0.01798572
0.017327295
0.016689222
0.016071414
0.034775112
0.033671836
0.032596879
0.03154948
0.030529419
0.029536175
0.028569282
0.027628216
0.0267126
0.025822006
0.024955426
0.024112949
0.023293964
0.022498362
0.021726023
0.020975965
0.020247383
0.019540238
0.01885374
0.018187804
0.017541355
0.01691413
0.034378395
0.033327697
0.032302695
0.03130278
0.030327782
0.029377153
0.028450677
0.027547657
0.02666785
0.02581114
0.024976199
0.024163853
0.023373289
0.022604037
0.021855668
0.021127533
0.020419092
0.019730202
0.019060388
0.018409327
0.017776551
0.017161511
0.033971937
0.03297579
0.032002658
0.031052267
0.030124309
0.029218359
0.028334105
0.027470921
0.026628972
0.025807728
0.025006441
0.024225751
0.023464577
0.022722529
0.021999168
0.02129439
0.020607698
0.019938941
0.019287797
0.018653875
0.018036888
0.033533534
0.032593661
0.031674411
0.030775672
0.029897088
0.029038402
0.028199158
0.0273791
0.02657805
0.025795535
0.025031234
0.024285008
0.023556173
0.022844523
0.022149824
0.021471955
0.02081058
0.020165415
0.019536301
0.01892276
0.033082288
0.032199971
0.031336247
0.030490859
0.029663654
0.028854277
0.028062408
0.027287742
0.026529921
0.025788706
0.02506374
0.024354703
0.023661391
0.022983502
0.022320852
0.0216732
0.021040269
0.020421852
0.01981779
0.03259666
0.03177451
0.030969048
0.030179888
0.029406855
0.028649563
0.027907745
0.027181067
0.026469373
0.025772355
0.025089726
0.024421266
0.023766772
0.023126014
0.022498833
0.021885005
0.021284359
0.032096256
0.031335007
0.030588643
0.02985682
0.029139343
0.028435933
0.02774639
0.027070455
0.026407952
0.025758531
0.025122016
0.024498146
0.02388663
0.023287315
0.022700076
0.022124755
0.031590682
0.030890817
0.030204508
0.029531391
0.028871311
0.028224034
0.027589304
0.026966866
0.026356369
0.025757546
0.025170217
0.024594129
0.024029093
0.023475127
0.031085935
0.030449882
0.029825956
0.029213906
0.028613787
0.028025441
0.027448615
0.026883107
0.026328628
0.025784975
0.025251577
0.024728035
)
;

boundaryField
{
    Side
    {
        type            empty;
    }
    Inlet
    {
        type            zeroGradient;
    }
    Airfoil
    {
        type            zeroGradient;
    }
    Outlet
    {
        type            zeroGradient;
    }
    procBoundary9to2
    {
        type            processor;
        value           nonuniform List<scalar> 
23
(
0.0097495602
0.010197048
0.010683686
0.01119922
0.011724472
0.012271847
0.012847183
0.013447564
0.014073633
0.014738439
0.01544216
0.016130777
0.016865407
0.017663971
0.018477584
0.019317947
0.020107174
0.02096987
0.0219361
0.02305349
0.023933518
0.024803832
0.025887944
)
;
    }
    procBoundary9to8
    {
        type            processor;
        value           nonuniform List<scalar> 
75
(
0.034743911
0.034743911
0.036917478
0.036695446
0.036695446
0.037737215
0.037737215
0.038436912
0.038436912
0.038788105
0.038318923
0.038318923
0.038221934
0.038221934
0.037789984
0.037789984
0.037069111
0.037069111
0.03719168
0.035994719
0.035994719
0.03456357
0.03456357
0.032959451
0.032959451
0.031324858
0.031324858
0.029403639
0.029403639
0.027420697
0.027420697
0.025437343
0.025437343
0.023463611
0.023463611
0.021493336
0.021493336
0.019590287
0.019590287
0.017784896
0.017784896
0.016088253
0.015107272
0.026801886
0.030219982
0.030789277
0.031020959
0.031141012
0.031248441
0.031367719
0.031420812
0.031420812
0.03359572
0.033509743
0.033358599
0.033256137
0.033161701
0.033104279
0.033104279
0.034752311
0.034687505
0.034646229
0.034588099
0.034588099
0.036233013
0.036139574
0.036033123
0.036033123
0.037633018
0.037504437
0.037370172
0.037370172
0.038902551
0.038725314
0.038725314
)
;
    }
    procBoundary9to10
    {
        type            processor;
        value           nonuniform List<scalar> 
66
(
0.0092882806
0.0093966579
0.0095523458
0.0096738654
0.0097433834
0.0097812217
0.009805472
0.0098245636
0.0098419433
0.0098590248
0.009876511
0.010381175
0.010381175
0.010401385
0.010423359
0.010447462
0.01047401
0.01050323
0.010535243
0.010570129
0.010607904
0.010648549
0.010692323
0.010739692
0.01079127
0.010847135
0.011423208
0.011423208
0.011489583
0.011562236
0.011641676
0.011729077
0.011825174
0.012467655
0.012467655
0.012581411
0.012706394
0.013401485
0.013401485
0.013551323
0.013717603
0.014471572
0.014471572
0.014671739
0.015473036
0.015473036
0.016305732
0.016305732
0.016564157
0.017436407
0.017436407
0.018324841
0.018324841
0.019227768
0.020696775
0.019227768
0.020122109
0.020696775
0.021561232
0.022932063
0.021561232
0.02239965
0.024214154
0.022932063
0.023710007
0.024214154
)
;
    }
}


// ************************************************************************* //
