/*--------------------------------*- C++ -*----------------------------------*\
| =========                 |                                                 |
| \\      /  F ield         | OpenFOAM: The Open Source CFD Toolbox           |
|  \\    /   O peration     | Version:  2506                                  |
|   \\  /    A nd           | Website:  www.openfoam.com                      |
|    \\/     M anipulation  |                                                 |
\*---------------------------------------------------------------------------*/
FoamFile
{
    version     2.0;
    format      ascii;
    arch        "LSB;label=32;scalar=64";
    class       volScalarField;
    location    "0.002";
    object      Co;
}
// * * * * * * * * * * * * * * * * * * * * * * * * * * * * * * * * * * * * * //

dimensions      [0 0 0 0 0 0 0];

internalField   nonuniform List<scalar> 
13761
(
0.21808695
0.20297557
0.18810963
0.25529302
0.27501944
0.29496926
0.31424937
0.33156001
0.24151294
0.26008768
0.27885855
0.29698214
0.31323499
0.32742372
0.34137065
0.22834888
0.24582304
0.2634674
0.28048631
0.29572849
0.3090064
0.32203608
0.33083303
0.33811067
0.21593677
0.23237971
0.24896989
0.2649564
0.27925573
0.29168638
0.30386451
0.3120422
0.31878162
0.3272168
0.3336559
0.20415355
0.21962043
0.23521343
0.25022417
0.26363327
0.27526514
0.28664157
0.29423784
0.300474
0.30829543
0.31422357
0.31881776
0.32149704
0.19294103
0.20748083
0.22212717
0.23621217
0.24877679
0.25965188
0.27026957
0.27731719
0.28307887
0.29032151
0.29576965
0.29995388
0.30233093
0.305113
0.30878935
0.18234041
0.196008
0.20976458
0.22298059
0.23475365
0.24492108
0.2548304
0.26136867
0.26669177
0.27339838
0.27840498
0.28221384
0.28431791
0.28679138
0.29009947
0.29327454
0.29584168
0.29776311
0.17229039
0.18513419
0.19805105
0.21044795
0.22147534
0.23097737
0.2402218
0.24628426
0.25119856
0.25740515
0.26200202
0.26546454
0.26731963
0.26951137
0.27248183
0.27532303
0.27758657
0.27924157
0.28124779
0.28376237
0.16277787
0.17484548
0.18697183
0.19859862
0.20892585
0.21780426
0.22642677
0.23204674
0.23658213
0.24232451
0.24654353
0.24968828
0.25131813
0.25325455
0.25591795
0.25845677
0.26044674
0.26186414
0.2635978
0.26579614
0.26833775
0.27040803
0.15377682
0.1651134
0.17649588
0.18739906
0.19706907
0.20536305
0.21340416
0.21861288
0.22279692
0.22810837
0.23197906
0.23483269
0.23625927
0.23796476
0.24034928
0.24261427
0.24435814
0.24556411
0.24705472
0.24896972
0.2512088
0.25299974
0.2552441
0.25747498
0.14521606
0.155859
0.16653601
0.1767535
0.18580131
0.19354222
0.20103422
0.20585613
0.20971008
0.21461629
0.21816117
0.22074341
0.2219824
0.22347458
0.22560116
0.22761347
0.22913132
0.23014464
0.23141345
0.23306932
0.23503176
0.23656906
0.23851797
0.24045873
0.2417604
0.24297024
0.13710671
0.14709541
0.15710752
0.16667965
0.17514273
0.18236416
0.18934177
0.19380362
0.19735078
0.20187979
0.20512373
0.20745685
0.2085263
0.20982517
0.21171715
0.21350041
0.2148145
0.21565621
0.21672713
0.21815057
0.21986465
0.2211764
0.22286153
0.22454406
0.22563252
0.22662562
0.22765208
0.22811151
0.22793388
0.12944402
0.13881786
0.14820574
0.15717272
0.16508889
0.17182504
0.17832319
0.18245209
0.18571663
0.18989684
0.19286518
0.1949718
0.19588997
0.19701575
0.19869677
0.20027491
0.20140798
0.20209926
0.20299603
0.20421359
0.20570769
0.20682177
0.20827395
0.20972991
0.21063445
0.21144104
0.21227767
0.21259626
0.21233146
0.21097773
0.20740206
0.12218612
0.13098016
0.13977988
0.14817741
0.15557985
0.16186056
0.16790944
0.17172871
0.17473113
0.17858668
0.18130069
0.18319994
0.18398192
0.18495141
0.18644114
0.18783398
0.18880449
0.18936253
0.1901047
0.1911383
0.19243566
0.19337496
0.19461973
0.19587498
0.19661913
0.19726384
0.19793586
0.19813598
0.1978031
0.19649098
0.19315264
0.18745915
0.18108862
0.17546495
0.11531092
0.12355816
0.13180362
0.13966502
0.14658494
0.1524386
0.15806634
0.16159762
0.16435727
0.16791057
0.17038982
0.17209954
0.17275907
0.17358752
0.17490382
0.17612959
0.1769546
0.17739479
0.178
0.17886947
0.17999098
0.18077613
0.18183652
0.1829143
0.18351908
0.1840238
0.18455352
0.18465486
0.18427025
0.1830086
0.17990333
0.17459328
0.16858906
0.1632642
0.15858553
0.15032074
0.13184761
0.10879736
0.11652879
0.12425183
0.13160846
0.13807481
0.14352806
0.14876061
0.15202385
0.15455858
0.15783034
0.16009241
0.16162914
0.16217865
0.16287988
0.16403901
0.16511416
0.16580899
0.16614505
0.16662906
0.1673522
0.16831671
0.16896614
0.16986263
0.17078378
0.17126774
0.17165177
0.17205884
0.17207834
0.17165588
0.17045135
0.16757408
0.16263464
0.15698475
0.151946
0.14759801
0.14016164
0.1235818
0.10262454
0.10986926
0.1170997
0.12398082
0.13002071
0.13509877
0.13996024
0.14297392
0.14530051
0.14831016
0.15037089
0.15174996
0.1522008
0.15278743
0.15380411
0.15474373
0.15532261
0.15556682
0.1559438
0.15653673
0.15736109
0.1578914
0.15864246
0.15942574
0.15980546
0.16008575
0.16038748
0.16034
0.15989159
0.15874931
0.15609407
0.15151222
0.14620485
0.14143994
0.13740126
0.13072552
0.11584367
0.096782311
0.10356868
0.11033567
0.11676995
0.12240964
0.12713711
0.1316512
0.13443331
0.13656791
0.13933464
0.14120948
0.14244586
0.14280906
0.14329341
0.14418193
0.14500047
0.1454772
0.14564144
0.14592489
0.14640303
0.14710343
0.14753044
0.14815375
0.14881681
0.1491078
0.14930049
0.14951309
0.14941228
0.14894873
0.147873
0.14543335
0.14119602
0.13621928
0.1317155
0.12796489
0.12198551
0.10862548
0.09126908
0.097625622
0.10395844
0.10997468
0.11524086
0.11964264
0.12383349
0.12640232
0.12836141
0.13090503
0.13260969
0.13371843
0.13400535
0.13439987
0.13517462
0.13588668
0.13627523
0.13637157
0.13657466
0.13695334
0.13754577
0.1378851
0.13839791
0.1389582
0.13917583
0.13929618
0.13943534
0.13929421
0.13882566
0.13782034
0.13558943
0.13168304
0.12702449
0.12276851
0.11928437
0.11393966
0.10194031
0.086052022
0.092003909
0.097928334
0.10355181
0.10846758
0.11256499
0.1164535
0.1188246
0.12062154
0.1229588
0.1245064
0.12549994
0.12571962
0.1260344
0.12670698
0.12732427
0.12763592
0.12767429
0.12780719
0.12809869
0.12859593
0.12886011
0.12927651
0.12974792
0.12990421
0.12996438
0.13004237
0.12987081
0.12940451
0.1284712
0.12644133
0.12285293
0.11850151
0.11448122
0.11124321
0.10647725
0.095700354
0.081108986
0.086679224
0.092218794
0.097472517
0.102059
0.10587146
0.10947667
0.1116639
0.11331065
0.11545678
0.11685897
0.11774805
0.11790834
0.11815211
0.11873273
0.11926543
0.1195098
0.11949925
0.11957048
0.11978537
0.12019828
0.12039826
0.12073033
0.12112466
0.12123014
0.12124027
0.12126742
0.12107366
0.12061445
0.11975424
0.11791728
0.11463418
0.11057982
0.10678411
0.10377262
0.099533654
0.089858009
0.076442005
0.081654143
0.086832981
0.091740623
0.096019483
0.099566707
0.10290847
0.10492637
0.10643516
0.10840588
0.10967508
0.11047082
0.11058001
0.11076199
0.11126119
0.11171978
0.11190667
0.11185677
0.11187509
0.11202424
0.11236372
0.11251043
0.11277054
0.11309959
0.11316491
0.11313506
0.11312163
0.11291451
0.11246656
0.11168014
0.11002808
0.1070373
0.10326948
0.099686926
0.096882406
0.093120564
0.084433544
0.072029269
0.076904706
0.081744692
0.086327656
0.090318527
0.09361827
0.096714499
0.098575917
0.099957687
0.10176686
0.10291401
0.10362595
0.10369115
0.10381916
0.10424597
0.10463947
0.10477709
0.10469604
0.10466886
0.10476147
0.10503658
0.10513914
0.10533801
0.1056115
0.10564562
0.10558416
0.10553866
0.10532472
0.10489196
0.10417796
0.10270254
0.099991482
0.09650091
0.093121374
0.090505106
0.087174129
0.079377225
0.067855999
0.072414776
0.076936356
0.081214619
0.0849357
0.088004226
0.09087158
0.092588266
0.093852952
0.09551321
0.096548426
0.097185015
0.097212509
0.097293548
0.097656056
0.097992395
0.098087927
0.0979829
0.097916852
0.097961166
0.098179879
0.0982455
0.098393099
0.098619339
0.098629975
0.098544231
0.098474151
0.09825749
0.097845126
0.097200305
0.095893127
0.093449255
0.090227384
0.087042033
0.084596319
0.081652888
0.074658532
0.06391764
0.068179494
0.072402848
0.076396128
0.079865483
0.082718963
0.085373959
0.086957497
0.08811525
0.089639042
0.090572417
0.091141838
0.091137941
0.091178868
0.091484943
0.091771928
0.091832477
0.091710241
0.091611913
0.091615786
0.091786263
0.091821253
0.091927225
0.092113974
0.092108179
0.092005402
0.09191823
0.091701504
0.091313274
0.090735323
0.089588079
0.087398974
0.084437436
0.08143787
0.079145351
0.076548147
0.0702762
0.060193519
0.064176235
0.068119469
0.07184544
0.075079091
0.077731627
0.080188927
0.081649384
0.082708927
0.084106946
0.084947305
0.085456344
0.085426229
0.085432754
0.08568906
0.085933139
0.085964506
0.085830404
0.085705397
0.085675445
0.085804506
0.085813725
0.085886059
0.086039597
0.086022969
0.085909095
0.085810726
0.085597007
0.085234157
0.084720026
0.083724187
0.081777921
0.079069458
0.076249297
0.07409406
0.07180462
0.066185145
0.056678647
0.060399591
0.064080432
0.06755635
0.070570032
0.073035607
0.075309507
0.076656705
0.077626799
0.078909456
0.07966547
0.080120547
0.080069367
0.080047018
0.080259872
0.080467245
0.080475039
0.080333929
0.080187753
0.080130161
0.080224216
0.080212524
0.080258522
0.080384536
0.080362023
0.080242558
0.08013857
0.07993116
0.079593835
0.079139741
0.078286926
0.076571899
0.074109423
0.071463358
0.069430314
0.067411748
0.062380812
0.053359093
0.056834395
0.060269229
0.06351106
0.066319253
0.068610463
0.070714092
0.071956897
0.072845434
0.074022081
0.074701666
0.075108332
0.075040555
0.074994112
0.075169084
0.075345107
0.075334267
0.075190066
0.075027602
0.074947774
0.075012222
0.074983908
0.075009771
0.075113047
0.075088685
0.074968218
0.074862949
0.07466563
0.074353756
0.073952969
0.073235681
0.071740832
0.069517921
0.06704247
0.065118008
0.063335589
0.058836392
0.050224343
0.053469135
0.056673379
0.059696099
0.06231234
0.064441169
0.066386762
0.067533375
0.068347822
0.069427043
0.070037514
0.07040065
0.070320371
0.070254186
0.0703963
0.070545762
0.07052065
0.070376671
0.070202397
0.070105113
0.070144722
0.070103697
0.070114721
0.070199353
0.07017652
0.070059039
0.06995575
0.069771932
0.069487106
0.069131255
0.068540969
0.067255833
0.065266441
0.062959883
0.061132123
0.059552686
0.055533944
0.047265502
0.05029418
0.053282426
0.056100218
0.058537351
0.060514854
0.06231391
0.063371962
0.064119273
0.065109061
0.065657353
0.065981328
0.065892249
0.065810227
0.065924006
0.066051212
0.066015859
0.06587473
0.06569284
0.065582386
0.065601282
0.065551109
0.065551974
0.065621512
0.065602978
0.065491904
0.065393295
0.065225654
0.064969618
0.06465205
0.064177701
0.063091972
0.061330431
0.059192614
0.057451642
0.056043595
0.052458893
0.044473759
0.047299907
0.050085964
0.052712195
0.05498226
0.056819065
0.058482353
0.059458977
0.060145764
0.061053507
0.061546007
0.061834745
0.061740235
0.061645963
0.061735542
0.061844283
0.061802325
0.061666229
0.061480613
0.061360593
0.061362865
0.061306406
0.06130089
0.061358682
0.061346678
0.061244938
0.061153413
0.061003844
0.060777279
0.060493903
0.060121964
0.059225301
0.057686465
0.055719064
0.054057573
0.052790684
0.049597491
0.041839961
0.044476363
0.047073175
0.049520398
0.051634711
0.053340533
0.054878065
0.055779772
0.056412026
0.05724456
0.057687265
0.057944104
0.057847182
0.057743801
0.057812819
0.057906441
0.057861132
0.057731652
0.057545968
0.057419518
0.057408581
0.057348632
0.057338717
0.05738866
0.057384916
0.057294963
0.057212711
0.057082315
0.056883866
0.056634657
0.056346845
0.055630403
0.054309819
0.052516027
0.05092976
0.049775385
0.046934666
0.039358466
0.04181741
0.044237435
0.046517698
0.048487082
0.050071412
0.051492762
0.052325827
0.052909294
0.053673136
0.054071687
0.054299729
0.054203224
0.054093693
0.054145559
0.054227053
0.054181365
0.05405984
0.05387771
0.053747464
0.053726455
0.05366644
0.053652243
0.053698489
0.053704388
0.053628232
0.05355737
0.05344762
0.053272048
0.053062439
0.052839091
0.05229125
0.051184718
0.049569211
0.048057478
0.046988573
0.044463507
0.037017999
0.039310772
0.041565411
0.043689727
0.045524041
0.046995354
0.048309131
0.049079135
0.04961881
0.050319799
0.050679268
0.050881072
0.050787319
0.050674121
0.050711731
0.050783701
0.050739718
0.050627263
0.050452183
0.05032005
0.05029153
0.05023492
0.05021671
0.050261837
0.050278218
0.050217378
0.05015985
0.050073439
0.049919134
0.04974812
0.049574746
0.049178436
0.048281253
0.046850525
0.045417106
0.04440917
0.042165243
0.034810104
0.036947218
0.039047095
0.041025689
0.042734068
0.044100322
0.045314534
0.046026645
0.046527
0.047170514
0.047495451
0.047673442
0.047584326
0.047469657
0.047495524
0.047560138
0.047519758
0.047416831
0.047252582
0.047119836
0.047086006
0.047034936
0.047014413
0.047059894
0.047087212
0.047042988
0.046999456
0.046935658
0.046806518
0.046670208
0.04653765
0.046270375
0.045576223
0.04433884
0.042992142
0.042023979
0.040028078
0.032730346
0.034721966
0.036677336
0.038520086
0.04011134
0.041380097
0.042502332
0.043161488
0.043626706
0.044217927
0.044512524
0.044669272
0.0445863
0.044472199
0.044488694
0.044547912
0.044512804
0.044419479
0.044269643
0.044137606
0.044100435
0.044056055
0.044035772
0.044082603
0.044120994
0.044094502
0.044066084
0.044022817
0.043920796
0.043815022
0.043720364
0.043553149
0.043054708
0.04202048
0.040773965
0.039828786
0.038048209
0.030770179
0.032625699
0.034446032
0.036162024
0.037644222
0.038822515
0.039859782
0.040470526
0.040904283
0.041447914
0.041715757
0.041853681
0.041778039
0.041666264
0.041675398
0.04173077
0.041702337
0.041618616
0.041485563
0.041355993
0.041317161
0.041280213
0.041262552
0.041311529
0.041360748
0.041352646
0.04133993
0.041316786
0.041242822
0.041162926
0.041106155
0.041011988
0.040693299
0.039871459
0.03874476
0.037811828
0.036215006
0.028924402
0.030652779
0.032347081
0.033944961
0.035325777
0.036420175
0.037379001
0.037945595
0.038351249
0.038851726
0.039096073
0.039217569
0.039150147
0.039042292
0.039045918
0.039098766
0.039078166
0.039004531
0.038889445
0.038764269
0.038725259
0.038695859
0.038683342
0.038735174
0.038794656
0.0388054
0.038808951
0.038805924
0.03875984
0.038704511
0.038683348
0.038642434
0.038475376
0.037872138
0.036891393
0.035967924
0.034525098
0.027186462
0.028796073
0.030372771
0.031860601
0.033147146
0.03416383
0.035050353
0.035576724
0.035957306
0.036418703
0.036642411
0.03674968
0.036691151
0.036588622
0.036588353
0.036639725
0.036627921
0.036564995
0.036468321
0.03634942
0.036311603
0.036289723
0.036284392
0.036339799
0.036408776
0.036438486
0.036458483
0.03647597
0.036456662
0.036424419
0.036435319
0.036437511
0.036383419
0.03599849
0.035195168
0.034289282
0.032974426
0.025550976
0.027049744
0.028516784
0.029902156
0.031101139
0.032045875
0.032865697
0.033355531
0.033713777
0.03413989
0.03434552
0.034440659
0.034391475
0.034295507
0.034292816
0.034343527
0.034341216
0.034289742
0.034211455
0.034100628
0.034065285
0.034050587
0.034054281
0.034114042
0.034191492
0.034240052
0.034276472
0.034315095
0.034321588
0.034311179
0.034348736
0.034391969
0.034414697
0.034227479
0.033633882
0.032769776
0.031562669
0.024011154
0.025406405
0.026771135
0.028061048
0.029178599
0.030056693
0.030815079
0.031271666
0.031609997
0.032004242
0.032194031
0.032278898
0.032239315
0.032150984
0.032147138
0.032197781
0.032205397
0.032166128
0.032105752
0.032004745
0.031972949
0.031965273
0.031979045
0.032043887
0.032128884
0.032195976
0.032248469
0.032307214
0.032340087
0.032353546
0.032412143
0.032491579
0.032568045
0.032535389
0.032174776
0.031399481
0.030289219
0.022562773
0.023861482
0.025130884
0.026331979
0.027373919
0.028190377
0.028892151
0.0293186
0.029639248
0.030004856
0.030180799
0.030257142
0.030227247
0.03014753
0.030143716
0.030194749
0.030212444
0.03018632
0.030143019
0.030053592
0.030026184
0.030025567
0.030049926
0.030119333
0.030212214
0.030297211
0.030365594
0.030444271
0.030501369
0.030540489
0.030616308
0.030723328
0.030846499
0.030919387
0.03078113
0.030163932
0.029159284
0.021200124
0.022408777
0.023589332
0.024707745
0.025679433
0.026438894
0.027088583
0.027487709
0.027792656
0.028132527
0.028296399
0.028365775
0.028345475
0.028275206
0.028272464
0.028324236
0.028351844
0.028339587
0.028312448
0.028237018
0.028214158
0.028220346
0.028256999
0.028328632
0.028430246
0.028532249
0.028615906
0.028713471
0.028794807
0.028859136
0.028953035
0.029080692
0.029242771
0.029386895
0.029418054
0.029024096
0.028172484
0.019918282
0.02104295
0.022140715
0.023182188
0.024088611
0.024795343
0.025397069
0.025771433
0.026062446
0.026379312
0.026532641
0.026596462
0.026585521
0.026525442
0.026524751
0.026577533
0.026614735
0.026616729
0.026604463
0.026546224
0.026527593
0.026540289
0.026590838
0.026664182
0.026773515
0.026891336
0.02698982
0.027104545
0.027210703
0.027299322
0.027410128
0.027556725
0.027748446
0.027945345
0.028084484
0.027919022
0.027308483
0.018713924
0.019760403
0.020781152
0.021751127
0.02259701
0.02325511
0.02381279
0.024164817
0.024443532
0.024739933
0.024884129
0.024943707
0.024941676
0.024892483
0.024894771
0.024948804
0.024995164
0.025011382
0.025012607
0.024973586
0.024960166
0.024979174
0.025042993
0.025120001
0.025235793
0.025367864
0.025480885
0.025610718
0.025741243
0.025855217
0.02598033
0.026145268
0.026358397
0.026595524
0.026803031
0.0268149
0.026516384
0.017581741
0.018555367
0.019504423
0.020407916
0.02119758
0.021810739
0.02232796
0.022659755
0.022927579
0.023205896
0.023342117
0.023398666
0.023404771
0.023367192
0.023373347
0.02342884
0.023483634
0.023513998
0.023528343
0.023508673
0.023501924
0.023527382
0.023602951
0.023685911
0.023807226
0.023951755
0.024079128
0.024221743
0.024375819
0.024516416
0.024656177
0.024838908
0.025067842
0.025329708
0.025585455
0.025707925
0.025720986
0.016517842
0.017423649
0.018306007
0.01914769
0.019885164
0.020456885
0.02093698
0.021250462
0.021508622
0.021771064
0.02190035
0.021955068
0.021967489
0.021942906
0.021953782
0.022010989
0.022073293
0.02211749
0.022145253
0.022144172
0.02214555
0.022177619
0.022263879
0.022354034
0.022477336
0.022635955
0.022777796
0.022930801
0.023105628
0.023271876
0.023429452
0.023627289
0.023873964
0.024149755
0.024436337
0.024628668
0.024828723
0.015518597
0.0163613
0.017181652
0.017965921
0.018654953
0.019188439
0.019634519
0.019931463
0.020181034
0.020429643
0.020552955
0.020607696
0.020624358
0.020613495
0.02062997
0.020689205
0.020757978
0.020815353
0.020857305
0.020873543
0.020884513
0.020923599
0.021018874
0.021120841
0.0212436
0.021413714
0.021570272
0.021732434
0.021924561
0.02211446
0.02229413
0.02250508
0.022769439
0.02305784
0.023357686
0.023603046
0.023862877
0.014580273
0.015364301
0.016127033
0.016857954
0.017502027
0.018000319
0.018415286
0.018697218
0.018939153
0.019175746
0.019293925
0.019349961
0.019370001
0.019372571
0.019395484
0.019457136
0.019531352
0.019600724
0.019657797
0.019690102
0.01971271
0.019758673
0.019861411
0.019974951
0.02009963
0.020278008
0.02044944
0.020620664
0.020825611
0.021037484
0.02124156
0.021462785
0.021744404
0.022050456
0.022357357
0.022640003
0.0229197
0.013699313
0.014428781
0.015137977
0.015819346
0.016421667
0.016887524
0.01727406
0.017542433
0.017777542
0.018003749
0.01811759
0.018175466
0.018198907
0.018214234
0.018244427
0.018308998
0.018387743
0.018467712
0.01853968
0.01858742
0.018623972
0.018676624
0.018785557
0.018910274
0.019038626
0.019219085
0.019408097
0.019589498
0.019803958
0.020034359
0.020263767
0.0204999
0.020792133
0.021112696
0.021433952
0.021750199
0.022040692
0.01287255
0.01355134
0.014210852
0.014846196
0.01540975
0.0158458
0.016206389
0.016462463
0.016691455
0.016908718
0.017018884
0.017078862
0.017106014
0.017133106
0.017171373
0.017239416
0.01732193
0.017410918
0.017497683
0.017559803
0.017611305
0.017671772
0.017785811
0.017921355
0.018058699
0.018236642
0.018440476
0.018633342
0.018854742
0.019099251
0.019351678
0.019608776
0.019910504
0.020242841
0.020578449
0.020919931
0.021228063
0.012096525
0.01272822
0.013341592
0.013934158
0.014461669
0.014870292
0.015207303
0.015452252
0.015675668
0.015885263
0.015992403
0.016054709
0.016085902
0.016123609
0.016170675
0.016242861
0.016328658
0.016424717
0.016525371
0.016602735
0.016668325
0.016739413
0.016856743
0.017001991
0.017149112
0.017325372
0.017536894
0.017745903
0.017974297
0.018229056
0.018497731
0.018777222
0.01909191
0.019434337
0.019787215
0.020148896
0.020474807
0.011368772
0.01195678
0.012527398
0.013080247
0.013574262
0.013957725
0.014273275
0.014508202
0.014726505
0.014929474
0.015034174
0.01509894
0.015134558
0.015181576
0.015237959
0.015315043
0.01540397
0.015505315
0.015618109
0.01571178
0.015789745
0.015874512
0.015994008
0.016147662
0.016306713
0.016485079
0.016697763
0.016921964
0.017158367
0.0174217
0.017702726
0.018001054
0.018327925
0.018683233
0.019050836
0.019433083
0.019779404
0.010686125
0.011233572
0.011764539
0.012280455
0.01274328
0.013103623
0.013399854
0.013625714
0.013839274
0.014036475
0.014139368
0.014206714
0.014247216
0.014301396
0.014368138
0.014450952
0.014543126
0.014648279
0.014770812
0.014880611
0.014971273
0.015069914
0.015192698
0.015352705
0.015524655
0.015707203
0.015919802
0.016153775
0.016401646
0.016672744
0.016963481
0.017276222
0.017615381
0.017982607
0.018365617
0.018765999
0.019138431
0.010046296
0.010556159
0.011050433
0.011532057
0.011965852
0.012304985
0.012583765
0.012801507
0.013010588
0.013202608
0.013304398
0.013374311
0.013420796
0.013480399
0.013557222
0.013646512
0.01374232
0.013850249
0.013979642
0.014105083
0.014210479
0.014321194
0.014450266
0.014613377
0.014797147
0.014987631
0.015201354
0.015439879
0.015699027
0.015978641
0.016277767
0.016598606
0.016946004
0.017325911
0.01772512
0.018144287
0.018548083
0.009446507
0.0099215179
0.010381814
0.010831529
0.011238231
0.011557947
0.011821093
0.012031587
0.012236424
0.012423627
0.012525494
0.012597556
0.012650248
0.01271482
0.012801137
0.01289734
0.01299747
0.0131077
0.013241022
0.013379911
0.013502
0.013623652
0.013761888
0.013926831
0.014119624
0.01432086
0.01453637
0.014776894
0.015043575
0.015335244
0.015644396
0.015971455
0.016323573
0.01670896
0.017121268
0.017555229
0.01799676
0.0088844808
0.0093272245
0.0097561121
0.010176166
0.010557583
0.010859446
0.011108627
0.011312681
0.011513381
0.011695593
0.011798807
0.011872704
0.01193148
0.012001044
0.012095852
0.01219934
0.012304629
0.012417184
0.012552174
0.012701067
0.012840485
0.012974268
0.013121222
0.013289519
0.013488435
0.013701633
0.013924124
0.01416597
0.014433834
0.014733531
0.015054929
0.015389435
0.015748599
0.01613766
0.016555906
0.016999691
0.017465708
0.0083578605
0.0087707022
0.0091705412
0.0095629677
0.0099207129
0.010206261
0.010443015
0.010641414
0.010838105
0.01101527
0.01112055
0.011196365
0.011261113
0.011336004
0.011437261
0.01154901
0.011660269
0.011775593
0.011911041
0.01206563
0.012221303
0.012370773
0.01252522
0.012699282
0.012900604
0.013122433
0.013355569
0.013602914
0.013872826
0.01417628
0.014506248
0.014848292
0.015214883
0.015610198
0.016032703
0.016484052
0.016965046
0.0078647979
0.0082499991
0.008623046
0.0089897837
0.0093253505
0.0095959014
0.0098216881
0.010015134
0.010207829
0.01038004
0.010487582
0.010565568
0.010635972
0.010717133
0.010823238
0.010942983
0.011060622
0.011179595
0.011315331
0.011471797
0.011639753
0.011806602
0.011970933
0.012150609
0.012355647
0.012582735
0.012825649
0.013081386
0.01335472
0.013660329
0.013995991
0.014346423
0.014718014
0.01512037
0.015549254
0.016004333
0.01649695
0.0074029195
0.0077625096
0.008110794
0.0084535844
0.0087683418
0.0090250838
0.0092412457
0.0094304515
0.0096191925
0.0097866449
0.0098963871
0.0099775617
0.010052915
0.010140363
0.010250878
0.010377744
0.010502041
0.010625788
0.010762392
0.010918456
0.011093252
0.011276416
0.011455118
0.011639777
0.011848974
0.012078867
0.012330494
0.012596921
0.012878428
0.01318544
0.013521866
0.013878209
0.014256185
0.014662808
0.01509928
0.015558562
0.016058473
0.0069707948
0.0073067511
0.0076322448
0.0079527701
0.0082479336
0.0084919406
0.0086996017
0.0088851583
0.0090699331
0.0092326707
0.0093440344
0.0094295687
0.0095094424
0.0096030088
0.0097178789
0.0098498536
0.0099814472
0.010111046
0.010249776
0.010405055
0.010581625
0.010776395
0.010973115
0.011168273
0.011378796
0.011611513
0.011866077
0.0121405
0.012432616
0.012748188
0.01308764
0.013446778
0.013825277
0.014236544
0.014678893
0.015145533
0.015650556
0.0065661001
0.0068801558
0.0071845953
0.0074843513
0.0077611094
0.0079933287
0.0081935684
0.0083760906
0.0085568524
0.008715038
0.0088277268
0.0089182208
0.0090028152
0.0091023157
0.0092221396
0.0093574926
0.0094956487
0.0096315093
0.009774132
0.0099293835
0.010104368
0.010303248
0.010514889
0.01072634
0.010944109
0.011178208
0.011435464
0.011713828
0.012012539
0.012336604
0.012685304
0.013052314
0.013433325
0.013844478
0.014286628
0.014762196
0.015274669
0.0061875826
0.0064814669
0.0067665722
0.0070469471
0.0073063819
0.0075276331
0.0077212462
0.0079011126
0.0080777138
0.0082314438
0.0083454577
0.0084409846
0.0085310564
0.0086359231
0.0087606189
0.0088987069
0.0090414788
0.0091840467
0.0093322744
0.0094899473
0.0096634147
0.0098608432
0.010079549
0.010307092
0.010538103
0.010777282
0.011035626
0.011316824
0.011619272
0.011946939
0.012303353
0.012681259
0.013071894
0.013488915
0.013931676
0.014405108
0.014921868
0.0058332623
0.0061084516
0.0063756896
0.0066381154
0.0068812951
0.0070922574
0.0072800714
0.0074575562
0.0076300485
0.0077795147
0.0078949297
0.0079951321
0.0080917074
0.0082016582
0.008331029
0.0084722086
0.0086175476
0.0087654513
0.0089197695
0.0090821664
0.0092565406
0.0094513244
0.009669387
0.0099062419
0.010152945
0.010404636
0.010667656
0.010948524
0.011254607
0.011582838
0.011941201
0.012325614
0.012724821
0.01314902
0.013601644
0.01408119
0.014598885
0.0055020828
0.0057601189
0.0060109828
0.006256681
0.0064846388
0.0066859528
0.0068684898
0.0070435985
0.007211912
0.0073573737
0.007474059
0.0075786629
0.0076820372
0.0077975014
0.0079309985
0.0080753148
0.008222741
0.0083738886
0.0085341696
0.0087017336
0.008879848
0.009074473
0.0092889465
0.009525304
0.0097804643
0.01004676
0.010323878
0.010611598
0.010915711
0.011246972
0.011606405
0.011992408
0.01239705
0.012826429
0.013284705
0.013771875
0.014288841
0.0051920405
0.0054341471
0.0056699447
0.0059002254
0.006113884
0.006306234
0.0064840998
0.0066569022
0.0068210313
0.0069629715
0.0070808879
0.0071898832
0.007299678
0.0074216607
0.0075583289
0.0077052838
0.0078555598
0.008008945
0.0081731402
0.0083469657
0.0085295072
0.0087268824
0.0089401397
0.0091730186
0.0094274617
0.0096990098
0.0099876068
0.010290806
0.010604183
0.010934875
0.011295475
0.011685365
0.012093858
0.012526804
0.012984882
0.013475218
0.013996723
0.0049024077
0.0051299258
0.0053519605
0.0055680683
0.0057683367
0.0059521156
0.0061257215
0.0062960038
0.0064559354
0.0065948847
0.0067139187
0.0068270949
0.0069426627
0.0070718325
0.0072117044
0.0073600529
0.0075124861
0.0076685853
0.0078348503
0.0080131098
0.0082019523
0.0084035656
0.0086191767
0.0088502007
0.0091014947
0.0093717661
0.0096622344
0.0099736213
0.010300871
0.010641967
0.011005912
0.011394578
0.011808206
0.01224847
0.01271305
0.0132055
0.013729377
0.004631307
0.0048452403
0.0050545916
0.0052577384
0.0054456688
0.0056212818
0.0057911703
0.0059588861
0.0061147227
0.0062513146
0.0063716232
0.0064886084
0.0066097469
0.0067457162
0.0068897774
0.0070387322
0.0071927412
0.0073514884
0.0075198854
0.0077002585
0.0078933182
0.0081000083
0.0083199996
0.0085538793
0.0088038252
0.0090716042
0.0093595552
0.00966964
0.010000463
0.010350073
0.010721825
0.011118765
0.011538149
0.01198115
0.012449376
0.012946479
0.013482953
0.004378221
0.0045796956
0.0047774789
0.0049688961
0.0051456456
0.0053131251
0.005479475
0.0056444516
0.0057962571
0.0059308899
0.0060526406
0.0061728046
0.0062992459
0.0064408132
0.0065893974
0.0067395912
0.0068944303
0.0070557324
0.0072263444
0.0074089659
0.0076046224
0.0078143323
0.0080379759
0.0082759524
0.0085286785
0.0087967214
0.009083596
0.0093912416
0.0097200977
0.010069364
0.01044193
0.010841818
0.011266902
0.01171694
0.012192137
0.012692138
0.013230255
0.0041414016
0.0043312047
0.0045182852
0.0046990691
0.0048661154
0.0050256821
0.0051883963
0.0053508161
0.0054989334
0.0056320466
0.0057555953
0.0058786138
0.0060099904
0.0061558251
0.0063076939
0.0064600194
0.0066155834
0.0067791234
0.0069518275
0.0071364179
0.0073346938
0.0075470886
0.0077735847
0.0080145932
0.0082706365
0.0085416606
0.0088295333
0.0091372475
0.0094654789
0.0098131258
0.010183548
0.010580866
0.011006102
0.011457819
0.011935331
0.012435335
0.012969016
0.0040996527
0.004276986
0.0044481951
0.0046070124
0.0047592146
0.0049174018
0.0050769565
0.0052218177
0.005353601
0.0054790028
0.0056050974
0.0057412489
0.0058901876
0.0060440123
0.0061985537
0.0063555648
0.0065206809
0.0066956453
0.0068821638
0.0070820104
0.00729622
0.0075251068
0.0077684885
0.0080265378
0.0083006226
0.0085911413
0.0089007244
0.0092308097
0.0095796542
0.0099495807
0.010344921
0.010767609
0.011218259
0.011696486
0.012198076
0.012723407
0.0038830646
0.0040512777
0.0042138567
0.0043660443
0.0045122666
0.0046653948
0.0048210431
0.0049634037
0.0050942353
0.0052213348
0.0053508517
0.0054911393
0.0056421276
0.0057969863
0.0059530479
0.0061120194
0.0062782212
0.0064550377
0.0066440806
0.0068460195
0.0070618029
0.0072922197
0.0075372364
0.0077970953
0.0080726946
0.0083651415
0.008676749
0.0090088683
0.0093601847
0.0097320959
0.010127199
0.010548018
0.010996964
0.011475133
0.011980931
0.01250723
0.0036816173
0.00384137
0.0039964017
0.0041429872
0.0042845902
0.0044323426
0.0045823234
0.0047224587
0.0048529255
0.0049814619
0.005114205
0.0052576454
0.0054096044
0.0055647142
0.005721866
0.0058833446
0.0060515772
0.0062297318
0.0064203529
0.0066240836
0.0068416925
0.0070735452
0.0073196993
0.0075809943
0.0078578048
0.0081513648
0.0084643596
0.0087975583
0.0091501717
0.0095240926
0.0099212661
0.010342508
0.01078911
0.011263774
0.011770575
0.012307092
0.0034934332
0.0036451116
0.0037934803
0.0039353714
0.0040739872
0.0042166808
0.004360171
0.0044970844
0.0046283356
0.0047586006
0.0048944283
0.005040336
0.0051928055
0.0053475607
0.0055047466
0.0056675913
0.005838141