/*--------------------------------*- C++ -*----------------------------------*\
| =========                 |                                                 |
| \\      /  F ield         | OpenFOAM: The Open Source CFD Toolbox           |
|  \\    /   O peration     | Version:  2506                                  |
|   \\  /    A nd           | Website:  www.openfoam.com                      |
|    \\/     M anipulation  |                                                 |
\*---------------------------------------------------------------------------*/
FoamFile
{
    version     2.0;
    format      ascii;
    arch        "LSB;label=32;scalar=64";
    class       volScalarField;
    location    "0.0135";
    object      rho;
}
// * * * * * * * * * * * * * * * * * * * * * * * * * * * * * * * * * * * * * //

dimensions      [1 -3 0 0 0 0 0];

internalField   nonuniform List<scalar> 
192657
(
0.6640462
0.66700256
0.66531662
0.66603056
0.6656263
0.66547713
0.66530726
0.66520043
0.66513688
0.66510266
0.66509993
0.66517638
0.66547652
0.66630063
0.66792773
0.6697059
0.66876744
0.66510641
0.6617269
0.66109083
0.66228646
0.66374991
0.66409649
0.66438305
0.66390852
0.66368012
0.66397836
0.66403372
0.66396974
0.66386272
0.66371417
0.66359492
0.66353867
0.66353784
0.66350209
0.66345456
0.66353029
0.66368302
0.66374518
0.66374792
0.6638067
0.66389063
0.66391652
0.66388287
0.6637786
0.66368463
0.66363389
0.66355396
0.66347715
0.6633857
0.66325557
0.66311901
0.66297172
0.66279822
0.66261443
0.66242336
0.66221438
0.66196923
0.66170816
0.66144845
0.66116533
0.66086036
0.66054255
0.66021571
0.6599038
0.65958941
0.65926253
0.65893845
0.65861912
0.65830617
0.65799896
0.65769341
0.65739186
0.65710553
0.65683455
0.65657898
0.65634346
0.65611822
0.65590028
0.65569352
0.65549589
0.65531017
0.6551402
0.65498193
0.65482752
0.654673
0.65452055
0.65437433
0.65423687
0.65410879
0.65398938
0.65387741
0.65377161
0.65367047
0.65357222
0.65347674
0.65338334
0.65329155
0.65320067
0.65311239
0.65302697
0.65294393
0.65286387
0.65279094
0.6527212
0.65265499
0.6526263
0.65230598
0.65158519
0.65092639
0.65046376
0.65012576
0.64987427
0.649689
0.64955493
0.64946109
0.64939857
0.64936031
0.64934087
0.64933574
0.64934148
0.64935553
0.64937454
0.64939586
0.64941746
0.64943791
0.6494566
0.6494727
0.64948532
0.64949359
0.64949851
0.64950055
0.64949953
0.64949511
0.6494867
0.64947216
0.64944832
0.64941287
0.64936852
0.6493193
0.64926664
0.64921216
0.64915943
0.64911372
0.64908044
0.64906132
0.64905332
0.64905153
0.64905219
0.66404449
0.66700342
0.66531718
0.66603094
0.66562693
0.66547764
0.6653077
0.66520073
0.66513706
0.66510273
0.6650997
0.66517529
0.66547316
0.66629318
0.66791842
0.66970837
0.66879954
0.66514554
0.66175029
0.66109315
0.66226522
0.66372829
0.66408906
0.66438812
0.66391447
0.66367849
0.6639756
0.6640378
0.66397452
0.66386705
0.66372092
0.66360192
0.66354647
0.66354485
0.66350726
0.66346042
0.6635355
0.6636902
0.66375254
0.66375894
0.66381954
0.66390873
0.6639352
0.66390021
0.66379724
0.66371181
0.66366524
0.66358857
0.66351605
0.663428
0.66330148
0.6631697
0.66302704
0.66285851
0.66267954
0.66249221
0.66228608
0.66204366
0.66178705
0.66153029
0.66124894
0.66094749
0.66063033
0.66030618
0.65999788
0.65968201
0.65935609
0.65903203
0.65871207
0.65839855
0.65809043
0.65778289
0.65748049
0.65719339
0.6569203
0.65666387
0.65642716
0.6561994
0.65598026
0.65577234
0.65557316
0.65538734
0.65521824
0.65506036
0.65490574
0.65475154
0.6546007
0.65445715
0.65432306
0.65419913
0.65408499
0.65397942
0.65388081
0.65378757
0.65369873
0.65361304
0.65353006
0.65345041
0.65337573
0.65330666
0.65324345
0.65318581
0.65313264
0.65308082
0.65303182
0.65298171
0.65285871
0.65246447
0.65166448
0.6509558
0.65040565
0.64995703
0.64958497
0.64927416
0.64901544
0.64880093
0.64862368
0.64847701
0.64835471
0.64825238
0.64816679
0.64809521
0.64803523
0.64798475
0.64794192
0.64790514
0.64787299
0.64784452
0.6478191
0.6477961
0.647775
0.64775533
0.64773675
0.64771902
0.64770205
0.64768586
0.64767066
0.64765675
0.64764453
0.64763442
0.64762678
0.64762183
0.6476194
0.64761933
0.64762089
0.64762309
0.64762509
0.64762653
0.64762735
0.66404256
0.66700388
0.66531686
0.66603098
0.66562748
0.66547811
0.66530813
0.66520101
0.66513723
0.66510279
0.66509947
0.66517421
0.66546982
0.66628578
0.66790906
0.66971099
0.66883267
0.66518518
0.66177407
0.66109872
0.66224374
0.66370625
0.66408114
0.66439297
0.66392054
0.66367681
0.66397271
0.66404183
0.66397919
0.66387137
0.66372793
0.66360909
0.6635543
0.66355193
0.66351246
0.66346636
0.66354087
0.66369751
0.66376016
0.66376997
0.66383271
0.66392713
0.66395361
0.66391744
0.66381659
0.66373995
0.66369716
0.66362366
0.66355526
0.66347065
0.66334779
0.66322093
0.66308295
0.6629195
0.6627451
0.66256146
0.66235838
0.66211893
0.66186664
0.66161246
0.66133366
0.66103535
0.66071852
0.66039813
0.66009252
0.65977525
0.65945068
0.65912645
0.65880579
0.65849171
0.6581827
0.65787326
0.65757017
0.65728171
0.65700621
0.656749
0.65651085
0.65628105
0.65606123
0.65585192
0.65565125
0.65546549
0.65529723
0.65514001
0.65498621
0.65483371
0.65468562
0.65454557
0.65441555
0.65429624
0.6541875
0.65408871
0.65399861
0.6539155
0.65383753
0.65376381
0.6536942
0.65362933
0.65357021
0.6535179
0.65347248
0.65343355
0.65340034
0.65337299
0.65335063
0.65333568
0.65332216
0.6530262
0.65226046
0.65159432
0.65108331
0.65066891
0.6503281
0.65004636
0.64981273
0.64961863
0.64945746
0.64932422
0.64921531
0.64912719
0.64905618
0.64899906
0.64895315
0.64891627
0.64888661
0.64886265
0.64884314
0.64882705
0.6488135
0.6488018
0.64879135
0.64878165
0.64877228
0.64876284
0.64875296
0.64874231
0.64873058
0.64871756
0.6487032
0.64868775
0.6486718
0.64865636
0.64864279
0.64863211
0.64862513
0.64862177
0.64862096
0.64862137
0.64862197
0.6640411
0.6670042
0.66531635
0.66603071
0.66562795
0.6654786
0.66530853
0.66520127
0.66513739
0.66510285
0.66509925
0.66517314
0.66546655
0.66627857
0.66790005
0.66971384
0.66886629
0.66522504
0.66179786
0.6611025
0.66222234
0.663684
0.66407294
0.66439748
0.66392685
0.66367522
0.66396984
0.66404583
0.66398375
0.66387572
0.66373514
0.66361644
0.66356222
0.66355915
0.66351775
0.66347232
0.66354656
0.66370517
0.66376803
0.663781
0.66384637
0.66394605
0.66397181
0.66393447
0.66383656
0.66376878
0.66372958
0.66365902
0.66359474
0.66351347
0.66339439
0.66327267
0.66313938
0.66298108
0.66281119
0.66263131
0.66243135
0.66219516
0.66194738
0.6616953
0.66141981
0.66112407
0.66080816
0.66049229
0.66018831
0.65987
0.65954719
0.65922253
0.65890138
0.65858699
0.6582767
0.65796554
0.65766196
0.65737205
0.65709468
0.65683675
0.65659649
0.65636442
0.65614366
0.65593284
0.65573124
0.65554624
0.65537903
0.65522235
0.65506924
0.65491856
0.65477351
0.65463731
0.65451186
0.65439817
0.65429645
0.65420577
0.65412433
0.65405004
0.65398168
0.6539184
0.65386002
0.65380742
0.65376188
0.653724
0.65369343
0.65366926
0.65365
0.65363454
0.65362306
0.65360562
0.65354927
0.65325348
0.6524933
0.65180574
0.65127739
0.65085073
0.65050074
0.65021267
0.64997587
0.64978169
0.64962259
0.6494926
0.64938671
0.64930069
0.64923102
0.64917478
0.6491295
0.64909316
0.64906402
0.64904067
0.64902194
0.64900682
0.64899451
0.64898436
0.64897585
0.64896856
0.6489622
0.64895659
0.6489516
0.64894719
0.64894337
0.64894018
0.64893762
0.64893567
0.64893421
0.64893312
0.64893231
0.64893185
0.64893193
0.64893261
0.64893366
0.64893473
0.64893543
0.66403994
0.66700551
0.66531653
0.66603019
0.66562832
0.66547912
0.66530896
0.66520154
0.66513755
0.66510292
0.66509902
0.66517204
0.66546316
0.66627103
0.66789048
0.66971639
0.66890144
0.66526668
0.66182287
0.66110526
0.66220039
0.66366095
0.6640641
0.66440141
0.66393373
0.66367376
0.66396682
0.6640498
0.6639883
0.6638801
0.66374255
0.66362395
0.66357015
0.66356643
0.66352315
0.66347843
0.66355243
0.66371297
0.66377605
0.66379215
0.66386043
0.66396503
0.6639896
0.66395142
0.66385734
0.66379817
0.66376248
0.66369471
0.66363437
0.66355654
0.66344123
0.66332479
0.66319632
0.66304318
0.66287757
0.66270163
0.66250501
0.66227227
0.66202845
0.66177869
0.66150729
0.66121352
0.66089898
0.66058803
0.66028478
0.65996635
0.65964528
0.65932012
0.65899848
0.65868384
0.65837234
0.65805964
0.65775554
0.65746364
0.65718434
0.65692575
0.65668345
0.65644983
0.65622823
0.65601548
0.65581276
0.65562815
0.65546156
0.65530544
0.65515358
0.6550052
0.65486325
0.65473067
0.65460931
0.65450029
0.65440396
0.65431974
0.65424582
0.65417994
0.65412015
0.6540655
0.65401606
0.65397271
0.65393662
0.65390821
0.6538868
0.65387155
0.6538613
0.65385558
0.65385329
0.6538576
0.65384121
0.65358358
0.65283729
0.6521459
0.65161519
0.65118571
0.65083193
0.65053869
0.65029575
0.65009521
0.64993048
0.64979567
0.64968577
0.64959659
0.64952456
0.64946666
0.64942031
0.64938338
0.64935408
0.64933098
0.64931286
0.6492987
0.64928766
0.64927904
0.64927223
0.6492667
0.649262
0.64925774
0.64925363
0.64924944
0.64924506
0.64924047
0.64923575
0.64923107
0.64922665
0.64922276
0.64921972
0.64921783
0.64921725
0.64921777
0.64921886
0.64921995
0.64922065
0.66403875
0.66700742
0.66531661
0.66602946
0.66562855
0.66547966
0.66530937
0.6652018
0.66513771
0.66510299
0.66509879
0.66517095
0.6654598
0.66626359
0.6678811
0.66971916
0.66893702
0.66530861
0.66184792
0.66110831
0.6621787
0.66363771
0.66405494
0.66440479
0.66394102
0.66367252
0.6639639
0.66405378
0.66399285
0.66388448
0.66375019
0.66363168
0.66357821
0.66357388
0.66352862
0.66348451
0.66355855
0.66372103
0.66378426
0.66380316
0.66387506
0.66398438
0.66400724
0.66396839
0.66387892
0.66382804
0.66379569
0.66373052
0.66367421
0.66359975
0.66348832
0.6633774
0.66325377
0.66310572
0.66294445
0.66277257
0.66257933
0.66235005
0.66211036
0.6618631
0.66159593
0.66130366
0.66099149
0.66068544
0.66038205
0.66006436
0.65974496
0.65941915
0.65909741
0.65878264
0.65846951
0.65815563
0.65785098
0.65755719
0.65727655
0.6570169
0.65677191
0.65653645
0.65631353
0.65609885
0.6558956
0.65571166
0.65554539
0.65538929
0.65523802
0.65509129
0.65495185
0.65482232
0.65470464
0.65460017
0.65450935
0.65443098
0.65436251
0.65430154
0.65424685
0.65419771
0.65415411
0.65411705
0.65408755
0.65406573
0.6540507
0.65404127
0.65403565
0.65403293
0.65403284
0.65402499
0.65400314
0.65379439
0.65309247
0.65238858
0.65185002
0.65141655
0.65105985
0.65076382
0.65051811
0.65031444
0.65014588
0.65000663
0.64989199
0.64979803
0.64972132
0.64965895
0.64960844
0.64956769
0.64953492
0.64950864
0.64948768
0.64947112
0.6494582
0.64944826
0.64944076
0.64943523
0.64943131
0.64942871
0.64942719
0.64942653
0.64942657
0.64942713
0.64942807
0.64942927
0.64943064
0.64943213
0.64943378
0.64943563
0.64943768
0.64943975
0.64944159
0.64944295
0.6494437
0.66403588
0.6670086
0.66531642
0.66602873
0.66562862
0.6654803
0.66530982
0.66520208
0.66513788
0.66510306
0.66509856
0.6651698
0.66545628
0.66625575
0.667871
0.66972134
0.66897416
0.66535267
0.66187457
0.66111189
0.66215648
0.66361354
0.66404512
0.66440755
0.66394906
0.66367158
0.66396084
0.66405765
0.66399734
0.66388888
0.66375804
0.66363961
0.66358626
0.66358127
0.66353417
0.66349068
0.66356489
0.66372918
0.66379249
0.66381432
0.66389024
0.66400365
0.66402432
0.66398534
0.66390138
0.66385836
0.66382913
0.66376658
0.66371413
0.66364316
0.66353564
0.66343033
0.6633117
0.66316866
0.66301162
0.66284402
0.66265424
0.66242855
0.66219252
0.66194827
0.6616857
0.66139466
0.66108561
0.66078398
0.6604801
0.66016433
0.65984614
0.65951977
0.65919794
0.65888306
0.65856844
0.65825364
0.65794824
0.65765216
0.65737017
0.65710939
0.65686204
0.65662538
0.65640092
0.65618386
0.65597962
0.65579546
0.65562871
0.65547242
0.65532188
0.65517674
0.65503929
0.65491197
0.65479671
0.65469491
0.65460705
0.65453211
0.65446752
0.65441076
0.65436004
0.65431463
0.65427481
0.65424154
0.6542157
0.65419716
0.65418473
0.65417727
0.65417337
0.65417255
0.65417406
0.65418218
0.65416227
0.65398145
0.65331597
0.65257985
0.65203278
0.65159429
0.65123203
0.65093031
0.65067987
0.65047183
0.65029923
0.6501566
0.65003897
0.64994204
0.64986252
0.64979769
0.64974514
0.64970287
0.64966923
0.64964276
0.6496221
0.64960628
0.64959437
0.64958559
0.64957923
0.64957474
0.64957166
0.64956962
0.64956837
0.64956769
0.64956744
0.64956751
0.64956784
0.64956843
0.64956927
0.64957043
0.64957198
0.64957393
0.64957621
0.64957852
0.6495805
0.64958193
0.64958268
0.66403305
0.6670083
0.6653159
0.66602818
0.66562838
0.66548094
0.66531025
0.66520234
0.66513805
0.66510314
0.66509832
0.66516866
0.66545277
0.66624795
0.66786099
0.66972366
0.66901181
0.66539711
0.66190134
0.66111561
0.66213446
0.66358912
0.66403508
0.66441001
0.66395759
0.66367097
0.66395787
0.66406146
0.66400176
0.66389337
0.66376608
0.66364776
0.66359439
0.66358876
0.66353971
0.66349681
0.66357147
0.66373754
0.66380091
0.66382534
0.66390593
0.66402309
0.66404126
0.66400249
0.66392475
0.66388917
0.66386269
0.66380267
0.66375418
0.66368664
0.66358321
0.66348373
0.66337011
0.66323191
0.66307934
0.66291612
0.6627297
0.66250751
0.66227546
0.6620349
0.66177632
0.66148654
0.66118155
0.66088363
0.66057925
0.66026609
0.65994866
0.6596219
0.65930052
0.65898539
0.65866902
0.65835363
0.65804728
0.65774926
0.65746634
0.65720381
0.65695368
0.65671541
0.65648884
0.65626962
0.65606484
0.6558804
0.65571267
0.65555537
0.65540448
0.65525973
0.65512319
0.65499714
0.65488361
0.65478414
0.65469908
0.65462658
0.65456356
0.6545077
0.65445806
0.65441411
0.65437598
0.6543446
0.65432056
0.65430343
0.65429191
0.65428465
0.65428039
0.6542786
0.65427893
0.65427363
0.65426036
0.65412289
0.653526
0.65278323
0.65221347
0.65175666
0.65138057
0.65107053
0.65081254
0.65059682
0.65041751
0.65026889
0.65014609
0.65004483
0.64996156
0.64989322
0.64983739
0.64979199
0.6497553
0.64972588
0.64970264
0.64968442
0.6496703
0.64965951
0.6496515
0.64964576
0.6496419
0.64963956
0.64963854
0.64963859
0.64963952
0.64964114
0.64964333
0.64964595
0.64964893
0.64965221
0.64965571
0.64965932
0.64966281
0.64966586
0.64966821
0.64966977
0.64967054
0.6640306
0.66700814
0.66531898
0.66602825
0.66562798
0.66548171
0.66531074
0.66520263
0.66513823
0.66510322
0.66509808
0.66516748
0.6654491
0.66623971
0.66785021
0.66972526
0.66905096
0.66544385
0.66193
0.66111953
0.6621118
0.66356363
0.66402433
0.66441199
0.66396708
0.66367077
0.66395474
0.66406507
0.6640061
0.66389795
0.66377421
0.66365613
0.66360248
0.66359617
0.66354521
0.663503
0.66357829
0.66374597
0.66380933
0.66383653
0.6639222
0.66404232
0.66405762
0.6640197
0.66394902
0.66392031
0.66389632
0.6638389
0.66379426
0.66373029
0.66363107
0.66353743
0.66342897
0.66329554
0.66314742
0.66298868
0.66280559
0.66258705
0.66235893
0.66212244
0.66186779
0.6615796
0.66127911
0.66098398
0.66067956
0.66036981
0.66005257
0.65972565
0.65940464
0.65908922
0.65877139
0.65845568
0.6581481
0.65784796
0.65756398
0.65729963
0.65704722
0.65680768
0.65657865
0.65635687
0.65615082
0.65596496
0.65579546
0.65563692
0.6554856
0.65534094
0.6552046
0.65507878
0.65496554
0.65486636
0.65478156
0.65470949
0.65464713
0.65459209
0.65454293
0.65449921
0.65446126
0.65442984
0.65440539
0.65438733
0.65437437
0.65436541
0.65435951
0.65435623
0.65435599
0.65435985
0.65434678
0.65423182
0.65369505
0.65292718
0.65234159
0.65187582
0.65149185
0.6511716
0.65090444
0.65068284
0.65049826
0.65034405
0.65021489
0.65010768
0.65001929
0.64994679
0.64988769
0.64983992
0.64980167
0.64977133
0.64974746
0.64972886
0.64971454
0.64970374
0.6496958
0.64969022
0.64968662
0.64968466
0.64968399
0.64968434
0.64968552
0.64968738
0.64968979
0.64969268
0.649696
0.6496997
0.6497037
0.64970784
0.64971181
0.64971519
0.64971772
0.64971935
0.64972013
0.66402814
0.66700821
0.66532404
0.66602856
0.66562702
0.66548261
0.66531119
0.66520292
0.66513841
0.6651033
0.66509784
0.66516629
0.66544543
0.66623148
0.66783945
0.66972712
0.6690907
0.66549105
0.66195879
0.66112362
0.66208933
0.66353775
0.66401336
0.66441361
0.66397725
0.66367093
0.66395164
0.66406857
0.6640104
0.66390271
0.66378249
0.66366473
0.66361064
0.66360367
0.6635507
0.66350921
0.66358529
0.66375461
0.66381797
0.66384774
0.66393888
0.66406144
0.66407388
0.66403735
0.66397424
0.66395206
0.66392995
0.66387511
0.66383446
0.66377405
0.66367924
0.66359158
0.66348822
0.66335943
0.66321611
0.66306184
0.66288184
0.66266712
0.6624433
0.66221155
0.66195989
0.66167383
0.66137832
0.66108516
0.66078155
0.66047519
0.66015765
0.6598311
0.659511
0.65919492
0.65887565
0.65855973
0.65825067
0.65794891
0.65766406
0.65739733
0.65714243
0.65690109
0.65666917
0.65644519
0.6562381
0.65605065
0.65587891
0.65571825
0.65556523
0.65541928
0.65528196
0.65515551
0.65504202
0.65494299
0.65485839
0.65478578
0.65472193
0.65466487
0.65461393
0.65456871
0.65452933
0.65449656
0.65447059
0.65445068
0.65443564
0.65442442
0.6544162
0.65441052
0.65440618
0.65439828
0.65438846
0.65429861
0.65384545
0.6530745
0.65246708
0.65198583
0.65159016
0.65126099
0.65098568
0.65075487
0.65056154
0.65040026
0.65026667
0.65015587
0.65006371
0.64998722
0.64992429
0.64987291
0.64983139
0.64979815
0.64977186
0.64975143
0.64973589
0.64972441
0.64971627
0.64971082
0.64970754
0.64970594
0.64970568
0.6497065
0.64970818
0.64971057
0.64971357
0.6497171
0.6497211
0.64972547
0.64973011
0.64973484
0.64973927
0.64974297
0.64974567
0.64974737
0.64974816
0.66402581
0.66700843
0.66532763
0.66602838
0.66562612
0.66548368
0.66531168
0.66520322
0.6651386
0.66510339
0.6650976
0.66516506
0.66544159
0.6662228
0.66782787
0.66972806
0.66913186
0.6655407
0.6619897
0.66112839
0.66206627
0.66351066
0.66400158
0.66441482
0.66398858
0.6636716
0.66394832
0.66407186
0.6640147
0.66390752
0.6637908
0.66367354
0.66361889
0.66361116
0.66355612
0.66351551
0.66359257
0.66376332
0.66382665
0.66385914
0.66395613
0.66408034
0.66408967
0.66405528
0.66400033
0.66398411
0.66396357
0.66391145
0.66387473
0.66381799
0.66372779
0.66364602
0.66354789
0.66342375
0.66328523
0.66313527
0.6629585
0.66274779
0.66252855
0.66230152
0.66205264
0.66176954
0.66147882
0.66118692
0.6608851
0.66058227
0.66026416
0.65993822
0.65961873
0.65930197
0.65898179
0.65866581
0.65835507
0.65805166
0.65776568
0.65749658
0.65723968
0.65699653
0.65676145
0.65653493
0.65632591
0.65613578
0.65596126
0.65579842
0.6556437
0.65549616
0.6553572
0.65522907
0.65511382
0.65501285
0.65492614
0.65485146
0.65478573
0.65472688
0.65467384
0.65462629
0.65458454
0.65454916
0.65452026
0.6544971
0.65447856
0.65446386
0.65445249
0.65444403
0.65443904
0.65443894
0.65442695
0.6543547
0.65396115
0.65319305
0.65256145
0.65206541
0.65165883
0.65132057
0.65103753
0.65079989
0.65060002
0.65043184
0.65029046
0.65017206
0.65007372
0.64999266
0.64992602
0.64987135
0.64982654
0.6497902
0.64976113
0.64973826
0.64972059
0.64970726
0.64969755
0.64969088
0.64968672
0.64968466
0.64968432
0.64968538
0.64968757
0.64969066
0.64969445
0.64969879
0.64970354
0.64970861
0.64971386
0.64971906
0.64972383
0.64972773
0.64973053
0.64973227
0.64973307
0.66402569
0.66700949
0.66532942
0.66602669
0.6656269
0.6654845
0.66531216
0.66520352
0.66513879
0.66510348
0.66509736
0.66516382
0.66543773
0.6662141
0.66781626
0.66972931
0.66917368
0.66559084
0.66202072
0.66113336
0.66204336
0.66348313
0.66398942
0.66441555
0.66400069
0.66367272
0.66394499
0.66407506
0.664019
0.66391241
0.6637993
0.66368262
0.6636273
0.6636188
0.66356165
0.66352186
0.66360003
0.66377223
0.6638355
0.66387071
0.66397364
0.66409897
0.66410532
0.66407397
0.66402738
0.6640167
0.66399724
0.66394782
0.66391516
0.66386205
0.66377671
0.6637009
0.66360787
0.66348834
0.66335494
0.66320924
0.66303549
0.66282921
0.66261479
0.66239279
0.66214602
0.66186656
0.66158062
0.66128964
0.66099077
0.66069071
0.66037191
0.6600473
0.65972878
0.65941096
0.65909009
0.65877384
0.65846128
0.65815674
0.65786959
0.65759786
0.65733882
0.65709331
0.65685487
0.65662616
0.65641528
0.65622235
0.65604474
0.65587891
0.65572122
0.65557079
0.65542911
0.65529853
0.65518111
0.65507814
0.65498918
0.65491141
0.65484182
0.65477894
0.65472226
0.65467129
0.65462616
0.65458745
0.6545551
0.65452833
0.65450625
0.65448817
0.65447366
0.65446202
0.65445133
0.65444061
0.65442955
0.65437566
0.65405807
0.6533119
0.65265154
0.65213707
0.65171675
0.65136711
0.65107444
0.65082894
0.65062269
0.65044924
0.65030335
0.65018072
0.65007784
0.64999185
0.64992042
0.6498616
0.64981375
0.64977511
0.64974413
0.64971946
0.64970012
0.64968535
0.64967445
0.64966682
0.64966191
0.64965927
0.64965849
0.64965923
0.64966121
0.64966421
0.64966804
0.64967254
0.64967759
0.64968304
0.64968873
0.64969435
0.64969947
0.6497036
0.64970652
0.6497083
0.6497091
0.66402555
0.66701044
0.66533252
0.66602519
0.66562914
0.66548503
0.66531268
0.66520384
0.66513899
0.66510357
0.66509711
0.66516254
0.66543372
0.66620496
0.6678038
0.66972949
0.66921689
0.66564353
0.66205412
0.66113916
0.66202013
0.66345437
0.6639761
0.66441547
0.66401406
0.66367444
0.66394136
0.66407813
0.66402331
0.66391728
0.66380788
0.66369194
0.66363592
0.66362642
0.66356711
0.66352828
0.66360782
0.66378125
0.66384443
0.66388244
0.66399162
0.66411737
0.66412067
0.66409328
0.66405521
0.66404946
0.66403089
0.66398433
0.66395571
0.66390629
0.66382603
0.66375607
0.66366821
0.66355345
0.66342504
0.66328332
0.66311306
0.66291134
0.66270201
0.66248469
0.66224008
0.66196514
0.66168323
0.66139324
0.66109816
0.66080048
0.66048124
0.66015802
0.65983996
0.65952128
0.65920032
0.6588838
0.65856944
0.65826376
0.65797514
0.65770086
0.65743998
0.65719191
0.65695001
0.65671882
0.65650518
0.65630866
0.65612773
0.65595903
0.65579846
0.65564487
0.65549985
0.65536576
0.65524459
0.65513759
0.65504442
0.65496261
0.65488933
0.65482292
0.65476248
0.65470766
0.65465867
0.65461586
0.65457915
0.65454789
0.65452125
0.65449868
0.65448017
0.65446526
0.65445374
0.65444703
0.65443245
0.65438529
0.65412408
0.65341584
0.65272678
0.65219524
0.65176315
0.65140393
0.65110286
0.65084956
0.65063598
0.65045565
0.6503033
0.65017469
0.65006628
0.64997516
0.6498989
0.64983543
0.64978298
0.64974002
0.64970529
0.64967769
0.64965616
0.64963971
0.64962751
0.64961885
0.64961312
0.6496098
0.64960848
0.64960887
0.64961067
0.64961364
0.64961756
0.64962225
0.64962755
0.6496333
0.64963929
0.6496452
0.64965055
0.64965483
0.64965783
0.64965963
0.64966044
0.66402426
0.6670141
0.66533556
0.6660243
0.66563171
0.66548532
0.66531316
0.66520416
0.66513919
0.66510367
0.66509686
0.66516126
0.66542969
0.66619577
0.66779128
0.66972996
0.66926088
0.66569677
0.66208761
0.66114505
0.66199701
0.66342507
0.66396204
0.6644148
0.66402836
0.66367647
0.66393763
0.66408115
0.66402757
0.66392223
0.66381672
0.66370153
0.66364471
0.66363417
0.66357269
0.66353475
0.66361574
0.66379044
0.66385345
0.6638945
0.66400983
0.66413538
0.66413592
0.6641136
0.66408397
0.66408268
0.66406468
0.66402087
0.66399643
0.66395073
0.66387578
0.66381169
0.66372885
0.66361888
0.66349562
0.66335791
0.66319111
0.66299437
0.66279016
0.66257747
0.66233501
0.66206496
0.66178686
0.66149826
0.66120777
0.66091138
0.66059209
0.66027084
0.65995341
0.65963373
0.6593129
0.65899565
0.65867955
0.65837314
0.65808291
0.65780616
0.65754329
0.6572922
0.65704689
0.65681339
0.65659696
0.6563969
0.65621247
0.65604014
0.65587558
0.65571772
0.65556848
0.65543032
0.6553052
0.65519424
0.65509672
0.65500987
0.65493118
0.65485957
0.6547944
0.65473501
0.65468146
0.65463415
0.65459291
0.65455716
0.65452639
0.65449979
0.65447745
0.65445851
0.65444255
0.65442422
0.65440994
0.6543743
0.65417286
0.65351991
0.65280029
0.65224766
0.65180057
0.65142929
0.65111827
0.6508567
0.65063615
0.6504498
0.65029213
0.65015868
0.65004578
0.64995046
0.64987026
0.6498031
0.64974723
0.64970112
0.64966342
0.64963294
0.64960866
0.64958969
0.64957526
0.64956468
0.64955738
0.64955286
0.64955066
0.64955036
0.64955164
0.64955423
0.64955791
0.64956248
0.64956776
0.64957359
0.64957973
0.64958581
0.64959132
0.64959572
0.64959878
0.64960061
0.64960142
0.66402108
0.66701739
0.66533548
0.66602325
0.66563381
0.66548538
0.66531368
0.6652045
0.6651394
0.66510378
0.66509662
0.66515993
0.66542551
0.66618613
0.66777786
0.66972926
0.66930605
0.6657527
0.66212372
0.66115187
0.66197382
0.66339462
0.66394652
0.66441333
0.66404401
0.66367902
0.66393351
0.66408392
0.66403181
0.66392727
0.66382574
0.66371135
0.66365379
0.66364195
0.6635782
0.66354127
0.66362389
0.66379979
0.66386259
0.66390676
0.66402847
0.66415308
0.66415117
0.66413479
0.66411328
0.66411597
0.66409852
0.66405748
0.66403733
0.66399545
0.66392594
0.6638676
0.66378983
0.66368486
0.66356648
0.66343261
0.66326994
0.66307814
0.66287905
0.6626707
0.66243084
0.66216616
0.661891
0.66160463
0.66131892
0.66102338
0.66070468
0.66038519
0.66006785
0.65974762
0.65942739
0.65910936
0.65879178
0.65848455
0.65819246
0.65791329
0.65764847
0.65739417
0.65714556
0.65690946
0.65668954
0.65648547
0.65629749
0.65612179
0.65595352
0.65579135
0.65563745
0.65549433
0.65536385
0.65524717
0.65514386
0.65505157
0.65496792
0.65489154
0.65482147
0.65475723
0.65469887
0.65464658
0.65460023
0.6545594
0.65452336
0.65449315
0.6544665
0.65444315
0.65442447
0.65441174
0.65439086
0.65435577
0.65419576
0.65361032
0.65286614
0.6522925
0.65183087
0.65144796
0.65112711
0.65085704
0.65062901
0.65043598
0.65027224
0.65013317
0.650015
0.64991467
0.64982967
0.64975795
0.64969778
0.64964767
0.64960632
0.64957259
0.64954544
0.64952397
0.64950738
0.64949496
0.64948611
0.64948029
0.64947704
0.64947596
0.64947671
0.64947899
0.64948253
0.6494871
0.64949249
0.6494985
0.64950484
0.64951113
0.64951679
0.64952129
0.6495244
0.64952625
0.64952706
0.66401696
0.66701797
0.66533338
0.66602156
0.66563576
0.66548514
0.66531416
0.66520484
0.66513962
0.66510388
0.66509637
0.6651586
0.66542128
0.66617642
0.66776434
0.66972888
0.66935231
0.66580927
0.66215993
0.66115862
0.66195077
0.6633636
0.66393
0.66441177
0.66406063
0.66368169
0.66392919
0.66408668
0.66403603
0.66393252
0.66383502
0.66372146
0.66366308
0.66365006
0.66358387
0.66354786
0.6636322
0.66380926
0.66387183
0.66391947
0.66404743
0.66417036
0.66416654
0.66415695
0.66414334
0.66414954
0.66413242
0.66409415
0.66407848
0.66404043
0.66397651
0.663924
0.66385114
0.66375117
0.66363767
0.66350794
0.66334944
0.66316269
0.66296876
0.66276454
0.66252783
0.66226837
0.66199615
0.6617129
0.66143207
0.66113651
0.66081908
0.66050164
0.66018449
0.65986392
0.65954424
0.65922495
0.65890614
0.65859831
0.65830428
0.65802301
0.65775609
0.65749831
0.65724653
0.6570078
0.65678435
0.65657648
0.65638486
0.65620512
0.65603234
0.65586521
0.65570623
0.655558
0.65542233
0.65530026
0.65519108
0.6550924
0.65500232
0.65491991
0.65484422
0.65477445
0.65471064
0.65465305
0.6546015
0.65455565
0.65451539
0.65448001
0.65444989
0.65442342
0.65439814
0.65437391
0.65435279
0.65432414
0.6542048
0.65369695
0.65293618
0.65233761
0.65185886
0.65146277
0.65113123
0.65085231
0.65061689
0.65041758
0.65024843
0.65010455
0.649982
0.64987758
0.64978869
0.64971321
0.64964939
0.64959575
0.64955104
0.64951414
0.64948406
0.64945992
0.64944092
0.64942637
0.64941564
0.64940819
0.64940353
0.64940124
0.64940097
0.64940238
0.64940522
0.64940924
0.64941422
0.64941992
0.64942607
0.64943226
0.64943789
0.64944239
0.6494455
0.64944734
0.64944815
0.66401371
0.66701735
0.66533486
0.66602027
0.66563803
0.66548458
0.66531466
0.66520521
0.66513985
0.665104
0.66509612
0.66515722
0.66541692
0.66616627
0.66774989
0.66972722
0.66939945
0.66586862
0.662199
0.66116642
0.66192788
0.66333132
0.66391186
0.66441007
0.66407831
0.66368473
0.66392437
0.66408907
0.66404026
0.66393794
0.66384444
0.66373183
0.66367269
0.6636583
0.66358944
0.66355452
0.66364073
0.663819
0.66388125
0.66393255
0.6640667
0.66418729
0.6641822
0.66417999
0.66417379
0.66418278
0.66416634
0.66413091
0.66411984
0.66408576
0.66402745
0.66398068
0.66391278
0.66381796
0.66370906
0.66358359
0.66342972
0.6632479
0.66305892
0.66285886
0.66262593
0.66237168
0.66210193
0.66182288
0.66154632
0.66125074
0.66093527
0.66061944
0.66030216
0.65998182
0.65966288
0.65934241
0.65902273
0.65871411
0.65841797
0.65813455
0.65786537
0.65760413
0.65734941
0.65710781
0.65688042
0.65666857
0.65647333
0.65628985
0.65611298
0.65594121
0.65577712
0.65562329
0.65548147
0.65535288
0.65523711
0.65513221
0.65503629
0.65494804
0.65486642
0.65479086
0.65472135
0.65465805
0.6546009
0.65454972
0.65450445
0.65446459
0.65443005
0.65439962
0.65437344
0.65435152
0.65432506
0.65429313
0.65419612
0.65376737
0.65300566
0.65238067
0.65188442
0.65147507
0.65113261
0.65084441
0.65060102
0.65039484
0.65021967
0.65007044
0.64994302
0.64983406
0.64974086
0.64966124
0.64959341
0.64953589
0.64948745
0.64944703
0.64941367
0.64938653
0.64936485
0.64934791
0.64933511
0.64932589
0.64931975
0.64931624
0.64931499
0.64931565
0.64931792
0.64932153
0.64932624
0.64933177
0.64933783
0.64934395
0.64934954
0.64935398
0.64935706
0.64935888
0.64935968
0.66401113
0.66701699
0.66534164
0.66601991
0.66563964
0.66548404
0.66531513
0.66520557
0.66514008
0.66510412
0.66509587
0.66515584
0.66541251
0.66615601
0.66773529
0.66972588
0.66944793
0.66592876
0.66223823
0.66117394
0.6619053
0.66329849
0.66389291
0.66440867
0.66409671
0.66368777
0.6639193
0.66409138
0.66404452
0.66394368
0.6638541
0.66374249
0.66368252
0.6636668
0.66359523
0.66356132
0.66364947
0.66382889
0.66389083
0.66394617
0.66408628
0.66420385
0.66419826
0.66420383
0.66420478
0.664216
0.66420016
0.66416784
0.66416151
0.66413137
0.66407876
0.66403783
0.66397479
0.66388503
0.66378076
0.66365997
0.66351067
0.66333361
0.66314992
0.66295393
0.66272535
0.66247579
0.662209
0.66193493
0.66166218
0.66136636
0.66105343
0.66073922
0.66042203
0.66010231
0.65978377
0.65946184
0.65914165
0.65883226
0.65853411
0.65824895
0.65797736
0.65771259
0.65745499
0.65721033
0.65697906
0.65676355
0.65656468
0.65637696
0.65619541
0.65601882
0.65584972
0.65569067
0.65554341
0.65540903
0.65528695
0.65517527
0.65507253
0.65497773
0.65488968
0.65480764
0.65473177
0.65466242
0.65459965
0.65454289
0.65449338
0.65444901
0.6544105
0.65437576
0.65434262
0.65430966
0.65428222
0.65425424
0.65418127
0.65383044
0.65308487
0.65242933
0.6519133
0.65148953
0.65113545
0.65083762
0.65058618
0.65037326
0.65019241
0.65003832
0.64990665
0.64979385
0.64969708
0.64961401
0.64954281
0.64948195
0.64943018
0.64938646
0.64934986
0.64931961
0.64929496
0.64927528
0.64925995
0.64924844
0.64924026
0.64923497
0.64923217