/*--------------------------------*- C++ -*----------------------------------*\
| =========                 |                                                 |
| \\      /  F ield         | OpenFOAM: The Open Source CFD Toolbox           |
|  \\    /   O peration     | Version:  2506                                  |
|   \\  /    A nd           | Website:  www.openfoam.com                      |
|    \\/     M anipulation  |                                                 |
\*---------------------------------------------------------------------------*/
FoamFile
{
    version     2.0;
    format      ascii;
    arch        "LSB;label=32;scalar=64";
    class       volScalarField;
    location    "0.01";
    object      p;
}
// * * * * * * * * * * * * * * * * * * * * * * * * * * * * * * * * * * * * * //

dimensions      [1 -1 -2 0 0 0 0];

internalField   nonuniform List<scalar> 
13761
(
46968.648
47104.883
46993.162
47022.148
46982.293
46980.815
46973.012
46971.664
46970.51
46970.223
46970.084
46970.105
46970.396
46971.508
46974.225
46976.51
46962.28
46885.828
46686.041
46354.343
45998.848
45769.185
45671.022
45564.007
45412.496
45318.953
45300.503
45344.84
45548.237
45908.511
46200.482
46215.97
46121.421
46111.368
46102.281
46040.474
45982.099
45920.059
45845.116
45765.302
45677.343
45580.907
45475.511
45364.003
46968.562
47104.887
46993.254
47022.164
46982.359
46980.822
46973.028
46971.667
46970.513
46970.223
46970.084
46970.105
46970.396
46971.515
46974.286
46976.801
46963.252
46888.156
46690.032
46359.448
46003.761
45773.104
45674.443
45567.812
45416.217
45321.34
45300.618
45340.582
45537.491
45894.324
46191.927
46217.471
46121.558
46109.153
46101.559
46040.431
45981.919
45920.213
45845.548
45765.968
45678.248
45582.06
45476.883
45365.586
46968.471
47104.89
46993.349
47022.181
46982.427
46980.829
46973.045
46971.67
46970.515
46970.224
46970.085
46970.105
46970.396
46971.523
46974.347
46977.094
46964.24
46890.531
46694.122
46364.693
46008.813
45777.13
45677.948
45571.711
45420.05
45323.839
45300.853
45336.444
45526.734
45879.845
46182.849
46218.8
46121.841
46106.92
46100.783
46040.403
45981.75
45920.378
45846
45766.662
45679.185
45583.253
45478.303
45367.225
45247.931
46968.375
47104.894
46993.449
47022.198
46982.497
46980.836
46973.063
46971.672
46970.518
46970.225
46970.085
46970.105
46970.396
46971.53
46974.407
46977.389
46965.243
46892.951
46698.311
46370.075
46014.004
45781.263
45681.537
45575.703
45423.994
45326.455
45301.214
45332.44
45515.987
45865.088
46173.237
46219.923
46122.277
46104.678
46099.948
46040.388
45981.591
45920.551
45846.479
45767.373
45680.153
45584.486
45479.771
45368.918
45249.846
46968.272
47104.898
46993.552
47022.215
46982.571
46980.843
46973.081
46971.675
46970.521
46970.225
46970.085
46970.104
46970.395
46971.536
46974.467
46977.686
46966.259
46895.416
46702.599
46375.599
46019.338
45785.507
45685.215
45579.79
45428.053
45329.19
45301.706
45328.579
45505.262
45850.056
46163.076
46220.806
46122.874
46102.433
46099.049
46040.385
45981.443
45920.733
45846.979
45768.109
45681.153
45585.758
45481.286
45370.666
45251.825
46968.163
47104.901
46993.66
47022.233
46982.648
46980.85
46973.1
46971.678
46970.525
46970.226
46970.085
46970.104
46970.395
46971.543
46974.527
46977.984
46967.29
46897.925
46706.99
46381.269
46024.821
45789.866
45688.983
45583.975
45432.232
45332.051
45302.333
45324.87
45494.569
45834.754
46152.351
46221.408
46123.638
46100.191
46098.082
46040.393
45981.306
45920.921
45847.501
45768.87
45682.185
45587.069
45482.848
45372.469
45253.866
46968.048
47104.905
46993.772
47022.251
46982.728
46980.857
46973.12
46971.682
46970.528
46970.227
46970.086
46970.104
46970.394
46971.549
46974.585
46978.283
46968.334
46900.48
46711.485
46387.089
46030.457
45794.344
45692.845
45588.26
45436.534
45335.04
45303.101
45321.323
45483.924
45819.19
46141.047
46221.69
46124.575
46097.961
46097.041
46040.41
45981.182
45921.115
45848.045
45769.658
45683.249
45588.42
45484.457
45374.326
45255.971
46967.926
47104.909
46993.889
47022.269
46982.811
46980.864
46973.141
46971.685
46970.531
46970.228
46970.086
46970.103
46970.394
46971.554
46974.643
46978.584
46969.392
46903.079
46716.086
46393.062
46036.253
45798.946
45696.803
45592.647
45440.961
45338.162
45304.017
45317.949
45473.341
45803.37
46129.149
46221.609
46125.69
46095.752
46095.92
46040.436
45981.07
45921.314
45848.611
45770.471
45684.345
45589.81
45486.113
45376.237
45258.139
45130.952
46967.797
47104.913
46994.011
47022.287
46982.897
46980.871
46973.162
46971.688
46970.535
46970.229
46970.087
46970.103
46970.393
46971.559
46974.7
46978.885
46970.464
46905.722
46720.794
46399.194
46042.212
45803.675
45700.862
45597.14
45445.519
45341.423
45305.085
45314.758
45462.835
45787.305
46116.644
46221.118
46126.986
46093.573
46094.716
46040.468
45980.972
45921.525
45849.192
45771.312
45685.472
45591.24
45487.817
45378.202
45260.37
45133.413
46967.661
47104.916
46994.138
47022.306
46982.987
46980.878
46973.184
46971.692
46970.539
46970.229
46970.087
46970.103
46970.392
46971.564
46974.757
46979.186
46971.548
46908.41
46725.61
46405.487
46048.342
45808.536
45705.023
45601.741
45450.211
45344.827
45306.311
45311.76
45452.423
45771.004
46103.518
46220.171
46128.468
46091.434
46093.422
46040.504
45980.888
45921.742
45849.792
45772.179
45686.632
45592.709
45489.568
45380.222
45262.663
45135.948
46967.516
47104.92
46994.269
47022.324
46983.08
46980.885
46973.206
46971.695
46970.542
46970.23
46970.087
46970.102
46970.391
46971.568
46974.811
46979.488
46972.643
46911.142
46730.537
46411.947
46054.647
45813.534
45709.292
45606.453
45455.042
45348.379
45307.703
45308.967
45442.123
45754.481
46089.758
46218.717
46130.134
46089.347
46092.034
46040.541
45980.82
45921.972
45850.405
45773.074
45687.824
45594.218
45491.366
45382.297
45265.021
45138.554
46967.363
47104.924
46994.406
47022.343
46983.177
46980.892
46973.23
46971.699
46970.546
46970.231
46970.088
46970.102
46970.389
46971.572
46974.865
46979.789
46973.749
46913.917
46735.577
46418.578
46061.134
45818.674
45713.67
45611.278
45460.014
45352.083
45309.265
45306.39
45431.953
45737.749
46075.354
46216.705
46131.986
46087.322
46090.547
46040.576
45980.769
45922.209
45851.035
45773.996
45689.048
45595.767
45493.213
45384.427
45267.442
45141.234
45006.712
46967.202
47104.927
46994.549
47022.361
46983.277
46980.9
46973.254
46971.703
46970.55
46970.232
46970.088
46970.101
46970.388
46971.575
46974.917
46980.09
46974.864
46916.736
46740.73
46425.385
46067.809
45823.962
45718.161
45616.219
45465.132
45355.944
45311.006
45304.039
45421.934
45720.825
46060.294
46214.082
46134.018
46085.371
46088.956
46040.605
45980.736
45922.454
45851.683
45774.948
45690.305
45597.357
45495.108
45386.614
45269.927
45143.987
45009.688
46967.031
47104.93
46994.698
47022.379
46983.382
46980.907
46973.28
46971.707
46970.554
46970.233
46970.089
46970.101
46970.386
46971.577
46974.968
46980.39
46975.988
46919.599
46745.998
46432.371
46074.678
45829.402
45722.769
45621.28
45470.4
45359.968
45312.931
45301.927
45412.086
45703.727
46044.571
46210.794
46136.222
46083.507
46087.259
46040.626
45980.721
45922.706
45852.347
45775.931
45691.595
45598.988
45497.053
45388.856
45272.478
45146.815
45012.748
46966.85
47104.933
46994.853
47022.398
46983.49
46980.914
46973.306
46971.711
46970.559
46970.234
46970.089
46970.1
46970.384
46971.579
46975.017
46980.688
46977.119
46922.504
46751.384
46439.543
46081.747
45834.999
45727.498
45626.463
45475.822
45364.16
45315.048
45300.065
45402.432
45686.475
46028.178
46206.787
46138.584
46081.745
46085.453
46040.633
45980.727
45922.965
45853.028
45776.945
45692.92
45600.66
45499.047
45391.156
45275.094
45149.716
45015.891
46966.66
47104.936
46995.014
47022.415
46983.603
46980.921
46973.333
46971.716
46970.563
46970.235
46970.09
46970.1
46970.382
46971.58
46975.064
46980.984
46978.257
46925.45
46756.888
46446.904
46089.024
45840.761
45732.352
45631.771
45481.402
45368.526
45317.363
45298.464
45392.995
45669.092
46011.111
46202.006
46141.084
46080.102
46083.534
46040.621
45980.753
45923.23
45853.73
45777.985
45694.28
45602.373
45501.091
45393.513
45277.776
45152.694
45019.119
46966.459
47104.939
46995.182
47022.433
46983.719
46980.929
46973.361
46971.72
46970.568
46970.237
46970.09
46970.099
46970.38
46971.581
46975.109
46981.278
46979.4
46928.438
46762.511
46454.458
46096.516
45846.693
45737.334
45637.208
45487.145
45373.069
45319.883
45297.137
45383.799
45651.606
45993.368
46196.394
46143.692
46078.598
46081.503
46040.584
45980.802
45923.501
45854.457
45779.046
45695.679
45604.129
45503.186
45395.929
45280.525
45155.747
45022.432
44881.359
46966.246
47104.941
46995.357
47022.45
46983.84
46980.936
46973.39
46971.725
46970.573
46970.238
46970.091
46970.098
46970.378
46971.58
46975.152
46981.57
46980.547
46931.466
46768.254
46462.211
46104.228
45852.801
45742.448
45642.777
45493.054
45377.796
45322.614
45296.095
45374.871
45634.044
45974.953
46189.897
46146.373
46077.253
46079.361
46040.516
45980.874
45923.78
45855.205
45780.131
45697.116
45605.93
45505.334
45398.405
45283.342
45158.878
45025.831
44884.985
46966.022
47104.943
46995.54
47022.465
46983.965
46980.944
46973.419
46971.73
46970.578
46970.239
46970.091
46970.098
46970.375
46971.579
46975.193
46981.857
46981.698
46934.533
46774.117
46470.166
46112.17
45859.092
45747.7
45648.481
45499.134
45382.713
45325.564
45295.351
45366.235
45616.438
45955.87
46182.46
46149.082
46076.09
46077.11
46040.41
45980.969
45924.065
45855.973
45781.249
45698.585
45607.778
45507.533
45400.94
45286.228
45162.086
45029.317
44888.707
46965.785
47104.945
46995.73
47022.48
46984.095
46980.951
46973.45
46971.735
46970.583
46970.24
46970.092
46970.097
46970.373
46971.577
46975.231
46982.141
46982.852
46937.639
46780.099
46478.329
46120.348
45865.573
45753.092
45654.323
45505.388
45387.824
45328.737
45294.917
45357.921
45598.823
45936.13
46174.029
46151.767
46075.131
46074.754
46040.258
45981.089
45924.357
45856.759
45782.406
45700.075
45609.679
45509.788
45403.537
45289.185
45165.374
45032.891
44892.526
46965.536
47104.947
46995.929
47022.494
46984.229
46980.959
46973.482
46971.74
46970.588
46970.242
46970.092
46970.096
46970.37
46971.575
46975.267
46982.42
46984.008
46940.782
46786.2
46486.703
46128.77
45872.251
45758.631
45660.305
45511.822
45393.135
45332.142
45294.806
45349.956
45581.236
45915.745
46164.551
46154.365
46074.399
46072.3
46040.05
45981.232
45924.657
45857.563
45783.596
45701.598
45611.626
45512.102
45406.196
45292.212
45168.742
45036.554
44896.443
44749.268
46965.273
47104.948
46996.136
47022.506
46984.368
46980.967
46973.514
46971.746
46970.594
46970.243
46970.093
46970.096
46970.367
46971.571
46975.3
46982.693
46985.164
46943.963
46792.418
46495.293
46137.443
45879.133
45764.32
45666.432
45518.44
45398.652
45335.783
45295.029
45342.369
45563.719
45894.734
46153.978
46156.804
46073.917
46069.76
46039.779
45981.4
45924.966
45858.384
45784.819
45703.171
45613.6
45514.479
45408.921
45295.311
45172.192
45040.307
44900.459
44753.503
46964.996
47104.949
46996.353
47022.515
46984.511
46980.974
46973.548
46971.751
46970.599
46970.244
46970.094
46970.095
46970.363
46971.567
46975.329
46982.961
46986.319
46947.181
46798.752
46504.102
46146.376
45886.226
45770.164
45672.705
45525.245
45404.38
45339.667
45295.599
45335.189
45546.314
45873.122
46142.261
46159.001
46073.704
46067.145
46039.432
45981.591
45925.283
45859.222
45786.074
45704.787
45615.616
45516.912
45411.717
45298.485
45175.724
45044.152
44904.575
44757.847
46964.704
47104.949
46996.579
47022.523
46984.66
46980.982
46973.583
46971.758
46970.605
46970.246
46970.094
46970.094
46970.36
46971.561
46975.356
46983.221
46987.472
46950.436
46805.199
46513.135
46155.577
45893.54
45776.17
45679.128
45532.242
45410.325
45343.799
45296.526
45328.447
45529.068
45850.941
46129.358
46160.863
46073.781
46064.473
46039
45981.803
45925.61
45860.074
45787.361
45706.442
45617.692
45519.379
45414.587
45301.735
45179.338
45048.087
44908.79
44762.299
44609.348
46964.397
47104.948
46996.816
47022.528
46984.813
46980.991
46973.619
46971.764
46970.611
46970.248
46970.095
46970.093
46970.356
46971.555
46975.38
46983.474
46988.621
46953.728
46811.757
46522.395
46165.053
45901.081
45782.341
45685.704
45539.436
45416.492
45348.186
45297.821
45322.171
45512.032
45828.227
46115.229
46162.286
46074.162
46061.765
46038.471
45982.035
45925.948
45860.941
45788.679
45708.136
45619.821
45521.898
45417.523
45305.068
45183.037
45052.116
44913.106
44766.859
44614.103
46964.073
47104.947
46997.063
47022.53
46984.971
46980.999
46973.655
46971.771
46970.617
46970.249
46970.096
46970.092
46970.352
46971.547
46975.4
46983.719
46989.766
46957.054
46818.421
46531.887
46174.812
45908.859
45788.685
45692.435
45546.83
45422.887
45352.832
45299.496
45316.393
45495.256
45805.024
46099.838
46163.157
46074.86
46059.046
46037.833
45982.283
45926.299
45861.823
45790.03
45709.872
45621.999
45524.506
45420.495
45308.488
45186.828
45056.241
44917.528
44771.534
44618.98
46963.733
47104.945
46997.32
47022.528
46985.134
46981.008
46973.693
46971.778
46970.624
46970.251
46970.096
46970.092
46970.348
46971.539
46975.417
46983.955
46990.904
46960.416
46825.19
46541.615
46184.864
45916.884
45795.206
45699.325
45554.43
45429.516
45357.745
45301.561
45311.141
45478.793
45781.38
46083.151
46163.355
46075.882
46056.348
46037.077
45982.547
45926.667
45862.722
45791.417
45711.654
45624.231
45527.183
45423.549
45311.99
45190.724
45060.477
44922.069
44776.338
44623.997
46963.375
47104.943
46997.589
47022.523
46985.303
46981.017
46973.732
46971.785
46970.63
46970.253
46970.097
46970.091
46970.344
46971.529
46975.43
46984.18
46992.033
46963.81
46832.061
46551.586
46195.22
45925.166
45801.912
45706.38
45562.243
45436.386
45362.931
45304.025
45306.441
45462.696
45757.347
46065.14
46162.75
46077.229
46053.702
46036.192
45982.824
45927.056
45863.642
45792.844
45713.486
45626.522
45529.934
45426.702
45315.566
45194.741
45064.832
44926.74
44781.285
44629.168
44470.937
46962.998
47104.94
46997.87
47022.514
46985.476
46981.026
46973.772
46971.793
46970.637
46970.255
46970.098
46970.09
46970.339
46971.519
46975.438
46984.394
46993.152
46967.237
46839.031
46561.803
46205.889
45933.715
45808.809
45713.604
45570.272
45443.503
45368.394
45306.898
45302.322
45447.022
45732.989
46045.783
46161.202
46078.891
46051.147
46035.166
45983.107
45927.468
45864.581
45794.31
45715.372
45628.872
45532.762
45429.945
45319.231
45198.874
45069.314
44931.548
44786.379
44634.497
44476.46
46962.602
47104.936
46998.162
47022.501
46985.654
46981.036
46973.813
46971.801
46970.644
46970.257
46970.099
46970.089
46970.334
46971.507
46975.443
46984.596
46994.259
46970.692
46846.096
46572.271
46216.879
45942.544
45815.904
45721.001
45578.523
45450.872
45374.14
45310.188
45298.81
45431.834
45708.378
46025.071
46158.568
46080.853
46048.72
46033.989
45983.389
45927.905
45865.541
45795.816
45717.311
45631.284
45535.667
45433.28
45323.01
45203.101
45073.935
44936.496
44791.625
44639.991
44482.16
46962.185
47104.932
46998.467
47022.484
46985.837
46981.047
46973.855
46971.81
46970.651
46970.259
46970.1
46970.088
46970.329
46971.494
46975.444
46984.786
46995.352
46974.175
46853.249
46582.992
46228.201
45951.661
45823.201
45728.575
45586.999
45458.498
45380.175
45313.903
45295.932
45417.194
45683.597
46003.003
46154.697
46083.085
46046.462
46032.653
45983.663
45928.371
45866.522
45797.364
45719.307
45633.761
45538.654
45436.709
45326.905
45207.421
45078.707
44941.59
44797.03
44645.656
44488.044
44324.164
46961.747
47104.927
46998.783
47022.461
46986.026
46981.058
46973.898
46971.819
46970.659
46970.261
46970.101
46970.087
46970.324
46971.48
46975.44
46984.962
46996.427
46977.68
46860.488
46593.968
46239.862
45961.079
45830.708
45736.332
45595.705
45466.387
45386.503
45318.05
45293.712
45403.168
45658.735
45979.592
46149.439
46085.548
46044.41
46031.151
45983.92
45928.866
45867.525
45798.954
45721.361
45636.304
45541.723
45440.235
45330.912
45211.855
45083.622
44946.842
44802.598
44651.497
44494.117
44330.412
46961.287
47104.921
46999.113
47022.434
46986.219
46981.07
46973.942
46971.828
46970.666
46970.264
46970.102
46970.086
46970.318
46971.465
46975.431
46985.124
46997.483
46981.204
46867.807
46605.201
46251.873
45970.81
45838.43
45744.278
45604.643
45474.543
45393.131
45322.635
45292.172
45389.822
45633.89
45954.864
46142.641
46088.186
46042.601
46029.48
45984.147
45929.395
45868.55
45800.586
45723.474
45638.917
45544.878
45443.861
45335.034
45216.449
45088.633
44952.263
44808.335
44657.52
44500.387
44336.871
46960.804
47104.915
46999.455
47022.403
46986.417
46981.083
46973.986
46971.839
46970.674
46970.266
46970.103
46970.085
46970.313
46971.448
46975.417
46985.271
46998.517
46984.744
46875.204
46616.691
46264.244
45980.866
45846.374
45752.419
45613.818
45482.972
45400.062
45327.662
45291.332
45377.222
45609.168
45928.863
46134.153
46090.922
46041.069
46027.643
45984.334
45929.958
45869.597
45802.262
45725.649
45641.602
45548.122
45447.589
45339.273
45221.181
45093.773
44957.857
44814.252
44663.732
44506.861
44343.547
46960.297
47104.908
46999.81
47022.365
46986.62
46981.096
46974.032
46971.849
46970.682
46970.269
46970.104
46970.084
46970.307
46971.431
46975.399
46985.402
46999.524
46988.294
46882.676
46628.437
46276.983
45991.259
45854.546
45760.762
45623.233
45491.678
45407.304
45333.136
45291.209
45365.433
45584.68
45901.651
46123.832
46093.653
46039.848
46025.647
45984.465
45930.558
45870.67
45803.983
45727.887
45644.361
45551.455
45451.424
45343.633
45226.053
45099.068
44963.607
44820.362
44670.14
44513.544
44350.45
44181.113
46959.764
47104.9
47000.178
47022.323
46986.828
46981.111
46974.079
46971.861
46970.691
46970.272
46970.105
46970.083
46970.301
46971.412
46975.376
46985.518
47000.502
46991.849
46890.222
46640.435
46290.101
46002.002
45862.954
45769.314
45632.89
45500.664
45414.862
45339.058
45291.819
45354.519
45560.546
45873.307
46111.544
46096.244
46038.972
46023.508
45984.527
45931.195
45871.767
45805.749
45730.192
45647.198
45554.882
45455.368
45348.117
45231.067
45104.544
44969.488
44826.678
44676.751
44520.446
44357.586
44188.426
46959.206
47104.892
47000.56
47022.275
46987.04
46981.127
46974.127
46971.872
46970.699
46970.275
46970.106
46970.083
46970.295
46971.392
46975.347
46985.617
47001.446
46995.404
46897.842
46652.683
46303.605
46013.11
45871.603
45778.084
45642.793
45509.937
45422.74
45345.432
45293.173
45344.544
45536.891
45843.935
46097.168
46098.527
46038.475
46021.252
45984.502
45931.868
45872.893
45807.561
45732.565
45650.115
45558.404
45459.426
45352.73
45236.228
45110.188
44975.535
44833.196
44683.579
44527.572
44364.963
44195.998
46958.62
47104.883
47000.955
47022.222
46987.257
46981.145
46974.176
46971.885
46970.708
46970.278
46970.107
46970.082
46970.288
46971.371
46975.314
46985.701
47002.352
46998.952
46905.536
46665.172
46317.506
46024.596
45880.503
45787.078
45652.943
45519.499
45430.947
45352.256
45295.279
45335.566
45513.843
45813.657
46080.601
46100.301
46038.38
46018.913
45984.375
45932.577
45874.048
45809.42
45735.009
45653.114
45562.025
45463.6
45357.475
45241.54
45116.003
44981.793
44839.871
44690.642
44534.932
44372.592
44203.837
44028.43
46958.007
47104.873
47001.364
47022.163
46987.477
46981.164
46974.226
46971.898
46970.718
46970.281
46970.109
46970.081
46970.281
46971.349
46975.275
46985.767
47003.215
47002.485
46913.306
46677.894
46331.811
46036.474
45889.661
45796.305
45663.344
45529.357
45439.487
45359.531
45298.14
45327.644
45491.534
45782.619
46061.763
46101.335
46038.703
46016.539
45984.128
45933.317
45875.237
45811.325
45737.525
45656.199
45565.747
45467.894
45362.357
45247.007
45121.994
44988.256
44846.721
44697.949
44542.539
44380.479
44211.953
44036.702
46957.365
47104.863
47001.786
47022.098
46987.701
46981.185
46974.276
46971.913
46970.727
46970.285
46970.11
46970.08
46970.275
46971.325
46975.231
46985.816
47004.032
47005.994
46921.153
46690.839
46346.528
46048.759
45899.085
45805.774
45673.997
45539.513
45448.366
45367.255
45301.754
45320.831
45470.096
45750.99
46040.6
46101.367
46039.443
46014.186
45983.745
45934.083
45876.46
45813.278
45740.114
45659.371
45569.574
45472.313
45367.38
45252.634
45128.166
44994.921
44853.785
44705.476
44550.411
44388.636
44220.354
44045.28
46956.694
47104.851
47002.223
47022.027
46987.929
46981.207
46974.328
46971.927
46970.737
46970.288
46970.112
46970.079
46970.268
46971.301
46975.182
46985.847
47004.798
47009.466
46929.083
46703.996
46361.665
46061.465
45908.787
45815.491
45684.905
45549.974
45457.59
45375.427
45306.118
45315.175
45449.66
45718.961
46017.09
46100.109
46040.578
46011.921
45983.212
45934.869
45877.722
45815.278
45742.78
45662.633
45573.508
45476.86
45372.549
45258.427
45134.524
45001.792
44861.108
44713.182
44558.567
44397.074
44229.05
44054.175
43872.539
46955.993
47104.837
47002.672
47021.95
46988.161
46981.232
46974.38
46971.943
46970.747
46970.292
46970.113
46970.078
46970.261
46971.275
46975.128
46985.859
47005.509
47012.891
46937.096
46717.353
46377.23
46074.607
45918.776
45825.465
45696.069
45560.745
45467.164
45384.042
45311.223
45310.719
45430.356
45686.742
45991.247
46097.256
46042.066
46009.817
45982.518
45935.662
45879.026
45817.325
45745.522
45665.989
45577.554
45481.538
45377.868
45264.39
45141.074
45008.875
44868.668
44721.119
44566.995
44405.811
44238.052
44063.399
43881.892
46955.261
47104.822
47003.135
47021.868
46988.395
46981.258
46974.433
46971.96
46970.757
46970.296
46970.115
46970.077
46970.254
46971.249
46975.068
46985.852
47006.161
47016.256
46945.194
46730.897
46393.229
46088.201
45929.066
45835.701
45707.493
45571.831
45477.093
45393.097
45317.059
45307.497
45412.306
45654.562
45963.124
46092.487
46043.837
46007.949
45981.657
45936.452
45880.374
45819.421
45748.344
45669.44
45581.715
45486.353
45383.341
45270.528
45147.822
45016.177
44876.469
44729.351
44575.637
44414.87
44247.371
44072.963
43891.608
43703.329
46954.499
47104.805
47003.612
47021.779
46988.632
46981.287
46974.487
46971.977
46970.768
46970.3
46970.116
46970.077
46970.246
46971.221
46975.003
46985.826
47006.751
47019.552
46953.372
46744.615
46409.667
46102.263
45939.669
45846.205
45719.176
45583.241
45487.379
45402.585
45323.618
45305.535
45395.628
45622.668
45932.824
46085.481
46045.792
46006.385
45980.629
45937.221
45881.768
45821.564
45751.245
45672.99
45585.994
45491.308
45388.975
45276.848
45154.775
45023.705
44884.518
44737.865
44584.528
44424.253
44257.029
44082.877
43901.701
43713.489
46953.704
47104.784
47004.101
47021.685
46988.872
46981.318
46974.542
46971.996
46970.779
46970.304
46970.118
46970.076
46970.239
46971.193
46974.934
46985.78
47007.278
47022.771
46961.619
46758.497
46426.547
46116.806
45950.603
45856.98
45731.122
45594.982
45498.026
45412.5
45330.892
45304.841
45380.432
45591.314
45900.496
46075.925
46047.791
46005.183
45979.444
45937.953
45883.211
45823.756
45754.228
45676.641
45590.394
45496.407
45394.773
45283.353
45161.938
45031.464
44892.82
44746.66
44593.723
44433.915
44267.057
44093.156
43912.181
43724.065
46952.878
47104.761
47004.603
47021.585
46989.114
46981.353
46974.598
46972.015
46970.79
46970.309
46970.12
46970.075
46970.232
46971.163
46974.859
46985.714
47007.739
47025.903
46969.923
46772.532
46443.87
46131.848
45961.885
45868.029
45743.331
45607.063
45509.034
45422.836
45338.874
45305.411
45366.817
45560.765
45866.344
46063.529
46049.652
46004.385
45978.126
45938.628
45884.701
45825.997
45757.294
45680.398
45594.919
45501.654
45400.74
45290.052
45169.319
45039.463
44901.385
44755.741
44603.263
44443.818
44277.482
44103.819
43923.063
43735.069
43540
46952.021
47104.732
47005.116
47021.48
46989.357
46981.389
46974.654
46972.035
46970.802
46970.314
46970.122
46970.075
46970.224
46971.133
46974.779
46985.628
47008.136
47028.935
46978.274
46786.713
46461.633
46147.405
45973.538
45879.351
45755.805
45619.493
45520.405
45433.586
45347.554
45307.231
45354.872
45531.285
45830.624
46048.041
46051.125
46004.025
45976.713
45939.226
45886.238
45828.288
45760.443
45684.263
45599.571
45507.053
45406.881
45296.948
45176.922
45047.708
44910.219
44765.116
44613.124
44454.035
44288.275
44114.895
43934.36
43746.517
43551.472
46951.132
47104.699
47005.641
47021.371
46989.602
46981.429
46974.712
46972.057
46970.815
46970.319
46970.124
46970.074
46970.217
46971.102
46974.695
46985.523
47008.472
47031.849
46986.661
46801.035
46479.831
46163.493
45985.579
45890.949
45768.544
45632.279
45532.142
45444.742
45356.919
45310.279
45344.68
45503.135
45793.645
46029.263
46051.896
46004.118
45975.257
45939.728
45887.818
45830.631
45763.676
45688.239
45604.356
45512.609
45413.202
45304.049
45184.757
45056.208
44919.331
44774.793
44623.315
44464.683
44299.318
44126.408
43946.095
43758.424
43563.433
46950.213
47104.659
47006.175
47021.257
46989.847
46981.472
46974.771
46972.08
46970.827
46970.324
46970.126
46970.074
46970.209
46971.07
46974.606
46985.397
47008.749
47034.627
46995.071
46815.492
46498.452
46180.128
45998.03
45902.824
45781.55
45645.428
45544.251
45456.297
45366.951
45314.521
45336.311
45476.567
45755.764
46007.068
46051.583
46004.655
45973.831
45940.115
45889.433
45833.027
45766.993
45692.33
45609.275
45518.326
45419.707
45311.36
45192.828
45064.97
44928.729
44784.783
44633.843
44475.707
44310.719
44138.341
43958.296
43770.805
43575.9
43373.74
46949.263
47104.612
47006.718
47021.141
46990.093
46981.519
46974.83
46972.103
46970.84
46970.33
46970.129
46970.073
46970.202
46971.038
46974.512
46985.252
47008.969
47037.252
47003.496
46830.082
46517.481
46197.326
46010.909
45914.983
45794.826
45658.943
45556.737
45468.245
45377.633
45319.914
45329.822
45451.816
45717.38
45981.416
46049.744
46005.6
45972.516
45940.376
45891.076
45835.478
45770.394
45696.537
45614.334
45524.207
45426.402
45318.888
45201.142
45074.002
44938.422
44795.093
44644.718
44487.113
44322.574
44150.607
43970.991
43783.683
43588.889
43386.704
46948.285
47104.554
47007.267
47021.023
46990.34
46981.568
46974.891
46972.129
46970.854
46970.336
46970.131
46970.073
46970.194
46971.005
46974.414
46985.087
47009.128
47039.712
47011.921
46844.798
46536.901
46215.102
46024.237
45927.429
45808.372
45672.831
45569.606
45480.581
45388.945
45326.413
45325.256
45429.097
45678.927
45952.367
46045.889
46006.872
45971.403
45940.502
45892.733
45837.985
45773.88
45700.863
45619.535
45530.258
45433.293
45326.639
45209.708
45083.311
44948.419
44805.734
44655.95
44498.911
44334.86
44163.268
43984.171
43797.091
43602.42
43400.244
43190.843
46947.278
47104.486
47007.821
47020.904
46990.586
46981.622
46974.953
46972.155
46970.868
46970.342
46970.134
46970.073
46970.187
46970.972
46974.313
46984.904
47009.226
47041.993
47020.332
46859.635
46556.691
46233.471
46038.035
45940.167
45822.195
45687.093
45582.863
45493.299
45400.866
45333.973
45322.629
45408.599
45640.86
45920.089
46039.499
46008.348
45970.576
45940.497
45894.39
45840.549
45777.45
45705.31
45624.881
45536.481
45440.383
45334.618
45218.53
45092.907
44958.729
44816.715
44667.55
44511.11
44347.574
44176.425
43997.765
43811.061
43616.516
43414.379
43204.858
46946.242
47104.404
47008.378
47020.786
46990.832
46981.679
46975.016
46972.182
46970.883
46970.349
46970.137
46970.073
46970.18
46970.938
46974.207
46984.702
47009.26
47044.084
47028.714
46874.585
46576.83
46252.445
46052.325
45953.2
45836.297
45701.734
45596.513
45506.396
45413.375
45342.561
45321.924
45390.481
45603.647
45884.865
46030.055
46009.845
45970.101
45940.378
45896.031
45843.17
45781.105
45709.881
45630.377
45542.882
45447.68
45342.831
45227.617
45102.796
44969.361
44828.046
44679.528
44523.716
44360.732
44190.095
44011.79
43825.591
43631.214
43429.129
43219.526
46945.178
47104.308
47008.936
47020.67
46991.077
46981.74
46975.08
46972.211
46970.898
46970.356
46970.139
46970.073
46970.173
46970.904
46974.098
46984.482
47009.23
47045.974
47037.044
46889.639
46597.3
46272.036
46067.128
45966.533
45850.685
45716.756
45610.559
45519.872
45426.451
45352.149
45323.088
45374.874
45567.752
45847.09
46017.069
46011.105
45970.021
45940.178
45897.638
45845.845
45784.842
45714.576
45636.025
45549.464
45455.187
45351.284
45236.975
45112.988
44980.325
44839.738
44691.895
44536.74
44374.345
44204.26
44026.364
43840.613
43646.55
43444.524
43234.872
43017.907
46944.085
47104.196
47009.493
47020.558
46991.321
46981.805
46975.146
46972.241
46970.914
46970.363
46970.143
46970.073
46970.166
46970.87
46973.986
46984.245
47009.135
47047.653
47045.299
46904.789
46618.083
46292.252
46082.469
45980.169
45865.367
45732.161
45625.005
45533.727
45440.074
45362.707
45326.05
45361.876
45533.626
45807.266
46000.126
46011.777
45970.353
45939.949
45899.198
45848.572
45788.663
45719.397
45641.83
45556.232
45462.91
45359.984
45246.612
45123.49
44991.63
44851.801
44704.663
44550.194
44388.425
44218.931
44041.536
43856.113
43662.53
43460.603
43250.92
43033.768
46942.965
47104.071
47010.049
47020.45
46991.563
46981.874
46975.213
46972.273
46970.931
46970.37
46970.146
46970.073
46970.159
46970.836
46973.871
46983.991
47008.975
47049.118
47053.446
46920.025
46639.165
46313.097
46098.369
45994.116
45880.352
45747.948
45639.852
45547.966
45454.225
45374.196
45330.725
45351.558
45501.69
45765.984
45978.923
46011.405
45971.082
45939.765
45900.698
45851.343
45792.566
45724.343
45647.793
45563.189
45470.855
45368.935
45256.535
45134.312
45003.286
44864.244
44717.844
44564.092
44402.986
44234.12
44057.273
43872.231
43679.081
43477.409
43267.702
43050.398
42825.932
46941.818
47103.931
47010.604
47020.346
46991.805
46981.948
46975.282
46972.306
46970.948
46970.378
46970.149
46970.074
46970.152
46970.801
46973.754
46983.722
47008.751
47050.367
47061.441
46935.339
46660.536
46334.571
46114.853
46008.377
45895.649
45764.118
45655.102
45562.593
45468.887
45386.577
45337.012
45343.96
45472.326
45723.907
45953.314
46009.432
45972.142
45939.716
45902.135
45854.15
45796.55
45729.414
45653.917
45570.339
45479.026
45378.144
45266.752
45145.462
45015.303
44877.08
44731.448
44578.447
44418.04
44249.841
44073.587
43889.037
43696.173
43494.945
43285.264
43067.827
42843.056
46940.646
47103.78
47011.156
47020.249
46992.045