/*--------------------------------*- C++ -*----------------------------------*\
| =========                 |                                                 |
| \\      /  F ield         | OpenFOAM: The Open Source CFD Toolbox           |
|  \\    /   O peration     | Version:  2506                                  |
|   \\  /    A nd           | Website:  www.openfoam.com                      |
|    \\/     M anipulation  |                                                 |
\*---------------------------------------------------------------------------*/
FoamFile
{
    version     2.0;
    format      ascii;
    arch        "LSB;label=32;scalar=64";
    class       volScalarField;
    location    "1.35";
    object      k;
}
// * * * * * * * * * * * * * * * * * * * * * * * * * * * * * * * * * * * * * //

dimensions      [0 2 -2 0 0 0 0];

internalField   nonuniform List<scalar> 
1375
(
1.9502508
1.9462433
2.2978088
2.6176958
2.8424756
2.98589
1.9365747
2.2887261
2.607685
2.8303021
2.9707469
3.0479803
3.0825205
3.0930974
3.0939946
3.0895061
1.9284227
2.2812826
2.5991762
2.8194812
2.9567942
3.0308547
3.0628616
3.0718426
3.0721185
3.0671604
3.0637586
3.0623526
3.0622281
3.0646499
3.0687817
1.9212304
2.2747078
2.5913878
2.8092529
2.9433528
3.0141863
3.0436224
3.0511346
3.0505758
3.0452113
3.041864
3.0405665
3.0405233
3.0431842
3.0473425
3.052136
3.0575175
3.0633825
3.0696659
3.0763383
1.9143133
2.2682215
2.5835225
2.798834
2.9297148
2.9973966
3.0244037
3.0307053
3.0291747
3.0235634
3.0202689
3.0190795
3.0191165
3.0219915
3.0261587
3.03093
3.0362645
3.0420616
3.0482627
3.0548422
3.0617934
3.0691209
3.0768374
3.0849628
3.0935245
1.9069728
2.2610964
2.5748861
2.7875786
2.9153145
2.9800434
3.0049082
3.0102514
3.0078228
3.0021372
2.998935
2.9978476
2.9979963
3.0010603
3.005223
3.0099652
3.0152457
3.0209682
3.0270806
3.0335615
3.0404064
3.0476203
3.0552163
3.0632141
3.0716412
3.0805318
3.0899269
3.0998732
3.1104237
1.8986354
2.252742
2.5649643
2.775068
2.899832
2.9619084
2.9849871
2.9895976
2.9864956
2.9808903
2.9778332
2.9768465
2.9771515
2.9803764
2.9845235
2.9892311
2.9944518
3.000094
3.006112
3.0124888
3.0192222
3.0263183
3.0337901
3.0416569
3.0499458
3.0586905
3.0679318
3.0777175
3.0881008
3.0991394
3.1108967
3.1234464
3.1368743
1.8889891
2.2429106
2.5535912
2.7612282
2.8832614
2.9430255
2.9646652
2.9687336
2.9652277
2.9598229
2.9569565
2.9560713
2.9565776
2.9599301
2.964052
2.9687195
2.9738757
2.9794337
2.9853534
2.9916213
2.998238
3.005211
3.0125535
3.020285
3.0284322
3.037029
3.0461161
3.0557405
3.0659535
3.0768116
3.0883764
3.1007191
3.1139232
3.1280838
3.1433142
3.1597539
1.8779784
2.2317109
2.5409642
2.7463196
2.865877
2.9236344
2.9441106
2.9477785
2.9440923
2.9389624
2.9363116
2.9355286
2.9362689
2.9397111
2.9437995
2.948421
2.9535085
2.9589799
2.9647992
2.9709558
2.9774525
2.984299
2.9915099
2.9991051
3.0071107
3.0155588
3.0244884
3.0339454
3.0439811
3.0546515
3.0660182
3.0781503
3.0911267
3.1050397
3.1199966
3.1361321
3.1536054
3.1726211
3.1934129
1.8658046
2.2195155
2.5275244
2.7308069
2.84811
2.9040802
2.9235652
2.9269145
2.9231763
2.9183459
2.9159112
2.9152273
2.9162144
2.9197073
2.9237528
2.9283201
2.9333336
2.9387159
2.9444344
2.9504804
2.9568578
2.9635778
2.9706562
2.9781135
2.9859755
2.9942743
3.003048
3.01234
3.0221989
3.0326777
3.0438371
3.055746
3.0684811
3.0821338
3.0968105
3.1126358
3.1297691
3.1484006
3.1687507
3.1910685
3.2155866
3.2424812
1.8529961
2.2069423
2.5138591
2.715221
2.8304048
2.8846965
2.9032593
2.9063155
2.9025551
2.8980078
2.8957699
2.895178
2.896405
2.8999132
2.9039068
2.908411
2.9133436
2.9186323
2.9242476
2.9301823
2.9364407
2.9430347
2.949981
2.9573011
2.9650211
2.9731716
2.9817888
2.9909139
3.0005933
3.0108785
3.0218278
3.0335077
3.0459954
3.0593799
3.0737666
3.0892742
3.1060594
3.1243024
3.1442087
3.1660073
3.1899081
3.2160561
3.2445137
3.2753342
1.8403578
2.1947162
2.5005372
2.7000003
2.8130844
2.865705
2.883339
2.8860899
2.8822718
2.8779686
2.8758982
2.8753882
2.8768346
2.8803295
2.8842634
2.8886964
2.8935416
2.8987319
2.9042412
2.9100638
2.9162041
2.9226741
2.9294906
2.9366748
2.9442522
2.9522522
2.9607085
2.9696609
2.979155
2.9892412
2.9999765
3.0114248
3.0236598
3.0367688
3.0508567
3.0660429
3.0824772
3.100326
3.1197866
3.1410705
3.1643597
3.1897771
3.2173402
3.247131
3.2800729
3.3208652
3.3910458
1.8287586
2.183452
2.4879662
2.6854025
2.7962992
2.8471853
2.8638446
2.8662623
2.8623281
2.8582254
2.8562937
2.8558554
2.8574931
2.8609515
2.8648189
2.8691743
2.8739273
2.879016
2.8844168
2.890125
2.8961454
2.9024897
2.9091751
2.9162232
2.9236592
2.9315116
2.9398115
2.9485946
2.957903
2.9677856
2.9782992
2.9895077
3.0014823
3.0143077
3.0280879
3.0429419
3.059016
3.0764663
3.0954838
3.1162561
3.1389328
3.1636217
3.1903192
3.2191228
3.2510242
3.2910083
3.3615978
3.6089083
5.3919426
1.8188761
2.173578
2.4764078
2.6715526
2.7800816
2.8291213
2.8447428
2.8467972
2.8426949
2.8387588
2.8369459
2.836573
2.8383758
2.8417809
2.8455758
2.8498467
2.8545015
2.8594829
2.8647695
2.8703579
2.8762541
2.8824702
2.8890232
2.8959344
2.9032279
2.9109303
2.9190717
2.9276856
2.9368107
2.9464942
2.9567908
2.9677628
2.979481
2.9920262
3.005495
3.0200102
3.0357134
3.052756
3.0713148
3.0915691
3.1136463
3.1376065
3.163442
3.1912743
3.222193
3.2614629
3.3326317
3.5892001
5.4764044
1.8108557
2.1651877
2.4659223
2.6584461
2.7643797
2.8114456
2.825967
2.827635
2.8233338
2.8195429
2.8178398
2.8175305
2.8194791
2.8228209
2.8265398
2.8307215
2.8352735
2.8401434
2.8453117
2.850776
2.8565434
2.8626262
2.8690408
2.8758075
2.8829499
2.8904941
2.8984699
2.9069104
2.9158523
2.9253383
2.9354208
2.94616
2.9576221
2.9698889
2.9830582
2.9972438
3.0125787
3.02922
3.04732
3.067035
3.0885003
3.1117355
3.1367263
3.1635856
3.1935481
3.2322133
3.3042686
3.5709961
5.4723957
1.8042389
2.1580151
2.4563673
2.6459716
2.7490928
2.7940732
2.8074502
2.8087189
2.8042101
2.8005528
2.7989562
2.7987108
2.80079
2.8040638
2.8077069
2.8117974
2.8162446
2.8210006
2.8260481
2.8313856
2.8370212
2.842968
2.8492418
2.8558615
2.8628495
2.8702312
2.8780356
2.8862963
2.8950483
2.9043306
2.9141916
2.9246893
2.9358911
2.9478784
2.9607452
2.9745997
2.9895701
3.0058009
3.0234475
3.0426496
3.0635087
3.0860038
3.1101055
3.13602
3.165105
3.2032464
3.2764747
3.5542306
5.4929811
1.7982807
2.1515792
2.4474574
2.6339483
2.7341038
2.7769285
2.7891424
2.7900118
2.7853029
2.7817723
2.7802801
2.7800973
2.7822906
2.785492
2.7890581
2.7930554
2.7973954
2.802036
2.806962
2.8121732
2.8176779
2.8234888
2.829621
2.8360919
2.8429219
2.8501365
2.857766
2.8658424
2.8744007
2.8834794
2.8931236
2.9033875
2.9143342
2.9260446
2.9386061
2.952123
2.9667136
2.9825189
2.999686
3.0183444
3.0385596
3.0603283
3.0836038
3.1086075
3.1368347
3.1745692
3.2493805
3.5426688
5.5896601
1.7923055
2.1453857
2.4388762
2.622188
2.7193103
2.7599596
2.7710169
2.7714974
2.7666066
2.7631972
2.7618082
2.761685
2.7639753
2.7671
2.7705877
2.7744902
2.7787225
2.7832474
2.7880517
2.7931357
2.7985073
2.8041782
2.810163
2.8164798
2.8231485
2.8301929
2.8376439
2.8455339
2.8538956
2.8627679
2.8721953
2.8822274
2.8929252
2.9043606
2.9166194
2.9298013
2.9440258
2.9594228
2.9761201
2.9942286
3.0137801
3.0347818
3.0571913
3.0812877
3.1087089
3.1461942
3.2230286
3.5350814
5.6801328
1.785826
2.1390058
2.430325
2.6105106
2.7046198
2.7431259
2.7530483
2.7531728
2.7481209
2.7448287
2.7435422
2.7434752
2.7458447
2.7488886
2.7522954
2.7561015
2.7602258
2.7646355
2.7693192
2.7742775
2.7795179
2.7850515
2.7908916
2.7970547
2.80356
2.8104288
2.8176911
2.8253813
2.8335321
2.8421826
2.8513787
2.8611684
2.8716108
2.8827763
2.8947412
2.9076026
2.9214716
2.9364582
2.9526844
2.9702438
2.989159
3.009401
3.0309461
3.0541409
3.0807986
3.1181157
3.1976031
3.5300634
5.7228845
1.7785078
2.1320243
2.4214752
2.5987054
2.6899185
2.7263626
2.7352541
2.7350081
2.7298395
2.7266609
2.7254751
2.7254575
2.727888
2.7308472
2.7341711
2.7378797
2.7418965
2.7461923
2.7507566
2.7555892
2.760697
2.766092
2.7717877
2.7777976
2.7841388
2.7908358
2.797917
2.8054144
2.8133612
2.8217938
2.8307566
2.8402981
2.8504782
2.8613631
2.8730184
2.8855408
2.8990291
2.9136006
2.9293696
2.9463951
2.964681
2.9841717
3.0048581
3.0271627
3.0530987
3.0904268
3.1733899
3.5295428
5.8042106
1.7702379
2.1241675
2.4120743
2.5866031
2.6751123
2.7096294
2.7176326
2.7169856
2.7117585
2.708691
2.7075973
2.7076276
2.710096
2.7129659
2.7162023
2.7198098
2.7237164
2.7278956
2.7323368
2.737039
2.7420086
2.7472594
2.7528081
2.7586696
2.7648561
2.7713891
2.7783012
2.7856176
2.7933631
2.8015785
2.8103082
2.8195975
2.8295064
2.8401051
2.8514673
2.8636721
2.8768242
2.8910095
2.9063184
2.9227846
2.9403848
2.9590881
2.9789144
3.0003657
3.0256225
3.0632046
3.1500268
3.5296426
5.9312508
1.7611605
2.1154294
2.40206
2.5741548
2.6601732
2.6929234
2.7001688
2.6991104
2.6938796
2.6909247
2.689908
2.6899946
2.6924755
2.695251
2.6983951
2.701897
2.7056902
2.7097506
2.7140672
2.7186379
2.7234693
2.7285755
2.7339747
2.7396827
2.7457117
2.7520793
2.7588156
2.7659454
2.7734894
2.7814883
2.7899913
2.7990402
2.8086888
2.8189997
2.8300513
2.8419502
2.85476
2.8685439
2.8833882
2.8993105
2.91627
2.9342358
2.953209
2.9738193
2.9984871
3.0364258
3.1275968
3.531323
6.0399827
1.751597
2.1060372
2.3915307
2.5614023
2.6451209
2.6762612
2.6828552
2.6813998
2.6762116
2.6733702
2.6724183
2.6725708
2.6750413
2.6777203
2.6807684
2.6841609
2.6878369
2.6917742
2.6959624
2.7003996
2.7050912
2.71005
2.7152934
2.7208393
2.7267048
2.7329095
2.7394778
2.7464292
2.753783
2.7615773
2.769856
2.7786603
2.7880421
2.7980635
2.8087977
2.8203395
2.8327633
2.8461517
2.8605437
2.8759243
2.8922371
2.9094459
2.927592
2.947433
2.9716225
3.0101091
3.1069301
3.5456388
6.1462885
1.741902
2.0963484
2.3806905
2.5484546
2.6300135
2.6596752
2.6656963
2.6638693
2.6587564
2.6560252
2.6551291
2.655352
2.6577903
2.6603696
2.6633162
2.6665933
2.6701453
2.6739527
2.6780069
2.682307
2.6868589
2.691674
2.6967672
2.7021553
2.7078572
2.713893
2.7202817
2.7270404
2.7341947
2.7417847
2.7498495
2.7584273
2.7675595
2.7773089
2.7877432
2.798943
2.8109788
2.8239298
2.8378258
2.8526241
2.8682688
2.8847009
2.9020466
2.9211866
2.9449428
2.9843628
3.0879198
3.5623073
6.2636437
1.7323295
2.0867287
2.3697771
2.5354438
2.6149245
2.6432058
2.6487107
2.6465398
2.6415214
2.6388931
2.638043
2.6383322
2.6407165
2.6431907
2.646029
2.6491831
2.6526034
2.6562732
2.6601852
2.6643403
2.6687457
2.673412
2.6783529
2.6835848
2.689125
2.6949915
2.7012014
2.707771
2.7147232
2.7220972
2.7299357
2.7382753
2.7471584
2.75663
2.7667554
2.7776183
2.7892853
2.8018019
2.815193
2.8294047
2.8443952
2.86007
2.8766516
2.895124
2.9186006
2.9593143
3.0706018
3.583142
6.4003959
1.7230699
2.0775568
2.3590747
2.5225388
2.5999438
2.6268984
2.6319215
2.6294286
2.6245167
2.621983
2.6211708
2.6215188
2.62383
2.6261942
2.6289177
2.6319433
2.6352266
2.6387533
2.6425177
2.6465225
2.6507758
2.6552888
2.6600748
2.6651495
2.6705281
2.6762237
2.6822504
2.6886254
2.6953693
2.7025166
2.7101123
2.7181923
2.7268119
2.7360075
2.7458226
2.7563494
2.7676354
2.7797107
2.792592
2.8062141
2.8205332
2.8354657
2.8513295
2.8692143
2.8926506
2.9350935
3.0557907
3.6148141
6.5646683
1.7141456
2.0690525
2.348778
2.5098588
2.5851315
2.6107761
2.6153355
2.6125362
2.6077363
2.6052878
2.6045068
2.6049049
2.6071273
2.6093783
2.6119847
2.614881
2.6180276
2.621412
2.6250303
2.6288854
2.6329856
2.6373423
2.6419683
2.6468774
2.6520843
2.6576005
2.663439
2.6696197
2.6761626
2.6830957
2.6904616
2.6982947
2.7066541
2.7155619
2.7250669
2.7352544
2.7461423
2.7577688
2.7701238
2.7831341
2.7967544
2.8109525
2.8261329
2.8435721
2.8669708
2.9119637
3.0437663
3.6594808
6.7537746
1.7056741
2.0612628
2.33896
2.4974548
2.570513
2.5948461
2.598951
2.5958559
2.5911668
2.5887941
2.58804
2.5884785
2.5906008
2.5927375
2.5952254
2.5979919
2.6010023
2.6042463
2.6077209
2.6114298
2.6153801
2.6195834
2.6240527
2.6287981
2.633831
2.6391664
2.644815
2.6507943
2.6571329
2.6638497
2.6709732
2.6785528
2.6866318
2.6952346
2.7044231
2.71427
2.7247763
2.735989
2.7478484
2.7602917
2.7732358
2.7867274
2.8012402
2.8182989
2.8418295
2.8896655
3.0345024
3.7070082
6.9095768
1.6974889
2.0540942
2.3295837
2.4853059
2.556063
2.5790728
2.582726
2.579339
2.5747571
2.5724524
2.5717206
2.5721873
2.5742017
2.5762234
2.5785908
2.5812266
2.5841006
2.5872041
2.5905354
2.5940981
2.5978993
2.6019484
2.6062571
2.6108354
2.615691
2.6208393
2.6262968
2.6320751
2.6382067
2.6447147
2.6515962
2.658916
2.6667229
2.6750232
2.6838968
2.6933777
2.7034734
2.7142398
2.7255926
2.737474
2.7497777
2.7626167
2.7765393
2.7933285
2.8174148
2.86933
3.032561
3.7786754
7.119858
1.6903618
2.0475282
2.3206644
2.4734901
2.5418939
2.563584
2.5667908
2.5631141
2.5586354
2.5563889
2.555674
2.5561598
2.5580622
2.5599705
2.5622185
2.5647253
2.5674653
2.5704311
2.5736212
2.5770395
2.5806911
2.5845847
2.588731
2.5931374
2.5978124
2.6027735
2.608038
2.6136188
2.6195426
2.6258334
2.6324826
2.6395426
2.6470854
2.6551067
2.6636823
2.6728165
2.6825178
2.6928329
2.7036673
2.7149736
2.7266436
2.7388199
2.7522178
2.7689459
2.7937987
2.8503423
3.0335372
3.860499
7.3243685
1.6834288
2.0414023
2.3119773
2.4616659
2.5275468
2.5478373
2.5505749
2.5465892
2.5422086
2.5400148
2.5393172
2.539816
2.5415996
2.5433956
2.5455258
2.5479047
2.550511
2.5533387
2.5563872
2.5596591
2.5631594
2.5668948
2.5708722
2.5751012
2.5795918
2.5843569
2.5894151
2.5947832
2.6004787
2.6065244
2.6129268
2.6197235
2.6269855
2.6347237
2.6429983
2.6518007
2.6611259
2.670975
2.6812754
2.6919734
2.7029914
2.7145246
2.7274792
2.7444659
2.7703915
2.8352649
3.0438665
3.9805594
7.6086105
1.6792987
2.0362672
2.3044128
2.4513101
2.5149731
2.5340549
2.5363806
2.5321208
2.5278242
2.5256772
2.5249886
2.525491
2.5271697
2.5288694
2.5308975
2.5331668
2.5356587
2.5383671
2.5412926
2.5444374
2.5478068
2.551406
2.5552401
2.5593186
2.5636535
2.5682559
2.5731395
2.5783198
2.583807
2.5896266
2.5958038
2.6023572
2.6093465
2.6168106
2.6247862
2.6332728
2.6422757
2.6517357
2.6615898
2.6717765
2.682262
2.6933003
2.7060195
2.7234457
2.7504205
2.8197601
3.0559051
4.0778608
7.7950014
1.6729393
2.028897
2.2926232
2.4342496
2.4937464
2.5105498
2.5121194
2.5073468
2.5031796
2.5010999
2.5004414
2.5009442
2.5024386
2.5039768
2.5058305
2.5079136
2.5102115
2.512719
2.5154366
2.5183668
2.5215129
2.5248804
2.5284746
2.5323009
2.5363723
2.5407013
2.5452921
2.5501514
2.5553028
2.5607602
2.5665555
2.5727096
2.579253
2.586242
2.5936887
2.6016156
2.6100004
2.6187495
2.6278144
2.6371224
2.6467705
2.6572194
2.669754
2.689457
2.719876
2.8156234
3.1234308
4.3979708
8.3339573
)
;

boundaryField
{
    Side
    {
        type            empty;
    }
    Inlet
    {
        type            turbulentIntensityKineticEnergyInlet;
        intensity       0.03;
        value           nonuniform List<scalar> 
21
(
12.022616
12.023985
12.02551
12.026844
12.028137
12.029631
12.031054
12.032725
12.034464
12.03598
12.038304
12.041265
12.044157
12.047922
12.05183
12.057432
12.065243
12.07445
12.083222
12.096357
12.097871
)
;
    }
    Airfoil
    {
        type            kqRWallFunction;
        value           nonuniform List<scalar> 0();
    }
    Outlet
    {
        type            inletOutlet;
        inletValue      uniform 1.48208e-06;
        value           nonuniform List<scalar> 
49
(
1.6729393
2.028897
2.2926232
2.4342496
2.4937464
2.5105498
2.5121194
2.5073468
2.5031796
2.5010999
2.5004414
2.5009442
2.5024386
2.5039768
2.5058305
2.5079136
2.5102115
2.512719
2.5154366
2.5183668
2.5215129
2.5248804
2.5284746
2.5323009
2.5363723
2.5407013
2.5452921
2.5501514
2.5553028
2.5607602
2.5665555
2.5727096
2.579253
2.586242
2.5936887
2.6016156
2.6100004
2.6187495
2.6278144
2.6371224
2.6467705
2.6572194
2.669754
2.689457
2.719876
2.8156234
3.1234308
4.3979708
8.3339573
)
;
    }
    procBoundary6to5
    {
        type            processor;
        value           nonuniform List<scalar> 
61
(
1.9575896
2.3089605
2.6297125
2.856518
3.0026855
3.0661213
3.0661213
3.1030161
3.1150199
3.1164708
3.1123251
3.0860003
3.0860003
3.0844633
3.0842484
3.0863941
3.0904783
3.0735876
3.0735876
3.0790072
3.0849318
3.0912906
3.0980498
3.0833906
3.0833906
3.0908267
3.0986589
3.1069072
3.1155988
3.1025567
3.1025567
3.1121008
3.1222044
3.1329212
3.121638
3.121638
3.1335836
3.1463372
3.1599877
3.1512802
3.1512802
3.1667802
3.1835187
3.1775671
3.1775671
3.1969607
3.2181901
3.216239
3.216239
3.2413693
3.2690094
3.2718215
3.2718215
3.3036658
3.3093203
3.3093203
3.3509332
3.4208457
3.6306208
3.6306208
5.3503928
)
;
    }
    procBoundary6to12
    {
        type            processor;
        value           uniform 1.9605499;
    }
    procBoundary6to13
    {
        type            processor;
        value           nonuniform List<scalar> 
34
(
2.3078465
1.9400174
1.9400174
1.9301197
1.9208156
1.9120983
1.9038079
1.895618
1.8870605
1.877729
1.8674451
1.8562863
1.844588
1.8329294
1.8219088
1.8119092
1.8030211
1.7950624
1.7877261
1.7807429
1.7739554
1.767249
1.7604865
1.7534503
1.7458954
1.737556
1.7281896
1.7176629
1.7062568
1.6942988
1.6836086
1.6737724
1.6689432
1.6630265
)
;
    }
}


// ************************************************************************* //
