/*--------------------------------*- C++ -*----------------------------------*\
| =========                 |                                                 |
| \\      /  F ield         | OpenFOAM: The Open Source CFD Toolbox           |
|  \\    /   O peration     | Version:  2506                                  |
|   \\  /    A nd           | Website:  www.openfoam.com                      |
|    \\/     M anipulation  |                                                 |
\*---------------------------------------------------------------------------*/
FoamFile
{
    version     2.0;
    format      ascii;
    arch        "LSB;label=32;scalar=64";
    class       volScalarField;
    location    "1.35";
    object      k;
}
// * * * * * * * * * * * * * * * * * * * * * * * * * * * * * * * * * * * * * //

dimensions      [0 2 -2 0 0 0 0];

internalField   nonuniform List<scalar> 
1375
(
1.9683143
1.9567328
2.3028781
2.6249171
2.8525205
2.9975368
1.9526287
2.2987303
2.6179171
2.8416473
2.9825916
3.059348
3.0926509
3.1017985
3.1017992
3.0958841
1.9472235
2.2944979
2.6113492
2.8313423
2.9681792
3.0413618
3.0721484
3.0800486
3.0794227
3.0734013
3.0695293
3.0678902
3.0676711
3.0699359
3.0740966
1.9400205
2.2892438
2.6042303
2.8207567
2.9536724
3.0234053
3.0517894
3.0586078
3.0572648
3.0512288
3.047539
3.0460612
3.0459407
3.0484611
3.0526342
3.057443
3.0628449
3.0687335
3.0750397
3.081731
1.9307507
2.282126
2.5956798
2.8091436
2.9385203
3.0051279
3.0313843
3.0373105
3.035285
3.029327
3.0258217
3.0245082
3.0244819
3.0272397
3.0314084
3.0361877
3.0415399
3.0473607
3.0535863
3.0601877
3.0671567
3.0744984
3.0822271
3.0903643
3.0989384
1.9196058
2.2727907
2.5852463
2.7961207
2.9224429
2.9863557
3.0108328
3.0160515
3.0134729
3.0076707
3.0043635
3.0032052
3.0032916
3.0062594
3.0104118
3.0151565
3.0204541
3.0262034
3.0323451
3.038853
3.0457203
3.0529528
3.0605651
3.0685787
3.0770219
3.085929
3.0953409
3.1053053
3.1158768
1.9071554
2.2615063
2.5730476
2.7817674
2.9054986
2.9671329
2.9901538
2.9948175
2.991844
2.9862538
2.9831588
2.9821346
2.9823727
2.9855144
2.9896425
2.9943479
2.9995857
3.0052582
3.0113109
3.01772
3.0244808
3.0316005
3.0390944
3.0469831
3.0552935
3.0640587
3.0733187
3.0831214
3.0935208
3.1045771
3.1163582
3.1289391
3.1424038
1.8940071
2.2488655
2.5595559
2.766455
2.8879643
2.9476509
2.9694606
2.9736773
2.9704378
2.9650899
2.9622093
2.9612994
2.9617259
2.9650026
2.9691004
2.973762
2.9789348
2.9845255
2.9904844
2.9967902
3.0034398
3.0104413
3.0178104
3.025568
3.0337408
3.0423618
3.05147
3.0611112
3.0713369
3.0822059
3.0937854
3.1061491
3.1193793
3.1335721
3.1488377
3.1653097
1.8807336
2.2356996
2.5454898
2.750725
2.8702209
2.9281574
2.9489015
2.9527331
2.9493008
2.9442006
2.9415233
2.940712
2.94135
2.9447237
2.9487864
2.9533995
2.958502
2.9640056
2.9698654
2.9760631
2.9825973
2.989477
2.9967186
3.0043434
3.0123767
3.0208498
3.0297996
3.0392706
3.0493151
3.0599934
3.0713709
3.0835178
3.096513
3.1104482
3.125433
3.141598
3.1591083
3.1781589
3.1989847
1.8677795
2.2228836
2.5316549
2.735175
2.8526648
2.9088907
2.9286102
2.9320744
2.9284669
2.9236029
2.92111
2.9203855
2.9212427
2.9246776
2.9286995
2.9332582
2.9382845
2.9436957
2.9494517
2.9555374
2.961953
2.9687081
2.9758192
2.9833069
2.9911967
2.9995199
3.0083134
3.0176188
3.0274848
3.0379691
3.0491346
3.0610524
3.073802
3.0874734
3.1021747
3.1180357
3.1352102
3.1538812
3.1742706
3.1966304
3.2211976
3.2481472
1.8552637
2.2108621
2.5185393
2.7201943
2.8355575
2.8900049
2.9086705
2.9117541
2.9079525
2.9033036
2.9009738
2.9003269
2.9013996
2.9048631
2.908837
2.9133341
2.9182778
2.9235911
2.9292387
2.9352083
2.9415015
2.9481288
2.9551069
2.9624567
2.9702035
2.9783776
2.9870136
2.9961514
3.0058381
3.0161278
3.0270817
3.0387705
3.0512731
3.0646762
3.0790849
3.094629
3.1114565
3.1297424
3.1497017
3.1715622
3.1955293
3.2217542
3.2502765
3.2811602
1.843051
2.1995481
2.5061384
2.7058111
2.8189279
2.8715205
2.8890937
2.8917782
2.8877578
2.8832999
2.8811116
2.8805347
2.881812
2.8852759
2.8891947
2.8936232
2.8984788
2.9036896
2.9092245
2.9150738
2.9212409
2.9277374
2.9345806
2.9417911
2.9493934
2.9574164
2.9658927
2.9748603
2.9843649
2.9944596
3.0052017
3.01666
3.0289106
3.0420414
3.0561566
3.0713817
3.0878568
3.1057562
3.125279
3.1466309
3.1699955
3.1954952
3.2231501
3.2530236
3.2860087
3.3268041
3.3972423
1.8311043
2.1887794
2.4942913
2.6918942
2.8026773
2.8533665
2.8698283
2.872106
2.8678578
2.8635706
2.8615084
2.860997
2.8624645
2.8659055
2.8697625
2.8741159
2.8788779
2.8839817
2.8893998
2.895125
2.9011623
2.9075247
2.91423
2.9212989
2.9287552
2.9366265
2.9449441
2.9537441
2.9630678
2.9729635
2.9834894
2.9947096
3.0067019
3.0195551
3.0333683
3.0482648
3.0643856
3.0818956
3.100976
3.1218209
3.14458
3.1693448
3.1961216
3.2249902
3.2569359
3.2969387
3.3677738
3.6176667
5.3924963
1.8196136
2.1785134
2.4828849
2.6783165
2.7866907
2.8354484
2.8507988
2.8526748
2.8482127
2.8440852
2.8421422
2.8416971
2.8433414
2.8467412
2.8505305
2.8548016
2.8594639
2.8644557
2.8697528
2.87535
2.8812542
2.8874795
2.894044
2.9009681
2.908275
2.9159912
2.9241466
2.9327743
2.9419155
2.9516176
2.9619308
2.9729179
2.9846547
2.9972254
3.0107289
3.0252863
3.0410387
3.0581407
3.0767702
3.0970912
3.1192403
3.1432787
3.1691887
3.1970732
3.2280294
3.2673234
3.3386623
3.5963631
5.4606757
1.8088546
2.1686848
2.4717826
2.6649421
2.7708553
2.8176827
2.8319438
2.8334357
2.8287922
2.8248212
2.8229966
2.82262
2.8244282
2.8277723
2.8314891
2.8356729
2.840232
2.8451102
2.8502858
2.8557551
2.8615247
2.8676085
2.8740255
2.8807965
2.8879454
2.8954982
2.9034845
2.9119387
2.9208966
2.9303991
2.940499
2.9512551
2.9627345
2.9750233
2.9882179
3.0024397
3.0178226
3.0345158
3.0526841
3.0724697
3.0939907
3.1172873
3.1423307
3.1692478
3.1992582
3.2379447
3.3099546
3.576454
5.4992171
1.7992209
2.1593523
2.4609417
2.6517065
2.7551105
2.800022
2.8132288
2.814362
2.8095764
2.8057625
2.8040569
2.8037499
2.8057085
2.8089871
2.8126302
2.8167252
2.8211796
2.8259441
2.8309998
2.8363428
2.8419788
2.8479214
2.8541901
2.860807
2.8677958
2.8751831
2.8829963
2.8912643
2.9000255
2.9093188
2.919196
2.9297095
2.94093
2.952936
2.9658267
2.9797117
2.9947181
3.0109966
3.0286915
3.0479406
3.0688353
3.0913906
3.1155669
3.1415368
3.1706532
3.2087888
3.2817907
3.5578272
5.4831994
1.7911105
2.1507108
2.4504597
2.6386559
2.7394764
2.7824713
2.7946512
2.7954491
2.7905546
2.7868977
2.7853112
2.7850734
2.787168
2.7903759
2.7939449
2.797949
2.8022976
2.8069477
2.8118827
2.8170976
2.8225993
2.828403
2.8345277
2.8409965
2.8478309
2.8550495
2.8626779
2.870751
2.8793088
2.8883908
2.8980427
2.9083199
2.9192831
2.9310081
2.9435885
2.9571283
2.9717511
2.9875938
3.0048044
3.0235088
3.0437731
3.0655844
3.0889147
3.1139871
3.1422532
3.1799207
3.2542238
3.541961
5.5467498
1.7846515
2.1429667
2.4405069
2.6259131
2.724035
2.7650806
2.7762393
2.7767132
2.7717278
2.7682255
2.7667595
2.7665906
2.768805
2.7719373
2.7754305
2.7793427
2.7835855
2.7881198
2.7929299
2.7980133
2.8033796
2.8090445
2.8150242
2.8213384
2.8280085
2.835054
2.8425007
2.8503947
2.8587545
2.8676179
2.8770434
2.8870783
2.8977783
2.9092203
2.9214979
2.9347102
2.94897
2.9643991
2.9811314
2.9992597
3.0188778
3.0399431
3.0624134
3.0865826
3.1140337
3.1513723
3.2273104
3.532041
5.6632844
1.7794859
2.136138
2.4311699
2.6135652
2.7088594
2.7479052
2.7580222
2.7581859
2.7531085
2.7497538
2.7484072
2.7483039
2.7506173
2.7536702
2.7570872
2.7609073
2.7650441
2.7694621
2.7741492
2.7791058
2.7843413
2.7898674
2.7956968
2.8018523
2.8083608
2.8152412
2.8225188
2.8302098
2.8383523
2.8469848
2.8561631
2.8659516
2.8763927
2.8875694
2.8995439
2.9124246
2.9263228
2.9413467
2.9576208
2.9752185
2.9941813
3.0144802
3.0360979
3.0593634
3.0860398
3.1231385
3.2011886
3.5237451
5.6980238
1.7749356
2.1299984
2.4223769
2.6016054
2.6939696
2.7309642
2.7400574
2.7398764
2.7347098
2.7314903
2.7302564
2.7302112
2.7325981
2.7355681
2.7389058
2.7426317
2.7466626
2.7509665
2.7555342
2.760368
2.7654754
2.7708682
2.77656
2.7825641
2.7888969
2.7955847
2.8026597
2.810152
2.8181104
2.8265414
2.835509
2.8450352
2.8552023
2.8660785
2.8777323
2.8902719
2.9037967
2.9184112
2.9342247
2.9512867
2.9696163
2.9891708
3.0099387
3.0323319
3.0582757
3.0952131
3.1761113
3.5188523
5.7423067
1.7703756
2.1242214
2.4139442
2.5899341
2.6793192
2.7142448
2.722385
2.7217785
2.716545
2.7134439
2.7123115
2.7123139
2.7147494
2.7176325
2.7208855
2.7245119
2.7284327
2.7326197
2.737065
2.7417717
2.7467471
2.7520001
2.757546
2.7634
2.7695767
2.7760998
2.7829948
2.7902984
2.7980385
2.806248
2.8149827
2.8242657
2.8341733
2.8447631
2.8561269
2.8683424
2.8814993
2.8956928
2.9110224
2.927523
2.945185
2.9639622
2.9838749
3.0054353
3.0306841
3.0677038
3.1520135
3.5180158
5.8362573
1.7653403
2.1184757
2.405646
2.5784073
2.6648265
2.6977208
2.704994
2.7038935
2.6986252
2.6956285
2.694577
2.6946269
2.6970809
2.6998724
2.703035
2.7065567
2.7103635
2.7144307
2.7187501
2.7233259
2.7281664
2.7332795
2.7386795
2.7443836
2.7504048
2.7567605
2.7634749
2.7705858
2.7781176
2.7861106
2.7946076
2.8036531
2.8133025
2.823612
2.8346699
2.846549
2.8593335
2.8731202
2.8879599
2.9039223
2.9209217
2.9389219
2.9580011
2.9787193
3.0033515
3.0406102
3.1287315
3.5162568
5.9480887
1.7594586
2.1123966
2.3971993
2.5668304
2.6503754
2.68134
2.6878378
2.686219
2.6809495
2.6780468
2.6770587
2.6771552
2.6796015
2.6822967
2.6853641
2.6887778
2.6924685
2.6964144
2.7006072
2.7050497
2.7097515
2.7147218
2.7199742
2.7255261
2.7313917
2.7375873
2.7441328
2.7510565
2.7583855
2.7661599
2.7744159
2.7832119
2.7925866
2.8025974
2.8133291
2.8248541
2.8372569
2.8506191
2.8649781
2.8803717
2.8967231
2.9140054
2.9322642
2.9521808
2.9763102
3.0140174
3.107005
3.5230814
6.0602264
1.7524701
2.1056475
2.3883279
2.5550092
2.6358466
2.6650364
2.670852
2.6687384
2.6635034
2.6606888
2.659751
2.6598936
2.6623107
2.6649052
2.6678719
2.6711733
2.6747449
2.6785669
2.6826318
2.6869403
2.6915016
2.6963283
2.7014333
2.7068326
2.7125425
2.7185771
2.7249498
2.7316833
2.7388117
2.7463713
2.7543952
2.7629446
2.7720579
2.7817954
2.7922181
2.8033844
2.8153941
2.8282903
2.842149
2.856953
2.872619
2.8891382
2.9066146
2.9258338
2.9495101
2.9880709
3.087041
3.5367346
6.1828341
1.7442476
2.0979725
2.3788117
2.5427908
2.6211477
2.6487523
2.6539807
2.6514367
2.64627
2.6435429
2.6426468
2.6428351
2.6452043
2.6476934
2.650553
2.6537347
2.6571804
2.6608716
2.6648019
2.6689715
2.6733881
2.6780658
2.6830181
2.6882603
2.6938113
2.6996861
2.7058932
2.7124465
2.7193821
2.726736
2.7345345
2.7428249
2.7516562
2.7610927
2.7711893
2.7819981
2.7936206
2.8060736
2.8194549
2.8336878
2.8487082
2.8644822
2.8811752
2.8997116
2.9230567
2.9627312
3.0687101
3.5539645
6.3031353
1.7348575
2.0892914
2.3685681
2.5301202
2.606247
2.6324615
2.637191
2.6343056
2.6292399
2.6266035
2.6257464
2.6259852
2.6282896
2.6306696
2.6334164
2.6364721
2.6397853
2.6433399
2.64713
2.6511561
2.6554246
2.6599486
2.664743
2.6698233
2.6752086
2.6809145
2.6869495
2.6933251
2.7000711
2.7072181
2.714783
2.7228019
2.7313385
2.7404658
2.7502232
2.7606973
2.7719299
2.7839524
2.7968489
2.8104881
2.8248442
2.8398869
2.8558471
2.8737699
2.8970076
2.9381564
3.0532622
3.5842367
6.4555526
1.7245214
2.0796999
2.3576536
2.51704
2.5911691
2.6161677
2.6204734
2.6173344
2.6123983
2.6098593
2.6090403
2.6093381
2.6115635
2.6138329
2.6164653
2.6193928
2.6225704
2.6259849
2.6296311
2.6335107
2.6376293
2.6419978
2.6466306
2.6515423
2.6567485
2.6622642
2.6681042
2.6742892
2.6808504
2.6878077
2.6951661
2.7029483
2.7112175
2.7200436
2.7294705
2.7395969
2.7504133
2.7620012
2.7743793
2.7873981
2.8010749
2.8153782
2.8306255
2.8480412
2.8712018
2.9146146
3.0405609
3.6282669
6.6529623
1.7136553
2.0694689
2.3462557
2.5036803
2.5759946
2.5999109
2.6038503
2.6005257
2.5957386
2.593301
2.5925186
2.5928858
2.5950182
2.5971767
2.599693
2.6024904
2.6055307
2.6088025
2.6123021
2.6160321
2.6199982
2.6242101
2.6286803
2.6334242
2.6384562
2.6437881
2.6494376
2.6554289
2.6617851
2.6685238
2.6756623
2.6832155
2.6912236
2.6997611
2.7088805
2.7186718
2.7291036
2.7402954
2.7521534
2.7645905
2.777592
2.791148
2.8056777
2.8226366
2.8458496
2.8918547
3.0300715
3.6709634
6.8135241
1.7026151
2.0589781
2.3346471
2.4902102
2.5608085
2.5837169
2.5873237
2.5838509
2.5792201
2.5768839
2.5761361
2.5765752
2.5786024
2.5806498
2.5830471
2.5857127
2.5886137
2.5917405
2.5950914
2.5986699
2.6024823
2.6065363
2.6108429
2.6154167
2.6202732
2.6254222
2.6308774
2.6366674
2.6428108
2.6493197
2.6562297
2.6635668
2.6713369
2.6795962
2.6884218
2.6978512
2.7078979
2.7186395
2.7299523
2.7418069
2.7541438
2.7670018
2.7809022
2.7975091
2.8212117
2.8707995
3.0251245
3.734678
7.0209756
1.692127
2.0487187
2.3232125
2.4769317
2.5458512
2.5677864
2.5710755
2.5674666
2.5629867
2.5607428
2.5600263
2.5605322
2.5624459
2.5643833
2.566663
2.5691984
2.5719612
2.5749444
2.5781478
2.5815757
2.5852342
2.5891309
2.5932739
2.5976757
2.602353
2.6073171
2.6125787
2.6181613
2.6240843
2.630357
2.6370239
2.6441348
2.6516879
2.659696
2.6682414
2.6773253
2.6870001
2.6972883
2.7080625
2.7193243
2.7309766
2.7431364
2.7564815
2.7729462
2.7973301
2.851346
3.0246264
3.8134895
7.2352914
1.6816964
2.0388069
2.3119426
2.4636253
2.5307304
2.551621
2.5545698
2.5508038
2.5464649
2.5443029
2.5436162
2.5441755
2.5459665
2.5477935
2.5499535
2.5523588
2.5549841
2.5578228
2.5608771
2.5641518
2.5676533
2.5713879
2.5753633
2.5795895
2.5840789
2.5888472
2.5939076
2.5992756
2.6049664
2.6109962
2.6174046
2.6242519
2.6315518
2.6393018
2.6475627
2.6563138
2.6656217
2.6754557
2.6856994
2.6963572
2.7073031
2.7187685
2.7316141
2.7482024
2.7736291
2.8351055
3.0329782
3.9286406
7.5162854
1.6738185
2.0304718
2.3022036
2.4520326
2.517528
2.5375151
2.540165
2.5362516
2.5320252
2.5299293
2.5292608
2.5298436
2.5315252
2.5332548
2.5353091
2.5376007
2.5401062
2.5428188
2.5457419
2.5488818
2.5522453
2.5558387
2.5596695
2.5637455
2.5680757
2.5726762
2.5775646
2.5827508
2.5882461
2.5940665
2.6002464
2.6068365
2.6138711
2.6213617
2.6293425
2.6377935
2.6467708
2.656209
2.6660176
2.6761758
2.6865644
2.6974975
2.7100401
2.7269934
2.7534416
2.8200452
3.0442421
4.0265316
7.7088463
1.6610307
2.0182875
2.2871542
2.4331386
2.4954182
2.513607
2.5156745
2.5114299
2.5073501
2.5053298
2.5046967
2.5052811
2.5067709
2.5083304
2.5102001
2.5122947
2.5145967
2.5170983
2.5198036
2.52272
2.5258515
2.5292081
2.5327958
2.5366205
2.5406901
2.5450167
2.5496141
2.5544981
2.559676
2.5651609
2.5709748
2.5771463
2.5837256
2.5907401
2.5982075
2.6061272
2.6144897
2.6232102
2.6322308
2.6415124
2.6510704
2.6613777
2.6737045
2.6926863
2.7224273
2.8134231
3.1086367
4.3418827
8.2548763
)
;

boundaryField
{
    Side
    {
        type            empty;
    }
    Inlet
    {
        type            turbulentIntensityKineticEnergyInlet;
        intensity       0.03;
        value           nonuniform List<scalar> 
21
(
12.036235
12.037604
12.039134
12.040816
12.042432
12.043614
12.044604
12.045894
12.047591
12.049149
12.051297
12.054169
12.057091
12.06117
12.065472
12.070736
12.078163
12.086199
12.094653
12.107397
12.110057
)
;
    }
    Airfoil
    {
        type            kqRWallFunction;
        value           nonuniform List<scalar> 0();
    }
    Outlet
    {
        type            inletOutlet;
        inletValue      uniform 1.48208e-06;
        value           nonuniform List<scalar> 
49
(
1.6610307
2.0182875
2.2871542
2.4331386
2.4954182
2.513607
2.5156745
2.5114299
2.5073501
2.5053298
2.5046967
2.5052811
2.5067709
2.5083304
2.5102001
2.5122947
2.5145967
2.5170983
2.5198036
2.52272
2.5258515
2.5292081
2.5327958
2.5366205
2.5406901
2.5450167
2.5496141
2.5544981
2.559676
2.5651609
2.5709748
2.5771463
2.5837256
2.5907401
2.5982075
2.6061272
2.6144897
2.6232102
2.6322308
2.6415124
2.6510704
2.6613777
2.6737045
2.6926863
2.7224273
2.8134231
3.1086367
4.3418827
8.2548763
)
;
    }
    procBoundary6to5
    {
        type            processor;
        value           nonuniform List<scalar> 
61
(
1.9602906
2.3080921
2.6334625
2.8648401
3.0136108
3.0777753
3.0777753
3.1135198
3.124011
3.1244748
3.118721
3.0918169
3.0918169
3.0900085
3.0896889
3.0916744
3.0958003
3.0789276
3.0789276
3.0843723
3.0903233
3.0967059
3.1034839
3.0887977
3.0887977
3.0962442
3.1040855
3.1123438
3.1210477
3.1079849
3.1079849
3.1175457
3.1276691
3.138411
3.1271176
3.1271176
3.1390971
3.1518922
3.165589
3.1568502
3.1568502
3.1723941
3.1891738
3.1831574
3.1831574
3.2025864
3.2238469
3.2218471
3.2218471
3.2470137
3.2746909
3.2775424
3.2775424
3.3094404
3.3152119
3.3152119
3.3568998
3.4271156
3.6401469
3.6401469
5.4129578
)
;
    }
    procBoundary6to12
    {
        type            processor;
        value           uniform 1.9733338;
    }
    procBoundary6to13
    {
        type            processor;
        value           nonuniform List<scalar> 
34
(
2.3232007
1.9617837
1.9617837
1.9532744
1.9428052
1.9308818
1.9182261
1.9054995
1.8931615
1.8812163
1.8693267
1.8571906
1.8447304
1.8320794
1.8196051
1.8079851
1.7979309
1.7898087
1.7834419
1.778268
1.7736471
1.7689786
1.7637911
1.7577811
1.7508141
1.7428716
1.7340699
1.7246213
1.7148604
1.7049945
1.6955402
1.6858901
1.6783825
1.6659024
)
;
    }
}


// ************************************************************************* //
