/*--------------------------------*- C++ -*----------------------------------*\
| =========                 |                                                 |
| \\      /  F ield         | OpenFOAM: The Open Source CFD Toolbox           |
|  \\    /   O peration     | Version:  2506                                  |
|   \\  /    A nd           | Website:  www.openfoam.com                      |
|    \\/     M anipulation  |                                                 |
\*---------------------------------------------------------------------------*/
FoamFile
{
    version     2.0;
    format      ascii;
    arch        "LSB;label=32;scalar=64";
    class       volScalarField;
    location    "1.35";
    object      p;
}
// * * * * * * * * * * * * * * * * * * * * * * * * * * * * * * * * * * * * * //

dimensions      [1 -1 -2 0 0 0 0];

internalField   nonuniform List<scalar> 
1375
(
47025.791
47025.811
47025.945
47025.981
47026.024
47026.044
47025.383
47025.536
47025.57
47025.608
47025.614
47025.597
47025.562
47025.512
47025.462
47025.418
47024.898
47025.096
47025.157
47025.209
47025.218
47025.192
47025.136
47025.056
47024.961
47024.857
47024.766
47024.688
47024.613
47024.558
47024.525
47024.274
47024.553
47024.677
47024.773
47024.809
47024.792
47024.731
47024.632
47024.503
47024.358
47024.213
47024.071
47023.936
47023.821
47023.737
47023.691
47023.685
47023.721
47023.803
47023.927
47023.289
47023.673
47023.888
47024.075
47024.187
47024.231
47024.216
47024.15
47024.043
47023.91
47023.762
47023.597
47023.424
47023.252
47023.098
47022.98
47022.907
47022.888
47022.93
47023.032
47023.187
47023.387
47023.63
47023.918
47024.259
47021.934
47022.396
47022.699
47022.986
47023.202
47023.347
47023.425
47023.442
47023.411
47023.348
47023.249
47023.115
47022.956
47022.778
47022.6
47022.44
47022.316
47022.248
47022.248
47022.32
47022.449
47022.616
47022.813
47023.051
47023.358
47023.764
47024.283
47024.896
47025.544
47020.446
47020.934
47021.285
47021.65
47021.964
47022.22
47022.409
47022.532
47022.595
47022.61
47022.584
47022.516
47022.406
47022.268
47022.111
47021.949
47021.8
47021.692
47021.651
47021.693
47021.813
47021.988
47022.198
47022.437
47022.716
47023.049
47023.453
47023.953
47024.564
47025.244
47025.947
47026.652
47027.317
47019.013
47019.485
47019.836
47020.24
47020.628
47020.986
47021.296
47021.542
47021.718
47021.832
47021.891
47021.896
47021.857
47021.782
47021.672
47021.536
47021.386
47021.246
47021.15
47021.126
47021.19
47021.334
47021.537
47021.788
47022.088
47022.451
47022.897
47023.422
47023.998
47024.579
47025.128
47025.702
47026.381
47027.106
47027.87
47028.611
47017.796
47018.215
47018.511
47018.876
47019.257
47019.646
47020.027
47020.376
47020.672
47020.909
47021.08
47021.192
47021.26
47021.291
47021.285
47021.241
47021.161
47021.052
47020.929
47020.815
47020.738
47020.736
47020.83
47021.037
47021.362
47021.786
47022.284
47022.834
47023.412
47024.014
47024.643
47025.284
47025.965
47026.665
47027.297
47027.924
47028.558
47029.254
47030.049
47016.803
47017.183
47017.418
47017.706
47017.999
47018.313
47018.652
47019.007
47019.355
47019.676
47019.953
47020.18
47020.371
47020.524
47020.638
47020.714
47020.75
47020.745
47020.701
47020.624
47020.535
47020.479
47020.491
47020.589
47020.773
47021.048
47021.415
47021.889
47022.49
47023.197
47023.979
47024.786
47025.569
47026.375
47027.106
47027.698
47028.263
47028.758
47029.268
47030.042
47030.8
47031.29
47015.837
47016.23
47016.452
47016.699
47016.918
47017.139
47017.384
47017.661
47017.968
47018.291
47018.604
47018.901
47019.175
47019.415
47019.617
47019.779
47019.909
47020.009
47020.078
47020.106
47020.094
47020.069
47020.083
47020.18
47020.374
47020.647
47020.969
47021.32
47021.723
47022.237
47022.888
47023.683
47024.56
47025.46
47026.405
47027.256
47027.981
47028.665
47029.2
47029.612
47030.072
47030.494
47031.227
47032.024
47014.612
47015.052
47015.309
47015.583
47015.806
47016.003
47016.194
47016.398
47016.636
47016.907
47017.199
47017.51
47017.833
47018.146
47018.422
47018.649
47018.831
47018.981
47019.109
47019.211
47019.284
47019.342
47019.423
47019.566
47019.793
47020.083
47020.401
47020.738
47021.11
47021.574
47022.177
47022.882
47023.631
47024.39
47025.168
47026.031
47026.915
47027.773
47028.569
47029.206
47029.7
47030.138
47030.675
47031.113
47031.89
47032.971
47032.668
47013.066
47013.544
47013.855
47014.197
47014.481
47014.714
47014.908
47015.089
47015.276
47015.478
47015.707
47015.966
47016.267
47016.599
47016.934
47017.25
47017.541
47017.815
47018.08
47018.326
47018.518
47018.636
47018.693
47018.738
47018.844
47019.065
47019.386
47019.771
47020.21
47020.717
47021.335
47022.07
47022.814
47023.522
47024.261
47025.034
47025.803
47026.476
47027.199
47028.138
47028.817
47029.432
47030.166
47030.97
47031.447
47032.1
47031.933
47035.771
47031.647
47011.415
47011.906
47012.255
47012.655
47013.005
47013.3
47013.548
47013.747
47013.925
47014.087
47014.236
47014.408
47014.617
47014.877
47015.186
47015.527
47015.883
47016.245
47016.61
47016.974
47017.309
47017.582
47017.788
47017.949
47018.093
47018.256
47018.464
47018.713
47019.016
47019.426
47019.962
47020.649
47021.477
47022.307
47023.096
47023.911
47024.771
47025.57
47026.227
47026.961
47027.748
47028.668
47029.479
47030.457
47030.985
47032.061
47031.463
47035.387
47031.182
47009.817
47010.288
47010.632
47011.058
47011.456
47011.81
47012.122
47012.395
47012.63
47012.816
47012.964
47013.089
47013.211
47013.361
47013.566
47013.832
47014.145
47014.484
47014.838
47015.212
47015.603
47015.982
47016.316
47016.601
47016.844
47017.06
47017.303
47017.611
47017.979
47018.413
47018.913
47019.446
47020.04
47020.768
47021.559
47022.342
47023.205
47024.271
47025.341
47026.066
47026.755
47027.776
47029.041
47030.146
47030.789
47032.022
47030.984
47034.93
47030.52
47008.314
47008.737
47009.026
47009.415
47009.804
47010.17
47010.505
47010.832
47011.131
47011.386
47011.598
47011.758
47011.89
47012.026
47012.198
47012.431
47012.714
47013.016
47013.312
47013.608
47013.92
47014.244
47014.547
47014.809
47015.058
47015.326
47015.65
47016.09
47016.64
47017.214
47017.764
47018.274
47018.792
47019.428
47020.267
47021.193
47022.062
47022.919
47023.947
47025.207
47026.499
47027.315
47027.641
47028.465
47029.881
47031.661
47030.887
47035.153
47029.556
47006.892
47007.273
47007.503
47007.826
47008.157
47008.477
47008.772
47009.072
47009.368
47009.646
47009.896
47010.096
47010.261
47010.413
47010.586
47010.802
47011.056
47011.329
47011.615
47011.933
47012.302
47012.714
47013.118
47013.454
47013.705
47013.925
47014.173
47014.49
47014.923
47015.447
47016.002
47016.585
47017.244
47018.081
47019.11
47020.24
47021.289
47022.167
47023.099
47024.216
47025.428
47026.587
47027.591
47028.406
47029.127
47030.367
47029.967
47035.159
47028.903
47005.489
47005.873
47006.085
47006.378
47006.667
47006.946
47007.2
47007.443
47007.687
47007.929
47008.152
47008.344
47008.501
47008.637
47008.78
47008.943
47009.127
47009.339
47009.595
47009.927
47010.349
47010.834
47011.333
47011.8
47012.2
47012.55
47012.909
47013.314
47013.803
47014.387
47015.009
47015.639
47016.276
47016.923
47017.629
47018.441
47019.431
47020.638
47022.001
47023.502
47024.843
47026.031
47027.189
47028.216
47029.025
47030.676
47029.228
47034.502
47028.026
47003.999
47004.417
47004.641
47004.934
47005.209
47005.475
47005.716
47005.937
47006.158
47006.378
47006.59
47006.79
47006.959
47007.102
47007.23
47007.343
47007.441
47007.541
47007.675
47007.89
47008.217
47008.648
47009.156
47009.72
47010.297
47010.814
47011.295
47011.817
47012.392
47013.029
47013.712
47014.402
47015.141
47015.952
47016.862
47017.841
47018.815
47019.703
47020.526
47021.553
47022.826
47024.253
47025.853
47027.428
47028.749
47030.614
47029.162
47035.215
47027.119
47002.234
47002.683
47002.925
47003.217
47003.477
47003.72
47003.937
47004.132
47004.321
47004.508
47004.698
47004.893
47005.077
47005.25
47005.418
47005.575
47005.725
47005.881
47006.066
47006.301
47006.605
47006.992
47007.445
47007.921
47008.391
47008.818
47009.179
47009.577
47010.119
47010.764
47011.507
47012.409
47013.558
47014.941
47016.135
47016.984
47017.673
47018.551
47019.732
47021.064
47022.555
47023.968
47025.055
47025.919
47026.959
47028.942
47027.939
47035.121
47026.489
47000.12
47000.599
47000.873
47001.179
47001.436
47001.662
47001.86
47002.037
47002.182
47002.304
47002.428
47002.558
47002.692
47002.836
47002.994
47003.167
47003.36
47003.578
47003.82
47004.071
47004.342
47004.689
47005.167
47005.754
47006.401
47007.105
47007.847
47008.575
47009.261
47009.858
47010.344
47010.811
47011.36
47012.051
47012.992
47013.817
47015.054
47016.736
47018.773
47020.845
47022.157
47023.232
47024.408
47025.449
47026.35
47029.027
47026.698
47034.438
47025.265
46997.809
46998.309
46998.609
46998.944
46999.221
46999.464
46999.673
46999.864
47000.009
47000.108
47000.189
47000.256
47000.318
47000.392
47000.488
47000.618
47000.793
47001.009
47001.24
47001.454
47001.661
47001.948
47002.426
47003.127
47003.964
47004.862
47005.812
47006.74
47007.564
47008.314
47009.058
47009.821
47010.6
47011.379
47012.202
47013.488
47014.697
47015.433
47016.23
47017.352
47019.088
47021.084
47023.027
47024.668
47026.072
47028.796
47025.911
47034.791
47023.897
46995.414
46995.867
46996.142
46996.468
46996.748
46997.006
46997.249
46997.487
46997.689
46997.85
46997.985
46998.096
46998.195
46998.303
46998.446
46998.641
46998.9
46999.21
46999.525
46999.784
46999.957
47000.073
47000.224
47000.511
47000.971
47001.593
47002.427
47003.495
47004.672
47005.855
47007.064
47008.267
47009.377
47010.314
47011.152
47012.136
47013.228
47014.419
47015.571
47016.83
47018.264
47019.65
47020.983
47022.202
47023.499
47026.509
47024.664
47034.347
47022.987
46992.976
46993.323
46993.517
46993.79
46994.045
46994.296
46994.552
46994.824
46995.086
46995.321
46995.539
46995.73
46995.894
46996.053
46996.234
46996.461
46996.753
46997.107
46997.494
46997.864
46998.18
46998.454
46998.752
46999.144
46999.656
47000.235
47000.789
47001.314
47001.896
47002.626
47003.541
47004.613
47005.764
47007.007
47008.349
47009.763
47011.17
47012.587
47014.037
47015.552
47017.021
47018.395
47019.871
47021.394
47022.637
47025.748
47022.456
47033.245
47020.525
46990.55
46990.804
46990.925
46991.146
46991.37
46991.61
46991.867
46992.158
46992.451
46992.736
46993.021
46993.277
46993.494
46993.682
46993.86
46994.055
46994.29
46994.573
46994.897
46995.238
46995.571
46995.893
46996.248
46996.686
46997.229
46997.874
46998.585
46999.319
47000.117
47001.035
47002.051
47003.147
47004.203
47005.157
47006.113
47007.117
47008.215
47009.402
47010.706
47012.236
47014.005
47015.938
47017.892
47019.963
47021.368
47025.592
47020.877
47033.748
47018.095
46988.193
46988.415
46988.512
46988.708
46988.917
46989.152
46989.414
46989.716
46990.035
46990.371
46990.718
46991.04
46991.325
46991.561
46991.757
46991.931
46992.099
46992.269
46992.442
46992.622
46992.81
46993.014
46993.26
46993.595
46994.046
46994.624
46995.364
46996.256
46997.245
46998.326
46999.475
47000.69
47001.935
47003.107
47004.306
47005.552
47006.828
47008.16
47009.555
47010.949
47012.298
47013.648
47015.098
47016.659
47018.069
47023.027
47018.156
47033.463
47015.4
46985.862
46986.114
46986.24
46986.448
46986.651
46986.866
46987.102
46987.387
46987.707
46988.056
46988.425
46988.784
46989.114
46989.418
46989.691
46989.943
46990.184
46990.402
46990.6
46990.795
46990.995
46991.208
46991.425
46991.649
46991.896
46992.165
46992.5
46992.989
46993.591
46994.291
46995.194
46996.323
46997.801
46999.509
47001.227
47002.949
47004.591
47006.109
47007.618
47009.042
47010.473
47011.956
47013.606
47015.212
47016.092
47021.598
47014.977
47032.925
47011.245
46983.438
46983.73
46983.903
46984.149
46984.36
46984.56
46984.767
46985.005
46985.273
46985.568
46985.891
46986.219
46986.519
46986.804
46987.089
46987.368
46987.645
46987.904
46988.14
46988.362
46988.599
46988.878
46989.209
46989.576
46989.981
46990.417
46990.866
46991.398
46992.031
46992.685
46993.394
46994.134
46994.864
46995.648
46996.431
46997.444
46998.859
47000.616
47002.618
47004.698
47006.827
47008.899
47010.996
47013.411
47014.154
47020.415
47012.179
47033.001
47007.458
46980.95
46981.237
46981.417
46981.681
46981.928
46982.159
46982.372
46982.585
46982.81
46983.064
46983.329
46983.571
46983.772
46983.956
46984.153
46984.36
46984.573
46984.785
46984.984
46985.172
46985.373
46985.622
46985.945
46986.334
46986.751
46987.187
46987.641
46988.153
46988.818
46989.586
46990.418
46991.381
46992.381
46993.419
46994.474
46995.487
46996.547
46997.703
46998.974
47000.422
47002.127
47004.154
47006.412
47008.908
47009.97
47018.187
47008.191
47033.089
47002.117
46978.552
46978.781
46978.905
46979.13
46979.391
46979.66
46979.899
46980.13
46980.343
46980.55
46980.75
46980.916
46981.039
46981.136
46981.224
46981.32
46981.44
46981.579
46981.729
46981.878
46982.021
46982.179
46982.39
46982.656
46982.942
46983.247
46983.594
46983.991
46984.532
46985.249
46986.021
46986.948
46988.038
46989.225
46990.543
46991.901
46993.302
46994.816
46996.364
46997.946
46999.57
47001.341
47003.351
47005.471
47005.197
47015.107
47001.92
47031.961
46995.883
46976.237
46976.388
46976.44
46976.605
46976.813
46977.047
46977.262
46977.478
46977.676
46977.837
46977.967
46978.065
46978.144
46978.209
46978.258
46978.309
46978.383
46978.489
46978.627
46978.791
46978.959
46979.129
46979.329
46979.563
46979.802
46980.029
46980.254
46980.484
46980.743
46981.092
46981.533
46982.143
46982.981
46983.943
46985.093
46986.39
46987.748
46989.273
46990.923
46992.688
46994.531
46996.433
46998.617
47001.351
46999.998
47013.298
46995.807
47032.475
46988.372
46973.877
46973.988
46973.998
46974.142
46974.256
46974.355
46974.467
46974.615
46974.753
46974.864
46974.93
46974.975
46975.018
46975.055
46975.095
46975.139
46975.182
46975.231
46975.317
46975.44
46975.611
46975.826
46976.053
46976.302
46976.595
46976.914
46977.253
46977.6
46977.886
46978.134
46978.411
46978.71
46979.073
46979.472
46979.927
46980.516
46981.282
46982.257
46983.427
46984.824
46986.492
46988.425
46990.899
46994.334
46992.347
47005.847
46987.627
47021.988
46979.726
46971.505
46971.611
46971.589
46971.714
46971.735
46971.763
46971.808
46971.856
46971.877
46971.931
46971.918
46971.934
46972.001
46971.982
46971.99
46972.016
46972.03
46972.038
46972.074
46972.129
46972.21
46972.349
46972.501
46972.642
46972.831
46973.091
46973.373
46973.611
46973.848
46974.035
46974.187
46974.339
46974.542
46974.765
46974.933
46975.124
46975.442
46975.952
46976.627
46977.477
46978.617
46980.019
46981.677
46987.021
46984.621
47002.465
46979.055
47039.243
46972.371
)
;

boundaryField
{
    Side
    {
        type            empty;
    }
    Inlet
    {
        type            totalPressure;
        rho             rho;
        psi             none;
        gamma           1;
        p0              uniform 50000;
        value           nonuniform List<scalar> 
21
(
47035.606
47035.282
47034.922
47034.607
47034.302
47033.949
47033.613
47033.219
47032.808
47032.45
47031.901
47031.202
47030.52
47029.631
47028.708
47027.386
47025.542
47023.368
47021.298
47018.198
47017.841
)
;
    }
    Airfoil
    {
        type            zeroGradient;
    }
    Outlet
    {
        type            fixedValue;
        value           uniform 46970;
    }
    procBoundary6to5
    {
        type            processor;
        value           nonuniform List<scalar> 
61
(
47026.213
47026.356
47026.412
47026.478
47026.523
47026.047
47026.047
47026.037
47026.021
47026.011
47026.004
47025.384
47025.384
47025.36
47025.34
47025.327
47025.326
47024.519
47024.519
47024.542
47024.597
47024.685
47024.804
47024.088
47024.088
47024.284
47024.513
47024.777
47025.081
47024.661
47024.661
47025.129
47025.65
47026.196
47026.167
47026.167
47026.737
47027.245
47027.714
47027.904
47027.904
47028.389
47028.826
47029.211
47029.211
47029.622
47030.061
47030.522
47030.522
47030.929
47031.257
47031.631
47031.631
47032.071
47032.348
47032.348
47033.063
47032.705
47035.651
47035.651
47032.19
)
;
    }
    procBoundary6to12
    {
        type            processor;
        value           uniform 47026.194;
    }
    procBoundary6to13
    {
        type            processor;
        value           nonuniform List<scalar> 
34
(
47025.879
47025.338
47025.338
47024.817
47024.151
47023.136
47021.785
47020.302
47018.883
47017.675
47016.683
47015.71
47014.489
47012.953
47011.308
47009.72
47008.23
47006.8
47005.365
47003.845
47002.078
46999.956
46997.639
46995.301
46992.959
46990.611
46988.254
46985.873
46983.394
46980.877
46978.484
46976.194
46973.841
46971.458
)
;
    }
}


// ************************************************************************* //
