/*--------------------------------*- C++ -*----------------------------------*\
| =========                 |                                                 |
| \\      /  F ield         | OpenFOAM: The Open Source CFD Toolbox           |
|  \\    /   O peration     | Version:  2506                                  |
|   \\  /    A nd           | Website:  www.openfoam.com                      |
|    \\/     M anipulation  |                                                 |
\*---------------------------------------------------------------------------*/
FoamFile
{
    version     2.0;
    format      ascii;
    arch        "LSB;label=32;scalar=64";
    class       volScalarField;
    location    "1";
    object      alphat;
}
// * * * * * * * * * * * * * * * * * * * * * * * * * * * * * * * * * * * * * //

dimensions      [1 -1 -1 0 0 0 0];

internalField   nonuniform List<scalar> 
1376
(
0.13192665
0.13091254
0.1302195
0.12972065
0.12933579
0.12903347
0.12879018
0.12859031
0.12842901
0.12829369
0.12817247
0.12806831
0.1279769
0.12789939
0.12783896
0.12777453
0.12771872
0.12767621
0.12763459
0.12758774
0.12755098
0.12752631
0.12749954
0.12747693
0.12746286
0.12745507
0.12745044
0.12745394
0.1274757
0.12753465
0.12761326
0.12772425
0.12246236
0.097511323
0.080262671
0.059960461
0.044829006
0.045663748
0.044218286
0.028792776
0.017289795
0.015845602
0.011516084
0.015106855
0.0087248945
0.0045644823
0.0044271177
0.0051367596
0.00049201941
0.13191619
0.13094938
0.13028025
0.12978644
0.12940192
0.1290984
0.12885207
0.12864908
0.12848592
0.12834846
0.12822604
0.12811739
0.128024
0.12794434
0.12787952
0.12781409
0.12775599
0.12771028
0.12766849
0.1276228
0.1275815
0.12755745
0.12753032
0.12750635
0.12749155
0.12748335
0.12747714
0.12748304
0.12750464
0.12755672
0.12763432
0.12774099
0.12664266
0.098731193
0.080928591
0.072074565
0.056733507
0.040029124
0.027186811
0.023762267
0.025408313
0.01607713
0.019076573
0.011200545
0.0088488026
0.0053334215
0.0041282102
0.0030072047
0.00045787656
0.1319913
0.13105017
0.13037929
0.12988243
0.12949247
0.12918372
0.1289321
0.12872412
0.12855599
0.12841346
0.12828762
0.12817701
0.1280801
0.12799296
0.12792397
0.1278586
0.12779698
0.12774822
0.12770632
0.12766149
0.12761742
0.12759038
0.12756288
0.12753792
0.12752283
0.12751164
0.12750737
0.12751432
0.12753081
0.1275715
0.12765558
0.12775216
0.12385424
0.10098271
0.083239933
0.063448013
0.052733922
0.043708694
0.042057508
0.028867165
0.021308002
0.015573366
0.011814935
0.0079774001
0.0077734873
0.0048285894
0.0040252785
0.0024498798
0.00049179626
0.13202774
0.13112915
0.13046835
0.12997514
0.12958292
0.1292705
0.12901551
0.128803
0.12862793
0.12848154
0.12835169
0.12823884
0.12813705
0.12804632
0.12797247
0.12790555
0.1278415
0.12778983
0.1277466
0.12770326
0.12765672
0.12762284
0.12759686
0.12757118
0.12755409
0.12754245
0.12753861
0.12754473
0.12755799
0.127595
0.1276781
0.12776448
0.12791923
0.10421094
0.082575685
0.071201659
0.053856543
0.043049379
0.030771415
0.028509263
0.01951488
0.01699022
0.013315031
0.010668001
0.005270248
0.0048103552
0.0052326261
0.0025537584
0.00050297597
0.13207367
0.13122076
0.13056689
0.13007584
0.12968201
0.12936451
0.12910455
0.12888649
0.12870577
0.12855531
0.12842187
0.12830264
0.12819933
0.1281073
0.12802739
0.12795744
0.12789097
0.12783504
0.12778871
0.12774453
0.12769668
0.12765909
0.12763097
0.12760497
0.127588
0.12757677
0.1275713
0.12757669
0.12758882
0.12762021
0.12769574
0.12778325
0.12792992
0.10440882
0.085317564
0.06741183
0.057694691
0.044277452
0.035942266
0.025400092
0.02562315
0.016791075
0.012367079
0.01098652
0.0064707388
0.0043890834
0.0034844589
0.0024613242
0.00050850199
0.13211491
0.13130123
0.13066537
0.13017907
0.12978814
0.12946643
0.12920055
0.12897703
0.12879041
0.12863343
0.12849626
0.12837278
0.12826553
0.12817015
0.12808489
0.12801332
0.12794268
0.12788262
0.12783138
0.12778515
0.12773993
0.12769934
0.12766796
0.12764179
0.12762554
0.12761196
0.12760419
0.12760952
0.12762057
0.12765048
0.12770997
0.12780925
0.12793831
0.1083979
0.085146625
0.07059193
0.054370502
0.045999373
0.036315266
0.028454309
0.019798174
0.017334279
0.01428375
0.0092568965
0.0098746877
0.0052594405
0.0032041003
0.0020688062
0.00055720327
0.13215753
0.13137849
0.13076161
0.13028297
0.12989543
0.12957222
0.12930117
0.1290733
0.12888027
0.12871596
0.12857473
0.12844842
0.12833387
0.12823482
0.12814597
0.1280702
0.12799625
0.12793337
0.12787706
0.12783111
0.12778628
0.12774261
0.12770938
0.12768011
0.12766162
0.12764912
0.12763935
0.12764336
0.12765642
0.12767991
0.12772818
0.12783524
0.12795026
0.11088966
0.089157291
0.069255935
0.059690868
0.044435418
0.035186629
0.028595662
0.022897185
0.016090568
0.01301066
0.0094679359
0.0057434097
0.0045887709
0.0037718211
0.0023719524
0.00055717876
0.13219965
0.13145342
0.13085415
0.13038391
0.13000062
0.12967694
0.12940238
0.1291717
0.12897369
0.12880309
0.12865765
0.12852623
0.1284065
0.12830298
0.1282101
0.12812785
0.12805486
0.12798751
0.12792682
0.12787909
0.127833
0.12778835
0.12775087
0.12771847
0.12769832
0.12768778
0.12767829
0.1276788
0.12769091
0.12771089
0.12775591
0.12785246
0.1279597
0.11139243
0.090421814
0.072793272
0.055906941
0.048518253
0.037293712
0.027851414
0.022694449
0.016975541
0.013379452
0.011248201
0.0066343736
0.0040953032
0.0032975268
0.0019633187
0.00060199416
0.13223788
0.13152745
0.13094592
0.1304829
0.13010245
0.12977785
0.12950332
0.12926995
0.12906811
0.12889308
0.12874128
0.12860599
0.12848268
0.12837365
0.12827626
0.12818874
0.12811357
0.12804287
0.12797994
0.12792784
0.12788037
0.12783352
0.12779415
0.12776057
0.12773714
0.12772636
0.1277171
0.12771532
0.12772774
0.12774523
0.12779087
0.1278559
0.12798359
0.11542821
0.092278736
0.073433574
0.059599608
0.045614031
0.037753402
0.029422099
0.02229478
0.018153216
0.012906541
0.0086580417
0.0072221889
0.0054370895
0.0034534225
0.0020298207
0.000615755
0.13227244
0.13159718
0.13103523
0.13058061
0.13020244
0.12987808
0.12960283
0.1293663
0.12916155
0.12898245
0.1288251
0.1286869
0.12855954
0.12844565
0.12834447
0.12825264
0.12817288
0.12809982
0.12803337
0.12797741
0.1279289
0.12788148
0.12784017
0.12780399
0.12777721
0.12776525
0.127756
0.12775225
0.12776409
0.12778191
0.12782397
0.12786505
0.12801656
0.11665446
0.094395121
0.075736955
0.060006985
0.048320371
0.03751182
0.029920048
0.022495963
0.01733717
0.013400052
0.010495057
0.0061560657
0.0046741166
0.0029530588
0.0019277667
0.00061318691
0.13231006
0.1316604
0.13111627
0.1306716
0.13029947
0.12997736
0.12969932
0.12945965
0.12925179
0.12906946
0.12890748
0.12876579
0.12863561
0.12851737
0.12841232
0.12831605
0.12823256
0.12815751
0.1280876
0.12802847
0.12797846
0.12792968
0.12788618
0.12784764
0.12781773
0.12780435
0.12779515
0.12778988
0.1278002
0.1278191
0.12785632
0.12788597
0.12804636
0.11978297
0.096295409
0.076414374
0.061701338
0.048582211
0.03830971
0.030024453
0.023708128
0.017673619
0.013637092
0.0089148268
0.0086080905
0.0045178249
0.003301822
0.0018610717
0.00060891052
0.13234294
0.13171821
0.13119142
0.13075815
0.13039073
0.13007216
0.12979262
0.1295496
0.12933816
0.12915208
0.12898579
0.12884
0.12870732
0.12858492
0.12847704
0.12837858
0.12829091
0.12821276
0.12814071
0.12807847
0.12802601
0.127976
0.12793063
0.12789019
0.12785694
0.12784196
0.12783373
0.12782758
0.12783556
0.12785511
0.12788763
0.12791982
0.12806624
0.12243839
0.098363584
0.079159425
0.062190002
0.050167208
0.038978067
0.030338869
0.023195122
0.018138723
0.012772126
0.010996928
0.0058665047
0.0047612804
0.0029003469
0.0019193999
0.00064165779
0.13237288
0.13177138
0.13126106
0.13083895
0.13047853
0.13016192
0.12988292
0.12963854
0.12942143
0.12923089
0.12906077
0.12891008
0.12877533
0.12864998
0.12853872
0.12843783
0.12834716
0.12826593
0.12819197
0.12812657
0.1280719
0.12802149
0.12797474
0.12793276
0.12789582
0.12787791
0.1278703
0.12786373
0.12786934
0.12788861
0.12791695
0.12796803
0.12805865
0.12447825
0.10017233
0.079744857
0.063759445
0.05039733
0.039842383
0.030851303
0.023989982
0.017778132
0.014638426
0.0089300804
0.008191435
0.0042885218
0.0029772013
0.0017170892
0.00062556268
0.13239776
0.131821
0.13132658
0.13091465
0.13056039
0.13024592
0.1299671
0.12971975
0.12950062
0.12930598
0.12913075
0.12897567
0.12883834
0.12871041
0.12859591
0.12849284
0.12839981
0.12831559
0.12823994
0.12817204
0.12811479
0.12806359
0.1280156
0.12797248
0.12793291
0.12791117
0.1279032
0.12789713
0.12790093
0.12791858
0.12794548
0.12800117
0.12806042
0.12725976
0.10154857
0.081611866
0.06422085
0.051220567
0.040217816
0.031204839
0.0238258
0.018523678
0.012918411
0.011128616
0.0063852855
0.0046194596
0.0033474518
0.0018756342
0.00064701823
0.13242568
0.13186329
0.13138065
0.13097688
0.13062622
0.13031798
0.13003923
0.12979057
0.12957154
0.1293734
0.12919343
0.12903415
0.12889412
0.12876392
0.12864626
0.12854116
0.12844658
0.12836008
0.12828266
0.12821274
0.12815297
0.12810099
0.12805233
0.12800818
0.12796705
0.12794187
0.12793258
0.12792709
0.12792973
0.12794558
0.12797085
0.1280295
0.12806765
0.12825734
0.10289541
0.08221034
0.065342768
0.051221375
0.040682764
0.031417405
0.024122687
0.018115143
0.013997271
0.0094065748
0.0073724862
0.0048689269
0.0025214649
0.0016760911
0.00062259166
0.13245098
0.13189992
0.13142537
0.13102566
0.13068155
0.13037762
0.13010243
0.12985332
0.12963184
0.12943128
0.12924873
0.12908587
0.12894238
0.12880958
0.12868893
0.12858211
0.12848646
0.12839812
0.12831903
0.12824778
0.12818583
0.12813293
0.1280841
0.12803912
0.12799688
0.12796905
0.12795792
0.12795265
0.12795468
0.12796895
0.12799224
0.12805221
0.12807369
0.12827569
0.1043798
0.083216614
0.066074117
0.051985921
0.040835523
0.031866728
0.024342637
0.018454196
0.013717155
0.01015677
0.0069285595
0.004566972
0.0032092384
0.0018545503
0.00063464521
0.13247363
0.13193191
0.13146249
0.13106723
0.13072831
0.13042732
0.13015267
0.1299026
0.12968014
0.12947897
0.12929478
0.12912902
0.12898209
0.12884664
0.12872328
0.12861481
0.12851822
0.12842853
0.12834803
0.1282759
0.12821223
0.12815835
0.12810968
0.1280644
0.12802143
0.12799175
0.12797902
0.12797372
0.12797505
0.1279879
0.1280095
0.12806961
0.12807858
0.12829064
0.1069089
0.085210046
0.067669225
0.053237325
0.04180755
0.03262267
0.024978235
0.018850248
0.014030501
0.010252391
0.0071109071
0.0048479315
0.002786714
0.001668225
0.00062783206
0.1324919
0.13195612
0.13148938
0.13109683
0.13076043
0.13046105
0.13018755
0.12993951
0.12971591
0.1295128
0.12932699
0.12915946
0.12901046
0.12887369
0.12874845
0.12863841
0.12854087
0.12845022
0.12836878
0.12829617
0.12823125
0.12817651
0.12812809
0.12808282
0.1280393
0.12800822
0.12799415
0.12798916
0.12799019
0.12800222
0.12802329
0.1280836
0.12808663
0.12830465
0.10987751
0.087385956
0.069224533
0.054394433
0.04260377
0.033235614
0.025480061
0.019232348
0.014318343
0.010381497
0.0073169154
0.0047956275
0.0030551179
0.0018787435
0.00065284236
0.13250364
0.13197075
0.1315058
0.1311157
0.13078039
0.13048051
0.13020831
0.12996154
0.12973793
0.12953273
0.12934596
0.12917719
0.1290267
0.12888923
0.12876293
0.12865191
0.12855349
0.1284619
0.12837997
0.12830719
0.1282415
0.12818638
0.12813849
0.12809377
0.12805025
0.12801855
0.12800382
0.12799995
0.12800183
0.12801453
0.12803719
0.12809939
0.12810628
0.12832591
0.10827708
0.08590439
0.067919147
0.053228605
0.041606938
0.032415592
0.024887009
0.018777476
0.013935127
0.010112016
0.0070357317
0.004696976
0.0028807284
0.0017098533
0.00063069074
0.13250787
0.13197452
0.13151051
0.13112161
0.13078696
0.13048598
0.13021458
0.12996908
0.12974548
0.12953829
0.12935117
0.1291822
0.12903095
0.12889335
0.12876706
0.12865585
0.12855704
0.12846503
0.1283828
0.12831013
0.12824423
0.12818916
0.12814168
0.12739848
0.12743694
0.12747602
0.12752387
0.12757927
0.12764756
0.12773288
0.12783655
0.12796309
0.12812483
0.1283299
0.12860152
0.12896134
0.12948597
0.13028845
0.12728902
0.12726118
0.12724199
0.12722455
0.12723534
0.12723552
0.12725177
0.12727472
0.1272881
0.12731138
0.12733928
0.12736913
0.12740008
0.12743702
0.12747515
0.12751813
0.12756946
0.12762713
0.12769933
0.1277892
0.12789855
0.12802984
0.12819749
0.12840871
0.128689
0.12906052
0.12960304
0.13042322
0.036603859
0.051038337
0.053878227
0.062099982
0.082110525
0.098161403
0.12324528
0.12757114
0.12745961
0.12735187
0.12729026
0.12726443
0.12725155
0.12724373
0.12725264
0.12726375
0.12727811
0.12729946
0.12731547
0.12734435
0.12737553
0.12740663
0.12743848
0.12747483
0.12751601
0.12756294
0.1276164
0.12767755
0.12775491
0.127849
0.12796249
0.12809999
0.12827344
0.12849149
0.12878014
0.12916358
0.12972551
0.13056361
0.011048519
0.0099342575
0.013157962
0.010304299
0.020125595
0.019717762
0.017562767
0.020160833
0.033530765
0.036137479
0.049368508
0.067127075
0.065547564
0.088980836
0.1270217
0.12776163
0.12756546
0.12746522
0.1273691
0.12731303
0.12728712
0.12728187
0.12727599
0.12728495
0.12729361
0.12731282
0.12732917
0.12734721
0.12737854
0.12741184
0.12744318
0.12747715
0.12751571
0.12756045
0.12761005
0.12766487
0.12773129
0.12781328
0.1279122
0.12802969
0.12817356
0.12835354
0.12857922
0.12887596
0.12927247
0.12985633
0.13071139
0.00049570086
0.0085679936
0.016362763
0.015705217
0.018992215
0.01071387
0.0093925662
0.016014625
0.01846157
0.019189867
0.024380298
0.046168827
0.040468662
0.048711853
0.067392634
0.083899384
0.092162903
0.12263431
0.12758675
0.12747544
0.12738757
0.12733491
0.12730443
0.1273035
0.1272945
0.12730743
0.12731603
0.12733732
0.12735802
0.12737969
0.1274112
0.12744421
0.12747569
0.12751378
0.12755725
0.12760686
0.12765903
0.12771584
0.1277878
0.12787395
0.12797848
0.12810149
0.12825117
0.12843751
0.12867149
0.12897782
0.12938573
0.12998607
0.13086451
0.00048753942
0.01065083
0.0095658073
0.013824111
0.028943616
0.021721846
0.021660589
0.012955553
0.011938751
0.025756323
0.040007334
0.029627897
0.0464242
0.062075943
0.073490773
0.082396155
0.11030428
0.1277389
0.12757665
0.12747569
0.12739762
0.12735222
0.1273222
0.12732033
0.12731974
0.12732753
0.12734142
0.12736387
0.1273874
0.12741087
0.12744386
0.12747941
0.12751307
0.12755233
0.12760052
0.12765271
0.12770954
0.12777055
0.12784566
0.12793791
0.12804803
0.12817741
0.12833306
0.12852694
0.12876956
0.12908567
0.12950558
0.13011395
0.13101906
0.00048391921
0.0085659928
0.0049851655
0.0069395363
0.011319709
0.017651174
0.018762065
0.021458045
0.027060672
0.025524852
0.021798039
0.045834562
0.047661923
0.066892095
0.069651316
0.094477873
0.11699893
0.12772965
0.12758087
0.12747709
0.12740938
0.12737372
0.12734919
0.12734716
0.12735137
0.12736012
0.12737302
0.12739807
0.12742043
0.12744429
0.12748036
0.127518
0.12755465
0.12759591
0.12764541
0.12769807
0.12775933
0.12782794
0.12790687
0.12800586
0.12812079
0.12825608
0.12841944
0.12862202
0.12887489
0.12920299
0.12963453
0.13025851
0.13117657
0.00047278156
0.0057759806
0.0097150534
0.0042837492
0.011242733
0.0082522634
0.013436528
0.013075306
0.021214448
0.030450969
0.03829083
0.038458139
0.054059378
0.054398673
0.073986448
0.090385093
0.10969771
0.12774185
0.12759486
0.12749239
0.12742374
0.12738984
0.12737467
0.12737393
0.12737932
0.12738818
0.12740323
0.12742854
0.12745368
0.12747851
0.12751742
0.12755689
0.12759432
0.12763966
0.12769401
0.12774937
0.12781245
0.12788516
0.1279714
0.12807589
0.12819621
0.12833744
0.12850942
0.12872128
0.12898568
0.12932839
0.12977397
0.13041869
0.13134867
0.0004800499
0.0078450138
0.022635436
0.0093930595
0.0076484381
0.0092495972
0.012574353
0.014195307
0.019286238
0.021099469
0.032138611
0.041152868
0.045655581
0.066624744
0.076140738
0.097267278
0.11637071
0.12772806
0.1275972
0.12750346
0.12743889
0.12740931
0.12740228
0.12739714
0.12740639
0.12741581
0.12743431
0.12745967
0.12748576
0.12751267
0.12755295
0.1275939
0.12763475
0.12768211
0.12774209
0.12780103
0.12786844
0.12794421
0.12803815
0.12814758
0.12827325
0.12842112
0.12860195
0.12882402
0.12910084
0.12945952
0.12992086
0.13058462
0.13153524
0.0004885442
0.0038952921
0.0050872735
0.0064305528
0.008682061
0.0079598728
0.01156185
0.019344036
0.025605035
0.024621144
0.028009956
0.044499487
0.05670166
0.06075621
0.079879192
0.09614497
0.12134592
0.12772382
0.12760501
0.12751722
0.12745532
0.12743229
0.12742843
0.12742616
0.12743403
0.12744645
0.12746732
0.12749404
0.12751908
0.12754974
0.12759375
0.12763447
0.12767668
0.12772785
0.12778886
0.12784968
0.12792343
0.12800735
0.12810565
0.12822112
0.1283519
0.12850664
0.12869719
0.12893014
0.12922022
0.12959288
0.130073
0.13075748
0.13174232
)
;

boundaryField
{
    Side
    {
        type            empty;
    }
    Inlet
    {
        type            calculated;
        value           nonuniform List<scalar> 
30
(
0.13252716
0.13251142
0.13251495
0.13252238
0.13252966
0.13253745
0.13254508
0.13255294
0.1325616
0.13257039
0.13257781
0.13258728
0.13259912
0.13261172
0.13262384
0.13263596
0.13264709
0.13265645
0.13266277
0.13266502
0.13279278
0.13276754
0.13275413
0.13275391
0.13276946
0.13278153
0.13278307
0.13274751
0.13266745
0.13255594
)
;
    }
    Airfoil
    {
        type            compressible::alphatWallFunction;
        value           nonuniform List<scalar> 
25
(
0.00065868224
0.00065435731
0.00064982617
0.0006488977
0.00064970395
0.00065228708
0.00065610808
0.00066103085
0.0006666708
0.00067289931
0.00067955014
0.00068645188
0.00069338041
0.00070005448
0.00070626178
0.00071186575
0.0007166175
0.00072025368
0.00072261556
0.00069034063
0.00068252479
0.0006768307
0.00067287366
0.00067003404
0.00066765034
)
;
    }
    Outlet
    {
        type            calculated;
        value           nonuniform List<scalar> 0();
    }
    procBoundary7to0
    {
        type            processor;
        value           nonuniform List<scalar> 
50
(
0.12809731
0.12805383
0.12802176
0.12800654
0.12800359
0.12800612
0.12801942
0.12804331
0.12810726
0.12812091
0.12834061
0.10570768
0.08385751
0.066251872
0.051911644
0.040549374
0.03158623
0.024261528
0.018288264
0.013563541
0.0097861318
0.0068261005
0.0044888678
0.0027423732
0.0016120884
0.00060400883
0.1325045
0.1319693
0.13150531
0.13111652
0.13078164
0.13047986
0.13020828
0.1299653
0.12973971
0.12953177
0.12934478
0.12917683
0.12902596
0.12888855
0.12876281
0.1286519
0.12855295
0.12846066
0.12837824
0.12830577
0.12823977
0.12818453
0.12809731
0.12813699
)
;
    }
    procBoundary7to8
    {
        type            processor;
        value           nonuniform List<scalar> 
53
(
0.12736277
0.12739693
0.12743507
0.12748013
0.12753301
0.12759831
0.12767916
0.1277776
0.12789947
0.12805552
0.12825337
0.12851672
0.12886655
0.129376
0.13016246
0.12727887
0.1272492
0.12723568
0.12721684
0.1272238
0.12722284
0.12723498
0.12725069
0.12726221
0.1272811
0.12731
0.12733569
0.12736532
0.12736532
0.039443624
0.036778639
0.049307415
0.067429954
0.072770275
0.082887247
0.10706772
0.098727715
0.12748707
0.12736251
0.12736251
0.0083620202
0.012018775
0.019855037
0.012395852
0.028543431
0.0082196551
0.020036116
0.031624105
0.030570129
0.030570129
0.00051864812
0.010848045
0.010848045
)
;
    }
}


// ************************************************************************* //
