/*--------------------------------*- C++ -*----------------------------------*\
| =========                 |                                                 |
| \\      /  F ield         | OpenFOAM: The Open Source CFD Toolbox           |
|  \\    /   O peration     | Version:  2506                                  |
|   \\  /    A nd           | Website:  www.openfoam.com                      |
|    \\/     M anipulation  |                                                 |
\*---------------------------------------------------------------------------*/
FoamFile
{
    version     2.0;
    format      ascii;
    arch        "LSB;label=32;scalar=64";
    class       volScalarField;
    location    "0.0145";
    object      p;
}
// * * * * * * * * * * * * * * * * * * * * * * * * * * * * * * * * * * * * * //

dimensions      [1 -1 -2 0 0 0 0];

internalField   nonuniform List<scalar> 
13761
(
40369.126
40369.122
40369.12
40369.121
40369.127
40369.14
40369.162
40369.196
40369.242
40369.3
40369.371
40369.455
40369.554
40334.146
40334.144
40334.142
40334.143
40334.149
40334.162
40334.184
40334.216
40334.259
40334.314
40334.38
40334.459
40334.552
40334.659
40334.783
40334.924
40335.084
40335.266
40335.472
40335.705
40335.968
40336.264
40336.597
40336.973
40337.395
40337.87
40303.617
40303.615
40303.614
40303.616
40303.621
40303.634
40303.654
40303.685
40303.725
40303.775
40303.836
40303.908
40303.993
40304.09
40304.203
40304.332
40304.479
40304.648
40304.839
40305.056
40305.302
40305.58
40305.894
40306.249
40306.649
40307.101
40307.609
40308.183
40308.83
40309.558
40310.38
40311.305
40275.647
40275.645
40275.644
40275.646
40275.652
40275.663
40275.682
40275.71
40275.745
40275.79
40275.854
40275.946
40276.062
40276.195
40276.34
40276.494
40276.659
40276.833
40277.018
40277.219
40277.446
40277.704
40277.997
40278.329
40278.703
40279.127
40279.605
40280.146
40280.756
40281.445
40282.222
40283.1
40284.091
40285.211
40286.475
40287.903
49227.192
49227.193
49227.194
49227.195
49227.197
49227.199
49227.203
49227.208
49227.214
49227.223
49227.234
49227.248
49227.264
49227.284
49227.307
49227.331
49227.359
49227.392
49227.434
49227.483
49227.54
49227.604
49227.676
49227.757
49227.849
49227.952
49228.069
49228.199
49228.345
49228.508
49228.691
49228.894
49229.121
49229.374
49229.655
49229.968
49230.316
49230.702
49231.118
49231.558
49232.018
49232.501
49233.017
49233.569
49234.156
49234.78
49235.443
49236.146
49236.888
49237.672
49238.495
49239.358
49210.89
49210.891
49210.892
49210.893
49210.895
49210.898
49210.902
49210.907
49210.915
49210.925
49210.938
49210.953
49210.972
49210.994
49211.021
49211.05
49211.082
49211.119
49211.163
49211.217
49211.28
49211.352
49211.432
49211.522
49211.624
49211.738
49211.866
49212.009
49212.169
49212.348
49212.548
49212.77
49213.017
49213.291
49213.596
49213.935
49214.311
49214.726
49215.177
49215.654
49216.154
49216.681
49217.244
49217.843
49218.482
49219.16
49219.881
49220.644
49221.45
49222.3
49223.193
49224.128
49225.105
49226.121
49227.175
49228.262
49229.378
49230.516
49231.669
49232.829
49233.983
49235.118
49194.804
49194.805
49194.806
49194.808
49194.81
49194.813
49194.818
49194.824
49194.833
49194.844
49194.858
49194.876
49194.897
49194.922
49194.952
49194.986
49195.023
49195.063
49195.111
49195.169
49195.238
49195.316
49195.404
49195.503
49195.614
49195.738
49195.877
49196.032
49196.206
49196.399
49196.614
49196.854
49197.119
49197.414
49197.741
49198.104
49198.505
49198.949
49199.432
49199.944
49200.483
49201.052
49201.657
49202.3
49202.984
49203.71
49204.48
49205.294
49206.153
49207.058
49208.007
49209.002
49210.04
49211.12
49212.24
49213.397
49214.585
49215.799
49217.031
49218.273
49219.512
49220.735
49221.926
49223.065
49224.128
49225.087
49225.908
49179.17
49179.171
49179.173
49179.175
49179.177
49179.181
49179.186
49179.193
49179.202
49179.215
49179.231
49179.25
49179.273
49179.301
49179.333
49179.371
49179.413
49179.461
49179.514
49179.577
49179.65
49179.734
49179.828
49179.934
49180.053
49180.186
49180.334
49180.499
49180.683
49180.888
49181.115
49181.367
49181.646
49181.955
49182.298
49182.676
49183.094
49183.556
49184.059
49184.593
49185.156
49185.75
49186.382
49187.054
49187.768
49188.526
49189.329
49190.179
49191.075
49192.018
49193.007
49194.044
49195.126
49196.252
49197.421
49198.628
49199.87
49201.142
49202.435
49203.741
49205.051
49206.349
49207.621
49208.846
49210.002
49211.059
49211.984
49212.74
49213.279
49213.547
49213.489
49163.982
49163.984
49163.986
49163.988
49163.991
49163.995
49164.001
49164.008
49164.019
49164.033
49164.05
49164.071
49164.096
49164.127
49164.162
49164.202
49164.25
49164.306
49164.371
49164.444
49164.526
49164.617
49164.719
49164.833
49164.96
49165.103
49165.261
49165.437
49165.633
49165.85
49166.09
49166.356
49166.65
49166.975
49167.333
49167.727
49168.163
49168.641
49169.164
49169.719
49170.303
49170.916
49171.561
49172.245
49172.97
49173.738
49174.552
49175.411
49176.317
49177.272
49178.275
49179.328
49180.428
49181.576
49182.769
49184.004
49185.277
49186.585
49187.919
49189.272
49190.634
49191.991
49193.327
49194.623
49195.856
49196.997
49198.017
49198.877
49199.532
49199.928
49200.008
49199.701
49198.911
49197.537
49150.154
49150.156
49150.157
49150.159
49150.162
49150.166
49150.172
49150.18
49150.191
49150.205
49150.224
49150.246
49150.274
49150.306
49150.344
49150.388
49150.439
49150.498
49150.563
49150.633
49150.708
49150.791
49150.884
49150.989
49151.106
49151.236
49151.381
49151.543
49151.723
49151.922
49152.143
49152.388
49152.659
49152.958
49153.289
49153.655
49154.059
49154.504
49154.993
49155.517
49156.072
49156.658
49157.279
49157.941
49158.646
49159.394
49160.188
49161.029
49161.918
49162.856
49163.846
49164.886
49165.978
49167.12
49168.311
49169.549
49170.831
49172.151
49173.505
49174.883
49176.276
49177.672
49179.054
49180.403
49181.698
49182.913
49184.017
49184.974
49185.736
49186.253
49186.464
49186.304
49185.682
49184.494
49182.632
49179.973
49176.377
49137.855
49137.856
49137.858
49137.86
49137.862
49137.865
49137.87
49137.876
49137.884
49137.895
49137.908
49137.925
49137.944
49137.968
49137.996
49138.028
49138.064
49138.101
49138.139
49138.182
49138.233
49138.296
49138.367
49138.447
49138.537
49138.638
49138.751
49138.877
49139.017
49139.174
49139.349
49139.544
49139.761
49140.002
49140.27
49140.568
49140.9
49141.268
49141.676
49142.117
49142.586
49143.088
49143.628
49144.214
49144.846
49145.527
49146.258
49147.04
49147.875
49148.764
49149.708
49150.707
49151.763
49152.874
49154.039
49155.257
49156.523
49157.835
49159.187
49160.57
49161.976
49163.393
49164.806
49166.196
49167.543
49168.821
49170.001
49171.044
49171.905
49172.534
49172.866
49172.844
49172.383
49171.377
49169.718
49167.285
49163.939
49159.53
49153.887
49125.034
49125.035
49125.037
49125.039
49125.041
49125.044
49125.048
49125.053
49125.059
49125.068
49125.078
49125.091
49125.106
49125.125
49125.146
49125.171
49125.2
49125.233
49125.269
49125.309
49125.356
49125.409
49125.471
49125.541
49125.62
49125.708
49125.807
49125.917
49126.042
49126.181
49126.336
49126.51
49126.704
49126.92
49127.162
49127.432
49127.733
49128.069
49128.442
49128.847
49129.277
49129.731
49130.216
49130.741
49131.31
49131.925
49132.589
49133.304
49134.074
49134.9
49135.783
49136.725
49137.728
49138.791
49139.915
49141.096
49142.332
49143.621
49144.956
49146.33
49147.735
49149.16
49150.592
49152.012
49153.399
49154.73
49155.973
49157.091
49158.04
49158.77
49159.218
49159.326
49159.018
49158.19
49156.729
49154.514
49151.412
49147.276
49141.937
49135.207
49126.877
49111.526
49111.528
49111.529
49111.531
49111.533
49111.536
49111.54
49111.545
49111.552
49111.56
49111.571
49111.583
49111.598
49111.616
49111.636
49111.661
49111.689
49111.722
49111.761
49111.804
49111.853
49111.907
49111.968
49112.036
49112.113
49112.2
49112.297
49112.405
49112.527
49112.663
49112.815
49112.985
49113.175
49113.387
49113.623
49113.887
49114.181
49114.51
49114.875
49115.274
49115.697
49116.143
49116.616
49117.125
49117.671
49118.258
49118.889
49119.568
49120.297
49121.079
49121.918
49122.814
49123.771
49124.79
49125.871
49127.014
49128.216
49129.475
49130.788
49132.146
49133.544
49134.969
49136.411
49137.85
49139.266
49140.637
49141.932
49143.114
49144.142
49144.967
49145.527
49145.758
49145.592
49144.935
49143.666
49141.664
49138.802
49134.934
49129.894
49123.498
49115.534
49105.802
49097.727
49097.729
49097.73
49097.732
49097.735
49097.738
49097.742
49097.747
49097.754
49097.762
49097.772
49097.784
49097.799
49097.817
49097.837
49097.861
49097.888
49097.921
49097.958
49098.001
49098.049
49098.103
49098.163
49098.23
49098.306
49098.392
49098.488
49098.595
49098.715
49098.849
49098.999
49099.166
49099.352
49099.561
49099.793
49100.051
49100.34
49100.661
49101.02
49101.412
49101.829
49102.27
49102.739
49103.243
49103.785
49104.366
49104.989
49105.658
49106.375
49107.142
49107.963
49108.839
49109.772
49110.765
49111.819
49112.934
49114.111
49115.347
49116.639
49117.983
49119.371
49120.794
49122.24
49123.693
49125.132
49126.534
49127.872
49129.111
49130.212
49131.124
49131.79
49132.141
49132.108
49131.611
49130.53
49128.738
49126.111
49122.504
49117.757
49111.686
49104.083
49094.751
49083.436
49069.897
49083.725
49083.727
49083.729
49083.731
49083.733
49083.737
49083.741
49083.746
49083.753
49083.761
49083.771
49083.784
49083.798
49083.816
49083.836
49083.86
49083.887
49083.92
49083.957
49083.999
49084.047
49084.101
49084.16
49084.227
49084.303
49084.388
49084.483
49084.589
49084.708
49084.841
49084.989
49085.154
49085.339
49085.545
49085.774
49086.029
49086.313
49086.63
49086.983
49087.371
49087.784
49088.22
49088.684
49089.183
49089.719
49090.296
49090.916
49091.581
49092.294
49093.057
49093.872
49094.742
49095.668
49096.653
49097.696
49098.799
49099.963
49101.187
49102.469
49103.804
49105.187
49106.61
49108.061
49109.526
49110.986
49112.419
49113.798
49115.09
49116.256
49117.249
49118.014
49118.48
49118.576
49118.227
49117.328
49115.741
49113.342
49109.992
49105.531
49099.779
49092.532
49083.592
49072.709
49059.642
49044.125
49069.59
49069.592
49069.594
49069.596
49069.599
49069.602
49069.606
49069.611
49069.618
49069.627
49069.637
49069.649
49069.664
49069.682
49069.702
49069.725
49069.752
49069.784
49069.82
49069.861
49069.907
49069.96
49070.019
49070.085
49070.16
49070.245
49070.339
49070.445
49070.563
49070.695
49070.842
49071.006
49071.189
49071.394
49071.621
49071.874
49072.156
49072.471
49072.82
49073.206
49073.617
49074.052
49074.513
49075.008
49075.54
49076.113
49076.729
49077.391
49078.1
49078.859
49079.671
49080.538
49081.461
49082.443
49083.484
49084.586
49085.748
49086.97
49088.25
49089.585
49090.969
49092.396
49093.856
49095.336
49096.819
49098.282
49099.701
49101.044
49102.273
49103.341
49104.198
49104.774
49104.996
49104.786
49104.06
49102.673
49100.499
49097.4
49093.22
49087.781
49080.883
49072.327
49061.87
49049.271
49034.262
49016.591
49055.368
49055.369
49055.371
49055.373
49055.376
49055.379
49055.384
49055.389
49055.396
49055.404
49055.415
49055.427
49055.442
49055.46
49055.48
49055.504
49055.531
49055.562
49055.598
49055.639
49055.686
49055.738
49055.798
49055.864
49055.939
49056.023
49056.117
49056.222
49056.34
49056.471
49056.617
49056.781
49056.963
49057.165
49057.391
49057.642
49057.922
49058.234
49058.581
49058.965
49059.375
49059.809
49060.269
49060.761
49061.291
49061.861
49062.473
49063.131
49063.837
49064.594
49065.402
49066.266
49067.187
49068.168
49069.209
49070.311
49071.475
49072.699
49073.983
49075.323
49076.714
49078.151
49079.624
49081.122
49082.629
49084.123
49085.581
49086.974
49088.263
49089.404
49090.347
49091.029
49091.374
49091.302
49090.736
49089.545
49087.588
49084.734
49080.827
49075.695
49069.14
49060.962
49050.925
49038.787
49024.28
49007.154
48987.162
48964.064
49041.058
49041.06
49041.062
49041.064
49041.067
49041.07
49041.075
49041.08
49041.087
49041.096
49041.106
49041.119
49041.134
49041.151
49041.172
49041.195
49041.222
49041.253
49041.289
49041.329
49041.374
49041.426
49041.485
49041.551
49041.625
49041.709
49041.803
49041.908
49042.025
49042.156
49042.302
49042.465
49042.647
49042.849
49043.074
49043.325
49043.604
49043.915
49044.261
49044.644
49045.056
49045.491
49045.952
49046.444
49046.973
49047.543
49048.155
49048.812
49049.517
49050.272
49051.08
49051.943
49052.863
49053.843
49054.884
49055.988
49057.154
49058.383
49059.672
49061.019
49062.421
49063.87
49065.359
49066.877
49068.408
49069.935
49071.431
49072.872
49074.219
49075.431
49076.458
49077.241
49077.707
49077.77
49077.355
49076.352
49074.606
49071.991
49068.351
49063.522
49057.307
49049.501
49039.877
49028.192
49014.182
48997.596
48978.186
48955.714
48929.956
49026.69
49026.692
49026.694
49026.696
49026.699
49026.702
49026.706
49026.712
49026.719
49026.728
49026.738
49026.751
49026.766
49026.784
49026.804
49026.828
49026.855
49026.886
49026.92
49026.96
49027.007
49027.059
49027.118
49027.184
49027.259
49027.342
49027.436
49027.541
49027.658
49027.788
49027.934
49028.097
49028.278
49028.479
49028.704
49028.953
49029.231
49029.541
49029.886
49030.268
49030.68
49031.118
49031.579
49032.071
49032.601
49033.171
49033.784
49034.442
49035.147
49035.903
49036.712
49037.576
49038.497
49039.479
49040.522
49041.627
49042.797
49044.03
49045.325
49046.681
49048.093
49049.557
49051.063
49052.601
49054.158
49055.716
49057.251
49058.738
49060.143
49061.424
49062.534
49063.416
49063.998
49064.193
49063.924
49063.101
49061.562
49059.181
49055.805
49051.27
49045.386
49037.947
49028.729
49017.493
49003.972
48987.922
48969.089
48947.241
48922.137
48893.594
49012.257
49012.259
49012.261
49012.263
49012.266
49012.269
49012.274
49012.279
49012.287
49012.295
49012.306
49012.319
49012.334
49012.351
49012.372
49012.396
49012.423
49012.454
49012.489
49012.53
49012.575
49012.626
49012.685
49012.751
49012.826
49012.909
49013.003
49013.108
49013.225
49013.355
49013.501
49013.664
49013.844
49014.046
49014.27
49014.519
49014.796
49015.105
49015.449
49015.83
49016.244
49016.683
49017.146
49017.64
49018.171
49018.743
49019.357
49020.016
49020.724
49021.481
49022.292
49023.158
49024.083
49025.067
49026.114
49027.223
49028.398
49029.637
49030.94
49032.305
49033.728
49035.206
49036.73
49038.29
49039.873
49041.464
49043.038
49044.573
49046.035
49047.384
49048.573
49049.548
49050.242
49050.567
49050.442
49049.79
49048.457
49046.304
49043.184
49038.938
49033.379
49026.301
49017.485
49006.692
48993.654
48978.134
48959.875
48938.644
48914.192
48886.335
48854.98
48997.772
48997.774
48997.776
48997.778
48997.781
48997.785
48997.789
48997.795
48997.802
48997.811
48997.822
48997.834
48997.85
48997.867
48997.888
48997.912
48997.939
48997.97
48998.005
48998.045
48998.09
48998.143
48998.201
48998.268
48998.342
48998.425
48998.519
48998.623
48998.74
48998.871
48999.016
48999.178
48999.359
48999.56
48999.784
49000.033
49000.309
49000.617
49000.96
49001.341
49001.756
49002.197
49002.662
49003.158
49003.692
49004.265
49004.881
49005.543
49006.253
49007.013
49007.827
49008.697
49009.626
49010.615
49011.666
49012.782
49013.962
49015.209
49016.52
49017.895
49019.331
49020.824
49022.366
49023.948
49025.559
49027.184
49028.799
49030.38
49031.898
49033.311
49034.577
49035.642
49036.445
49036.898
49036.916
49036.427
49035.294
49033.363
49030.495
49026.532
49021.292
49014.569
49006.149
48995.791
48983.233
48968.236
48950.545
48929.927
48906.124
48878.954
48848.312
48983.245
48983.247
48983.249
48983.252
48983.254
48983.258
48983.263
48983.268
48983.276
48983.284
48983.295
48983.308
48983.323
48983.341
48983.362
48983.386
48983.413
48983.444
48983.48
48983.52
48983.565
48983.616
48983.674
48983.74
48983.815
48983.898
48983.991
48984.096
48984.212
48984.343
48984.488
48984.65
48984.83
48985.031
48985.255
48985.503
48985.779
48986.087
48986.429
48986.809
48987.225
48987.667
48988.135
48988.633
48989.169
48989.745
48990.363
48991.027
48991.74
48992.504
48993.321
48994.195
48995.128
48996.122
48997.18
48998.302
48999.49
49000.745
49002.067
49003.454
49004.903
49006.412
49007.973
49009.578
49011.216
49012.872
49014.526
49016.152
49017.722
49019.199
49020.54
49021.694
49022.603
49023.181
49023.338
49023.006
49022.068
49020.355
49017.737
49014.051
49009.124
49002.754
48994.719
48984.793
48972.709
48958.23
48941.104
48921.094
48897.936
48871.45
48841.522
48808.185
48968.683
48968.686
48968.688
48968.69
48968.693
48968.697
48968.701
48968.707
48968.715
48968.723
48968.734
48968.747
48968.762
48968.78
48968.801
48968.825
48968.852
48968.883
48968.918
48968.958
48969.004
48969.056
48969.114
48969.18
48969.254
48969.337
48969.43
48969.534
48969.65
48969.78
48969.925
48970.087
48970.267
48970.467
48970.69
48970.938
48971.213
48971.52
48971.861
48972.24
48972.657
48973.101
48973.571
48974.072
48974.609
48975.187
48975.807
48976.475
48977.191
48977.958
48978.78
48979.658
48980.596
48981.596
48982.66
48983.79
48984.986
48986.251
48987.583
48988.982
48990.446
48991.971
48993.551
48995.179
48996.842
48998.528
49000.218
49001.889
49003.511
49005.052
49006.468
49007.71
49008.721
49009.42
49009.717
49009.538
49008.789
49007.291
49004.916
49001.502
48996.882
48990.857
48983.203
48973.703
48962.085
48948.121
48931.554
48912.146
48889.631
48863.827
48834.613
48802.002
48766.087
48954.095
48954.098
48954.1
48954.102
48954.105
48954.109
48954.113
48954.119
48954.127
48954.136
48954.147
48954.16
48954.175
48954.193
48954.214
48954.237
48954.265
48954.296
48954.332
48954.372
48954.417
48954.468
48954.526
48954.592
48954.666
48954.749
48954.841
48954.945
48955.061
48955.191
48955.335
48955.496
48955.676
48955.875
48956.097
48956.345
48956.62
48956.926
48957.266
48957.644
48958.061
48958.507
48958.979
48959.482
48960.02
48960.599
48961.222
48961.891
48962.61
48963.38
48964.205
48965.087
48966.03
48967.035
48968.105
48969.241
48970.446
48971.72
48973.063
48974.475
48975.953
48977.494
48979.093
48980.742
48982.431
48984.147
48985.874
48987.588
48989.263
48990.867
48992.356
48993.683
48994.793
48995.612
48996.048
48996.019
48995.448
48994.163
48992.025
48988.88
48984.564
48978.881
48971.603
48962.521
48951.366
48937.91
48921.897
48903.087
48881.211
48856.088
48827.588
48795.704
48760.504
48722.149
48939.476
48939.478
48939.48
48939.483
48939.486
48939.49
48939.494
48939.5
48939.508
48939.517
48939.528
48939.541
48939.556
48939.574
48939.595
48939.619
48939.647
48939.677
48939.712
48939.752
48939.797
48939.849
48939.908
48939.974
48940.047
48940.13
48940.223
48940.326
48940.442
48940.571
48940.715
48940.875
48941.054
48941.253
48941.474
48941.721
48941.995
48942.3
48942.639
48943.016
48943.433
48943.881
48944.355
48944.859
48945.399
48945.979
48946.604
48947.275
48947.996
48948.769
48949.597
48950.483
48951.43
48952.44
48953.516
48954.659
48955.872
48957.155
48958.508
48959.932
48961.424
48962.981
48964.6
48966.271
48967.988
48969.736
48971.501
48973.261
48974.988
48976.652
48978.212
48979.622
48980.83
48981.765
48982.335
48982.455
48982.053
48980.979
48979.074
48976.195
48972.177
48966.83
48959.923
48951.251
48940.553
48927.599
48912.136
48893.919
48872.679
48848.234
48820.444
48789.29
48754.807
48717.146
48676.479
48924.827
48924.829
48924.831
48924.834
48924.837
48924.841
48924.845
48924.851
48924.859
48924.868
48924.879
48924.892
48924.908
48924.926
48924.947
48924.971
48924.998
48925.029
48925.065
48925.105
48925.15
48925.201
48925.259
48925.324
48925.398
48925.48
48925.573
48925.676
48925.792
48925.921
48926.064
48926.224
48926.402
48926.601
48926.822
48927.067
48927.34
48927.644
48927.983
48928.359
48928.775
48929.225
48929.702
48930.207
48930.747
48931.329
48931.956
48932.629
48933.352
48934.127
48934.958
48935.847
48936.798
48937.812
48938.893
48940.042
48941.262
48942.553
48943.916
48945.352
48946.858
48948.433
48950.071
48951.767
48953.512
48955.293
48957.095
48958.898
48960.676
48962.399
48964.028
48965.52
48966.821
48967.868
48968.569
48968.838
48968.601
48967.735
48966.059
48963.441
48959.716
48954.698
48948.161
48939.895
48929.651
48917.194
48902.275
48884.646
48864.039
48840.269
48813.191
48782.769
48749.008
48712.044
48672.041
48910.15
48910.153
48910.155
48910.157
48910.161
48910.164
48910.169
48910.175
48910.183
48910.192
48910.203
48910.216
48910.232
48910.25
48910.271
48910.295
48910.323
48910.354
48910.389
48910.429
48910.474
48910.526
48910.585
48910.65
48910.724
48910.806
48910.899
48911.002
48911.117
48911.246
48911.389
48911.549
48911.727
48911.925
48912.145
48912.39
48912.662
48912.965
48913.302
48913.677
48914.093
48914.544
48915.023
48915.53
48916.072
48916.656
48917.284
48917.959
48918.683
48919.461
48920.295
48921.187
48922.141
48923.16
48924.246
48925.401
48926.628
48927.928
48929.301
48930.748
48932.269
48933.86
48935.518
48937.237
48939.009
48940.822
48942.66
48944.506
48946.334
48948.114
48949.812
48951.383
48952.775
48953.931
48954.763
48955.181
48955.105
48954.436
48952.988
48950.627
48947.189
48942.495
48936.323
48928.46
48918.664
48906.699
48892.316
48875.272
48855.296
48832.199
48805.83
48776.14
48743.103
48706.834
48667.494
48625.389
48895.449
48895.451
48895.454
48895.456
48895.459
48895.463
48895.468
48895.474
48895.482
48895.491
48895.502
48895.515
48895.531
48895.549
48895.57
48895.595
48895.622
48895.654
48895.69
48895.73
48895.775
48895.826
48895.883
48895.949
48896.023
48896.105
48896.198
48896.301
48896.416
48896.544
48896.688
48896.847
48897.025
48897.222
48897.442
48897.686
48897.957
48898.259
48898.595
48898.969
48899.384
48899.835
48900.316
48900.825
48901.369
48901.955
48902.585
48903.262
48903.99
48904.77
48905.607
48906.503
48907.461
48908.484
48909.575
48910.737
48911.97
48913.278
48914.661
48916.12
48917.653
48919.26
48920.936
48922.677
48924.473
48926.315
48928.188
48930.074
48931.95
48933.787
48935.551
48937.201
48938.686
48939.948
48940.908
48941.472
48941.555
48941.074
48939.855
48937.747
48934.596
48930.222
48924.411
48916.944
48907.593
48896.114
48882.263
48865.798
48846.449
48824.023
48798.36
48769.402
48737.093
48701.527
48662.859
48621.392
48576.795
48880.739
48880.741
48880.744
48880.746
48880.75
48880.753
48880.758
48880.764
48880.772
48880.781
48880.793
48880.806
48880.822
48880.84
48880.861
48880.885
48880.913
48880.945
48880.98
48881.02
48881.065
48881.117
48881.176
48881.242
48881.315
48881.398
48881.49
48881.593
48881.708
48881.837
48881.98
48882.139
48882.316
48882.513
48882.732
48882.975
48883.246
48883.547
48883.881
48884.253
48884.667
48885.119
48885.6
48886.11
48886.656
48887.244
48887.875
48888.553
48889.283
48890.065
48890.904
48891.803
48892.764
48893.792
48894.887
48896.054
48897.294
48898.609
48900.001
48901.47
48903.015
48904.635
48906.327
48908.086
48909.905
48911.774
48913.68
48915.606
48917.531
48919.424
48921.256
48922.985
48924.561
48925.927
48927.011
48927.72
48927.964
48927.663
48926.672
48924.812
48921.945
48917.885
48912.429
48905.352
48896.44
48885.443
48872.119
48856.227
48837.502
48815.745
48790.79
48762.565
48730.989
48696.133
48658.136
48617.3
48573.292
48866.024
48866.026
48866.029
48866.031
48866.034
48866.038
48866.043
48866.05
48866.057
48866.067
48866.078
48866.091
48866.107
48866.125
48866.147
48866.171
48866.199
48866.231
48866.267
48866.307
48866.353
48866.404
48866.461
48866.527
48866.6
48866.683
48866.775
48866.878
48866.992
48867.12
48867.263
48867.421
48867.598
48867.794
48868.012
48868.254
48868.523
48868.823
48869.155
48869.525
48869.935
48870.387
48870.868
48871.379
48871.925
48872.512
48873.144
48873.823
48874.553
48875.336
48876.177
48877.077
48878.041
48879.071
48880.17
48881.341
48882.587
48883.909
48885.308
48886.786
48888.342
48889.976
48891.683
48893.461
48895.302
48897.198
48899.136
48901.102
48903.073
48905.022
48906.919
48908.724
48910.387
48911.856
48913.063
48913.917
48914.324
48914.198
48913.426
48911.813
48909.224
48905.475
48900.373
48893.686
48885.207
48874.689
48861.889
48846.566
48828.46
48807.37
48783.124
48755.63
48724.788
48690.639
48653.31
48613.102
48569.693
48521.43
48851.339
48851.342
48851.344
48851.347
48851.35
48851.354
48851.359
48851.365
48851.373
48851.382
48851.394
48851.407
48851.423
48851.441
48851.462
48851.486
48851.514
48851.545
48851.581
48851.62
48851.665
48851.716
48851.774
48851.839
48851.912
48851.993
48852.084
48852.186
48852.299
48852.426
48852.567
48852.723
48852.898
48853.091
48853.307
48853.546
48853.812
48854.108
48854.437
48854.802
48855.208
48855.655
48856.134
48856.643
48857.187
48857.772
48858.401
48859.079
48859.807
48860.59
48861.431
48862.331
48863.296
48864.328
48865.429
48866.604
48867.853
48869.181
48870.587
48872.073
48873.64
48875.286
48877.009
48878.805
48880.669
48882.592
48884.564
48886.568
48888.585
48890.588
48892.547
48894.427
48896.179
48897.75
48899.078
48900.073
48900.642
48900.689
48900.127
48898.76
48896.445
48893.005
48888.251
48881.951
48873.901
48863.858
48851.575
48836.815
48819.324
48798.898
48775.357
48748.596
48718.488
48685.055
48648.4
48608.826
48566.021
48518.333
48465.901
48836.644
48836.646
48836.649
48836.651
48836.655
48836.659
48836.663
48836.67
48836.677
48836.686
48836.697
48836.711
48836.726
48836.744
48836.765
48836.788
48836.816
48836.847
48836.882
48836.922
48836.966
48837.016
48837.072
48837.135
48837.207
48837.288
48837.378
48837.478
48837.591
48837.716
48837.855
48838.01
48838.183
48838.375
48838.588
48838.825
48839.088
48839.381
48839.706
48840.067
48840.469
48840.912
48841.388
48841.895
48842.437
48843.018
48843.644
48844.319
48845.045
48845.825
48846.664
48847.563
48848.526
48849.557
48850.659
48851.835
48853.087
48854.418
48855.83
48857.324
48858.901
48860.559
48862.298
48864.113
48866
48867.95
48869.954
48871.995
48874.057
48876.114
48878.135
48880.088
48881.927
48883.598
48885.042
48886.174
48886.903
48887.126
48886.765
48885.646
48883.602
48880.469
48876.059
48870.145
48862.52
48852.949
48841.179
48826.979
48810.1
48790.335
48767.498
48741.469
48712.103
48679.392
48643.415
48604.467
48562.25
48515.128
48463.223
48821.861
48821.864
48821.867
48821.869
48821.873
48821.877
48821.882
48821.888
48821.895
48821.904
48821.916
48821.929
48821.944
48821.962
48821.983
48822.006
48822.034
48822.065
48822.099
48822.138
48822.182
48822.232
48822.289
48822.354
48822.425
48822.505
48822.595
48822.695
48822.807
48822.932
48823.071
48823.225
48823.397
48823.588
48823.8
48824.036
48824.298
48824.589
48824.913
48825.272
48825.671
48826.113
48826.589
48827.096
48827.637
48828.217
48828.843
48829.517
48830.242
48831.021
48831.859
48832.757
48833.721
48834.752
48835.855
48837.033
48838.288
48839.624
48841.042
48842.543
48844.13
48845.801
48847.554
48849.389
48851.299
48853.276
48855.312
48857.391
48859.497
48861.607
48863.691
48865.716
48867.639
48869.407
48870.965
48872.235
48873.123
48873.524
48873.358
48872.484
48870.706
48867.876
48863.805
48858.276
48851.07
48841.968
48830.707
48817.063
48800.792
48781.684
48759.547
48734.25
48705.626
48673.642
48638.341
48600.016
48558.389
48511.848
48460.493
48409.231
48807.042
48807.044
48807.047
48807.05
48807.053
48807.057
48807.062
48807.068
48807.076
48807.085
48807.096
48807.109
48807.125
48807.143
48807.163
48807.187
48807.214
48807.245
48807.28
48807.319
48807.364
48807.414
48807.47
48807.533
48807.604
48807.684
48807.773
48807.873
48807.984
48808.109
48808.247
48808.401
48808.572
48808.762
48808.974
48809.209
48809.47
48809.76
48810.082
48810.439
48810.837
48811.277
48811.753
48812.26
48812.801
48813.381
48814.006
48814.68
48815.405
48816.185
48817.022
48817.921
48818.885
48819.918
48821.022
48822.202
48823.46
48824.8
48826.223
48827.732
48829.328
48831.01
48832.779
48834.632
48836.563
48838.566
48840.633
48842.748
48844.897
48847.058
48849.202
48851.296
48853.303
48855.169
48856.841
48858.247
48859.292
48859.87
48859.894
48859.258
48857.746
48855.219
48851.487
48846.341
48839.554
48830.916
48820.161
48807.068
48791.4
48772.947
48751.505
48726.94
48699.06
48667.809
48633.193
48595.497
48554.462
48508.5
48457.69
48406.911
48792.17
48792.173
48792.175
48792.178
48792.181
48792.185
48792.19
48792.197
48792.204
48792.214
48792.225
48792.238
48792.253
48792.271
48792.292
48792.315
48792.342
48792.373
48792.408
48792.447
48792.49
48792.54
48792.597
48792.66
48792.732
48792.811
48792.9
48793
48793.111
48793.234
48793.372
48793.525
48793.696
48793.885
48794.096
48794.33
48794.59
48794.879
48795.199
48795.555
48795.951
48796.389
48796.865
48797.372
48797.913
48798.493
48799.119
48799.794
48800.519
48801.3
48802.139
48803.039
48804.005
48805.04
48806.148
48807.332
48808.595
48809.94
48811.37
48812.888
48814.493
48816.188
48817.971
48819.84
48821.792
48823.82
48825.915
48828.067
48830.258
48832.471
48834.676
48836.842
48838.933
48840.9
48842.682
48844.22
48845.419
48846.173
48846.388
48845.981
48844.738
48842.511
48839.114
48834.347
48827.973
48819.793
48809.541
48796.996
48781.928
48764.126
48743.377
48719.543
48692.413
48661.902
48627.977
48590.904
48550.449
48505.057
48454.8
48404.533
48356.4
48777.256
48777.259
48777.262
48777.264
48777.268
48777.272
48777.277
48777.283
48777.291
48777.3
48777.311
48777.324
48777.34
48777.358
48777.378
48777.402
48777.429
48777.46
48777.494
48777.534
48777.578
48777.627
48777.683
48777.745
48777.816
48777.895
48777.984
48778.083
48778.194
48778.317
48778.454
48778.607
48778.777
48778.966
48779.176
48779.409
48779.668
48779.955
48780.275
48780.629
48781.023
48781.46
48781.936
48782.444
48782.985
48783.566
48784.193
48784.868
48785.595
48786.377
48787.217
48788.119
48789.088
48790.125
48791.236
48792.424
48793.692
48795.043
48796.481
48798.006
48799.622
48801.329
48803.126
48805.012
48806.983
48809.034
48811.16
48813.347
48815.581
48817.844
48820.11
48822.347
48824.519
48826.581
48828.471
48830.137
48831.489
48832.419
48832.828
48832.644
48831.671
48829.74
48826.676
48822.285
48816.324
48808.6
48798.85
48786.852
48772.383
48755.227
48735.167
48712.063
48685.683
48655.915
48622.685
48586.234
48546.356
48501.541
48451.847
48402.096
48354.354
48762.309
48762.312
48762.314
48762.317
48762.32
48762.325
48762.33
48762.336
48762.344
48762.353
48762.364
48762.377
48762.393
48762.41
48762.431
48762.455
48762.482
48762.512
48762.547
48762.586
48762.629
48762.678
48762.734
48762.797
48762.868
48762.947
48763.035
48763.134
48763.244