/*--------------------------------*- C++ -*----------------------------------*\
| =========                 |                                                 |
| \\      /  F ield         | OpenFOAM: The Open Source CFD Toolbox           |
|  \\    /   O peration     | Version:  2506                                  |
|   \\  /    A nd           | Website:  www.openfoam.com                      |
|    \\/     M anipulation  |                                                 |
\*---------------------------------------------------------------------------*/
FoamFile
{
    version     2.0;
    format      ascii;
    arch        "LSB;label=32;scalar=64";
    class       volScalarField;
    location    "1.55";
    object      omega;
}
// * * * * * * * * * * * * * * * * * * * * * * * * * * * * * * * * * * * * * //

dimensions      [0 0 -1 0 0 0 0];

internalField   nonuniform List<scalar> 
1375
(
38.032375
33.578899
29.889539
40.704023
37.231546
32.895923
29.329997
26.749818
24.94364
23.681891
22.800983
22.192551
39.88938
36.45076
32.228072
28.782374
26.299168
24.566317
23.360536
22.52322
21.948916
21.564858
21.317772
21.167611
21.084761
21.04678
21.035391
39.115493
35.706212
31.587073
28.253415
25.861924
24.199459
23.048028
22.253259
21.712193
21.353612
21.125497
20.989079
20.915807
20.883932
20.875451
20.877152
20.895609
20.924047
20.957915
38.391108
35.012809
30.985068
27.751303
25.443187
23.845946
22.745676
21.991373
21.48206
21.147805
20.937731
20.814305
20.749994
20.723619
20.717428
20.721742
20.742856
20.772386
20.806974
20.845634
20.887741
20.932949
20.981128
37.71799
34.377654
30.429639
27.282593
25.048118
23.509481
22.455828
21.738807
21.258994
20.947464
20.754305
20.64307
20.587079
20.565601
20.561337
20.568794
20.592154
20.622675
20.65793
20.697049
20.73947
20.78489
20.833218
20.884509
20.938917
20.996651
21.057959
37.090166
33.795792
29.919207
26.848364
24.679057
23.192598
22.180618
21.497076
21.043919
20.753082
20.575453
20.475456
20.427038
20.409878
20.407344
20.418231
20.443455
20.474882
20.510751
20.550283
20.592974
20.638569
20.687004
20.738357
20.792797
20.850547
20.911863
20.977054
21.046497
21.12067
36.496887
33.252405
29.443302
26.443039
24.333735
22.894869
21.920466
21.266858
20.837472
20.565147
20.401507
20.311642
20.269955
20.256613
20.255644
20.270003
20.296744
20.328984
20.365402
20.405296
20.448217
20.493951
20.542461
20.593841
20.648272
20.705985
20.76725
20.832378
20.901746
20.975815
21.055148
21.14042
21.232404
35.927211
32.729988
28.987691
26.057059
24.006213
22.612833
21.67354
21.047328
20.63939
20.383665
20.232554
20.151721
20.115959
20.105788
20.106464
20.124058
20.152016
20.184959
20.221848
20.262042
20.305148
20.350988
20.399546
20.450925
20.505311
20.562945
20.624106
20.689117
20.75835
20.832261
20.911397
20.996406
21.088054
21.187239
21.294992
35.373082
32.214798
28.540463
25.681472
23.689987
22.341904
21.436774
20.83659
20.44861
20.208095
20.068339
19.995593
19.965007
19.957223
19.960018
19.980318
20.009243
20.042774
20.080045
20.120472
20.163713
20.209622
20.258199
20.309551
20.363866
20.421388
20.482406
20.54725
20.616299
20.689998
20.768877
20.853567
20.944823
21.043538
21.150745
21.267662
21.395729
21.536682
34.830153
31.699704
28.094852
25.310381
23.380036
22.077984
21.207037
20.632434
20.263691
20.037563
19.908348
19.842948
19.816853
19.810919
19.816224
19.838677
19.86837
19.902378
19.939944
19.980536
20.023858
20.069792
20.118353
20.169652
20.223872
20.281258
20.3421
20.406737
20.475554
20.548991
20.627567
20.711894
20.802709
20.900892
21.007488
21.123712
21.250993
21.391027
21.545909
21.718319
34.297347
31.185492
27.651013
24.942688
23.074383
21.818789
20.982178
20.433089
20.083324
19.871166
19.751983
19.693371
19.671215
19.666831
19.674885
19.699015
19.729323
19.763708
19.801489
19.842184
19.885535
19.931451
19.979958
20.031169
20.085267
20.142491
20.203133
20.267532
20.336076
20.409208
20.487436
20.571362
20.661702
20.759324
20.865262
20.980729
21.107145
21.246188
21.399903
21.57092
21.762687
21.979629
33.775128
30.678256
27.21403
24.581083
22.773847
21.564036
20.761404
20.237634
19.906662
19.708223
19.598722
19.54646
19.527839
19.524865
19.535785
19.561211
19.592019
19.626699
19.664626
19.705366
19.748699
19.794556
19.842971
19.894062
19.948006
20.005041
20.065458
20.129593
20.197835
20.270626
20.348473
20.431964
20.521803
20.618836
20.724087
20.838758
20.96425
21.102224
21.254703
21.42427
21.614309
21.829143
22.07382
33.263935
30.185394
26.790673
24.230024
22.480946
21.314942
20.545134
20.046036
19.73346
19.548416
19.448245
19.401934
19.386554
19.384943
19.398737
19.425167
19.456388
19.491297
19.529312
19.570047
19.613317
19.659073
19.70736
19.758296
19.812057
19.868877
19.929043
19.992891
20.060808
20.133232
20.210667
20.293697
20.383012
20.479438
20.583978
20.697816
20.822338
20.959183
21.110352
21.278391
21.466623
21.679259
21.921142
22.196799
22.509358
32.763509
29.711727
26.38564
23.893004
22.198073
21.07306
20.334292
19.858764
19.563881
19.391717
19.300414
19.259646
19.247331
19.246976
19.263591
19.290805
19.322375
19.357459
19.395514
19.436202
19.479369
19.524986
19.573109
19.623856
19.677404
19.733981
19.793871
19.857407
19.924973
19.997005
20.074004
20.156547
20.245317
20.34112
20.444929
20.557902
20.68141
20.817073
20.96687
21.133306
21.31964
21.529968
21.768935
22.040727
22.348103
22.699332
32.2734
29.258419
26.000418
23.571553
21.92665
20.839581
20.129774
19.676417
19.398261
19.238261
19.155266
19.119644
19.109886
19.111104
19.130234
19.158066
19.189931
19.225146
19.263206
19.303812
19.346842
19.392287
19.440213
19.490743
19.54405
19.600359
19.659947
19.723143
19.790326
19.861934
19.938464
20.020491
20.108687
20.203842
20.306897
20.418978
20.541428
20.675858
20.824227
20.988998
21.173354
21.381276
21.61722
21.885034
22.187141
22.532092
22.984407
31.793897
28.823633
25.633315
23.264898
21.666647
20.61485
19.932023
19.499381
19.236864
19.088192
19.012872
18.981903
18.974165
18.977392
18.998583
19.026906
19.059018
19.094327
19.13236
19.172857
19.215723
19.260968
19.308668
19.358951
19.411989
19.468003
19.527263
19.59009
19.656861
19.72801
19.804035
19.885508
19.973093
20.067562
20.169829
20.280983
20.40234
20.535488
20.682366
20.845405
21.027723
21.23318
21.466015
21.729753
22.026496
22.365179
22.812849
23.857939
31.191797
31.326772
28.40482
25.281436
22.97111
21.41708
20.398493
19.740983
19.327723
19.07977
18.941562
18.873246
18.846371
18.840257
18.845788
18.868582
18.897293
18.929603
18.96497
19.002952
19.04332
19.085999
19.131017
19.178462
19.228466
19.281204
19.336893
19.395795
19.458225
19.524553
19.595209
19.67069
19.751565
19.838491
19.932228
20.033665
20.143862
20.264097
20.395923
20.541262
20.702516
20.882738
21.085672
21.315326
21.574889
21.866192
22.19859
22.64178
23.702468
31.311317
30.874741
27.999877
24.941779
22.687829
21.176418
20.189602
19.556141
19.161156
18.926812
18.798267
18.736296
18.712984
18.70824
18.716198
18.740189
18.769199
18.801653
18.837042
18.874949
18.915169
18.957643
19.002411
19.049571
19.099265
19.151669
19.206999
19.265514
19.32752
19.393377
19.46351
19.538408
19.618639
19.704855
19.797805
19.89836
20.007554
20.126635
20.257124
20.4009
20.560327
20.738415
20.938781
21.165175
21.420464
21.706248
22.032334
22.471233
23.549566
31.449474
30.440029
27.607547
24.612086
22.412987
20.943091
19.987069
19.376736
18.999164
18.777643
18.658068
18.601848
18.581656
18.578129
18.588511
18.613371
18.642601
18.675146
18.710514
18.748318
18.788368
18.830617
18.875113
18.921961
18.971311
19.023345
19.078282
19.136377
19.197929
19.263291
19.332875
19.407164
19.486716
19.572178
19.664289
19.763909
19.87205
19.98993
20.119039
20.261229
20.418828
20.594766
20.79252
21.015593
21.266511
21.546695
21.86647
22.301399
23.398322
31.454865
30.022983
27.227118
24.290881
22.145001
20.715723
19.789805
19.201945
18.841142
18.631825
18.520651
18.469682
18.452277
18.449883
18.462615
18.488093
18.517476
18.550058
18.585361
18.623025
18.662879
18.704883
18.749085
18.795598
18.844575
18.896207
18.950715
19.008356
19.069424
19.134261
19.203269
19.27692
19.355763
19.440439
19.531677
19.63032
19.737361
19.853997
19.981695
20.122272
20.278014
20.451773
20.646879
20.866571
21.113037
21.387552
21.701082
22.132499
23.248886
31.400018
29.62141
26.857839
23.97732
21.882839
20.493274
19.596896
19.031032
18.686526
18.488942
18.385711
18.339587
18.324736
18.323432
18.3384
18.364312
18.393793
18.42636
18.46155
18.499036
18.538661
18.580393
18.624282
18.670439
18.719023
18.770228
18.824281
18.881439
18.941993
19.006277
19.074682
19.147668
19.225775
19.309627
19.399948
19.497574
19.603484
19.718848
19.845099
19.984027
20.137881
20.309426
20.501832
20.718074
20.959999
21.228799
21.536193
21.964551
23.10327
31.466655
29.230813
26.49781
23.670372
21.625669
20.274981
19.407676
18.863451
18.534895
18.348672
18.252999
18.211396
18.198974
18.198684
18.215778
18.241988
18.271521
18.304027
18.33906
18.376323
18.415683
18.457115
18.500667
18.546451
18.594623
18.645381
18.698955
18.755605
18.81562
18.87933
18.947113
19.019415
19.096761
19.179766
19.26914
19.365707
19.47043
19.584462
19.709221
19.846468
19.998397
20.167685
20.35733
20.570037
20.807344
21.070418
21.371799
21.797546
22.96295
31.751075
28.845952
26.144125
23.368605
21.372678
20.060279
19.221719
18.698889
18.386015
18.210834
18.122386
18.085058
18.074756
18.07568
18.094659
18.121066
18.150615
18.18302
18.217857
18.254861
18.293921
18.335022
18.378215
18.423608
18.471355
18.521653
18.574731
18.630849
18.690296
18.753398
18.820531
18.89213
18.968706
19.050852
19.139257
19.234728
19.338218
19.450869
19.574073
19.709567
19.859508
20.026482
20.213304
20.422403
20.655035
20.912374
21.207893
21.6316
22.826133
31.836866
28.462911
25.793949
23.070434
21.122975
19.848622
19.038673
18.537116
18.239735
18.075325
17.993815
17.960511
17.951962
17.954437
17.974967
18.001493
18.031022
18.063292
18.097899
18.134613
18.173343
18.214087
18.2569
18.301888
18.3492
18.399029
18.451599
18.50717
18.56603
18.628502
18.694957
18.765821
18.841592
18.922847
19.010257
19.104609
19.206833
19.318054
19.439654
19.573342
19.72122
19.885785
20.069703
20.27514
20.503056
20.754655
21.044433
21.466595
22.691174
31.78797
28.080811
25.446503
22.775698
20.876681
19.640169
18.858652
18.378193
18.096074
17.94214
17.86727
17.837695
17.830611
17.834918
17.856648
17.88323
17.912707
17.944812
17.979163
18.01556
18.053933
18.094292
18.136701
18.181264
18.228129
18.277479
18.329534
18.384547
18.442805
18.504628
18.570382
18.640485
18.715423
18.795756
18.882138
18.975334
19.076259
19.186018
19.30597
19.437796
19.583552
19.745648
19.926581
20.128271
20.351416
20.597256
20.88136
21.302208
22.559217
31.94881
27.701716
25.102565
22.485138
20.63459
19.43563
18.682187
18.222461
17.955218
17.811362
17.742767
17.716584
17.710762
17.717064
17.739667
17.766254
17.795646
17.827559
17.861635
17.897698
17.935695
17.975647
18.017626
18.061742
18.108138
18.156992
18.208518
18.26296
18.320599
18.381752
18.44678
18.516096
18.590172
18.669555
18.754879
18.846894
18.946493
19.054762
19.173035
19.302961
19.446548
19.60611
19.783991
19.981866
20.200169
20.440209
20.718677
21.138378
22.431119
32.233406
27.329761
24.764065
22.199947
20.397613
19.235714
18.509779
18.070223
17.817315
17.683047
17.620302
17.597168
17.592468
17.600806
17.623995
17.65054
17.679815
17.711511
17.745295
17.781011
17.818619
17.858149
17.89968
17.943326
17.989231
18.037569
18.088547
18.142403
18.199408
18.259873
18.324151
18.392648
18.465827
18.544223
18.628459
18.719267
18.817521
18.924284
19.040865
19.168879
19.310282
19.467279
19.642039
19.836007
20.049386
20.283593
20.556459
20.975438
22.305869
32.233288
26.970049
24.434654
21.922482
20.167247
19.041352
18.341954
17.921728
17.682445
17.557182
17.499821
17.479418
17.475748
17.486071
17.509615
17.53608
17.565203
17.596656
17.630129
17.665485
17.702692
17.741787
17.782853
17.826008
17.8714
17.919202
17.969613
18.022864
18.079217
18.138975
18.202484
18.270141
18.3424
18.419786
18.502907
18.592481
18.689368
18.794614
18.909498
19.035598
19.174806
19.329216
19.500798
19.690759
19.89913
20.127483
20.39484
20.813698
22.184627
32.298287
18.17915
17.777166
17.550642
17.433723
17.381258
17.363302
17.360589
17.372781
17.396503
17.422851
17.45179
17.482974
17.516118
17.551099
17.587894
17.626543
17.667132
17.709782
17.754641
17.801882
17.851703
17.904326
17.960007
18.019038
18.081755
18.148547
18.219863
18.296216
18.378203
18.466531
18.562045
18.665773
18.778962
18.903144
19.040143
19.191936
19.360288
19.546164
19.749434
19.97191
20.233971
20.653433
22.070446
32.54143
17.24877
17.246954
17.260865
17.284629
17.310827
17.339548
17.370437
17.403229
17.437818
17.474187
17.51238
17.552483
17.594617
17.638929
17.685592
17.734802
17.786778
17.841767
17.900051
17.961959
18.027868
18.098218
18.173515
18.254351
18.341415
18.435535
18.53772
18.649201
18.771465
18.906251
19.055407
19.220486
19.402198
19.600295
19.81691
20.073934
20.495029
21.964423
32.801664
17.228463
17.259028
17.291444
17.325618
17.361542
17.399263
17.438866
17.48047
17.524221
17.570288
17.618866
17.670171
17.724446
17.781967
17.843053
17.908074
17.977457
18.051696
18.131365
18.217143
18.309848
18.410468
18.520208
18.640515
18.773054
18.919541
19.081315
19.258828
19.451699
19.662478
19.91478
20.338854
21.865892
32.939354
17.287184
17.326268
17.367325
17.410495
17.455947
17.50387
17.554478
17.608012
17.664746
17.724988
17.789101
17.857502
17.930674
18.009179
18.093678
18.184964
18.284008
18.391987
18.510307
18.640549
18.784299
18.942705
19.115961
19.303587
19.508613
19.756534
20.184966
21.775099
33.123852
17.389801
17.439692
17.492464
17.548386
17.607764
17.670949
17.738349
17.810433
17.88775
17.970949
18.060809
18.158273
18.264483
18.380798
18.508725
18.649701
18.804657
18.973569
19.155935
19.355319
19.599243
20.03346
21.693133
33.377624
17.491364
17.553613
17.620002
17.690986
17.767102
17.848985
17.937395
18.03325
18.137659
18.251936
18.377503
18.515655
18.667118
18.831666
19.008812
19.202676
19.443026
19.884712
21.624188
33.632096
17.647218
17.727783
17.81473
17.908962
18.011558
18.12377
18.246934
18.382208
18.530131
18.690289
18.862237
19.050784
19.288067
19.739486
21.581186
33.920137
17.78536
17.886138
17.996281
18.117045
18.249438
18.3938
18.54954
18.716301
18.899743
19.134598
19.598508
21.555055
34.223729
17.987758
18.117274
18.258066
18.409387
18.571014
18.749532
18.982709
19.462213
21.54106
34.586504
18.269714
18.42628
18.600134
18.832399
19.330973
21.561566
35.027713
18.45137
18.683515
19.203906
21.557433
35.501175
21.643276
36.011284
)
;

boundaryField
{
    Side
    {
        type            empty;
    }
    Inlet
    {
        type            fixedValue;
        value           uniform 60.24606;
    }
    Airfoil
    {
        type            omegaWallFunction;
        blending        binomial;
        n               2;
        value           nonuniform List<scalar> 0();
    }
    Outlet
    {
        type            inletOutlet;
        inletValue      nonuniform List<scalar> 0();
        value           nonuniform List<scalar> 0();
    }
    procBoundary5to4
    {
        type            processor;
        value           nonuniform List<scalar> 
64
(
38.842407
34.270238
30.457919
27.210528
27.210528
25.330132
24.011993
23.087094
22.443929
21.782125
21.782125
21.515181
21.350459
21.257311
21.212619
21.197503
21.035138
21.035138
21.050527
21.077717
21.110793
20.996064
20.996064
21.037811
21.082759
21.130741
21.032311
21.032311
21.086633
21.14429
21.205533
21.123152
21.123152
21.19262
21.266858
21.20016
21.20016
21.285645
21.377902
21.331993
21.331993
21.440218
21.41253
21.41253
21.541315
21.683112
21.692665
21.692665
21.866409
21.911756
21.911756
22.130733
22.227001
22.227001
22.353237
22.353237
22.67092
22.866908
22.866908
23.156536
23.156536
24.016049
24.016049
31.229477
)
;
    }
    procBoundary5to6
    {
        type            processor;
        value           nonuniform List<scalar> 
61
(
26.626038
24.11719
21.654683
19.94474
18.853308
18.853308
18.021172
17.636355
17.421752
17.312537
17.264517
17.264517
17.135759
17.134802
17.150276
17.173977
17.199992
17.199992
17.118524
17.148739
17.180756
17.214496
17.249955
17.249955
17.176126
17.214672
17.255162
17.297735
17.342553
17.342553
17.276628
17.32578
17.377769
17.432863
17.432863
17.375747
17.437035
17.502404
17.572294
17.572294
17.528042
17.607269
17.692752
17.692752
17.662394
17.761319
17.869393
17.869393
17.859079
17.985656
18.122829
18.122829
18.130387
18.281941
18.281941
18.303191
18.535868
19.081555
19.081555
21.662644
36.490706
)
;
    }
    procBoundary5to12
    {
        type            processor;
        value           nonuniform List<scalar> 
30
(
40.714498
39.930499
39.184359
38.472021
37.787708
37.127477
36.491582
35.883824
35.308874
34.768421
34.258555
33.770405
33.293241
32.817941
32.340031
31.860896
31.386895
30.926446
30.48637
30.06868
29.669983
29.283558
28.90206
28.519933
28.135235
27.750451
27.371536
27.005297
41.547427
41.547427
)
;
    }
}


// ************************************************************************* //
