/*--------------------------------*- C++ -*----------------------------------*\
| =========                 |                                                 |
| \\      /  F ield         | OpenFOAM: The Open Source CFD Toolbox           |
|  \\    /   O peration     | Version:  2506                                  |
|   \\  /    A nd           | Website:  www.openfoam.com                      |
|    \\/     M anipulation  |                                                 |
\*---------------------------------------------------------------------------*/
FoamFile
{
    version     2.0;
    format      ascii;
    arch        "LSB;label=32;scalar=64";
    class       volScalarField;
    location    "0.00052";
    object      Co;
}
// * * * * * * * * * * * * * * * * * * * * * * * * * * * * * * * * * * * * * //

dimensions      [0 0 0 0 0 0 0];

internalField   nonuniform List<scalar> 
3464
(
0.0035923579
0.0032922045
0.0030117607
0.0027536105
0.0025232249
0.0039141101
0.0035865569
0.0032849537
0.0030066301
0.0027520775
0.0025241233
0.0023209359
0.0042627945
0.0039104239
0.0035849982
0.003284163
0.0030051676
0.0027491761
0.0025199304
0.0023168117
0.0021347966
0.0011741429
0.0010945378
0.0010157486
0.00093054104
0.00084428138
0.0046354043
0.0042552305
0.0039075184
0.0035869299
0.0032878027
0.0030057228
0.0027444463
0.0025117673
0.0023078447
0.0021273659
0.0019675398
0.0012591531
0.0011741551
0.0010948377
0.0010161403
0.00093000699
0.00084310568
0.00076863819
0.0050359224
0.004622725
0.0042467338
0.003903704
0.0035874858
0.0032907241
0.0030055711
0.002740677
0.0025061763
0.0023022261
0.0021233994
0.0019658031
0.00182213
0.0016875287
0.0015636722
0.0014515042
0.0013499557
0.0012575585
0.0011729629
0.0010941843
0.0010159717
0.00092977995
0.00084249805
0.00076785435
0.00070579957
0.00065354072
0.0054861824
0.0050340735
0.0046212944
0.0042440019
0.0038991073
0.003581102
0.0032833211
0.0029997564
0.0027370251
0.0025040933
0.0023010224
0.0021225925
0.0019653027
0.0018218523
0.0016875928
0.0015633969
0.0014504085
0.0013481294
0.0012556197
0.0011711532
0.0010927685
0.0010149318
0.00092901783
0.00084174933
0.00076719239
0.00070520644
0.00065304293
0.0059653798
0.0054702866
0.0050189235
0.0046072267
0.0042324348
0.0038923304
0.0035790412
0.0032840577
0.0030001253
0.0027364102
0.0025031046
0.0023006295
0.0021228116
0.0019662676
0.0018231214
0.0016883521
0.0015635415
0.0014501755
0.0013473284
0.0012541867
0.0011692413
0.0010906432
0.0010128544
0.00092771863
0.00084104438
0.00076682583
0.00070491637
0.00065256587
0.0064932819
0.0059512594
0.0054602412
0.0050091971
0.0045964355
0.0042227727
0.0038857529
0.0035759211
0.0032830512
0.0029998012
0.002735499
0.0025011334
0.0022988402
0.0021223601
0.001966813
0.0018242161
0.0016893551
0.0015637157
0.0014492352
0.0013454289
0.0012518663
0.0011668817
0.0010884581
0.0010109446
0.00092665749
0.00084055953
0.00076654955
0.00070464378
0.00065213542
0.0070800026
0.006495329
0.0059573268
0.0054661573
0.0050145447
0.0046001289
0.0042227864
0.0038812498
0.003568381
0.0032731845
0.0029908145
0.0027291451
0.0024971528
0.0022963
0.0021188792
0.0019618784
0.0018188871
0.0016852782
0.0015609046
0.0014470039
0.0013439372
0.0012510143
0.0011662988
0.0010879208
0.0010104242
0.00092601223
0.00083960593
0.00076546004
0.00070364981
0.00065131108
0.007696461
0.0070770796
0.0064944498
0.005954989
0.0054634204
0.0050131901
0.0046000429
0.004222097
0.0038779133
0.0035622168
0.0032655172
0.0029857931
0.0027270308
0.0024963233
0.0022951281
0.0021163714
0.0019575387
0.0018138236
0.0016807718
0.0015574082
0.001444602
0.001342534
0.0012500833
0.001165575
0.001087252
0.0010098072
0.00092545867
0.00083895892
0.00076469936
0.00070274359
0.00065039521
0.0083614693
0.0076899853
0.0070726947
0.0064933088
0.0059550182
0.0054661373
0.0050140424
0.0045972192
0.0042185883
0.003874221
0.0035582713
0.0032614443
0.0029812668
0.0027222715
0.0024916382
0.0022906773
0.0021120699
0.0019533966
0.0018100987
0.0016776676
0.0015548127
0.0014423101
0.0013406167
0.0012486474
0.0011645709
0.0010865363
0.0010092411
0.00092480231
0.00083805773
0.00076368016
0.00070179289
0.00064960122
0.0090812927
0.0083541329
0.007682177
0.0070624089
0.0064807264
0.005946159
0.0054547852
0.0050035617
0.0045915381
0.0042153425
0.0038720058
0.0035563333
0.0032596355
0.0029784196
0.0027185546
0.0024882077
0.0022875191
0.0021090978
0.0019506996
0.0018075242
0.0016748639
0.0015522017
0.0014404711
0.0013393538
0.0012475914
0.0011636382
0.0010855256
0.0010081448
0.00092386115
0.0008372609
0.00076297692
0.00070103468
0.00064878966
0.0098515044
0.0090645229
0.0083409711
0.0076726539
0.0070564168
0.0064807503
0.0059441255
0.0054559766
0.005006835
0.0045931665
0.0042147223
0.0038693986
0.0035509199
0.0032534642
0.0029743338
0.0027166957
0.0024869951
0.0022856642
0.0021064388
0.001947296
0.0018041659
0.0016724622
0.0015504342
0.0014390662
0.0013382149
0.0012466492
0.0011628376
0.0010847409
0.0010073052
0.00092307068
0.00083643487
0.00076218957
0.00070029207
0.00064809867
0.00060372631
0.010673297
0.009822899
0.009044871
0.0083236407
0.0076598162
0.0070480931
0.0064776286
0.0059431181
0.0054552269
0.0050075326
0.004594095
0.0042134366
0.0038649495
0.0035432841
0.0032450333
0.0029674259
0.0027127137
0.0024856039
0.0022853417
0.0021057898
0.0019457283
0.0018019255
0.001670508
0.0015487828
0.0014373071
0.0013364382
0.0012450714
0.0011615049
0.0010835378
0.0010061882
0.00092218067
0.00083567455
0.00076150253
0.00069959713
0.00064744732
0.00060316678
0.00056136969
0.011541395
0.01064852
0.0098034211
0.0090264178
0.0083071068
0.00764459
0.0070349112
0.006466801
0.0059346147
0.0054486282
0.0050020205
0.0045891253
0.0042086709
0.0038596037
0.0035372171
0.0032390376
0.0029625284
0.0027093887
0.0024831178
0.0022829324
0.0021036408
0.0019438868
0.0018002936
0.0016691028
0.0015473951
0.0014356143
0.001334562
0.001243237
0.0011597908
0.0010819945
0.0010048552
0.00092112592
0.00083483444
0.00076080659
0.00069892529
0.00064675456
0.00060244175
0.0005606205
0.00051846853
0.012256244
0.011543665
0.010654714
0.0098132069
0.0090319837
0.0083097769
0.0076463178
0.0070354926
0.0064607933
0.005925645
0.005439536
0.0049908968
0.004577001
0.004198482
0.0038526172
0.0035333553
0.0032354768
0.0029572308
0.002701886
0.0024745882
0.0022755605
0.0020979374
0.0019401826
0.0017982449
0.0016677201
0.0015460249
0.0014337948
0.0013324088
0.0012412576
0.0011581325
0.0010809261
0.0010042893
0.00092017408
0.00083345623
0.00075939033
0.00069794655
0.00064612451
0.0006018646
0.00055995676
0.00051777741
0.00047545363
0.0075385468
0.011624024
0.012234484
0.011524528
0.010636924
0.0097970586
0.0090203315
0.0082933282
0.0076294388
0.0070180514
0.0064433915
0.0059099043
0.0054266312
0.004978628
0.0045652429
0.0041891419
0.0038461837
0.0035302515
0.0032345617
0.0029567327
0.0027003069
0.0024717156
0.0022721654
0.0020948515
0.0019377112
0.0017961844
0.0016654801
0.0015436781
0.0014317751
0.0013306178
0.0012394275
0.0011561888
0.0010789069
0.0010023561
0.00091880515
0.00083250735
0.00075860485
0.00069716979
0.00064532125
0.00060100337
0.00055913537
0.00051704086
0.00047482851
0.00043668021
0.0004028121
0.0075066266
0.011581465
0.012190985
0.011482117
0.010599959
0.0097583061
0.0089880674
0.0082684284
0.0076109069
0.0070025338
0.0064347887
0.0059037489
0.0054191672
0.0049741698
0.0045633649
0.0041861808
0.0038423184
0.0035257755
0.0032301614
0.002953749
0.0026997442
0.0024734434
0.002274716
0.0020961472
0.0019366183
0.0017934357
0.0016625538
0.0015412388
0.0014301483
0.0013294774
0.001238204
0.0011548535
0.00107708
0.0010001273
0.00091726461
0.00083188908
0.00075830309
0.00069661609
0.00064449464
0.0006000649
0.00055831607
0.00051640077
0.00047433014
0.00043617447
0.00040234507
0.00037165142
0.00034506827
0.00032193248
0.00030131662
0.0075037364
0.0115773
0.012186701
0.011478151
0.010592163
0.0097546932
0.0089782304
0.0082607926
0.0076017797
0.0069932446
0.0064234169
0.0058924263
0.0054098968
0.0049649409
0.0045545726
0.0041794957
0.0038372983
0.0035215164
0.0032266064
0.002950456
0.0026959449
0.0024692102
0.0022702714
0.0020923939
0.0019339132
0.0017914007
0.0016604629
0.0015390499
0.0014280487
0.0013275567
0.0012364839
0.0011533133
0.0010757708
0.00099902615
0.00091618836
0.0008308175
0.00075725396
0.00069563893
0.00064367571
0.00059939733
0.00055774297
0.00051580462
0.00047374853
0.00043560099
0.00040179161
0.00037123477
0.00034467682
0.00032154952
0.00030095232
0.00028388936
0.00026780418
0.0075201304
0.011599631
0.012207631
0.011493148
0.010606772
0.0097563393
0.0089797736
0.0082579158
0.0075965565
0.0069839277
0.0064134768
0.0058808076
0.0053962524
0.0049531517
0.0045461748
0.0041731319
0.0038328454
0.0035197096
0.0032265667
0.0029493292
0.0026923497
0.0024632663
0.0022626114
0.0020857549
0.0019291464
0.0017877003
0.0016565507
0.001535303
0.0014252201
0.0013257492
0.0012352892
0.0011524826
0.0010750927
0.00099843227
0.00091536637
0.0008297761
0.00075611934
0.0006944745
0.00064263317
0.00059858419
0.00055712167
0.00051528768
0.00047320918
0.00043508657
0.00040130987
0.00037079242
0.00034433467
0.00032123925
0.00030062565
0.00028358404
0.00026752533
0.00025039494
0.0075110463
0.011587196
0.012194935
0.011481538
0.010596639
0.0097469677
0.0089726267
0.0082522364
0.0075917539
0.0069805187
0.0064106353
0.0058783941
0.0053943168
0.0049511242
0.0045435687
0.004169909
0.0038286606
0.0035143589
0.0032206164
0.0029437878
0.002687488
0.0024590288
0.0022587165
0.0020818577
0.0019252901
0.0017841521
0.001653675
0.0015329548
0.0014232033
0.0013240661
0.0012339771
0.001151433
0.0010741691
0.00099748038
0.00091420065
0.00082850876
0.00075492336
0.00069355693
0.00064193388
0.00059796093
0.00055652489
0.00051472149
0.00047264275
0.00043458114
0.00040083278
0.00037033774
0.00034391203
0.00032088107
0.00030030075
0.00028326305
0.00026722591
0.00025012664
0.00023342411
0.00021385946
0.00018655769
0.0074906047
0.011559389
0.012167932
0.01145953
0.010578305
0.0097357518
0.0089639941
0.0082471478
0.0075904205
0.0069822021
0.0064138737
0.0058832444
0.0053997236
0.0049548064
0.0045441084
0.0041674612
0.0038236077
0.0035063864
0.0032106676
0.002934311
0.0026803604
0.0024545081
0.0022562979
0.0020792476
0.0019217878
0.0017805
0.0016511158
0.0015310897
0.0014212102
0.0013219375
0.0012321905
0.0011500941
0.0010732474
0.0009967406
0.00091323454
0.00082730187
0.00075370881
0.00069258242
0.00064118167
0.0005973353
0.00055589751
0.00051413788
0.00047209652
0.00043410684
0.00040042055
0.00036989955
0.00034350552
0.00032054875
0.00030000209
0.00028296147
0.00026693713
0.00024985846
0.00023316872
0.00021361798
0.00018635667
0.00016517662
0.00015011466
0.0074778297
0.011540881
0.012148984
0.01144338
0.010560965
0.0097253735
0.0089551004
0.0082379438
0.0075820021
0.0069752544
0.0064091097
0.0058794144
0.0053956552
0.0049512611
0.0045405932
0.0041628309
0.0038177959
0.0034994371
0.0032029511
0.002926998
0.002674457
0.002449813
0.0022523966
0.0020757025
0.0019183652
0.0017772989
0.0016485323
0.0015289995
0.0014191638
0.0013199299
0.0012304153
0.0011485518
0.0010719049
0.00099549686
0.00091190621
0.00082596039
0.00075246929
0.00069160589
0.00064040467
0.00059661385
0.00055517758
0.00051345962
0.00047146583
0.00043355607
0.0003999457
0.00036942665
0.00034302976
0.00032013854
0.00029966389
0.00028262476
0.00026662249
0.00024956971
0.00023289919
0.00021337199
0.00018615246
0.00016499255
0.00014994618
0.0074472333
0.011500224
0.012106899
0.01140229
0.010527583
0.0096869831
0.0089216436
0.0082093012
0.0075574108
0.0069542468
0.0063932004
0.0058673566
0.0053858893
0.0049460824
0.0045391474
0.0041600565
0.0038119913
0.0034911427
0.0031947877
0.0029216637
0.002672916
0.0024507233
0.002253604
0.0020764762
0.0019182232
0.0017761746
0.0016471538
0.0015276567
0.0014175817
0.0013181211
0.0012283752
0.0011463083
0.0010694317
0.00099297774
0.00091008395
0.00082496494
0.00075185897
0.0006909816
0.00063967311
0.000595774
0.00055433255
0.00051270862
0.00047088116
0.00043301394
0.00039943103
0.00036894734
0.00034256505
0.00031969477
0.0002992877
0.00028226745
0.00026629427
0.0002492771
0.00023263547
0.00021314098
0.00018596271
0.00016482424
0.00014979666
0.00013522907
0.0001216499
0.00011529427
0.0074308359
0.011477326
0.012083655
0.011381233
0.010508096
0.00967056
0.0089070585
0.0081958492
0.0075454238
0.0069428355
0.0063822786
0.005856648
0.005375239
0.0049351977
0.0045284615
0.0041510618
0.0038055562
0.0034873429
0.0031921337
0.0029186176
0.0026690443
0.0024468057
0.0022503694
0.0020736401
0.0019155926
0.0017737128
0.0016447153
0.0015253469
0.0014155653
0.0013162524
0.0012265093
0.0011444578
0.0010676099
0.0009912232
0.00090853173
0.00082372206
0.00075079735
0.00069006348
0.00063884972
0.00059494105
0.00055353509
0.00051197042
0.00047024058
0.00043240767
0.000398868
0.00036843526
0.00034208118
0.00031922934
0.00029887189
0.00028189065
0.00026595078
0.00024897127
0.00023236432
0.00021290863
0.00018577084
0.00016465804
0.00014965484
0.00013510019
0.00012152752
0.00011516374
0.0074293716
0.011474414
0.012079416
0.011375123
0.010500823
0.009660471
0.0088962156
0.0081842697
0.007531877
0.006927908
0.0063654998
0.0058396572
0.0053593165
0.0049207529
0.00451687
0.004143229
0.0038006128
0.003484688
0.0031914232
0.002918163
0.0026671201
0.0024433894
0.0022459578
0.0020697109
0.0019127773
0.0017714806
0.0016421543
0.0015226161
0.0014133364
0.0013145231
0.0012248617
0.0011427722
0.0010658511
0.00098951438
0.00090709206
0.00082263257
0.00074985178
0.00068909748
0.00063788528
0.00059397504
0.00055261749
0.00051119067
0.00046960611
0.00043179585
0.00039833381
0.00036789423
0.00034161286
0.00031878949
0.00029844767
0.00028151561
0.00026560652
0.00024866094
0.00023208604
0.00021266659
0.00018556835
0.00016447983
0.00014949906
0.00013495955
0.0001213979
0.00011503146
0.0074251627
0.011467413
0.012072382
0.011368415
0.010489954
0.0096523011
0.0088847956
0.0081735019
0.0075189087
0.0069161144
0.0063530589
0.0058270591
0.0053482716
0.0049090671
0.0045053434
0.0041354976
0.0037963067
0.0034831685
0.0031921043
0.0029185794
0.0026654493
0.0024397675
0.0022409965
0.0020650113
0.0019090085
0.0017684131
0.0016389914
0.0015195629
0.0014111508
0.0013131104
0.0012236667
0.0011416505
0.0010645595
0.00098811789
0.0009057279
0.00082138894
0.00074864984
0.0006879
0.00063688403
0.00059322107
0.00055209097
0.00051063511
0.00046900762
0.00043119777
0.00039770976
0.00036744154
0.000341181
0.00031838234
0.00029806554
0.00028116282
0.00026528152
0.00024837168
0.00023182521
0.00021244099
0.00018538184
0.00016431143
0.000149351
0.0001348308
0.00012128404
0.00011491759
0.0074037558
0.011439011
0.012043639
0.011342144
0.010465084
0.0096316342
0.0088663973
0.0081582901
0.0075065412
0.0069064994
0.0063462256
0.0058228522
0.005345086
0.0049069161
0.0045036903
0.0041330533
0.0037921498
0.0034770237
0.0031853219
0.0029128883
0.0026615639
0.0024374146
0.0022392942
0.0020627587
0.0019058666
0.0017647631
0.0016356916
0.0015167712
0.0014087718
0.0013111107
0.0012219636
0.0011402778
0.0010632142
0.00098674161
0.00090451483
0.00082037555
0.00074769841
0.00068683672
0.00063582113
0.00059227876
0.00055122472
0.00050990655
0.00046841338
0.00043065062
0.00039724173
0.00036695543
0.00034072215
0.00031796089
0.00029768887
0.0002808321
0.00026497258
0.00024808969
0.00023156311
0.00021220979
0.00018519344
0.00016414345
0.00014920449
0.00013470869
0.00012118274
0.00011482268
0.0074132313
0.011450632
0.012055039
0.011352441
0.010474299
0.00963775
0.0088705753
0.0081599628
0.007505606
0.0069028573
0.0063398458
0.0058141229
0.0053355427
0.0048967875
0.0044935389
0.0041240414
0.0037856019
0.0034730807
0.0031821295
0.0029085897
0.0026552612
0.0024294265
0.0022309363
0.0020557292
0.0019006867
0.0017611092
0.0016325709
0.0015139447
0.0014063541
0.0013091809
0.001220556
0.0011391851
0.0010625543
0.00098634788
0.00090375218
0.00081905198
0.0007462481
0.00068560866
0.00063474342
0.00059133713
0.00055047551
0.00050925426
0.00046775503
0.0004300624
0.00039666714
0.00036645883
0.00034025517
0.00031751332
0.00029727419
0.00028047375
0.00026464927
0.00024779387
0.00023128977
0.00021196348
0.0001849907
0.00016395922
0.00014904211
0.00013457417
0.00012107311
0.0074109598
0.011447187
0.012051004
0.011348268
0.010473632
0.0096332387
0.0088675593
0.0081550814
0.0075015919
0.0068963105
0.006332407
0.0058061504
0.0053263498
0.0048881248
0.0044858342
0.0041163513
0.0037786414
0.0034675531
0.0031765939
0.002902396
0.0026488809
0.002423565
0.0022261836
0.002052087
0.0018979912
0.0017589939
0.0016305861
0.0015118799
0.0014039852
0.0013066384
0.0012182795
0.0011372118
0.0010611765
0.00098552053
0.00090310122
0.0008180568
0.00074512485
0.00068455296
0.00063377059
0.00059046322
0.00054963294
0.00050853377
0.00046715908
0.00042952607
0.00039610202
0.0003659636
0.00033979951
0.00031706863
0.00029689453
0.00028012136
0.00026432741
0.00024750307
0.00023101892
0.00021171267
0.00018477786
0.00016376314
0.00014886482
0.00013442496
0.00012095473
0.0073830817
0.011409278
0.012012591
0.011313226
0.01044379
0.0096077641
0.0088476954
0.0081401188
0.0074913611
0.0068905992
0.0063305743
0.0058070061
0.0053284947
0.0048915053
0.0044889744
0.0041161584
0.0037739691
0.0034582737
0.003165522
0.002893225
0.0026434059
0.0024209753
0.0022248783
0.0020498451
0.0018942747
0.0017546839
0.0016273528
0.001509676
0.0014021524
0.0013050305
0.0012169576
0.0011361222
0.0010600565
0.00098423343
0.00090185838
0.00081697497
0.00074421911
0.00068376215
0.0006329748
0.00058962096
0.00054881849
0.0005078351
0.00046652736
0.00042898646
0.00039561822
0.00036551786
0.00033939381
0.00031668305
0.00029651935
0.00027977047
0.00026401491
0.00024721298
0.00023074434
0.00021145997
0.00018456668
0.00016356737
0.00014868254
0.00013426883
0.00012082466
0.00736474
0.011384497
0.011987989
0.011290801
0.010419364
0.0095898302
0.0088290081
0.0081241686
0.0074760132
0.0068786053
0.0063209433
0.0057992315
0.0053226244
0.0048853597
0.0044817556
0.0041095813
0.003767312
0.0034510972
0.0031589183
0.0028876774
0.0026390527
0.0024176294
0.0022219133
0.0020471555
0.0018919634
0.001752659
0.0016254994
0.0015077999
0.0014001123
0.0013029289
0.0012149396
0.0011342067
0.0010583103
0.00098266094
0.00090048196
0.00081579534
0.00074321008
0.0006829097
0.00063220797
0.00058886798
0.00054805979
0.00050711687
0.00046584489
0.00042840036
0.00039511653
0.00036504726
0.00033894107
0.00031626334
0.00029613355
0.00027939997
0.00026367632
0.00024690459
0.00023046003
0.00021120315
0.00018435032
0.00016337562
0.00014850988
0.00013411754
0.00012069233
0.0073471625
0.011359402
0.011961584
0.011265375
0.010396711
0.0095680742
0.0088087801
0.0081052598
0.0074594803
0.0068625307
0.0063052417
0.0057847984
0.0053095636
0.0048744095
0.0044730263
0.0041018964
0.0037602652
0.0034446289
0.0031532262
0.0028829495
0.0026349368
0.0024138028
0.002218173
0.0020436406
0.0018887189
0.0017495691
0.0016225356
0.0015050615
0.0013976474
0.0013006401
0.0012126946
0.001132029
0.001056146
0.00098055369
0.00089859939
0.00081430868
0.00074193384
0.00068180384
0.00063124187
0.00058790597
0.00054707902
0.00050617646
0.00046505648
0.00042766804
0.00039446905
0.00036444847
0.0003383816
0.00031573678
0.00029565319
0.00027896339
0.00026328234
0.0002465558
0.00023015117
0.00021093772
0.00018412876
0.00016318321
0.00014834342
0.00013396431
0.0073074196
0.011303524
0.011905169
0.011214901
0.010348376
0.0095263983
0.0087707897
0.0080722028
0.0074305221
0.006838024
0.0062830635
0.0057690909
0.0052983343
0.0048647536
0.0044646717
0.0040948642
0.0037537812
0.003438944
0.003149089
0.0028806475
0.002634004
0.0024133399
0.0022172585
0.0020420295
0.0018864995
0.0017468559
0.0016196347
0.0015022604
0.0013951261
0.0012982685
0.0012101974
0.0011294749
0.001053222
0.00097747183
0.0008963194
0.00081304207
0.00074108496
0.00068084449
0.00063015233
0.0005867388
0.00054594889
0.00050517016
0.00046424706
0.00042688781
0.00039377425
0.00036378493
0.00033777138
0.00031517661
0.00029513753
0.00027849882
0.00026286312
0.00024618402
0.0002298234
0.00021065909
0.0001838974
0.00016298107
0.00014816881
0.00013380261
0.0072965675
0.011287857
0.011887991
0.011195905
0.010334054
0.0095082454
0.0087533843
0.0080545946
0.0074134087
0.0068209441
0.0062677674
0.0057520993
0.005281345
0.0048505003
0.0044535693
0.0040864716
0.0037478662
0.0034348375
0.0031461382
0.0028780011
0.0026307036
0.0024093402
0.0022127661
0.0020376714
0.0018825891
0.0017433391
0.0016161686
0.0014990183
0.001392547
0.001296251
0.0012083352
0.0011277015
0.0010513761
0.0009756132
0.00089458751
0.00081155879
0.00073971621
0.00067956471
0.00062905578
0.00058578341
0.00054506606
0.00050430942
0.00046337855
0.00042609487
0.00039311087
0.00036313195
0.00033719349
0.00031463918
0.00029463307
0.00027804031
0.00026244646
0.00024581485
0.00022949117
0.00021036556
0.00018365331
0.00016276799
0.00014798094
0.00013363372
0.0072797003
0.011263925
0.011863687
0.011175274
0.010313313
0.0094918615
0.0087381899
0.0080412754
0.0074019582
0.0068108873
0.0062578158
0.0057449635
0.0052754378
0.0048436869
0.0044460659
0.0040790119
0.0037407202
0.0034282957
0.0031400366
0.0028721662
0.0026254477
0.0024048764
0.0022090063
0.0020342241
0.0018791836
0.0017399602
0.0016130008
0.0014961873
0.0013900192
0.0012939822
0.0012063039
0.0011258796
0.001049674
0.00097402548
0.00089320352
0.00081031001
0.00073854118
0.0006783449
0.00062783966
0.00058467577
0.00054413693
0.00050348564
0.00046266093
0.00042538256
0.00039238455
0.00036255514
0.00033666459
0.00031412031
0.00029417673
0.00027763106
0.00026207236
0.00024547068
0.00022917235
0.00021007392
0.0001834055
0.00016254905
0.00014778959
0.00013347018
0.0072923388
0.011281172
0.011881446
0.011192198
0.010326537
0.009502909
0.008746404
0.008046218
0.0074020443
0.0068097848
0.0062552917
0.0057364735
0.0052637977
0.0048307505
0.0044331407
0.0040686431
0.0037335502
0.0034237113
0.0031360518
0.0028662295
0.0026169853
0.0023951054
0.002199785
0.0020269221
0.0018738214
0.0017361263
0.0016096364
0.0014929497
0.0013870136
0.0012913378
0.0012041388
0.0011240701
0.0010485354
0.00097337406
0.00089217149
0.00080867618
0.00073681255
0.00067700372
0.00062681921
0.00058380712
0.00054334097
0.00050275512
0.00046193655
0.00042472246
0.00039170876
0.0003619652
0.0003361415
0.00031364458
0.0002937099
0.00027717716
0.00026166351
0.00024510733
0.00022883233
0.00020975971
0.00018314226
0.00016231102
0.00014757709
0.00013329566
0.0072940469
0.011282804
0.011882894
0.011193255
0.01032547
0.0095025191
0.008745436
0.0080448145
0.0074001472
0.0068074622
0.0062523511
0.0057329372
0.0052598538
0.0048264393
0.0044285541
0.0040638186
0.0037283575
0.0034180199
0.0031301591
0.0028603975
0.0026112075
0.0023893662
0.0021942089
0.0020219611
0.0018697703
0.001732876
0.0016069786
0.0014906009
0.0013848018
0.0012893646
0.0012025943
0.0011228534
0.0010476912
0.00097274499
0.00089134432
0.00080750383
0.0007355784
0.00067597505
0.00062594199
0.00058302947
0.00054259315
0.00050212562
0.00046130261
0.00042422083
0.00039128842
0.00036146813
0.00033565274
0.00031322801
0.00029333017
0.00027679979
0.00026130249
0.00024477615
0.00022851347
0.00020945658
0.00018288158
0.00016207251
0.00014735821
0.00013311044
0.0072617915
0.011238511
0.011837222
0.011150045
0.010290252
0.0094698072
0.0087176766
0.0080215782
0.0073825886
0.0067917446
0.0062396653
0.0057246905
0.005254439
0.0048239878
0.004426969
0.0040595874
0.0037209433
0.0034078515
0.0031190306
0.0028513719
0.002605705
0.0023866872
0.0021927582
0.0020201294
0.0018671606
0.0017297982
0.0016044221
0.0014885786
0.0013826994
0.0012871117
0.0012003725
0.001120723
0.0010455305
0.00097052278
0.00088938369
0.00080606376
0.00073448967
0.00067512132
0.00062520376
0.00058223983
0.00054175569
0.00050129672
0.00046058757
0.00042360142
0.00039070586
0.00036092689
0.00033514446
0.0003127998
0.00029297223
0.00027643279
0.00026094967
0.00024444885
0.00022820497
0.0002091715
0.00018263933
0.00016185437
0.00014715767
0.00013293507
0.0072255482
0.011188163
0.011787482
0.01110717
0.010247756
0.0094365809
0.0086855739
0.0079948698
0.0073596271
0.0067698176
0.0062189687
0.0057157632
0.0052519628
0.0048202074
0.0044217167
0.0040540543
0.0037147494
0.0034012502
0.0031126454
0.00284652
0.0026030803
0.0023854631
0.0021914923
0.0020182009
0.001864595
0.0017267551
0.0016015113
0.0014859693
0.0013801567
0.0012845796
0.0011978858
0.0011183578
0.0010431209
0.00096815204
0.00088752626
0.00080477339
0.00073343627
0.00067398778
0.00062404681
0.00058115621
0.00054076678
0.00050040709
0.00045981885
0.00042284965
0.00039004011
0.00036030438
0.00033457975
0.00031228748
0.00029249264
0.00027599065
0.00026054327
0.00024408007
0.00022787061
0.00020887673
0.00018239406
0.00016164438
0.00014697616
0.0072013195
0.011154918
0.011752442
0.011069083
0.010217212
0.0094008695
0.0086563708
0.0079704776
0.0073388235
0.0067542998
0.0062089613
0.0057073963
0.0052444949
0.0048165568
0.0044208862
0.0040515248
0.0037081368
0.003392461
0.0031051158
0.002842137
0.0026018225
0.002385418
0.0021903822
0.0020152378
0.0018602209
0.0017212289
0.0015960399
0.0014814702
0.0013770182
0.0012824503
0.001196212
0.001116936
0.001041385
0.00096608311
0.00088572049
0.00080349611
0.00073225772
0.00067264201
0.00062269498
0.00057993738
0.00053975046
0.00049950419
0.00045902062
0.00042203705
0.00038931856
0.00035967317
0.00033397924
0.00031171439
0.00029196465
0.00027552081
0.00026012083
0.00024370572
0.0002275389
0.00020858993
0.00018215316
0.00016144176
0.00014680585
0.0071759746
0.01111962
0.011715979
0.011034741
0.010186654
0.0093724134
0.0086305909
0.0079497486
0.0073213994
0.0067392269
0.0061964465
0.0056978465
0.0052368069
0.0048105423
0.0044160368
0.0040464239
0.0037018119
0.0033851266
0.0030982237
0.0028367948
0.0025984234
0.0023833942
0.0021886277
0.0020132763
0.0018576372
0.0017181456
0.0015929171
0.0014787114
0.0013745143
0.0012801498
0.0011940252
0.0011146851
0.0010390801
0.00096392045
0.00088397076
0.00080217578
0.00073110623
0.0006714885
0.00062152898
0.00057880179
0.00053869194
0.00049855445
0.00045820709
0.0004212846
0.00038862832
0.00035903157
0.00033336996
0.00031112344
0.00029144053
0.0002750576
0.00025969648
0.00024332905
0.00022720121
0.0002082937
0.00018190437
0.00016122565
0.00014661665
0.0071690992
0.011109053
0.011706217
0.011028966
0.01017843
0.0093692977
0.0086246796
0.0079389084
0.0073082187
0.0067234739
0.0061784428
0.0056802726
0.0052207794
0.0047930003
0.0043982883
0.0040337177
0.0036959659
0.0033837932
0.003097605
0.002834398
0.0025932292
0.0023765566
0.002182215
0.0020078405
0.0018535619
0.0017152527
0.0015902601
0.0014758308
0.0013718745
0.001277785
0.0011919
0.0011128633
0.0010374676
0.00096238313
0.00088245955
0.00080065172
0.00072964121
0.00067013988
0.00062035786
0.00057781547
0.00053781407
0.00049771462
0.00045735054
0.00042051798
0.00038795711
0.00035840973
0.00033279989
0.00031056862
0.00029093045
0.00027460938
0.00025928385
0.00024295469
0.00022685947
0.0002079879
0.0001816481
0.00016099914
0.007164252
0.01110096
0.011697826
0.011024612
0.010170872
0.0093662692
0.0086200419
0.007933685
0.0073013235
0.0067149858
0.0061680335
0.0056678161
0.0052069525
0.0047790759
0.0043855148
0.0040235119
0.0036893136
0.0033802694
0.0030948304
0.0028297302
0.0025858687
0.0023679812
0.0021744181
0.0020018956
0.0018492625
0.0017122685
0.0015876152
0.0014732672
0.0013694964
0.001275638
0.0011899323
0.0011110841
0.0010359493
0.00096110002
0.00088099382
0.00079897252
0.00072803524
0.00066887022
0.00061939314
0.00057696187
0.00053697466
0.00049688111
0.00045652362
0.00041978843
0.0003873009
0.00035778462
0.00033224009
0.00031004579
0.000290444
0.00027416173
0.000258873
0.00024257892
0.00022651317
0.00020767255
0.00018138341
0.0001607656
0.007146904
0.011077102
0.011673623
0.011002546
0.010150622
0.009348654
0.0086048099
0.0079202558
0.0072890122
0.006703966
0.0061589348
0.0056602702
0.0052004602
0.0047725787
0.0043789571
0.0040171231
0.0036824284
0.0033726159
0.0030870504
0.0028227454
0.0025800384
0.0023629814
0.0021698431
0.0019973285
0.0018446608
0.0017078419
0.0015837167
0.0014698231
0.0013663363
0.0012727939
0.0011874715
0.0011090098
0.0010341497
0.0009594889
0.00087956586
0.00079755663
0.00072662622
0.00066744636
0.00061803276
0.00057577894
0.00053597063
0.0004960172
0.00045574199
0.00041904623
0.00038657803
0.0003571633
0.00033168999
0.00030952665
0.00028995705
0.00027371271
0.00025846638
0.00024221186
0.00022617085
0.00020735724
0.0001811139
0.00016052227
0.0071263344
0.011048476
0.011643551
0.010971023
0.010126595
0.0093200645
0.0085823848
0.0079006628
0.0072731556
0.0066930021
0.0061515426
0.0056527268
0.0051940355
0.0047685247
0.0043751201
0.004010853
0.0036735798
0.0033626626
0.0030776385
0.0028151888
0.0025750294
0.0023600526
0.0021678152
0.0019952421
0.0018422102
0.0017051399
0.0015813338
0.0014678275
0.0013643342
0.0012707171
0.0011854308
0.0011070715
0.0010323212
0.00095774424
0.00087798055
0.00079627985
0.0007255949
0.00066657148
0.00061715689
0.00057482282
0.00053498511
0.00049511174
0.00045501079
0.00041839804
0.00038596494
0.00035659186
0.0003311495
0.00030903956
0.00028949745
0.00027325727
0.00025805402
0.00024183403
0.00022581673
0.00020702837
0.00018083291
0.0071142845
0.011031692
0.011626115
0.010954295
0.010107989
0.0093045864
0.0085672762
0.0078873512
0.0072605076
0.0066802613
0.0061396039
0.005643122
0.0051846758
0.0047584938
0.0043654283
0.0040023953
0.0036657879
0.0033544715
0.0030693499
0.0028078213
0.0025690702
0.0023550044
0.0021629916
0.0019908429
0.0018384109
0.0017018033
0.0015784192
0.0014652319
0.0013618592
0.001268343
0.0011831757
0.0011049362
0.0010303955
0.00095599039
0.00087630085
0.00079471375
0.00072421785
0.00066549397
0.00061625128
0.00057390121
0.00053404845
0.00049423171
0.00045422219
0.00041772343
0.00038531428
0.00035597669
0.00033059877
0.00030854568
0.00028904721
0.00027282821
0.00025765376
0.00024146205
0.0002254676
0.00020670545
0.00018056004
0.0070890081
0.01099742
0.011591007
0.010920771
0.010080955
0.0092764486
0.0085426732
0.007866463
0.0072437693
0.0066676973
0.0061300249
0.0056346223
0.0051775063
0.0047543134