/*--------------------------------*- C++ -*----------------------------------*\
| =========                 |                                                 |
| \\      /  F ield         | OpenFOAM: The Open Source CFD Toolbox           |
|  \\    /   O peration     | Version:  2506                                  |
|   \\  /    A nd           | Website:  www.openfoam.com                      |
|    \\/     M anipulation  |                                                 |
\*---------------------------------------------------------------------------*/
FoamFile
{
    version     2.0;
    format      ascii;
    arch        "LSB;label=32;scalar=64";
    class       volVectorField;
    location    "0.018";
    object      wallShearStress;
}
// * * * * * * * * * * * * * * * * * * * * * * * * * * * * * * * * * * * * * //

dimensions      [1 -1 -2 0 0 0 0];

internalField   uniform (0 0 0);

boundaryField
{
    Side
    {
        type            empty;
    }
    Inlet
    {
        type            calculated;
        value           uniform (0 0 0);
    }
    Airfoil
    {
        type            calculated;
        value           nonuniform List<vector> 
107
(
(1.9660152 -0.23342962 -2.2787889e-16)
(2.4171316 -0.28826699 -2.2657134e-16)
(2.0492489 -0.24606537 2.1495731e-22)
(0.81491593 -0.10275349 -4.4889505e-16)
(-0.46510781 0.050564059 2.2382327e-16)
(-1.1768791 0.13666839 -2.1256106e-22)
(-1.4641641 0.17221175 2.1220201e-22)
(-6.5592579 -0.49213258 -2.1945844e-16)
(-6.5264568 -0.49377436 1.045698e-22)
(-6.4939461 -0.49529142 1.0448895e-22)
(-6.4617141 -0.49666436 1.0949302e-16)
(-6.4299018 -0.4979226 3.7615819e-37)
(-6.3986552 -0.49907595 -6.4548746e-34)
(-6.3680103 -0.50013227 -2.1858802e-16)
(-6.339083 -0.50119287 1.5046328e-36)
(-6.3100926 -0.50271067 7.5231638e-37)
(-6.2784464 -0.50420131 2.1827482e-16)
(-6.2455995 -0.50545706 2.1819086e-16)
(-6.2126803 -0.50656808 2.1811599e-16)
(-6.1797665 -0.50754418 0)
(-6.146952 -0.50839581 1.0394564e-22)
(-6.1143157 -0.50913221 2.1794853e-16)
(-6.0819496 -0.50976406 -2.1791246e-16)
(-6.0499468 -0.51030192 2.1788619e-16)
(-6.0184616 -0.51076122 1.0388654e-22)
(-5.9875573 -0.51115115 -2.1786641e-16)
(-5.9582607 -0.5116125 2.1787225e-16)
(-5.9283305 -0.5125162 7.5231638e-37)
(-5.8958484 -0.51324116 4.1306127e-25)
(-5.8627056 -0.51377135 5.1967797e-23)
(-5.8295505 -0.51416485 -2.1803121e-16)
(-5.7965099 -0.51443546 5.199839e-23)
(-5.7636956 -0.51459574 -4.3636744e-16)
(-5.7312188 -0.51465772 2.1827844e-16)
(-5.6991979 -0.51463495 -4.3677096e-16)
(-5.6677755 -0.51454235 5.2096456e-23)
(-5.6370767 -0.51439417 -3.0092655e-36)
(-5.6075228 -0.51423135 2.1877931e-16)
(-5.5794056 -0.51430524 -4.3787108e-16)
(-5.5501201 -0.51469317 -2.1910716e-16)
(-5.5190656 -0.5148325 -2.1928995e-16)
(-5.4881453 -0.51487208 -2.1948093e-16)
(-5.4575107 -0.51482516 -5.3544624e-25)
(-5.4273128 -0.51471464 -5.2968944e-23)
(-5.3976683 -0.51455148 5.4902125e-25)
(-5.3687041 -0.51434947 2.173442e-33)
(-5.3405426 -0.51412381 2.2059937e-16)
(-5.313357 -0.51389275 2.2084825e-16)
(-5.2872213 -0.51366861 2.2110515e-16)
(-5.2630752 -0.51359135 -2.2136581e-16)
(-5.2391095 -0.51393995 1.4432466e-27)
(-5.2136993 -0.51418743 5.3391617e-23)
(-5.1883876 -0.51434328 -4.4126207e-25)
(-5.1637155 -0.51446646 -2.2250645e-16)
(-5.1398302 -0.51456917 2.2280478e-16)
(-5.1168484 -0.51467042 2.2311263e-16)
(-5.0948868 -0.51478161 2.234305e-16)
(-5.0740512 -0.51491884 -2.667392e-23)
(-5.0544918 -0.51509698 7.5231638e-37)
(-5.0362201 -0.51532191 2.244197e-16)
(-5.0201476 -0.51570471 -2.6793627e-23)
(-5.0048668 -0.51653722 2.2511082e-16)
(-4.9884686 -0.51736717 -6.153948e-33)
(-4.9720568 -0.51811192 -2.258465e-16)
(-4.9563408 -0.51884444 -2.2622736e-16)
(-4.9414095 -0.51957624 -2.2661803e-16)
(-4.9273336 -0.52031704 -2.2701861e-16)
(-4.9141702 -0.52107439 -2.2742889e-16)
(-4.9019736 -0.52185579 -1.3580914e-23)
(-4.8908325 -0.52267208 -2.2828248e-16)
(-4.8807241 -0.52352294 2.2872586e-16)
(-4.8724733 -0.52453216 -2.2918169e-16)
(-4.8644347 -0.52594851 -2.2965324e-16)
(-4.8549068 -0.52727608 2.3013785e-16)
(-4.8450981 -0.52850488 7.162052e-33)
(-4.8354827 -0.52968605 -2.3114383e-16)
(-4.8261376 -0.53082805 1.7261017e-24)
(-4.8171166 -0.53193839 -2.3220882e-16)
(-4.8084769 -0.53302427 -3.4683865e-24)
(-4.8002979 -0.53409467 0)
(-4.7926373 -0.53515754 4.0541596e-40)
(-4.7857536 -0.5362414 -2.5555004e-26)
(-4.7800374 -0.53755475 5.8554097e-40)
(-4.7732136 -0.53913789 -1.4053323e-23)
(-4.7645374 -0.54046292 1.4092208e-23)
(-4.7556782 -0.54168414 -1.4132614e-23)
(-4.7468101 -0.54282199 -2.3779923e-16)
(-4.7380875 -0.54389455 -1.4164595e-23)
(-4.7296248 -0.54491457 -1.793662e-43)
(-4.7215411 -0.54589587 -1.5046328e-36)
(-4.7140104 -0.54685806 2.4077149e-16)
(-4.7070489 -0.54780412 -2.8796263e-23)
(-4.701748 -0.54890812 2.8893526e-23)
(-4.6960874 -0.55044113 3.4971501e-28)
(-4.6880938 -0.55177249 4.2978483e-28)
(-4.6794189 -0.55293388 -2.9202757e-23)
(-4.6706654 -0.55399633 -2.9312292e-23)
(-4.6619933 -0.55497309 2.9423742e-23)
(-4.6535369 -0.55588662 5.9220127e-23)
(-4.6454172 -0.55674404 -2.4877918e-16)
(-4.6378268 -0.55757125 -5.9555994e-23)
(-4.630754 -0.5583672 2.5083607e-16)
(-4.6253724 -0.55930588 -5.9946775e-23)
(-4.619762 -0.56068555 6.0323771e-23)
(-4.6117238 -0.56188143 2.5415636e-16)
(-4.602821 -0.56288778 -6.0876185e-23)
(-4.5940088 -0.56382274 6.1160859e-23)
)
;
    }
    Outlet
    {
        type            calculated;
        value           nonuniform List<vector> 0();
    }
    procBoundary4to3
    {
        type            processor;
        value           uniform (0 0 0);
    }
    procBoundary4to5
    {
        type            processor;
        value           uniform (0 0 0);
    }
    procBoundary4to11
    {
        type            processor;
        value           uniform (0 0 0);
    }
    procBoundary4to12
    {
        type            processor;
        value           uniform (0 0 0);
    }
}


// ************************************************************************* //
