1.5 	47849.269
1.4976885 	47817.893
1.4792775 	46922.29
1.463292 	47534.957
1.44291 	47743.231
1.4182545 	47615.31
1.38948 	47190.708
1.356762 	47249.751
1.3203045 	47047.012
1.2803295 	47176.468
1.237086 	46862.065
1.1908395 	46745.473
1.1418735 	46742.905
1.0904925 	46692.361
1.037013 	46629.586
0.981762 	46557.563
0.9250845 	46485.218
0.8673255 	46428.595
0.808845 	46415.329
0.75 	46388.398
0.691155 	46303.809
0.6326745 	46201.867
0.5749155 	46118.334
0.518238 	46045.113
0.462987 	45987.871
0.4095075 	45941.009
0.3581265 	45886.53
0.3091605 	45836.76
0.262914 	45796.973
0.2196705 	45767.858
0.1796955 	45753.971
0.143238 	45765.32
0.11052 	45783.664
0.0817455 	45711.125
0.05709 	46033.817
0.036708 	46376.762
0.0207225 	46928.458
0.009234 	47900.206
0.0023115 	49277.988
