/*--------------------------------*- C++ -*----------------------------------*\
| =========                 |                                                 |
| \\      /  F ield         | OpenFOAM: The Open Source CFD Toolbox           |
|  \\    /   O peration     | Version:  2506                                  |
|   \\  /    A nd           | Website:  www.openfoam.com                      |
|    \\/     M anipulation  |                                                 |
\*---------------------------------------------------------------------------*/
FoamFile
{
    version     2.0;
    format      ascii;
    arch        "LSB;label=32;scalar=64";
    class       volScalarField;
    location    "0.023";
    object      Co;
}
// * * * * * * * * * * * * * * * * * * * * * * * * * * * * * * * * * * * * * //

dimensions      [0 0 0 0 0 0 0];

internalField   nonuniform List<scalar> 
13761
(
0.00045222141
0.0014060666
0.0024556605
0.0035969721
0.0047863764
0.0059292763
0.0069413424
0.0078028103
0.0085342238
0.0091628093
0.0097111805
0.010196587
0.010631593
0.0004620407
0.0014342365
0.0025002204
0.0036558822
0.0048568647
0.0060073944
0.0070229252
0.0078846836
0.0086142433
0.0092395301
0.0097837842
0.010264523
0.010694491
0.011083283
0.011438566
0.011766659
0.012072873
0.012361769
0.012637299
0.012902805
0.013161406
0.013415954
0.013668885
0.013922498
0.014178931
0.014440123
0.00047097119
0.0014603069
0.0025424672
0.0037132437
0.0049275223
0.0060881682
0.0071097573
0.007973743
0.0087023844
0.009324333
0.0098635082
0.010338014
0.010761092
0.011142866
0.011491504
0.011813655
0.012114921
0.012400059
0.012673061
0.012938904
0.013210868
0.013488529
0.013763695
0.014038055
0.014313139
0.01459039
0.014871215
0.015156963
0.015449021
0.015748821
0.016057874
0.016377787
0.00047912754
0.0014842857
0.0025816493
0.0037669246
0.0049943222
0.0061653271
0.0071934672
0.0080604052
0.0087891972
0.0094093645
0.0099457067
0.010420817
0.01085569
0.011258263
0.011631018
0.011979986
0.01230999
0.012624952
0.012928115
0.013222205
0.013509693
0.013792823
0.014073479
0.01435342
0.014634283
0.014917497
0.015204552
0.015496813
0.015795681
0.016102599
0.016419079
0.016746775
0.017087465
0.017443076
0.017815873
0.018208447
0.00015182898
0.00046645073
0.00080672316
0.0011738283
0.0015675473
0.0019844761
0.0024140251
0.0028378973
0.0032371254
0.0036002047
0.0039247914
0.0042141592
0.0044732745
0.0047069971
0.0049196408
0.0051146455
0.0052948447
0.0054625568
0.0056197386
0.0057676586
0.0059074294
0.0060401933
0.006166609
0.0062872793
0.006402849
0.0065135801
0.0066199321
0.0067221153
0.0068203447
0.0069148006
0.0070056287
0.0070929063
0.0071767937
0.0072572487
0.0073343272
0.0074082578
0.0074791577
0.007547239
0.0076111044
0.007655389
0.0076783888
0.007692231
0.0077041669
0.0077145201
0.0077235556
0.0077313323
0.0077378969
0.0077432072
0.0077471924
0.007749868
0.0077513165
0.0077515665
0.00015090435
0.00046353001
0.00080143826
0.001165845
0.0015565449
0.0019701022
0.0023958299
0.0028153899
0.003209962
0.0035683671
0.0038885381
0.0041738642
0.0044293394
0.0046598111
0.0048695665
0.0050620846
0.0052400804
0.0054058496
0.0055612657
0.0057076363
0.0058460539
0.0059776307
0.0061030157
0.0062227971
0.0063375978
0.0064476795
0.0065534777
0.0066551912
0.0067530262
0.0068471577
0.0069377202
0.007024791
0.0071085247
0.0071888902
0.0072659531
0.0073399425
0.0074110014
0.0074794254
0.0075443834
0.0075921001
0.0076175597
0.0076327312
0.0076458895
0.0076573923
0.0076673465
0.007675654
0.0076823142
0.0076873658
0.0076908991
0.0076930673
0.0076940657
0.0076940369
0.0076931425
0.0076913705
0.0076884978
0.0076840456
0.0076775476
0.0076690536
0.0076593046
0.0076493617
0.0076398238
0.0076303544
0.00014979358
0.00046003717
0.00079514498
0.0011563697
0.0015435381
0.0019531923
0.0023745597
0.0027892857
0.0031787391
0.0035320416
0.0038473967
0.0041283104
0.0043797881
0.0046066731
0.004813218
0.0050028892
0.005178387
0.0053419356
0.005495363
0.005639963
0.0057768567
0.0059070987
0.0060313285
0.006150118
0.0062640575
0.0063734146
0.0064786097
0.0065798387
0.0066772997
0.0067711559
0.0068615302
0.006948486
0.0070321606
0.0071125131
0.0071895938
0.0072636114
0.0073346935
0.0074031194
0.0074683411
0.0075184712
0.0075450428
0.0075598872
0.0075722292
0.007583004
0.0075923813
0.0076003472
0.0076069328
0.0076121526
0.0076160711
0.0076188521
0.0076207017
0.007621687
0.007621836
0.007620988
0.0076188541
0.0076151489
0.0076099444
0.0076038387
0.0075975611
0.0075913228
0.0075846047
0.0075766278
0.0075671419
0.0075565253
0.0075453151
0.0075339701
0.0075226856
0.00014840524
0.00045563563
0.00078715231
0.0011442635
0.0015268523
0.0019314858
0.0023473702
0.002756201
0.0031395562
0.0034868687
0.003796603
0.0040723643
0.004319174
0.0045418736
0.0047446779
0.0049310292
0.0051036781
0.0052647601
0.0054161139
0.005559016
0.0056946115
0.0058238701
0.0059473844
0.0060656828
0.0061793077
0.0062885061
0.0063936654
0.0064949786
0.006592627
0.0066867683
0.0067775194
0.0068649413
0.0069491569
0.0070301302
0.007107905
0.0071826662
0.0072545287
0.0073237488
0.0073899562
0.0074431188
0.0074714689
0.0074860588
0.0074973147
0.0075068365
0.0075148676
0.0075215138
0.0075269759
0.0075314701
0.007535198
0.0075383553
0.0075411046
0.0075434405
0.0075452522
0.0075462498
0.0075462078
0.0075451129
0.0075432387
0.0075408836
0.0075379434
0.0075338435
0.007528051
0.0075204872
0.0075115706
0.0075018307
0.0074917078
0.0074815432
0.0074712591
0.0074603356
0.0074482909
0.007435089
0.0074210739
0.00014663606
0.00044993658
0.00077672008
0.0011284476
0.0015050706
0.0019032324
0.0023121773
0.0027136934
0.0030895844
0.0034296035
0.0037324627
0.0040018536
0.004242808
0.0044601524
0.0046580783
0.0048399842
0.0050085692
0.0051659763
0.0053140121
0.0054540455
0.0055872009
0.0057144216
0.0058363258
0.0059534359
0.0060662376
0.0061749771
0.0062799792
0.0063814017
0.0064793976
0.0065740887
0.0066655679
0.0067538847
0.0068391413
0.0069213178
0.0070004656
0.0070767581
0.0071503153
0.007221392
0.0072897955
0.0073477235
0.0073809118
0.0073989235
0.0074131607
0.0074255401
0.0074362391
0.0074453185
0.007452924
0.0074592384
0.007464499
0.0074689696
0.0074727946
0.0074758663
0.0074780347
0.0074791841
0.0074794398
0.007479099
0.0074783937
0.0074772041
0.0074750466
0.0074714438
0.0074663529
0.0074600351
0.0074528047
0.0074448734
0.0074363318
0.0074271754
0.0074173053
0.0074067056
0.0073954153
0.0073833851
0.0073705341
0.007356885
0.0073424136
0.0073271754
0.00014487614
0.00044470287
0.00076787763
0.0011158461
0.0014885495
0.0018825835
0.0022871066
0.002683873
0.0030547759
0.0033897581
0.0036876991
0.0039523634
0.0041887937
0.004401829
0.0045956523
0.0047736292
0.0049384331
0.0050922208
0.0052366907
0.0053731206
0.0055025797
0.005626109
0.0057444341
0.005858167
0.0059678478
0.006073795
0.0061763497
0.0062756958
0.0063719914
0.0064653503
0.0065558462
0.0066435115
0.0067284139
0.0068105223
0.0068898692
0.0069665974
0.0070408092
0.0071127017
0.0071821148
0.0072433439
0.0072800483
0.0072998809
0.0073159345
0.0073306757
0.0073441008
0.0073561601
0.0073669394
0.0073765653
0.0073851275
0.0073926546
0.0073990751
0.0074041996
0.0074079794
0.0074105854
0.0074124323
0.0074138579
0.0074147979
0.0074147721
0.0074132118
0.0074098794
0.0074050353
0.0073991475
0.0073926424
0.0073856689
0.0073780829
0.0073697671
0.007360808
0.0073513334
0.0073412837
0.00733043
0.0073185483
0.0073054902
0.0072913515
0.0072766837
0.0072619927
0.0072475721
0.0072340165
0.00014369933
0.00044168877
0.00076376648
0.0011111757
0.0014837225
0.0018777981
0.0022823189
0.0026788215
0.0030491637
0.0033833633
0.0036803583
0.0039439411
0.004179152
0.0043908033
0.0045830523
0.0047592743
0.0049221855
0.0050739755
0.0052163569
0.0053505655
0.0054777023
0.0055988639
0.0057147607
0.0058260062
0.0059331624
0.0060365622
0.0061365896
0.0062334661
0.0063273817
0.0064184817
0.006506867
0.0065925881
0.0066757261
0.0067562575
0.0068342189
0.0069097552
0.0069829855
0.0070541644
0.0071233813
0.0071872617
0.0072286518
0.0072516914
0.0072696915
0.0072857051
0.0073000545
0.0073128909
0.0073243301
0.0073344727
0.0073433987
0.0073511548
0.00735771
0.007363014
0.0073672328
0.0073706202
0.0073733589
0.0073752767
0.0073758266
0.0073744399
0.0073709326
0.0073656956
0.0073595243
0.0073530901
0.0073466327
0.007339973
0.0073328089
0.0073250281
0.007316582
0.0073073909
0.0072974921
0.0072869273
0.0072753806
0.0072624203
0.007248236
0.007233562
0.0072187685
0.0072040673
0.0071903269
0.0071786727
0.0071694307
0.00014285871
0.00043941199
0.00076050362
0.0011073139
0.0014795414
0.0018734208
0.0022777004
0.0026737846
0.0030435832
0.0033772581
0.00367381
0.0039370524
0.0041719823
0.0043833148
0.0045751371
0.0047507772
0.0049129134
0.0050637965
0.0052052393
0.0053385755
0.0054649984
0.005585564
0.0057009217
0.0058116418
0.0059182634
0.006021086
0.0061204799
0.0062166543
0.0063097918
0.0064000386
0.0064874985
0.006572226
0.0066543086
0.0067337186
0.0068104941
0.0068847784
0.0069566794
0.007026458
0.0070943368
0.0071585722
0.0072022015
0.0072256842
0.0072431574
0.0072590134
0.0072733624
0.007286176
0.0072975446
0.0073075357
0.007316163
0.0073234596
0.0073294936
0.0073343495
0.0073382297
0.0073412286
0.0073431992
0.0073436896
0.0073422146
0.0073386838
0.0073335783
0.0073277312
0.0073218538
0.0073160484
0.007309952
0.0073031823
0.0072956076
0.0072872919
0.0072783099
0.0072688034
0.0072588983
0.0072483451
0.007236561
0.0072232901
0.0072088704
0.0071938613
0.0071787077
0.0071639583
0.0071503095
0.0071383263
0.0071283297
0.0071200623
0.0071126494
0.00014214764
0.00043719868
0.00075665485
0.0011017059
0.0014720589
0.001863915
0.0022659619
0.0026596262
0.0030269769
0.0033584047
0.003653061
0.0039148006
0.0041485981
0.0043591008
0.0045503384
0.0047255851
0.004887462
0.0050382049
0.0051795769
0.005312857
0.0054391805
0.0055595545
0.0056746408
0.0057850242
0.0058912726
0.0059936934
0.0060926679
0.0061884095
0.006281109
0.0063709195
0.0064579535
0.0065422697
0.0066239629
0.0067030071
0.0067794328
0.0068533783
0.0069249339
0.0069943345
0.0070618188
0.0071264406
0.0071721299
0.0071951293
0.0072101555
0.0072235115
0.0072356322
0.0072464909
0.0072561574
0.0072647572
0.0072724044
0.0072791635
0.0072850562
0.0072900801
0.007294274
0.0072975062
0.007299524
0.0073000408
0.0072989477
0.0072964821
0.0072931083
0.0072891824
0.0072847013
0.0072792974
0.0072727368
0.0072651765
0.0072569703
0.0072484694
0.0072398765
0.0072310577
0.007221456
0.0072104852
0.0071980799
0.0071846024
0.007170253
0.0071551435
0.0071396927
0.0071245709
0.0071104391
0.0070978698
0.0070873168
0.0070784795
0.0070704228
0.0070624234
0.00014129932
0.00043459113
0.00075213044
0.0010951207
0.0014632618
0.001852731
0.0022521647
0.0026429955
0.0030074659
0.0033361984
0.0036284969
0.003888266
0.0041204723
0.0043297451
0.0045200774
0.0046946932
0.0048562011
0.0050067594
0.0051480602
0.0052813202
0.0054075933
0.0055278406
0.0056427336
0.005752874
0.0058588378
0.0059609399
0.0060595793
0.0061549743
0.0062473292
0.0063368052
0.0064235178
0.006507537
0.0065889682
0.0066677984
0.0067440774
0.0068179603
0.0068895627
0.006959151
0.0070270382
0.0070928379
0.0071424732
0.0071676777
0.0071827393
0.0071952441
0.0072060209
0.0072152707
0.0072232097
0.0072300126
0.0072358509
0.0072409444
0.0072454649
0.0072494122
0.0072526913
0.0072550624
0.0072563231
0.0072564232
0.0072555492
0.0072540176
0.0072519666
0.0072491405
0.007245081
0.0072395092
0.0072326701
0.0072251329
0.0072173601
0.0072095896
0.0072017187
0.0071931736
0.0071832066
0.0071716722
0.0071590802
0.0071458024
0.0071315774
0.0071162257
0.0071002732
0.0070847171
0.0070704617
0.007057913
0.0070471118
0.0070376304
0.0070286734
0.0070196226
0.0070113163
0.007006457
0.00014057691
0.00043233981
0.0007481742
0.001089285
0.0014553734
0.0018425764
0.0022394784
0.0026275427
0.0029891677
0.0033151925
0.0036050608
0.0038627328
0.0040931837
0.0043010043
0.004490145
0.004663796
0.0048245243
0.0049743978
0.0051150699
0.005247707
0.0053733289
0.0054929018
0.0056070889
0.0057164836
0.0058216663
0.0059229629
0.0060207897
0.0061153806
0.0062069476
0.0062956662
0.006381666
0.0064650225
0.0065458464
0.0066241243
0.0066999104
0.0067733662
0.0068446131
0.0069139384
0.0069817087
0.0070479347
0.0071014076
0.0071298874
0.0071468326
0.0071610048
0.0071733719
0.0071838964
0.007192725
0.0072001039
0.0072062659
0.0072113883
0.0072155406
0.0072186532
0.0072206382
0.007221402
0.0072210701
0.0072199996
0.0072186274
0.0072171813
0.0072154279
0.0072127768
0.0072087623
0.0072033478
0.007196908
0.0071898148
0.0071822103
0.0071741507
0.0071655651
0.007156147
0.0071456375
0.0071341102
0.0071217064
0.0071082946
0.0070936425
0.0070779405
0.0070618738
0.007046328
0.0070320777
0.0070193017
0.0070078908
0.0069975026
0.0069875709
0.0069776701
0.0069686117
0.0069628165
0.0069619552
0.00013968557
0.00042963855
0.00074355272
0.0010826365
0.0014465806
0.0018314766
0.002225839
0.002611126
0.0029698864
0.0032931559
0.0035805221
0.0038359867
0.0040645067
0.0042706615
0.0044583747
0.0046308166
0.0047905019
0.0049394595
0.005079335
0.0052112909
0.005336346
0.0054554747
0.0055693184
0.0056784469
0.0057834158
0.0058845231
0.0059821541
0.0060765225
0.0061678317
0.0062562445
0.0063418826
0.0064248192
0.0065051683
0.0065829199
0.0066581234
0.0067309343
0.0068014639
0.0068699742
0.0069367956
0.0070020652
0.0070571432
0.0070863991
0.0071020238
0.0071147148
0.0071262503
0.0071366072
0.0071458043
0.0071538871
0.0071609211
0.0071669622
0.0071719538
0.0071757561
0.0071783858
0.0071799987
0.0071809245
0.0071814821
0.0071817453
0.0071814219
0.007179934
0.0071768167
0.007172102
0.0071662056
0.0071595904
0.0071524816
0.0071448785
0.0071367461
0.007128013
0.0071185656
0.007108264
0.0070968988
0.0070842278
0.0070702253
0.0070551933
0.0070395038
0.0070235401
0.0070078736
0.0069932486
0.006980046
0.0069682298
0.0069572935
0.0069466322
0.006935925
0.0069260094
0.006919205
0.006917084
0.0069178151
0.00013898949
0.00042748531
0.00073979995
0.0010771397
0.0014391837
0.0018219817
0.0022139934
0.0025966815
0.0029527321
0.0032733904
0.0035583672
0.0038117094
0.0040383639
0.0042428839
0.0044291603
0.0046003107
0.0047588237
0.0049067192
0.0050456309
0.0051767215
0.0053009942
0.0054194167
0.0055326226
0.005641171
0.0057456169
0.0058462597
0.0059434921
0.0060375363
0.0061285941
0.0062168299
0.006302368
0.0063852789
0.0064656677
0.0065435168
0.0066188678
0.0066918679
0.0067626167
0.0068313576
0.0068983979
0.0069639414
0.0070215919
0.0070534119
0.0070691375
0.0070810826
0.0070917087
0.0071011348
0.0071095307
0.0071170313
0.0071236474
0.0071293243
0.0071340295
0.0071378157
0.0071409237
0.0071435946
0.0071459669
0.0071478767
0.0071488213
0.0071481776
0.0071455302
0.0071409788
0.0071350987
0.0071285004
0.0071215777
0.0071144461
0.0071070198
0.0070991349
0.0070906125
0.0070812899
0.0070709735
0.007059413
0.0070465293
0.0070325136
0.0070176172
0.0070019882
0.0069859064
0.0069699406
0.0069550029
0.0069416868
0.0069297835
0.0069184398
0.006906966
0.0068953245
0.0068846392
0.0068770304
0.0068737179
0.0068729991
0.0068724918
0.0068746464
0.00013808558
0.0004247648
0.00073517263
0.0010705118
0.0014304453
0.0018109756
0.002200474
0.0025803983
0.0029335915
0.003251489
0.00353393
0.003785
0.0040096434
0.0042123776
0.0043970643
0.0045668126
0.0047240891
0.0048708827
0.0050088037
0.0051389885
0.0052624508
0.0053801518
0.0054927071
0.0056006752
0.0057045959
0.0058047624
0.0059015611
0.0059952045
0.0060858939
0.0061738009
0.0062590535
0.0063417295
0.0064219455
0.0064996974
0.0065750423
0.0066481373
0.0067190954
0.0067881762
0.0068557047
0.0069219914
0.0069829126
0.0070195775
0.0070382729
0.0070523543
0.0070648387
0.0070756862
0.0070849651
0.0070928058
0.0070993088
0.0071045335
0.0071085317
0.0071114531
0.0071136186
0.0071152364
0.0071163189
0.0071165925
0.0071156207
0.0071131232
0.0071091976
0.0071043007
0.0070989144
0.0070931417
0.0070868023
0.0070796972
0.0070717702
0.0070631135
0.0070538553
0.0070440202
0.0070334715
0.0070219616
0.0070092819
0.0069953007
0.0069801864
0.0069644006
0.0069483779
0.0069325094
0.0069174853
0.0069038195
0.0068913568
0.0068793395
0.0068670784
0.00685464
0.0068432693
0.0068349169
0.006830525
0.0068284923
0.006826811
0.0068277755
0.0068373785
0.00013742269
0.00042269383
0.00073152546
0.0010651211
0.0014231328
0.0018015171
0.0021885927
0.0025658343
0.0029162179
0.0032313788
0.0035112874
0.0037600615
0.0039826401
0.0041835246
0.0043665397
0.0045347646
0.004690647
0.0048361457
0.0049728592
0.0051019231
0.0052243298
0.005341039
0.0054526726
0.0055597784
0.0056629001
0.0057623333
0.0058584573
0.0059514851
0.0060416161
0.0061290148
0.0062138077
0.0062960706
0.0063759137
0.006453338
0.0065283996
0.0066012561
0.0066720253
0.0067409684
0.0068084178
0.0068747617
0.006937782
0.0069783323
0.0069984282
0.0070124418
0.0070246454
0.007035258
0.0070445219
0.0070525732
0.0070594293
0.0070651273
0.0070697614
0.007073424
0.0070762345
0.0070781734
0.007079096
0.0070787368
0.0070769166
0.0070738105
0.0070699126
0.0070656936
0.007061218
0.0070560547
0.0070497808
0.0070423738
0.0070341455
0.007025412
0.007016274
0.0070066796
0.0069964427
0.0069851605
0.0069723516
0.0069580145
0.0069427938
0.0069273031
0.0069116552
0.0068959905
0.0068807877
0.006866552
0.006853382
0.006840773
0.0068280217
0.006815001
0.0068030006
0.0067939763
0.0067885426
0.0067851152
0.0067822302
0.0067821374
0.0067902813
0.0068101161
0.00013658354
0.0004201518
0.0007271735
0.0010588459
0.0014148066
0.0017909698
0.002175578
0.0025500985
0.0028976674
0.0032101179
0.0034875368
0.0037340837
0.0039546783
0.0041537812
0.0043351959
0.0045019749
0.0046565353
0.0048008131
0.0049363942
0.0050643999
0.0051858308
0.0053016404
0.0054124389
0.0055187799
0.0056211942
0.0057199705
0.0058154876
0.0059079601
0.005997585
0.0060845211
0.0061688912
0.0062507677
0.0063302553
0.0064073438
0.0064820823
0.0065546169
0.0066250536
0.0066936379
0.006760684
0.0068266209
0.0068904574
0.0069338041
0.0069542748
0.0069674277
0.0069789588
0.0069892102
0.0069983683
0.0070066264
0.007014118
0.0070208969
0.0070269408
0.0070321689
0.0070364838
0.0070395935
0.0070411605
0.007040973
0.0070391556
0.0070362221
0.007032703
0.0070287093
0.0070238999
0.0070178643
0.0070107264
0.0070030554
0.0069952474
0.0069872218
0.0069787092
0.0069695622
0.0069595229
0.0069481031
0.0069351564
0.0069211449
0.0069064244
0.0068909642
0.0068749037
0.0068588933
0.0068435586
0.0068291933
0.0068156647
0.0068025404
0.0067892139
0.0067755089
0.006762792
0.0067530487
0.0067467153
0.0067420562
0.0067380032
0.0067369488
0.0067437674
0.0067619034
0.0067856865
0.00013592513
0.00041808707
0.00072351982
0.0010534212
0.0014074214
0.0017813912
0.0021635239
0.0025353206
0.0028800655
0.0031897852
0.003464694
0.0037089872
0.003927571
0.0041248865
0.0043047047
0.0044700398
0.0046233002
0.0047663961
0.0049008938
0.0050279244
0.0051484717
0.0052634774
0.0053735501
0.0054792248
0.0055810293
0.0056792555
0.0057742749
0.0058662943
0.0059555103
0.0060420857
0.0061261381
0.0062077411
0.0062869985
0.0063638992
0.0064384894
0.0065109058
0.0065812462
0.0066497474
0.0067167161
0.0067826155
0.0068471408
0.0068939587
0.0069161385
0.0069298606
0.0069421049
0.0069533121
0.0069634279
0.006972392
0.0069801694
0.0069868098
0.0069923528
0.0069967334
0.0069998691
0.0070016092
0.0070019389
0.0070010795
0.0069994736
0.0069975402
0.0069952434
0.0069920509
0.0069874572
0.0069814729
0.0069746406
0.0069673986
0.0069596707
0.0069512813
0.00694233
0.0069328875
0.0069225229
0.006910877
0.0068981858
0.0068846956
0.006870126
0.0068544263
0.0068381935
0.0068223033
0.0068071547
0.0067927392
0.0067787989
0.0067649862
0.0067509852
0.0067367391
0.0067234526
0.0067130559
0.0067059389
0.0067001233
0.0066947883
0.0066926953
0.006698244
0.0067146657
0.006736857
0.00013488543
0.00041500426
0.00071835662
0.0010461361
0.0013979542
0.0017696254
0.002149259
0.0025183542
0.0028603463
0.003167444
0.0034399747
0.0036821496
0.003898867
0.0040945379
0.0042728911
0.0044369212
0.004589009
0.004731038
0.0048645658
0.0049906983
0.0051104054
0.0052246284
0.0053339681
0.0054389598
0.0055401254
0.0056377586
0.0057322278
0.0058237439
0.0059125051
0.0059986726
0.0060823697
0.0061636717
0.0062426853
0.006319405
0.0063938789
0.0064662522
0.0065366283
0.0066052503
0.0066724395
0.006738699
0.0068041519
0.0068551892
0.0068800003
0.0068943466
0.0069064116
0.006916873
0.0069258501
0.0069335149
0.006939983
0.0069453231
0.0069495558
0.0069526668
0.0069547216
0.0069558488
0.0069563857
0.006956735
0.0069570795
0.006957143
0.0069562148
0.0069536435
0.0069494046
0.0069439725
0.0069377595
0.0069307466
0.0069228404
0.0069143659
0.0069056583
0.0068964657
0.0068862152
0.0068747387
0.0068621615
0.0068484171
0.0068335299
0.0068180004
0.0068023049
0.0067866687
0.006771205
0.0067561917
0.0067415552
0.0067270172
0.0067125066
0.006697995
0.0066843682
0.0066732763
0.0066652308
0.0066584005
0.0066519918
0.0066489542
0.0066534182
0.0066681937
0.0066887359
0.0067058241
0.00013417947
0.00041280274
0.00071448804
0.001040432
0.0013902308
0.0017596619
0.0021367985
0.0025031648
0.0028423426
0.0031467416
0.0034168058
0.0036567753
0.0038715246
0.0040654404
0.0042422274
0.0044048491
0.0045556629
0.0046965351
0.0048289939
0.0049541424
0.0050729425
0.0051863184
0.0052948644
0.0053991202
0.0054996018
0.0055965933
0.0056904623
0.005781419
0.0058696592
0.0059553409
0.006038585
0.0061194692
0.006198097
0.0062744669
0.0063486318
0.0064207358
0.0064908869
0.0065593301
0.0066263959
0.0066925996
0.0067583067
0.0068128038
0.0068399934
0.0068545327
0.0068661889
0.0068761952
0.0068847313
0.0068920022
0.0068982271
0.0069035867
0.0069081276
0.0069118251
0.0069147923
0.0069172145
0.0069193318
0.0069211845
0.006922421
0.0069224063
0.0069205924
0.0069169525
0.0069120276
0.0069063566
0.0069000797
0.0068931491
0.0068856875
0.0068779009
0.0068696362
0.0068605161
0.0068503942
0.0068392204
0.0068267402
0.0068128165
0.0067978905
0.0067825473
0.0067668885
0.0067509699
0.0067351669
0.0067198975
0.0067050362
0.0066901874
0.0066752168
0.0066602255
0.0066461261
0.0066343331
0.0066254424
0.0066177897
0.0066104072
0.0066062644
0.0066095995
0.0066228176
0.0066417001
0.0066575162
0.0066662321
0.00013345808
0.00041058044
0.00071060801
0.001034722
0.0013825098
0.0017497122
0.0021243422
0.0024879612
0.0028243263
0.0031260266
0.0033936129
0.0036313593
0.0038441313
0.0040362865
0.0042114993
0.0043727096
0.0045222463
0.0046619553
0.0047933562
0.0049175346
0.0050354385
0.0051479898
0.0052557873
0.0053593522
0.0054591971
0.0055556103
0.0056489506
0.0057394298
0.0058272384
0.0059125343
0.0059954382
0.006076022
0.0061543885
0.006230533
0.0063045058
0.0063764454
0.0064464587
0.0065147888
0.0065817559
0.0066478686
0.0067136143
0.0067710504
0.0068008758
0.0068157725
0.0068274144
0.0068377329
0.0068469053
0.00685504
0.0068621236
0.0068681297
0.0068730967
0.0068771325
0.0068804799
0.006883344
0.006885795
0.0068875789
0.0068881954
0.0068872535
0.006884762
0.0068811021
0.006876684
0.006871562
0.0068655851
0.0068587579
0.006851217
0.006842962
0.0068338702
0.0068240663
0.0068137443
0.0068026549
0.0067903152
0.0067766397
0.0067619534
0.0067465883
0.0067307647
0.0067148372
0.0066991088
0.0066837322
0.0066685705
0.0066532172
0.0066376066
0.0066221386
0.0066077837
0.0065955578
0.0065858195
0.0065772435
0.0065689963
0.0065637846
0.0065659738
0.0065778336
0.0065951981
0.0066098874
0.0066175375
0.0066215556
0.00013263528
0.00040804274
0.00070619897
0.0010283019
0.0013739248
0.0017387723
0.0021108272
0.0024716778
0.0028052285
0.0031042552
0.0033694116
0.0036049939
0.0038158448
0.0040062874
0.0041799744
0.0043398146
0.0044881155
0.0046267136
0.0047571047
0.004880369
0.0049974576
0.005109267
0.005216384
0.0053193313
0.0054186118
0.0055145146
0.0056073961
0.0056974607
0.0057849007
0.005869872
0.0059524932
0.0060328352
0.0061110014
0.0061869881
0.0062608416
0.0063326995
0.0064026649
0.0064709741
0.0065379369
0.0066040426
0.0066698206
0.0067297981
0.0067627176
0.0067782598
0.0067900368
0.0068005528
0.0068098862
0.0068181272
0.0068253464
0.0068315843
0.0068368664
0.006841284
0.0068450499
0.0068482049
0.0068505808
0.006851842
0.0068517231
0.006850302
0.0068479303
0.0068448923
0.0068411308
0.0068363041
0.006830266
0.0068232313
0.0068154563
0.0068070249
0.0067980178
0.0067885214
0.0067783733
0.0067671634
0.0067546826
0.0067411052
0.0067266535
0.006711508
0.0066958767
0.0066800176
0.006664086
0.0066482172
0.0066324365
0.0066165415
0.006600629
0.0065850075
0.0065704804
0.0065578067
0.0065472228
0.0065378013
0.0065289479
0.0065228783
0.0065238454
0.0065342725
0.0065500157
0.0065634482
0.0065699576
0.0065726874
0.0065861172
0.00013189105
0.00040576069
0.00070222968
0.0010224713
0.0013660508
0.0017286368
0.00209816
0.0024562563
0.0027869962
0.0030833308
0.0033460152
0.0035793624
0.0037882108
0.0039768639
0.0041489335
0.0043073064
0.0044542707
0.0045916602
0.0047209481
0.0048431991
0.0049593445
0.0050702719
0.0051765756
0.0052787779
0.0053773781
0.0054726625
0.0055649878
0.0056545603
0.0057415726
0.0058261827
0.0059085078
0.0059886241
0.0060666287
0.0061425218
0.0062163533
0.0062882614
0.006358352
0.0064268609
0.006494105
0.006560571
0.0066268349
0.0066896575
0.0067269009
0.0067441685
0.0067567298
0.0067679962
0.0067781485
0.006787227
0.0067952242
0.0068022091
0.0068082747
0.0068134204
0.0068175538
0.0068203833
0.0068216137
0.006821114
0.0068191089
0.0068161664
0.0068127864
0.0068090244
0.0068045364
0.0067990125
0.0067925883
0.0067856445
0.0067783731
0.0067707107
0.0067624674
0.006753426
0.006743312
0.0067319591
0.0067194502
0.0067061052
0.0066920155
0.0066771229
0.0066614405
0.0066452394
0.0066288926
0.0066126201
0.0065964948
0.0065804027
0.0065642942
0.006548309
0.0065333378
0.006520178
0.0065088955
0.0064986055
0.0064890419
0.006482161
0.0064819283
0.0064910027
0.0065053363
0.0065176601
0.0065231929
0.0065247046
0.0065366065
0.00013104673
0.00040315259
0.00069769681
0.0010158681
0.0013572214
0.0017173993
0.0020843007
0.0024396051
0.0027675287
0.0030611915
0.0033214454
0.0035526228
0.0037595372
0.0039464599
0.0041169719
0.0042739354
0.0044196254
0.00455586
0.0046840713
0.0048053225
0.0049205404
0.0050305913
0.0051360694
0.0052374914
0.0053353526
0.0054299467
0.0055216235
0.0056105958
0.0056970569
0.005781166
0.0058630446
0.0059427683
0.0060204379
0.0060960598
0.0061696887
0.0062414616
0.0063114913
0.0063800248
0.0064473886
0.0065140871
0.0065807796
0.0066461505
0.0066884897
0.006708395
0.0067223302
0.0067345798
0.0067452716
0.0067545347
0.0067624997
0.0067692482
0.0067747831
0.0067790291
0.0067818764
0.0067831503
0.0067828751
0.0067813804
0.0067792237
0.0067768975
0.0067744456
0.006771451
0.0067674542
0.0067623318
0.0067563641
0.0067498326
0.0067427223
0.0067348977
0.0067263404
0.0067170996
0.0067070498
0.0066960041
0.0066839657
0.0066711059
0.0066573002
0.0066423944
0.0066265224
0.0066101864
0.0065937931
0.0065773913
0.0065610219
0.0065445649
0.0065280682
0.0065118243
0.0064966575
0.0064832147
0.0064713801
0.0064603109
0.0064500517
0.0064423881
0.0064409024
0.0064484954
0.0064614048
0.0064726412
0.0064773201
0.0064776586
0.0064880837
0.0065198794
0.00013029771
0.00040085398
0.00069369305
0.001009986
0.0013492807
0.0017071834
0.0020715592
0.0024241285
0.002749274
0.0030402861
0.0032981102
0.0035270944
0.0037320336
0.003917176
0.0040860823
0.004241585
0.0043859273
0.0045209163
0.0046479579
0.0047681105
0.0048822924
0.0049913496
0.0050958897
0.0051964329
0.0052934676
0.0053872826
0.0054782299
0.0055665177
0.0056523369
0.005735845
0.0058171586
0.0058963531
0.0059735261
0.0060486794
0.006121862
0.006193205
0.0062628152
0.0063309273
0.006397859
0.0064641095
0.0065303819
0.0065965719
0.0066425886
0.0066634451
0.0066769324
0.0066885937
0.0066987121
0.006707348
0.006714621
0.006720694
0.0067256603
0.006729513
0.0067323089
0.0067341608
0.0067353456
0.0067361785
0.0067367813
0.0067369433
0.0067361489
0.0067339556
0.0067303661
0.0067257002
0.0067202351
0.0067139163
0.0067065531
0.006698313
0.0066896127
0.006680563
0.0066708248
0.0066601064
0.0066483465
0.0066355451
0.0066216335
0.0066067603
0.0065912409
0.0065753126
0.0065590606
0.0065425351
0.0065258333
0.0065089849
0.0064922996
0.0064760157
0.006460644
0.006446739
0.0064342582
0.0064224455
0.0064115007
0.0064031384
0.0064005401
0.0064066808
0.0064182116
0.0064283815
0.0064321847
0.0064313496
0.0064403105
0.0064701566
0.0065022688
0.00012943595
0.00039819769
0.00068908893
0.001003301
0.0013403702
0.001695882
0.0020576757
0.0024075146
0.0027299237
0.0030183505
0.0032738265
0.0035007139
0.003703779
0.0038872469
0.0040546399
0.0042087652
0.0043518525
0.0044856826
0.0046116564
0.0047308261
0.0048441134
0.004952372
0.0050562046
0.005156116
0.0052525897
0.0053459127
0.0054364232
0.0055243285
0.0056098174
0.0056930398
0.0057741106
0.005853102
0.0059301037
0.0060051137
0.0060781755
0.006149408
0.0062189046
0.0062868849
0.0063536472
0.0064196636
0.0064856286
0.0065519894
0.0066010792
0.0066222793
0.006634328
0.0066444253
0.0066533987
0.0066614668
0.0066687437
0.0066752703
0.0066810596
0.0066861155
0.0066905262
0.0066943994
0.0066978729
0.0067008609
0.0067029072
0.0067033922
0.0067019322
0.0066987505
0.0066945359
0.0066897824
0.0066844302
0.006678159
0.0066709466
0.0066631886
0.0066550889
0.0066464071
0.0066368282
0.0066262047
0.0066144171
0.0066014601
0.0065875832
0.0065730783
0.0065578277
0.0065416256
0.0065248113
0.0065078242
0.0064908654
0.006473935
0.0064571565
0.0064406592
0.0064249218
0.0064105614
0.0063976149
0.0063852914
0.0063737739
0.0063647531
0.0063611136
0.0063657898
0.0063758892
0.0063849517
0.0063879111
0.0063860548
0.0063935808
0.0064215267
0.0064517207
0.00012868543
0.00039590714
0.00068512206
0.00099750051
0.0013325798
0.0016859001
0.0020452649
0.0023924881
0.0027122448
0.002998147
0.0032513049
0.0034760971
0.0036772847
0.00385906
0.0040249169
0.0041776376
0.0043194303
0.0044520598
0.0045769178
0.0046950542
0.0048073863
0.0049147456
0.0050177285
0.0051168477
0.0052125784
0.005305213
0.0053950968
0.0054824361
0.0055674176
0.0056501985
0.0057308943
0.0058095753
0.0058863317
0.0059611624
0.0060341055
0.0061052771
0.0061747665
0.0062427813
0.0063096096
0.0063757045