/*--------------------------------*- C++ -*----------------------------------*\
| =========                 |                                                 |
| \\      /  F ield         | OpenFOAM: The Open Source CFD Toolbox           |
|  \\    /   O peration     | Version:  2506                                  |
|   \\  /    A nd           | Website:  www.openfoam.com                      |
|    \\/     M anipulation  |                                                 |
\*---------------------------------------------------------------------------*/
FoamFile
{
    version     2.0;
    format      ascii;
    arch        "LSB;label=32;scalar=64";
    class       volScalarField;
    location    "0.005";
    object      Co;
}
// * * * * * * * * * * * * * * * * * * * * * * * * * * * * * * * * * * * * * //

dimensions      [0 0 0 0 0 0 0];

internalField   nonuniform List<scalar> 
13761
(
0.038073826
0.0382626
0.038428059
0.038570182
0.038689993
0.038786835
0.038861277
0.038914553
0.038945778
0.038955061
0.03894206
0.038906327
0.038847488
0.038765584
0.038658417
0.038526273
0.03836534
0.038171512
0.037935586
0.037634946
0.037242423
0.03673484
0.036096265
0.035322326
0.034415535
0.033378685
0.032210023
0.030901384
0.029432348
0.027767932
0.025858402
0.023628478
0.020974228
0.017786114
0.014049914
0.0099858424
0.0059085681
0.0019730536
0.035653345
0.036021647
0.03636292
0.03667703
0.036964739
0.037227061
0.037464077
0.037677002
0.037866122
0.03803208
0.038174829
0.038295423
0.038393127
0.038468527
0.038522928
0.038555382
0.038566006
0.038554451
0.038520258
0.038463067
0.038382996
0.03827775
0.038147821
0.037989375
0.037798872
0.037569001
0.037279997
0.036906154
0.036421641
0.035805237
0.035048002
0.034150037
0.033113673
0.031937779
0.030615357
0.029126881
0.027438207
0.025501361
0.023243939
0.020568838
0.017382053
0.013691367
0.0097178156
0.0057480819
0.0019201836
0.035228414
0.035594519
0.035933956
0.036246544
0.036533035
0.036794452
0.037030829
0.037243388
0.037432435
0.037598592
0.03774176
0.037863018
0.037961559
0.038037976
0.038093648
0.038127556
0.038139827
0.0381301
0.038097908
0.0380429
0.037965268
0.037862624
0.037735651
0.037580461
0.037393889
0.03716991
0.036890984
0.036533606
0.036070916
0.035477084
0.034738189
0.033851046
0.032816794
0.031634565
0.030298389
0.028789642
0.027075137
0.0251089
0.022822067
0.020125644
0.016943406
0.013304917
0.0094287047
0.0055732304
0.0018616125
0.034752986
0.035114444
0.035449584
0.035758188
0.036041011
0.036299087
0.036532424
0.036742269
0.036928913
0.037092983
0.037234357
0.03735415
0.037451503
0.03752703
0.037582179
0.037615884
0.03762829
0.037619036
0.037587651
0.037533803
0.03745775
0.037357028
0.037232489
0.037080188
0.036897219
0.036678434
0.036407916
0.036064462
0.035621455
0.035049633
0.034330172
0.033455899
0.032425986
0.031239338
0.029890869
0.028362961
0.026623661
0.02462941
0.022315777
0.019603797
0.01643683
0.012866142
0.0091041313
0.0053786822
0.001796859
0.034232747
0.034587734
0.034916783
0.035219652
0.035497102
0.035750181
0.035978876
0.036184457
0.036367207
0.036527758
0.036665968
0.03678298
0.036877891
0.036951332
0.037004805
0.037037205
0.03704869
0.037038895
0.03700735
0.036953736
0.036878365
0.03677871
0.036655761
0.03650552
0.036325262
0.036110449
0.035846319
0.035513748
0.035087216
0.034535372
0.033835106
0.032974896
0.031951158
0.030761984
0.029402866
0.027857287
0.026094897
0.024075128
0.021739207
0.019019926
0.015881875
0.012394677
0.0087590291
0.005172439
0.0017279731
0.03329922
0.033673262
0.034020428
0.034342074
0.034637947
0.034908813
0.03515573
0.03537867
0.03557892
0.035756755
0.035912809
0.036046917
0.036160245
0.036251849
0.036322367
0.036373348
0.036403643
0.036413421
0.036402307
0.036369825
0.036315662
0.03624017
0.036140767
0.03601855
0.035869475
0.035690942
0.035478843
0.035219228
0.034894683
0.034481117
0.033946223
0.03326352
0.032417161
0.031400171
0.030209157
0.028839832
0.027276852
0.025491954
0.023448354
0.021094403
0.018376766
0.015281568
0.011893223
0.0083962638
0.0049576086
0.00165673
0.032714584
0.033079285
0.033417553
0.033730775
0.034018674
0.034282018
0.034521877
0.034738202
0.034932294
0.035104417
0.035255202
0.035384466
0.035493384
0.035580976
0.035647882
0.035695683
0.035723195
0.035730584
0.035717469
0.035683363
0.035627953
0.035551622
0.035451737
0.035329481
0.03518076
0.035003065
0.034792596
0.034535955
0.034217078
0.033813317
0.033292198
0.032624885
0.031791632
0.030781753
0.02958973
0.028211085
0.026631714
0.024826004
0.022761993
0.020396753
0.017692341
0.01465545
0.01137934
0.0080282401
0.0047407702
0.0015849161
0.03171947
0.032100373
0.032454866
0.032783398
0.03308738
0.033366522
0.033621592
0.033853665
0.034062674
0.034249928
0.034415676
0.034560544
0.034684323
0.034788198
0.034871147
0.034933811
0.034977788
0.03500186
0.035006188
0.034990375
0.034953922
0.034896511
0.034818544
0.034717337
0.034594141
0.034444811
0.034266898
0.03405682
0.033801563
0.03348611
0.033089114
0.032578422
0.031923758
0.03110219
0.030099367
0.028907187
0.027520569
0.025926684
0.024103186
0.022024069
0.019656602
0.016978986
0.014015594
0.010862493
0.0076615156
0.0045259458
0.0015140193
0.031090651
0.031460109
0.031803658
0.032121758
0.032415833
0.032685577
0.032931756
0.033155446
0.033356561
0.033536413
0.033695235
0.033833643
0.033951406
0.034049706
0.034127489
0.034185384
0.034225005
0.034245097
0.034245814
0.034226741
0.034187365
0.034127358
0.034047133
0.033943964
0.033819144
0.033668483
0.033489563
0.033278951
0.033023902
0.032710196
0.03231762
0.031814593
0.03117015
0.030359025
0.029363607
0.02817309
0.026781428
0.02517706
0.023341439
0.021255453
0.018897574
0.016261416
0.013384903
0.010360573
0.00730746
0.0043184864
0.0014452579
0.03005648
0.030439584
0.030797009
0.031129049
0.031436171
0.031719809
0.031979644
0.032216437
0.032431261
0.032624012
0.032795997
0.032947431
0.033078917
0.033190199
0.033282454
0.033354592
0.033407232
0.033441986
0.033457569
0.033454119
0.033431202
0.033388286
0.03332503
0.033241848
0.033135974
0.033008727
0.032855876
0.03267502
0.032462823
0.032206743
0.031893181
0.03150289
0.031004989
0.030368361
0.029566238
0.028578404
0.027391559
0.025998567
0.024389088
0.022548711
0.020465735
0.018129923
0.015548554
0.012768106
0.0098742349
0.0069656905
0.0041188078
0.001379297
0.029003346
0.029399181
0.029769246
0.030114173
0.03043427
0.030730002
0.03100281
0.031252362
0.031479411
0.031685023
0.031869075
0.032032866
0.032176591
0.032300837
0.032405322
0.032491212
0.032557384
0.032604439
0.032633986
0.032644706
0.032636718
0.032609569
0.032562705
0.032495768
0.032409165
0.032300096
0.032169894
0.032014285
0.031830873
0.031616388
0.031358429
0.031043905
0.030654381
0.030159748
0.029529124
0.028734962
0.027755259
0.026574709
0.025185262
0.023577794
0.02174206
0.019673712
0.017372816
0.014857457
0.012178165
0.0094120912
0.0066412284
0.0039291284
0.0013166033
0.027936308
0.028343885
0.028725784
0.029082465
0.029414581
0.029722441
0.030006512
0.030268238
0.030507274
0.030724365
0.030920569
0.031095743
0.031251174
0.031387039
0.031503907
0.031601474
0.031680889
0.031741002
0.031782395
0.031806667
0.031812469
0.031799905
0.031768499
0.031717676
0.031647063
0.031557054
0.03144482
0.031311689
0.031153356
0.03096741
0.030750613
0.030490677
0.030174901
0.029785581
0.02929338
0.028667934
0.027881509
0.026911077
0.025740029
0.024359696
0.022762226
0.020941296
0.018899179
0.016644601
0.014203049
0.011626245
0.0089816902
0.0063379249
0.003750589
0.0012570666
0.027278365
0.0276712
0.028038921
0.02838201
0.028701127
0.028996588
0.029268858
0.029519382
0.029747804
0.029954859
0.030141594
0.030307847
0.030454892
0.030582886
0.030692381
0.030783049
0.030856024
0.030910128
0.030945926
0.030965003
0.030965988
0.030948966
0.030913443
0.030858826
0.030784724
0.030691522
0.03057636
0.030440564
0.030279791
0.030091615
0.029872811
0.029611176
0.029294342
0.028905237
0.02841531
0.027794883
0.027016456
0.026056635
0.024898148
0.023532159
0.021952121
0.020155214
0.018149314
0.015949692
0.013586602
0.011110003
0.0085798628
0.0060545021
0.0035822503
0.0012003158
0.026206933
0.026609809
0.026987789
0.02734124
0.027670661
0.027976723
0.028259747
0.028520199
0.028759519
0.028977345
0.029174402
0.029351722
0.029509128
0.029647878
0.02976811
0.029870356
0.029954266
0.030020955
0.030069221
0.03009961
0.030113687
0.030110061
0.030088797
0.030049384
0.029991211
0.029913871
0.029817737
0.029699928
0.029561756
0.029398851
0.029208762
0.028988264
0.028725211
0.028407516
0.028018674
0.027530902
0.026915324
0.026144992
0.025196663
0.024052973
0.022705326
0.021148497
0.019382648
0.017420055
0.015280721
0.012997397
0.010618312
0.0081962445
0.0057820387
0.0034202935
0.001145831
0.025133201
0.025545598
0.025933071
0.026296239
0.026635493
0.026951342
0.027244464
0.027515179
0.02776395
0.027992213
0.028199595
0.028386811
0.02855488
0.028703611
0.028834247
0.028946909
0.029042113
0.02911949
0.029180136
0.029222832
0.029248102
0.029257494
0.029249598
0.029224458
0.029181545
0.029120227
0.02904008
0.028941456
0.028821456
0.028681372
0.028516805
0.028325272
0.028103536
0.0278395
0.027521306
0.027132964
0.026647442
0.026036715
0.025274597
0.024338348
0.023210968
0.021884438
0.020354872
0.018624951
0.016710309
0.014634148
0.012430519
0.010145203
0.0078260034
0.0055185646
0.0032635273
0.0010931846
0.024060976
0.02448176
0.024878366
0.025250669
0.025599316
0.025924712
0.026227375
0.026507983
0.026766854
0.027004442
0.027222168
0.027419645
0.027597567
0.027756934
0.027897533
0.028020585
0.028126193
0.028214853
0.02828618
0.028341254
0.028378843
0.028399459
0.028404642
0.02839297
0.028364483
0.028318644
0.028254813
0.02817256
0.028072234
0.027950917
0.02780989
0.02764473
0.027452927
0.027231221
0.026967535
0.026650207
0.026263692
0.025781654
0.025176913
0.024424139
0.023501328
0.022392084
0.021089177
0.019589957
0.017899067
0.0160346
0.014021733
0.011894905
0.0096975956
0.0074740856
0.0052665272
0.0031124969
0.0010422016
0.022991302
0.02341986
0.023824403
0.024205421
0.02456283
0.024897306
0.025209273
0.025499265
0.02576797
0.026015706
0.026242923
0.026451035
0.02663964
0.026809416
0.026961338
0.02709517
0.027212103
0.027312209
0.027395949
0.027462907
0.027514126
0.02754834
0.027566024
0.027568688
0.027554883
0.027524619
0.027477336
0.027412381
0.027329306
0.027228452
0.027106892
0.026965904
0.026801036
0.026609751
0.026388761
0.026125973
0.025809884
0.025425395
0.024946825
0.024347866
0.02360415
0.022694582
0.021603621
0.020324945
0.018857065
0.017206146
0.015391995
0.013440989
0.011387239
0.0092727588
0.0071382519
0.0050232726
0.0029648606
0.00099168234
0.021911797
0.022345339
0.022755506
0.023142188
0.023505917
0.023846643
0.024165065
0.024461627
0.024736876
0.024991507
0.025225847
0.025440345
0.025636408
0.025813636
0.025972698
0.026114562
0.026238986
0.02634715
0.026439122
0.026515355
0.026575433
0.026620388
0.026648958
0.02666162
0.026659865
0.026642252
0.026608796
0.026558939
0.026492028
0.026407618
0.026306042
0.026184387
0.026043896
0.025880118
0.025690466
0.025471599
0.025211444
0.024898618
0.02451838
0.024045731
0.023455262
0.022723615
0.02183077
0.020762233
0.019512757
0.018082036
0.016477578
0.014720428
0.012837471
0.010862578
0.0088351426
0.0067938381
0.0047756981
0.002814603
0.0009400769
0.020835228
0.021272314
0.021686337
0.022077462
0.022445631
0.022791415
0.023114799
0.023416509
0.023697012
0.02395687
0.024196789
0.024417105
0.024618274
0.024801693
0.024966974
0.025114779
0.025246063
0.025360589
0.025459517
0.025542909
0.025611208
0.025663997
0.025702288
0.025724831
0.025732081
0.025725502
0.025703671
0.025666585
0.025613688
0.025544328
0.025458058
0.025355188
0.025232829
0.025092171
0.024928773
0.024740003
0.024522447
0.024264097
0.023953698
0.023576876
0.023109392
0.022526854
0.02180711
0.020931394
0.019886503
0.01866841
0.017278053
0.015724121
0.014028429
0.012218172
0.010325726
0.0083890872
0.006443707
0.0045240106
0.0026635089
0.00088880385
0.020209048
0.020626058
0.021020462
0.021392483
0.021742113
0.022069963
0.022376059
0.022661152
0.022925734
0.023170384
0.023395818
0.023602383
0.023790543
0.02396168
0.024115416
0.024252404
0.024373586
0.024478721
0.024568943
0.024644309
0.024705242
0.024751322
0.024783528
0.024800618
0.024803029
0.024792183
0.024766665
0.024726463
0.024671011
0.024599655
0.024511936
0.024408142
0.024285406
0.024144858
0.023982069
0.023794361
0.02357824
0.023321774
0.023013841
0.022640438
0.022178144
0.021603647
0.02089605
0.020037964
0.019017564
0.017832099
0.016483715
0.01498205
0.013349361
0.01161222
0.009802296
0.0079549163
0.006103798
0.0042813751
0.0025174415
0.00083896663
0.019158966
0.019578234
0.019975204
0.020350061
0.020703081
0.021034311
0.0213444
0.021633414
0.021902129
0.022151058
0.022380797
0.02259207
0.022785232
0.022960748
0.023119985
0.023262571
0.02338915
0.023500637
0.023596793
0.023678722
0.023746468
0.023800434
0.023840191
0.023866693
0.0238787
0.023876626
0.023861855
0.023832978
0.023789973
0.023732267
0.023659204
0.023570318
0.023465871
0.02334302
0.023202834
0.023040896
0.022854479
0.022640016
0.02238565
0.022080414
0.021710686
0.021253867
0.020687742
0.019992711
0.019152803
0.018157569
0.017005506
0.015699835
0.014250998
0.012681417
0.011017387
0.0092888223
0.0075296922
0.0057709355
0.0040427221
0.002374571
0.00079060043
0.018125263
0.018545826
0.01894476
0.019321861
0.019677374
0.020011631
0.020324729
0.020617353
0.020889608
0.021142291
0.021375933
0.021591143
0.021788649
0.02196881
0.022132092
0.022279839
0.022411687
0.022528261
0.022630455
0.022718024
0.022792042
0.022852538
0.022899897
0.022933683
0.022954812
0.022962061
0.022955816
0.022937416
0.022905471
0.022859937
0.022800245
0.022725734
0.022635931
0.022531072
0.022408343
0.022268744
0.02210788
0.021922972
0.02171038
0.021458348
0.021156055
0.020790279
0.020339268
0.019781923
0.019099968
0.018278832
0.017309479
0.016191603
0.014929446
0.013534087
0.012027935
0.010436573
0.0087889248
0.0071164471
0.0054485332
0.0038132316
0.0022368815
0.00074378254
0.017110461
0.017531563
0.017931617
0.01831047
0.01866799
0.01900448
0.019320322
0.019615663
0.019891219
0.02014713
0.02038421
0.020603006
0.020804134
0.020988323
0.021155935
0.02130743
0.021444127
0.021565667
0.021672657
0.021765966
0.021845343
0.021911827
0.021965435
0.022006531
0.022034672
0.022050742
0.022053525
0.022043386
0.02202162
0.021986849
0.021939018
0.021877554
0.021801797
0.02171127
0.021606178
0.021483745
0.021344899
0.021185268
0.021002018
0.020791445
0.020541899
0.020242733
0.019881129
0.019436213
0.018888033
0.018219617
0.01741783
0.016475
0.015391952
0.014173823
0.012832163
0.011389164
0.0098696598
0.0083010907
0.0067135514
0.0051339721
0.0035885556
0.0021028582
0.00069857324
0.016116544
0.016537586
0.016938113
0.017317981
0.017677111
0.018015436
0.018333319
0.018631187
0.018909231
0.019168195
0.019408251
0.019630225
0.019834677
0.020022224
0.020193594
0.020349147
0.020489337
0.020615453
0.02072714
0.020824984
0.020909827
0.020981413
0.021040745
0.021087826
0.021122995
0.021145808
0.021157111
0.021155704
0.021141922
0.021117018
0.02107963
0.021029687
0.020966615
0.020889752
0.020798611
0.020693374
0.020571294
0.020433223
0.020274829
0.020093224
0.019884641
0.019637574
0.019341566
0.01898423
0.018545584
0.018006823
0.017352301
0.016570263
0.015654372
0.014606506
0.013432585
0.012144527
0.010764188
0.0093155789
0.0078248645
0.0063202846
0.0048272552
0.0033703995
0.0019731516
0.0006549944
0.015145378
0.015565506
0.015966003
0.016346332
0.016706424
0.017046272
0.017365874
0.017665643
0.01794605
0.018207326
0.018450238
0.018674987
0.018882405
0.01907306
0.019247571
0.019406657
0.019550677
0.019680074
0.019796105
0.019898419
0.01998758
0.020064399
0.020128616
0.020181196
0.020222129
0.020251732
0.020269557
0.02027641
0.020271108
0.020253963
0.020226177
0.02018641
0.020134574
0.020070093
0.019992308
0.019900725
0.019795497
0.019673916
0.019536755
0.019379713
0.019199863
0.018993376
0.018748906
0.018456202
0.018103332
0.017671236
0.017142269
0.016502102
0.01574036
0.014851968
0.013839796
0.012710459
0.011476091
0.010158102
0.008779539
0.0073652197
0.0059415711
0.0045325435
0.0031611855
0.0018488896
0.00061325511
0.014198124
0.014616903
0.015016609
0.015396979
0.015757562
0.016098363
0.016419442
0.016720859
0.017003071
0.017266589
0.01751168
0.017739129
0.017949162
0.018142613
0.018320055
0.018482106
0.018629473
0.01876251
0.018881648
0.018988113
0.019081553
0.01916251
0.019231766
0.019289054
0.019335304
0.019370492
0.01939491
0.019408108
0.019410859
0.019401991
0.019381797
0.019351428
0.019309566
0.019256113
0.019190491
0.019112042
0.019020267
0.01891529
0.018794443
0.018658422
0.018502962
0.018325091
0.018120929
0.017879307
0.017590209
0.017242169
0.016817068
0.016298417
0.015673184
0.014932322
0.014071996
0.013095948
0.01201136
0.010830486
0.0095741605
0.0082644436
0.0069246859
0.0055798586
0.0042517884
0.0029618073
0.0017302945
0.00057329368
0.013692648
0.014091202
0.014470933
0.01483166
0.015173014
0.01549507
0.01579795
0.016081771
0.016347033
0.016594278
0.016823806
0.017036417
0.017232355
0.017412456
0.017577292
0.017727475
0.017863702
0.017986319
0.018095743
0.018193165
0.018278233
0.018351469
0.018413622
0.01846442
0.018504756
0.018534593
0.018554202
0.018563129
0.018562111
0.018549996
0.018527049
0.01849438
0.018450687
0.018395863
0.01832933
0.018250435
0.018158675
0.018054144
0.017934216
0.017799509
0.017645798
0.017470075
0.017268424
0.017029864
0.016744639
0.01640177
0.015984082
0.01547625
0.014866503
0.014147069
0.013315246
0.012375571
0.011335705
0.010207909
0.009012379
0.0077701088
0.0065031073
0.0052343258
0.003984306
0.0027726237
0.001617532
0.00053514334
0.012793598
0.013190411
0.013569213
0.013929476
0.014271099
0.014593793
0.014897698
0.015182994
0.01544985
0.015698801
0.015930422
0.016145038
0.016343457
0.016525941
0.016693323
0.016846171
0.016985089
0.01711076
0.017223519
0.017323769
0.017412665
0.017489857
0.017555841
0.017611335
0.017656063
0.01769088
0.017715736
0.017730882
0.017735862
0.017731377
0.017716291
0.017690852
0.01765612
0.017610817
0.017554824
0.017487567
0.017408396
0.017316801
0.017212853
0.01709397
0.016960689
0.016808827
0.016635346
0.016436304
0.016200934
0.015919759
0.015582313
0.015172362
0.01467572
0.014081841
0.013384158
0.012581015
0.011677621
0.010682009
0.009606347
0.0084701307
0.0072933107
0.0060964822
0.0049013111
0.0037264525
0.0025899587
0.001509223
0.00049876723
0.011920523
0.012314874
0.01269222
0.013051786
0.013393133
0.013716234
0.014020876
0.01430726
0.014575619
0.014826169
0.015059477
0.01527614
0.01547651
0.015661398
0.015831078
0.015986377
0.016127857
0.016256112
0.016371806
0.016475265
0.016566876
0.016647754
0.01671755
0.016776735
0.016825996
0.016865051
0.016894718
0.016914935
0.016925928
0.016927241
0.01691954
0.016901706
0.016873964
0.016837328
0.016790545
0.016733478
0.016665556
0.016586132
0.016494695
0.016391281
0.016273354
0.016141384
0.015991232
0.015819839
0.015623253
0.015390947
0.015113751
0.014781724
0.014379601
0.013894309
0.013316489
0.012640713
0.011866285
0.010999006
0.010047166
0.0090227859
0.007944613
0.0068315652
0.0057030007
0.0045789885
0.0034770155
0.0024138792
0.0014052882
0.00046407767
0.011073793
0.011465188
0.011840421
0.012198823
0.012539712
0.012862731
0.013167928
0.013455158
0.013724678
0.013976769
0.014211691
0.014430037
0.014632423
0.01481922
0.014991242
0.01514877
0.015292622
0.015423351
0.015541538
0.01564783
0.015742538
0.015826033
0.015899393
0.015962267
0.016015102
0.016058554
0.016092336
0.016117228
0.016133156
0.016140328
0.016138283
0.016127656
0.016107346
0.016077557
0.016039258
0.01599122
0.015933296
0.015864918
0.015785442
0.015694355
0.015591669
0.015474885
0.015344404
0.015196134
0.015027002
0.014833057
0.014604031
0.014331085
0.014004827
0.013610953
0.013137495
0.012576225
0.011922797
0.011177379
0.010346261
0.0094379069
0.0084641031
0.0074427957
0.0063918296
0.0053292773
0.0042737781
0.0032414446
0.0022477216
0.0013070262
0.00043115167
0.010641549
0.011014228
0.011370863
0.011710877
0.012033677
0.012338987
0.01262692
0.012897398
0.013150729
0.013387237
0.013607218
0.01381129
0.014000083
0.014173981
0.014333798
0.01447982
0.014612852
0.014733437
0.014842141
0.014939589
0.015026083
0.015101973
0.015168298
0.015224706
0.015271622
0.015309668
0.015338553
0.015359023
0.015370989
0.015374639
0.015369514
0.015356215
0.015333658
0.015302029
0.01526225
0.015213117
0.015154475
0.015085753
0.015006318
0.014915652
0.014813742
0.014698132
0.014569154
0.01442277
0.014255906
0.014064624
0.01383894
0.013570373
0.013250085
0.01286473
0.012403417
0.011859008
0.01122815
0.010511795
0.0097166233
0.0088511856
0.0079269658
0.0069610888
0.005970352
0.0049715888
0.0039820659
0.0030165854
0.0020893343
0.0012135332
0.00039989324
0.0098441319
0.010213687
0.010568165
0.010906755
0.011228964
0.011534289
0.011822527
0.012093854
0.012348254
0.012586079
0.012807694
0.013013424
0.013203907
0.013379785
0.013541452
0.013689715
0.013824865
0.013947691
0.014058723
0.014158511
0.01424766
0.014326455
0.014395231
0.014454985
0.014505367
0.014546775
0.014579803
0.014604153
0.014620537
0.014628855
0.014629275
0.014621339
0.014605613
0.014581037
0.014547774
0.014506706
0.01445665
0.014397446
0.014328528
0.014249261
0.014159132
0.014058099
0.013943755
0.013816366
0.013671944
0.013507425
0.013318906
0.013096703
0.012832713
0.012518676
0.012142192
0.011693415
0.011166231
0.010558204
0.0098709716
0.0091115169
0.0082883886
0.0074127114
0.0065007632
0.0055682956
0.0046309466
0.0037046836
0.0028030775
0.0019391253
0.0011249261
0.00037027539
0.0090730408
0.0094388773
0.0097906762
0.010127495
0.010448612
0.010753622
0.0110421
0.011313918
0.011569308
0.011808311
0.012031318
0.012238728
0.012430895
0.01260847
0.012772102
0.012922192
0.013059539
0.013184434
0.013297647
0.013399697
0.013491114
0.013572483
0.013644071
0.013706196
0.013759817
0.013804581
0.013840864
0.01386923
0.013889376
0.013901978
0.013906928
0.013904375
0.01389386
0.013875918
0.013849509
0.013814776
0.01377256
0.013721702
0.013662032
0.013592989
0.013513942
0.013424376
0.01332423
0.013211136
0.013085301
0.012942805
0.012780593
0.012594819
0.012376124
0.012116799
0.011809173
0.011441782
0.011005786
0.010496046
0.0099109686
0.0092527861
0.008528696
0.0077471893
0.0069189874
0.0060595039
0.0051834757
0.0043053914
0.0034399677
0.0025996127
0.0017962107
0.0010408019
0.00034222636
0.008328362
0.0086898219
0.009038396
0.0093729702
0.009692694
0.0099969361
0.010285371
0.010557652
0.010813718
0.011053853
0.011278149
0.011487034
0.011680935
0.011860232
0.012025582
0.012177639
0.012316808
0.012443877
0.012559134
0.012663331
0.012756969
0.012840562
0.012914668
0.012979542
0.013035481
0.013083406
0.013122963
0.013154505
0.013178565
0.013194838
0.013203967
0.013205831
0.013200566
0.013187711
0.013167774
0.013139733
0.013103715
0.013060522
0.01300902
0.012949027
0.012879992
0.012801289
0.0127124
0.012613244
0.012501497
0.012377307
0.012236822
0.012077014
0.011894104
0.01167908
0.011424649
0.011123732
0.010765781
0.010342923
0.0098509205
0.0092889421
0.0086597249
0.0079706001
0.0072299189
0.0064479638
0.0056392908
0.0048176287
0.0039963678
0.0031890542
0.0024070114
0.0016610756
0.00096129397
0.00031571881
0.0079665603
0.0083113011
0.0086431353
0.0089610432
0.0092642652
0.0095522555
0.0098247655
0.010081522
0.010322526
0.010548109
0.01075841
0.010953888
0.011134996
0.011302131
0.011455959
0.011597132
0.011726058
0.01184351
0.011949774
0.012045579
0.012131412
0.012207763
0.012275172
0.012333874
0.012384149
0.012426878
0.012461706
0.012488961
0.012509149
0.012521959
0.012528002
0.012527146
0.012519507
0.012504627
0.012482984
0.012453573
0.012416504
0.012372539
0.012320568
0.012260402
0.01219149
0.012113219
0.012025067
0.011926931
0.011816538
0.011693981
0.011555482
0.011398056
0.011218018
0.011006706
0.010757261
0.010463201
0.010114873
0.0097053253
0.0092311485
0.0086921896
0.0080916156
0.0074368169
0.0067359541
0.0059988298
0.0052391536
0.004469696
0.0037028079
0.0029509283
0.0022243744
0.0015330338
0.00088605171
0.00029067723
0.0072688192
0.0076090881
0.0079375856
0.0082531895
0.0085549719
0.0088422613
0.0091145937
0.0093717927
0.009613654
0.0098402344
0.01005191
0.010248861
0.010431574
0.01060052
0.010756115
0.010899025
0.011029899
0.011149145
0.011257521
0.011355305
0.011443205
0.01152169
0.011591232
0.011652344
0.011705247
0.011750201
0.01178805
0.011818439
0.011841672
0.011858228
0.011867793
0.011870946
0.011867547
0.011857698
0.011840938
0.011817721
0.011787062
0.011749055
0.011704428
0.011652088
0.011591848
0.01152316
0.011445412
0.01135809
0.011261072
0.01115213
0.011031314
0.010894919
0.010740012
0.010563016
0.01035565
0.010111495
0.0098246617
0.0094863611
0.0090905113
0.0086344774
0.0081186926
0.0075466621
0.0069257619
0.0062639142
0.00557042
0.00485815
0.004138943
0.0034241564
0.0027252011
0.0020514592
0.0014119238
0.00081490387
0.000266995
0.0065964662
0.0069315361
0.0072560886
0.0075688231
0.007868708
0.0081549058
0.0084268292
0.008684092
0.0089265859
0.0091541703
0.0093669542
0.0095653529
0.0097495819
0.0099201518
0.010077551
0.010222204
0.010354778
0.010475917
0.010586025
0.010685843
0.01077564
0.010856104
0.010927684
0.010990831
0.011046036
0.011093504
0.011133475
0.011166759
0.011192997
0.011212474
0.011225641
0.011232182
0.011232646
0.011226885
0.011214983
0.011196486
0.011171819
0.011140016
0.011101157
0.011055934
0.011003279
0.010942996
0.010874547
0.010797327
0.01071082
0.010614889
0.010507355
0.010388227
0.010253889
0.010101478
0.0099275375
0.00972418
0.0094854465
0.009206035
0.0088779975
0.0084960756
0.0080583342
0.0075657272
0.0070220335
0.0064345538
0.0058109285
0.005159945
0.0044936417
0.0038229619
0.0031583226
0.0025101484
0.0018869405
0.0012968653
0.0007474486
0.0002445961
0.0062786843
0.0065986138
0.0069079193
0.0072053913
0.007490088
0.0077612588
0.0080183974
0.0082611912
0.008489595
0.0087035276
0.0089031454
0.0090888979
0.0092610335
0.0094200805
0.0095665401
0.0097008456
0.0098236605
0.0099356218
0.010037127
0.010128899
0.010211199
0.010284691
0.010349806
0.010406974
0.010456664
0.010499062
0.010534395
0.010563433
0.010585819
0.010601816
0.010611851
0.010615605
0.010613596
0.010605673
0.010591903
0.010571836
0.010545871
0.010513062
0.010473475
0.010427767
0.010374895
0.010314657
0.01024652
0.010169889
0.01008425
0.009989451
0.0098833642
0.0097659633
0.0096337228
0.0094838602
0.0093130718
0.0091138729
0.0088807708
0.0086090514
0.0082915696
0.0079238398
0.0075045692
0.0070351592
0.0065195736
0.0059649849
0.0053787097
0.0047690055
0.004147094
0.0035230548
0.0029064047
0.0023066463
0.0017314664
0.0011882519
0.00068380299
0.00022346383
0.0056503148
0.00596495
0.0062701801
0.0065647121
0.0068474258
0.0071174665
0.0073741674
0.007617099
0.0078460184
0.0080609391
0.0082618347
0.0084489051
0.008622629
0.0087832831
0.0089314104
0.0090675215
0.0091920555
0.0093056696
0.0094089918
0.0095024127
0.0095866346
0.0096619107
0.0097288802
0.0097879558
0.0098395474
0.0098840991
0.0099217841
0.0099528093
0.0099779121
0.0099967341
0.01000952
0.010016669
0.010017863
0.010013591
0.010003695
0.0099882273
0.0099667424
0.0099396137
0.0099059156
0.0098657002
0.0098195909
0.0097665695
0.0097064256
0.0096386365
0.0095626125
0.0094778455
0.0093841671
0.009279501
0.0091637985
0.0090336375
0.008886327
0.0087187339
0.0085237871
0.0082964708
0.0080326419
0.0077259381
0.0073725912
0.0069718695
0.0065255494
0.0060377318
0.0055154126
0.0049655558
0.0043958816
0.003816819
0.0032376169
0.0026669493
0.0021134493
0.0015840353
0.001085386
0.00062363016
0.00020352814
0.0050462984
0.0053549116
0.0056554256
0.0059464048
0.0062266424
0.0064951061
0.0067510251
0.0069938131
0.0072231134
0.0074387485
0.0076407864
0.0078292511
0.0080043812
0.0081666809
0.0083164508
0.0084542455
0.0085805816
0.0086959018
0.0088008555
0.0088960588
0.0089818945
0.0090590441
0.0091277505
0.0091886292
0.0092420734
0.009288473
0.0093282496
0.0093615611
0.0093885969
0.0094100616
0.0094255956
0.0094354252
0.0094399261
0.0094387779
0.0094324439
0.0094207583
0.0094037625
0.0093810126
0.0093528594
0.0093183966
0.0092776634
0.0092312517
0.0091781668
0.0091181946
0.0090508181
0.0089754558
0.0088916034
0.008799086
0.0086958794
0.0085819114
0.008453876
0.0083091869
0.0081448991
0.0079543727
0.0077330703
0.0074774058
0.0071817518
0.0068430031
0.0064609427
0.0060376456
0.0055772775
0.0050866034
0.0045722139
0.0040412902
0.0035034856
0.0029672575
0.0024404764
0.0019309702
0.0014449537
0.00098843919
0.00056693754
0.00018474337
0.0047683483
0.0050634468
0.0053502597
0.0056274379
0.0058938616
0.0061485836
0.0063909142
0.0066203431
0.0068365828
0.0070395161
0.0072292615
0.0074058889
0.0075696716
0.0077211351
0.0078606007
0.0079886309
0.0081057464
0.0082123902
0.0083092024
0.0083967862
0.0084755145
0.0085460479
0.0086086178
0.0086638164
0.0087120174
0.0087535902
0.0087889345
0.0088181931
0.0088415389
0.008859644
0.0088721488
0.0088792606
0.0088813322
0.008878043
0.0088698294
0.0088565197
0.0088381441
0.0088142608
0.008785199
0.0087500722
0.0087089066
0.0086622628
0.0086091693
0.0085494089
0.0084824688
0.0084077806
0.0083248414
0.0082334676
0.0081316975
0.0080194448
0.0078935229
0.0077514783
0.0075905603
0.0074045702
0.0071894464
0.0069421446
0.0066577408
0.0063337344
0.0059703427
0.0055698858
0.0051365428
0.00467682
0.0041969106
0.0037034607
0.0032053774
0.0027103642
0.0022255447
0.0017579893
0.0013132522
0.00089674192
0.00051340457
0.00016704386
0.0042051032
0.0044940538
0.0047760343
0.0050495716
0.0053134029
0.0055664936
0.0058079808
0.0060372522
0.0062538697
0.0064576105
0.0066484137
0.006826444
0.0069918128
0.0071448239
0.0072860206
0.0074157418
0.007534555
0.0076429821
0.0077414646
0.0078306313
0.0079110715
0.0079831473
0.0080474975
0.0081043417
0.0081542481
0.0081975719
0.0082346621
0.0082658965
0.0082914035
0.0083113401
0.0083263459
0.0083360626
0.0083406801
0.0083405286
0.0083352862
0.0083253659
0.00831059
0.0082909778
0.008266091
0.0082362376
0.0082005483
0.0081590417
0.0081122468
0.0080592143
0.0079997252
0.0079332735
0.007859299