/*--------------------------------*- C++ -*----------------------------------*\
| =========                 |                                                 |
| \\      /  F ield         | OpenFOAM: The Open Source CFD Toolbox           |
|  \\    /   O peration     | Version:  2506                                  |
|   \\  /    A nd           | Website:  www.openfoam.com                      |
|    \\/     M anipulation  |                                                 |
\*---------------------------------------------------------------------------*/
FoamFile
{
    version     2.0;
    format      ascii;
    arch        "LSB;label=32;scalar=64";
    class       volScalarField;
    location    "0.012";
    object      p;
}
// * * * * * * * * * * * * * * * * * * * * * * * * * * * * * * * * * * * * * //

dimensions      [1 -1 -2 0 0 0 0];

internalField   nonuniform List<scalar> 
13761
(
46641.647
46641.208
46640.707
46640.135
46639.481
46638.734
46637.877
46636.894
46635.765
46634.469
46632.98
46631.269
46629.3
46627.034
46624.422
46621.412
46617.947
46614.015
46609.679
46604.955
46600.503
46597.193
46595.408
46592.398
46634.011
46634.046
46634.077
46634.11
46634.146
46634.184
46634.225
46634.27
46634.319
46634.373
46634.433
46634.499
46634.57
46634.648
46634.731
46634.821
46634.918
46635.02
46635.129
46635.243
46635.363
46635.488
46635.618
46635.751
46635.888
46636.026
46636.165
46636.303
46636.438
46636.567
46636.687
46636.794
46636.882
46636.946
46636.977
46636.965
46636.896
46636.753
46636.519
46636.169
46635.679
46635.023
46634.18
46633.138
46631.905
46630.515
46629.019
46627.183
46624.191
46620.133
46848.075
46848.128
46848.175
46848.225
46848.28
46848.341
46848.407
46848.48
46848.562
46848.653
46848.754
46848.867
46848.993
46849.132
46849.286
46849.455
46849.641
46849.845
46850.067
46850.309
46850.571
46850.856
46851.164
46851.497
46851.857
46852.246
46852.665
46853.118
46853.606
46854.131
46854.697
46855.303
46855.951
46856.642
46857.372
46858.139
46858.935
46859.749
46860.568
46861.374
46862.146
46862.864
46863.509
46864.069
46864.544
46864.951
46865.325
46865.751
46945.083
46945.102
46945.12
46945.139
46945.16
46945.183
46945.208
46945.236
46945.268
46945.304
46945.346
46945.393
46945.447
46945.509
46945.578
46945.655
46945.742
46945.838
46945.945
46946.062
46946.191
46946.333
46946.487
46946.656
46946.839
46947.04
46947.258
46947.496
46947.755
46948.038
46948.347
46948.684
46949.052
46949.453
46949.889
46950.364
46950.879
46951.438
46952.044
46952.703
46953.419
46954.198
46955.052
46955.997
46957.058
46958.255
46967.574
46967.577
46967.58
46967.584
46967.587
46967.592
46967.596
46967.602
46967.608
46967.616
46967.625
46967.636
46967.649
46967.664
46967.681
46967.702
46967.725
46967.751
46967.781
46967.814
46967.851
46967.891
46967.935
46967.983
46968.036
46968.094
46968.158
46968.227
46968.303
46968.386
46968.477
46968.577
46968.687
46968.807
46968.939
46969.083
46969.242
46969.418
46969.617
46969.847
46970.108
46970.4
46970.727
46965.947
46965.947
46965.948
46965.948
46965.949
46965.95
46965.951
46965.952
46965.954
46965.956
46965.958
46965.961
46965.965
46965.97
46965.975
46965.982
46965.989
46965.997
46966.006
46966.016
46966.026
46966.038
46966.05
46966.063
46966.077
46966.091
46966.107
46966.123
46966.14
46966.157
46966.175
46966.193
46966.21
46966.226
46966.24
46966.249
46966.252
46966.241
46966.21
46970.364
46970.365
46970.367
46970.368
46970.369
46970.371
46970.373
46970.374
46970.376
46970.379
46970.381
46970.384
46970.387
46970.391
46970.394
46970.398
46970.403
46970.408
46970.413
46970.419
46970.426
46970.433
46970.441
46970.449
46970.459
46970.47
46970.483
46970.496
46970.512
46970.53
46970.549
46970.571
46970.596
46970.623
46970.653
46973.936
46973.935
46973.933
46973.931
46973.929
46973.927
46973.925
46973.923
46973.921
46973.918
46973.915
46973.911
46973.907
46973.902
46973.897
46973.891
46973.884
46973.877
46973.869
46973.86
46973.852
46973.842
46973.833
46973.823
46973.813
46973.804
46846.034
46846.034
46846.033
46846.033
46846.032
46846.032
46846.032
46846.031
46846.03
46846.03
46846.029
46846.028
46846.028
46846.027
46846.026
46846.025
46846.024
46846.024
46846.022
46846.021
46846.02
46846.018
46846.017
46846.015
46846.012
46846.009
46846.005
46846.001
46845.999
46846.001
46846.003
46846.005
46846.007
46846.009
46846.012
46846.015
46846.019
46846.023
46846.029
46846.036
46846.045
46846.056
46846.069
46846.085
46846.102
46846.118
46846.131
46846.145
46846.175
46852.107
46852.105
46852.104
46852.103
46852.102
46852.1
46852.099
46852.097
46852.096
46852.094
46852.092
46852.09
46852.088
46852.086
46852.084
46852.082
46852.08
46852.077
46852.075
46852.072
46852.07
46852.067
46852.064
46852.062
46852.059
46852.056
46852.053
46852.051
46852.045
46852.034
46852.022
46852.008
46851.993
46851.976
46851.956
46851.933
46851.906
46851.876
46851.84
46851.799
46851.751
46851.696
46851.632
46851.561
46851.482
46851.396
46851.302
46851.2
46851.133
46851.16
46851.279
46851.327
46851.468
46851.95
46852.467
46853.203
46854.146
46854.691
46855.546
46856.311
46857.169
46858.034
46858.936
46859.883
46860.896
46861.981
46863.094
46864.262
46865.488
46866.771
46868.103
46869.508
46870.947
46872.449
46874.017
46875.711
46877.487
46879.347
46881.32
46883.408
46885.62
46887.957
46890.443
46893.111
46895.969
46899.059
46902.449
46906.069
46909.836
46913.648
46860.989
46860.988
46860.987
46860.985
46860.984
46860.983
46860.982
46860.981
46860.979
46860.977
46860.976
46860.974
46860.972
46860.97
46860.968
46860.966
46860.963
46860.961
46860.958
46860.956
46860.954
46860.953
46860.951
46860.95
46860.949
46860.948
46860.948
46860.949
46860.95
46860.951
46860.954
46860.957
46860.962
46860.968
46860.976
46860.986
46860.998
46861.015
46861.035
46861.061
46861.094
46861.136
46861.186
46861.247
46861.318
46861.401
46861.496
46861.6
46861.709
46861.805
46861.904
46862.07
46862.226
46862.269
46862.294
46862.262
46862.241
46862.34
46862.466
46862.622
46862.867
46863.176
46863.558
46863.988
46864.491
46865.081
46865.752
46866.519
46867.352
46868.288
46869.333
46870.472
46871.686
46872.984
46874.404
46875.947
46877.528
46879.214
46881.033
46883.012
46885.131
46887.401
46889.871
46892.534
46895.399
46898.481
46901.8
46905.324
46908.96
46912.748
46916.964
46921.475
46926.493
46931.886
46937.744
46944.572
46952.069
46960.179
46969.246
46864.855
46864.854
46864.854
46864.853
46864.852
46864.852
46864.851
46864.851
46864.85
46864.849
46864.849
46864.848
46864.848
46864.847
46864.846
46864.846
46864.846
46864.846
46864.846
46864.847
46864.847
46864.847
46864.848
46864.849
46864.85
46864.851
46864.854
46864.856
46864.86
46864.865
46864.871
46864.879
46864.888
46864.9
46864.914
46864.931
46864.952
46864.977
46865.007
46865.044
46865.087
46865.14
46865.202
46865.277
46865.365
46865.469
46865.589
46865.725
46865.874
46866.068
46866.309
46866.56
46866.913
46867.205
46867.194
46867.042
46866.913
46866.898
46866.86
46866.849
46866.857
46866.879
46866.958
46867.106
46867.32
46867.593
46867.949
46868.399
46868.935
46869.613
46870.407
46871.286
46872.304
46873.439
46874.691
46876.088
46877.574
46879.166
46880.884
46882.764
46884.789
46886.989
46889.427
46892.057
46894.905
46897.918
46901.097
46904.471
46908.02
46911.866
46916.214
46920.897
46925.812
46931.029
46936.94
46943.693
46951.196
46959.387
46968.549
46978.654
46989.249
47000.244
47011.504
47021.678
46867.674
46867.674
46867.674
46867.674
46867.673
46867.673
46867.673
46867.673
46867.674
46867.674
46867.675
46867.676
46867.677
46867.678
46867.68
46867.682
46867.684
46867.686
46867.688
46867.691
46867.694
46867.698
46867.702
46867.707
46867.713
46867.72
46867.728
46867.737
46867.747
46867.758
46867.771
46867.786
46867.802
46867.82
46867.839
46867.86
46867.882
46867.906
46867.93
46867.955
46867.981
46868.01
46868.043
46868.081
46868.126
46868.178
46868.238
46868.316
46868.415
46868.516
46868.491
46868.544
46868.382
46868.326
46868.265
46868.239
46868.116
46868.101
46868.087
46868.094
46868.095
46868.116
46868.186
46868.293
46868.47
46868.723
46869.035
46869.418
46869.884
46870.43
46871.067
46871.814
46872.593
46873.575
46874.7
46875.99
46877.416
46878.993
46880.699
46882.547
46884.543
46886.709
46889.09
46891.664
46894.458
46897.395
46900.446
46903.661
46907.174
46911.066
46915.473
46920.238
46925.124
46930.21
46936.19
46942.891
46950.363
46958.622
46967.791
46977.952
46988.742
46999.884
47011.445
47022.031
47030.739
47036.838
47041.087
46867.225
46867.225
46867.225
46867.226
46867.226
46867.226
46867.226
46867.227
46867.228
46867.228
46867.229
46867.23
46867.232
46867.233
46867.235
46867.237
46867.24
46867.243
46867.246
46867.25
46867.254
46867.259
46867.264
46867.27
46867.277
46867.284
46867.292
46867.301
46867.311
46867.321
46867.332
46867.345
46867.359
46867.375
46867.392
46867.412
46867.434
46867.46
46867.489
46867.522
46867.56
46867.603
46867.652
46867.709
46867.775
46867.851
46867.936
46868.021
46868.073
46868.174
46868.18
46868.363
46868.298
46868.287
46868.202
46868.213
46868.164
46868.156
46868.166
46868.193
46868.237
46868.31
46868.421
46868.562
46868.745
46868.971
46869.243
46869.57
46869.994
46870.486
46871.082
46871.793
46872.576
46873.474
46874.506
46875.718
46877.099
46878.655
46880.384
46882.262
46884.283
46886.448
46888.78
46891.296
46894.007
46896.864
46899.863
46903.029
46906.513
46910.397
46914.743
46919.451
46924.441
46929.528
46935.47
46942.108
46949.527
46957.809
46966.956
46977.136
46988.143
46999.436
47011.184
47022.128
47031.144
47037.547
47042.148
47046.741
47042.773
47050.556
46865.648
46865.648
46865.648
46865.649
46865.649
46865.65
46865.651
46865.652
46865.653
46865.654
46865.655
46865.657
46865.659
46865.661
46865.664
46865.667
46865.671
46865.675
46865.679
46865.685
46865.69
46865.697
46865.704
46865.711
46865.72
46865.73
46865.74
46865.752
46865.765
46865.78
46865.797
46865.815
46865.836
46865.859
46865.883
46865.911
46865.94
46865.973
46866.008
46866.046
46866.088
46866.133
46866.182
46866.235
46866.292
46866.352
46866.417
46866.485
46866.556
46866.644
46866.72
46866.861
46866.907
46866.965
46866.962
46867.014
46867.043
46867.091
46867.159
46867.237
46867.338
46867.465
46867.621
46867.808
46868.031
46868.299
46868.619
46869.001
46869.464
46869.994
46870.624
46871.357
46872.208
46873.148
46874.226
46875.426
46876.783
46878.315
46880.036
46881.941
46883.99
46886.16
46888.454
46890.892
46893.513
46896.303
46899.312
46902.562
46906.095
46909.939
46914.116
46918.612
46923.694
46928.924
46934.752
46941.357
46948.749
46956.987
46966.134
46976.291
46987.361
46998.851
47010.78
47022.089
47031.349
47038.031
47043.091
47047.587
47043.326
47053.01
47074.875
47073.558
47045.91
46862.323
46862.324
46862.325
46862.325
46862.326
46862.327
46862.328
46862.33
46862.331
46862.333
46862.335
46862.338
46862.341
46862.344
46862.348
46862.352
46862.357
46862.363
46862.369
46862.376
46862.383
46862.392
46862.401
46862.412
46862.423
46862.436
46862.45
46862.465
46862.482
46862.5
46862.519
46862.541
46862.565
46862.59
46862.618
46862.649
46862.682
46862.717
46862.755
46862.796
46862.839
46862.883
46862.929
46862.977
46863.026
46863.076
46863.128
46863.182
46863.235
46863.29
46863.348
46863.437
46863.532
46863.623
46863.767
46863.919
46864.049
46864.286
46864.5
46864.747
46865.02
46865.322
46865.654
46866.024
46866.429
46866.874
46867.364
46867.908
46868.51
46869.178
46869.914
46870.733
46871.672
46872.709
46873.852
46875.117
46876.506
46878.043
46879.746
46881.649
46883.719
46885.923
46888.228
46890.607
46893.118
46895.816
46898.823
46902.172
46905.812
46909.613
46913.646
46917.9
46922.944
46928.384
46934.162
46940.672
46948.036
46956.175
46965.244
46975.362
46986.575
46998.183
47010.182
47021.761
47031.28
47038.309
47043.832
47048.193
47043.916
47055.786
47077.403
47072.712
47042.706
47024.503
47026.262
46857.276
46857.276
46857.277
46857.278
46857.279
46857.28
46857.281
46857.283
46857.284
46857.286
46857.289
46857.292
46857.295
46857.299
46857.303
46857.308
46857.314
46857.32
46857.327
46857.335
46857.343
46857.353
46857.364
46857.375
46857.388
46857.402
46857.418
46857.435
46857.453
46857.473
46857.495
46857.519
46857.545
46857.573
46857.603
46857.636
46857.671
46857.709
46857.749
46857.791
46857.835
46857.88
46857.925
46857.97
46858.014
46858.057
46858.098
46858.136
46858.169
46858.205
46858.255
46858.314
46858.447
46858.629
46858.915
46859.286
46859.665
46860.098
46860.545
46861.025
46861.536
46862.077
46862.651
46863.259
46863.902
46864.594
46865.334
46866.124
46866.963
46867.862
46868.816
46869.836
46870.925
46872.102
46873.361
46874.721
46876.193
46877.788
46879.517
46881.399
46883.439
46885.645
46887.994
46890.42
46892.933
46895.584
46898.56
46901.928
46905.566
46909.367
46913.343
46917.509
46922.349
46927.854
46933.653
46940.037
46947.306
46955.422
46964.459
46974.574
46985.686
46997.414
47009.487
47021.277
47031.018
47038.382
47044.338
47048.545
47044.627
47058.701
47080
47071.964
47039.619
47021.127
47023.868
47009.701
47022.709
46853.23
46853.23
46853.231
46853.231
46853.232
46853.233
46853.233
46853.235
46853.236
46853.238
46853.24
46853.242
46853.245
46853.248
46853.252
46853.256
46853.261
46853.266
46853.272
46853.279
46853.287
46853.295
46853.304
46853.314
46853.325
46853.337
46853.351
46853.365
46853.38
46853.397
46853.415
46853.434
46853.455
46853.478
46853.502
46853.528
46853.556
46853.586
46853.617
46853.65
46853.684
46853.72
46853.757
46853.793
46853.829
46853.864
46853.896
46853.925
46853.95
46853.972
46854.04
46854.127
46854.237
46854.553
46854.946
46855.424
46855.996
46856.554
46857.139
46857.76
46858.437
46859.15
46859.906
46860.713
46861.553
46862.411
46863.311
46864.27
46865.29
46866.37
46867.502
46868.709
46869.97
46871.303
46872.704
46874.179
46875.754
46877.417
46879.204
46881.117
46883.165
46885.375
46887.744
46890.275
46892.92
46895.678
46898.63
46901.887
46905.405
46909.153
46913.15
46917.41
46922.041
46927.431
46933.258
46939.601
46946.704
46954.775
46963.756
46973.747
46984.804
46996.598
47008.678
47020.539
47030.498
47038.178
47044.699
47048.661
47045.239
47061.717
47082.532
47071.322
47036.786
47017.848
47021.491
47008.758
47022.923
47005.927
46851.157
46851.157
46851.157
46851.157
46851.158
46851.158
46851.159
46851.159
46851.16
46851.161
46851.163
46851.165
46851.167
46851.17
46851.172
46851.176
46851.18
46851.185
46851.19
46851.196
46851.202
46851.209
46851.218
46851.227
46851.237
46851.248
46851.26
46851.273
46851.288
46851.304
46851.321
46851.34
46851.361
46851.384
46851.409
46851.436
46851.464
46851.494
46851.526
46851.559
46851.592
46851.624
46851.655
46851.684
46851.71
46851.733
46851.754
46851.772
46851.788
46851.805
46851.862
46851.881
46851.823
46851.898
46852.275
46852.872
46853.513
46854.196
46854.925
46855.693
46856.492
46857.325
46858.203
46859.118
46860.076
46861.08
46862.128
46863.218
46864.353
46865.534
46866.769
46868.062
46869.418
46870.845
46872.336
46873.91
46875.556
46877.283
46879.117
46881.047
46883.077
46885.259
46887.639
46890.227
46893.002
46895.946
46898.934
46902.078
46905.498
46909.093
46913.118
46917.483
46922.026
46927.215
46932.989
46939.325
46946.303
46954.22
46963.133
46972.979
46984.004
46995.74
47007.764
47019.619
47029.804
47037.762
47044.886
47048.512
47045.909
47064.72
47084.978
47070.805
47034.201
47014.775
47019.144
47007.839
47023.23
47006.811
46985.902
47048.551
46850.728
46850.728
46850.728
46850.728
46850.728
46850.728
46850.728
46850.729
46850.729
46850.73
46850.731
46850.732
46850.733
46850.735
46850.737
46850.739
46850.741
46850.744
46850.748
46850.752
46850.756
46850.761
46850.767
46850.773
46850.78
46850.788
46850.796
46850.805
46850.815
46850.826
46850.838
46850.852
46850.866
46850.881
46850.898
46850.916
46850.936
46850.957
46850.978
46851.001
46851.024
46851.047
46851.07
46851.091
46851.111
46851.13
46851.146
46851.161
46851.178
46851.205
46851.224
46851.253
46851.546
46851.821
46852.243
46852.805
46853.385
46854.063
46854.756
46855.508
46856.289
46857.123
46858
46858.924
46859.898
46860.929
46862.016
46863.144
46864.315
46865.533
46866.804
46868.128
46869.524
46870.983
46872.512
46874.13
46875.833
46877.622
46879.497
46881.439
46883.45
46885.567
46887.879
46890.438
46893.246
46896.27
46899.384
46902.507
46905.864
46909.356
46913.295
46917.747
46922.245
46927.277
46932.969
46939.215
46946.098
46953.863
46962.665
46972.217
46983.143
46994.832
47006.77
47018.532
47028.997
47037.12
47044.827
47048.214
47046.568
47067.559
47087.226
47070.275
47031.951
47011.894
47016.871
47006.962
47023.581
47007.771
46986.772
47048.451
46971.365
46851.873
46851.873
46851.873
46851.873
46851.872
46851.872
46851.872
46851.872
46851.871
46851.871
46851.872
46851.872
46851.872
46851.873
46851.874
46851.875
46851.876
46851.877
46851.879
46851.881
46851.884
46851.886
46851.889
46851.893
46851.896
46851.901
46851.905
46851.911
46851.916
46851.923
46851.93
46851.938
46851.946
46851.955
46851.965
46851.976
46851.988
46852
46852.014
46852.028
46852.043
46852.058
46852.073
46852.088
46852.102
46852.115
46852.127
46852.138
46852.149
46852.162
46852.223
46852.356
46852.692
46853.15
46853.663
46854.058
46854.643
46855.193
46855.826
46856.493
46857.198
46857.95
46858.759
46859.615
46860.537
46861.523
46862.553
46863.638
46864.791
46866.017
46867.307
46868.664
46870.091
46871.588
46873.18
46874.851
46876.606
46878.454
46880.388
46882.386
46884.445
46886.548
46888.753
46891.175
46893.912
46896.865
46899.982
46903.132
46906.512
46910.024
46913.839
46918.157
46922.654
46927.587
46933.185
46939.293
46946.096
46953.693
46962.301
46971.556
46982.262
46993.788
47005.76
47017.382
47028.047
47036.484
47044.589
47047.618
47047.267
47070.301
47089.167
47069.8
47030.001
47009.282
47014.723
47006.121
47023.992
47008.765
46987.638
47048.295
46971.406
46991.233
46855.017
46855.016
46855.016
46855.015
46855.015
46855.014
46855.013
46855.013
46855.012
46855.012
46855.012
46855.011
46855.011
46855.011
46855.011
46855.011
46855.011
46855.012
46855.012
46855.013
46855.014
46855.015
46855.017
46855.019
46855.021
46855.023
46855.026
46855.029
46855.032
46855.036
46855.041
46855.046
46855.052
46855.058
46855.065
46855.074
46855.083
46855.093
46855.104
46855.117
46855.13
46855.145
46855.161
46855.179
46855.198
46855.219
46855.242
46855.267
46855.295
46855.328
46855.377
46855.458
46855.585
46855.858
46856.18
46856.536
46856.956
46857.392
46857.882
46858.412
46858.997
46859.636
46860.327
46861.07
46861.881
46862.744
46863.674
46864.671
46865.745
46866.899
46868.135
46869.456
46870.866
46872.375
46873.99
46875.696
46877.508
46879.423
46881.422
46883.533
46885.719
46887.942
46890.18
46892.521
46895.104
46897.91
46900.904
46904.044
46907.472
46911.112
46914.853
46918.945
46923.338
46928.151
46933.663
46939.597
46946.276
46953.746
46962.075
46971.14
46981.362
46992.741
47004.576
47016.171
47027.029
47035.682
47044.133
47046.823
47048.014
47072.844
47090.772
47069.229
47028.391
47006.961
47012.69
47005.354
47024.429
47009.748
46988.477
47048.119
46971.357
46991.993
46994.779
46909.385
46859.098
46859.098
46859.097
46859.097
46859.096
46859.096
46859.095
46859.095
46859.095
46859.094
46859.094
46859.094
46859.094
46859.094
46859.095
46859.095
46859.096
46859.097
46859.098
46859.099
46859.101
46859.103
46859.105
46859.108
46859.111
46859.115
46859.119
46859.123
46859.129
46859.135
46859.141
46859.149
46859.158
46859.167
46859.178
46859.19
46859.204
46859.22
46859.237
46859.256
46859.277
46859.301
46859.327
46859.356
46859.389
46859.425
46859.467
46859.515
46859.571
46859.633
46859.704
46859.799
46859.972
46860.138
46860.198
46860.462
46860.7
46860.959
46861.254
46861.578
46861.926
46862.341
46862.855
46863.436
46864.09
46864.824
46865.631
46866.526
46867.506
46868.564
46869.711
46870.953
46872.284
46873.7
46875.236
46876.876
46878.642
46880.522
46882.521
46884.66
46886.952
46889.328
46891.733
46894.218
46896.748
46899.434
46902.317
46905.417
46908.827
46912.56
46916.341
46920.238
46924.465
46929.031
46934.416
46940.193
46946.625
46953.979
46962.091
46970.84
46980.629
46991.749
47003.401
47014.874
47025.819
47034.749
47043.522
47045.771
47048.728
47075.216
47091.869
47068.602
47027.104
47004.972
47010.85
47004.625
47024.9
47010.688
46989.256
47047.923
46971.241
46992.768
46995.962
46909.29
47017.456
46861.463
46861.463
46861.463
46861.463
46861.463
46861.463
46861.463
46861.463
46861.463
46861.464
46861.464
46861.465
46861.466
46861.468
46861.469
46861.472
46861.474
46861.477
46861.48
46861.484
46861.488
46861.493
46861.498
46861.504
46861.511
46861.519
46861.527
46861.537
46861.547
46861.559
46861.572
46861.586
46861.601
46861.618
46861.636
46861.656
46861.678
46861.702
46861.729
46861.758
46861.792
46861.829
46861.871
46861.92
46861.976
46862.04
46862.115
46862.199
46862.292
46862.388
46862.489
46862.592
46862.706
46862.861
46863.044
46863.224
46863.381
46863.597
46863.855
46864.171
46864.538
46864.93
46865.35
46865.847
46866.374
46867.022
46867.799
46868.639
46869.572
46870.581
46871.693
46872.908
46874.213
46875.603
46877.093
46878.677
46880.346
46882.107
46883.996
46886.009
46888.254
46890.653
46893.149
46895.805
46898.482
46901.212
46904.121
46907.213
46910.539
46914.236
46918.037
46921.928
46926.1
46930.384
46935.557
46941.136
46947.208
46954.322
46962.272
46970.708
46980.098
46990.883
47002.19
47013.593
47024.658
47033.864
47042.76
47044.375
47049.397
47077.316
47092.467
47067.819
47026.058
47003.366
47009.21
47003.955
47025.385
47011.548
46989.96
47047.715
46971.015
46993.55
46997.207
46908.979
47018.321
46966.834
46861.095
46861.096
46861.096
46861.096
46861.097
46861.097
46861.098
46861.099
46861.1
46861.101
46861.103
46861.104
46861.107
46861.109
46861.112
46861.116
46861.12
46861.125
46861.13
46861.136
46861.142
46861.15
46861.158
46861.167
46861.177
46861.188
46861.2
46861.213
46861.227
46861.244
46861.261
46861.281
46861.302
46861.326
46861.352
46861.381
46861.412
46861.447
46861.484
46861.524
46861.566
46861.611
46861.657
46861.705
46861.755
46861.806
46861.859
46861.916
46861.982
46862.073
46862.192
46862.335
46862.392
46862.404
46862.551
46862.79
46863.08
46863.446
46863.83
46864.272
46864.782
46865.358
46865.987
46866.693
46867.466
46868.296
46869.181
46870.126
46871.157
46872.253
46873.426
46874.696
46876.066
46877.535
46879.059
46880.654
46882.359
46884.113
46885.93
46887.81
46889.853
46892.141
46894.622
46897.256
46900.024
46902.898
46905.977
46909.195
46912.524
46916.085
46919.865
46923.85
46928.181
46932.249
46937.086
46942.474
46948.167
46954.788
46962.613
46970.695
46979.862
46990.087
47001.074
47012.348
47023.506
47032.878
47041.929
47042.95
47050.054
47079.145
47092.443
47066.849
47025.307
47002.128
47007.843
47003.324
47025.867
47012.312
46990.559
47047.494
46970.683
46994.323
46998.48
46908.476
47019.058
46969.502
46791.036
46857.544
46857.545
46857.546
46857.546
46857.547
46857.548
46857.548
46857.55
46857.551
46857.552
46857.554
46857.556
46857.559
46857.562
46857.565
46857.569
46857.573
46857.578
46857.584
46857.59
46857.597
46857.604
46857.612
46857.621
46857.631
46857.641
46857.653
46857.665
46857.679
46857.694
46857.71
46857.727
46857.746
46857.767
46857.789
46857.814
46857.841
46857.871
46857.904
46857.939
46857.978
46858.02
46858.062
46858.102
46858.137
46858.161
46858.169
46858.165
46858.165
46858.097
46857.971
46857.918
46857.99
46858.117
46858.381
46858.836
46859.561
46860.199
46861.02
46861.954
46863.018
46863.823
46864.948
46866.109
46867.352
46868.539
46869.65
46870.792
46871.981
46873.268
46874.624
46876.057
46877.531
46879.095
46880.767
46882.443
46884.182
46886.036
46887.939
46889.913
46891.885
46894.005
46896.369
46898.883
46901.593
46904.505
46907.692
46911.067
46914.512
46917.984
46921.696
46925.763
46930.238
46934.431
46939.09
46944.241
46949.632
46955.687
46963.138
46970.915
46979.778
46989.524
47000.171
47011.143
47022.235
47031.91
47041.044
47041.474
47050.68
47080.621
47091.809
47065.673
47024.722
47001.288
47006.737
47002.735
47026.342
47012.955
46991.052
47047.261
46970.263
46995.084
46999.768
46907.788
47019.709
46972.295
46790.898
46939.424
46854.449
46854.448
46854.448
46854.447
46854.447
46854.446
46854.446
46854.445
46854.445
46854.444
46854.444
46854.443
46854.442
46854.442
46854.441
46854.441
46854.44
46854.439
46854.438
46854.438
46854.437
46854.436
46854.435
46854.435
46854.437
46854.44
46854.443
46854.446
46854.45
46854.454
46854.458
46854.463
46854.469
46854.475
46854.482
46854.489
46854.496
46854.503
46854.509
46854.512
46854.51
46854.499
46854.475
46854.437
46854.388
46854.342
46854.32
46854.275
46854.113
46853.974
46853.972
46854.1
46854.139
46855.132
46856.761
46857.942
46859.313
46860.586
46862.065
46863.337
46864.648
46865.796
46866.989
46868.167
46869.382
46870.635
46871.899
46873.191
46874.436
46875.72
46877.008
46878.271
46879.652
46881.125
46882.717
46884.353
46886.003
46887.804
46889.732
46891.806
46893.941
46896.092
46898.414
46900.846
46903.445
46906.242
46909.335
46912.717
46916.288
46919.823
46923.554
46927.674
46932.253
46936.683
46941.278
46946.33
46951.576
46957.058
46963.945
46971.47
46979.861
46988.992
46999.355
47009.961
47020.984
47030.864
47040.02
47040.1
47051.412
47081.683
47090.459
47064.18
47024.324
47000.815
47005.881
47002.184
47026.791
47013.488
46991.412
47047.043
46969.746
46995.838
47001.08
46906.941
47020.303
46975.214
46790.576
46937.737
47188.054
46863.978
46863.976
46863.974
46863.972
46863.969
46863.967
46863.964
46863.961
46863.958
46863.954
46863.95
46863.946
46863.942
46863.936
46863.931
46863.925
46863.918
46863.911
46863.903
46863.895
46863.885
46863.875
46863.864
46863.85
46863.833
46863.814
46863.793
46863.769
46863.742
46863.713
46863.679
46863.641
46863.598
46863.55
46863.494
46863.431
46863.359
46863.277
46863.182
46863.074
46862.949
46862.805
46862.639
46862.447
46862.228
46861.988
46861.727
46861.509
46861.421
46861.501
46861.815
46861.912
46862.546
46862.945
46863.667
46864.547
46865.262
46866.245
46867.273
46868.312
46869.496
46870.632
46871.842
46872.889
46873.973
46875.099
46876.282
46877.439
46878.502
46879.596
46880.752
46881.86
46882.955
46884.083
46885.293
46886.718
46888.272
46889.871
46891.668
46893.596
46895.717
46897.964
46900.372
46902.868
46905.482
46908.238
46911.187
46914.415
46917.976
46921.618
46925.511
46929.593
46934.055
46938.713
46943.409
46948.525
46953.815
46959.103
46965.242
46972.396
46979.971
46988.779
46998.857
47008.88
47019.758
47029.76
47038.962
47038.872
47052.173
47082.382
47088.409
47062.408
47024.059
47000.684
47005.3
47001.675
47027.237
47013.906
46991.639
47046.846
46969.189
46996.587
47002.442
46905.96
47020.836
46978.282
46790.14
46935.948
47188.242
46906.94
46881.079
46881.076
46881.074
46881.071
46881.068
46881.065
46881.062
46881.059
46881.054
46881.05
46881.045
46881.039
46881.033
46881.026
46881.018
46881.01
46881.001
46880.992
46880.981
46880.97
46880.958
46880.945
46880.931
46880.917
46880.902
46880.885
46880.868
46880.851
46880.832
46880.813
46880.793
46880.773
46880.753
46880.732
46880.711
46880.691
46880.671
46880.653
46880.638
46880.626
46880.618
46880.618
46880.626
46880.644
46880.671
46880.703
46880.74
46880.78
46880.812
46880.73
46880.698
46880.687
46880.948
46880.856
46881.177
46881.664
46881.424
46881.766
46881.696
46881.811
46881.801
46881.894
46881.986
46882.251
46882.537
46882.874
46883.26
46883.728
46884.317
46884.953
46885.585
46886.314
46887.071
46887.932
46888.723
46889.736
46890.983
46892.326
46893.878
46895.602
46897.57
46899.726
46902.102
46904.668
46907.405
46910.288
46913.245
46916.348
46919.783
46923.444
46927.486
46931.562
46935.845
46940.618
46945.448
46950.486
46955.988
46961.401
46966.983
46973.64
46980.5
46988.855
46998.548
47008.117
47018.588
47028.787
47037.784
47037.801
47053.112
47082.528
47085.675
47060.298
47023.892
47000.877
47005.009
47001.224
47027.675
47014.236
46991.721
47046.705
46968.606
46997.345
47003.886
46904.87
47021.284
46981.535
46789.64
46934.095
47188.225
46908.471
46895.606
46895.604
46895.602
46895.6
46895.598
46895.596
46895.594
46895.591
46895.588
46895.585
46895.581
46895.577
46895.572
46895.567
46895.562
46895.555
46895.548
46895.541
46895.532
46895.523
46895.513
46895.502
46895.491
46895.479
46895.466
46895.453
46895.439
46895.425
46895.41
46895.395
46895.38
46895.366
46895.351
46895.338
46895.326
46895.316
46895.309
46895.307
46895.31
46895.321
46895.342
46895.375
46895.425
46895.495
46895.588
46895.708
46895.854
46896.028
46896.223
46896.576
46897.115
46897.532
46898.561
46898.824
46898.181
46897.402
46896.663
46895.826
46894.888
46894.171
46893.332
46892.596
46891.853
46891.202
46890.654
46890.199
46889.784
46889.534
46889.414
46889.464
46889.593
46889.872
46890.347
46890.943
46891.718
46892.618
46893.603
46894.738
46896.104
46897.654
46899.471
46901.483
46903.702
46906.183
46908.953
46911.963
46915.122
46918.345
46921.734
46925.395
46929.528
46933.65
46937.789
46942.548
46947.42
46952.396
46957.909
46963.611
46969.08
46975.208
46981.54
46989.263
46998.387
47007.608
47017.59
47027.802
47036.407
47037.012
47054.045
47082.233
47082.343
47057.908
47023.826
47001.38
47005.05
47000.851
47028.127
47014.486
46991.7
47046.621
46968.038
46998.115
47005.427
46903.696
47021.628
46984.992
46789.093
46932.23
47188.07
46910.145
46817.922
46903.901
46903.9
46903.899
46903.898
46903.898
46903.897
46903.896
46903.895
46903.894
46903.893
46903.892
46903.89
46903.889
46903.888
46903.886
46903.885
46903.884
46903.882
46903.881
46903.879
46903.878
46903.877
46903.875
46903.875
46903.874
46903.874
46903.874
46903.875
46903.877
46903.879
46903.883
46903.889
46903.896
46903.906
46903.919
46903.935
46903.956
46903.983
46904.018
46904.063
46904.119
46904.191
46904.281
46904.394
46904.532
46904.696
46904.885
46905.093
46905.308
46905.54
46905.367
46905.52
46904.486
46904.506
46903.117
46901.904
46901.039
46899.938
46899.323
46898.266
46897.591
46896.736
46895.963
46895.099
46894.399
46893.702
46893.085
46892.532
46892.11
46891.905
46891.806
46891.817
46892.103
46892.684
46893.504
46894.384
46895.407
46896.546
46897.858
46899.404
46901.148
46903.083
46905.221
46907.592
46910.284
46913.3
46916.604
46920.075
46923.617
46927.342
46931.447
46935.663
46939.812