/*--------------------------------*- C++ -*----------------------------------*\
| =========                 |                                                 |
| \\      /  F ield         | OpenFOAM: The Open Source CFD Toolbox           |
|  \\    /   O peration     | Version:  2506                                  |
|   \\  /    A nd           | Website:  www.openfoam.com                      |
|    \\/     M anipulation  |                                                 |
\*---------------------------------------------------------------------------*/
FoamFile
{
    version     2.0;
    format      ascii;
    arch        "LSB;label=32;scalar=64";
    class       volScalarField;
    location    "0.012";
    object      T;
}
// * * * * * * * * * * * * * * * * * * * * * * * * * * * * * * * * * * * * * //

dimensions      [0 0 0 1 0 0 0];

internalField   nonuniform List<scalar> 
13761
(
242.24255
242.23954
242.23892
242.24135
242.24751
242.25818
242.27417
242.29641
242.3259
242.36377
242.41129
242.46992
242.54129
242.62724
242.72967
242.85024
242.98965
243.14741
243.32262
243.50791
243.69229
243.87816
244.13888
244.52604
242.00399
242.0063
242.01193
242.02168
242.03681
242.05762
242.08443
242.11599
242.15069
242.1858
242.21926
242.24941
242.27565
242.29778
242.31607
242.3309
242.34279
242.35216
242.35946
242.36508
242.36939
242.37276
242.37552
242.37801
242.3806
242.38362
242.38746
242.3925
242.39915
242.40782
242.41896
242.43301
242.45042
242.47166
242.49717
242.52743
242.56287
242.60396
242.65116
242.70493
242.76579
242.83429
242.91107
242.99695
243.09249
243.19625
243.30684
243.42282
243.54552
243.68653
243.21929
243.21705
243.21182
243.20301
243.1902
243.17337
243.15286
243.12988
243.10606
243.08338
243.06328
243.04663
243.03366
243.02424
243.01807
243.01482
243.01416
243.01579
243.01952
243.02518
243.03267
243.04192
243.0529
243.06563
243.08016
243.09654
243.11488
243.13525
243.1578
243.18264
243.20989
243.23968
243.27212
243.30727
243.34523
243.38602
243.42965
243.47612
243.52537
243.57734
243.63192
243.689
243.74836
243.80969
243.87249
243.93603
243.99928
244.06082
243.31778
243.31974
243.3233
243.32845
243.33434
243.34074
243.34678
243.35234
243.35697
243.36101
243.36467
243.36852
243.37287
243.37808
243.3843
243.39169
243.40029
243.41016
243.42133
243.43381
243.44761
243.46278
243.4793
243.49721
243.5165
243.53718
243.55922
243.58259
243.60726
243.63315
243.66019
243.68827
243.71728
243.74709
243.77758
243.80863
243.84012
243.87198
243.90419
243.93677
243.96985
244.00362
244.0384
244.07468
244.11322
244.1552
243.32134
243.32201
243.32345
243.32585
243.32935
243.33426
243.34083
243.34935
243.35995
243.37256
243.3869
243.40264
243.41945
243.43705
243.45523
243.47386
243.49284
243.51213
243.53169
243.55153
243.57165
243.59208
243.61283
243.63392
243.65537
243.67718
243.69935
243.72186
243.7447
243.76783
243.79121
243.81481
243.83859
243.8625
243.88652
243.91066
243.93495
243.95948
243.98441
244.01005
244.03688
244.06571
244.09781
243.29778
243.29928
243.30269
243.30845
243.31713
243.32923
243.34522
243.36515
243.38858
243.41451
243.44183
243.46958
243.49708
243.52394
243.54999
243.57518
243.59955
243.6232
243.64622
243.66875
243.69092
243.71284
243.73463
243.75641
243.77828
243.80033
243.82266
243.84536
243.86852
243.89224
243.91662
243.94178
243.96789
243.99516
244.02389
244.05448
244.0875
244.12367
244.164
243.54833
243.54924
243.55152
243.55554
243.56204
243.5714
243.58415
243.60019
243.61917
243.64016
243.66222
243.68457
243.70671
243.72837
243.74945
243.76995
243.78991
243.80934
243.82838
243.8472
243.86597
243.88486
243.90404
243.9237
243.94403
243.96522
243.9875
244.01113
244.03637
244.06356
244.09305
244.12528
244.16076
244.20009
244.244
243.76528
243.76726
243.77114
243.77704
243.7847
243.79411
243.80491
243.81681
243.82921
243.84162
243.85358
243.86494
243.87564
243.8858
243.89556
243.90514
243.91479
243.92485
243.93542
243.94659
243.95849
243.97125
243.98503
244.00002
244.01644
244.03455
248.61757
248.61528
248.61025
248.60197
248.58987
248.57352
248.55287
248.52848
248.50147
248.47299
248.44385
248.41453
248.3853
248.35626
248.32745
248.29885
248.27041
248.24206
248.21375
248.1854
248.15692
248.12822
248.09922
248.06983
248.03996
248.00955
247.97851
247.94678
247.91432
247.88107
247.84701
247.81211
247.77637
247.73978
247.70236
247.66409
247.625
247.58511
247.5445
247.50308
247.46048
247.41612
247.36873
247.31708
247.25973
247.19438
247.11712
247.0208
246.89013
248.89662
248.89432
248.88926
248.88089
248.86863
248.85199
248.83084
248.80572
248.77771
248.74796
248.71731
248.68627
248.65511
248.62395
248.59285
248.56177
248.53069
248.49954
248.46825
248.43673
248.40489
248.37263
248.33984
248.30641
248.27225
248.23723
248.20127
248.16427
248.12615
248.08682
248.04622
248.0043
247.96102
247.91634
247.87023
247.82267
247.77361
247.72301
247.67077
247.61676
247.56069
247.50215
247.44066
247.37529
247.30433
247.22516
247.13338
247.02049
246.8653
246.60475
245.99874
244.51414
243.58176
243.4004
243.30243
243.16194
243.07451
243.05098
243.04832
243.05737
243.06872
243.07968
243.09081
243.10233
243.11382
243.12408
243.13414
243.1448
243.15592
243.17192
243.18712
243.19931
243.21528
243.23728
243.25443
243.26949
243.29802
243.32006
243.33243
243.35732
243.3908
243.41853
243.44554
243.4827
243.51535
243.52968
243.54446
243.60264
243.67632
243.69314
249.19613
249.19382
249.18877
249.18043
249.16825
249.15176
249.13086
249.10607
249.07847
249.04917
249.01901
248.98846
248.95779
248.92709
248.8964
248.86568
248.83488
248.80392
248.77272
248.7412
248.70924
248.67673
248.64355
248.60958
248.5747
248.53878
248.50169
248.46333
248.42358
248.38233
248.33949
248.29497
248.24868
248.20055
248.1505
248.09845
248.04428
247.98786
247.92901
247.86745
247.80279
247.73447
247.66173
247.58344
247.49787
247.40237
247.29243
247.15969
246.98541
246.70925
246.08934
244.60191
243.59082
243.32071
243.18689
243.12528
243.06866
243.04988
243.04858
243.059
243.07013
243.07996
243.09024
243.10088
243.11107
243.12097
243.13235
243.14332
243.15246
243.16571
243.18237
243.19401
243.20452
243.22159
243.2413
243.25474
243.28122
243.30923
243.32231
243.3375
243.36839
243.40121
243.42665
243.46279
243.50426
243.52627
243.53461
243.57042
243.6585
243.69193
243.69039
243.73728
243.84216
243.84601
243.87268
243.96025
244.00146
244.08124
244.15976
249.4438
249.4419
249.43771
249.43078
249.42063
249.40682
249.38923
249.36828
249.34482
249.31979
249.29389
249.26753
249.24093
249.2142
249.18736
249.1604
249.13325
249.10587
249.07818
249.0501
249.02152
248.99233
248.96241
248.93165
248.89993
248.86711
248.83307
248.79769
248.76084
248.72241
248.68229
248.64036
248.59654
248.55071
248.50278
248.45263
248.40013
248.34512
248.28737
248.22657
248.16228
248.09389
248.02052
247.94092
247.85327
247.75481
247.64106
247.50373
247.32403
247.04304
246.43003
244.90831
243.69473
243.33584
243.17047
243.09946
243.047
243.03151
243.03239
243.04388
243.05475
243.06395
243.07382
243.08388
243.09298
243.10278
243.11646
243.12875
243.13621
243.14596
243.16452
243.17881
243.18978
243.20342
243.22423
243.23962
243.26011
243.29099
243.31105
243.32188
243.34654
243.38158
243.40972
243.443
243.4879
243.51986
243.52817
243.54457
243.63389
243.68844
243.68735
243.70738
243.82688
243.84477
243.85187
243.94221
244.00191
244.07323
244.14743
244.2268
244.28245
244.33914
244.45542
244.50081
249.66038
249.65877
249.65524
249.6494
249.64085
249.62924
249.61445
249.59683
249.57712
249.55608
249.5343
249.51212
249.48972
249.46719
249.44453
249.42174
249.39877
249.37556
249.35204
249.32812
249.30372
249.27873
249.25307
249.22661
249.19925
249.17087
249.14136
249.1106
249.07848
249.04488
249.00969
248.97281
248.93413
248.89356
248.85098
248.80627
248.7593
248.70989
248.65783
248.60281
248.54442
248.48206
248.41491
248.34179
248.261
248.16998
248.0646
247.93744
247.77206
247.51841
246.98094
245.5272
243.96381
243.40568
243.18706
243.06967
243.00911
242.99522
243.00066
243.01243
243.02181
243.03075
243.04042
243.05097
243.06012
243.07001
243.08649
243.1027
243.11183
243.12013
243.13948
243.15843
243.17248
243.1855
243.20594
243.22502
243.2396
243.26746
243.29763
243.3116
243.33011
243.36176
243.39348
243.42359
243.46607
243.50924
243.52453
243.53199
243.6058
243.68218
243.68506
243.68432
243.81087
243.84124
243.8326
243.93092
244.00177
244.06273
244.14289
244.22359
244.26208
244.34049
244.45063
244.48206
244.61419
244.70952
244.66303
249.84244
249.84111
249.83818
249.83334
249.82625
249.81662
249.80434
249.78971
249.77333
249.75584
249.73771
249.71923
249.70054
249.68172
249.66278
249.64369
249.62442
249.60492
249.58513
249.56499
249.5444
249.52329
249.50156
249.47911
249.45585
249.43166
249.40645
249.38011
249.35255
249.32365
249.29331
249.26144
249.22794
249.19271
249.15566
249.11667
249.07561
249.03234
248.98664
248.93826
248.88681
248.83177
248.77243
248.70774
248.63624
248.55573
248.46278
248.35117
248.207
247.98716
247.52111
246.25678
244.43091
243.55971
243.2156
243.02877
242.95029
242.93699
242.94732
242.96119
242.97101
242.98022
242.99158
243.00336
243.01305
243.02432
243.04332
243.065
243.08018
243.09039
243.10899
243.1328
243.1518
243.16578
243.18379
243.20734
243.21801
243.23712
243.27545
243.29975
243.31512
243.341
243.37613
243.4056
243.4422
243.49321
243.52046
243.52548
243.57269
243.66873
243.68244
243.6703
243.79315
243.83352
243.81927
243.92342
243.9981
244.05055
244.13991
244.21475
244.24706
244.34166
244.43566
244.47115
244.62221
244.69501
244.6527
244.76229
244.90295
244.96312
249.99259
249.99153
249.98921
249.98537
249.97974
249.97208
249.96231
249.95064
249.93754
249.92352
249.90895
249.89406
249.87896
249.8637
249.84831
249.83275
249.817
249.80102
249.78475
249.76815
249.75114
249.73366
249.71562
249.69695
249.67754
249.65732
249.63619
249.61405
249.59081
249.56636
249.54061
249.51348
249.48485
249.45465
249.42276
249.38909
249.35351
249.31587
249.27598
249.23361
249.18841
249.13991
249.08745
249.03009
248.9665
248.89466
248.81134
248.71071
248.57966
248.3778
247.95178
246.83467
244.9625
243.75476
243.25051
242.98731
242.88934
242.87126
242.87966
242.89806
242.91497
242.92973
242.94493
242.96143
242.97482
242.98743
243.00636
243.02937
243.05063
243.06612
243.08077
243.10305
243.12731
243.14386
243.15811
243.18354
243.19959
243.21255
243.24904
243.28449
243.30141
243.3223
243.35695
243.38721
243.41931
243.47228
243.51488
243.52257
243.54256
243.64965
243.68215
243.66342
243.77179
243.82101
243.81471
243.9181
243.99044
244.04766
244.13904
244.20043
244.24368
244.34194
244.41188
244.47156
244.62695
244.67072
244.65281
244.78917
244.90632
244.95771
245.00787
245.0491
245.04741
250.10415
250.10341
250.10177
250.09905
250.09505
250.08959
250.08261
250.07423
250.06478
250.05461
250.04399
250.03307
250.02193
250.01061
249.99912
249.98743
249.97553
249.96337
249.95091
249.93812
249.92494
249.91129
249.89713
249.88237
249.86695
249.85078
249.83379
249.81588
249.79698
249.77699
249.75583
249.73341
249.70963
249.6844
249.65762
249.62917
249.59894
249.56676
249.53246
249.49577
249.45637
249.4138
249.36741
249.31631
249.25916
249.19402
249.11775
249.02472
248.90258
248.71368
248.31265
247.24791
245.49795
244.01753
243.30526
242.97035
242.84797
242.81653
242.81629
242.83106
242.85311
242.87547
242.89844
242.92277
242.94309
242.9576
242.9748
242.99607
243.02191
243.04336
243.0559
243.072
243.09787
243.12001
243.13374
243.15608
243.17938
243.19035
243.21626
243.25857
243.28376
243.30401
243.33521
243.36853
243.40126
243.44931
243.50536
243.51937
243.5182
243.62303
243.68127
243.65817
243.7462
243.80668
243.81413
243.91173
243.97831
244.04645
244.13514
244.17628
244.24382
244.33939
244.3788
244.47364
244.62433
244.63375
244.65545
244.81167
244.90554
244.95175
245.00556
245.04808
245.04233
245.05891
245.0942
250.17342
250.17295
250.17192
250.17021
250.16767
250.16419
250.15972
250.15433
250.1482
250.14157
250.13459
250.12736
250.11993
250.11232
250.10454
250.09656
250.08836
250.07993
250.07121
250.06219
250.05281
250.04302
250.03278
250.02201
250.01066
249.99866
249.98593
249.97241
249.95801
249.94265
249.92625
249.90871
249.88995
249.86987
249.84837
249.82535
249.80066
249.77415
249.74564
249.71487
249.68152
249.64513
249.60508
249.5605
249.51012
249.45205
249.38327
249.29838
249.18535
249.00719
248.61802
247.52577
245.83281
244.26911
243.36917
242.96618
242.82417
242.78637
242.78325
242.7912
242.80734
242.82591
242.85121
242.88205
242.90994
242.92847
242.94327
242.96052
242.98536
243.01095
243.02617
243.03722
243.06163
243.09044
243.11016
243.1302
243.16053
243.17601
243.18931
243.22778
243.2639
243.28779
243.31401
243.34937
243.38664
243.4259
243.48992
243.51612
243.50854
243.59404
243.67997
243.65418
243.71726
243.79332
243.8135
243.90186
243.96967
244.04704
244.1294
244.15869
244.24854
244.33254
244.35541
244.48471
244.62031
244.59989
244.66599
244.8338
244.90408
244.94433
245.00742
245.04587
245.0353
245.05322
245.08989
245.10325
245.167
250.21251
250.21223
250.21161
250.21057
250.20903
250.20692
250.20419
250.20087
250.19709
250.19298
250.18862
250.18408
250.17937
250.17452
250.16952
250.16436
250.15901
250.15346
250.14769
250.14166
250.13533
250.12868
250.12165
250.1142
250.10628
250.09783
250.08879
250.0791
250.06868
250.05746
250.04537
250.03231
250.01821
250.00297
249.98648
249.96862
249.94928
249.92828
249.90544
249.8805
249.85313
249.82291
249.78921
249.75116
249.70753
249.65641
249.59475
249.51701
249.41084
249.238
248.8435
247.67726
245.85593
244.30304
243.37659
242.95806
242.79768
242.76197
242.76375
242.7736
242.78486
242.79667
242.81387
242.84231
242.87237
242.89768
242.91441
242.92838
242.9468
242.97358
242.99623
243.00666
243.02436
243.05675
243.08523
243.10572
243.13841
243.16163
243.16885
243.19384
243.23905
243.27065
243.2936
243.32939
243.3729
243.40458
243.46772
243.5115
243.50701
243.56307
243.67446
243.64835
243.68922
243.78384
243.81224
243.88942
243.96822
244.04677
244.11693
244.14794
244.24942
244.31534
244.34404
244.49495
244.60679
244.5739
244.68303
244.84572
244.89896
244.93754
245.00924
245.04366
245.03061
245.04666
245.0867
245.10203
245.16737
245.18882
250.23157
250.2314
250.23102
250.23037
250.22942
250.2281
250.22638
250.2243
250.22191
250.21929
250.21651
250.21359
250.21055
250.2074
250.20412
250.20072
250.19718
250.19347
250.18959
250.1855
250.18119
250.17662
250.17175
250.16656
250.161
250.15502
250.14857
250.14161
250.13406
250.12588
250.11697
250.10728
250.09672
250.08521
250.07263
250.05888
250.04382
250.02729
250.00911
249.989
249.96666
249.94162
249.91326
249.88071
249.84267
249.79716
249.74095
249.66805
249.56506
249.39019
248.97024
247.69091
245.83262
244.28268
243.36305
242.93089
242.75635
242.722
242.73351
242.75212
242.76515
242.7775
242.78923
242.80783
242.83253
242.86369
242.88812
242.90472
242.91874
242.94167
242.97061
242.98641
242.99704
243.02439
243.05791
243.08191
243.1137
243.14705
243.1583
243.17098
243.21576
243.25478
243.27815
243.31087
243.3579
243.386
243.43996
243.50542
243.50878
243.53496
243.664
243.64386
243.66818
243.77587
243.8078
243.87665
243.96875
244.04433
244.09943
244.14786
244.24952
244.29064
244.34368
244.50084
244.58429
244.56792
244.70893
244.85235
244.89384
244.93267
245.01201
245.04214
245.02362
245.04159
245.08292
245.10049
245.16818
245.19009
245.18679
245.32643
250.24015
250.24003
250.23976
250.23929
250.23861
250.23765
250.23641
250.23489
250.23314
250.23123
250.22918
250.22703
250.22478
250.22245
250.22001
250.21748
250.21483
250.21205
250.20913
250.20606
250.20279
250.19933
250.19563
250.19166
250.1874
250.1828
250.17783
250.17243
250.16656
250.16016
250.15317
250.14552
250.13714
250.12795
250.11785
250.10675
250.0945
250.08096
250.06593
250.04917
250.03035
250.00903
249.98459
249.95613
249.92233
249.88113
249.82909
249.75975
249.6584
249.47874
249.0264
247.63537
245.75093
244.22166
243.31162
242.89258
242.71923
242.68019
242.6977
242.72407
242.74364
242.76066
242.77324
242.78195
242.79721
242.83046
242.86347
242.88614
242.90094
242.9183
242.94708
242.97156
242.98216
243.0007
243.03309
243.05982
243.0849
243.12554
243.14869
243.15641
243.19246
243.23645
243.26485
243.29317
243.33984
243.37035
243.41135
243.49595
243.5114
243.50954
243.64558
243.63947
243.65425
243.76781
243.80114
243.87082
243.97036
244.03756
244.08095
244.14816
244.24431
244.26062
244.34662
244.49925
244.54695
244.56567
244.73283
244.85266
244.88313
244.93021
245.01478
245.03884
245.0192
245.03553
245.07965
245.09996
245.1687
245.19199
245.18828
245.32705
245.2408
250.24596
250.24585
250.24559
250.24516
250.24452
250.24363
250.24248
250.24108
250.23948
250.23773
250.23587
250.23392
250.2319
250.22981
250.22764
250.22539
250.22304
250.2206
250.21804
250.21534
250.2125
250.20948
250.20627
250.20284
250.19915
250.19518
250.19088
250.18623
250.18116
250.17565
250.16962
250.16302
250.1558
250.14786
250.13914
250.12952
250.1189
250.10714
250.09405
250.0794
250.06289
250.04409
250.0224
249.99697
249.96648
249.92887
249.88066
249.81517
249.71689
249.53613
249.05788
247.50803
245.53041
244.07637
243.22996
242.85559
242.70321
242.66541
242.67765
242.70421
242.72983
242.75063
242.76826
242.77615
242.78176
242.8008
242.83482
242.86355
242.88355
242.89707
242.92121
242.95335
242.97021
242.98345
243.01045
243.0373
243.05773
243.1011
243.13962
243.15028
243.17486
243.21847
243.25463
243.27966
243.3207
243.35809
243.38787
243.48192
243.51365
243.49084
243.62245
243.63827
243.64647
243.75754
243.79567
243.87025
243.97042
244.02236
244.06784
244.14895
244.23247
244.24551
244.3598
244.49523
244.50678
244.57006
244.75865
244.85112
244.8733
244.93134
245.01667
245.03722
245.01324
245.03065
245.07653
245.09829
245.16975
245.19365
245.18931
245.32752
245.24237
245.28554
250.25505
250.25494
250.2547
250.2543
250.25371
250.2529
250.25186
250.25059
250.24915
250.24758
250.24591
250.24417
250.24236
250.24048
250.23855
250.23654
250.23445
250.23227
250.22999
250.22759
250.22506
250.22238
250.21952
250.21647
250.21319
250.20966
250.20584
250.2017
250.1972
250.1923
250.18694
250.18108
250.17465
250.16759
250.15982
250.15126
250.14179
250.1313
250.11961
250.10652
250.09174
250.07488
250.0554
250.03248
250.00492
249.97076
249.92666
249.86618
249.77403
249.6003
249.121
247.4964
245.38881
243.92748
243.17102
242.8193
242.68183
242.64648
242.65231
242.67828
242.71074
242.73772
242.76157
242.77474
242.78184
242.78559
242.80389
242.83236
242.8591
242.87594
242.89366
242.9295
242.95722
242.96791
242.98757
243.01543
243.03532
243.07324
243.1235
243.14318
243.15931
243.19791
243.24308
243.26835
243.30145
243.34838
243.37257
243.46143
243.51338
243.4774
243.59547
243.6374
243.6398
243.74329
243.79558
243.87104
243.96859
244.00091
244.06415
244.14849
244.20987
244.24064
244.37551
244.48313
244.47116
244.58106
244.77369
244.84571
244.86018
244.93208
245.01876
245.03329
245.00895
245.02575
245.07339
245.09858
245.17053
245.19561
245.1911
245.32822
245.24265
245.28644
245.35535
245.24178
250.26504
250.26495
250.26476
250.26445
250.26399
250.26336
250.26255
250.26156
250.26044
250.25922
250.25791
250.25654
250.25511
250.25362
250.25207
250.25045
250.24876
250.24698
250.24511
250.24313
250.24103
250.23879
250.23639
250.23382
250.23104
250.22804
250.22478
250.22122
250.21734
250.2131
250.20843
250.20331
250.19767
250.19146
250.18459
250.17699
250.16857
250.15919
250.14871
250.13694
250.12361
250.10838
250.09074
250.06996
250.04494
250.01392
249.97388
249.91895
249.8352
249.67653
249.23007
247.61418
245.4129
243.87978
243.12598
242.7852
242.65606
242.62249
242.6231
242.6458
242.68068
242.71242
242.74146
242.7615
242.77371
242.77439
242.77622
242.79552
242.82672
242.85268
242.86805
242.90146
242.94225
242.95564
242.96694
242.99386
243.01756
243.04663
243.10015
243.13462
243.14819
243.17775
243.23013
243.25955
243.28575
243.33993
243.36379
243.43429
243.5113
243.47517
243.56965
243.63666
243.63353
243.72758
243.79739
243.87129
243.9613
243.97807
244.06389
244.14489
244.18225
244.24279
244.38797
244.46225
244.45586
244.60172
244.78529
244.83862
244.8504
244.93636
245.01912
245.03075
245.00469
245.02104
245.07094
245.09723
245.17155
245.19739
245.19194
245.32859
245.24367
245.28766
245.35687
245.24264
245.38944
250.2708
250.27071
250.27051
250.27017
250.26967
250.26899
250.26812
250.26707
250.26588
250.26459
250.26323
250.26182
250.26037
250.25887
250.25734
250.25577
250.25414
250.25246
250.25071
250.24888
250.24696
250.24493
250.24276
250.24046
250.23797
250.23529
250.23239
250.22922
250.22575
250.22195
250.21776
250.21313
250.20802
250.20235
250.19606
250.18906
250.18125
250.17252
250.16272
250.15166
250.13909
250.12466
250.10789
250.08809
250.06421
250.03458
249.99637
249.94412
249.86498
249.71657
249.3044
247.84333
245.56352
243.89592
243.09192
242.75458
242.63101
242.6013
242.5989
242.61599
242.64626
242.67721
242.70603
242.73204
242.75355
242.76008
242.75775
242.76693
242.79405
242.82791
242.84611
242.87197
242.91948
242.94442
242.95372
242.97646
243.00323
243.01972
243.06589
243.11839
243.13583
243.15605
243.21179
243.24931
243.27214
243.32995
243.35854
243.40254
243.50439
243.47554
243.54311
243.63243
243.62372
243.71402
243.80106
243.86969
243.94748
243.96535
244.06407
244.13573
244.16026
244.25138
244.38827
244.42776
244.45058
244.62455
244.78556
244.82606
244.84285
244.93795
245.01931
245.02675
245.00059
245.01761
245.06843
245.09793
245.17268
245.19917
245.19381
245.32917
245.24367
245.28856
245.35871
245.2426
245.39098
245.38882
250.27571
250.27554
250.27516
250.27453
250.27359
250.27231
250.27067
250.26873
250.26656
250.26425
250.26189
250.2595
250.25711
250.25472
250.25234
250.24997
250.24758
250.24517
250.24273
250.24025
250.23771
250.23509
250.23237
250.22954
250.22657
250.22343
250.22011
250.21656
250.21276
250.20867
250.20424
250.19942
250.19416
250.1884
250.18206
250.17505
250.16726
250.15858
250.14884
250.13784
250.12532
250.11091
250.09411
250.07419
250.05006
250.02002
249.98115
249.92786
249.84707
249.69624
249.293
247.91194
245.70067
243.93161
243.06734
242.71632
242.58741
242.55814
242.55485
242.56476
242.58653
242.61229
242.63665
242.66854
242.70718
242.73367
242.74171
242.74602
242.76087
242.79513
242.82183
242.83514
242.87726
242.92364
242.93891
242.95999
242.99114
242.99983
243.02749
243.09508
243.12437
243.13787
243.19052
243.23803
243.26059
243.31692
243.35439
243.37079
243.49154
243.4777
243.51961
243.62515
243.61713
243.70658
243.8043
243.86317
243.92915
243.96332
244.06335
244.11996
244.15418
244.26907
244.38648
244.39053
244.45268
244.64865
244.78577
244.81449
244.83976
244.94197
245.01786
245.02263
244.99752
245.01334
245.0666
245.09682
245.17353
245.20085
245.19433
245.32945
245.24402
245.2898
245.36077
245.24273
245.39244
245.39306
245.15392
250.28639
250.28607
250.28536
250.28415
250.28237
250.27993
250.2768
250.27304
250.2688
250.26426
250.25955
250.25473
250.24986
250.24498
250.2401
250.23523
250.23035
250.22546
250.22053
250.21554
250.21049
250.20533
250.20006
250.19465
250.18906
250.18327
250.17726
250.17098
250.1644
250.15749
250.1502
250.14249
250.1343
250.12558
250.11624
250.10619
250.09532
250.08349
250.0705
250.05611
250.03998
250.02165
250.00047
249.97549
249.94532
249.90775
249.85912
249.79265
249.69311
249.51432
249.05982
247.6667
245.61111
243.87422
242.98693
242.62096
242.50561
242.48871
242.49619
242.50839
242.52297
242.54071
242.55776
242.58414
242.62876
242.67936
242.71042
242.71712
242.72302
242.74579
242.77925
242.78911
242.81319
242.88132
242.91572
242.93953
242.97496
242.98423
242.98875
243.06169
243.10897
243.12037
243.1645
243.22263
243.24824
243.29872
243.34977
243.34513
243.47242
243.47907
243.49555
243.61045
243.61531
243.70411
243.80537
243.85056
243.9123
243.96437
244.05935
244.09772
244.15496
244.2857
244.37745
244.3567
244.45853
244.66415
244.78179
244.79701
244.83771
244.94322
245.01568
245.01891
244.99415
245.0115
245.0653
245.09766
245.17492
245.20229
245.19605
245.32981
245.24395
245.29078
245.36302
245.24217
245.39374
245.39744
245.15409
245.33466
250.3144
250.31385
250.31265
250.31064
250.30767
250.30362
250.29845
250.29227
250.28534
250.27797
250.27036
250.26266
250.25492
250.24717
250.23939
250.23154
250.22362
250.21561
250.20749
250.19922
250.19077
250.18209
250.17316
250.16392
250.15432
250.14431
250.13383
250.12282
250.11121
250.09895
250.08597
250.07223
250.05768
250.04221
250.02572
250.00807
249.98908
249.96853
249.94615
249.92155
249.89419
249.86335
249.82798
249.78654
249.73671
249.6748
249.59456
249.48412
249.31546
248.99951
248.18805
246.43688
244.92255
243.52136
242.8035
242.53469
242.48513
242.48862
242.50269
242.51799
242.52927
242.54289
242.55397
242.56722
242.59321
242.6405
242.68999
242.71432
242.71881
242.72837
242.75471
242.77468
242.78069
242.83285
242.89125
242.91907
242.95311
242.97294
242.97322
243.02746
243.0919
243.10818
243.13983
243.20461
243.23598
243.27609
243.3437
243.32888
243.44823
243.4785
243.47252
243.59294
243.61722
243.70456
243.80383
243.8319
243.90349
243.96692
244.05069
244.07993
244.16151
244.29437
244.3598
244.3421
244.47466
244.67486
244.77561
244.78519
244.83909
244.9461
245.01193
245.01407
244.99205
245.00802
245.06362
245.09687
245.17546
245.20364
245.1962
245.32997
245.24382
245.29217
245.36548
245.24157
245.39511
245.40198
245.15405
245.33256
245.70822
250.38576
250.385
250.38333
250.38057
250.37652
250.37102
250.36401
250.35564
250.34625
250.33623
250.32585
250.3153
250.30467
250.29403
250.2834
250.27277
250.26214
250.25148
250.24075
250.2299
250.2189
250.20768
250.1962
250.1844
250.1722
250.15955
250.14638
250.1326
250.11815
250.10292
250.0868
250.0696
250.05114
250.03127
250.00981
249.98656
249.96126
249.9336
249.90314
249.86934
249.83141
249.78827
249.73832
249.67918
249.60718
249.51628
249.39589
249.22492
248.95482
248.43265
247.10218
244.77313
243.72321
243.10555
242.72532
242.56903
242.54178
242.56844
242.59047
242.60977
242.61652
242.62285
242.62111
242.61239
242.61828
242.65053
242.69493
242.72575
242.7351
242.74117
242.76115
242.78317
242.78591
242.8116
242.87375
242.90506
242.93058
242.96095
242.96683
242.99302
243.06729
243.09523
243.11468
243.18159
243.221
243.25051
243.33579
243.3214
243.42122
243.47453
243.45348
243.57437
243.62058
243.70316
243.79607
243.81735
243.90333
243.96918
244.03612
244.07383
244.17483
244.2948
244.3323
244.33863
244.49595
244.67499
244.76462
244.77335
244.83967
244.94688
245.00739
245.0101
244.99031
245.00763
245.06366
245.09775
245.17699
245.20481
245.19754
245.33025
245.24387
245.29331
245.36807
245.24021
245.39634
245.40671
245.15387
245.33037
245.70915
245.37305
250.47681
250.47618
250.47481
250.47254
250.46919
250.4646
250.45869
250.45155
250.4434
250.43454
250.42519
250.41548
250.40549
250.39527
250.38484
250.37421
250.36337
250.35229
250.34094
250.32929
250.3173
250.30489
250.29203
250.27865
250.26468
250.25003
250.23465
250.21843
250.20129
250.18314
250.16387
250.1434
250.12164
250.09843
250.07361
250.04697
250.01823
249.98708
249.95305
249.91557
249.8738
249.82659
249.77224
249.70826
249.63073
249.53333
249.40493
249.22385
248.93744
248.37598
246.93553
244.4128
243.211
242.81075
242.67374
242.61145
242.5962
242.59787
242.61985
242.63256
242.64817
242.66072
242.67157
242.66789
242.65882
242.66173
242.69238
242.72679
242.7453
242.75242
242.7657
242.78813
242.79039
242.799
242.85113
242.88746
242.90845
242.94715
242.96571
242.97064
243.03989
243.08498
243.09729
243.1578
243.20723
243.22789
243.32576
243.31752
243.39279
243.46548
243.44604
243.56062
243.62617
243.70039
243.78401
243.81374
243.9045
243.96886
244.01698
244.07501
244.19227
244.29315
244.30394
244.34101
244.52141
244.67538
244.75191
244.76849
244.84362
244.94852
245.00171
245.00417
244.98795
245.00599
245.06286
245.09715
245.17736
245.20568
245.19737
245.33035
245.24365
245.2949
245.37091
245.23921
245.39768
245.41165
245.15362
245.32815
245.70983
245.37537
250.5301
250.53006
250.53
250.52989
250.52972
250.52943
250.52896
250.52823
250.52716
250.52573
250.52391
250.52171
250.51915
250.51623
250.51295
250.50928
250.50522
250.50075
250.49584
250.49046
250.48458
250.47816
250.47113
250.46344
250.45503
250.44582
250.43573
250.42467
250.41254
250.39924
250.38465
250.36867
250.35116
250.332
250.31102
250.28804
250.26286
250.23519
250.2047
250.1709
250.13314
250.09049
250.04159
249.98439
249.91566
249.83008
249.71806
249.55999
249.30693
248.79399
247.38934
244.61142
243.1929
242.69564
242.55962
242.59284
242.59445
242.59022
242.61012
242.62352
242.6394
242.6539
242.66832
242.67066
242.66143
242.65724
242.6773
242.71455
242.73867
242.7471
242.75816
242.77991
242.78379
242.78067
242.81862
242.86062
242.88242
242.92711
242.96181
242.95569
243.00803
243.07194
243.08308
243.13248
243.19347
243.20856
243.31071
243.31455
243.36647
243.45219
243.44537
243.55226
243.63064
243.69384
243.7688
243.81415
243.90499
243.96501
244.00161
244.07954
244.20437
244.28364
244.28056
244.34876
244.54072
244.6708
244.73445
244.76445
244.84518
244.94778
244.99495
244.99908
244.98697
245.00653
245.06397
245.09811
245.17885
245.20681
245.19811
245.33083
245.24388
245.2963
245.37382
245.23749
245.39873
245.4168
245.15331
245.32597
245.71038
245.37786
245.25788
250.51597
250.51638
250.5173
250.51883
250.52108
250.52413
250.528
250.53262
250.53779
250.54328
250.5489
250.55453
250.56006
250.56546
250.57068
250.57569
250.58046
250.58497
250.58916
250.59303
250.59659
250.5998
250.60265
250.60513
250.60718
250.60877
250.60985
250.61035
250.61021
250.60934
250.60766
250.60506
250.60143
250.59666
250.59059
250.5831
250.57402
250.56315
250.55028
250.5351
250.51726
250.49622
250.47125
250.44125
250.40449
250.35807
250.2968
250.20988
250.06971
249.78334
248.92795
246.19879
243.6724
242.78016
242.4943
242.49345
242.53551
242.54583
242.56447
242.58163
242.59833
242.61533
242.63417
242.64588
242.64154
242.63416
242.64274
242.67571
242.71129
242.7269
242.73652
242.75738
242.76698
242.75857
242.78226
242.82796
242.85442
242.90195
242.95353
242.94828
242.97966
243.05796
243.07698
243.11199
243.18323
243.19694
243.29167
243.31079
243.34264
243.43616
243.44718
243.54859
243.63244
243.68333
243.75803