/*--------------------------------*- C++ -*----------------------------------*\
| =========                 |                                                 |
| \\      /  F ield         | OpenFOAM: The Open Source CFD Toolbox           |
|  \\    /   O peration     | Version:  2506                                  |
|   \\  /    A nd           | Website:  www.openfoam.com                      |
|    \\/     M anipulation  |                                                 |
\*---------------------------------------------------------------------------*/
FoamFile
{
    version     2.0;
    format      ascii;
    arch        "LSB;label=32;scalar=64";
    class       volScalarField;
    location    "0.0225";
    object      alphat;
}
// * * * * * * * * * * * * * * * * * * * * * * * * * * * * * * * * * * * * * //

dimensions      [1 -1 -1 0 0 0 0];

internalField   nonuniform List<scalar> 
13761
(
3.8081062e-09
8.2134671e-08
6.5666843e-07
3.0916423e-06
1.0200612e-05
2.5519079e-05
5.1802177e-05
9.0048531e-05
0.00013984866
0.00019951397
0.00026753635
0.0003419393
0.00042146866
0.00050466106
0.00059079998
0.00067883545
0.00076804038
0.00085746901
0.00094581892
0.0010319621
0.0011144611
0.0011924436
0.0012645852
0.0013309022
0.0013900543
0.0014430275
0.0014874098
0.0015232041
0.0015462163
0.001553822
0.0015439728
0.0015125158
0.0014617009
0.0013887464
0.001299414
0.0011970642
0.0010920746
0.0009983351
0.00093819086
0.00092365878
0.00095261525
0.0010079622
0.0010743286
0.0011440361
0.0012225729
0.0013054716
0.0013710755
0.0013996699
0.0013715479
0.0012728988
0.0011031476
0.00087829243
0.00059929401
0.00030196498
8.9509066e-05
1.9848955e-05
8.5313486e-06
6.9843528e-06
6.7559086e-06
6.7176374e-06
6.7026251e-06
6.6946267e-06
6.6915373e-06
6.6887589e-06
6.6861756e-06
6.6784105e-06
6.6455773e-06
6.6253424e-06
6.6403205e-06
6.6829904e-06
6.7056546e-06
6.7065926e-06
6.7032515e-06
6.7004186e-06
6.6955446e-06
6.6906634e-06
6.6860635e-06
6.6819453e-06
6.6825037e-06
6.6826445e-06
6.6712581e-06
6.6706617e-06
6.6843361e-06
6.6779839e-06
6.6457228e-06
6.6378805e-06
6.664081e-06
6.7171137e-06
6.7479271e-06
6.7407017e-06
6.7151164e-06
6.6852116e-06
6.6686106e-06
6.6650135e-06
6.6641943e-06
6.6637491e-06
6.6657207e-06
6.6696883e-06
6.6725237e-06
6.6741542e-06
6.6769842e-06
6.6768882e-06
6.6719854e-06
6.6683719e-06
6.6612507e-06
6.6521045e-06
6.6425884e-06
6.6176229e-06
6.5908088e-06
6.5748206e-06
6.5630352e-06
6.5436661e-06
6.5168722e-06
6.5002097e-06
6.4997247e-06
6.5062231e-06
6.5207057e-06
6.5360141e-06
6.5500572e-06
6.5648683e-06
6.5738227e-06
6.5744795e-06
6.5728608e-06
6.5717318e-06
6.5717521e-06
6.5713763e-06
6.5715381e-06
6.572735e-06
6.5729614e-06
6.5760035e-06
6.5766547e-06
6.5763054e-06
6.5796829e-06
6.5786664e-06
6.5765645e-06
6.5819114e-06
6.5870816e-06
6.5821456e-06
5.2372261e-11
1.8137047e-10
3.2139278e-09
2.8173407e-08
1.4741386e-07
5.4718848e-07
1.5671008e-06
3.6201628e-06
7.0429411e-06
1.1963133e-05
1.8433356e-05
2.6373764e-05
3.5785869e-05
4.6476242e-05
5.8442335e-05
7.1486472e-05
8.5712604e-05
0.00010096368
0.00011743747
0.00013503662
0.00015396679
0.00017409994
0.00019557419
0.00021834657
0.00024265449
0.00026852884
0.00029603312
0.00032521369
0.0003561174
0.0003887827
0.00042337248
0.00045976152
0.00049817416
0.00053824818
0.00058064422
0.0006254066
0.00067306073
0.00072428431
0.00077974887
0.00084034521
0.0009065673
0.0009790647
0.0010582749
0.0011431799
0.0012290532
0.0013060351
0.0013589366
0.0013687278
0.0013182548
0.0011991438
0.0010150055
0.0007764921
0.00049015459
0.00020918582
4.7025546e-05
1.223244e-05
7.5786989e-06
6.8577576e-06
6.7460527e-06
6.7219235e-06
6.7097713e-06
6.7014447e-06
6.6950366e-06
6.6894114e-06
6.6843521e-06
6.6665852e-06
6.6306144e-06
6.627274e-06
6.6580108e-06
6.6979112e-06
6.7093647e-06
6.7059153e-06
6.7019158e-06
6.6990557e-06
6.6948944e-06
6.6903722e-06
6.6858292e-06
6.6816241e-06
6.6825662e-06
6.6823598e-06
6.6709383e-06
6.6709028e-06
6.6845845e-06
6.6772026e-06
6.6448435e-06
6.6381788e-06
6.6655193e-06
6.7182909e-06
6.7477579e-06
6.7401141e-06
6.7142759e-06
6.6847227e-06
6.6685386e-06
6.6651189e-06
6.6643214e-06
6.6638583e-06
6.6659399e-06
6.6698727e-06
6.672642e-06
6.6744371e-06
6.6772016e-06
6.6769438e-06
6.6721183e-06
6.6685153e-06
6.6612105e-06
6.6521713e-06
6.6425163e-06
6.6173831e-06
6.5906976e-06
6.5747425e-06
6.5629028e-06
6.5434788e-06
6.5165323e-06
6.5000554e-06
6.4994296e-06
6.5060571e-06
6.520631e-06
6.536031e-06
6.5500952e-06
6.5648747e-06
6.5737806e-06
6.5744151e-06
6.5726965e-06
6.571447e-06
6.5712843e-06
6.5709786e-06
6.571545e-06
6.5728284e-06
6.5732644e-06
6.5762823e-06
6.5767292e-06
6.5763395e-06
6.579673e-06
6.5786999e-06
6.5766211e-06
6.5818979e-06
6.5872067e-06
6.5819055e-06
2.6846375e-11
9.8664489e-11
1.9250002e-09
1.7869038e-08
9.7716609e-08
3.7767355e-07
1.1272418e-06
2.7166085e-06
5.4905469e-06
9.6167451e-06
1.5144199e-05
2.2003214e-05
3.0193207e-05
3.9620271e-05
5.0345579e-05
6.2287491e-05
7.5567949e-05
9.0115279e-05
0.00010608909
0.00012341864
0.00014229266
0.00016264343
0.0001846577
0.00020824414
0.00023354066
0.00026048105
0.00028923382
0.00031969853
0.00035207227
0.00038619512
0.00042232451
0.0004602543
0.0005002503
0.00054204124
0.00058554349
0.00063105471
0.00067904703
0.00073036868
0.00078586477
0.00084648509
0.00091244966
0.00098467107
0.0010638154
0.0011482585
0.0012328361
0.0013071949
0.0013557162
0.0013594083
0.0013018977
0.0011762571
0.00098714606
0.00074566012
0.00045741708
0.00018287869
3.9022605e-05
1.1300694e-05
7.4332662e-06
6.832536e-06
6.7427968e-06
6.7235227e-06
6.7122223e-06
6.701716e-06
6.6922337e-06
6.6843596e-06
6.6745447e-06
6.64673e-06
6.6231589e-06
6.6315537e-06
6.6740844e-06
6.7038066e-06
6.7066855e-06
6.7034851e-06
6.7012822e-06
6.6988158e-06
6.6950703e-06
6.6905527e-06
6.6858986e-06
6.681606e-06
6.6827277e-06
6.682445e-06
6.6708459e-06
6.6708946e-06
6.6848396e-06
6.6770991e-06
6.6445328e-06
6.6382036e-06
6.6657131e-06
6.71822e-06
6.7476054e-06
6.7399927e-06
6.71417e-06
6.6848882e-06
6.668629e-06
6.6651906e-06
6.6643432e-06
6.6639597e-06
6.6661825e-06
6.6700025e-06
6.672732e-06
6.6747212e-06
6.6774108e-06
6.6770428e-06
6.6723478e-06
6.6687789e-06
6.6613939e-06
6.652436e-06
6.6427633e-06
6.6174165e-06
6.590927e-06
6.5747803e-06
6.5628199e-06
6.5435065e-06
6.5163264e-06
6.4999179e-06
6.4990901e-06
6.5058022e-06
6.5204207e-06
6.5359618e-06
6.5500346e-06
6.5648015e-06
6.5736469e-06
6.574317e-06
6.5723873e-06
6.5710704e-06
6.5708254e-06
6.5706967e-06
6.5716066e-06
6.5730141e-06
6.5738019e-06
6.5764758e-06
6.5767808e-06
6.5763318e-06
6.5796872e-06
6.5787511e-06
6.5767017e-06
6.581901e-06
6.5873279e-06
6.5816079e-06
3.0632531e-11
1.0101713e-10
1.9071992e-09
1.7680981e-08
9.658609e-08
3.7281746e-07
1.1096661e-06
2.6701388e-06
5.3891666e-06
9.4475195e-06
1.4882608e-05
2.1657084e-05
2.9734475e-05
3.9077915e-05
4.9692064e-05
6.1573871e-05
7.4768086e-05
8.9295796e-05
0.00010522306
0.00012257733
0.00014144559
0.00016185699
0.00018389422
0.0002075735
0.00023296363
0.00026003887
0.00028887726
0.00031946894
0.00035187923
0.00038608227
0.00042211282
0.00045995016
0.00049964339
0.00054143656
0.00058555332
0.00063206407
0.00068118852
0.00073328439
0.00078901591
0.00084937812
0.00091554735
0.0009884763
0.0010682124
0.0011526951
0.0012363118
0.0013083403
0.0013527872
0.0013508591
0.0012868943
0.0011550675
0.00096089044
0.00071571641
0.00042442971
0.00015719858
3.2280665e-05
1.0449866e-05
7.2823328e-06
6.8024412e-06
6.7339845e-06
6.7199153e-06
6.7113321e-06
6.6996989e-06
6.6860588e-06
6.6736477e-06
6.6539684e-06
6.6241957e-06
6.6219195e-06
6.6472644e-06
6.6892481e-06
6.7081918e-06
6.7061979e-06
6.7022081e-06
6.699513e-06
6.6974937e-06
6.6946169e-06
6.6904429e-06
6.6856451e-06
6.6815616e-06
6.6829587e-06
6.6823279e-06
6.6706173e-06
6.6709049e-06
6.6849495e-06
6.676779e-06
6.6440857e-06
6.6383085e-06
6.6660317e-06
6.7182407e-06
6.7473708e-06
6.7397556e-06
6.7139856e-06
6.6849816e-06
6.668834e-06
6.665353e-06
6.6644282e-06
6.6640217e-06
6.6663967e-06
6.6701098e-06
6.6729688e-06
6.6750148e-06
6.6775821e-06
6.6771764e-06
6.6726106e-06
6.6690476e-06
6.6614964e-06
6.6526939e-06
6.642869e-06
6.6174154e-06
6.5910519e-06
6.5747791e-06
6.5627246e-06
6.5434738e-06
6.516082e-06
6.4997736e-06
6.4987996e-06
6.5056004e-06
6.520232e-06
6.5359022e-06
6.5499991e-06
6.5647559e-06
6.5735322e-06
6.5741493e-06
6.571902e-06
6.5705416e-06
6.5703855e-06
6.570542e-06
6.5717101e-06
6.5734167e-06
6.5741997e-06
6.5765983e-06
6.5768305e-06
6.5763203e-06
6.5797238e-06
6.5788104e-06
6.5767591e-06
6.5819431e-06
6.5872845e-06
3.2779995e-11
1.0768906e-10
2.0314256e-09
1.8824791e-08
1.0271955e-07
3.9554783e-07
1.1726628e-06
2.8062019e-06
5.6278294e-06
9.8037765e-06
1.5359717e-05
2.2252454e-05
3.0446915e-05
3.9907018e-05
5.0640937e-05
6.2649023e-05
7.598043e-05
9.0662156e-05
0.00010676339
0.00012432048
0.00014341771
0.00016409457
0.00018642629
0.00021044587
0.00023620927
0.00026373242
0.00029306147
0.0003241978
0.00035718401
0.0003919958
0.00042867088
0.00046717735
0.00050757513
0.00054987361
0.00059421476
0.00064083899
0.00069008636
0.00074235797
0.00079826169
0.00085897184
0.00092557115
0.00099886096
0.0010785917
0.0011623543
0.0012439856
0.001312239
0.0013508287
0.001341321
0.0012692153
0.0011302383
0.0009308604
0.00068239086
0.00038912292
0.00013236481
2.678682e-05
9.790208e-06
7.1676782e-06
6.7748879e-06
6.7209657e-06
6.7090706e-06
6.7012935e-06
6.6890118e-06
6.6726494e-06
6.6533596e-06
6.6258611e-06
6.6122485e-06
6.6239335e-06
6.6707913e-06
6.6976881e-06
6.7049187e-06
6.7022088e-06
6.7001411e-06
6.6984725e-06
6.6965173e-06
6.6938173e-06
6.6902544e-06
6.6857762e-06
6.6819199e-06
6.6834597e-06
6.682297e-06
6.6705683e-06
6.6709861e-06
6.6850246e-06
6.6764253e-06
6.6436135e-06
6.63836e-06
6.6663096e-06
6.7181849e-06
6.7471643e-06
6.7395644e-06
6.7138395e-06
6.6851208e-06
6.6689837e-06
6.6654503e-06
6.664491e-06
6.6641055e-06
6.6665983e-06
6.6702147e-06
6.6732113e-06
6.6753464e-06
6.6777719e-06
6.6773056e-06
6.6728789e-06
6.6693251e-06
6.6616331e-06
6.6529659e-06
6.6429828e-06
6.6174237e-06
6.5912216e-06
6.5747867e-06
6.5626234e-06
6.5434368e-06
6.5158091e-06
6.4996192e-06
6.4984606e-06
6.5054062e-06
6.5200474e-06
6.5358293e-06
6.5499584e-06
6.5647101e-06
6.5734159e-06
6.5738327e-06
6.5713273e-06
6.5699935e-06
6.5700666e-06
6.5704976e-06
6.5719224e-06
6.5738972e-06
6.574505e-06
6.5766746e-06
6.5768413e-06
6.5763116e-06
6.5797556e-06
6.5788952e-06
6.5767746e-06
6.5820686e-06
6.5870627e-06
3.6119178e-11
1.1652934e-10
2.1854741e-09
2.0234122e-08
1.1019584e-07
4.226593e-07
1.2447635e-06
2.9540953e-06
5.8720236e-06
1.0149399e-05
1.5796188e-05
2.2770765e-05
3.1031056e-05
4.0554689e-05
5.1341544e-05
6.3410579e-05
7.6797344e-05
9.1548723e-05
0.0001077128
0.00012534446
0.0001445081
0.00016526754
0.0001876844
0.0002118149
0.00023770264
0.00026538474
0.00029488193
0.00032620249
0.00035934915
0.00039432247
0.00043112559
0.00046977293
0.00051029602
0.00055268498
0.00059705425
0.0006436396
0.00069280421
0.00074508188
0.00080126436
0.00086232224
0.0009292636
0.0010027692
0.001082449
0.0011656423
0.0012458703
0.0013115731
0.0013463265
0.0013319597
0.0012547026
0.0011112227
0.00090850916
0.00065777505
0.00036320067
0.00011533059
2.3576066e-05
9.3228256e-06
7.0770645e-06
6.7551715e-06
6.7109826e-06
6.6997199e-06
6.6925625e-06
6.6802449e-06
6.6587672e-06
6.6292779e-06
6.6060307e-06
6.6096085e-06
6.653345e-06
6.692621e-06
6.7019848e-06
6.7030155e-06
6.7006119e-06
6.6978398e-06
6.6957432e-06
6.6945869e-06
6.6921277e-06
6.6893302e-06
6.6854031e-06
6.6822749e-06
6.6837511e-06
6.6820662e-06
6.6703386e-06
6.6709804e-06
6.6848976e-06
6.675968e-06
6.6430902e-06
6.6383725e-06
6.6665679e-06
6.7181153e-06
6.7469747e-06
6.7394088e-06
6.713771e-06
6.6853295e-06
6.6691838e-06
6.6655513e-06
6.6645388e-06
6.6642238e-06
6.6668306e-06
6.6703621e-06
6.6735272e-06
6.6756598e-06
6.6779364e-06
6.6774481e-06
6.6731587e-06
6.6695979e-06
6.6617887e-06
6.6532722e-06
6.643084e-06
6.6174273e-06
6.5913695e-06
6.5747717e-06
6.5625067e-06
6.5433779e-06
6.5155061e-06
6.4994517e-06
6.4981063e-06
6.5052052e-06
6.5198678e-06
6.535759e-06
6.5499284e-06
6.5646623e-06
6.5732603e-06
6.5733383e-06
6.5707695e-06
6.5695065e-06
6.5698895e-06
6.5705409e-06
6.5723394e-06
6.5743134e-06
6.5747013e-06
6.576732e-06
6.5768476e-06
6.5763155e-06
6.5797972e-06
6.5789916e-06
6.5767496e-06
6.5821703e-06
6.5867712e-06
3.99211e-11
1.2489393e-10
2.3185861e-09
2.1441664e-08
1.1655505e-07
4.4545413e-07
1.3047466e-06
3.0756149e-06
6.0710405e-06
1.0428798e-05
1.6151456e-05
2.3197115e-05
3.1527349e-05
4.1124078e-05
5.199189e-05
6.4154135e-05
7.7651138e-05
9.2533889e-05
0.0001088558
0.00012667374
0.00014605209
0.00016704671
0.00018970546
0.00021408695
0.00024023404
0.0002681788
0.00029792836
0.00032949111
0.00036287202
0.00039806325
0.00043506449
0.00047387066
0.00051450557
0.00055701636
0.00060151376
0.00064824641
0.00069755538
0.00075001537
0.00080641434
0.00086771688
0.00093489933
0.0010085548
0.0010881069
0.0011705877
0.0012491106
0.0013117214
0.0013418442
0.0013216529
0.0012382912
0.0010894938
0.00088279229
0.00062926266
0.00033347313
9.7584978e-05
2.059935e-05
8.9025007e-06
6.9980666e-06
6.7364881e-06
6.6996316e-06
6.6883618e-06
6.6798221e-06
6.6666455e-06
6.64169e-06
6.6100591e-06
6.5996806e-06
6.6340514e-06
6.6844479e-06
6.7014995e-06
6.7031003e-06
6.7007716e-06
6.6976859e-06
6.6951812e-06
6.6931001e-06
6.6918556e-06
6.690009e-06
6.688565e-06
6.6856584e-06
6.6828998e-06
6.6842166e-06
6.6819732e-06
6.6702086e-06
6.6709102e-06
6.684709e-06
6.6755772e-06
6.6426525e-06
6.6383454e-06
6.6667779e-06
6.7180289e-06
6.7468284e-06
6.7392833e-06
6.7137262e-06
6.6855271e-06
6.6693294e-06
6.6655989e-06
6.6645608e-06
6.6643665e-06
6.6670043e-06
6.6705008e-06
6.6739174e-06
6.676014e-06
6.6780954e-06
6.6775846e-06
6.6734433e-06
6.66987e-06
6.6619522e-06
6.6535836e-06
6.6431652e-06
6.6174338e-06
6.5915236e-06
6.5747636e-06
6.5623938e-06
6.543304e-06
6.5151596e-06
6.4992514e-06
6.4977416e-06
6.505017e-06
6.5197027e-06
6.5356607e-06
6.5498984e-06
6.5645703e-06
6.5729838e-06
6.5727312e-06
6.5702916e-06
6.5691402e-06
6.5698437e-06
6.5706298e-06
6.5728129e-06
6.5746175e-06
6.5748154e-06
6.5767749e-06
6.5768686e-06
6.5763207e-06
6.5798543e-06
6.5790715e-06
6.5767227e-06
6.5821118e-06
4.3071593e-11
1.3306941e-10
2.4605918e-09
2.2738012e-08
1.2339758e-07
4.6999325e-07
1.3691554e-06
3.2054192e-06
6.2830571e-06
1.0726067e-05
1.6528571e-05
2.3646461e-05
3.2042821e-05
4.1701558e-05
5.2629912e-05
6.485312e-05
7.8414365e-05
9.3366078e-05
0.00010976462
0.00012766801
0.00014714358
0.00016824739
0.00019103119
0.00021553814
0.000241807
0.00026986346
0.00029974056
0.00033142986
0.00036492905
0.00040022601
0.00043731202
0.00047618427
0.00051686471
0.00055944251
0.00060400532
0.00065078923
0.00070014589
0.00075267664
0.00080917033
0.00087057964
0.00093784859
0.0010114914
0.0010907901
0.0011725605
0.0012496488
0.0013098694
0.0013366019
0.0013123225
0.0012248363
0.0010726106
0.00086350013
0.00060842074
0.00031240416
8.5990654e-05
1.8883405e-05
8.6211241e-06
6.9399641e-06
6.7185524e-06
6.6874154e-06
6.6764295e-06
6.66687e-06
6.6539137e-06
6.6285983e-06
6.6048726e-06
6.6283446e-06
6.6757708e-06
6.7004896e-06
6.7042551e-06
6.7036248e-06
6.7000287e-06
6.69646e-06
6.6934398e-06
6.6909982e-06
6.6893554e-06
6.6877218e-06
6.6865629e-06
6.6848173e-06
6.6826974e-06
6.6840438e-06
6.6815808e-06
6.6699391e-06
6.6706142e-06
6.6842232e-06
6.6750732e-06
6.6422592e-06
6.6382607e-06
6.6669064e-06
6.7179409e-06
6.7467266e-06
6.7392131e-06
6.7137512e-06
6.6857549e-06
6.6694609e-06
6.665619e-06
6.6646105e-06
6.664548e-06
6.6671944e-06
6.6706519e-06
6.6743415e-06
6.6763457e-06
6.6782563e-06
6.6777371e-06
6.6737262e-06
6.6701295e-06
6.6621542e-06
6.6539234e-06
6.6432335e-06
6.6174415e-06
6.5916499e-06
6.5747373e-06
6.5622693e-06
6.5432168e-06
6.5147849e-06
6.4990207e-06
6.4973763e-06
6.5048134e-06
6.5195397e-06
6.5355659e-06
6.5498808e-06
6.564342e-06
6.5725122e-06
6.5721059e-06
6.5699503e-06
6.568925e-06
6.5698878e-06
6.5707868e-06
6.5732076e-06
6.5748133e-06
6.5748789e-06
6.5767819e-06
6.5768965e-06
6.5763293e-06
6.5799369e-06
6.5791034e-06
6.5767517e-06
6.5818754e-06
4.7380341e-11
1.4257933e-10
2.6119419e-09
2.4110177e-08
1.305908e-07
4.9551283e-07
1.4352393e-06
3.3369947e-06
6.4957043e-06
1.1021899e-05
1.6902163e-05
2.409146e-05
3.2554952e-05
4.2279583e-05
5.327521e-05
6.556983e-05
7.9208846e-05
9.4247278e-05
0.00011074293
0.00012875616
0.00014835561
0.00016959849
0.00019253488
0.00021720514
0.00024364749
0.00027188716
0.00030193061
0.00033377795
0.00036742493
0.00040285969
0.0004400702
0.00047904997
0.00051981393
0.00056242039
0.00060700128
0.00065381828
0.00070324742
0.00075587186
0.00081247871
0.00087401486
0.00094139159
0.0010150436
0.0010940971
0.0011751256
0.0012506664
0.0013082576
0.0013312074
0.00130231
0.0012100915
0.0010538011
0.00084161799
0.00058428294
0.00028807105
7.3920249e-05
1.7152279e-05
8.3111225e-06
6.875798e-06
6.6957994e-06
6.6720068e-06
6.6619345e-06
6.6535104e-06
6.6422653e-06
6.6215131e-06
6.6269689e-06
6.6668319e-06
6.6984645e-06
6.7042463e-06
6.7034205e-06
6.7009499e-06
6.6975665e-06
6.6944042e-06
6.6915297e-06
6.6891652e-06
6.6872257e-06
6.6862191e-06
6.6859334e-06
6.6842767e-06
6.6825111e-06
6.6837758e-06
6.6816817e-06
6.6698048e-06
6.6701086e-06
6.6839377e-06
6.6746478e-06
6.6419289e-06
6.6381448e-06
6.6670081e-06
6.7178581e-06
6.7466601e-06
6.7391715e-06
6.7137737e-06
6.6859383e-06
6.6695528e-06
6.6655816e-06
6.6646484e-06
6.6647547e-06
6.667387e-06
6.6708257e-06
6.6748213e-06
6.6766666e-06
6.6783912e-06
6.6779124e-06
6.6740335e-06
6.6703575e-06
6.6623595e-06
6.654267e-06
6.6432854e-06
6.617466e-06
6.5917737e-06
6.5747236e-06
6.5621513e-06
6.5431067e-06
6.5143776e-06
6.4987655e-06
6.4970311e-06
6.5046135e-06
6.5193673e-06
6.5354653e-06
6.5498578e-06
6.5639279e-06
6.5719033e-06
6.5715671e-06
6.5697601e-06
6.5688431e-06
6.569983e-06
6.5711564e-06
6.5734847e-06
6.5749335e-06
6.5749201e-06
6.5767864e-06
6.5769281e-06
6.5763416e-06
6.5800315e-06
6.5791003e-06
6.5768643e-06
6.5815722e-06
5.0792268e-11
1.5097987e-10
2.7542348e-09
2.5406609e-08
1.3740756e-07
5.1980464e-07
1.4985829e-06
3.4644453e-06
6.7050147e-06
1.1319839e-05
1.7288672e-05
2.4564676e-05
3.3112844e-05
4.292103e-05
5.4000398e-05
6.6380505e-05
8.0107494e-05
9.523712e-05
0.00011182647
0.00012993468
0.00014962502
0.00017095403
0.00019397152
0.00021872386
0.0002452445
0.00027355682
0.00030368236
0.00033561494
0.00036934042
0.00040484046
0.00044209715
0.00048110756
0.00052188601
0.0005644972
0.00060908776
0.00065593142
0.00070536829
0.00075800488
0.00081463555
0.00087619686
0.00094357037
0.0010171183
0.0010958457
0.0011761421
0.00125033
0.0013057753
0.001325784
0.0012934398
0.0011978323
0.0010387839
0.00082468457
0.00056608784
0.00027037897
6.5858962e-05
1.6109659e-05
8.1365435e-06
6.8326536e-06
6.6759605e-06
6.6589972e-06
6.6512666e-06
6.646802e-06
6.637011e-06
6.6278689e-06
6.6599931e-06
6.6935177e-06
6.7049254e-06
6.7034174e-06
6.7003463e-06
6.6968058e-06
6.6955187e-06
6.6940447e-06
6.6914628e-06
6.6886132e-06
6.6859951e-06
6.6845339e-06
6.684636e-06
6.6829968e-06
6.6812313e-06
6.683108e-06
6.6814653e-06
6.669033e-06
6.6693785e-06
6.6836133e-06
6.6743045e-06
6.6415458e-06
6.6379477e-06
6.6670317e-06
6.7178144e-06
6.746635e-06
6.7391709e-06
6.7138273e-06
6.6860671e-06
6.6695817e-06
6.6655459e-06
6.6647294e-06
6.664959e-06
6.6675704e-06
6.6710339e-06
6.6753233e-06
6.6770034e-06
6.6785282e-06
6.678093e-06
6.6743374e-06
6.670588e-06
6.6625867e-06
6.6546251e-06
6.6433274e-06
6.6174824e-06
6.5918654e-06
6.5746923e-06
6.5620298e-06
6.54298e-06
6.513977e-06
6.4985011e-06
6.4966932e-06
6.5043899e-06
6.5191876e-06
6.5353622e-06
6.5497341e-06
6.5633787e-06
6.5712497e-06
6.5711559e-06
6.5696924e-06
6.5688578e-06
6.570147e-06
6.571642e-06
6.5736577e-06
6.5750079e-06
6.5749458e-06
6.5768039e-06
6.5769588e-06
6.5763738e-06
6.580105e-06
6.5790984e-06
6.5769511e-06
5.4899461e-11
1.6033091e-10
2.9054217e-09
2.677589e-08
1.445478e-07
5.448705e-07
1.5625135e-06
3.5895249e-06
6.9040611e-06
1.159387e-05
1.7632695e-05
2.4973166e-05
3.3582064e-05
4.3449301e-05
5.4587468e-05
6.7027145e-05
8.0815287e-05
9.6008482e-05
0.00011266386
0.00013083994
0.00015060274
0.00017200972
0.00019511045
0.00021995034
0.00024656076
0.00027496527
0.00030516955
0.00033717192
0.00037095905
0.00040651073
0.0004438092
0.00048285566
0.0005236617
0.00056629267
0.00061089921
0.00065772723
0.000707162
0.00075980966
0.00081646105
0.00087804153
0.0009454048
0.0010188467
0.0010972553
0.0011768407
0.0012497101
0.0013030482
0.0013201415
0.0012843368
0.0011852603
0.0010232779
0.00080696899
0.0005467146
0.0002520244
5.8237544e-05
1.5037079e-05
7.9089801e-06
6.788658e-06
6.6634727e-06
6.6515424e-06
6.647861e-06
6.6451694e-06
6.6353578e-06
6.652722e-06
6.6847138e-06
6.7032504e-06
6.7042268e-06
6.7002333e-06
6.6952963e-06
6.6928735e-06
6.6926986e-06
6.6924126e-06
6.6901651e-06
6.688125e-06
6.6860252e-06
6.6844603e-06
6.6840438e-06
6.6819977e-06
6.6802264e-06
6.682785e-06
6.6812858e-06
6.6681925e-06
6.6689078e-06
6.6834912e-06
6.6741979e-06
6.641161e-06
6.6376652e-06
6.6670258e-06
6.7178025e-06
6.7466096e-06
6.7391814e-06
6.713839e-06
6.6861221e-06
6.6695373e-06
6.665477e-06
6.6648704e-06
6.6651832e-06
6.6677523e-06
6.6713007e-06
6.6758163e-06
6.6773093e-06
6.6786837e-06
6.6783079e-06
6.6746252e-06
6.6707735e-06
6.6628107e-06
6.6549715e-06
6.6433531e-06
6.6175146e-06
6.5919581e-06
6.5746741e-06
6.5619228e-06
6.5428119e-06
6.5135677e-06
6.4982276e-06
6.4963646e-06
6.504164e-06
6.5189678e-06
6.5351576e-06
6.5494382e-06
6.5628095e-06
6.5706625e-06
6.5709053e-06
6.5697041e-06
6.5689217e-06
6.570535e-06
6.5720749e-06
6.5737583e-06
6.5750651e-06
6.5749348e-06
6.5768322e-06
6.5769992e-06
6.5764274e-06
6.5801322e-06
6.5791574e-06
6.5768764e-06
5.7773517e-11
1.6751095e-10
3.0265057e-09
2.7875195e-08
1.502934e-07
5.6512284e-07
1.6145176e-06
3.6922794e-06
7.0697087e-06
1.1825518e-05
1.7928555e-05
2.5330953e-05
3.3999845e-05
4.3925809e-05
5.5121479e-05
6.7617674e-05
8.1460838e-05
9.6707076e-05
0.00011341367
0.00013164189
0.00015145779
0.00017291897
0.00019607269
0.00022095987
0.00024760977
0.00027604283
0.00030626854
0.00033828697
0.00037209354
0.00040768346
0.00044503069
0.00048411928
0.00052495605
0.00056759694
0.00061220748
0.00065902077
0.00070843694
0.00076107638
0.00081771973
0.00087928894
0.00094661087
0.0010199282
0.0010980315
0.0011769938
0.0012487624
0.0013003997
0.001315204
0.0012767534
0.0011751029
0.0010110356
0.00079327323
0.00053200621
0.00023808443
5.2961108e-05
1.4394004e-05
7.8011619e-06
6.769535e-06
6.6594829e-06
6.6494293e-06
6.6497481e-06
6.6469474e-06
6.6498309e-06
6.6789308e-06
6.7012834e-06
6.7047029e-06
6.7006644e-06
6.6969392e-06
6.6936725e-06
6.6917884e-06
6.6922199e-06
6.692417e-06
6.6910002e-06
6.6885445e-06
6.6853727e-06
6.6834561e-06
6.6828125e-06
6.6805824e-06
6.6786702e-06
6.6818733e-06
6.680274e-06
6.6670871e-06
6.6684148e-06
6.6835404e-06
6.67407e-06
6.6406718e-06
6.6372811e-06
6.6669662e-06
6.7178579e-06
6.7465774e-06
6.7391986e-06
6.7138073e-06
6.6860472e-06
6.669441e-06
6.6654111e-06
6.6650725e-06
6.6653957e-06
6.6679229e-06
6.671657e-06
6.6763295e-06
6.6775854e-06
6.6788316e-06
6.6785515e-06
6.674925e-06
6.6709493e-06
6.6630465e-06
6.6553141e-06
6.6433762e-06
6.6175473e-06
6.5920294e-06
6.5746189e-06
6.5618152e-06
6.5426177e-06
6.5131887e-06
6.49795e-06
6.4960154e-06
6.5039069e-06
6.5186345e-06
6.5347756e-06
6.5489911e-06
6.5623144e-06
6.5702138e-06
6.5707899e-06
6.5697524e-06
6.5690575e-06
6.571033e-06
6.5723866e-06
6.5738191e-06
6.5751003e-06
6.5749197e-06
6.5768615e-06
6.5770577e-06
6.5764941e-06
6.5801243e-06
6.5792973e-06
6.5766232e-06
6.1240177e-11
1.7570771e-10
3.1610803e-09
2.9092311e-08
1.5660809e-07
5.8709028e-07
1.6698033e-06
3.7987377e-06
7.2363523e-06
1.2051235e-05
1.820653e-05
2.5651887e-05
3.4354446e-05
4.4305764e-05
5.5519898e-05
6.8029674e-05
8.1883915e-05
9.7141613e-05
0.00011386225
0.00013210853
0.00015194781
0.00017343895
0.00019663099
0.0002215673
0.00024827647
0.00027677667
0.00030707466
0.00033916501
0.00037303836
0.00040866965
0.00044603229
0.00048511639
0.00052593698
0.00056855328
0.00061313981
0.00065992924
0.00070934587
0.00076196272
0.00081859128
0.00088015394
0.00094744687
0.0010206611
0.0010984979
0.001176902
0.0012476686
0.0012977395
0.0013104124
0.0012694662
0.0011653396
0.00099918043
0.00077980818
0.00051715528
0.00022445518
4.8099444e-05
1.3688796e-05
7.6441002e-06
6.7472857e-06
6.6645335e-06
6.6583956e-06
6.660679e-06
6.6574845e-06
6.6759422e-06
6.6976863e-06
6.7048038e-06
6.7023624e-06
6.6982494e-06
6.6954595e-06
6.6931413e-06
6.6910694e-06
6.6892874e-06
6.6886622e-06
6.689082e-06
6.6880195e-06
6.6857488e-06
6.6834431e-06
6.6823409e-06
6.6800691e-06
6.6778201e-06
6.6809638e-06
6.6792796e-06
6.6663389e-06
6.6682053e-06
6.6839457e-06
6.674027e-06
6.6401403e-06
6.6368602e-06
6.6668927e-06
6.7179295e-06
6.7464697e-06
6.7392131e-06
6.7136852e-06
6.6857943e-06
6.6692801e-06
6.6653635e-06
6.6653684e-06
6.6656291e-06
6.6680909e-06
6.6720808e-06
6.6768291e-06
6.6778475e-06
6.6790052e-06
6.6788389e-06
6.6751744e-06
6.6710861e-06
6.6632814e-06
6.6556316e-06
6.6434046e-06
6.617614e-06
6.5921338e-06
6.5745456e-06
6.5617124e-06
6.5423767e-06
6.5128164e-06
6.4976638e-06
6.4956657e-06
6.5035518e-06
6.5180975e-06
6.5342501e-06
6.5484862e-06
6.5619658e-06
6.5699278e-06
6.5707681e-06
6.5699217e-06
6.5694148e-06
6.5714732e-06
6.5725859e-06
6.5738652e-06
6.5751033e-06
6.5749179e-06
6.5768941e-06
6.5771427e-06
6.5765332e-06
6.5801251e-06
6.5794024e-06
6.5763035e-06
6.3736376e-11
1.8200267e-10
3.2674028e-09
3.0057464e-08
1.6163495e-07
6.0466864e-07
1.7143303e-06
3.8851122e-06
7.3725105e-06
1.2236559e-05
1.8436342e-05
2.5921293e-05
3.4659399e-05
4.4643363e-05
5.5888545e-05
6.8429258e-05
8.2315342e-05
9.7606303e-05
0.00011436199
0.00013264528
0.0001525236
0.00017405557
0.0001972898
0.00022226892
0.00024902058
0.00027756162
0.00030789678
0.00034001804
0.00037390562
0.00040953945
0.00044690799
0.00048599693
0.00052681967
0.00056943523
0.00061401467
0.00066079741
0.00071020217
0.00076280963
0.00081943195
0.00088099598
0.00094826085
0.0010213764
0.0010989715
0.0011768848
0.0012467896
0.0012955354
0.0013064295
0.0012634254
0.0011572759
0.00098941647
0.00076871736
0.00050482916
0.00021313739
4.446346e-05
1.3239869e-05
7.5719734e-06
6.7479422e-06
6.6811483e-06
6.6781072e-06
6.672358e-06
6.6769201e-06
6.6955768e-06
6.7048566e-06
6.7039976e-06
6.7000754e-06
6.6976988e-06
6.6964001e-06
6.6943061e-06
6.6906681e-06
6.687301e-06
6.6867285e-06
6.6882654e-06
6.6874525e-06
6.6851646e-06
6.6822392e-06
6.6811097e-06
6.6790484e-06
6.6763872e-06
6.6792796e-06
6.6778602e-06
6.6654567e-06
6.6678287e-06
6.6841802e-06
6.6737674e-06
6.6395125e-06
6.6360669e-06
6.666621e-06
6.7179906e-06
6.7462491e-06
6.7392063e-06
6.7134463e-06
6.6853553e-06
6.669056e-06
6.6653319e-06
6.665696e-06
6.6658923e-06
6.668256e-06
6.6725725e-06
6.6772814e-06
6.6780766e-06
6.6791901e-06
6.679178e-06
6.6754336e-06
6.6712176e-06
6.6635297e-06
6.6559301e-06
6.6434237e-06
6.617673e-06
6.592242e-06
6.5744301e-06
6.5616096e-06
6.5421162e-06
6.5124683e-06
6.4973406e-06
6.4952224e-06
6.5029445e-06
6.5174306e-06
6.533713e-06
6.5480365e-06
6.5617674e-06
6.5697712e-06
6.570784e-06
6.5703068e-06
6.5698833e-06
6.5717842e-06
6.572702e-06
6.5738855e-06
6.5751084e-06
6.5749254e-06
6.5769334e-06
6.5772323e-06
6.5765269e-06
6.5801895e-06
6.5793422e-06
6.7160879e-11
1.9042776e-10
3.4081472e-09
3.13305e-08
1.6822403e-07
6.2745888e-07
1.7712516e-06
3.9939516e-06
7.5423486e-06
1.2467295e-05
1.8723507e-05
2.6259795e-05
3.5044717e-05
4.5071455e-05
5.6355557e-05
6.8930634e-05
8.2846622e-05
9.8164245e-05
0.00011494508
0.00013325267
0.00015315524
0.00017471167
0.00019797097
0.00022297543
0.00024975304
0.00027831991
0.00030867927
0.00034082015
0.0003747288
0.00041038803
0.00044777401
0.00048687054
0.00052768945
0.00057029909
0.00061486473
0.0006616377
0.00071104578
0.00076372563
0.0008204323
0.00088203256
0.00094931651
0.0010223972
0.0010998267
0.0011773304
0.0012464497
0.0012939262
0.0013030601
0.001257969
0.0011497198
0.00098004326
0.00075787742
0.00049270643
0.00020240352
4.1082177e-05
1.272258e-05
7.4620446e-06
6.7447713e-06
6.6956027e-06
6.6895743e-06
6.6837726e-06
6.6950101e-06
6.7038262e-06
6.7044169e-06
6.7017904e-06
6.6997369e-06
6.6980424e-06
6.6959702e-06
6.6928704e-06
6.6879339e-06
6.6843143e-06
6.6841678e-06
6.6860722e-06
6.6859543e-06
6.683847e-06
6.6815118e-06
6.6805542e-06
6.6784508e-06
6.6752284e-06
6.6781301e-06
6.6769351e-06
6.664769e-06
6.667594e-06
6.6843754e-06
6.6734902e-06
6.6386067e-06
6.6350742e-06
6.666396e-06
6.7179889e-06
6.7458994e-06
6.7391141e-06
6.7130566e-06
6.6847869e-06
6.6688094e-06
6.6653156e-06
6.6659895e-06
6.6661468e-06
6.6684343e-06
6.6731385e-06
6.6777065e-06
6.6783081e-06
6.6794186e-06
6.679519e-06
6.6756629e-06
6.6713359e-06
6.6637799e-06
6.6562064e-06
6.6434582e-06
6.6177521e-06
6.592371e-06
6.5743068e-06
6.5615039e-06
6.5418029e-06
6.5121229e-06
6.4969035e-06
6.494583e-06
6.5021486e-06
6.5167237e-06
6.5332075e-06
6.5477277e-06
6.5617067e-06
6.5697163e-06
6.5708981e-06
6.5707457e-06
6.5702889e-06
6.5719845e-06
6.5727724e-06
6.5738781e-06
6.5751292e-06
6.5749341e-06
6.5769951e-06
6.5772935e-06
6.5764835e-06
6.5803372e-06
6.5791096e-06
6.9585121e-11
1.9646331e-10
3.5088136e-09
3.2242191e-08
1.729517e-07
6.4385037e-07
1.8123217e-06
4.0727908e-06
7.6659157e-06
1.2635903e-05
1.8934256e-05
2.6509294e-05
3.5330163e-05
4.5391124e-05
5.67089e-05
6.9318594e-05
8.3271128e-05
9.8627334e-05
0.00011544821
0.00013379825
0.00015374621
0.00017535115
0.00019866144
0.00022371823
0.00025054678
0.00027916085
0.00030956332
0.00034174385
0.0003756864
0.00041136913
0.00044877402
0.00048789577
0.00052875424
0.00057141419
0.0006160291
0.00066285286
0.00071231126
0.00076501845
0.00082177288
0.00088342587
0.00095077463
0.0010238722
0.0011011971
0.0011783734
0.0012468163
0.0012931748
0.0013007527
0.0012538204
0.0011437194
0.00097243138
0.00074896762
0.00048253747
0.00019321149
3.8541611e-05
1.2415731e-05
7.4303632e-06
6.7565628e-06
6.7041001e-06
6.694477e-06
6.6971395e-06
6.704003e-06
6.705001e-06
6.7025871e-06