/*--------------------------------*- C++ -*----------------------------------*\
| =========                 |                                                 |
| \\      /  F ield         | OpenFOAM: The Open Source CFD Toolbox           |
|  \\    /   O peration     | Version:  2506                                  |
|   \\  /    A nd           | Website:  www.openfoam.com                      |
|    \\/     M anipulation  |                                                 |
\*---------------------------------------------------------------------------*/
FoamFile
{
    version     2.0;
    format      ascii;
    arch        "LSB;label=32;scalar=64";
    class       volScalarField;
    location    "0.0145";
    object      alphat;
}
// * * * * * * * * * * * * * * * * * * * * * * * * * * * * * * * * * * * * * //

dimensions      [1 -1 -1 0 0 0 0];

internalField   nonuniform List<scalar> 
13761
(
5.6607821e-12
4.6767502e-11
1.1147722e-09
1.0314874e-08
5.5751013e-08
2.1702175e-07
6.766809e-07
1.7881926e-06
4.119994e-06
8.3756663e-06
1.5129298e-05
2.4534529e-05
3.6263364e-05
4.9699054e-05
6.4155028e-05
7.9015349e-05
9.3786098e-05
0.0001081199
0.0001217987
0.00013473839
0.00014694925
0.00015851481
0.00016951857
0.00018001396
0.00019026802
0.00020055817
0.00021103749
0.00022180497
0.00023292812
0.00024446389
0.00025644128
0.00026883198
0.00028155183
0.0002944582
0.0003072889
0.00031964408
0.00033097058
0.00034053304
0.00034736173
0.00035008909
0.00034730861
0.00033811936
0.00032156685
0.00029693729
0.00026378011
0.00022213934
0.00017334197
0.00012180143
7.5853425e-05
4.2787163e-05
2.3029296e-05
1.261979e-05
7.5591675e-06
5.138619e-06
3.9099725e-06
3.2485595e-06
2.90303e-06
2.7349554e-06
2.6460929e-06
2.5792547e-06
2.5223067e-06
2.4844883e-06
2.4614425e-06
2.440328e-06
2.4315372e-06
2.4644643e-06
2.5465653e-06
2.6434492e-06
2.7073503e-06
2.7176083e-06
2.6780833e-06
2.6005483e-06
2.5077302e-06
2.4285252e-06
2.3831065e-06
2.3751118e-06
2.4035849e-06
2.4442056e-06
2.4509372e-06
2.4280421e-06
2.4289762e-06
2.4703999e-06
2.5239514e-06
2.5862741e-06
2.6788863e-06
2.7740435e-06
2.8043693e-06
2.7724673e-06
2.7362482e-06
2.7045765e-06
2.6571281e-06
2.5982143e-06
2.5434225e-06
2.4966442e-06
2.4567182e-06
2.421689e-06
2.3899149e-06
2.3645473e-06
2.3441046e-06
2.3220513e-06
2.3114581e-06
2.3117453e-06
2.2942408e-06
2.2869458e-06
2.3092775e-06
2.3239545e-06
2.2905288e-06
2.2485644e-06
2.2362245e-06
2.2561241e-06
2.2872729e-06
2.3197774e-06
2.3486438e-06
2.3631111e-06
2.3687288e-06
2.3773257e-06
2.3844554e-06
2.3826547e-06
2.3776554e-06
2.3739923e-06
2.3739191e-06
2.3771761e-06
2.3802066e-06
2.3818045e-06
2.3851219e-06
2.3903886e-06
2.3903761e-06
2.3906734e-06
2.3966463e-06
2.3924447e-06
2.3874048e-06
2.3990075e-06
2.4134318e-06
2.3972462e-06
2.3712898e-06
2.360003e-06
2.3634398e-06
2.3747184e-06
8.4551389e-13
2.8639407e-12
5.9901252e-11
5.6159325e-10
3.1298975e-09
1.2703425e-08
4.1736319e-08
1.1782818e-07
2.9626021e-07
6.777625e-07
1.4283767e-06
2.7891896e-06
5.0534862e-06
8.5013166e-06
1.3316666e-05
1.954023e-05
2.7085528e-05
3.5793955e-05
4.548655e-05
5.6004007e-05
6.7224312e-05
7.9059506e-05
9.1450789e-05
0.00010436135
0.00011775282
0.00013161399
0.00014594971
0.00016078564
0.0001761509
0.00019206339
0.00020852943
0.00022552749
0.00024297319
0.00026068477
0.00027836463
0.00029555392
0.00031159639
0.00032560821
0.00033647523
0.00034289024
0.00034343605
0.00033671845
0.00032153216
0.00029704131
0.00026288241
0.00021937218
0.00016835372
0.00011516993
6.9343068e-05
3.7993968e-05
2.018719e-05
1.1193948e-05
6.9211453e-06
4.8602938e-06
3.7822875e-06
3.18823e-06
2.8758803e-06
2.7242615e-06
2.6424418e-06
2.577679e-06
2.5217629e-06
2.4855799e-06
2.4636123e-06
2.4425576e-06
2.4347564e-06
2.4707508e-06
2.5560172e-06
2.6533334e-06
2.7147095e-06
2.7216598e-06
2.6795194e-06
2.600376e-06
2.5072766e-06
2.4291199e-06
2.3854131e-06
2.3790232e-06
2.4087798e-06
2.4495246e-06
2.4551207e-06
2.4315036e-06
2.4329065e-06
2.4748191e-06
2.5280309e-06
2.5896555e-06
2.6820957e-06
2.7771954e-06
2.8069129e-06
2.7739692e-06
2.7369821e-06
2.7050687e-06
2.6575926e-06
2.5985234e-06
2.5434514e-06
2.4964699e-06
2.4564227e-06
2.4213372e-06
2.389574e-06
2.3641574e-06
2.3435826e-06
2.3216033e-06
2.311154e-06
2.3113309e-06
2.2938055e-06
2.2867199e-06
2.3091922e-06
2.3235832e-06
2.2899497e-06
2.2479293e-06
2.235731e-06
2.2558076e-06
2.2870659e-06
2.3196145e-06
2.3485076e-06
2.3630147e-06
2.3686781e-06
2.3773095e-06
2.3844443e-06
2.3826429e-06
2.3776272e-06
2.373933e-06
2.3738653e-06
2.3771264e-06
2.3801641e-06
2.3817636e-06
2.3850874e-06
2.390361e-06
2.3903517e-06
2.3906599e-06
2.3966406e-06
2.3924257e-06
2.3873767e-06
2.3990148e-06
2.4134369e-06
2.3972037e-06
2.371252e-06
2.3599712e-06
2.363422e-06
2.3747659e-06
8.3001645e-13
3.0159452e-12
6.0227309e-11
5.6671123e-10
3.1832644e-09
1.3037781e-08
4.3278127e-08
1.2359786e-07
3.1471159e-07
7.2938253e-07
1.5554811e-06
3.0632997e-06
5.5666673e-06
9.3326769e-06
1.4491733e-05
2.1016096e-05
2.8771094e-05
3.7583848e-05
4.7288533e-05
5.7751975e-05
6.8880606e-05
8.0610307e-05
9.2900058e-05
0.00010572826
0.00011908586
0.00013297622
0.00014741313
0.00016241273
0.00017797493
0.00019409973
0.00021079306
0.00022802523
0.00024570097
0.00026363986
0.00028153098
0.00029888802
0.00031501348
0.0003289684
0.00033957034
0.000345448
0.00034511977
0.00033714981
0.00032034123
0.00029392464
0.00025766648
0.00021218903
0.00015971022
0.0001063396
6.2195167e-05
3.3396063e-05
1.7684013e-05
9.9786109e-06
6.3683408e-06
4.6067006e-06
3.6586298e-06
3.127381e-06
2.8487891e-06
2.7141531e-06
2.6389235e-06
2.5758944e-06
2.5212974e-06
2.4872826e-06
2.4665678e-06
2.4455067e-06
2.4389744e-06
2.4787406e-06
2.5677186e-06
2.6653802e-06
2.7236477e-06
2.7266505e-06
2.6813755e-06
2.6002579e-06
2.5067812e-06
2.4298496e-06
2.3881592e-06
2.3836813e-06
2.4149973e-06
2.4559059e-06
2.4601391e-06
2.4356367e-06
2.4375487e-06
2.4799903e-06
2.5327936e-06
2.593688e-06
2.6860986e-06
2.7812149e-06
2.8100874e-06
2.7757373e-06
2.7378048e-06
2.7056193e-06
2.6580721e-06
2.5987657e-06
2.543354e-06
2.4961555e-06
2.4559925e-06
2.420866e-06
2.3891318e-06
2.3636671e-06
2.3429466e-06
2.3210631e-06
2.3107986e-06
2.3108413e-06
2.2932873e-06
2.2864611e-06
2.3091154e-06
2.3231527e-06
2.2892457e-06
2.2471608e-06
2.2351628e-06
2.2554649e-06
2.2868532e-06
2.3194519e-06
2.3483725e-06
2.3629161e-06
2.3686274e-06
2.3772993e-06
2.3844378e-06
2.3826325e-06
2.3775936e-06
2.3738646e-06
2.3738091e-06
2.3770742e-06
2.3801129e-06
2.3817184e-06
2.3850598e-06
2.390339e-06
2.3903227e-06
2.3906389e-06
2.3966227e-06
2.3923994e-06
2.3873529e-06
2.3990282e-06
2.4134332e-06
2.3971444e-06
2.3712045e-06
2.3599398e-06
2.3634196e-06
2.3748433e-06
4.3453254e-13
2.0897585e-12
4.5233451e-11
4.2698252e-10
2.3990774e-09
9.8295859e-09
3.2644938e-08
9.3274159e-08
2.3760201e-07
5.5107015e-07
1.1774077e-06
2.3288174e-06
4.266266e-06
7.2399362e-06
1.1415326e-05
1.6835512e-05
2.3442115e-05
3.1125206e-05
3.9765239e-05
4.9261191e-05
5.9541378e-05
7.0556238e-05
8.2273356e-05
9.4675169e-05
0.00010775039
0.00012149444
0.00013590854
0.00015099848
0.00016677432
0.00018324362
0.00020040003
0.00021820547
0.00023656538
0.00025529422
0.00027407506
0.00029241117
0.00030958151
0.00032460718
0.00033624468
0.00034302416
0.00034335142
0.00033567729
0.00031871935
0.0002916606
0.00025435746
0.00020754207
0.00015379606
0.00010001372
5.6949885e-05
2.9966764e-05
1.5790047e-05
9.0496883e-06
5.9362529e-06
4.3972783e-06
3.5490025e-06
3.0703202e-06
2.8232452e-06
2.7052487e-06
2.6361385e-06
2.5744071e-06
2.5211234e-06
2.4894983e-06
2.4700997e-06
2.449052e-06
2.4440488e-06
2.4879386e-06
2.5806785e-06
2.6783652e-06
2.7331389e-06
2.7320042e-06
2.6835307e-06
2.6004319e-06
2.5066595e-06
2.4310856e-06
2.3915143e-06
2.3889954e-06
2.4218707e-06
2.4628153e-06
2.4654787e-06
2.4399843e-06
2.442401e-06
2.485346e-06
2.5376885e-06
2.5978928e-06
2.6904258e-06
2.7856066e-06
2.8134322e-06
2.7774516e-06
2.738566e-06
2.7061953e-06
2.6585911e-06
2.5989996e-06
2.5432154e-06
2.495792e-06
2.4555094e-06
2.420343e-06
2.3886389e-06
2.3631181e-06
2.3422442e-06
2.3204724e-06
2.3104174e-06
2.3103026e-06
2.2927225e-06
2.2861868e-06
2.3090423e-06
2.3226789e-06
2.288462e-06
2.2463139e-06
2.2345584e-06
2.2551105e-06
2.2866372e-06
2.3192884e-06
2.3482365e-06
2.362814e-06
2.3685752e-06
2.3772909e-06
2.3844327e-06
2.3826215e-06
2.3775564e-06
2.3737927e-06
2.3737499e-06
2.3770216e-06
2.3800616e-06
2.3816717e-06
2.3850304e-06
2.3903172e-06
2.3902953e-06
2.3906197e-06
2.3966051e-06
2.3923708e-06
2.3873281e-06
2.3990444e-06
2.4134329e-06
2.3970865e-06
2.3711544e-06
2.3599083e-06
2.3634323e-06
1.1825056e-13
2.2497908e-12
5.2285754e-11
4.9374193e-10
2.7741914e-09
1.1368404e-08
3.7763661e-08
1.0790353e-07
2.7471486e-07
6.3598361e-07
1.3534189e-06
2.6582354e-06
4.8196882e-06
8.0738603e-06
1.255219e-05
1.8261111e-05
2.5118418e-05
3.3006063e-05
4.1807135e-05
5.1428091e-05
6.1806051e-05
7.2899561e-05
8.4682939e-05
9.7143671e-05
0.00011027456
0.00012407442
0.00013854652
0.00015369802
0.00016953878
0.0001860749
0.00020329709
0.00022116283
0.00023956798
0.00025831276
0.00027706095
0.00029528815
0.00031223866
0.00032689365
0.00033796872
0.00034396022
0.0003432575
0.00033432225
0.00031591431
0.00028730358
0.00024843319
0.00020016665
0.00014547083
9.2055114e-05
5.1001007e-05
2.6419511e-05
1.3979261e-05
8.2162973e-06
5.5648908e-06
4.2192939e-06
3.4522568e-06
3.0175673e-06
2.7991031e-06
2.6964598e-06
2.632938e-06
2.5725542e-06
2.5209758e-06
2.4920803e-06
2.4740496e-06
2.453032e-06
2.4497935e-06
2.4980644e-06
2.5945185e-06
2.691915e-06
2.7429361e-06
2.737611e-06
2.685956e-06
2.6009181e-06
2.5069327e-06
2.4327937e-06
2.395364e-06
2.3947802e-06
2.4291597e-06
2.4700055e-06
2.4709375e-06
2.4443761e-06
2.4472804e-06
2.4906993e-06
2.542575e-06
2.6021967e-06
2.6950163e-06
2.7902792e-06
2.8168409e-06
2.7790453e-06
2.7392464e-06
2.7067879e-06
2.6591284e-06
2.5991994e-06
2.54302e-06
2.4953734e-06
2.4549742e-06
2.4197739e-06
2.3881025e-06
2.3625189e-06
2.3414885e-06
2.319845e-06
2.3100198e-06
2.3097223e-06
2.2921233e-06
2.2859043e-06
2.308972e-06
2.3221651e-06
2.2876092e-06
2.2454056e-06
2.2339307e-06
2.2547499e-06
2.2864193e-06
2.3191244e-06
2.3480996e-06
2.3627086e-06
2.3685218e-06
2.3772838e-06
2.3844284e-06
2.3826101e-06
2.3775154e-06
2.3737179e-06
2.373689e-06
2.3769678e-06
2.3800087e-06
2.3816242e-06
2.3850011e-06
2.390295e-06
2.3902666e-06
2.3905998e-06
2.3965854e-06
2.3923397e-06
2.3873044e-06
2.3990648e-06
2.4134344e-06
2.397026e-06
2.3711001e-06
2.3598794e-06
2.3634696e-06
2.0400364e-13
2.3986831e-12
5.5987321e-11
5.2902809e-10
2.971536e-09
1.2171734e-08
4.0402654e-08
1.1528811e-07
2.9280537e-07
6.7517266e-07
1.4283527e-06
2.7835422e-06
5.0010432e-06
8.3000254e-06
1.2796165e-05
1.849e-05
2.530413e-05
3.3130967e-05
4.1864506e-05
5.1420295e-05
6.1741767e-05
7.2791895e-05
8.4547662e-05
9.6998366e-05
0.00011013727
0.00012396303
0.00013847779
0.00015368728
0.00016959939
0.00018621818
0.00020353147
0.00022149277
0.00023999246
0.00025882245
0.00027763424
0.00029588556
0.00031279665
0.00032731733
0.00033812751
0.00034368811
0.00034236098
0.00033259679
0.00031316687
0.00028337573
0.00024322405
0.00019371129
0.00013812974
8.5070698e-05
4.5880105e-05
2.3432922e-05
1.2492758e-05
7.5516653e-06
5.27111e-06
4.0689979e-06
3.3632503e-06
2.9692751e-06
2.7785123e-06
2.6896178e-06
2.6304908e-06
2.571017e-06
2.5212168e-06
2.4951527e-06
2.478397e-06
2.457386e-06
2.456127e-06
2.5089657e-06
2.609004e-06
2.7057888e-06
2.7528796e-06
2.7433913e-06
2.6886372e-06
2.6017498e-06
2.5076399e-06
2.4349757e-06
2.3996559e-06
2.4009292e-06
2.4367092e-06
2.4773065e-06
2.4763706e-06
2.4486933e-06
2.4520757e-06
2.4959542e-06
2.5473995e-06
2.6065845e-06
2.6998313e-06
2.7951428e-06
2.8202101e-06
2.7804639e-06
2.7398405e-06
2.7074021e-06
2.6596802e-06
2.5993615e-06
2.5427712e-06
2.4949059e-06
2.4543936e-06
2.4191657e-06
2.3875277e-06
2.3618735e-06
2.3406857e-06
2.3191883e-06
2.3096104e-06
2.3091027e-06
2.2914959e-06
2.2856175e-06
2.3089032e-06
2.3216117e-06
2.2866902e-06
2.2444445e-06
2.2332865e-06
2.2543857e-06
2.2862e-06
2.3189598e-06
2.3479616e-06
2.3625999e-06
2.368467e-06
2.3772777e-06
2.3844244e-06
2.3825981e-06
2.3774709e-06
2.3736405e-06
2.3736267e-06
2.3769132e-06
2.3799545e-06
2.381576e-06
2.3849716e-06
2.3902724e-06
2.390237e-06
2.3905793e-06
2.3965641e-06
2.3923066e-06
2.3872822e-06
2.3990899e-06
2.4134378e-06
2.3969622e-06
2.3710422e-06
2.3598573e-06
2.3635269e-06
4.7346513e-13
2.8473239e-12
6.3515944e-11
5.996024e-10
3.3671294e-09
1.3788012e-08
4.5740892e-08
1.3036091e-07
3.3029796e-07
7.5841741e-07
1.5937643e-06
3.0768915e-06
5.4647356e-06
8.9577942e-06
1.3647213e-05
1.9516006e-05
2.6480633e-05
3.4435675e-05
4.3280418e-05
5.2935969e-05
6.3350227e-05
7.4489477e-05
8.6332838e-05
9.8870972e-05
0.00011209789
0.00012601256
0.00014061715
0.00015591631
0.00017191661
0.00018861942
0.00020600911
0.00022403354
0.00024257431
0.00026141149
0.0002801788
0.00029831115
0.00031499963
0.00032916207
0.00033944693
0.0003442912
0.00034204868
0.00033118353
0.00031050415
0.00027937079
0.00023785295
0.00018707702
0.00013072519
7.8254863e-05
4.1127309e-05
2.080155e-05
1.1246946e-05
7.0143843e-06
5.027303e-06
3.9330168e-06
3.2811512e-06
2.9268422e-06
2.7616591e-06
2.6844714e-06
2.6286862e-06
2.5698603e-06
2.5219482e-06
2.4987486e-06
2.4831206e-06
2.4620939e-06
2.4630114e-06
2.5205282e-06
2.6239448e-06
2.7197962e-06
2.7628342e-06
2.7492649e-06
2.6915394e-06
2.6029122e-06
2.5087559e-06
2.4375715e-06
2.4042913e-06
2.4073077e-06
2.4443583e-06
2.4845611e-06
2.481655e-06
2.4528441e-06
2.4567137e-06
2.5010653e-06
2.5521576e-06
2.6110706e-06
2.7048399e-06
2.8001093e-06
2.8234493e-06
2.7816745e-06
2.7403562e-06
2.7080435e-06
2.6602386e-06
2.599478e-06
2.542468e-06
2.4943912e-06
2.4537707e-06
2.418522e-06
2.3869173e-06
2.3611841e-06
2.3398402e-06
2.3185086e-06
2.3091922e-06
2.3084453e-06
2.2908449e-06
2.2853299e-06
2.3088341e-06
2.3210177e-06
2.2857055e-06
2.2434378e-06
2.2326309e-06
2.2540198e-06
2.2859795e-06
2.3187945e-06
2.3478225e-06
2.3624875e-06
2.368411e-06
2.3772722e-06
2.3844208e-06
2.3825856e-06
2.3774228e-06
2.3735608e-06
2.3735632e-06
2.376858e-06
2.3798991e-06
2.3815272e-06
2.3849421e-06
2.3902492e-06
2.3902061e-06
2.3905579e-06
2.3965409e-06
2.3922719e-06
2.3872626e-06
2.3991203e-06
2.4134424e-06
2.3968942e-06
2.370982e-06
2.3598501e-06
4.7409208e-13
3.1341903e-12
7.1069752e-11
6.7108118e-10
3.7673452e-09
1.5419336e-08
5.1107569e-08
1.4540944e-07
3.6730286e-07
8.3913252e-07
1.7501759e-06
3.3455597e-06
5.8742225e-06
9.5174067e-06
1.4346491e-05
2.0333921e-05
2.7395845e-05
3.5432033e-05
4.4348474e-05
5.4071604e-05
6.455352e-05
7.5762616e-05
8.7679918e-05
0.00010029659
0.0001136074
0.00012761066
0.00014230821
0.00015770326
0.00017380075
0.0001905995
0.00020808026
0.0002261862
0.00024479158
0.00026366583
0.00028242734
0.0003004906
0.00031702082
0.00033090627
0.00034076556
0.0003450114
0.00034198554
0.00033015906
0.00030836721
0.00027601006
0.00023320435
0.00018118914
0.00012407441
7.2208304e-05
3.7032891e-05
1.8607443e-05
1.0239074e-05
6.5818524e-06
4.8194931e-06
3.8101417e-06
3.2075331e-06
2.8908692e-06
2.7486433e-06
2.681109e-06
2.6276632e-06
2.5692297e-06
2.5232718e-06
2.502904e-06
2.4882252e-06
2.4671592e-06
2.4704187e-06
2.5326521e-06
2.6391826e-06
2.7337764e-06
2.772674e-06
2.7551414e-06
2.6945868e-06
2.6043311e-06
2.510193e-06
2.4404724e-06
2.4091431e-06
2.413774e-06
2.4519603e-06
2.4916388e-06
2.4866946e-06
2.4567654e-06
2.4611608e-06
2.5060342e-06
2.5568811e-06
2.6156791e-06
2.7100042e-06
2.8050863e-06
2.8264781e-06
2.782659e-06
2.7408081e-06
2.7087155e-06
2.6607918e-06
2.5995393e-06
2.5421081e-06
2.493829e-06
2.4531066e-06
2.4178447e-06
2.386272e-06
2.3604512e-06
2.3389554e-06
2.3178107e-06
2.3087671e-06
2.3077509e-06
2.2901743e-06
2.2850444e-06
2.3087633e-06
2.3203824e-06
2.2846541e-06
2.242391e-06
2.2319682e-06
2.2536538e-06
2.2857584e-06
2.318629e-06
2.3476824e-06
2.3623718e-06
2.3683537e-06
2.3772673e-06
2.3844174e-06
2.3825724e-06
2.3773711e-06
2.3734793e-06
2.3734989e-06
2.3768023e-06
2.3798425e-06
2.3814778e-06
2.3849125e-06
2.3902252e-06
2.3901737e-06
2.3905353e-06
2.3965162e-06
2.3922364e-06
2.3872461e-06
2.3991561e-06
2.4134467e-06
2.3968214e-06
2.3709213e-06
2.3598654e-06
5.0031029e-13
3.4964558e-12
7.9914464e-11
7.5462848e-10
4.2353378e-09
1.7327305e-08
5.7379981e-08
1.6296138e-07
4.1027944e-07
9.3223028e-07
1.9289184e-06
3.6494728e-06
6.3335294e-06
1.0142592e-05
1.5129289e-05
2.1256571e-05
2.8440363e-05
3.6584837e-05
4.5601335e-05
5.5420651e-05
6.5997961e-05
7.7303248e-05
8.931848e-05
0.00010203499
0.00011544761
0.00012955426
0.00014435622
0.00015985566
0.00017605617
0.00019295454
0.00021052834
0.00022871567
0.00024738332
0.00026628945
0.00028503683
0.00030301867
0.00031937432
0.00033296307
0.00034237554
0.00034600351
0.00034218083
0.00032938827
0.00030649005
0.00027292475
0.0002288598
0.00017564354
0.00011780798
6.6635105e-05
3.3398242e-05
1.6733471e-05
9.40571e-06
6.2247583e-06
4.638901e-06
3.6985741e-06
3.1415605e-06
2.860469e-06
2.7386391e-06
2.6789982e-06
2.6271685e-06
2.5690383e-06
2.5251568e-06
2.5075826e-06
2.4936686e-06
2.4725371e-06
2.4782683e-06
2.5451956e-06
2.6545388e-06
2.7475648e-06
2.7822715e-06
2.7609134e-06
2.6976731e-06
2.6058973e-06
2.5118314e-06
2.4435477e-06
2.4140736e-06
2.4201912e-06
2.4593887e-06
2.4984392e-06
2.4914295e-06
2.4604319e-06
2.4654223e-06
2.5108965e-06
2.5616169e-06
2.620421e-06
2.7152638e-06
2.8099735e-06
2.8292308e-06
2.7834179e-06
2.7412178e-06
2.709419e-06
2.6613258e-06
2.5995362e-06
2.5416887e-06
2.4932186e-06
2.4524017e-06
2.4171351e-06
2.3855919e-06
2.3596749e-06
2.3380344e-06
2.3170993e-06
2.3083359e-06
2.3070205e-06
2.2894874e-06
2.2847639e-06
2.3086892e-06
2.3197042e-06
2.2835347e-06
2.2413096e-06
2.2313019e-06
2.2532891e-06
2.2855373e-06
2.3184635e-06
2.3475416e-06
2.3622526e-06
2.3682952e-06
2.377263e-06
2.3844142e-06
2.3825587e-06
2.3773159e-06
2.3733961e-06
2.3734338e-06
2.3767462e-06
2.3797848e-06
2.381428e-06
2.3848827e-06
2.3902005e-06
2.3901398e-06
2.3905115e-06
2.3964901e-06
2.392201e-06
2.3872334e-06
2.3991969e-06
2.4134496e-06
2.3967445e-06
2.3708626e-06
2.3598983e-06
4.4856385e-13
3.8389498e-12
8.9450162e-11
8.4493845e-10
4.7411287e-09
1.9387274e-08
6.4136521e-08
1.8178385e-07
4.5601636e-07
1.0301658e-06
2.1140512e-06
3.9586001e-06
6.792383e-06
1.0757803e-05
1.5891445e-05
2.2149484e-05
2.9448955e-05
3.76986e-05
4.6814446e-05
5.6730797e-05
6.7404856e-05
7.8807699e-05
9.0921425e-05
0.00010373756
0.0001172505
0.00013145828
0.00014636158
0.00016196232
0.00017826293
0.00019525868
0.00021292447
0.00023119395
0.000249927
0.000268871
0.00028761366
0.00030552782
0.00032172799
0.00033504593
0.00034404597
0.00034710038
0.00034253635
0.00032884535
0.00030491542
0.00027021714
0.0002249566
0.00017058758
0.00011208195
6.1645395e-05
3.0261111e-05
1.5176565e-05
8.7352776e-06
5.9357188e-06
4.4830147e-06
3.5980221e-06
3.0834968e-06
2.8355221e-06
2.7313646e-06
2.677967e-06
2.6271511e-06
2.5692843e-06
2.5275728e-06
2.5126988e-06
2.4993507e-06
2.478132e-06
2.4864223e-06
2.5579439e-06
2.6697636e-06
2.7609511e-06
2.7914797e-06
2.7664695e-06
2.7007037e-06
2.607522e-06
2.5135757e-06
2.4466875e-06
2.4189641e-06
2.4264456e-06
2.4665414e-06
2.5048937e-06
2.4958439e-06
2.463865e-06
2.4695367e-06
2.5157007e-06
2.5663998e-06
2.6252703e-06
2.72052e-06
2.8146572e-06
2.831661e-06
2.7839756e-06
2.7416137e-06
2.7101536e-06
2.6618289e-06
2.5994646e-06
2.5412114e-06
2.4925617e-06
2.4516591e-06
2.4163961e-06
2.3848781e-06
2.3588561e-06
2.337081e-06
2.3163797e-06
2.307899e-06
2.3062547e-06
2.2887881e-06
2.2844915e-06
2.308609e-06
2.3189806e-06
2.2823467e-06
2.2401995e-06
2.2306353e-06
2.2529265e-06
2.2853161e-06
2.318298e-06
2.3474001e-06
2.3621302e-06
2.3682356e-06
2.3772591e-06
2.3844112e-06
2.3825443e-06
2.3772572e-06
2.3733116e-06
2.3733682e-06
2.3766897e-06
2.3797261e-06
2.3813777e-06
2.3848526e-06
2.3901747e-06
2.3901042e-06
2.3904867e-06
2.3964634e-06
2.3921666e-06
2.3872243e-06
2.3992415e-06
2.4134498e-06
2.3966648e-06
2.3708103e-06
4.050925e-13
4.2240446e-12
9.9881804e-11
9.4365749e-10
5.2938075e-09
2.1635937e-08
7.1496199e-08
2.0220255e-07
5.0529371e-07
1.1346092e-06
2.3088653e-06
4.2790602e-06
7.2614311e-06
1.1380035e-05
1.6657441e-05
2.304467e-05
3.0460146e-05
3.8816667e-05
4.8034081e-05
5.8049533e-05
6.8821574e-05
8.0322154e-05
9.2533296e-05
0.0001054468
0.00011905692
0.00013336197
0.0001483626
0.0001640609
0.00018045889
0.00019755086
0.00021530948
0.00023366439
0.00025246875
0.00027145942
0.00029020922
0.00030807103
0.00032413522
0.00033720709
0.00034582613
0.00034834653
0.0003430895
0.00032855547
0.0003036544
0.00026788429
0.00022148492
0.00016601345
0.00010688878
5.7219383e-05
2.7585278e-05
1.3902944e-05
8.2044373e-06
5.7022492e-06
4.3469094e-06
3.5072603e-06
3.0329413e-06
2.8153922e-06
2.7262326e-06
2.6776645e-06
2.6274336e-06
2.5698603e-06
2.5303979e-06
2.5180985e-06
2.5051275e-06
2.4838167e-06
2.4947193e-06
2.5706746e-06
2.6846209e-06
2.7737474e-06
2.8001678e-06
2.7717081e-06
2.7035906e-06
2.6091225e-06
2.5153379e-06
2.4497977e-06
2.4237245e-06
2.4324624e-06
2.473362e-06
2.510983e-06
2.4999667e-06
2.4671198e-06
2.4735629e-06
2.5204971e-06
2.5712422e-06
2.6301636e-06
2.7256547e-06
2.8190356e-06
2.8337507e-06
2.7843727e-06
2.7420235e-06
2.710913e-06
2.6622881e-06
2.5993214e-06
2.5406775e-06
2.4918601e-06
2.4508812e-06
2.4156299e-06
2.3841311e-06
2.3579952e-06
2.3360995e-06
2.315657e-06
2.3074555e-06
2.3054541e-06
2.28808e-06
2.28423e-06
2.30852e-06
2.3182086e-06
2.2810897e-06
2.2390662e-06
2.2299712e-06
2.2525667e-06
2.2850949e-06
2.3181325e-06
2.3472577e-06
2.3620043e-06
2.3681749e-06
2.3772555e-06
2.3844084e-06
2.3825293e-06
2.3771949e-06
2.373226e-06
2.3733024e-06
2.3766328e-06
2.3796663e-06
2.3813269e-06
2.3848221e-06
2.3901477e-06
2.3900669e-06
2.390461e-06
2.3964368e-06
2.3921339e-06
2.3872186e-06
2.3992887e-06
2.4134471e-06
2.3965842e-06
2.3707724e-06
3.5187422e-13
4.6357057e-12
1.1111994e-10
1.0499813e-09
5.8887186e-09
2.4053403e-08
7.938909e-08
2.240055e-07
5.5752891e-07
1.2441139e-06
2.5102117e-06
4.6050316e-06
7.7314594e-06
1.1996045e-05
1.7409137e-05
2.3917797e-05
3.1442159e-05
3.9898746e-05
4.9210965e-05
5.9318472e-05
7.0181321e-05
8.1772105e-05
9.407332e-05
0.00010707697
0.0001207779
0.0001351749
0.00015026939
0.00016606384
0.0001825605
0.00019975301
0.00021761221
0.00023606402
0.00025495509
0.00027401227
0.00029279385
0.00031063367
0.00032659887
0.00033946957
0.00034776156
0.00034981132
0.00034393306
0.00032863303
0.00030283756
0.0002660652
0.00021858288
0.00016204658
0.00010232069
5.338727e-05
2.5350081e-05
1.288121e-05
7.7898963e-06
5.5122729e-06
4.2262813e-06
3.4253902e-06
2.9894251e-06
2.7993967e-06
2.7227134e-06
2.6778042e-06
2.6278721e-06
2.5706621e-06
2.5334995e-06
2.5236223e-06
2.5108568e-06
2.4894651e-06
2.5029986e-06
2.5831776e-06
2.6989052e-06
2.7858067e-06
2.8082429e-06
2.7765603e-06
2.7062749e-06
2.6106411e-06
2.517057e-06
2.4528203e-06
2.4283075e-06
2.4382141e-06
2.4798432e-06
2.5167354e-06
2.5038627e-06
2.470271e-06
2.4775615e-06
2.5253167e-06
2.5761179e-06
2.6350001e-06
2.7305432e-06
2.8230318e-06
2.835514e-06
2.7846618e-06
2.7424687e-06
2.7116845e-06
2.6626895e-06
2.5991045e-06
2.5400884e-06
2.4911154e-06
2.4500708e-06
2.4148384e-06
2.3833506e-06
2.3570928e-06
2.3350943e-06
2.314936e-06
2.3070041e-06
2.3046193e-06
2.2873665e-06
2.2839822e-06
2.3084195e-06
2.3173843e-06
2.2797643e-06
2.237915e-06
2.2293121e-06
2.2522101e-06
2.2848736e-06
2.317967e-06
2.3471146e-06
2.3618752e-06
2.3681132e-06
2.3772522e-06
2.384406e-06
2.3825137e-06
2.3771292e-06
2.3731395e-06
2.3732363e-06
2.3765755e-06
2.3796053e-06
2.3812753e-06
2.3847908e-06
2.3901191e-06
2.3900282e-06
2.3904352e-06
2.3964111e-06
2.3921034e-06
2.387215e-06
2.3993369e-06
2.4134419e-06
2.3965051e-06
2.3707563e-06
3.0447765e-13
5.0737809e-12
1.2290485e-10
1.1614408e-09
6.5120297e-09
2.6583473e-08
8.7628851e-08
2.4665769e-07
6.1136305e-07
1.3556468e-06
2.7122312e-06
4.9267017e-06
8.1879479e-06
1.2586241e-05
1.8121673e-05
2.4738784e-05
3.236002e-05
4.0905793e-05
5.0302968e-05
6.0493742e-05
7.1439722e-05
8.3114359e-05
9.5500763e-05
0.00010859153
0.0001223822
0.00013687246
0.00015206464
0.00016796193
0.00018456692
0.00020187276
0.00021984856
0.0002384166
0.00025741716
0.00027656735
0.00029541152
0.00031326523
0.00032917361
0.00034189282
0.00034991593
0.00035156189
0.0003451364
0.00032914788
0.0003025332
0.00026482411
0.00021630734
0.00015873026
9.8392913e-05
5.0121182e-05
2.3505241e-05
1.2069295e-05
7.4666206e-06
5.354549e-06
4.1177063e-06
3.3517355e-06
2.9523425e-06
2.7867835e-06
2.7202965e-06
2.6781295e-06
2.62834e-06
2.5715926e-06
2.5367531e-06
2.5291304e-06
2.5164235e-06
2.4949744e-06
2.5111252e-06
2.5952848e-06
2.7124719e-06
2.7970472e-06
2.8156689e-06
2.7810047e-06
2.7087389e-06
2.6120589e-06
2.5187148e-06
2.4557445e-06
2.4327124e-06
2.4437189e-06
2.4860221e-06
2.5222152e-06
2.5076138e-06
2.4733901e-06
2.4815721e-06
2.5301526e-06
2.5809561e-06
2.6396529e-06
2.7350727e-06
2.8266063e-06
2.8369964e-06
2.7848994e-06
2.7429607e-06
2.7124488e-06
2.6630196e-06
2.5988124e-06
2.5394453e-06
2.4903292e-06
2.4492302e-06
2.414023e-06
2.3825361e-06
2.3561492e-06
2.3340701e-06
2.3142212e-06
2.3065422e-06
2.303751e-06
2.2866513e-06
2.2837503e-06
2.3083045e-06
2.3165029e-06
2.2783717e-06
2.2367511e-06
2.2286602e-06
2.2518573e-06
2.2846525e-06
2.3178017e-06
2.3469706e-06
2.3617431e-06
2.3680505e-06
2.3772491e-06
2.3844039e-06
2.3824974e-06
2.3770602e-06
2.3730524e-06
2.3731701e-06
2.3765178e-06
2.379543e-06
2.3812229e-06
2.3847587e-06
2.3900889e-06
2.3899884e-06
2.3904099e-06
2.3963874e-06
2.3920751e-06
2.3872125e-06
2.3993851e-06
2.4134355e-06
2.3964319e-06
2.370757e-06
2.6457565e-13
5.5427365e-12
1.353019e-10
1.2785738e-09
7.1666266e-09
2.9236993e-08
9.6247061e-08
2.7022852e-07
6.6690491e-07
1.4693071e-06
2.9149792e-06
5.2443372e-06
8.632126e-06
1.3153935e-05
1.8801677e-05
2.551873e-05
3.323034e-05
4.1860855e-05
5.1340539e-05
6.1613968e-05
7.2644256e-05
8.4405702e-05
9.6882008e-05
0.00011006641
0.00012395522
0.00013854907
0.0001538512
0.00016986567
0.00018659538
0.00020403292
0.00022214556
0.00024085175
0.00025998533
0.00027925347
0.00029818671
0.00031608261
0.00033196487
0.00034456647
0.0003523584
0.00035364231
0.00034671451
0.00033008308
0.0003026912
0.00026407844
0.00021454577
0.00015592684
9.4952358e-05
4.7275053e-05
2.1944045e-05
1.1405579e-05
7.2040153e-06
5.2161296e-06
4.0164528e-06
3.2844345e-06
2.9204248e-06
2.7766567e-06
2.7185221e-06
2.6784437e-06
2.6287327e-06
2.5725509e-06
2.5400492e-06
2.5345302e-06
2.5217556e-06
2.5002717e-06
2.5190225e-06
2.606944e-06
2.7253198e-06
2.8075054e-06
2.8224812e-06
2.7850584e-06
2.7109856e-06
2.6133679e-06
2.5203063e-06
2.4585813e-06
2.4369699e-06
2.4490327e-06
2.4919744e-06
2.5275089e-06
2.5112904e-06
2.4765146e-06
2.4855949e-06
2.5349575e-06
2.5856543e-06
2.6439977e-06
2.7391748e-06
2.8297755e-06
2.8382693e-06
2.7851328e-06
2.7434933e-06
2.713179e-06
2.663262e-06
2.5984403e-06
2.5387455e-06
2.4895001e-06
2.4483599e-06
2.4131826e-06
2.3816849e-06
2.3551642e-06
2.3330312e-06
2.3135161e-06
2.306067e-06
2.30285e-06
2.2859371e-06
2.2835365e-06
2.3081732e-06
2.3155591e-06
2.2769139e-06
2.2355786e-06
2.2280173e-06
2.2515089e-06
2.2844322e-06
2.3176372e-06
2.3468265e-06
2.3616081e-06
2.367987e-06
2.3772465e-06
2.3844024e-06
2.3824803e-06
2.3769878e-06
2.3729649e-06
2.3731038e-06
2.3764595e-06
2.3794792e-06
2.3811694e-06
2.3847256e-06
2.390057e-06
2.3899481e-06
2.390386e-06
2.3963664e-06
2.3920485e-06
2.3872096e-06
2.399433e-06
2.4134298e-06
2.3963728e-06
2.3326192e-13
6.0535584e-12
1.4853451e-10
1.4034224e-09
7.8638963e-09
3.2059327e-08
1.0538742e-07
2.9510073e-07
7.2504767e-07
1.5870004e-06
3.1222169e-06
5.5648438e-06
9.0755937e-06
1.3716782e-05
1.9473708e-05
2.6289453e-05
3.4092305e-05
4.2810392e-05
5.2377189e-05
6.2739477e-05
7.3861734e-05
8.5718966e-05
9.8295443e-05
0.0001115849
0.00012558446
0.00014029558
0.00015572249
0.00017186996
0.00018874115
0.00020632801
0.00022459572
0.0002434587
0.00026274404
0.00028214891
0.00030118992
0.00031914691
0.00033502266
0.00034752771
0.00035511188
0.00035605999
0.00034865869
0.00033141415
0.00030327274
0.0002637776
0.00021323937
0.00015357349
9.1934524e-05
4.4785656e-05
2.0617332e-05
1.0860133e-05
6.9867819e-06
5.0909557e-06
3.9208466e-06
3.2229319e-06
2.8929956e-06
2.7684615e-06
2.7171382e-06
2.6786829e-06
2.6290486e-06
2.5735278e-06
2.5433568e-06
2.5397946e-06
2.5268424e-06
2.5053436e-06
2.526663e-06
2.6181352e-06
2.7374719e-06
2.8172494e-06
2.8287616e-06
2.7887976e-06
2.7130825e-06
2.6146236e-06
2.5218818e-06
2.4613824e-06
2.4411365e-06
2.454221e-06
2.4977678e-06
2.53268e-06
2.5149301e-06
2.479639e-06
2.4895785e-06
2.5396332e-06
2.5900838e-06
2.6479246e-06
2.7428182e-06
2.8325912e-06
2.8394161e-06
2.7853994e-06
2.744049e-06
2.7138472e-06
2.6634058e-06
2.5979877e-06
2.5379896e-06
2.4886293e-06
2.4474617e-06
2.4123171e-06
2.3807954e-06
2.3541388e-06
2.3319828e-06
2.3128243e-06
2.305575e-06
2.3019173e-06
2.2852276e-06
2.2833424e-06
2.3080227e-06
2.3145466e-06
2.2753943e-06
2.2344023e-06
2.2273849e-06
2.2511655e-06
2.2842131e-06
2.317474e-06
2.3466823e-06
2.3614707e-06
2.3679227e-06
2.3772443e-06
2.3844015e-06
2.3824623e-06
2.3769123e-06
2.372877e-06
2.3730373e-06
2.3764004e-06
2.3794139e-06
2.3811145e-06
2.3846914e-06
2.3900235e-06
2.3899082e-06
2.3903644e-06
2.3963486e-06
2.3920225e-06
2.3872055e-06
2.3994811e-06
2.4134271e-06
2.3963349e-06
2.1181785e-13
6.5994153e-12
1.6247094e-10
1.5348379e-09
8.597376e-09
3.5024201e-08
1.149633e-07
3.2102876e-07
7.8518117e-07
1.70743e-06
3.3317021e-06
5.8850979e-06
9.5148258e-06
1.4271513e-05
2.0135219e-05
2.7049377e-05
3.4945349e-05
4.3754796e-05
5.3414025e-05
6.3871772e-05
7.5093595e-05
8.7055111e-05
9.9740887e-05
0.00011314522
0.00012726579
0.00014210501
0.00015766798
0.00017396027
0.00019098525
0.00020873422
0.00022717028
0.00024620374
0.00026565497
0.00028521117
0.00030437541
0.00032241036
0.00033829873
0.00035072976
0.00035813306
0.00035877722
0.00035093868
0.00033311973
0.00030426632
0.00026392029
0.0002123965
0.00015168543
8.9350718e-05
4.2645047e-05
1.9507498e-05
1.0418499e-05
6.8069578e-06
4.9764836e-06
3.830829e-06