/*--------------------------------*- C++ -*----------------------------------*\
| =========                 |                                                 |
| \\      /  F ield         | OpenFOAM: The Open Source CFD Toolbox           |
|  \\    /   O peration     | Version:  2506                                  |
|   \\  /    A nd           | Website:  www.openfoam.com                      |
|    \\/     M anipulation  |                                                 |
\*---------------------------------------------------------------------------*/
FoamFile
{
    version     2.0;
    format      ascii;
    arch        "LSB;label=32;scalar=64";
    class       volScalarField;
    location    "0.006";
    object      Co;
}
// * * * * * * * * * * * * * * * * * * * * * * * * * * * * * * * * * * * * * //

dimensions      [0 0 0 0 0 0 0];

internalField   nonuniform List<scalar> 
13761
(
0.00057706076
0.0017798857
0.0030853255
0.0044868891
0.0059343506
0.0073209463
0.0085491774
0.0095947977
0.010482393
0.011245767
0.011913685
0.012507902
0.013044055
0.00058724127
0.0018092983
0.0031324789
0.0045502752
0.0060120092
0.0074099372
0.0086459575
0.0096962268
0.010586019
0.011349907
0.01201728
0.012610207
0.013144565
0.013631978
0.014081263
0.014499195
0.014891045
0.015260981
0.015612333
0.015947818
0.016269895
0.01658071
0.016882061
0.017175668
0.017463117
0.017745865
0.00059659898
0.0018367877
0.0031775096
0.0046121296
0.0060894195
0.0075006691
0.0087469748
0.009804485
0.01069904
0.011465767
0.012134563
0.0127279
0.013261862
0.013748316
0.01419633
0.014612878
0.015003461
0.015375548
0.015737125
0.016087943
0.016426084
0.016753452
0.017071643
0.017382082
0.017685997
0.017984488
0.018278575
0.018569144
0.018857013
0.019142925
0.019427564
0.019711523
0.00060567233
0.0018637158
0.0032222541
0.0046746012
0.0061691197
0.0075960945
0.0088555425
0.0099233975
0.010825907
0.01159876
0.012276299
0.012882326
0.013430504
0.013932621
0.014397831
0.014833112
0.015243805
0.015633959
0.016006699
0.016364549
0.016709701
0.017044045
0.017369161
0.017686481
0.017997233
0.01830242
0.018603052
0.018899976
0.019194006
0.019485888
0.019776285
0.020065798
0.020354977
0.020644297
0.020934189
0.021224958
0.00060238606
0.0018539199
0.0032060877
0.0046526786
0.006143628
0.0075710429
0.0088343852
0.0099074975
0.010815277
0.011592962
0.012270901
0.01287194
0.013412491
0.013904657
0.014357648
0.014781408
0.015186715
0.015575611
0.015947012
0.016303407
0.016646971
0.016979536
0.017302694
0.017617921
0.017926452
0.01822935
0.01852762
0.018822157
0.019113805
0.01940332
0.019691401
0.019978659
0.020265653
0.020552863
0.020840707
0.021129478
0.021419285
0.021710039
0.022001362
0.022299404
0.022608244
0.022917903
0.023220542
0.023503152
0.023623375
0.023608351
0.023594139
0.023597966
0.023600147
0.023599409
0.023595069
0.023586511
0.00059336835
0.0018270893
0.0031613821
0.0045900902
0.0060636994
0.0074754392
0.0087257998
0.0097887938
0.010688946
0.011460914
0.012134532
0.012732322
0.013270446
0.013760829
0.01421254
0.014632595
0.01502645
0.015398407
0.015751838
0.016089522
0.016413964
0.01672734
0.017031559
0.017328417
0.017619538
0.017907345
0.018196387
0.018485677
0.018772174
0.019056618
0.019339696
0.019622043
0.019906641
0.020198735
0.02049774
0.020800651
0.021107101
0.021416405
0.021727531
0.022038965
0.022348555
0.022653548
0.022952087
0.023237114
0.023374725
0.023363789
0.023329125
0.023294731
0.02326149
0.02323658
0.02322552
0.023218421
0.023207275
0.023192952
0.023176797
0.023159652
0.023140839
0.023118565
0.023091226
0.023058837
0.023023248
0.022986334
0.0005837433
0.0017988195
0.0031150635
0.0045264287
0.0059839632
0.0073819749
0.0086218049
0.0096773861
0.010572643
0.011341647
0.012013652
0.012610794
0.013148983
0.013639866
0.014092312
0.014513122
0.014907593
0.015279972
0.015633641
0.01597127
0.016295326
0.016608008
0.016911132
0.017206431
0.017495513
0.017779783
0.018060641
0.018339338
0.01861707
0.018894954
0.019174014
0.019455146
0.019739085
0.020026369
0.020317376
0.020612228
0.020910729
0.021212379
0.021516267
0.021821029
0.022124723
0.022424822
0.022719354
0.023005227
0.023160174
0.023152065
0.023113552
0.023075181
0.023038433
0.023003081
0.022967984
0.022932083
0.022895044
0.022857471
0.022820406
0.022792515
0.02277412
0.022754739
0.022730289
0.02270089
0.022668482
0.022634901
0.022599761
0.02256047
0.022515009
0.022464447
0.022411615
0.00057347522
0.0017691207
0.0030674048
0.0044623335
0.0059054887
0.0072921765
0.0085242974
0.0095753348
0.010468429
0.011236924
0.011909444
0.012507778
0.013047591
0.013540262
0.013994491
0.014416887
0.014812629
0.015185881
0.015539979
0.015877511
0.016200873
0.016512309
0.016813597
0.017106462
0.017392561
0.017673279
0.017950038
0.018224036
0.018496465
0.018768431
0.019040966
0.019315001
0.019591379
0.019870707
0.020153473
0.020439973
0.02073015
0.021023673
0.021319797
0.02161733
0.021914466
0.022208973
0.022498806
0.022783488
0.022956118
0.022954891
0.022915944
0.022876428
0.022838087
0.022800389
0.022762458
0.022723507
0.022683366
0.022642703
0.022602601
0.022563488
0.022524549
0.022483864
0.022439835
0.022392563
0.022343787
0.022295012
0.022251917
0.022213815
0.022172191
0.022125586
0.022076846
0.022025913
0.021969347
0.021905374
0.021836631
0.0005621172
0.0017369479
0.0030171024
0.0043965854
0.0058275948
0.0072064197
0.0084352228
0.0094866503
0.010382781
0.011155983
0.011834054
0.012438308
0.012984061
0.013482396
0.01394181
0.014368808
0.014768517
0.015145133
0.015502129
0.015841935
0.016166851
0.016479195
0.016780591
0.017072652
0.017357053
0.017635069
0.017908229
0.018177796
0.018445025
0.018711109
0.018977128
0.019244018
0.019512682
0.019783735
0.020057741
0.020335164
0.020616096
0.020900382
0.021187457
0.021476345
0.02176549
0.022052893
0.022336526
0.022617113
0.022803834
0.022805926
0.022759985
0.022712836
0.022668571
0.022625955
0.022583622
0.022540403
0.022496006
0.022451114
0.022406859
0.022363733
0.022320823
0.022276276
0.022228566
0.022177866
0.022125928
0.022074158
0.022021769
0.02196632
0.021906165
0.021842644
0.021778209
0.021712382
0.021647067
0.021583767
0.021519487
0.021452835
0.02138078
0.02129933
0.00054876879
0.0016976285
0.0029523981
0.0043078719
0.0057179004
0.0070808147
0.008299576
0.0093460868
0.010241424
0.011017104
0.011700106
0.012311154
0.012865053
0.013372263
0.013840766
0.014276644
0.014684669
0.015068796
0.015432386
0.015777715
0.016107041
0.016422841
0.016726764
0.017020459
0.017305705
0.01758369
0.017855991
0.018123812
0.018388382
0.018650889
0.018912446
0.01917403
0.019436648
0.019700961
0.01996762
0.02023723
0.020509976
0.020785909
0.021064691
0.02134559
0.021627317
0.021908234
0.022186562
0.022463937
0.022668043
0.022682688
0.022635547
0.022582984
0.022532382
0.022482805
0.022433366
0.022383322
0.022332496
0.022281535
0.022231541
0.02218299
0.022134953
0.022085541
0.022033269
0.021978374
0.021922616
0.021867287
0.021811474
0.021752633
0.021689257
0.021622889
0.021555994
0.021487911
0.021415178
0.021336525
0.021254493
0.021170785
0.021084105
0.020998786
0.020915608
0.020830745
0.020738931
0.00053501151
0.0016537288
0.0028732336
0.0041896847
0.0055595214
0.0068845184
0.0080697951
0.0090876229
0.0099587131
0.010714279
0.011381131
0.01197977
0.012524772
0.013026378
0.013492296
0.013928233
0.014338505
0.014726568
0.015095255
0.015446406
0.015781861
0.016103699
0.016413328
0.016712236
0.017002086
0.017284021
0.017559547
0.017829835
0.018096126
0.018359639
0.018621514
0.018882771
0.019144451
0.019407258
0.019671901
0.019939059
0.02020901
0.020481892
0.020757483
0.021035241
0.021314089
0.021592594
0.021868926
0.022144143
0.022363079
0.022391325
0.022346022
0.022294345
0.022245398
0.022198929
0.022152628
0.022105443
0.022057172
0.022008542
0.021960716
0.021914155
0.021867914
0.021820112
0.02176934
0.021715933
0.021661693
0.021607838
0.021553306
0.021495463
0.021432932
0.021367461
0.021301503
0.021234209
0.021162185
0.021084415
0.021003558
0.02092115
0.020833644
0.020737736
0.020645893
0.020562468
0.020473304
0.020372296
0.020266634
0.00052457659
0.0016195273
0.002809942
0.0040925221
0.0054255131
0.0067136679
0.0078641667
0.0088498044
0.0096911096
0.01041915
0.011060832
0.011636599
0.012161053
0.012644636
0.013095174
0.013518454
0.013918825
0.014299664
0.014663596
0.015012314
0.015347352
0.015670316
0.015982221
0.016284164
0.016577418
0.016862913
0.01714193
0.017415521
0.017684841
0.017951048
0.018215259
0.018478499
0.018741806
0.019005929
0.019271608
0.019539555
0.019810141
0.020083606
0.02035984
0.020638469
0.020918689
0.021199369
0.021478974
0.021758312
0.021998092
0.022047653
0.022005241
0.021954696
0.021906375
0.021862157
0.021819323
0.021776414
0.021732815
0.021688968
0.021645864
0.021603883
0.021562063
0.021518521
0.021471878
0.021422524
0.021372258
0.021322217
0.021271215
0.021216538
0.021156944
0.021094342
0.02103114
0.020966309
0.020896549
0.020821086
0.020742726
0.020662822
0.020577517
0.020483867
0.020391868
0.020308385
0.020221023
0.020122172
0.020019228
0.019913445
0.019797335
0.00051572784
0.0015917831
0.0027609396
0.0040198883
0.0053278071
0.0065914646
0.0077194341
0.0086844449
0.0095065114
0.010216295
0.010840506
0.011399504
0.0119079
0.012376289
0.012812622
0.013222813
0.013611368
0.013981762
0.014336674
0.014677938
0.015007147
0.01532578
0.015634751
0.015934947
0.016227312
0.016512517
0.016791565
0.017065296
0.017334677
0.017600717
0.01786443
0.018126801
0.018388855
0.018651387
0.018915195
0.01918104
0.019449383
0.019720589
0.019994686
0.020271435
0.020550248
0.020830359
0.021110748
0.021392561
0.021651548
0.021729914
0.021694374
0.021645944
0.02159813
0.021553828
0.02151119
0.021469067
0.021426939
0.021385161
0.021344554
0.021305314
0.02126634
0.021225717
0.021182081
0.021135836
0.021088763
0.021041924
0.020994063
0.020942427
0.020885763
0.020826083
0.020765668
0.020703303
0.020635801
0.020562644
0.020486773
0.020409315
0.020326146
0.020234705
0.020142837
0.020059413
0.019973783
0.019877071
0.019776753
0.019673356
0.019559687
0.019437562
0.00050760228
0.0015663997
0.0027163561
0.003954179
0.0052400228
0.006482576
0.0075917652
0.0085403074
0.0093475707
0.010043646
0.010654884
0.011201419
0.011697744
0.012154388
0.012579302
0.012978483
0.013356524
0.013716999
0.014062667
0.01439547
0.014717128
0.015029206
0.015332697
0.015628491
0.015917464
0.01620016
0.016477358
0.016749698
0.017017935
0.017282905
0.017545485
0.017806532
0.01806697
0.018327527
0.018588971
0.018852079
0.01911737
0.019385294
0.01965602
0.019929452
0.020205182
0.020482699
0.020761386
0.021042555
0.021313731
0.021421715
0.021396465
0.021352015
0.021306949
0.021264008
0.02122227
0.021180703
0.021138977
0.021097699
0.021057883
0.021019803
0.020982321
0.020943439
0.020901773
0.020857737
0.020813055
0.020768643
0.02072311
0.020673831
0.020619743
0.020562808
0.020505057
0.020445081
0.020379787
0.0203089
0.02023551
0.020160462
0.020079429
0.01999024
0.019898664
0.019815264
0.019731312
0.019636751
0.019539026
0.01943796
0.019326693
0.019207291
0.019083404
0.018952287
0.00049937401
0.0015408786
0.0026718405
0.0038890649
0.0051536201
0.006376079
0.0074676836
0.0084010788
0.009195054
0.0098791443
0.010479321
0.011015418
0.011501716
0.011948675
0.012364205
0.012754288
0.013123533
0.013475557
0.013813179
0.014138436
0.014453103
0.014758785
0.015056548
0.015347355
0.015632102
0.015911328
0.016185705
0.016455735
0.016722002
0.016985144
0.017245861
0.01750489
0.017763078
0.018021137
0.018279829
0.018539927
0.018801973
0.019066452
0.019333621
0.019603513
0.019875852
0.020150312
0.020426578
0.020706058
0.020984431
0.021120104
0.021105641
0.021065253
0.021023946
0.020983613
0.020943649
0.020903329
0.020862634
0.020822183
0.020783004
0.020745476
0.020708632
0.020670648
0.020630207
0.020587703
0.02054478
0.020502228
0.020458558
0.020411107
0.020359096
0.020304623
0.020249405
0.020191752
0.020128654
0.020060033
0.019989085
0.019916352
0.019837371
0.019750383
0.019660218
0.019576799
0.019493601
0.019401221
0.019306033
0.019207183
0.019098197
0.018981404
0.01886009
0.018731854
0.018596391
0.00049178207
0.0015172558
0.0026305349
0.0038285071
0.005073132
0.0062767552
0.0073519152
0.008271289
0.0090530958
0.0097263506
0.010316604
0.010843412
0.011320901
0.011759386
0.012166698
0.012548769
0.012910203
0.013254618
0.013584848
0.013902984
0.01421085
0.014510075
0.014801787
0.015086999
0.015366646
0.015641331
0.015911763
0.016178428
0.01644182
0.016702463
0.016960911
0.017217756
0.017473694
0.017729324
0.017985343
0.018242485
0.018501303
0.018762316
0.019025851
0.01929205
0.019560772
0.019831838
0.020105203
0.020382417
0.020664485
0.020826575
0.020823335
0.020785703
0.020747071
0.020709713
0.020672543
0.020634375
0.020595102
0.02055566
0.020517324
0.02048059
0.020444462
0.020407166
0.02036753
0.020326064
0.020284409
0.02024324
0.020200953
0.02015493
0.020104547
0.020052022
0.019998921
0.019943335
0.019882263
0.019815833
0.019747276
0.019676773
0.019599809
0.019515024
0.019427454
0.019343972
0.019260446
0.019170236
0.019077498
0.018980779
0.018874021
0.018759778
0.01864104
0.018515605
0.018382966
0.018243462
0.00048401709
0.0014932769
0.0025889025
0.0037678814
0.0049930296
0.0061783912
0.0072377214
0.0081437163
0.0089140819
0.0095772807
0.010158482
0.010676942
0.011146584
0.011577576
0.011977646
0.012352701
0.012707277
0.01304497
0.013368613
0.013680308
0.013981932
0.014275138
0.014561082
0.014840827
0.015115338
0.015385264
0.015651336
0.015914066
0.016173975
0.016431558
0.016687286
0.016941636
0.017195175
0.017448382
0.017701845
0.017956221
0.018212013
0.018469734
0.018729743
0.018992271
0.019257321
0.019524872
0.019795102
0.020069663
0.020352717
0.02054004
0.020549742
0.020514294
0.020477059
0.020441513
0.020406405
0.020370595
0.020333573
0.020295909
0.02025879
0.020222909
0.020187502
0.020150954
0.020112171
0.020071651
0.020031015
0.019990893
0.019949666
0.019904799
0.019855852
0.019805037
0.019753714
0.019699928
0.019640705
0.019576374
0.019510145
0.019441795
0.0193668
0.019284217
0.019199161
0.019115571
0.019031712
0.018943723
0.018853392
0.018758729
0.018654176
0.018542463
0.018426255
0.018303562
0.018173697
0.018036951
0.017893206
0.017743369
0.00047684713
0.0014710013
0.002550028
0.0037110088
0.0049175773
0.006085392
0.0071294836
0.0080226102
0.008781947
0.0094354838
0.010008018
0.010518529
0.010980734
0.011404694
0.011798044
0.012166582
0.012514812
0.012846306
0.013163875
0.01346965
0.01376549
0.014053062
0.014333574
0.014608101
0.014877642
0.01514288
0.015404559
0.015663219
0.015919382
0.016173516
0.016426063
0.016677437
0.016928116
0.017178501
0.017429099
0.0176805
0.017933173
0.018187599
0.018444129
0.01870303
0.018964391
0.019228316
0.019495159
0.019766637
0.020048518
0.020259191
0.020284419
0.020251126
0.020214607
0.020180132
0.020146312
0.020112021
0.020076758
0.020040996
0.020005673
0.019971214
0.019936874
0.019901187
0.019863245
0.019823683
0.019784124
0.019745053
0.019704775
0.019660882
0.019613162
0.019563825
0.019514027
0.019461747
0.019404132
0.019341717
0.019277648
0.019211319
0.019138195
0.019057738
0.018975108
0.018891505
0.018807405
0.018721618
0.01863356
0.018540791
0.018438345
0.01832914
0.018215513
0.018095548
0.017968292
0.017834195
0.01769315
0.017546423
0.017394377
0.00046945981
0.00144825
0.0025106384
0.0036537971
0.0048421472
0.0059929302
0.0070223132
0.0079030635
0.0086519098
0.0092963458
0.0098607797
0.010363937
0.01081933
0.011236862
0.011624084
0.011986726
0.01232923
0.012655133
0.012967216
0.013267589
0.013558141
0.013840529
0.014115962
0.014385552
0.0146503
0.014910914
0.015168168
0.015422619
0.015674803
0.015925209
0.016174283
0.016422427
0.016670083
0.016917574
0.017165323
0.017413828
0.017663492
0.017914747
0.01816793
0.018423316
0.01868106
0.018941368
0.019204713
0.019472824
0.019752037
0.019983307
0.020027006
0.019996356
0.01996036
0.01992638
0.019893289
0.019859953
0.019825813
0.019791335
0.019757503
0.019724624
0.01969174
0.01965726
0.01962034
0.01958173
0.019543093
0.019504917
0.019465478
0.019422492
0.019375928
0.019327937
0.019279495
0.019228511
0.019172286
0.019111636
0.019049597
0.018985212
0.018913969
0.018835667
0.018755414
0.018672847
0.01858832
0.018503645
0.018417822
0.018326941
0.018226638
0.018119944
0.018008828
0.017891387
0.0177666
0.017635168
0.017496873
0.017353292
0.017204225
0.017047713
0.00046251877
0.0014267599
0.0024732614
0.0035993022
0.0047700622
0.0059042814
0.0069193152
0.0077880379
0.0085266856
0.0091622774
0.0097188818
0.010214936
0.010663781
0.011075212
0.01145664
0.011813708
0.012150834
0.012471492
0.012778429
0.013073753
0.013359319
0.013636799
0.013907416
0.014172264
0.014432369
0.014688474
0.01494136
0.015191603
0.015439758
0.015686332
0.01593177
0.016176467
0.01642084
0.016665187
0.016909875
0.017155337
0.0174019
0.01764995
0.017899785
0.018151671
0.018405807
0.018662483
0.018922227
0.019186684
0.01946215
0.019710378
0.019775445
0.01974829
0.019712916
0.019679217
0.01964653
0.019613715
0.019580285
0.0195467
0.019513876
0.019482143
0.019450611
0.019417603
0.019382092
0.019344767
0.019307285
0.019270107
0.01923153
0.019189451
0.019144023
0.019097348
0.019050219
0.019000464
0.018945515
0.018886485
0.018826275
0.018763638
0.01869411
0.018617839
0.018539807
0.018459254
0.018374407
0.018289892
0.018206147
0.018117018
0.018018838
0.017914695
0.017806059
0.01769105
0.01756874
0.017439952
0.017304334
0.017163793
0.017017428
0.01686328
0.016703664
0.00045547134
0.0014050826
0.0024357915
0.0035449661
0.0046985109
0.0058166475
0.0068178199
0.0076749159
0.008403744
0.0090308782
0.0095800191
0.010069346
0.010512021
0.010917689
0.011293667
0.011645548
0.011977658
0.012293428
0.012595593
0.012886209
0.013167138
0.013440038
0.013706123
0.013966516
0.014222236
0.014474028
0.014722692
0.014968835
0.015213024
0.015455769
0.015697532
0.015938707
0.016179701
0.016420797
0.016662331
0.01690469
0.017148155
0.017393053
0.017639641
0.017888155
0.018138776
0.018391818
0.01864786
0.01890851
0.019179725
0.01944084
0.019530022
0.019507524
0.019472923
0.01943955
0.019407195
0.019374709
0.019341668
0.019308616
0.019276521
0.019245656
0.019215037
0.019183057
0.019148765
0.019112757
0.019076511
0.019040386
0.019002694
0.018961505
0.01891713
0.01887163
0.018825678
0.018777015
0.018723229
0.018665711
0.018607231
0.018546291
0.018478459
0.01840421
0.018328357
0.018249735
0.018164535
0.018080039
0.017998293
0.017910908
0.017814878
0.017713272
0.017607061
0.017494344
0.017374421
0.017248269
0.017115365
0.016977779
0.016833849
0.016682064
0.016525483
0.00044911968
0.0013853526
0.0024013843
0.0034946764
0.0046318416
0.0057345191
0.0067222852
0.0075681163
0.0082873797
0.0089062152
0.0094479893
0.009930663
0.010367206
0.010767139
0.011137711
0.011484421
0.011811547
0.0121225
0.012419948
0.012705955
0.012982359
0.013250787
0.013512461
0.013768496
0.014019916
0.01426747
0.014511971
0.014754033
0.014994234
0.015233103
0.015471104
0.01570864
0.015946115
0.016183807
0.016422039
0.01666116
0.016901414
0.017143082
0.017386374
0.017631486
0.017878585
0.018127985
0.018380252
0.018636933
0.018903564
0.01917312
0.019288493
0.019272208
0.019238436
0.019205418
0.019173438
0.019141296
0.019108558
0.019075815
0.019044119
0.019013824
0.018983975
0.018952894
0.018919617
0.018884819
0.0188499
0.018814994
0.018778338
0.018738178
0.018694956
0.018650687
0.018605935
0.018558356
0.018505712
0.018449623
0.018392739
0.018333353
0.018267111
0.018194782
0.018120964
0.018044145
0.017959285
0.017874708
0.017794278
0.017708632
0.017614797
0.017515682
0.01741178
0.017301208
0.017183695
0.017060167
0.016929922
0.01679517
0.016653469
0.016504218
0.016350908
0.016191619
0.00044241306
0.0013647223
0.0023657065
0.0034429065
0.0045636494
0.0056509777
0.0066254935
0.0074602434
0.0081701981
0.0087810311
0.0093157661
0.0097921178
0.010222904
0.010617511
0.010983072
0.011325023
0.011647586
0.011954112
0.012247257
0.012529041
0.012801273
0.013065587
0.013323202
0.013575208
0.013822629
0.014066234
0.014306829
0.014545032
0.014781434
0.015016573
0.015250927
0.015484902
0.01571891
0.015953227
0.016188163
0.016424054
0.016661114
0.016899592
0.017139658
0.017381477
0.017625169
0.017871003
0.018119509
0.018372195
0.018634184
0.018907976
0.019050865
0.019042904
0.019010094
0.018977416
0.01894578
0.018914004
0.018881658
0.01884931
0.01881801
0.018788133
0.018758749
0.018728235
0.018695678
0.018661758
0.018627884
0.018594105
0.018558559
0.018519502
0.018477443
0.018434364
0.018390737
0.018344154
0.018292597
0.018237872
0.018182509
0.018124583
0.018059823
0.017989329
0.017917458
0.017842413
0.017759592
0.017674732
0.017593898
0.017509979
0.017418408
0.017321763
0.017220066
0.01711156
0.016996479
0.016875573
0.016747967
0.016615869
0.016476252
0.016329761
0.016179827
0.016023462
0.015862203
0.00043592247
0.0013446976
0.0023310026
0.0033924924
0.0044971699
0.0055694235
0.0065309495
0.0073548512
0.008055646
0.0086586148
0.0091864675
0.0096566645
0.010081844
0.010471276
0.010832001
0.011169369
0.01148756
0.011789869
0.012078899
0.012356659
0.01262495
0.012885367
0.013139099
0.013387262
0.013630867
0.013870675
0.014107502
0.014341964
0.014574666
0.014806153
0.015036904
0.015267341
0.015497877
0.015728794
0.015960399
0.016193017
0.016426849
0.016662112
0.016898947
0.017137464
0.017377743
0.017620018
0.017864792
0.018113521
0.018370887
0.018645147
0.018815574
0.018818564
0.018786914
0.018754578
0.018723267
0.018691791
0.018659764
0.018627782
0.018596875
0.018567391
0.018538425
0.018508397
0.018476451
0.018443307
0.018410306
0.018377408
0.018342815
0.018304859
0.018264016
0.018222202
0.018179737
0.018134143
0.018083652
0.018030249
0.017976383
0.017919905
0.017856631
0.017787942
0.017717931
0.017644566
0.017563682
0.017478479
0.017397109
0.017314981
0.017225699
0.01713139
0.017031757
0.01692527
0.01681268
0.016694378
0.016569319
0.016439674
0.016302138
0.016158732
0.016012151
0.015858299
0.01569936
0.015534121
0.00042963794
0.0013253401
0.0022974935
0.0033438061
0.0044329431
0.0054906265
0.0064395336
0.0072528585
0.0079447432
0.0085400351
0.0090611276
0.0095252509
0.0099448936
0.010329223
0.010685167
0.01101802
0.011331907
0.011630072
0.011915099
0.012188965
0.012453429
0.012710071
0.01296008
0.013204547
0.013444481
0.013680635
0.013913818
0.014144663
0.014373769
0.014601686
0.014828902
0.015055848
0.015282934
0.015510448
0.015738701
0.01596801
0.016198564
0.016430562
0.016664121
0.016899329
0.017136225
0.017374981
0.017616042
0.017860793
0.018113462
0.018385088
0.018581636
0.018598761
0.018568579
0.018536571
0.018505576
0.01847443
0.018442798
0.01841128
0.018380892
0.018351911
0.01832335
0.018293654
0.018262118
0.018229593
0.018197374
0.018165302
0.018131554
0.018094593
0.018054934
0.018014416
0.017973157
0.01792859
0.017879149
0.017826987
0.017774489
0.017719288
0.017657368
0.017590382
0.017522128
0.017450389
0.017371344
0.017286731
0.017204754
0.017123593
0.017036599
0.016944495
0.01684682
0.016742407
0.016632379
0.016516534
0.016393868
0.016266569
0.016131287
0.015991175
0.015847592
0.015695895
0.015539271
0.015376959
0.015209628
0.00042338001
0.0013060512
0.0022641074
0.003295388
0.0043691901
0.0054125057
0.0063490491
0.0071520511
0.0078352406
0.0084230704
0.0089376193
0.0093959076
0.0098102373
0.010189644
0.010540997
0.010869518
0.011179267
0.011473463
0.011754643
0.012024762
0.012285564
0.012538606
0.012785062
0.013026005
0.013262432
0.013495103
0.013724814
0.013952197
0.014177855
0.014402337
0.014626139
0.014849688
0.015073411
0.015297599
0.015522559
0.015748605
0.015975921
0.0162047
0.016435035
0.016666979
0.016900525
0.0171358
0.017373204
0.017614047
0.017862084
0.018128976
0.018348778
0.018383741
0.018355554
0.018323915
0.018293166
0.018262275
0.018230949
0.018199813
0.018169861
0.018141346
0.018113236
0.018083936
0.018052776
0.018020709
0.017989064
0.01795763
0.017924576
0.017888414
0.017849766
0.017810438
0.01777032
0.01772678
0.017678428
0.017627555
0.017576451
0.017522503
0.017461903
0.017396596
0.017330072
0.017259968
0.017182741
0.017100192
0.017017376
0.016935653
0.016850944
0.016760932
0.016665125
0.016562803
0.016455289
0.016341826
0.016221521
0.016096498
0.01596367
0.015826831
0.015685798
0.015536082
0.015381863
0.015222547
0.015057796
0.00041729959
0.0012873598
0.0022318078
0.0032485391
0.0043074701
0.0053368529
0.0062613644
0.0070542964
0.0077290136
0.0083095695
0.008817731
0.0092702863
0.0096793961
0.010053994
0.010400865
0.010725161
0.011030875
0.011321194
0.011598626
0.011865097
0.012122333
0.012371869
0.012614858
0.012852373
0.0130854
0.01331468
0.013541016
0.013765026
0.013987313
0.01420843
0.01442887
0.014649073
0.014869464
0.015090335
0.015311999
0.015534771
0.01575883
0.015984353
0.016211416
0.016440056
0.01667024
0.016902046
0.017135791
0.017372651
0.017615948
0.01787671
0.018115388
0.018171906
0.018146479
0.018115218
0.018084679
0.018054093
0.018023165
0.017992526
0.017963129
0.017935124
0.017907411
0.017878448
0.017847704
0.017816182
0.017785138
0.01775431
0.01772189
0.017686461
0.017648754
0.017610554
0.017571536
0.017529006
0.017481734
0.01743217
0.017382435
0.017329676
0.017270332
0.017206612
0.017141692
0.017073078
0.016997577
0.01691699
0.016833467
0.016751219
0.016668655
0.016580588
0.016486638
0.016386471
0.016281517
0.016170308
0.0160522
0.01592945
0.015799241
0.015665484
0.015526509
0.015378777
0.015227187
0.015070873
0.014908638
0.01474222
0.00041132424
0.0012689393
0.0021999287
0.0032022894
0.0042465539
0.0052622082
0.0061748943
0.0069579769
0.007624414
0.0081978678
0.0086998019
0.009146798
0.0095508689
0.0099208292
0.010263361
0.010583563
0.010885401
0.011172003
0.011445856
0.011708847
0.011962679
0.012208874
0.012448576
0.012682829
0.012912612
0.01313867
0.013361783
0.013582575
0.013801644
0.01401954
0.014236761
0.014453742
0.014670907
0.014888557
0.015107009
0.015326575
0.015547434
0.01576976
0.015993622
0.016219035
0.016445942
0.016674374
0.01690456
0.017137491
0.017376081
0.017630199
0.017882512
0.017964308
0.017942896
0.017912075
0.017881636
0.017851203
0.017820529
0.017790268
0.017761335
0.017733805
0.017706498
0.017677858
0.017647457
0.017616403
0.01758591
0.017555624
0.017523708
0.017488845
0.017451923
0.017414693
0.017376639
0.017335017
0.017288741
0.017240439
0.017192025
0.017140396
0.017082296
0.017020161
0.016956833
0.016889693
0.016815877
0.01673721
0.016655082
0.016572096
0.016489595
0.016403377
0.016311309
0.016213367
0.016110914
0.016001773
0.015885808
0.015765372
0.015637835
0.015506793
0.015369505
0.015224081
0.015075308
0.014921827
0.014762128
0.014598038
0.014431468
0.00040555757
0.0012512022
0.0021692715
0.0031578129
0.0041879636
0.0051904128
0.0060917193
0.0068653024
0.0075237566
0.0080903625
0.0085862821
0.0090278777
0.0094270328
0.0097924389
0.010130719
0.010446909
0.010744908
0.011027824
0.011298109
0.011557639
0.011808091
0.012050964
0.012287393
0.012518421
0.012745007
0.012967878
0.013187822
0.013405446
0.013621344
0.013836069
0.014050114
0.014263912
0.014477892
0.014692356
0.014907614
0.015123983
0.015341642
0.015560758
0.015781395
0.016003554
0.016227151
0.016452171
0.016678762
0.01690774
0.017141654
0.017389044
0.017649112
0.017758786
0.017743049
0.017712734
0.01768243
0.017652232
0.017621883
0.017592053
0.017563615
0.017536538
0.017509558
0.017481193
0.017451156
0.017420595
0.017390672
0.017360934
0.017329502
0.01729518
0.017259023
0.017222712
0.017185557
0.01714478
0.017099483
0.017052452
0.017005324
0.016954796
0.016897938
0.016837354
0.016775537
0.016709802
0.016637618
0.016560753
0.016480469
0.01639675
0.016313623
0.016229198
0.016139097
0.016043376
0.015943235
0.015836024
0.015722217
0.015604162
0.015479312
0.015350567
0.015214828
0.015072121
0.014926239
0.014775381
0.014618245
0.014456525
0.014292535
0.00039980801
0.0012334708
0.002138576
0.0031132828
0.0041293059
0.005118554
0.0060085369
0.0067727159
0.0074233188
0.007983236
0.0084733484
0.0089098056
0.0093043091
0.0096654549
0.0099997814
0.010312257
0.010606733
0.010886272
0.011153301
0.011409659
0.011656995
0.011896811
0.012130214
0.012358225
0.01258181
0.012801687
0.013018625
0.013233235
0.013446114
0.013657801
0.013868789
0.014079516
0.014290409
0.014501768
0.014713913
0.014927154
0.015141669
0.015357629
0.015575087
0.015794036
0.016014373
0.016236039
0.016459097
0.016684194
0.016913572
0.017154569
0.017416914
0.017556021
0.017548378
0.017518648
0.017488346
0.017458231
0.017428088
0.017398599
0.017370561
0.01734384
0.017317139
0.017289028
0.017259331
0.017229252
0.017199879
0.017170636
0.017139598
0.017105734
0.017070278
0.017034812
0.016998465
0.016958414
0.016914006
0.016868165
0.016822196
0.016772658
0.016717009
0.016657954
0.016597581
0.016533158
0.016462571
0.016387498
0.01630898
0.016225452
0.016141505
0.016058084
0.015970008
0.015876453
0.015778509
0.015673125
0.015561538
0.01544598
0.015323587
0.015196662
0.015062645
0.014923065
0.014780006
0.014631477
0.014476922
0.014317622
0.01415597
0.013989055
0.00039416293
0.0012160776
0.0021084303
0.0030694604
0.0040715038
0.0050476135
0.0059262241
0.0066808913
0.0073234797
0.0078765188
0.0083605923
0.0087916591
0.0091813056
0.0095380244
0.0098682532
0.010176896
0.010467772
0.010743898
0.011007648
0.011260857
0.011505153
0.01174199
0.011972468
0.012197599
0.012418323
0.012635354
0.012849459
0.013061233
0.01327126
0.013480082
0.013688185
0.013896004
0.014103968
0.014312378
0.014521546
0.01473179
0.014943289
0.015156206
0.015370593
0.015586432
0.015803598
0.016022
0.016241625
0.016462992
0.016688101
0.016923205
0.01718326
0.01735143
0.017355074
0.017326323
0.017296211
0.017266358
0.01723656
0.017207522
0.01717999
0.017153698
0.017127278
0.017099414
0.017070095
0.01704057
0.017011838
0.016983157
0.01695255
0.016919179
0.016884442
0.016849845
0.016814314
0.016774985
0.016731505
0.016686873
0.016642036
0.016593465
0.016539042
0.016481526
0.016422597
0.01635952
0.016290528
0.016217264
0.016140459
0.016058765
0.015974015
0.015890138
0.015804045
0.015712584
0.015616684
0.015513106
0.015403916
0.015290724
0.015170366
0.015045122
0.014913341
0.014777101
0.014636549
0.014490089
0.014338171
0.014181245
0.014021743
0.013857467
0.013688147
0.0003885388
0.0011986975
0.0020782613