/*--------------------------------*- C++ -*----------------------------------*\
| =========                 |                                                 |
| \\      /  F ield         | OpenFOAM: The Open Source CFD Toolbox           |
|  \\    /   O peration     | Version:  2506                                  |
|   \\  /    A nd           | Website:  www.openfoam.com                      |
|    \\/     M anipulation  |                                                 |
\*---------------------------------------------------------------------------*/
FoamFile
{
    version     2.0;
    format      ascii;
    arch        "LSB;label=32;scalar=64";
    class       volScalarField;
    location    "0.022";
    object      rho;
}
// * * * * * * * * * * * * * * * * * * * * * * * * * * * * * * * * * * * * * //

dimensions      [1 -3 0 0 0 0 0];

internalField   nonuniform List<scalar> 
13762
(
0.66495473
0.66514162
0.66525142
0.66528727
0.6652859
0.66527386
0.66526852
0.66538452
0.66541146
0.66526229
0.66534631
0.66607954
0.66664459
0.66569569
0.66525153
0.66528732
0.66528594
0.66527392
0.66526857
0.66538452
0.66541146
0.66526235
0.66534649
0.66607974
0.66664456
0.66569558
0.66528738
0.665286
0.665274
0.66526863
0.66538453
0.66541145
0.66526241
0.66534668
0.66607994
0.6666445
0.66569555
0.66527409
0.66526872
0.66538455
0.66541146
0.66526247
0.6653468
0.66608004
0.66664448
0.66569552
0.66538457
0.66541147
0.66526255
0.6653469
0.66608008
0.66664446
0.66569559
0.66526262
0.66534701
0.66608017
0.66664445
0.66569569
0.66664445
0.66569573
0.66551411
0.66551518
0.66551574
0.66551587
0.66551579
0.66551584
0.66533233
0.66533293
0.66533308
0.665333
0.66533272
0.66503327
0.66503352
0.66503355
0.66503331
0.66472596
0.66472597
0.66472589
0.66472574
0.66446502
0.66446487
0.66446468
0.6642819
0.66428169
0.66428142
0.66417341
0.66417297
0.66410954
0.66410895
0.66407913
0.66407838
0.6640835
0.66408265
0.66413261
0.66413169
0.66423453
0.66437796
0.66454099
0.66470431
0.66485484
0.66497294
0.6650371
0.66506144
0.66506849
0.66507015
0.66507048
0.66507054
0.66507054
0.6655139
0.66551374
0.66551346
0.6655134
0.66551296
0.66551247
0.66551236
0.66551247
0.66551269
0.66551254
0.6655123
0.66551212
0.66551218
0.66551216
0.66551196
0.6655115
0.66551133
0.66551091
0.66551078
0.66551072
0.66551093
0.665511
0.66551095
0.66551113
0.66551124
0.66551121
0.66551143
0.6655116
0.66551111
0.66551095
0.66551107
0.6655113
0.66551127
0.66551151
0.66551173
0.66551187
0.66551212
0.66551214
0.66551236
0.66551245
0.66551258
0.66551291
0.66551297
0.6655131
0.66551329
0.66551335
0.6655134
0.66551352
0.66551364
0.66551379
0.6655139
0.66551401
0.66551411
0.66551426
0.66551439
0.66551434
0.66551448
0.6655146
0.66551481
0.66551471
0.66551489
0.66551469
0.6655147
0.66551466
0.66551464
0.66551457
0.66551447
0.66551436
0.66551431
0.66551408
0.66551375
0.66551321
0.66551237
0.66551153
0.66551099
0.66551055
0.66551003
0.6655093
0.66550846
0.66550729
0.66550614
0.66550485
0.66550339
0.66550164
0.66549975
0.6654977
0.6654954
0.66549287
0.66549006
0.66548684
0.66548332
0.66547939
0.66547513
0.66547059
0.66546572
0.66546043
0.66545472
0.66544825
0.66544102
0.66543354
0.6654254
0.66541613
0.66540593
0.66539497
0.66538302
0.66536992
0.6653559
0.66534066
0.66532409
0.66530633
0.66528727
0.66526686
0.66524511
0.66522208
0.66519789
0.6651727
0.66514684
0.66512076
0.6650951
0.66507072
0.6650488
0.66503096
0.66501911
0.66501565
0.6650227
0.66504292
0.66508113
0.66514054
0.66522147
0.66532251
0.66543701
0.6655706
0.66571374
0.66584911
0.66595718
0.66601447
0.6660256
0.66599791
0.66596545
0.665937
0.66581191
0.66610541
0.66540223
0.66649467
0.66499011
0.66733623
0.66401525
0.66835801
0.66335932
0.6653326
0.66533261
0.66533283
0.6653327
0.66533249
0.66533271
0.66533285
0.665333
0.66533301
0.66533315
0.66533326
0.66533352
0.66533397
0.66533442
0.66533477
0.66533513
0.66533548
0.66533585
0.66533615
0.66533654
0.66533675
0.66533704
0.6653373
0.66533769
0.66533803
0.66533846
0.6653389
0.66533939
0.66533987
0.66534017
0.66534053
0.66534097
0.66534147
0.66534191
0.66534256
0.66534307
0.66534365
0.6653442
0.66534468
0.6653453
0.66534573
0.66534632
0.66534681
0.66534736
0.66534791
0.66534849
0.665349
0.66534961
0.66535014
0.66535078
0.66535135
0.66535198
0.6653526
0.66535318
0.66535377
0.6653543
0.66535498
0.6653555
0.66535618
0.66535668
0.66535735
0.66535782
0.66535846
0.66535898
0.66535953
0.66536012
0.6653605
0.66536091
0.66536126
0.6653616
0.6653618
0.66536172
0.66536161
0.66536158
0.66536154
0.66536141
0.66536116
0.6653608
0.66536024
0.66535955
0.66535876
0.66535774
0.66535647
0.66535492
0.66535317
0.66535118
0.66534894
0.66534637
0.66534346
0.66534012
0.66533638
0.66533221
0.66532773
0.66532286
0.66531766
0.66531198
0.66530572
0.66529848
0.6652905
0.66528212
0.66527282
0.66526236
0.66525101
0.66523886
0.66522563
0.66521139
0.66519636
0.66518021
0.66516304
0.66514504
0.66512619
0.66510662
0.66508654
0.66506619
0.66504589
0.66502602
0.66500706
0.66498953
0.66497411
0.66496167
0.66495313
0.66494977
0.6649533
0.66496583
0.66498966
0.66502734
0.66508036
0.66514926
0.66523526
0.66533665
0.66545917
0.66559903
0.66574366
0.66587505
0.66597494
0.66602023
0.666023
0.6659914
0.6659588
0.66593014
0.66580993
0.66610498
0.66540096
0.66650155
0.66498598
0.66734418
0.66400149
0.66837352
0.66335459
0.66503372
0.66503393
0.66503435
0.66503467
0.66503516
0.66503554
0.66503606
0.6650365
0.66503701
0.66503742
0.6650379
0.66503832
0.66503887
0.66503936
0.6650399
0.66504034
0.66504088
0.6650414
0.66504198
0.6650425
0.66504314
0.66504369
0.66504429
0.66504491
0.66504554
0.66504617
0.66504683
0.66504753
0.6650483
0.66504901
0.6650498
0.66505053
0.66505131
0.66505206
0.66505284
0.66505368
0.6650545
0.66505541
0.66505629
0.6650572
0.66505809
0.66505897
0.66505991
0.66506085
0.66506181
0.66506283
0.66506379
0.66506485
0.66506584
0.66506693
0.66506797
0.66506905
0.66507014
0.66507127
0.66507244
0.66507356
0.66507476
0.66507587
0.66507709
0.66507823
0.66507946
0.66508064
0.66508186
0.66508304
0.66508426
0.66508546
0.66508659
0.66508773
0.66508883
0.6650899
0.6650909
0.66509187
0.66509285
0.66509381
0.66509472
0.66509556
0.66509631
0.66509697
0.66509753
0.66509799
0.66509832
0.66509849
0.66509846
0.66509824
0.66509783
0.66509722
0.66509638
0.66509528
0.6650939
0.66509221
0.66509026
0.66508807
0.66508563
0.66508289
0.66507988
0.66507635
0.6650722
0.66506722
0.66506192
0.66505625
0.66504964
0.66504226
0.66503432
0.66502581
0.66501651
0.66500674
0.66499649
0.6649855
0.66497407
0.66496232
0.66495025
0.66493808
0.66492602
0.66491431
0.66490328
0.6648933
0.66488481
0.66487832
0.66487448
0.66487409
0.66487819
0.66488808
0.66490537
0.66493177
0.66496878
0.66501725
0.66507889
0.66515624
0.66525024
0.66536181
0.66549277
0.6656364
0.66577791
0.66590318
0.6659941
0.66602974
0.66602238
0.66598502
0.66595165
0.66592242
0.66580733
0.66610317
0.6653976
0.66651265
0.6649815
0.66735505
0.66398389
0.66839343
0.66334276
0.66472638
0.66472673
0.66472716
0.66472765
0.66472815
0.66472871
0.66472927
0.66472987
0.66473045
0.6647311
0.66473172
0.66473235
0.66473304
0.66473368
0.66473443
0.66473508
0.66473585
0.66473658
0.66473734
0.66473814
0.66473892
0.66473978
0.66474058
0.66474147
0.66474235
0.66474323
0.66474419
0.66474508
0.66474606
0.66474703
0.66474802
0.66474906
0.6647501
0.66475118
0.66475228
0.6647534
0.66475456
0.66475572
0.66475694
0.66475815
0.66475943
0.66476068
0.66476201
0.66476334
0.66476471
0.66476612
0.66476753
0.66476902
0.66477048
0.66477203
0.66477356
0.66477515
0.66477676
0.66477839
0.66478007
0.66478175
0.66478349
0.66478523
0.66478704
0.66478885
0.66479072
0.66479259
0.6647945
0.66479642
0.66479837
0.66480032
0.66480228
0.66480425
0.66480623
0.66480822
0.66481023
0.66481226
0.6648143
0.66481633
0.66481839
0.6648205
0.66482258
0.66482458
0.66482653
0.66482841
0.66483022
0.66483196
0.66483362
0.66483519
0.66483665
0.66483799
0.6648392
0.66484027
0.66484123
0.66484208
0.66484283
0.66484341
0.66484385
0.66484407
0.66484398
0.6648435
0.66484243
0.66484107
0.66483969
0.66483779
0.66483525
0.66483234
0.66482917
0.66482564
0.66482173
0.66481778
0.6648135
0.66480892
0.66480435
0.66479981
0.66479538
0.66479127
0.66478767
0.66478485
0.66478309
0.66478276
0.6647843
0.66478827
0.66479535
0.66480632
0.66482209
0.66484376
0.66487267
0.66491022
0.66495744
0.66501585
0.6650873
0.66517373
0.66527703
0.66539803
0.66553312
0.6656747
0.66581023
0.66592863
0.66600964
0.66603698
0.66602143
0.6659794
0.66594471
0.66591629
0.66580483
0.6661026
0.66539371
0.66652792
0.66497636
0.6673689
0.66396711
0.66841349
0.6633253
0.66446553
0.6644659
0.66446643
0.66446696
0.66446755
0.66446813
0.66446873
0.66446934
0.66447001
0.66447063
0.66447131
0.66447197
0.66447269
0.6644734
0.66447411
0.6644749
0.66447564
0.66447643
0.66447725
0.66447807
0.66447892
0.6644798
0.66448068
0.66448159
0.66448254
0.66448348
0.66448447
0.66448547
0.6644865
0.66448756
0.66448864
0.66448976
0.66449089
0.66449206
0.66449327
0.66449448
0.66449576
0.66449703
0.66449838
0.66449971
0.66450113
0.66450254
0.66450403
0.66450552
0.66450707
0.66450865
0.66451026
0.66451194
0.66451363
0.66451538
0.66451717
0.664519
0.66452088
0.6645228
0.66452478
0.66452679
0.66452887
0.66453098
0.66453315
0.66453537
0.66453765
0.66453997
0.66454236
0.66454481
0.66454732
0.66454989
0.6645525
0.66455517
0.66455789
0.66456067
0.6645635
0.66456639
0.66456932
0.66457222
0.66457515
0.66457813
0.66458118
0.66458426
0.66458737
0.6645905
0.66459363
0.6645968
0.66459999
0.66460319
0.6646064
0.66460962
0.66461284
0.66461607
0.6646193
0.66462254
0.66462574
0.66462889
0.66463194
0.66463486
0.66463762
0.66464005
0.66464236
0.66464486
0.66464718
0.66464912
0.66465088
0.66465259
0.66465429
0.66465586
0.66465756
0.66465938
0.66466108
0.66466297
0.66466518
0.66466773
0.66467078
0.66467451
0.66467911
0.66468486
0.66469205
0.66470105
0.6647123
0.66472633
0.66474378
0.66476538
0.66479194
0.66482431
0.6648633
0.66490987
0.6649654
0.66503134
0.66510968
0.66520344
0.66531463
0.66544089
0.66557584
0.66571119
0.66583987
0.66594991
0.66601942
0.6660377
0.66601767
0.66597477
0.66593848
0.66591097
0.66580177
0.66610307
0.66539105
0.66654555
0.66497005
0.66738294
0.66394888
0.66843523
0.66330779
0.66428244
0.66428283
0.66428339
0.66428385
0.66428443
0.66428495
0.66428555
0.66428611
0.66428669
0.66428733
0.66428792
0.66428856
0.66428923
0.66428989
0.66429057
0.66429128
0.664292
0.66429275
0.66429351
0.66429429
0.66429509
0.66429592
0.66429676
0.66429763
0.66429853
0.66429943
0.66430039
0.66430135
0.66430235
0.66430337
0.66430442
0.66430549
0.66430662
0.66430775
0.66430894
0.66431013
0.66431139
0.66431266
0.66431399
0.66431534
0.66431675
0.66431817
0.66431966
0.66432118
0.66432275
0.66432436
0.66432602
0.66432773
0.66432949
0.6643313
0.66433316
0.66433508
0.66433705
0.66433907
0.66434116
0.66434331
0.66434551
0.66434778
0.66435012
0.66435252
0.664355
0.66435754
0.66436016
0.66436286
0.66436563
0.66436848
0.66437142
0.66437444
0.66437753
0.66438071
0.66438394
0.66438727
0.66439069
0.66439417
0.66439776
0.66440145
0.66440526
0.66440914
0.66441312
0.66441718
0.66442135
0.66442562
0.66442998
0.66443444
0.664439
0.66444366
0.6644484
0.66445321
0.6644581
0.66446305
0.66446807
0.66447314
0.66447826
0.6644834
0.66448847
0.66449362
0.66449904
0.66450454
0.66450993
0.66451533
0.66452087
0.66452665
0.66453258
0.66453879
0.66454538
0.66455216
0.66455924
0.66456687
0.66457506
0.66458389
0.66459355
0.66460418
0.66461598
0.66462921
0.66464412
0.66466102
0.6646803
0.66470239
0.6647278
0.66475705
0.66479076
0.66482962
0.66487459
0.66492693
0.66498811
0.66505999
0.66514503
0.6652454
0.66536082
0.66548732
0.66561813
0.66574709
0.66586898
0.66596949
0.66602638
0.66603595
0.66601146
0.66596889
0.66593197
0.66590516
0.66579581
0.66610264
0.66539013
0.66656231
0.66495882
0.66739423
0.66392946
0.66846107
0.66329239
0.66417391
0.66417436
0.66417493
0.66417542
0.66417595
0.66417652
0.66417708
0.66417764
0.66417824
0.66417883
0.66417945
0.66418009
0.66418073
0.66418141
0.66418208
0.66418279
0.66418352
0.66418425
0.66418502
0.66418579
0.66418661
0.66418742
0.66418829
0.66418914
0.66419005
0.66419096
0.66419192
0.66419288
0.6641939
0.66419491
0.66419599
0.66419706
0.6641982
0.66419934
0.66420054
0.66420175
0.66420302
0.6642043
0.66420564
0.66420701
0.66420843
0.66420989
0.66421139
0.66421294
0.66421454
0.66421618
0.66421787
0.66421962
0.66422141
0.66422327
0.66422518
0.66422716
0.6642292
0.6642313
0.66423348
0.66423573
0.66423805
0.66424044
0.66424292
0.66424547
0.66424811
0.66425084
0.66425365
0.66425654
0.66425953
0.66426261
0.66426578
0.66426905
0.66427242
0.66427588
0.66427945
0.66428314
0.66428695
0.66429087
0.66429493
0.66429911
0.6643034
0.66430782
0.66431238
0.66431708
0.66432192
0.66432689
0.66433201
0.66433726
0.66434266
0.66434819
0.66435385
0.66435965
0.6643656
0.66437172
0.66437801
0.66438446
0.66439108
0.66439782
0.66440478
0.66441205
0.66441951
0.66442706
0.66443478
0.66444279
0.66445118
0.66445992
0.66446904
0.66447865
0.66448866
0.66449907
0.66451012
0.66452183
0.66453426
0.66454754
0.6645618
0.66457718
0.66459388
0.66461209
0.66463203
0.66465398
0.66467824
0.66470519
0.66473525
0.66476899
0.66480708
0.66485041
0.66490011
0.66495755
0.66502439
0.66510254
0.66519366
0.66529826
0.66541416
0.66553652
0.66566104
0.66578431
0.66589923
0.66598853
0.66603201
0.66603258
0.66600339
0.6659613
0.66592535
0.66589888
0.66578781
0.66610203
0.66539204
0.66657943
0.66494085
0.66740231
0.66391047
0.66849017
0.66327532
0.66411012
0.66411066
0.66411123
0.66411178
0.66411238
0.66411296
0.66411356
0.66411418
0.6641148
0.66411546
0.66411611
0.66411679
0.6641175
0.6641182
0.66411895
0.66411968
0.66412048
0.66412125
0.66412209
0.6641229
0.66412378
0.66412464
0.66412557
0.66412648
0.66412746
0.66412842
0.66412945
0.66413048
0.66413156
0.66413266
0.6641338
0.66413496
0.66413617
0.66413741
0.66413869
0.66414
0.66414136
0.66414275
0.66414419
0.66414567
0.66414719
0.66414876
0.66415038
0.66415205
0.66415376
0.66415553
0.66415734
0.66415922
0.66416115
0.66416313
0.66416518
0.66416729
0.66416946
0.6641717
0.66417401
0.6641764
0.66417886
0.66418141
0.66418404
0.66418676
0.66418957
0.66419247
0.66419547
0.66419857
0.66420176
0.66420505
0.66420845
0.66421195
0.66421557
0.6642193
0.66422316
0.66422715
0.66423126
0.66423551
0.66423989
0.66424441
0.66424907
0.66425389
0.66425886
0.66426399
0.66426928
0.66427474
0.66428036
0.66428616
0.66429216
0.66429833
0.6643047
0.66431128
0.66431809
0.66432513
0.66433241
0.66433993
0.66434768
0.66435572
0.66436408
0.66437269
0.66438152
0.66439065
0.66440017
0.66441013
0.66442055
0.66443144
0.66444284
0.66445476
0.66446719
0.66448028
0.6644941
0.66450867
0.66452409
0.66454046
0.66455787
0.66457647
0.66459641
0.66461786
0.66464104
0.6646662
0.6646937
0.66472394
0.66475746
0.66479491
0.66483706
0.66488485
0.66493946
0.66500223
0.66507463
0.66515791
0.66525247
0.66535713
0.66546918
0.66558571
0.66570494
0.66582325
0.6659305
0.66600647
0.66603606
0.6660275
0.66599396
0.66595235
0.66591877
0.66589386
0.66577909
0.66610196
0.66539613
0.66659743
0.66491827
0.66740933
0.66389251
0.66852145
0.66326046
0.66407985
0.66408042
0.66408102
0.66408164
0.66408225
0.66408289
0.66408354
0.66408419
0.66408488
0.66408555
0.66408629
0.66408699
0.66408776
0.6640885
0.66408931
0.66409008
0.66409094
0.66409176
0.66409265
0.66409352
0.66409445
0.66409537
0.66409635
0.66409732
0.66409835
0.66409938
0.66410046
0.66410155
0.66410269
0.66410384
0.66410503
0.66410625
0.66410751
0.6641088
0.66411013
0.6641115
0.6641129
0.66411435
0.66411585
0.66411739
0.66411897
0.66412061
0.66412229
0.66412403
0.66412581
0.66412766
0.66412956
0.66413152
0.66413354
0.66413563
0.66413778
0.66413999
0.66414229
0.66414465
0.66414709
0.66414962
0.66415222
0.66415491
0.66415769
0.66416056
0.66416353
0.66416659
0.66416974
0.664173
0.66417636
0.66417983
0.66418342
0.66418712
0.66419095
0.66419491
0.664199
0.66420323
0.6642076
0.66421211
0.66421678
0.66422161
0.6642266
0.66423176
0.6642371
0.66424262
0.66424834
0.66425425
0.66426036
0.6642667
0.66427326
0.66428006
0.6642871
0.66429441
0.66430198
0.66430983
0.66431795
0.66432636
0.6643351
0.66434418
0.66435357
0.66436327
0.66437335
0.66438387
0.66439486
0.66440634
0.66441831
0.66443081
0.66444385
0.66445747
0.66447173
0.66448672
0.66450244
0.66451898
0.66453643
0.66455486
0.6645744
0.66459521
0.66461745
0.66464132
0.66466706
0.66469499
0.66472547
0.66475897
0.66479602
0.66483724
0.66488338
0.66493535
0.66499426
0.66506129
0.66513734
0.66522252
0.66531596
0.66541642
0.66552291
0.66563474
0.66575037
0.66586376
0.66596146
0.66602179
0.66603784
0.66602065
0.66598328
0.66594174
0.66591133
0.66588917
0.66577005
0.6661034
0.66540024
0.66661494
0.6648918
0.66741747
0.66387421
0.66855631
0.66324679
0.66408417
0.66408485
0.66408544
0.66408603
0.66408668
0.66408727
0.66408795
0.66408857
0.66408928
0.66408994
0.66409068
0.66409138
0.66409215
0.66409289
0.6640937
0.66409449
0.66409533
0.66409617
0.66409706
0.66409794
0.66409887
0.66409981
0.66410079
0.66410178
0.66410282
0.66410387
0.66410496
0.66410608
0.66410723
0.66410841
0.66410963
0.66411088
0.66411216
0.66411349
0.66411485
0.66411625
0.66411769
0.66411918
0.66412071
0.66412228
0.66412391
0.66412558
0.6641273
0.66412908
0.66413091
0.6641328
0.66413475
0.66413676
0.66413884
0.66414098
0.66414319
0.66414547
0.66414783
0.66415026
0.66415278
0.66415537
0.66415805
0.66416082
0.66416368
0.66416663
0.66416968
0.66417282
0.66417607
0.66417943
0.6641829
0.66418649
0.6641902
0.66419404
0.66419801
0.66420212
0.66420637
0.66421077
0.66421533
0.66422004
0.66422492
0.66422998
0.66423521
0.66424062
0.66424624
0.66425207
0.6642581
0.66426436
0.66427086
0.66427761
0.66428461
0.66429188
0.66429942
0.66430725
0.66431536
0.66432377
0.66433251
0.66434159
0.66435102
0.66436081
0.66437096
0.66438154
0.66439258
0.66440411
0.66441614
0.66442869
0.66444178
0.66445545
0.66446974
0.6644847
0.66450038
0.66451682
0.66453409
0.66455224
0.66457138
0.66459161
0.66461305
0.66463585
0.66466018
0.66468625
0.66471431
0.66474467
0.66477768
0.66481381
0.66485361
0.66489771
0.66494685
0.66500182
0.66506332
0.66513176
0.66520709
0.66528897
0.66537738
0.66547278
0.66557564
0.66568528
0.6657981
0.66590545
0.66599054
0.66603364
0.66603707
0.66601111
0.66597078
0.66592915
0.66590148
0.66588184
0.66575905
0.66610628
0.66540282
0.66663203
0.66486231
0.6674253
0.66385169
0.66859211
0.66322761
0.6641332
0.66413389
0.66413447
0.66413502
0.66413564
0.6641362
0.66413684
0.66413743
0.6641381
0.66413872
0.66413942
0.66414008
0.66414081
0.66414152
0.66414228
0.66414304
0.66414384
0.66414463
0.66414547
0.66414632
0.6641472
0.6641481
0.66414903
0.66414999
0.66415097
0.66415198
0.66415302
0.66415408
0.66415519
0.66415632
0.66415748
0.66415868
0.66415992
0.66416119
0.6641625
0.66416385
0.66416524
0.66416668
0.66416816
0.66416968
0.66417126
0.66417288
0.66417455
0.66417628
0.66417806
0.6641799
0.6641818
0.66418376
0.66418579
0.66418788
0.66419004
0.66419228
0.66419459
0.66419697
0.66419944
0.66420199
0.66420462
0.66420735
0.66421016
0.66421308
0.66421609
0.6642192
0.66422243
0.66422576
0.66422922
0.6642328
0.66423651
0.66424034
0.66424431
0.66424843
0.6642527
0.66425713
0.66426172
0.66426648
0.66427142
0.66427654
0.66428185
0.66428736
0.66429309
0.66429905
0.66430524
0.66431167
0.66431836
0.66432531
0.66433253
0.66434003
0.66434781
0.66435589
0.66436429
0.66437303
0.66438213
0.6643916
0.66440145
0.6644117
0.66442239
0.66443355
0.66444519
0.66445734
0.66447001
0.66448323
0.66449705
0.66451149
0.66452659
0.6645424
0.66455895
0.66457629
0.66459448
0.6646136
0.66463372
0.66465496
0.66467742
0.66470127
0.66472669
0.6647539
0.66478318
0.66481487
0.66484934
0.66488707
0.66492853
0.66497421
0.66502447
0.66507945
0.66513914
0.66520364
0.66527349
0.66534985
0.66543417
0.66552761
0.66563005
0.66573898
0.66584841
0.66594746
0.66601626
0.66604196
0.66603258
0.6659982
0.66595509
0.66591258
0.66588732
0.66587135
0.66574463
0.66610937
0.66540368
0.66665035
0.66482735
0.66743201
0.66382564
0.66862813
0.66320218
0.66423504
0.66423567
0.66423615
0.66423664
0.66423717
0.66423767
0.66423822
0.66423874
0.66423932
0.66423987
0.66424048
0.66424107
0.6642417
0.66424233
0.66424299
0.66424366
0.66424436
0.66424507
0.66424581
0.66424656
0.66424734
0.66424814
0.66424896
0.66424981
0.66425069
0.66425158
0.66425251
0.66425347
0.66425445
0.66425546
0.66425651
0.66425758
0.66425869
0.66425984
0.66426102
0.66426224
0.6642635
0.66426479
0.66426613
0.66426752
0.66426894
0.66427042
0.66427194
0.66427352
0.66427515
0.66427683
0.66427857
0.66428037
0.66428224
0.66428416
0.66428615
0.66428821
0.66429035
0.66429255
0.66429484
0.6642972
0.66429964
0.66430217
0.66430479
0.66430751
0.66431033
0.66431325
0.66431628
0.66431942
0.66432267
0.66432605
0.66432955
0.66433318
0.66433695
0.66434087
0.66434494
0.66434917
0.66435356
0.66435812
0.66436286
0.66436779
0.66437292
0.66437825
0.6643838
0.66438956
0.66439556
0.6644018
0.66440829
0.66441504
0.66442205
0.66442935
0.66443694
0.66444484
0.66445307
0.66446165
0.6644706
0.66447992
0.66448964
0.66449978
0.66451036
0.66452139
0.66453291
0.66454492
0.66455745
0.66457054
0.66458422
0.66459851
0.66461345
0.66462908
0.66464544
0.6646626
0.66468061
0.66469957
0.66471955
0.66474068
0.6647631
0.66478698
0.66481251
0.66483996
0.66486958
0.66490166
0.66493645
0.66497411
0.66501469
0.66505814
0.66510447
0.66515394
0.66520728
0.66526577
0.66533118
0.66540545
0.66549002
0.66558503
0.66568862
0.66579644
0.66590117
0.66598848
0.66603723
0.66604518
0.66602186
0.66597967
0.66593391
0.66589165
0.66586941
0.66585912
0.66572691
0.66611014
0.66540216
0.66666968
0.664785
0.66743959
0.66380379
0.66866824
0.6631757
0.66437841
0.66437899
0.66437931
0.66437973
0.66438015
0.66438056
0.66438101
0.66438144
0.6643819
0.66438236
0.66438285
0.66438334
0.66438385
0.66438438
0.66438492
0.66438547
0.66438605
0.66438664
0.66438724
0.66438787
0.66438851
0.66438918
0.66438986
0.66439057
0.6643913
0.66439205
0.66439283
0.66439363
0.66439445
0.6643953
0.66439618
0.66439709
0.66439803
0.66439899
0.66439999
0.66440102
0.66440209
0.66440319
0.66440433
0.6644055
0.66440672
0.66440797
0.66440927
0.66441062
0.66441202
0.66441347
0.66441498
0.66441654
0.66441815
0.66441982
0.66442156
0.66442335
0.6644252
0.66442712
0.66442912
0.66443119
0.66443333
0.66443555
0.66443786
0.66444026
0.66444274
0.66444532
0.664448
0.66445078
0.66445367
0.66445668
0.6644598
0.66446304
0.66446641
0.66446992
0.66447357
0.66447736
0.66448131
0.66448542
0.66448969
0.66449413
0.66449875
0.66450357
0.66450858
0.6645138
0.66451923
0.66452488
0.66453077
0.66453691
0.6645433
0.66454996
0.66455691
0.66456416
0.66457173
0.66457962
0.66458786
0.66459646
0.66460544
0.66461481
0.6646246
0.66463482
0.6646455
0.66465666
0.66466833
0.66468053
0.6646933
0.66470668
0.66472069
0.66473539
0.66475084
0.66476709
0.66478422
0.66480232
0.6648215
0.66484187
0.66486356
0.66488669
0.66491138
0.66493771
0.6649657
0.66499529
0.66502643
0.66505912
0.66509352
0.66513003
0.66516944
0.66521293
0.6652621
0.6653189
0.66538518
0.6654623
0.66555047
0.66564838
0.66575301
0.66585936
0.66595776
0.66602647
0.66605057
0.6660385
0.66600077
0.6659516
0.66590532
0.66586568
0.66584661
0.66584456
0.6657058
0.66610826
0.66539811
0.66668956
0.66473266
0.6674511
0.66378961
0.66871394
0.66314996
0.66454139
0.66454188
0.66454209
0.66454242
0.66454274
0.66454305
0.66454339
0.66454373
0.66454408
0.66454444
0.66454482
0.6645452
0.6645456
0.66454601
0.66454643
0.66454686
0.6645473
0.66454776
0.66454824
0.66454873
0.66454923
0.66454975
0.66455029
0.66455085
0.66455142
0.66455202
0.66455264
0.66455328
0.66455394
0.66455463
0.66455533
0.66455607
0.66455682
0.6645576
0.66455841
0.66455925
0.66456012
0.66456101
0.66456194
0.66456291
0.66456392
0.66456497
0.66456606
0.66456718
0.66456834
0.66456955
0.66457079
0.66457208
0.66457341
0.66457479
0.66457622
0.66457769
0.66457922
0.66458081
0.66458245
0.66458416
0.66458593
0.66458778
0.66458969
0.66459169
0.66459376
0.66459591
0.66459815
0.66460048
0.66460291
0.66460543
0.66460806
0.6646108
0.66461365
0.66461662
0.66461971
0.66462293
0.66462628
0.66462978
0.66463341
0.66463721
0.66464116
0.66464529
0.66464959
0.66465409
0.66465877
0.66466366
0.66466877
0.66467411
0.66467968
0.66468551
0.6646916
0.66469796
0.66470462
0.66471157
0.66471885
0.66472646
0.66473442
0.66474275
0.66475147
0.66476059
0.66477015
0.66478017
0.66479067
0.66480167
0.66481323
0.66482536
0.6648381
0.6648515
0.66486559
0.66488042
0.66489601
0.66491239
0.66492957
0.66494754
0.66496627
0.66498575
0.66500596
0.6650269
0.66504865
0.6650714
0.66509543
0.66512124
0.66514952
0.66518126
0.66521778
0.66526065
0.66531162
0.66537227
0.66544373
0.66552628
0.66561918
0.6657207
0.66582778
0.66593326
0.66601607
0.66605258
0.66604831
0.66601569
0.66596494
0.66591366
0.66587093
0.66583556
0.66581945
0.66582904
0.66568483
0.66610637
0.66539026
0.66670651
0.66466955
0.66746806
0.66377553
0.66875981
0.66312455
0.66470468
0.66470506
0.66470521
0.66470546
0.66470569
0.66470594
0.66470619
0.66470645
0.66470672
0.664707
0.66470728
0.66470758
0.66470789
0.6647082
0.66470853
0.66470886
0.66470921
0.66470957
0.66470994
0.66471033
0.66471073
0.66471115
0.66471158
0.66471202
0.66471247
0.66471294
0.66471342
0.66471392
0.66471444
0.66471497
0.66471552
0.66471609
0.66471668
0.66471728
0.66471791
0.66471856
0.66471923
0.66471993
0.66472065
0.66472139
0.66472215
0.66472295
0.66472377
0.66472462
0.66472551
0.66472644
0.6647274
0.6647284
0.66472944
0.66473052
0.66473164
0.6647328
0.66473401
0.66473527
0.66473659
0.66473795
0.66473937
0.66474085
0.6647424
0.664744
0.66474568
0.66474742
0.66474924
0.66475113
0.66475311
0.66475517
0.66475731
0.66475955
0.66476189
0.66476433
0.66476688
0.66476954
0.66477231
0.66477521
0.66477824
0.6647814
0.66478471
0.66478817
0.66479179
0.66479558
0.66479954
0.66480368
0.66480802
0.66481255
0.6648173
0.66482228
0.66482748
0.66483293
0.66483863
0.66484459
0.66485084
0.66485737
0.6648642
0.66487134
0.66487881
0.6648866
0.66489473
0.66490321
0.66491203
0.66492121
0.66493072
0.66494057
0.66495074
0.66496122
0.66497199
0.66498303
0.66499434
0.66500592
0.6650178
0.66503
0.66504262
0.66505577
0.66506963
0.66508443
0.66510052
0.66511834
0.6651385
0.66516181
0.66518926
0.66522207
0.66526159
0.66530926
0.66536639
0.66543399
0.66551258
0.66560225
0.66570262
0.66581209
0.66592351
0.6660127
0.66605228
0.66604992
0.66601943
0.66596755
0.66591284
0.66586543
0.66582809
0.66579702
0.66578509
0.66580964
0.66566146
0.6661049
0.66537114
0.66671352
0.66459916
0.6674903
0.66376075
0.66879962
0.66311668
0.6648551
0.66485537
0.66485548
0.66485566
0.66485582
0.66485599
0.66485617
0.66485636
0.66485655
0.66485674
0.66485694
0.66485715
0.66485736
0.66485759
0.66485781
0.66485805
0.66485829
0.66485854
0.6648588
0.66485906
0.66485933
0.66485961
0.6648599
0.6648602
0.66486051
0.66486083
0.66486116
0.6648615
0.66486186
0.66486223
0.66486261
0.66486301
0.66486343
0.66486386
0.66486432
0.66486479
0.66486527
0.66486578
0.66486631
0.66486686
0.66486743
0.66486803
0.66486865
0.66486929
0.66486997
0.66487067
0.6648714
0.66487216
0.66487295
0.66487377
0.66487463
0.66487552
0.66487645
0.66487742
0.66487844
0.66487949
0.66488059
0.66488174
0.66488294
0.66488419
0.66488549
0.66488685
0.66488827
0.66488974
0.66489129
0.6648929
0.66489458
0.66489634
0.66489817
0.66490008
0.66490208
0.66490417
0.66490634
0.66490862
0.66491099
0.66491347
0.66491606
0.66491876
0.66492157
0.66492451
0.66492757
0.66493075
0.66493407
0.66493752
0.66494111
0.66494484
0.6649487
0.66495271
0.66495686
0.66496115
0.66496558
0.66497014
0.66497484
0.66497967
0.66498462
0.66498968
0.66499486
0.66500013
0.66500551
0.66501097
0.66501652
0.66502217
0.66502791
0.66503378
0.66503979
0.66504599
0.66505243
0.66505919
0.66506639
0.66507418
0.66508274
0.66509233
0.66510327
0.66511597
0.66513093
0.66514878
0.66517029
0.66519635
0.66522799
0.66526633
0.66531258
0.66536798
0.66543376
0.66551114
0.66560138
0.66570537
0.66582089
0.66593508
0.66601679
0.66604657
0.66604224
0.66601167
0.66595915
0.66590386
0.66585467
0.66581389
0.6657823
0.66575653
0.66575139
0.66579152
0.6656413
0.66610396
0.6653328
0.66670719
0.66453155
0.66752699
0.66374242
0.66884647
0.66310369
0.66497309
0.66497323
0.66497329
0.66497337
0.66497345
0.66497354
0.66497363
0.66497372
0.66497382
0.66497392
0.66497402
0.66497413
0.66497425
0.66497437
0.66497449
0.66497462
0.66497476
0.6649749
0.66497505
0.66497521
0.66497537
0.66497553
0.6649757
0.66497588
0.66497607
0.66497626
0.66497647
0.66497667
0.66497689
0.66497712
0.66497735
0.66497759
0.66497785
0.66497811
0.66497838
0.66497867
0.66497897
0.66497928
0.6649796
0.66497994
0.66498029
0.66498065
0.66498103
0.66498143
0.66498184
0.66498227
0.66498271
0.66498318
0.66498366
0.66498417
0.66498469
0.66498524
0.66498581
0.6649864
0.66498701
0.66498766
0.66498832
0.66498902
0.66498974
0.6649905
0.66499128
0.66499209
0.66499294
0.66499383
0.66499474
0.6649957
0.66499669
0.66499772
0.6649988
0.66499991
0.66500107
0.66500227
0.66500351
0.6650048
0.66500614
0.66500753
0.66500896
0.66501045
0.66501198
0.66501356
0.66501519
0.66501687
0.6650186
0.66502038
0.66502221
0.66502408
0.665026
0.66502796
0.66502997
0.66503202
0.66503411
0.66503625
0.66503842
0.66504062
0.66504287
0.66504515
0.66504748
0.66504985
0.66505228
0.66505478
0.66505738
0.66506009
0.66506296
0.66506604
0.66506941
0.66507315
0.66507739
0.66508226
0.66508797
0.66509476
0.66510292
0.66511283
0.66512489
0.6651396
0.66515755
0.66517938
0.66520586
0.66523788
0.66527648
0.66532303
0.66537927
0.66544731
0.66552957
0.66562805
0.66574166
0.66586026
0.66595987
0.66601448
0.66602776
0.66601679
0.66597828
0.66592292
0.66586743
0.66581701
0.66577467
0.6657416
0.66571794
0.6657012
0.6657061
0.66576444
0.66560934
0.66609265
0.66526124
0.66668297
0.66447638
0.66756513
0.66373689
0.66884715
0.66323228
0.66503717
0.66503722
0.66503725
0.66503729
0.66503732
0.66503736
0.66503741
0.66503745
0.66503749
0.66503754
0.66503758
0.66503763
0.66503768
0.66503773
0.66503779
0.66503785
0.6650379
0.66503796
0.66503803
0.66503809
0.66503816
0.66503823
0.66503831
0.66503839
0.66503847
0.66503855
0.66503864
0.66503873
0.66503882
0.66503892