/*--------------------------------*- C++ -*----------------------------------*\
| =========                 |                                                 |
| \\      /  F ield         | OpenFOAM: The Open Source CFD Toolbox           |
|  \\    /   O peration     | Version:  2506                                  |
|   \\  /    A nd           | Website:  www.openfoam.com                      |
|    \\/     M anipulation  |                                                 |
\*---------------------------------------------------------------------------*/
FoamFile
{
    version     2.0;
    format      ascii;
    arch        "LSB;label=32;scalar=64";
    class       volScalarField;
    location    "0.027";
    object      alphat;
}
// * * * * * * * * * * * * * * * * * * * * * * * * * * * * * * * * * * * * * //

dimensions      [1 -1 -1 0 0 0 0];

internalField   nonuniform List<scalar> 
13761
(
6.5252274e-06
6.5141035e-06
6.5061955e-06
6.4986673e-06
6.4940506e-06
6.4938479e-06
6.4950891e-06
6.4965322e-06
6.5011457e-06
6.5070884e-06
6.5129071e-06
6.5184499e-06
6.5252978e-06
6.5321466e-06
6.5363063e-06
6.5388679e-06
6.5355179e-06
6.5174786e-06
6.460406e-06
6.3819983e-06
6.3788618e-06
6.455513e-06
6.6195564e-06
6.7047319e-06
6.7268537e-06
6.7211304e-06
6.7225702e-06
6.7493986e-06
6.788749e-06
6.8342673e-06
6.8832553e-06
6.9356856e-06
6.9942353e-06
7.0603041e-06
7.1319226e-06
7.2080505e-06
7.2915558e-06
7.3867518e-06
7.4970945e-06
7.6200528e-06
7.7543967e-06
7.9026315e-06
8.068025e-06
8.2536133e-06
8.4606727e-06
8.6883975e-06
8.9373895e-06
9.2122461e-06
9.5190793e-06
9.8666457e-06
1.0265554e-05
1.0726789e-05
1.1263608e-05
1.1882563e-05
1.2571678e-05
1.3287683e-05
1.4002952e-05
1.4724271e-05
1.5469011e-05
1.6230417e-05
1.6956708e-05
1.7591576e-05
1.8639728e-05
3.311182e-05
0.00011124443
0.00021823262
0.00030218153
0.00036402122
0.00040990629
0.0004432092
0.0004660132
0.00047985214
0.00048600049
0.00048555248
0.00047957019
0.00046883494
0.0004537349
0.00043506946
0.00041383848
0.00039075801
0.00036640369
0.00034124304
0.00031568185
0.00029005907
0.000264663
0.00023972855
0.00021544821
0.00019201432
0.00016956753
0.00014818569
0.00012793316
0.00010881817
9.0867043e-05
7.4143609e-05
5.8728514e-05
4.4719084e-05
3.2258817e-05
2.1547594e-05
1.282786e-05
6.3551955e-06
2.3290557e-06
5.3821677e-07
6.4720134e-08
3.6703688e-09
1.2336151e-09
6.5255138e-06
6.5144714e-06
6.50669e-06
6.4993424e-06
6.4945836e-06
6.4942803e-06
6.4956081e-06
6.4971058e-06
6.5017782e-06
6.5077211e-06
6.5135435e-06
6.5191016e-06
6.5259372e-06
6.5328956e-06
6.5371842e-06
6.540012e-06
6.5372756e-06
6.5206219e-06
6.4664067e-06
6.3867488e-06
6.3809705e-06
6.4494125e-06
6.6093994e-06
6.7038948e-06
6.7291064e-06
6.7261887e-06
6.7259394e-06
6.7510998e-06
6.7901314e-06
6.8360927e-06
6.885874e-06
6.9388004e-06
6.9977582e-06
7.0644644e-06
7.1369413e-06
7.2140256e-06
7.298373e-06
7.394926e-06
7.5055991e-06
7.6287123e-06
7.7634726e-06
7.9121902e-06
8.0777228e-06
8.264017e-06
8.4727998e-06
8.7025653e-06
8.9531852e-06
9.2291395e-06
9.5362581e-06
9.88224e-06
1.0278722e-05
1.0740226e-05
1.1278706e-05
1.1902631e-05
1.2605312e-05
1.3347996e-05
1.4100486e-05
1.4854423e-05
1.5630493e-05
1.6430364e-05
1.7205981e-05
1.7923043e-05
2.0018987e-05
4.2325031e-05
0.0001328296
0.00023980822
0.00031902871
0.00037668647
0.00041889257
0.00044883827
0.00046848031
0.00047935176
0.00048268133
0.00047950822
0.00047090513
0.00045782586
0.00044104494
0.00042127889
0.00039920799
0.00037542432
0.00035045844
0.00032478321
0.0002988151
0.00027292044
0.00024740771
0.00022253809
0.0001985261
0.00017553132
0.00015368269
0.00013307098
0.0001137597
9.5833089e-05
7.9358333e-05
6.4342153e-05
5.0782157e-05
3.8677121e-05
2.800451e-05
1.8788098e-05
1.1162064e-05
5.4200454e-06
1.9046565e-06
4.1954905e-07
4.8740732e-08
2.5539818e-09
6.9958332e-10
6.5150673e-06
6.5072377e-06
6.5000495e-06
6.4952121e-06
6.4947559e-06
6.4961689e-06
6.49773e-06
6.5024443e-06
6.5083913e-06
6.5142291e-06
6.5197967e-06
6.5265936e-06
6.5336387e-06
6.5380794e-06
6.5411676e-06
6.5391002e-06
6.5239378e-06
6.4728089e-06
6.392304e-06
6.3830722e-06
6.4428708e-06
6.5972603e-06
6.7019376e-06
6.7303122e-06
6.7313255e-06
6.7297268e-06
6.7525066e-06
6.790925e-06
6.8371042e-06
6.8873853e-06
6.9406328e-06
6.9997651e-06
7.0668357e-06
7.1399435e-06
7.217681e-06
7.3023343e-06
7.3988654e-06
7.5093692e-06
7.6321814e-06
7.7667946e-06
7.9152941e-06
8.0802377e-06
8.2659429e-06
8.4745413e-06
8.7043682e-06
8.9545982e-06
9.2290683e-06
9.5334483e-06
9.8745801e-06
1.0262501e-05
1.0708707e-05
1.1229447e-05
1.1839621e-05
1.2544984e-05
1.3325315e-05
1.4099544e-05
1.4874948e-05
1.5669518e-05
1.6496083e-05
1.7317576e-05
1.8084854e-05
1.9968786e-05
4.0963456e-05
0.00013224398
0.00024025913
0.00031918068
0.00037628315
0.00041764209
0.00044682354
0.00046571386
0.00047595465
0.0004787499
0.00047529315
0.00046647118
0.00045325274
0.00043638536
0.00041657333
0.00039454488
0.00037086125
0.000346043
0.00032055216
0.00029479599
0.00026913407
0.00024387664
0.00021929602
0.00019561549
0.00017296201
0.00015145277
0.00013117957
0.00011219426
9.4521358e-05
7.817561e-05
6.3201428e-05
4.964013e-05
3.7523928e-05
2.6888407e-05
1.780396e-05
1.0418754e-05
4.9863648e-06
1.7342062e-06
3.8051392e-07
4.4272683e-08
2.3981414e-09
7.2941319e-10
6.5156896e-06
6.5076295e-06
6.5006508e-06
6.4958528e-06
6.4951958e-06
6.4966657e-06
6.498313e-06
6.503056e-06
6.5090149e-06
6.514897e-06
6.5204794e-06
6.5272127e-06
6.5342806e-06
6.5389056e-06
6.5422523e-06
6.540802e-06
6.5270218e-06
6.4789061e-06
6.3981322e-06
6.3852486e-06
6.4373175e-06
6.5847576e-06
6.6992684e-06
6.7310601e-06
6.7361115e-06
6.7335916e-06
6.7541043e-06
6.7915868e-06
6.837873e-06
6.8885928e-06
6.9422452e-06
7.001596e-06
7.0690625e-06
7.142895e-06
7.221402e-06
7.3064943e-06
7.4031279e-06
7.5134661e-06
7.6360083e-06
7.7704552e-06
7.9186809e-06
8.0829689e-06
8.2680228e-06
8.476309e-06
8.7060335e-06
8.9561242e-06
9.2293103e-06
9.5311646e-06
9.8676143e-06
1.0247676e-05
1.0683986e-05
1.1191921e-05
1.1788629e-05
1.2481965e-05
1.3263623e-05
1.4080221e-05
1.4879216e-05
1.5694687e-05
1.65433e-05
1.7401947e-05
1.8218775e-05
1.9912372e-05
3.7798044e-05
0.00012261689
0.00023212115
0.00031177082
0.00036921719
0.00041103348
0.00044065874
0.00045991246
0.00047059299
0.00047385812
0.00047080409
0.00046238928
0.00044939634
0.00043279824
0.00041340483
0.00039183618
0.00036861874
0.00034426154
0.0003192087
0.00029385406
0.0002685453
0.00024357742
0.00021920564
0.00019564336
0.00017306273
0.00015160918
0.00013138778
0.00011246935
9.4893096e-05
7.8673959e-05
6.380885e-05
5.0288776e-05
3.8118056e-05
2.7356162e-05
1.8110006e-05
1.0569666e-05
5.0284812e-06
1.7341575e-06
3.7751825e-07
4.3694417e-08
2.3190083e-09
6.6453901e-10
6.5160278e-06
6.5079843e-06
6.5012345e-06
6.4965477e-06
6.4957107e-06
6.4971895e-06
6.498943e-06
6.5037013e-06
6.5096704e-06
6.5156094e-06
6.521205e-06
6.5278578e-06
6.5349279e-06
6.5397493e-06
6.5433314e-06
6.5424828e-06
6.5300301e-06
6.4849322e-06
6.40448e-06
6.3874759e-06
6.4324472e-06
6.5720016e-06
6.6956874e-06
6.7314789e-06
6.7407286e-06
6.7379853e-06
6.7557627e-06
6.792213e-06
6.8385204e-06
6.8895817e-06
6.9435747e-06
7.003095e-06
7.0708998e-06
7.1454528e-06
7.2247379e-06
7.3102712e-06
7.406977e-06
7.517107e-06
7.6393708e-06
7.7735794e-06
7.9214211e-06
8.0849683e-06
8.2691585e-06
8.4767581e-06
8.7059496e-06
8.9557616e-06
9.2276684e-06
9.5268768e-06
9.8588555e-06
1.0231642e-05
1.0657167e-05
1.1151007e-05
1.1731557e-05
1.2411457e-05
1.3182959e-05
1.4024362e-05
1.4859893e-05
1.5696788e-05
1.6565097e-05
1.7456285e-05
1.8325652e-05
1.9858719e-05
3.4851086e-05
0.00011438762
0.00022505279
0.00030568888
0.00036346785
0.0004052565
0.00043465846
0.00045422185
0.00046492254
0.00046821578
0.00046524234
0.0004570149
0.00044441388
0.0004282185
0.00040913699
0.00038779436
0.00036489444
0.00034088033
0.00031617088
0.00029115609
0.0002661902
0.00024156523
0.00021752993
0.00019428766
0.00017200009
0.00015079571
0.00013075883
0.00011194737
9.4404106e-05
7.8165405e-05
6.3262714e-05
4.9737538e-05
3.7627283e-05
2.6966769e-05
1.7833938e-05
1.0396053e-05
4.9368547e-06
1.698254e-06
3.6885037e-07
4.2632138e-08
2.2570241e-09
6.4230281e-10
6.5161706e-06
6.5083896e-06
6.501811e-06
6.4972422e-06
6.496291e-06
6.4977172e-06
6.4995796e-06
6.5043493e-06
6.5103277e-06
6.516335e-06
6.5219503e-06
6.5285056e-06
6.535554e-06
6.5405748e-06
6.5443947e-06
6.5441049e-06
6.5329132e-06
6.4908156e-06
6.4112148e-06
6.3897859e-06
6.4283208e-06
6.5592156e-06
6.6909175e-06
6.7315039e-06
6.745011e-06
6.7426938e-06
6.7575162e-06
6.7928749e-06
6.8390667e-06
6.8903799e-06
6.9446793e-06
7.0043325e-06
7.0724184e-06
7.1476694e-06
7.2277553e-06
7.3137823e-06
7.410576e-06
7.5205041e-06
7.6425403e-06
7.7764818e-06
7.923843e-06
8.0865942e-06
8.2697739e-06
8.4763797e-06
8.7046804e-06
8.9539963e-06
9.2249413e-06
9.5218098e-06
9.8497364e-06
1.0215456e-05
1.0630692e-05
1.1111127e-05
1.1674929e-05
1.2335957e-05
1.3094786e-05
1.3931927e-05
1.481805e-05
1.5679338e-05
1.6564895e-05
1.7477529e-05
1.8385865e-05
1.9780305e-05
3.1649935e-05
0.00010285804
0.00021401624
0.00029674441
0.00035557853
0.00039804132
0.00042799241
0.00044768739
0.00045878183
0.00046256568
0.00046005198
0.00045228574
0.00044013032
0.00042439783
0.00040580372
0.00038495902
0.0003623859
0.00033866845
0.00031429847
0.00028964147
0.00026500307
0.00024066665
0.00021687707
0.00019383644
0.00017170487
0.00015061817
0.00013067953
0.00011195921
9.4502522e-05
7.8338637e-05
6.3487979e-05
4.9965621e-05
3.7809627e-05
2.7079663e-05
1.7876663e-05
1.039109e-05
4.9151533e-06
1.6833288e-06
3.6428996e-07
4.2016908e-08
2.2116032e-09
6.1845469e-10
6.5164969e-06
6.5089762e-06
6.5024095e-06
6.4979085e-06
6.4969556e-06
6.4982776e-06
6.5002325e-06
6.505016e-06
6.5110014e-06
6.5170795e-06
6.5227193e-06
6.5291737e-06
6.5361808e-06
6.5414109e-06
6.5454537e-06
6.5456927e-06
6.5356982e-06
6.496574e-06
6.418338e-06
6.3922588e-06
6.4248995e-06
6.5465651e-06
6.6847692e-06
6.7313178e-06
6.7487603e-06
6.7476646e-06
6.7596329e-06
6.7936978e-06
6.8395638e-06
6.8910233e-06
6.9455794e-06
7.0053281e-06
7.0736239e-06
7.149507e-06
7.2303838e-06
7.3169518e-06
7.4138525e-06
7.5235986e-06
7.6454616e-06
7.7791474e-06
7.9259853e-06
8.0879313e-06
8.2699835e-06
8.4752816e-06
8.7023466e-06
8.9507731e-06
9.2208233e-06
9.5153942e-06
9.839488e-06
1.0198738e-05
1.0604168e-05
1.1071871e-05
1.1619243e-05
1.225918e-05
1.2997731e-05
1.382783e-05
1.4727765e-05
1.5647202e-05
1.6548954e-05
1.7480496e-05
1.8420715e-05
1.9726044e-05
2.9029133e-05
9.1704954e-05
0.00020234065
0.00028739338
0.00034736517
0.00039047312
0.00042087383
0.00044097499
0.00045241988
0.00045650931
0.00045443906
0.00044705556
0.00043525817
0.00041989057
0.00040166864
0.00038123004
0.00035913778
0.00033588399
0.00031189933
0.00028760164
0.00026330526
0.00023928647
0.00021578263
0.00019299062
0.00017106786
0.00015014978
0.00013034225
0.00011171835
9.4328433e-05
7.8209489e-05
6.3391249e-05
4.9905395e-05
3.7787097e-05
2.7084359e-05
1.7893287e-05
1.0405346e-05
4.9210937e-06
1.6839722e-06
3.6405501e-07
4.1954024e-08
2.1978245e-09
6.0517699e-10
6.5096168e-06
6.5029878e-06
6.4985223e-06
6.4976651e-06
6.4988667e-06
6.5008707e-06
6.5056783e-06
6.5116734e-06
6.5178149e-06
6.523493e-06
6.5298571e-06
6.5368097e-06
6.5422443e-06
6.5464865e-06
6.5472325e-06
6.5383705e-06
6.5021745e-06
6.4257828e-06
6.3949837e-06
6.4221722e-06
6.5343522e-06
6.6772096e-06
6.7309123e-06
6.7519943e-06
6.7527645e-06
6.7622954e-06
6.7947614e-06
6.8400429e-06
6.8915514e-06
6.9463265e-06
7.00614e-06
7.0745623e-06
7.1509717e-06
7.2326072e-06
7.319756e-06
7.4167926e-06
7.5263989e-06
7.6481585e-06
7.7816303e-06
7.9279274e-06
8.0890599e-06
8.2698968e-06
8.4736388e-06
8.6991975e-06
8.946406e-06
9.215705e-06
9.5084251e-06
9.8288367e-06
1.0182021e-05
1.0578261e-05
1.1034011e-05
1.1565522e-05
1.2183854e-05
1.2897401e-05
1.3712842e-05
1.4616456e-05
1.5578467e-05
1.6516546e-05
1.7462103e-05
1.8422161e-05
1.9650855e-05
2.676167e-05
7.9999365e-05
0.00018859001
0.00027668326
0.00033823221
0.00038228012
0.00041334036
0.00043398692
0.00044594435
0.00045054346
0.00044890488
0.00044202745
0.0004307069
0.00041581859
0.00039805149
0.00037804499
0.00035637167
0.0003335315
0.00030995029
0.00028599423
0.00026202719
0.00023830331
0.00021505535
0.00019248414
0.00017074839
0.00014998441
0.00013029861
0.00011176427
9.4433208e-05
7.8345281e-05
6.3532627e-05
5.0029266e-05
3.7879737e-05
2.7140909e-05
1.7918452e-05
1.0408361e-05
4.9147809e-06
1.6787345e-06
3.6235656e-07
4.1717723e-08
2.1783408e-09
5.9360327e-10
6.5100056e-06
6.5034678e-06
6.4990982e-06
6.4983916e-06
6.499509e-06
6.5015035e-06
6.5063474e-06
6.5123514e-06
6.5185471e-06
6.5242716e-06
6.5305636e-06
6.5374663e-06
6.5431001e-06
6.5475277e-06
6.5487464e-06
6.5409587e-06
6.5076225e-06
6.433522e-06
6.397987e-06
6.420116e-06
6.5227185e-06
6.6682974e-06
6.7301885e-06
6.7545606e-06
6.7578733e-06
6.765496e-06
6.7960829e-06
6.8405211e-06
6.8919811e-06
6.9469362e-06
7.0067927e-06
7.0752533e-06
7.1520544e-06
7.2343844e-06
7.3221373e-06
7.4193376e-06
7.5288553e-06
7.6505719e-06
7.7839095e-06
7.9297219e-06
8.0900754e-06
8.2696424e-06
8.4716077e-06
8.6953704e-06
8.9410159e-06
9.209352e-06
9.5005424e-06
9.8173961e-06
1.0165052e-05
1.0552904e-05
1.0997515e-05
1.1513869e-05
1.2111008e-05
1.2798019e-05
1.3590571e-05
1.4492943e-05
1.5471345e-05
1.6474044e-05
1.74318e-05
1.840733e-05
1.9581529e-05
2.499859e-05
6.9054274e-05
0.00017386604
0.00026517009
0.00032853125
0.00037366225
0.00040547134
0.00042672011
0.0004392135
0.00044431594
0.0004431667
0.00043677176
0.00042609887
0.00041173559
0.00039442797
0.00037484288
0.00035356044
0.00033107867
0.00030783239
0.0002842049
0.00026054002
0.00023709576
0.00021409352
0.00019174172
0.0001701972
0.00014959098
0.00013002918
0.00011158968
9.4329842e-05
7.8293735e-05
6.3517055e-05
5.0037287e-05
3.7900972e-05
2.716645e-05
1.7940652e-05
1.0423272e-05
4.9219641e-06
1.6808269e-06
3.6268451e-07
4.1741435e-08
2.1744011e-09
5.8777358e-10
6.5101986e-06
6.503866e-06
6.4996595e-06
6.4990837e-06
6.5001951e-06
6.5021152e-06
6.506994e-06
6.5130141e-06
6.5192478e-06
6.5250335e-06
6.5312813e-06
6.5381415e-06
6.5439663e-06
6.5485624e-06
6.55022e-06
6.543448e-06
6.5128853e-06
6.4414895e-06
6.4011577e-06
6.4187173e-06
6.5118113e-06
6.6581178e-06
6.7290572e-06
6.7563968e-06
6.7628794e-06
6.7692228e-06
6.7976093e-06
6.8410186e-06
6.8923456e-06
6.9474435e-06
7.0073273e-06
7.0757374e-06
7.1527819e-06
7.2357187e-06
7.3240692e-06
7.4214556e-06
7.5309341e-06
7.6526617e-06
7.7859504e-06
7.9313621e-06
8.0909912e-06
8.2692892e-06
8.4693761e-06
8.6911487e-06
8.9350601e-06
9.202306e-06
9.4923129e-06
9.8058965e-06
1.0148181e-05
1.0528474e-05
1.0962735e-05
1.146462e-05
1.2041505e-05
1.270242e-05
1.3468055e-05
1.4357203e-05
1.5347894e-05
1.6383873e-05
1.7389614e-05
1.8375332e-05
1.950283e-05
2.3584799e-05
5.8751164e-05
0.00015796387
0.00025264033
0.0003182013
0.00036465766
0.00039736925
0.00041932257
0.00043242103
0.00043807065
0.00043743039
0.00043151235
0.00042122054
0.00040737036
0.00039056094
0.0003714586
0.00035064996
0.00032863028
0.00030582658
0.00028260451
0.00025925852
0.00023609699
0.00021337829
0.00019126586
0.00016991533
0.00014946219
0.00013001875
0.00011166641
9.446711e-05
7.8467399e-05
6.3703657e-05
5.0216586e-05
3.805573e-05
2.7288937e-05
1.802898e-05
1.0479378e-05
4.9507936e-06
1.691298e-06
3.6499424e-07
4.200286e-08
2.1825616e-09
5.8481057e-10
6.5105746e-06
6.5043172e-06
6.5002289e-06
6.4997339e-06
6.5009326e-06
6.5027379e-06
6.5076343e-06
6.5136667e-06
6.5199351e-06
6.5257803e-06
6.5320098e-06
6.5388469e-06
6.5448606e-06
6.549605e-06
6.5516776e-06
6.5458656e-06
6.5179799e-06
6.4496275e-06
6.4044871e-06
6.4179799e-06
6.5017323e-06
6.646805e-06
6.7274088e-06
6.7575683e-06
6.7677139e-06
6.7734619e-06
6.7992588e-06
6.8415652e-06
6.8926583e-06
6.947849e-06
7.0077506e-06
7.0760295e-06
7.1531641e-06
7.2365943e-06
7.3255023e-06
7.4230818e-06
7.53256e-06
7.6543446e-06
7.7876881e-06
7.9328278e-06
8.091825e-06
8.2688813e-06
8.4670068e-06
8.6865619e-06
8.9285356e-06
9.1944571e-06
9.4833625e-06
9.7942788e-06
1.0131405e-05
1.0504948e-05
1.0929658e-05
1.1417776e-05
1.1975539e-05
1.2611714e-05
1.3349493e-05
1.4216731e-05
1.5210219e-05
1.6268083e-05
1.7336019e-05
1.8334522e-05
1.9434601e-05
2.2565263e-05
4.9829731e-05
0.00014152663
0.00023922836
0.0003072938
0.00035525384
0.00038898294
0.00041172844
0.00042550654
0.00043176456
0.00043167112
0.00042624023
0.00041638961
0.00040296392
0.00038672807
0.00036815575
0.00034777421
0.0003261173
0.0003036515
0.00028076226
0.00025776474
0.00023492597
0.00021247601
0.0001906165
0.00016948908
0.00014922815
0.00012994574
0.00011171531
9.4593652e-05
7.8631875e-05
6.3878981e-05
5.0384184e-05
3.8204286e-05
2.7410229e-05
1.8118726e-05
1.0537305e-05
4.9809206e-06
1.7023404e-06
3.6744803e-07
4.2282222e-08
2.1920024e-09
5.8251369e-10
6.504942e-06
6.5007837e-06
6.5003361e-06
6.5016888e-06
6.5033741e-06
6.5082449e-06
6.5142861e-06
6.5205937e-06
6.5264966e-06
6.5327313e-06
6.5395674e-06
6.5457618e-06
6.5506401e-06
6.5530989e-06
6.5482e-06
6.5228772e-06
6.4578374e-06
6.4081674e-06
6.4179368e-06
6.4925441e-06
6.6345312e-06
6.7251189e-06
6.75834e-06
6.7723282e-06
6.7781662e-06
6.8011433e-06
6.8422425e-06
6.8929541e-06
6.9481678e-06
7.0080757e-06
7.0761552e-06
7.1532429e-06
7.2370463e-06
7.3264446e-06
7.4242105e-06
7.5336974e-06
7.6555665e-06
7.7890436e-06
7.9340338e-06
8.0925168e-06
8.2684363e-06
8.4646468e-06
8.6819001e-06
8.9218752e-06
9.1864229e-06
9.4741589e-06
9.7828233e-06
1.0115134e-05
1.0482519e-05
1.0898495e-05
1.1373622e-05
1.1913385e-05
1.2526584e-05
1.3237068e-05
1.4077143e-05
1.5057588e-05
1.6133073e-05
1.7228511e-05
1.8286523e-05
1.9366081e-05
2.1811971e-05
4.2213207e-05
0.00012466644
0.0002247821
0.00029578412
0.00034548627
0.00038037102
0.00040399061
0.00041850111
0.00042541111
0.000425914
0.00042103077
0.00041167293
0.0003986634
0.00038274916
0.00036462278
0.00034473077
0.00032355415
0.00030151387
0.0002789854
0.00025631037
0.0002337635
0.0002115741
0.00018994264
0.00016901964
0.00014892465
0.00012976459
0.00011162736
9.4579277e-05
7.8674583e-05
6.396072e-05
5.0487461e-05
3.8313407e-05
2.7511888e-05
1.8202698e-05
1.059716e-05
5.0150394e-06
1.7158551e-06
3.7061772e-07
4.2655062e-08
2.2074428e-09
5.8276419e-10
6.5056505e-06
6.5012622e-06
6.5009265e-06
6.5024503e-06
6.5040649e-06
6.5088468e-06
6.5148742e-06
6.52124e-06
6.5272027e-06
6.5334397e-06
6.5403025e-06
6.5466838e-06
6.5516837e-06
6.5545037e-06
6.5504733e-06
6.5275894e-06
6.4660851e-06
6.4122799e-06
6.4186035e-06
6.4842927e-06
6.6215149e-06
6.7220013e-06
6.7587827e-06
6.7766715e-06
6.7832267e-06
6.8036208e-06
6.8431519e-06
6.8932494e-06
6.9483928e-06
7.0082991e-06
7.0761324e-06
7.1530512e-06
7.2370976e-06
7.3268927e-06
7.4248153e-06
7.5342884e-06
7.6562544e-06
7.7899423e-06
7.9349115e-06
8.0930115e-06
8.2679048e-06
8.4622198e-06
8.6770541e-06
8.9149161e-06
9.1780549e-06
9.4646061e-06
9.7713331e-06
1.0099808e-05
1.0461244e-05
1.0869218e-05
1.1332264e-05
1.1855078e-05
1.2447045e-05
1.3131626e-05
1.3942591e-05
1.4899586e-05
1.5978602e-05
1.7103766e-05
1.8224418e-05
1.9308931e-05
2.128103e-05
3.6165908e-05
0.00010807265
0.00020938559
0.00028368205
0.00033533473
0.00037151311
0.00039610555
0.00041142363
0.00041904119
0.00042017489
0.00041585194
0.00040698595
0.00039440383
0.0003788581
0.00036103438
0.00034155259
0.00032079132
0.00029915009
0.00027700578
0.00025468249
0.00023245075
0.00021054063
0.00018913981
0.00016841339
0.00014849401
0.00012948846
0.00011147926
9.4531186e-05
7.8699238e-05
6.4033023e-05
5.0585451e-05
3.8418887e-05
2.7610725e-05
1.8284786e-05
1.0656259e-05
5.0492505e-06
1.7296465e-06
3.7389797e-07
4.304431e-08
2.2243808e-09
5.8398611e-10
6.506069e-06
6.5016616e-06
6.5015102e-06
6.5031791e-06
6.5048061e-06
6.5094337e-06
6.5154141e-06
6.521856e-06
6.5278844e-06
6.5341309e-06
6.5410294e-06
6.5475989e-06
6.5527135e-06
6.5558786e-06
6.5526639e-06
6.5320892e-06
6.4742864e-06
6.4168352e-06
6.4199062e-06
6.4770088e-06
6.6079922e-06
6.7178122e-06
6.7586533e-06
6.7805511e-06
6.788481e-06
6.80667e-06
6.8443782e-06
6.8935779e-06
6.9485436e-06
7.0084313e-06
7.075987e-06
7.1526457e-06
7.2368143e-06
7.3269122e-06
7.4249506e-06
7.5343501e-06
7.6563862e-06
7.790313e-06
7.9353628e-06
8.093229e-06
8.2672862e-06
8.4598405e-06
8.6722852e-06
8.9080316e-06
9.1697413e-06
9.4549937e-06
9.7597907e-06
1.0085464e-05
1.0441314e-05
1.0841887e-05
1.1293889e-05
1.1800822e-05
1.2373072e-05
1.3033239e-05
1.3814195e-05
1.4739554e-05
1.5802778e-05
1.6950834e-05
1.8102966e-05
1.9236031e-05
2.0898197e-05
3.1475396e-05
9.2078473e-05
0.00019299587
0.00027096312
0.00032480547
0.00036242128
0.00038807196
0.00040425374
0.00041262504
0.00041443745
0.00041073046
0.00040241989
0.00039033089
0.00037520961
0.00035772651
0.00033848134
0.00031802166
0.00029671681
0.00027490607
0.00025289926
0.00023096467
0.00020933167
0.00018818981
0.00016768913
0.00014797434
0.00012913942
0.00011127224
9.4437721e-05
7.8691928e-05
6.4086248e-05
5.0675966e-05
3.8526384e-05
2.7718199e-05
1.8378741e-05
1.0726934e-05
5.0917425e-06
1.7473074e-06
3.7818683e-07
4.3559688e-08
2.2483816e-09
5.8745456e-10
6.5062933e-06
6.5020868e-06
6.5020687e-06
6.5038695e-06
6.5056044e-06
6.5100403e-06
6.5159368e-06
6.5224579e-06
6.5285635e-06
6.5348099e-06
6.5417507e-06
6.5485144e-06
6.5537398e-06
6.5572333e-06
6.554798e-06
6.5363921e-06
6.4823975e-06
6.4219164e-06
6.4216555e-06
6.4707374e-06
6.5942887e-06
6.7122585e-06
6.75825e-06
6.7838394e-06
6.7937389e-06
6.8101417e-06
6.8459179e-06
6.8939567e-06
6.9486378e-06
7.0084853e-06
7.0757501e-06
7.1520795e-06
7.2362549e-06
7.326561e-06
7.4246595e-06
7.5339068e-06
7.6559586e-06
7.7901221e-06
7.935327e-06
8.0930931e-06
8.2664796e-06
8.4573527e-06
8.6673862e-06
8.9009711e-06
9.1612403e-06
9.4453042e-06
9.7484143e-06
1.0071744e-05
1.0423019e-05
1.0816454e-05
1.1258431e-05
1.1750734e-05
1.2304546e-05
1.2941859e-05
1.3693334e-05
1.458343e-05
1.5618404e-05
1.6771779e-05
1.7963762e-05
1.9146081e-05
2.0619246e-05
2.8060114e-05
7.7344968e-05
0.00017578683
0.00025761434
0.00031387972
0.00035309304
0.00037990792
0.00039702602
0.00040620119
0.00040872527
0.00040565188
0.0003979006
0.00038629848
0.00037159642
0.00035447318
0.00033553621
0.00031532508
0.00029431797
0.00027282991
0.00025112541
0.00022947465
0.00020810753
0.00018721182
0.00016693556
0.00014740683
0.00012874611
0.00011102486
9.4309029e-05
7.8654908e-05
6.4115155e-05
5.0747191e-05
3.8619143e-05
2.7815046e-05
1.8465753e-05
1.0793809e-05
5.1327228e-06
1.7646159e-06
3.8243489e-07
4.4073069e-08
2.2728823e-09
5.915952e-10
6.5066735e-06
6.5026686e-06
6.5025335e-06
6.5045136e-06
6.5064149e-06
6.5106675e-06
6.5164529e-06
6.523037e-06
6.5292299e-06
6.5354782e-06
6.5424571e-06
6.5494003e-06
6.5547449e-06
6.5585476e-06
6.5568533e-06
6.5404799e-06
6.4903423e-06
6.4276224e-06
6.4236087e-06
6.4655205e-06
6.5808394e-06
6.7051941e-06
6.7577136e-06
6.7865143e-06
6.7988356e-06
6.8139728e-06
6.8476972e-06
6.8944193e-06
6.9487239e-06
7.0084908e-06
7.0754595e-06
7.1514228e-06
7.235513e-06
7.3259538e-06
7.4240552e-06
7.5330593e-06
7.6550261e-06
7.7893583e-06
7.9347521e-06
8.0925581e-06
8.2655012e-06
8.4548859e-06
8.6626208e-06
8.8940599e-06
9.1527522e-06
9.4354813e-06
9.7370074e-06
1.0058202e-05
1.0406614e-05
1.079302e-05
1.1225754e-05
1.1704881e-05
1.2241414e-05
1.2857168e-05
1.3579853e-05
1.4432241e-05
1.542867e-05
1.6565374e-05
1.7790893e-05
1.9007686e-05
2.0395261e-05
2.5624743e-05
6.4205761e-05
0.00015790898
0.00024358958
0.00030254105
0.0003435179
0.00037159695
0.00038971724
0.00039974714
0.00040302897
0.00040063612
0.00039349383
0.00038242992
0.00036819499
0.00035146816
0.00033285727
0.00031290082
0.00029206937
0.00027077381
0.00024932834
0.00022793611
0.00020681867
0.00018615945
0.00016610459
0.00014678217
0.00012829404
0.00011072447
9.413607e-05
7.8583963e-05
6.4121159e-05
5.0806142e-05
3.8708851e-05
2.7915762e-05
1.8560629e-05
1.0869344e-05
5.1802957e-06
1.7851225e-06
3.8753402e-07
4.4693933e-08
2.3034415e-09
5.9768528e-10
6.5033133e-06
6.5029187e-06
6.5051473e-06
6.5072189e-06
6.51135e-06
6.5170019e-06
6.5236158e-06
6.5299027e-06
6.5361514e-06
6.5431573e-06
6.5502674e-06
6.5557404e-06
6.5598335e-06
6.5588529e-06
6.5443842e-06
6.4980879e-06
6.4339992e-06
6.4256702e-06
6.4613236e-06
6.5677536e-06
6.6966061e-06
6.7569758e-06
6.788472e-06
6.8036672e-06
6.8181229e-06
6.8496038e-06
6.8950194e-06
6.9488524e-06
7.0084844e-06
7.0751593e-06
7.1507349e-06
7.2346627e-06
7.3251758e-06
7.4232273e-06
7.531916e-06
7.6536842e-06
7.7880752e-06
7.9336375e-06
8.0915772e-06
8.2642354e-06
8.452262e-06
8.6577722e-06
8.8870643e-06
9.1441459e-06
9.425618e-06
9.7258356e-06
1.0045141e-05
1.0391418e-05
1.0771737e-05
1.1195611e-05
1.1663125e-05
1.2183722e-05
1.27792e-05
1.3474512e-05
1.4289773e-05
1.5244134e-05
1.6351045e-05
1.7586624e-05
1.8852634e-05
2.0204888e-05
2.3969493e-05
5.3078125e-05
0.00013972991
0.00022886021
0.00029077394
0.00033369398
0.00036315011
0.00038234745
0.00039328446
0.00039736209
0.00039567699
0.00038916185
0.00037864555
0.00036487981
0.00034854766
0.00033026486
0.00031058029
0.00028997361
0.00026885686
0.00024758132
0.00022641677
0.00020553167
0.00018509068
0.00016523938
0.00014610455
0.00012779026
0.00011037309
9.3914321e-05
7.8468119e-05
6.4087503e-05
5.0831359e-05
3.8771212e-05
2.7995651e-05
1.864108e-05
1.0936262e-05
5.2238512e-06
1.804356e-06
3.9238836e-07
4.5289445e-08
2.3335124e-09
6.0440513e-10
6.5037137e-06
6.5033299e-06
6.5057845e-06
6.5079758e-06
6.5120767e-06
6.5176007e-06
6.5241854e-06
6.5305636e-06
6.5368282e-06
6.543853e-06
6.5510981e-06
6.5567013e-06
6.5610791e-06
6.560785e-06
6.5480924e-06
6.5055842e-06
6.440991e-06
6.427901e-06
6.4580761e-06
6.5553989e-06
6.6865933e-06
6.7559257e-06
6.789795e-06
6.8082059e-06
6.8225547e-06
6.8517183e-06
6.8958595e-06
6.9490819e-06
7.0085012e-06
7.0748864e-06
7.1500795e-06
7.2338017e-06
7.3243491e-06
7.4223091e-06
7.5306277e-06
7.6520603e-06
7.7863471e-06
7.932017e-06
8.0901757e-06
8.262731e-06
8.4496208e-06
8.6531029e-06
8.8802726e-06
9.1355291e-06
9.4154815e-06
9.7144327e-06
1.0032332e-05
1.0376499e-05
1.0752975e-05
1.1167955e-05
1.162512e-05
1.2131448e-05
1.2707831e-05
1.3377067e-05
1.4156226e-05
1.5066645e-05
1.6132491e-05
1.7354996e-05
1.8667391e-05
2.0022845e-05
2.2848237e-05
4.4033957e-05
0.00012162291
0.00021337994
0.00027855756
0.00032360123
0.00035454203
0.00037488624
0.00038678286
0.00039170245
0.00039077062
0.00038493001
0.00037501129
0.00036176529
0.00034587496
0.00032795801
0.000308568
0.000288191
0.00026724614
0.00024609016
0.0002250178
0.00020427267
0.00018400916
0.00016433839
0.00014537777
0.00012722867
0.00010996238
9.364138e-05
7.831141e-05
6.402478e-05
5.0839032e-05
3.8826108e-05
2.8075811e-05
1.8726509e-05
1.1009711e-05
5.2727119e-06
1.8262666e-06
3.9797399e-07
4.597863e-08
2.3689709e-09
6.1291311e-10
6.5039194e-06
6.503916e-06
6.5064272e-06
6.5086961e-06
6.5128601e-06
6.5182793e-06
6.5247865e-06
6.5312231e-06
6.5375185e-06
6.5445554e-06
6.5519105e-06
6.557655e-06
6.5623176e-06
6.5626799e-06
6.5516388e-06
6.5128171e-06
6.4485092e-06
6.4304419e-06
6.4557179e-06
6.5439258e-06
6.6753301e-06
6.7543905e-06
6.7906642e-06
6.8124536e-06
6.8272123e-06
6.854309e-06
6.8970491e-06
6.9494485e-06
7.0085782e-06
7.0746838e-06
7.149504e-06
7.2329928e-06
7.3235421e-06
7.4213863e-06
7.5293168e-06
7.6503008e-06
7.7843043e-06
7.9299711e-06
8.0883702e-06
8.2609033e-06
8.4468006e-06
8.6484345e-06
8.8735504e-06
9.1269584e-06
9.4053835e-06
9.7031292e-06
1.0019951e-05
1.0361942e-05
1.0736132e-05
1.1142866e-05
1.1590447e-05
1.2084454e-05
1.2643391e-05
1.328822e-05
1.4034146e-05
1.490299e-05
1.5925468e-05
1.7119707e-05
1.8449021e-05
1.9837075e-05
2.2100404e-05
3.7081561e-05
0.00010413709
0.00019716789
0.00026589172
0.00031324135
0.00034578094
0.00036734371
0.0003802485
0.00038604597
0.00038589589
0.00038075285
0.00037144971
0.00035873592
0.00034329373
0.00032574315
0.00030664457
0.00028649526
0.00026572824
0.00024471369
0.0002237559
0.00020310451
0.00018295565
0.00016343637
0.00014462972
0.00012662762
0.00010949751
9.3296374e-05
7.8082571e-05
6.3893297e-05
5.0785046e-05
3.8829057e-05
2.8115257e-05
1.8782899e-05
1.1065094e-05
5.3125446e-06
1.8450042e-06
4.0287693e-07
4.6591183e-08
2.4018008e-09
6.2199721e-10
6.5043129e-06
6.5045897e-06
6.5069967e-06
6.5093827e-06
6.5136601e-06
6.5190297e-06
6.5254145e-06
6.5318689e-06
6.5382111e-06
6.545263e-06
6.5526933e-06
6.5585912e-06
6.5635475e-06
6.5645135e-06
6.5550222e-06
6.5197531e-06
6.4564335e-06
6.4333971e-06
6.4542103e-06
6.5334815e-06
6.6630883e-06
6.7521678e-06
6.7912412e-06
6.8163367e-06
6.8320137e-06
6.8573489e-06
6.898641e-06
6.9499794e-06
7.0087435e-06
7.074575e-06
7.1490486e-06
7.2323093e-06
7.3228449e-06
7.4205656e-06
7.5281108e-06
7.6485464e-06
7.7820826e-06
7.927622e-06
8.0862657e-06
8.2588543e-06
8.4439533e-06
8.6440048e-06
8.8671455e-06
9.1184719e-06
9.3950366e-06
9.6914793e-06
1.0007579e-05
1.0348406e-05
1.071982e-05
1.1120808e-05
1.1558875e-05
1.2042301e-05
1.2585873e-05
1.3207775e-05
1.3923023e-05
1.4752564e-05
1.572986e-05
1.6884966e-05
1.8206523e-05
1.96285e-05
2.1573368e-05
3.1960901e-05
8.7775809e-05
0.00018028229
0.00025277
0.00030260175
0.00033685171
0.00035970037
0.00037365822
0.00038037018
0.00038103829
0.00037663408
0.00036799521
0.00035587059
0.00034093991
0.00032382065
0.00030507248
0.00028519482
0.00026462662
0.0002437475
0.00022287419
0.00020227006
0.00018214504
0.00016265781
0.00014393146
0.0001260399
0.00010902547
9.2939132e-05
7.783233e-05
6.3745103e-05
5.072081e-05
3.8828046e-05
2.815586e-05
1.8843856e-05
1.1126274e-05
5.3571744e-06
1.8662245e-06
4.0847279e-07
4.7293483e-08
2.4399401e-09
6.3297231e-10
6.5050159e-06
6.507474e-06
6.5100577e-06
6.514465e-06
6.5198542e-06
6.5260957e-06
6.5325218e-06
6.5389048e-06
6.5459835e-06
6.5534614e-06
6.5595387e-06
6.5647589e-06
6.5663055e-06
6.558275e-06
6.5263988e-06
6.464665e-06
6.4367016e-06
6.4535167e-06
6.5241488e-06
6.6501514e-06
6.7489675e-06
6.7911651e-06
6.8195603e-06
6.8368201e-06
6.8607951e-06
6.9005644e-06
6.9506795e-06
7.0090249e-06
7.0745864e-06
7.1487383e-06
7.2317821e-06
7.3222861e-06
7.4198958e-06
7.527086e-06
7.6469231e-06
7.7798335e-06
7.9251009e-06
8.0839351e-06