/*--------------------------------*- C++ -*----------------------------------*\
| =========                 |                                                 |
| \\      /  F ield         | OpenFOAM: The Open Source CFD Toolbox           |
|  \\    /   O peration     | Version:  2506                                  |
|   \\  /    A nd           | Website:  www.openfoam.com                      |
|    \\/     M anipulation  |                                                 |
\*---------------------------------------------------------------------------*/
FoamFile
{
    version     2.0;
    format      ascii;
    arch        "LSB;label=32;scalar=64";
    class       surfaceScalarField;
    location    "0.027";
    object      phi;
}
// * * * * * * * * * * * * * * * * * * * * * * * * * * * * * * * * * * * * * //

dimensions      [1 0 -1 0 0 0 0];

oriented        oriented;

internalField   nonuniform List<scalar> 
26945
(
0.018370971
-1.5337224
1.5345564
0.017529042
-1.4159407
1.4167669
0.016718613
-1.3071578
1.3079547
0.015926495
-1.2071838
1.2079617
0.015153353
-1.1150204
1.1157816
0.014396775
-1.0300072
1.0307566
0.013656237
-0.95148259
0.95221953
0.012942178
-0.87925732
0.87996674
0.012248045
-0.81276728
0.81345551
0.01157141
-0.75144472
0.75211799
0.01091386
-0.69480019
0.69545597
0.01028188
-0.64251326
0.64314393
0.0096792851
-0.59443816
0.5950398
0.0090979029
-0.55003946
0.55061971
0.0085452543
-0.50894941
0.50950178
0.0080234076
-0.47105687
0.47157763
0.0075283374
-0.43603906
0.43653306
0.0070627621
-0.40361885
0.40408388
0.0066274043
-0.37363233
0.37406732
0.0062237609
-0.34592107
0.34632462
0.0058494361
-0.32030121
0.32067519
0.0055028719
-0.29653005
0.29687675
0.0051852427
-0.27447383
0.27479112
0.0048941957
-0.25403898
0.25432909
0.0046281548
-0.23511603
0.2353813
0.0043860981
-0.21759021
0.21783214
0.0041670814
-0.20134445
0.20156363
0.0039686368
-0.18627017
0.18646861
0.0037895877
-0.17228517
0.17246403
0.0036285141
-0.15932845
0.15948919
0.0034832289
-0.14732596
0.14747093
0.003351871
-0.13620258
0.13633379
0.0032333588
-0.12589403
0.12601262
0.0031269569
-0.11634414
0.11645072
0.0030314912
-0.10750615
0.10760163
0.002945419
-0.099330618
0.099416473
0.0028673085
-0.091766087
0.091843886
0.0027961273
-0.084762981
0.084833919
0.0027310388
-0.078279916
0.078344899
0.0026714617
-0.072280241
0.072339865
0.0026169354
-0.066732981
0.066787627
0.0025669226
-0.061608395
0.06165847
0.0025207264
-0.056875322
0.05692148
0.0024776912
-0.05250195
0.052544898
0.0024373258
-0.048462118
0.048502402
0.0023992139
-0.044730938
0.044768994
0.0023630877
-0.041283596
0.041319689
0.0023288389
-0.038099963
0.038134191
0.002296084
-0.035159716
0.035192454
0.0022641022
-0.032444935
0.032476896
0.0022323595
-0.029939347
0.029971052
0.002200623
-0.027626193
0.027657885
0.0021688351
-0.025490593
0.025522347
0.0021373962
-0.023520365
0.02355179
0.0021071977
-0.021702212
0.021732413
0.0020783699
-0.020024961
0.020053802
0.0020490974
-0.018475991
0.018505287
0.0020157894
-0.017044873
0.01707821
0.0019747894
-0.015722372
0.015763398
0.0019238388
-0.014500244
0.014551214
0.0018628679
-0.013372318
0.013433301
0.0017949012
-0.012328367
0.01239634
0.0017178663
-0.011359592
0.011436631
0.0016324879
-0.010441149
0.010526531
0.0015427858
-0.0095430495
0.0096327537
0.0014494312
-0.008688193
0.0087815483
0.0013548077
-0.0079082299
0.008002853
0.0012607943
-0.0071946514
0.0072886635
0.0011704941
-0.0065424809
0.0066327793
0.0010846876
-0.0059473217
0.0060331257
0.0010037882
-0.005405314
0.0054862105
0.00092790627
-0.0049115949
0.0049874737
0.0008569687
-0.004462883
0.0045338172
0.00079080795
-0.004054896
0.0041210533
0.0007291842
-0.0036832557
0.003744876
0.00067178782
-0.003345374
0.0034027669
0.00061830274
-0.0030380826
0.0030915643
0.00056842254
-0.0027586526
0.0028085296
0.00052185599
-0.00250456
0.0025511235
0.00047833653
-0.0022733941
0.0023169106
0.00043762475
-0.0020627298
0.0021034387
0.00039948391
-0.0018711886
0.0019093267
0.00036371333
-0.00169632
0.001732088
0.00033010975
-0.0015371534
0.0015707546
0.00029849791
-0.0013920499
0.0014236595
0.00026872895
-0.0012593452
0.001289112
0.00024065251
-0.0011385888
0.0011666633
0.00021414896
-0.0010283243
0.001054826
0.00018913561
-0.00092703467
0.0009520463
0.00016554025
-0.00083436479
0.00085795857
0.0001433212
-0.00074961905
0.00077183665
0.00012248299
-0.00067189597
0.00069273284
0.00010308738
-0.00060034802
0.00061974239
8.5229896e-05
-0.00053418391
0.00055204029
6.9002989e-05
-0.00047237275
0.00048859863
5.4502021e-05
-0.00041444779
0.00042894784
4.1830333e-05
-0.00035988972
0.00037256056
3.1090077e-05
-0.00030737477
0.00031811427
2.2301099e-05
-0.00025609126
0.00026487954
1.5317776e-05
-0.00020557246
0.00021255517
9.8765831e-06
-0.00015629513
0.00016173576
5.7388658e-06
-0.00011077153
0.00011490872
2.7773575e-06
-7.1233359e-05
7.4194385e-05
8.4191263e-07
-3.8279369e-05
4.0214366e-05
-1.1552271e-05
1.2393604e-05
0.018305607
0.017446484
-1.4150982
0.016620618
-1.3063467
0.01581289
-1.2063907
0.01502424
-1.1142436
0.014253618
-1.0292436
0.013501394
-0.95073423
0.012775882
-0.87853713
0.012070355
-0.81206812
0.011383779
-0.75076142
0.010716217
-0.69413455
0.010074603
-0.64187298
0.0094625415
-0.59382727
0.0088716518
-0.54944976
0.0083102934
-0.50838846
0.0077794861
-0.47052739
0.0072757014
-0.43553636
0.00680177
-0.40314553
0.006358329
-0.37318924
0.0059468774
-0.34550979
0.0055648693
-0.31991957
0.0052112411
-0.29617632
0.004886704
-0.27414979
0.0045889975
-0.25374228
0.0043166914
-0.23484445
0.0040690071
-0.21734259
0.0038448811
-0.20112021
0.0036416441
-0.18606701
0.003458104
-0.17210185
0.0032927862
-0.15916348
0.0031435024
-0.14717698
0.003008452
-0.13606765
0.0028865911
-0.12577207
0.002777025
-0.11623442
0.0026784496
-0.10740761
0.0025891978
-0.099241626
0.0025077904
-0.091684997
0.0024331529
-0.084688569
0.0023644788
-0.078211329
0.0023010983
-0.072216809
0.0022424799
-0.066674266
0.0021879069
-0.061553799
0.0021365155
-0.056824004
0.0020875628
-0.052453102
0.0020404392
-0.04841507
0.0019946504
-0.044685175
0.0019497406
-0.04123866
0.0019052773
-0.038055433
0.0018610779
-0.035115457
0.0018171154
-0.032400966
0.001773135
-0.029895407
0.001728748
-0.027581858
0.0016836529
-0.025445533
0.0016373651
-0.02347409
0.0015891268
-0.021653969
0.0015387975
-0.019974616
0.0014875866
-0.018424754
0.0014376623
-0.016994922
0.0013912221
-0.015675911
0.0013497065
-0.014458716
0.0013128647
-0.013335471
0.0012793997
-0.012294899
0.0012481954
-0.011328385
0.0012199373
-0.01041289
0.0011871023
-0.0095102142
0.0011544242
-0.0086555153
0.001120392
-0.0078741988
0.0010846646
-0.0071589257
0.0010472654
-0.0065050841
0.0010081349
-0.0059081939
0.00096732723
-0.0053645093
0.00092503835
-0.0048693093
0.0008815809
-0.0044194289
0.00083742187
-0.0040107405
0.00079309181
-0.0036389291
0.0007490227
-0.0033013083
0.00070553622
-0.0029945995
0.00066288373
-0.0027160034
0.0006212666
-0.0024629461
0.0005808433
-0.0022329739
0.00054173918
-0.0020236286
0.00050403581
-0.001833488
0.00046779514
-0.0016600819
0.00043304172
-0.0015024025
0.00039977736
-0.0013587879
0.00036799361
-0.0012275637
0.00033764462
-0.0011082419
0.0003086748
-0.00099935644
0.00028102909
-0.00089939079
0.00025461835
-0.00080795577
0.00022933078
-0.00072433309
0.00020503813
-0.00064760481
0.00018160703
-0.00057691831
0.00015892125
-0.00051149943
0.00013694674
-0.00045039945
0.00011566572
-0.0003931679
9.5084581e-05
-0.00033930963
7.5328479e-05
-0.00028761964
5.6668447e-05
-0.00023743214
3.9629173e-05
-0.00018853402
2.501096e-05
-0.0001416777
1.3594143e-05
-9.9355436e-05
5.7350089e-06
-6.3374903e-05
1.3399184e-06
-3.3884912e-05
-1.0213011e-05
0.017393693
-1.4142381
0.016551216
-1.3055199
0.015727684
-1.2055823
0.014924726
-1.1134522
0.014141721
-1.0284674
0.013378796
-0.94997552
0.012642072
-0.87780637
0.011925176
-0.81135793
0.011228295
-0.75006769
0.010550954
-0.69345929
0.0099003333
-0.64122372
0.0092795324
-0.59320792
0.0086801252
-0.54885159
0.0081107718
-0.50781967
0.0075715651
-0.46998972
0.0070597263
-0.43502565
0.0065780344
-0.40266454
0.0061269705
-0.37273851
0.0057081653
-0.34509123
0.0053189831
-0.31953074
0.0049587447
-0.29581602
0.0046276981
-0.27381938
0.0043235633
-0.25343916
0.0040452736
-0.23456684
0.0037921238
-0.21708945
0.0035627093
-0.20089072
0.0033544757
-0.1858589
0.0031663981
-0.17191402
0.0029968535
-0.15899429
0.0028436241
-0.14702406
0.0027050127
-0.13592915
0.0025798663
-0.12564682
0.0024672384
-0.11612166
0.0023656334
-0.10730609
0.0022733228
-0.099149609
0.0021888291
-0.091600827
0.0021110709
-0.084611039
0.0020391171
-0.07813946
0.001972259
-0.072149898
0.0019098526
-0.066611774
0.0018511282
-0.061495071
0.0017952615
-0.056768221
0.0017415438
-0.052399488
0.0016894353
-0.048363037
0.0016385089
-0.04463429
0.0015884452
-0.041188615
0.0015389729
-0.038005973
0.0014896548
-0.035066156
0.0014400396
-0.032351377
0.0013899252
-0.029845331
0.0013393315
-0.027531303
0.0012882361
-0.025394459
0.0012366771
-0.023422532
0.0011849252
-0.021602203
0.00113292
-0.01992259
0.0010797247
-0.018371532
0.0010237775
-0.01693895
0.00096348284
-0.015615599
0.00089719669
-0.014392421
0.00082311592
-0.013261386
0.00075283242
-0.012224613
0.00069582612
-0.011271377
0.00064944037
-0.010366503
0.00060679456
-0.0094675679
0.00056661682
-0.0086153377
0.00052877953
-0.0078363623
0.00049301977
-0.0071231674
0.00045924001
-0.0064713063
0.00042744744
-0.0058764037
0.00039762991
-0.0053346944
0.0003697251
-0.0048414073
0.0003436018
-0.0043933086
0.00031912592
-0.0039862676
0.00029618804
-0.0036159943
0.00027460688
-0.0032797302
0.00025423261
-0.0029742283
0.00023494865
-0.0026967224
0.00021666719
-0.0024446675
0.00019931906
-0.0022156285
0.00018284984
-0.002007162
0.00016721128
-0.001817852
0.00015237097
-0.001645244
0.00013829388
-0.0014883277
0.0001249522
-0.0013454484
0.00011232344
-0.001214937
0.00010037957
-0.0010962999
8.9097671e-05
-0.00098807627
7.8461774e-05
-0.00088875651
6.8456975e-05
-0.00079795247
5.9074002e-05
-0.00071495152
5.0312208e-05
-0.00063884431
4.2184223e-05
-0.00056879155
3.4712049e-05
-0.00050402839
2.7932357e-05
-0.00044362085
2.1883522e-05
-0.00038712007
1.6592365e-05
-0.00033401944
1.2067531e-05
-0.0002830957
8.3023368e-06
-0.0002336678
5.2947906e-06
-0.00018552725
3.0624012e-06
-0.00013944605
1.5622908e-06
-9.7856013e-05
6.4469414e-07
-6.2457952e-05
1.5639671e-07
-3.3397216e-05
-1.0057283e-05
0.017374247
-1.4133606
0.016515107
-1.3046776
0.015675287
-1.2047579
0.014856244
-1.1126444
0.014058565
-1.0276765
0.013283391
-0.94920494
0.01253462
-0.87706417
0.011806061
-0.81063629
0.011098945
-0.74936359
0.01041149
-0.69277405
0.0097513243
-0.64056498
0.0091207811
-0.59257915
0.0085119483
-0.54824401
0.0079339358
-0.50724242
0.0073856281
-0.46944312
0.0068652187
-0.43450642
0.0063752977
-0.40217541
0.0059163077
-0.37227983
0.0054897978
-0.34466508
0.005093054
-0.31913435
0.0047258251
-0.29544882
0.0043878776
-0.27348223
0.0040771332
-0.25312946
0.0037926876
-0.234283
0.0035340115
-0.21683077
0.003299496
-0.20065619
0.0030865319
-0.18564612
0.0028940366
-0.1717218
0.0027203566
-0.15882097
0.0025633385
-0.14686734
0.0024212628
-0.13578717
0.0022930529
-0.12551849
0.0021775924
-0.1160061
0.0020732859
-0.10720191
0.0019783628
-0.099055004
0.0018913225
-0.091514107
0.0018110316
-0.084530959
0.0017366139
-0.078065109
0.0016673748
-0.072080604
0.0016026455
-0.066546988
0.0015415241
-0.06143399
0.0014830981
-0.056709913
0.0014266551
-0.05234316
0.0013716427
-0.048308087
0.001317641
-0.044580287
0.0012644364
-0.041135359
0.0012118483
-0.037953318
0.0011597667
-0.035014041
0.0011080004
-0.032299637
0.0010563281
-0.02979372
0.0010046047
-0.027479637
0.00095288984
-0.025342778
0.00090128398
-0.023370937
0.00084974892
-0.021550662
0.00079859486
-0.019871419
0.00074893607
-0.018321852
0.00070251106
-0.016892507
0.00066143327
-0.015574511
0.0006279515
-0.014358936
0.00060404962
-0.013237484
0.0005803623
-0.012200927
0.00054861626
-0.011239631
0.00051758832
-0.010335475
0.00049117073
-0.0094411499
0.00046682439
-0.0085909914
0.00044365436
-0.0078131928
0.00042136448
-0.0071008785
0.00039978629
-0.0064497295
0.0003788182
-0.0058554373
0.00035842528
-0.0053143035
0.00033864755
-0.0048216319
0.00031954841
-0.0043742119
0.00030106797
-0.0039677898
0.00028308115
-0.0035980101
0.0002655642
-0.0032622159
0.00024852493
-0.0029571916
0.0002319864
-0.0026801865
0.00021596768
-0.0024286513
0.0002004865
-0.0022001498
0.00018555997
-0.0019922378
0.00017119856
-0.0018034928
0.00015741387
-0.0016314615
0.00014421409
-0.00147513
0.0001316067
-0.0013328429
0.00011959664
-0.0012029287
0.00010817938
-0.0010848843
9.7347475e-05
-0.00097724593
8.7094989e-05
-0.00087850547
7.7405948e-05
-0.00078826476
6.8254825e-05
-0.00070580162
5.9618797e-05
-0.00063020941
5.1477293e-05
-0.0005606511
4.3818767e-05
-0.00049637081
3.6645376e-05
-0.00043644834
2.9976829e-05
-0.00038045233
2.3844088e-05
-0.00032788746
1.8293248e-05
-0.00027754555
1.3380005e-05
-0.00022875521
9.1654883e-06
-0.0001813133
5.7273615e-06
-0.00013600848
3.1204011e-06
-9.524957e-05
1.3395352e-06
-6.0677573e-05
3.2690677e-07
-3.2385047e-05
-9.7310621e-06
0.017385317
-1.4124643
0.016508091
-1.3038183
0.015651147
-1.2039167
0.014816968
-1.1118211
0.014006204
-1.0268723
0.013219675
-0.94842348
0.012458965
-0.87631059
0.011718279
-0.80990259
0.01100069
-0.74864889
0.010303066
-0.69207878
0.0096335862
-0.63989704
0.0089941353
-0.59194183
0.0083766135
-0.54762777
0.0077904387
-0.50665721
0.0072337202
-0.46888828
0.0067052366
-0.43397919
0.0062073901
-0.40167843
0.0057407691
-0.37181352
0.0053068468
-0.34423161
0.0049030113
-0.31873086
0.0045291839
-0.29507514
0.0041846719
-0.27313863
0.003867557
-0.25281339
0.0035772011
-0.2339932
0.0033130848
-0.21656662
0.003073316
-0.20041648
0.0028553615
-0.18542838
0.0026583546
-0.1715251
0.0024805072
-0.15864351
0.0023196319
-0.14670676
0.002174121
-0.13564174
0.0020428292
-0.12538709
0.001924606
-0.11588782
0.001817728
-0.10709521
0.0017204042
-0.098958019
0.0016311789
-0.091425205
0.0015489079
-0.084448899
0.0014725933
-0.077988856
0.0014015003
-0.072009454
0.0013349246
-0.066480364
0.0012720448
-0.061371168
0.0012120881
-0.056650092
0.001154507
-0.052285712
0.0010990798
-0.048252746
0.0010453566
-0.044526603
0.00099279157
-0.041082805
0.00094108547
-0.037901618
0.00088995699
-0.034962925
0.0008392353
-0.032248938
0.0007889918
-0.029743509
0.00073945583
-0.027430131
0.00069081488
-0.025294151
0.00064325752
-0.023323376
0.00059714525
-0.021504535
0.00055259037
-0.019826843
0.00050893097
-0.018278171
0.00046415879
-0.01684772
0.00041673961
-0.015527086
0.00036784649
-0.014310045
0.00031970526
-0.013189347
0.00027860449
-0.012159829
0.00025140657
-0.011212437
0.00023276363
-0.010316834
0.00022055421
-0.0094289422
0.00020974172
-0.0085801811
0.00019968422
-0.0078031375
0.0001904108
-0.0070916075
0.00018181436
-0.0064411358
0.00017375039
-0.0058473763
0.00016606669
-0.0053066229
0.0001586232
-0.0048141916
0.00015132537
-0.0043669174
0.00014409095
-0.0039605586
0.00013687649
-0.003590799
0.0001296577
-0.0032550004
0.0001224365
-0.0029499736
0.00011522414
-0.0026729772
0.00010804337
-0.0024214735
0.00010092026
-0.0021930296
9.3884112e-05
-0.0019852044
8.6958443e-05
-0.0017965698
8.0176383e-05
-0.0016246819
7.3565609e-05
-0.0014685216
6.7150073e-05
-0.0013264296
6.095617e-05
-0.0011967369
5.5000986e-05
-0.0010789311
4.930416e-05
-0.00097155091
4.3886983e-05
-0.00087308998
3.876735e-05
-0.0007831467
3.3963029e-05
-0.00070099879
2.9485716e-05
-0.00062573345
2.5343208e-05
-0.00055650991
2.1532751e-05
-0.00049256157
1.8046294e-05
-0.00043296308
1.4857375e-05
-0.00037726453
1.1936821e-05
-0.000324968
9.2713492e-06
-0.00027488111
6.8640866e-06
-0.00022634894
4.7468804e-06
-0.00017919703
2.9824566e-06
-0.00013424493
1.6278942e-06
-9.3895827e-05
6.9729462e-07
-5.9747751e-05
1.6866775e-07
-3.185715e-05
-9.5631117e-06
0.017427476
-1.4115488
0.016531969
-1.3029416
0.015657793
-1.2030584
0.014806715
-1.1109805
0.013980407
-1.0260525
0.013180677
-0.94762929
0.012407035
-0.87554457
0.011654278
-0.80915674
0.010925848
-0.74792323
0.010217853
-0.69137328
0.0095387257
-0.63921963
0.0088890208
-0.59129461
0.008261961
-0.54700201
0.0076669168
-0.50606337
0.0071008703
-0.46832421
0.0065637844
-0.43344345
0.0060576789
-0.40117327
0.0055831783
-0.37133936
0.0051414991
-0.34379051
0.0047301598
-0.31831986
0.0043492719
-0.29469455
0.0039977308
-0.27278814
0.0036739821
-0.25249069
0.0033774965
-0.2336972
0.0031078394
-0.21629695
0.0028628878
-0.20017165
0.0026402064
-0.18520597
0.0024388014
-0.17132404
0.0022568813
-0.15846198
0.0020923653
-0.14654254
0.0019435871
-0.13549304
0.001809477
-0.12525288
0.0016887217
-0.11576706
0.0015795435
-0.10698626
0.0014801959
-0.098859027
0.0013892269
-0.091334551
0.0013054579
-0.084365322
0.0012279334
-0.077911375
0.0011559472
-0.071937413
0.0010888188
-0.066413215
0.0010256659
-0.061308103
0.00096573293
-0.056590309
0.00090862572
-0.052228735
0.00085348157
-0.048197666
0.0007998829
-0.044472998
0.00074779464
-0.041030666
0.00069721507
-0.037850993
0.00064822611
-0.034913943
0.00060086266
-0.032201636
0.00055501557
-0.02969774
0.00051060505
-0.02738578
0.00046772828
-0.025251308
0.00042648818
-0.023282149
0.0003868017
-0.021464846
0.00034888063
-0.019788911
0.00031425227
-0.018243531
0.0002854339
-0.016818898
0.00026360444
-0.015505262
0.00024711913
-0.01429357
0.0002330946
-0.013175333
0.00021435863
-0.012141103
0.00018820126
-0.011186287
0.00016451923
-0.010293158
0.00015206752
-0.0094164954
0.00014339308
-0.0085715113
0.00013642589
-0.0077961748
0.00013072156
-0.0070859077
0.00012592507
-0.0064363439
0.00012176398
-0.0058432199
0.00011800843
-0.0053028721
0.0001144493
-0.0048106372
0.00011088385
-0.0043633566
0.00010720264
-0.003956882
0.00010334474
-0.0035869455
9.9282858e-05
-0.0032509428
9.5010813e-05
-0.0029457058
9.0538386e-05
-0.0026685088
8.5891302e-05
-0.0024168303
8.1106578e-05
-0.0021882486
7.6227496e-05
-0.0019803289
7.1308278e-05
-0.001791654
6.6396521e-05
-0.0016197734
6.1530831e-05
-0.0014636589
5.6736004e-05
-0.0013216376
5.2032361e-05
-0.0011920359
4.7437657e-05
-0.0010743389
4.2965996e-05
-0.00096708166
3.8634907e-05
-0.00086876113
3.4455865e-05
-0.00077896976
3.0440814e-05
-0.00069698568
2.6601569e-05
-0.00062189604
2.2949089e-05
-0.00055285909
1.9500032e-05
-0.00048911406
1.6273236e-05
-0.00042973768
1.3287736e-05
-0.00037428032
1.0558881e-05
-0.00032224031
8.1022227e-06
-0.00027242551
5.9345887e-06
-0.00022418227
4.075599e-06
-0.00017733888
2.5548558e-06
-0.00013272498
1.3971321e-06
-9.2738828e-05
6.0265902e-07
-5.8953941e-05
1.4825008e-07
-3.1403351e-05
-9.41569e-06
0.017498809
0.01658352
-1.3020461
0.015690793
-1.2021816
0.014823715
-1.1101236
0.013983415
-1.0252188
0.013171385
-0.94682335
0.01238496
-0.8747662
0.011619391
-0.80839787
0.010880159
-0.74718671
0.010161525
-0.69065728
0.0094726629
-0.63853272
0.0088137103
-0.59063851
0.0081777623
-0.54636739
0.007574284
-0.50546133
0.0069997439
-0.46775177
0.0064544743
-0.43289963
0.005940258
-0.40066004
0.0054580312
-0.37085751
0.0050088335
-0.34334198
0.0045904283
-0.3179018
0.0042028406
-0.29430743
0.0038446824
-0.27243112
0.0035146061
-0.25216164
0.0032122328
-0.23339527
0.0029371071
-0.21602183
0.0026868883
-0.19992162
0.0024592098
-0.18497859
0.0022532774
-0.17111849
0.0020671915
-0.15827631
0.001898849
-0.14637448
0.0017467157
-0.13534096
0.0016096662
-0.12511575
0.0014863657
-0.1156438
0.0013749791
-0.10687514
0.0012737803
-0.098758198
0.0011814045
-0.091242491
0.0010966905
-0.084280797
0.0010185755
-0.077833295
0.00094622575
-0.071865007
0.00087892361
-0.066345902
0.00081598219
-0.061245258
0.00075682481
-0.056531306
0.00070079001
-0.05217284
0.00064756096
-0.048144529
0.00059690217
-0.044422382
0.00054859781
-0.040982379
0.00050237663
-0.037804788
0.00045786228
-0.03486945
0.00041489434
-0.032158696
0.00037363472
-0.029656514
0.00033440268
-0.027346576
0.00029739104
-0.02521431
0.00026258059
-0.023247338
0.00023032067
-0.021432578
0.00020034515
-0.019758924
0.00017103738
-0.018214214
0.00014120959
-0.016789071
0.00011093346
-0.015474996
8.0932497e-05
-0.014263585
5.3863654e-05
-0.013148279
3.6205676e-05
-0.012123458
2.5944092e-05
-0.011176036
2.3427872e-05
-0.010290651
2.651091e-05
-0.0094195863
2.9435887e-05
-0.0085744432
3.1762451e-05
-0.0077985084
3.3836824e-05
-0.007087989
3.5653003e-05
-0.0064381669
3.7162396e-05
-0.0058447359
3.8343022e-05
-0.0053040592
3.9188231e-05
-0.0048114887
3.9704239e-05
-0.0043638787
3.9906298e-05
-0.00395709
3.9822253e-05
-0.0035868672
3.9484113e-05
-0.0032506102
3.8923405e-05
-0.0029451503
3.8165884e-05
-0.0026677564
3.7228217e-05
-0.0024158975
3.6122259e-05
-0.0021871472
3.4861305e-05
-0.0019790723
3.3454534e-05
-0.0017902513
3.1904626e-05
-0.0016182273
3.0220821e-05
-0.0014619788
2.8424628e-05
-0.0013198449
2.6542844e-05
-0.0011901574
2.4602513e-05
-0.0010724017
2.263102e-05
-0.00096511307
2.065314e-05
-0.00086678601
1.8690277e-05
-0.00077700951
1.6754071e-05
-0.00069505192
1.4857658e-05
-0.00062000194
1.3014961e-05
-0.00055101857
1.1235921e-05
-0.0004873371
9.5320904e-06
-0.00042803579
7.9140549e-06
-0.00037266413
6.3935193e-06
-0.0003207215
4.9862028e-06
-0.00027101985
3.7101214e-06
-0.00022290773
2.5869943e-06
-0.00017621724
1.6449914e-06
-0.00013178434
9.1055612e-07
-9.2005668e-05
3.9619777e-07
-5.8440791e-05
9.7799735e-08
-3.1106089e-05
-9.318751e-06
0.016664428
-1.3011314
0.01575336
-1.2012865
0.014868495
-1.1092486
0.014011713
-1.0243687
0.013185302
-0.94600359
0.012384875
-0.87397415
0.011606759
-0.80762613
0.010855988
-0.74643862
0.010126627
-0.68993075
0.0094278638
-0.63783623
0.0087581377
-0.58997193
0.0081124031
-0.54572303
0.0074996852
-0.50485032
0.0069156478
-0.46716992
0.006361626
-0.43234718
0.0058390618
-0.4001385
0.0053489127
-0.37036783
0.0048918628
-0.3428857
0.0044659837
-0.31747629
0.0040711962
-0.2939133
0.0037058497
-0.27206701
0.0033690669
-0.25182586
0.003060555
-0.23308715
0.002779821
-0.21574114
0.0025243072
-0.19966636
0.0022918667
-0.18474649
0.0020815205
-0.17090856
0.0018913847
-0.15808661
0.0017194876
-0.14620286
0.0015642213
-0.13518575
0.0014245204
-0.12497599
0.0012988992
-0.11551828
0.0011855033
-0.10676205
0.0010826939
-0.098655772
0.00098912458
-0.091149232
0.00090366578
-0.084195509
0.00082533086
-0.07775498
0.00075326645
-0.071792897
0.00068664931
-0.066279305
0.00062468342
-0.061183411
0.00056668443
-0.056473458
0.00051214467
-0.052118411
0.00046083657
-0.048093265
0.0004124818
-0.044374011
0.00036688527
-0.040936739
0.00032403908
-0.037761928
0.00028398475
-0.034829449
0.0002466152
-0.032121424
0.00021164009
-0.029621632
0.00017897655
-0.027313977
0.00014864094
-0.025184012
0.00012074426
-0.023219461
9.5030394e-05
-0.021406871
7.1872588e-05
-0.019735768
5.2677746e-05
-0.018195022
3.8374089e-05
-0.016774779
2.8204441e-05
-0.015464845
1.9921717e-05
-0.014255324
1.1022942e-05
-0.0131394
-1.7723499e-06
-0.012110678
-1.8376577e-05
-0.011159444
-3.3142402e-05
-0.010275896
-3.4924632e-05
-0.0094178135
-3.1264467e-05
-0.008578112
-2.6492623e-05
-0.0078032884
-2.1160075e-05
-0.0070933293
-1.5635873e-05
-0.0064436985
-1.018466e-05
-0.0058501944
-4.9973174e-06
-0.0053092536
-2.0448213e-07
-0.0048162884
4.1102172e-06
-0.0043682
7.8971118e-06
-0.0039608832
1.1131493e-05
-0.0035901076
1.3813638e-05
-0.0032532981
1.5967735e-05
-0.0029473099
1.7624742e-05
-0.0026694186
1.8824878e-05
-0.0024171026
1.9610274e-05
-0.0021879373
2.0023785e-05
-0.0019794902
2.0101038e-05
-0.0017903327
1.9879759e-05
-0.00161801
1.9400985e-05
-0.0014615037
1.8710388e-05
-0.0013191578
1.7848189e-05
-0.0011892985
1.6846317e-05
-0.001071403
1.5731862e-05
-0.00096400158
1.4528303e-05
-0.00086558523
1.3258129e-05
-0.00077574196
1.1949209e-05
-0.00069374546
1.0627351e-05
-0.00061868241
9.3163568e-06
-0.00054970973
8.0378842e-06
-0.00048606067
6.8093274e-06
-0.00042680911
5.6454062e-06
-0.00037150199
4.5559158e-06
-0.00031963366
3.5518749e-06
-0.00027001737
2.6435678e-06
-0.00022200088
1.8442553e-06
-0.0001754193
1.1739376e-06
-0.00013111528
6.5090982e-07
-9.1483816e-05
2.8408335e-07
-5.8075067e-05
7.0693045e-08
-3.0893728e-05
-9.2489363e-06
0.016772377
-1.3001958
0.015841252
-1.2003714
0.0149394
-1.1083563
0.014067531
-1.0235038
0.013227615
-0.94517093
0.012413456
-0.87316865
0.01162197
-0.80684062
0.010859844
-0.74567926
0.010119265
-0.68919323
0.0094102079
-0.63712981
0.008730713
-0.58929585
0.0080759099
-0.5450697
0.0074544139
-0.5042308
0.0068616856
-0.4665795
0.0062992617
-0.43178643
0.0057684179
-0.39960868
0.0052703757
-0.36987034
0.0048056872
-0.34242186
0.0043726822
-0.3170437
0.0039710226
-0.29351249
0.0035990112
-0.2716963
0.0032559079
-0.25148374
0.0029414797
-0.23277308
0.0026551988
-0.21545497
0.0023943653
-0.19940585
0.0021568948
-0.1845094
0.0019419576
-0.1706941
0.0017475976
-0.15789272
0.0015718391
-0.14602738
0.0014132235
-0.13502719
0.0012706166
-0.12483336
0.0011425298
-0.11539033
0.0010271055
-0.10664697
0.00092274773
-0.098551809
0.00082819801
-0.091054994
0.00074236116
-0.084109835
0.00066424415
-0.077676876
0.00059284713
-0.07172146
0.00052711859
-0.066213611
0.0004663295
-0.061122752
0.00041011122
-0.056417394
0.00035817887
-0.0520666
0.00031030114
-0.048045457
0.00026614011
-0.044329874
0.00022539932
-0.040896004
0.00018763718
-0.037724177
0.00015250345
-0.034794335
0.00011990909
-0.032088856
8.9841846e-05
-0.029591594
6.2500614e-05
-0.02728666
3.7820393e-05
-0.025159344
1.564601e-05
-0.02319729
-4.1702464e-06
-0.021387053
-2.2207563e-05
-0.01971773
-3.9975108e-05
-0.018177259
-5.8554854e-05
-0.016756212
-7.7426573e-05
-0.015445994
-9.4485583e-05
-0.014238289
-0.00010785082
-0.013126056
-0.00011684598
-0.0121017
-0.00012038727
-0.011155916
-0.00011943084
-0.010276863
-0.00011094162
-0.0094263123
-0.00010001482
-0.0085890478
-8.9738741e-05
-0.007813573
-7.9795278e-05
-0.007103281
-7.0197958e-05
-0.0064533036
-6.1038427e-05
-0.0058593613
-5.2407234e-05
-0.0053178918
-4.436965e-05
-0.0048243327
-3.6962754e-05
-0.0043756133
-3.0216372e-05
-0.0039676358
-2.4154455e-05
-0.0035961755
-1.8786375e-05
-0.0032586718
-1.4110702e-05
-0.0029519909
-1.0104138e-05
-0.0026734302
-6.7349575e-06
-0.0024204765
-3.9573818e-06
-0.0021907193
-1.7185648e-06
-0.0019817333
4.6137658e-08
-0.0017921015
1.4056071e-06
-0.0016193733
2.4212619e-06
-0.0014625229
3.1455713e-06
-0.0013198855
3.6239057e-06
-0.00118978
3.8979459e-06
-0.00107168
4.0059461e-06
-0.00096411237
3.9804965e-06
-0.0008655624
3.8513569e-06
-0.00077561526
3.6454546e-06
-0.00069354184
3.3835639e-06
-0.00061842267
3.0818408e-06
-0.00054941001
2.7521821e-06
-0.0004857329
2.4071479e-06
-0.00042646584
2.0568766e-06
-0.00037115337
1.7106407e-06
-0.00031928898
1.3764614e-06
-0.00026968466
1.0620372e-06
-0.00022168783
7.7363982e-07
-0.0001751322
5.1651225e-07
-0.00013085935
2.9979652e-07
-9.1268224e-05
1.3621295e-07
-5.7912538e-05
3.5237334e-08
-3.0793736e-05
-9.2145915e-06
0.016908952
-1.2992391
0.015958129
-1.1994366
0.015037522
-1.1074451
0.014148077
-1.0226215
0.013292426
-0.94432312
0.012463062
-0.8723481
0.011658411
-0.80604151
0.010883983
-0.74490773
0.01013221
-0.6884448
0.0094127877
-0.63641347
0.0087220667
-0.58860869
0.0080570774
-0.54440631
0.0074258309
-0.50360181
0.0068234825
-0.46597958
0.0062520464
-0.43121677
0.0057127048
-0.39907038
0.0052066091
-0.36936495
0.0047339365
-0.34195011
0.004293431
-0.3166037
0.0038843668
-0.29310446
0.0035049968
-0.27131829
0.0031550843
-0.25113478
0.0028344722
-0.2324528
0.0025424764
-0.21516313
0.0022762201
-0.19913997
0.0020339138
-0.18426751
0.0018145004
-0.1704752
0.0016160673
-0.15769477
0.0014367652
-0.14584835
0.0012750609
-0.13486554
0.0011298532
-0.12468817
0.00099951864
-0.11526019
0.00088220175
-0.10653003
0.00077638653
-0.0984464
0.00068083071
-0.090959745
0.00059450938
-0.084023662
0.00051655138
-0.077598923
0.00044602658
-0.071650917
0.00038158062
-0.066149234
0.00032230321
-0.061063621
0.00026790765
-0.056363142
0.00021809628
-0.052016877
0.00017258545
-0.047999969
0.00013106753
-0.044288327
9.3380977e-05
-0.040858278
5.9386658e-05
-0.037690191
2.9118032e-05
-0.034764145
2.111921e-06
-0.032061958
-2.1811089e-05
-0.029567758
-4.3249045e-05
-0.027265275
-6.2369327e-05
-0.025140254
-7.9277094e-05
-0.023180398
-9.4049894e-05
-0.021372288
-0.00010633954
-0.019705446
-0.00011530118
-0.018168308
-0.00012063243
-0.016750899
-0.00012355782
-0.015443092
-0.00012651063
-0.014235361
-0.00013122138
-0.013121367
-0.00013801454
-0.012094923
-0.00014655508
-0.011147388
-0.00015368543
-0.010269744
-0.0001497222
-0.0094302848
-0.00013864289
-0.0086001358
-0.00012709423
-0.00782513
-0.00011548177
-0.0071149014
-0.00010405197
-0.0064647411
-9.3015393e-05
-0.0058704052
-8.2517796e-05
-0.0053283963
-7.264803e-05
-0.004834209
-6.3459776e-05
-0.0043848078
-5.4976335e-05
-0.0039761251
-4.7205755e-05
-0.0036039516
-4.0145961e-05
-0.0032657369
-3.3785265e-05
-0.0029583566
-2.8099206e-05
-0.002679121
-2.3055672e-05
-0.0024255245
-1.8621657e-05
-0.0021951576
-1.4766116e-05
-0.0019855928
-1.1456117e-05
-0.0017954152
-8.6562021e-06
-0.0016221767
-6.3257284e-06
-0.0014648567
-4.4242052e-06
-0.0013217901
-2.9059873e-06
-0.0011913011
-1.721404e-06
-0.0010728673
-8.2110366e-07
-0.00096501519
-1.5835121e-07
-0.0008662275
3.1130716e-07
-0.00077608711
6.231964e-07
-0.00069385577
8.0939399e-07
-0.00061861077
8.9602144e-07
-0.00054949841
9.0926988e-07
-0.00048574779
8.6864428e-07
-0.00042642674
7.9225037e-07
-0.0003710784
6.9545781e-07
-0.00031919351
5.9032757e-07
-0.00026958075
4.8530113e-07
-0.00022158395
3.8106552e-07
-0.00017502901
2.7572985e-07
-0.000130755
1.726307e-07
-9.1166039e-05
8.4014484e-08
-5.7824773e-05
2.356913e-08
-3.0734081e-05
-9.1918908e-06
0.017072554
0.016100064
-1.19848
0.015161325
-1.1065157
0.01425549
-1.0217234
0.013384922
-0.94346099
0.012540786
-0.87151289
0.011722284
-0.80522809
0.010935742
-0.74412436
0.010172031
-0.68768477
0.0094415839
-0.63568655
0.0087404741
-0.58791124
0.0080661878
-0.5437338
0.0074257599
-0.50296393
0.0068143742
-0.46537076
0.0062342581
-0.4306385
0.0056864694
-0.39852361
0.0051722569
-0.36885157
0.0046918185
-0.34147065