/*--------------------------------*- C++ -*----------------------------------*\
| =========                 |                                                 |
| \\      /  F ield         | OpenFOAM: The Open Source CFD Toolbox           |
|  \\    /   O peration     | Version:  2506                                  |
|   \\  /    A nd           | Website:  www.openfoam.com                      |
|    \\/     M anipulation  |                                                 |
\*---------------------------------------------------------------------------*/
FoamFile
{
    version     2.0;
    format      ascii;
    arch        "LSB;label=32;scalar=64";
    class       surfaceScalarField;
    location    "2.15";
    object      phi;
}
// * * * * * * * * * * * * * * * * * * * * * * * * * * * * * * * * * * * * * //

dimensions      [1 0 -1 0 0 0 0];

oriented        oriented;

internalField   nonuniform List<scalar> 
2671
(
9.5574626
0.44710227
8.7281171
0.41390924
7.9593665
0.38324772
7.2478355
0.35499922
6.5891237
0.32902102
5.9788807
0.30503452
5.4133907
0.28270269
4.8894457
0.26190558
4.4043287
0.24261133
3.955197
0.22477042
3.5389558
0.20828758
3.1530941
0.19312054
2.7958897
0.17908379
2.4651874
0.165943
2.1586966
0.15350419
1.8746878
0.14185956
1.6119014
0.13127056
1.3690696
0.12171843
1.1447112
0.11275268
0.93752873
0.10428618
0.74652336
0.096164986
0.57048746
0.088882595
0.40862886
0.081442002
0.25941055
0.075216061
0.12257167
0.068355292
0.061432527
63.380344
7.8165148
58.567656
7.2372732
54.113297
6.6994187
49.989329
6.2040345
46.171782
5.7365297
42.63969
5.3209447
39.370147
4.9352967
36.339622
4.5513714
33.526018
4.222157
30.925823
3.9088735
28.518642
3.6193367
26.28963
3.3522293
24.225353
3.1054785
22.313647
2.8766594
20.544041
2.664303
18.905308
2.4673399
17.387323
2.2849081
15.981187
2.1160179
14.679102
1.9595458
13.47367
1.8146156
12.356936
1.6804019
11.322724
1.5561185
10.365119
1.4411159
9.4777477
1.3346633
8.65531
1.2360763
7.8930444
1.1448053
7.1875573
1.0604654
6.534335
0.98255002
5.9290551
0.91043482
5.3681953
0.84351165
4.8486336
0.78144874
4.3676001
0.72393035
3.9222703
0.67062413
3.509541
0.62126526
3.1268921
0.57564098
2.7725811
0.53337369
2.4444906
0.49402916
2.1404844
0.45727241
1.8589131
0.4230582
1.5983691
0.39146625
1.3574643
0.36241337
1.1348652
0.33527939
0.92933565
0.30991538
0.73984531
0.28591806
0.56518702
0.26380373
0.40459853
0.24215359
0.25705458
0.22278431
0.12263358
0.20277997
0.18407583
61.787387
12.883064
57.096404
11.928579
52.754547
11.04164
48.733973
10.224168
45.015578
9.4553708
41.566884
8.7691243
38.376212
8.1264961
35.415351
7.5134001
32.682915
6.9549477
30.150562
6.4414976
27.805
5.9650429
25.632358
5.5248291
23.619613
5.1178645
21.755343
4.7406185
20.029727
4.3905102
18.431967
4.0657751
16.952276
3.764862
15.581948
3.4862962
14.312936
3.228474
13.137903
2.9898142
12.049256
2.7688802
11.04111
2.5644021
10.107495
2.3752045
9.2421916
2.2000459
8.4401779
2.037736
7.6970361
1.8873885
7.0093128
1.7483591
6.3723935
1.6197868
5.782114
1.500714
5.2352288
1.3902949
4.7286842
1.2879818
4.259689
1.1931972
3.8255443
1.1053251
3.4231636
1.0239732
3.0500492
0.94866704
2.7044775
0.87885015
2.3844089
0.81392743
2.0879215
0.75346055
1.8134388
0.69732133
1.5594602
0.64525482
1.3244915
0.59714634
1.1073238
0.55229704
0.90695174
0.51037168
0.72202563
0.4710876
0.5519616
0.43408546
0.39486912
0.39934404
0.25170075
0.36598947
0.12177694
0.33271105
0.30586151
59.237642
17.73991
54.742298
16.424588
50.57948
15.204829
46.72586
14.07769
43.15965
13.022085
39.84842
12.080677
36.790254
11.1844
33.959517
10.345028
31.337957
9.5772998
28.911776
8.8682933
26.66321
8.2137687
24.579197
7.6088364
22.648462
7.0483875
20.860881
6.5281143
19.206779
6.0452305
17.675208
5.5977322
16.256765
5.1833513
14.943121
4.7998223
13.726599
4.4448892
12.600172
4.1163778
11.556468
3.8123904
10.589986
3.5311062
9.6948017
3.2708066
8.8650327
3.0297585
8.0960053
2.8063563
7.3836003
2.5994176
6.7242853
2.4079755
6.1134749
2.2308318
5.5473017
2.0667382
5.0228739
1.9146189
4.5371353
1.7737258
4.0874008
1.6431824
3.6711431
1.5221924
3.2853046
1.410206
2.9274704
1.3064143
2.5959402
1.2101796
2.2889139
1.1206523
2.0045278
1.0375386
1.7414497
0.96029101
1.4978786
0.88873371
1.2725543
0.8222183
1.0643459
0.76030896
0.87192178
0.70287477
0.69538779
0.64784325
0.53088847
0.59875802
0.38241014
0.54794621
0.24219871
0.50620693
0.11703125
0.45792093
0.4228929
55.875297
22.32017
51.637027
20.664099
47.712201
19.129676
44.078327
17.711809
40.71453
16.38662
37.586935
15.20886
34.706929
14.064324
32.041039
13.01105
29.569908
12.049044
27.279055
11.160015
25.155593
10.33777
23.188689
9.5757544
21.367726
8.8690712
19.682422
8.2134937
18.122843
7.6054214
16.678548
7.0421671
15.341021
6.5208497
14.10218
6.0385521
12.954638
5.592321
11.891949
5.1792659
10.907219
4.7969609
9.9954992
4.4431681
9.1509172
4.1157274
8.3680187
3.812439
7.6425768
3.5313599
6.9707343
3.2710717
6.3488276
3.0302455
5.7724348
2.8073279
5.2381212
2.6007849
4.7433242
2.4093639
4.2850038
2.2320572
3.8606541
2.067782
3.4679532
1.9155826
3.1039145
1.7746592
2.7661578
1.644023
2.453246
1.5227674
2.1634323
1.4101106
1.8951597
1.3055614
1.6468522
1.208538
1.4171001
1.1184236
1.2046499
1.0344114
1.0077967
0.95694921
0.82710493
0.8836349
0.65879167
0.81633938
0.50603164
0.75171611
0.36368874
0.69037207
0.23483217
0.63508188
0.1153683
0.57743882
0.5382779
51.882679
26.57104
47.946181
24.601745
44.30374
22.773337
40.933008
21.083059
37.804127
19.515712
34.908106
18.103937
32.239392
16.733269
29.762567
15.487227
27.462498
14.348001
25.332381
13.29003
23.361238
12.308819
21.536528
11.400095
19.847099
10.558093
18.283702
9.7771602
16.836404
9.0534114
15.495258
8.3833504
14.25288
7.7631995
13.102044
7.1892889
12.036387
6.657896
11.049901
6.1659714
10.135837
5.7108945
9.2895493
5.2899152
8.5052572
4.9002226
7.7781618
4.539136
7.1046106
4.2045281
6.4809184
3.8948035
5.9033447
3.6082185
5.3677853
3.3428408
4.8713441
3.0968835
4.4117735
2.8689489
3.98599
2.6578264
3.5918291
2.4622386
3.2271178
2.2810741
2.8888663
2.1132675
2.574937
1.9576832
2.284147
1.8131271
2.0148803
1.6790457
1.7656498
1.5545886
1.5349278
1.4391986
1.3219007
1.3313985
1.1237681
1.2323107
0.94187113
1.1386489
0.77275474
1.0527975
0.61745824
0.97184828
0.47510315
0.89426757
0.34020048
0.82528615
0.21812964
0.75739241
0.10601042
0.6894974
0.64431668
47.456431
30.457642
43.86117
28.197743
40.530547
26.105558
37.447066
24.167487
34.581738
22.381099
31.944281
20.740442
29.49696
19.180012
27.226787
17.7569
25.123396
16.451002
23.176702
15.236792
21.37516
14.109924
19.707238
13.067499
18.162773
12.102108
16.733702
11.206633
15.410529
10.377266
14.183962
9.6098303
13.047922
8.8992782
11.995632
8.2413711
11.020943
7.6324762
10.118246
7.0688334
9.2818082
6.5472073
8.5076456
6.0645457
7.7900335
5.6177637
7.124762
5.2038512
6.5086602
4.8204198
5.9381953
4.4655294
5.4097156
4.1370639
4.9194837
3.8328195
4.4651764
3.5508071
4.0446828
3.2895048
3.654983
3.0474778
3.2944119
2.8232294
2.9606934
2.6156339
2.6509459
2.4232223
2.3635
2.24471
2.0972451
2.0789141
1.8509148
1.925123
1.6227053
1.7825964
1.411691
1.6501293
1.2158744
1.5271663
1.0356493
1.4123559
0.8677534
1.306391
0.71302267
1.2075894
0.57233556
1.1127851
0.43971019
1.0270248
0.3215415
0.94365031
0.21260722
0.86638883
0.10682179
0.79523178
0.75112431
42.792049
33.961063
39.547852
31.441964
36.543784
29.110526
33.764769
26.947922
31.185061
24.960702
28.811516
23.113482
26.604958
21.386056
24.556706
19.80418
22.661888
18.345457
20.909394
16.989641
19.285559
15.733563
17.781067
14.571585
16.388012
13.494835
15.099142
12.495944
13.905564
11.571263
12.800069
10.715153
11.776885
9.9225015
10.828162
9.1896726
9.9498114
8.5108143
9.1367811
7.8819949
8.3832378
7.3006161
7.6850544
6.7630657
7.0373269
6.2651177
6.4371263
5.8034935
5.8817188
5.3758804
5.3673624
4.9802832
4.890528
4.614113
4.4481058
4.274774
4.0383529
3.9602334
3.659021
3.6689213
3.3074273
3.3990205
2.9822182
3.1490422
2.681053
2.9175971
2.4012598
2.7029863
2.141787
2.503632
1.9015491
2.3187368
1.6791488
2.1473418
1.4730885
1.988438
1.2825157
1.8406045
1.1063144
1.7033183
0.94242737
1.5761632
0.79215113
1.4565651
0.65304736
1.3468011
0.52283346
1.2432312
0.39928389
1.1507126
0.29664648
1.0466534
0.18516746
0.97758749
0.091380805
0.88938785
0.84251694
38.075714
37.072283
35.191784
34.325107
32.520905
31.780884
30.048062
29.421486
27.757472
27.25025
25.643401
25.226819
23.67789
23.350999
21.855541
21.624867
20.171228
20.028681
18.613026
18.548225
17.169894
17.17677
15.833674
15.907371
14.597329
14.73105
13.452836
13.640942
12.391713
12.632437
11.408064
11.698698
10.495389
10.835059
9.65039
10.034118
8.8691523
9.2922151
8.1450956
8.6060881
7.4738334
7.9719437
6.8523987
7.3848121
6.2762528
6.8407025
5.7427085
6.3366086
5.2487891
5.8700993
4.7910445
5.4384331
4.3664414
5.0386878
3.9724976
4.6681659
3.6077309
4.324844
3.2699205
4.0067863
2.9569276
3.712023
2.6675139
3.439239
2.3991629
3.1865478
2.1497962
2.9520423
1.918596
2.7342289
1.7046469
2.5324008
1.5064891
2.3453492
1.322861
2.171852
1.152815
2.0105387
0.99492507
1.8611911
0.85082565
1.7202929
0.71401225
1.5933334
0.59002713
1.4709116
0.47676304
1.3566719
0.37846536
1.2492434
0.27295579
1.1521825
0.18626698
1.064311
0.097480642
0.97822602
0.94005896
33.444876
39.811362
30.910175
36.858269
28.570578
34.118395
26.402615
31.588684
24.395777
29.256103
22.538982
27.083028
20.811859
25.07701
19.213969
23.221502
17.737042
21.504924
16.370556
19.914432
15.101942
18.445027
13.925391
17.083061
12.838745
15.817576
11.834249
14.64593
10.901422
13.565017
10.037359
12.562849
9.2384595
11.633583
8.4973518
10.774605
7.8106262
9.9792864
7.1744656
9.2421401
6.5857778
8.5608729
6.040034
7.930704
5.5332656
7.3467607
5.0640662
6.8056181
4.6300477
6.3045298
4.2277385
5.8410092
3.854306
5.4118278
3.5080343
5.0139902
3.1875432
4.6453388
2.8906359
4.3036944
2.615507
3.9873368
2.3610959
3.694545
2.124846
3.4230853
1.905253
3.1710934
1.701783
2.9371784
1.5134994
2.7205594
1.3389176
2.5197785
1.1774513
2.3331408
1.0272885
2.1605504
0.89030199
1.9982246
0.76047428
1.8502765
0.64376912
1.7100581
0.53317883
1.5815779
0.42360124
1.4663601
0.32709305
1.3460682
0.2397612
1.2394277
0.16236686
1.1423156
0.079761577
1.0604465
1.0197959
29.060915
42.172405
26.870829
39.047902
24.832288
36.156282
22.944516
33.477932
21.201806
30.999567
19.588063
28.696854
18.09012
26.57333
16.70444
24.606186
15.423779
22.785749
14.23469
21.103072
13.131322
19.547606
12.112513
18.100889
11.170699
16.759256
10.296334
15.520975
9.4868226
14.374507
8.7393116
13.310631
8.0446051
12.327766
7.3999267
11.418984
6.8053652
10.573991
6.2535403
9.7938425
5.7411885
9.0738543
5.26602
8.4058963
4.8258484
7.7862851
4.4194246
7.2122839
4.0426786
6.6816316
3.6928072
6.1909116
3.3681134
5.7360718
3.0674321
5.3144101
2.7890587
4.9237347
2.5309702
4.5617788
2.2919801
4.2267554
2.0708804
3.9164879
1.8650881
3.628833
1.6739316
3.3616114
1.4970244
3.1137637
1.3333271
2.884255
1.1813091
2.6716397
1.0400712
2.4742085
0.91044529
2.2899965
0.78814965
2.1206999
0.67661881
1.9620836
0.57081187
1.8158708
0.47619498
1.6761529
0.39906676
1.5436434
0.31245766
1.432747
0.227894
1.3243084
0.15524189
1.2150604
0.079412727
1.1360837
1.0991565
24.96723
44.205538
23.079847
40.933434
21.333237
37.89996
19.717407
35.095364
18.226673
32.492262
16.84056
30.083582
15.557348
27.855842
14.368542
25.794649
13.267173
23.887521
12.243548
22.126395
11.299746
20.490214
10.42941
18.970502
9.6220406
17.566565
8.8726371
16.270597
8.1780808
15.06903
7.5333477
13.955701
6.9340034
12.92646
6.3825415
11.970532
5.8727082
11.083888
5.3973014
10.268896
4.957419
9.5144005
4.5502427
8.8129984
4.1728478
8.1632542
3.8235274
7.5622467
3.499352
7.0061016
3.198514
6.4915822
2.9194318
6.0147317
2.660789
5.572887
2.4211749
5.1633013
2.1992915
4.7837363
1.9939619
4.4326922
1.8035185
4.1075447
1.6260959
3.8059458
1.4615077
3.5256069
1.3090404
3.2661435
1.1676501
3.0256781
1.0367679
2.80235
0.91559001
2.5951843
0.802013
2.4034252
0.69943583
2.223643
0.60271725
2.0590614
0.51510902
1.9033774
0.4224781
1.7686566
0.33366473
1.6326649
0.26220034
1.5042134
0.20566111
1.3811949
0.13966735
1.280813
0.075566787
1.2004288
1.1746791
21.246672
45.934179
19.646674
42.535411
18.163977
39.381495
16.791268
36.468137
15.524744
33.759818
14.347791
31.260351
13.255743
28.947611
12.245506
26.805209
11.310898
24.822614
10.444615
22.992294
9.6429251
21.290637
8.8998261
19.713295
8.2104137
18.256192
7.5739905
16.907441
6.9851548
15.658043
6.4379041
14.502868
5.9305996
13.433185
5.4616103
12.439683
5.023749
11.521895
4.6196541
10.673196
4.2477846
9.8867097
3.9014997
9.1586823
3.5796873
8.4847289
3.2826123
7.859895
3.0071704
7.2817351
2.750862
6.7477181
2.5128605
6.2523971
2.2924435
5.7930499
2.0885977
5.3670688
1.8997065
4.9728454
1.7247006
4.6083701
1.5620068
4.2705641
1.4104607
3.9570442
1.2699187
3.6656984
1.1401684
3.3959953
1.0197503
3.1460574
0.90722556
2.9146767
0.80262203
2.6995562
0.70670846
2.4992909
0.61566843
2.3152376
0.53203557
2.1428861
0.4503608
1.9848041
0.39159442
1.8272482
0.33574215
1.6885035
0.25903593
1.5810778
0.187186
1.4532688
0.12195195
1.3461915
0.066047847
1.2567661
1.2407111
17.923727
47.387838
16.578764
43.880799
15.331362
40.629508
14.178059
37.62135
13.108346
34.829715
12.115724
32.252689
11.198911
29.86445
10.349837
27.654763
9.5616517
25.611555
8.8316113
23.72181
8.1554839
21.965395
7.5298424
20.338826
6.9508609
18.835411
6.4151763
17.443847
5.9174053
16.15614
5.4560311
14.96375
5.0306567
13.858245
4.6355921
12.83495
4.2697427
11.887699
3.9303448
11.012764
3.6147624
10.202618
3.3221854
9.4508418
3.0523227
8.7544619
2.802301
8.1102135
2.5692703
7.5148748
2.3531181
6.9638203
2.1527251
6.4525056
1.9668199
5.9785665
1.7944598
5.5394079
1.6348142
5.1328611
1.4868955
4.756936
1.3490078
4.4085441
1.2208522
4.0847201
1.1019489
3.7843109
0.9917809
3.5063826
0.88892151
3.2487347
0.79356929
3.0097769
0.70531326
2.7875486
0.62314005
2.581625
0.54752098
2.3914163
0.47595745
2.2144672
0.41169604
2.0487931
0.33313173
1.9057316
0.25753299
1.7641202
0.223271
1.6156114
0.17374835
1.502901
0.11934911
1.4009265
0.071391773
1.3046669
1.3122028
15.005034
48.596422
13.880096
45.003615
12.840613
41.670042
11.878029
38.583843
10.986302
35.721105
10.160311
33.078473
9.3929297
30.632362
8.683525
28.364849
8.0237497
26.272223
7.4155218
24.329412
6.8537378
22.526294
6.3312607
20.861141
5.8467527
19.320144
5.399758
17.891361
4.9838586
16.571986
4.5988278
15.348252
4.2422339
14.214734
3.9124108
13.164816
3.6075926
12.192672
3.3241247
11.296214
3.0606783
10.465923
2.8164851
9.6950382
2.5903233
8.9807575
2.3805994
8.3201963
2.1861414
7.7092605
2.0049107
7.1450418
1.8370456
6.6200452
1.6815807
6.1335872
1.5375929
5.6835046
1.4042265
5.2667046
1.2799169
4.8817978
1.1639888
4.5244113
1.0563156
4.1919312
0.95616768
3.884309
0.86383803
3.5989759
0.77709304
3.3351303
0.69678276
3.0898121
0.62135343
2.8627743
0.55065704
2.652683
0.48564699
2.456899
0.42425143
2.275692
0.36260818
2.1101909
0.32462177
1.943466
0.28464575
1.8041348
0.21228495
1.6883016
0.14974228
1.5656496
0.097204631
1.4538003
0.045294707
1.3563756
1.3573669
12.460679
49.602033
11.535525
45.929213
10.678425
42.528524
9.8819368
39.379933
9.1411454
36.461312
8.4538761
33.765393
7.8223566
31.264303
7.2361241
28.95181
6.6904626
26.818589
6.1876813
24.831511
5.7216188
22.991892
5.2892628
21.293243
4.89174
19.718052
4.5224235
18.260776
4.1781351
16.915824
3.8601343
15.66568
3.5643993
14.510425
3.2906265
13.438476
3.0357137
12.447811
2.8001158
11.531771
2.5820585
10.683689
2.380726
9.896565
2.193541
9.1681074
2.0194034
8.4944627
1.8570906
7.8715332
1.7075604
7.2944085
1.568342
6.758921
1.4382052
6.2633653
1.3185511
5.8033927
1.2076181
5.3781712
1.1036025
4.9862226
1.0069067
4.6209453
0.91648216
4.2819016
0.83275398
3.9679948
0.75488464
3.6770491
0.68157558
3.4080049
0.61278649
3.1583916
0.54934546
2.9261837
0.49131469
2.7112423
0.43514502
2.5134588
0.38231585
2.3283203
0.33373843
2.1584531
0.26679938
2.0104475
0.21393752
1.8576087
0.19381941
1.7085069
0.14547508
1.6141489
0.090602926
1.5085132
0.053851264
1.3931207
1.4113212
10.297393
50.421173
9.5342984
46.693562
8.8268322
43.236278
8.1738148
40.03212
7.5681937
37.066261
7.0081154
34.32468
6.4860992
31.786936
5.9988657
29.439814
5.5510242
27.266566
5.142199
25.240334
4.761166
23.373012
4.4045247
21.649557
4.0754623
20.047366
3.7686102
18.567465
3.4867007
17.197278
3.2247481
15.926981
2.9829326
14.752378
2.7577248
13.663512
2.5484867
12.657298
2.3551118
11.725106
2.1749955
10.863573
2.0090952
10.062711
1.8550584
9.3223521
1.7117393
8.6377437
1.5781244
8.0050813
1.454099
7.4180802
1.339204
6.8735487
1.232847
6.3695944
1.1335301
5.9029803
1.0408737
5.4713436
0.9546341
5.0727509
0.87428101
4.7010512
0.79899966
4.3567127
0.72990205
4.0371455
0.66471872
3.7422679
0.60321226
3.4690583
0.54620378
3.2152734
0.49253548
2.9800017
0.44061936
2.7637556
0.39311198
2.5610784
0.34520393
2.3759584
0.30139392
2.2020737
0.26236294
2.0493369
0.21686315
1.9036804
0.15832917
1.7674685
0.12739547
1.6448313
0.089777691
1.5460203
0.043272558
1.4402659
1.4546318
8.4510746
51.094427
7.8349203
47.3097
7.2612433
43.809518
6.7282619
40.564098
6.232826
37.56092
5.7725757
34.784347
5.3462018
32.213828
4.9524878
29.834208
4.5925994
27.626393
4.2522958
25.580876
3.9395695
23.687198
3.6520973
21.937225
3.3867316
20.313115
3.1358548
18.818137
2.9036753
17.428998
2.6886241
16.141525
2.492824
14.948546
2.308931
13.847105
2.1384811
12.828012
1.9805231
11.883061
1.8341249
11.009798
1.6985966
10.198542
1.5721585
9.44902
1.4543032
8.7555928
1.3453976
8.1138318
1.2433638
7.5196681
1.1484986
6.968277
1.060986
6.457234
0.97966379
5.9846365
0.90297958
5.5483864
0.8319462
5.14398
0.76528156
4.7673914
0.70252117
4.4189657
0.64432181
4.0955283
0.58910562
3.7973851
0.5372076
3.5205545
0.48921407
3.2634217
0.44284123
3.0267197
0.40109879
2.8060582
0.35925904
2.6028614
0.31910633
2.4159305
0.2791782
2.2419042
0.25569857
2.0721918
0.22146613
1.9377364
0.18936518
1.7999882
0.13852683
1.6955626
0.070918145
1.6140308
0.02446774
1.4864068
1.478676
6.9058309
51.643962
6.4098244
47.806892
5.9447934
44.275147
5.5122072
40.996054
5.1088945
37.96337
4.7372509
35.155502
4.393619
32.557851
4.0778929
30.150622
3.7858738
27.918282
3.5138503
25.851407
3.2582
23.942211
3.0207042
22.175435
2.8000545
20.534442
2.5974329
19.020502
2.4115985
17.614396
2.2392143
16.313659
2.0783001
15.109904
1.9288246
13.996318
1.7918555
12.96523
1.6639676
12.010909
1.5450867
11.128607
1.4340402
10.309893
1.3311185
9.5522105
1.2354167
8.8513432
1.1462539
8.2027691
1.0627233
7.6027261
0.98566401
7.0452884
0.91376397
6.529414
0.84685438
6.0518953
0.78385274
5.611583
0.72535816
5.2025237
0.66997649
4.8224601
0.61786143
4.4705899
0.56893808
4.1446894
0.52263753
3.8435347
0.47826481
3.5647013
0.43550407
3.3065512
0.39567616
3.0670092
0.35636521
2.8458837
0.31650608
2.6426446
0.28349915
2.4492273
0.24835366
2.2777269
0.19537876
2.1269703
0.14588341
1.9873877
0.091275766
1.8540957
0.068882706
1.7171297
0.047310706
1.6348651
0.015046306
1.5172241
1.4948795
5.6115707
52.086572
5.2242518
48.194094
4.8520315
44.647195
4.5056815
41.342269
4.1826689
38.285442
3.8843279
35.453682
3.608074
32.834675
3.353743
30.405567
3.114142
28.157562
2.8923896
26.073781
2.6883682
24.145341
2.5013404
22.362325
2.3275768
20.708547
2.1664909
19.181135
2.0173361
17.763143
1.8773864
16.453369
1.7486715
15.238834
1.6298914
14.115076
1.5185094
13.076874
1.4143775
12.114926
1.3179573
11.225015
1.2287119
10.399334
1.1456005
9.6356118
1.0681738
8.9288009
0.99571544
8.2749121
0.92816317
7.6698455
0.86542247
7.1080346
0.80682915
6.588305
0.75202615
6.1070156
0.7006668
5.6631923
0.65112467
5.2518322
0.60452696
4.8686065
0.56229586
4.5124747
0.52211852
4.1852129
0.48267295
3.8827567
0.44625603
3.6011675
0.41211805
3.3410003
0.37671755
3.1026578
0.34331039
2.8793709
0.31334993
2.6725099
0.2721191
2.4913679
0.23121158
2.3197348
0.18410189
2.1727846
0.16089441
2.0109174
0.13150065
1.8825061
0.14065978
1.70785
0.069933533
1.7051077
0.02569899
1.5625859
1.5219942
0.00051931361
1.5201134
0.00019812662
1.5620533
0.012943984
1.6928777
-0.031284119
1.7543077
-0.056056961
1.9085596
-0.059914549
2.0148427
-0.062633647
2.172927
-0.068497026
2.325589
-0.074184866
2.4973993
-0.085409843
2.6839604
-0.093216742
2.8872668
-0.099190309
3.1086777
-0.10574139
3.3478975
-0.11205006
3.6076874
-0.11722324
3.8877739
-0.12205979
4.1905148
-0.12715084
4.5175027
-0.13035069
4.8712458
-0.13300549
5.2539725
-0.13578375
5.666163
-0.13802008
6.1095246
-0.13925804
6.5898045
-0.14035281
7.1091583
-0.14135319
7.6704574
-0.1425758
8.2757408
-0.14248168
8.9286204
-0.14140784
9.6347864
-0.14064333
10.398678
-0.13993905
11.224313
-0.13919855
12.114093
-0.13810222
13.075931
-0.13687172
14.114066
-0.13227695
15.234351
-0.12858226
16.449483
-0.1265178
17.760509
-0.12239135
19.176355
-0.11485527
20.701138
-0.10623886
22.353817
-0.099604385
24.138589
-0.093662951
26.068385
-0.087561152
28.151241
-0.079299991
30.397853
-0.068984008
32.824944
-0.059743367
35.444279
-0.051655929
38.276301
-0.039655399
41.329794
-0.026815982
44.634403
-0.028199263
48.185895
52.072976
0.01173501
1.5071365
-0.0013068654
1.5745966
-0.024064127
1.7159241
-0.035327053
1.764501
-0.060122814
1.9326545
-0.07352393
2.0278003
-0.069328588
2.1690809
-0.077887668
2.3344041
-0.077747612
2.4975924
-0.084315025
2.6907837
-0.096711033
2.8994941
-0.10437018
3.1162298
-0.11224759
3.3559192
-0.11790193
3.6135153
-0.12260437
3.8923497
-0.12713628
4.1954735
-0.13040508
4.520976
-0.13487558
4.8751806
-0.13846453
5.256868
-0.14118449
5.6688373
-0.14333163
6.1119794
-0.14479651
6.5915628
-0.14662409
7.1109993
-0.14758722
7.6711028
-0.14834535
8.2760751
-0.14894606
8.928966
-0.14852076
9.6345323
-0.14661603
10.39691
-0.14526424
11.222914
-0.14424999
12.113092
-0.14121668
13.07275
-0.13857812
14.111615
-0.13775584
15.233866
-0.13404598
16.446058
-0.12634517
17.752182
-0.12281976
19.172407
-0.12151341
20.699361
-0.11363375
22.346643
-0.10510927
24.130363
-0.097136379
26.060811
-0.089761487
28.143666
-0.081738855
30.390133
-0.071762431
32.815744
-0.060372188
35.433054
-0.050745985
38.265989
-0.041757231
41.320362
-0.030635444
44.622899
-0.021522098
48.174336
52.062795
-0.0023802812
1.5086914
-0.02337882
1.5958013
-0.028983456
1.7220762
-0.033202251
1.7677137
-0.048238007
1.9472998
-0.062457635
2.041724
-0.06314436
2.1714946
-0.071814994
2.3431874
-0.082748984
2.5094875
-0.095235943
2.703526
-0.092375624
2.8964579
-0.096671186
3.1204119
-0.10037568
3.3594751
-0.10584281
3.6190246
-0.11254792
3.8988201
-0.11625484
4.1995201
-0.12036568
4.5255645
-0.1234403
4.8779587
-0.12757929
5.260228
-0.13145683
5.6723171
-0.13497428
6.1157614
-0.13662364
6.5935715
-0.13691857
7.1113476
-0.13781798
7.6718349
-0.13882765
8.2767078
-0.13888033
8.9287156
-0.13959139
9.635293
-0.14011256
10.397569
-0.13850252
11.221216
-0.13644996
12.111136
-0.13448546
13.070553
-0.13072424
14.107838
-0.12651653
15.230145
-0.12312966
16.443545
-0.12117793
17.749987
-0.11678949
19.167549
-0.11354652
20.695304
-0.10888661
22.342636
-0.10198616
24.123876
-0.094140748
26.053787
-0.086354638
28.135766
-0.078859792
30.382483
-0.069294849
32.806951
-0.060715965
35.42488
-0.050824376
38.255795
-0.038791069
41.30777
-0.027245435
44.611156
-0.026323205
48.174314
52.052002
0.0052508411
1.5028732
-0.0010732653
1.6020009
0.018635986
1.7027665
-0.008912643
1.7953424
-0.025383971
1.9649156
-0.023016946
2.0403856
-0.030492175
2.1781604
-0.036782876
2.3483168
-0.037023209
2.5101551
-0.044532321
2.7113864
-0.067688002
2.9197307
-0.081905759
3.1346395
-0.090292221
3.3681533
-0.096912978
3.6258282
-0.10164976
3.9034013
-0.10914737
4.2072664
-0.1148298
4.531826
-0.11849529
4.8816966
-0.12124314
5.2623102
-0.1243378
5.674689
-0.12560426
6.1171097
-0.12724274
6.5956699
-0.12979143
7.11411
-0.13151747
7.6735754
-0.13311618
8.2779818
-0.13439645
8.929717
-0.13390559
9.6346768
-0.1325636
10.396298
-0.13171757
11.220344
-0.13121605
12.110847
-0.1307484
13.069934
-0.12865904
14.105663
-0.12465692
15.22657
-0.11999849
16.439904
-0.11683076
17.746723
-0.11193823
19.162224
-0.10873689
20.691517
-0.10586873
22.339752
-0.10110875
24.119505
-0.092893558
26.046139
-0.084261933
28.126835
-0.076350379
30.374384
-0.067278161
32.798481
-0.058356842
35.416522
-0.048037792
38.2455
-0.038794971
41.298267
-0.028044653
44.600793
-0.016394736
48.157425
52.038727
0.03377252
1.4686474
0.020382449
1.6141065
-0.0050012635
1.7287729
-0.025922057
1.8165312
-0.010792917
1.9509307
-0.014103953
2.0444633
-0.032975574
2.1956653
-0.044820342
2.3591968
-0.071951506
2.5369176
-0.083325595
2.7230607
-0.072259224
2.90855
-0.071043896
3.1333985
-0.080882327
3.3782761
-0.087053699
3.6323207
-0.095342663
3.9116973
-0.098675617
4.2105314
-0.1022669
4.5357157
-0.10790376
4.8876146
-0.11274944
5.266941
-0.11701247
5.6781948
-0.12170932
6.1217311
-0.12433164
6.5987456
-0.12446386
7.1145244
-0.12454871
7.6737889
-0.12571381
8.2788142
-0.12648606
8.9301817
-0.12630298
9.6343559
-0.12579915
10.395962
-0.12397538
11.218507
-0.1225058
12.109512
-0.12159073
13.069019
-0.12178574
14.105945
-0.12018043
15.224677
-0.11482064
16.434564
-0.11184364
17.743825
-0.10697943
19.156978
-0.10233677
20.686448
-0.099917451
22.337113
-0.096679353
24.116635
-0.089451085
26.039375
-0.080975997
28.118563
-0.073965327
30.367185
-0.065055385
32.790033
-0.05795495
35.410037
-0.049292907
38.237194
-0.038159051
41.286988
-0.030425265
44.593376
-0.019826102
48.145124
52.02799
0.013734159
-0.0010838825
0.010056397
0.01488587
0.022482661
1.9452881
0.021968126
2.0442043
-0.016712043
2.2338547
-0.017494381
2.3592035
-0.017310318
2.536746
-0.022388965
2.7285021
-0.062247766
2.9474283
-0.082542443
3.153189
-0.080538954
3.3765761
-0.087334263
3.6395256
-0.091091018
3.9155364
-0.095612571
4.2151999
-0.099220182
4.5394828
-0.10125872
4.8898099
-0.10505831
5.2708445
-0.10889231
5.6814025
-0.11220252
6.1246411
-0.11488919
6.6016326
-0.11740522
7.1173403
-0.11852218
7.6752029
-0.11755326
8.2777431
-0.11783732
8.9301178
-0.11946666
9.6357493
-0.12011242
10.396725
-0.11955776
11.217785
-0.11667303
12.10656
-0.11332729
13.065694
-0.11173384
14.104063
-0.11035719
15.222763
-0.10895533
16.43338
-0.10630094
17.741687
-0.10258574
19.153086
-0.097603463
20.681261
-0.093857886
22.333102
-0.090617071
24.113663
-0.088440804
26.037382
-0.081531544
28.111866
-0.069464506
30.355049
-0.060901298
32.781726
-0.052599964
35.401975
-0.045127014
38.230175
-0.036733467
41.278912
-0.026453745
44.583066
-0.018225857
48.136741
52.019163
0.0018952726
-0.0099120763
-0.025165428
-0.036826106
-0.072045578
-0.078567836
-0.044294678
-0.042029409
-0.059734159
3.3946729
-0.064622331
3.6448748
-0.074217702
3.925221
-0.08485622
4.2262574
-0.092346571
4.5473041
-0.097496701
4.8952089
-0.099971935
5.2735977
-0.10323238
5.6841776
-0.10425553
6.1250845
-0.10608501
6.6033756
-0.10770892
7.119174
-0.11030961
7.6781039
-0.11580969
8.2833484
-0.1191331
8.9330016
-0.1183441
9.6345192
-0.11684687
10.395186
-0.11544003
11.21608
-0.11429744
12.105226
-0.11139261
13.062987
-0.10705496
14.099596
-0.10337946
15.218818
-0.10056719
16.430344
-0.09819195
17.739921
-0.096477519
19.151183
-0.094015956
20.678478
-0.088852914
22.327767
-0.083084802
24.108008
-0.077875236
26.032169
-0.071529307
28.105688
-0.065904071
30.349606
-0.058268956
32.774206
-0.047649494
35.391641
-0.039466606
38.222086
-0.032801079
41.272388
-0.023503656
44.573913
-0.016346377
48.129978
52.011282
-0.065183837
-0.073375307
-0.075250789
-0.073486832
-0.076859877
-0.084157601
-0.088726047
-0.092962667
-0.10042396
-0.10315554
-0.10432065
7.1205084
-0.10342791
7.6772967
-0.099281751
8.2792179
-0.099089279
8.9324013
-0.10167564
9.6366353
-0.10349037
10.397072
-0.104165
11.216626
-0.10519192
12.106038
-0.10477108
13.062726
-0.101345
14.096416
-0.099213802
15.216865
-0.096299349
16.42775
-0.092696307
17.736474
-0.089754118
19.148124
-0.086863425
20.67506
-0.082724536
22.323485
-0.077102972
24.102473
-0.071058763
26.026074
-0.06552866
28.100379
-0.061169631
30.345277
-0.05430909
32.767452
-0.045953114
35.383554
-0.037463968
38.213879
-0.029748448
41.265188
-0.021847712
44.566403
-0.014404749
48.123282
52.00399
-0.094736091
-0.096031096
-0.09718116
-0.097471014
-0.095940989
-0.093860494
-0.093567545
-0.091422415
-0.090663355
-0.093085289
-0.092663651
-0.090528057
-0.087114567
17.733053
-0.083192646
19.14446
-0.079833808
20.671231
-0.075629452
22.318957
-0.070813536
24.097919
-0.065454887
26.02079
-0.060339251
28.095416
-0.055654163
30.340444
-0.049655842
32.761515
-0.043395076
35.377699
-0.036942892
38.207789
-0.029543536
41.257764
-0.020772723
44.557908
-0.013579763
48.116894
51.996873
-0.079291052
-0.075956313
-0.072586777
-0.067986218
-0.063743458
-0.061076036
-0.056951778
-0.048875272
-0.043405081
-0.039557702
-0.03421263
-0.027558141
-0.02081208
-0.013803367
)
;

boundaryField
{
    Side
    {
        type            empty;
    }
    Inlet
    {
        type            calculated;
        value           nonuniform List<scalar> 
29
(
-68.576458
-66.852569
-64.093214
-60.455378
-56.134108
-51.343011
-46.294986
-41.186663
-36.185203
-31.424834
-27.001225
-22.973983
-19.375837
-16.212953
-13.466334
-11.119173
-9.1239056
-7.4517326
-6.0543838
-0.018357107
-0.0074317028
-0.017993417
-0.0065236626
-0.0066733476
-0.0075756173
-0.0071662473
-0.0062658598
-0.0060779875
-0.0056209286
)
;
    }
    Airfoil
    {
        type            calculated;
        value           uniform 0;
    }
    Outlet
    {
        type            calculated;
        value           nonuniform List<scalar> 0();
    }
    procBoundary0to1
    {
        type            processor;
        value           nonuniform List<scalar> 
53
(
1.4572446
1.6278136
1.7174372
1.8095608
-0.00088539789
1.944337
2.0554426
2.248705
2.3708931
2.5721554
2.734928
2.9120909
3.1491647
0.065418426
3.3936912
3.653517
3.9269952
4.2246015
4.5509182
4.9027206
5.2786531
5.6881193
6.1320916
6.6060417
0.092010858
7.1236448
7.6788544
8.2807007
8.9327216
9.6345827
10.394914
11.216163
12.103995
13.062198
14.098737
15.216526
16.426071