/*--------------------------------*- C++ -*----------------------------------*\
| =========                 |                                                 |
| \\      /  F ield         | OpenFOAM: The Open Source CFD Toolbox           |
|  \\    /   O peration     | Version:  2506                                  |
|   \\  /    A nd           | Website:  www.openfoam.com                      |
|    \\/     M anipulation  |                                                 |
\*---------------------------------------------------------------------------*/
FoamFile
{
    version     2.0;
    format      ascii;
    arch        "LSB;label=32;scalar=64";
    class       volScalarField;
    location    "0.025";
    object      omega;
}
// * * * * * * * * * * * * * * * * * * * * * * * * * * * * * * * * * * * * * //

dimensions      [0 0 -1 0 0 0 0];

internalField   nonuniform List<scalar> 
19257
(
56.689134
53.652546
53.579356
53.583086
53.586806
53.597347
53.609436
53.609221
53.587347
53.563157
53.561607
53.575524
53.583625
53.584114
53.584549
53.586291
53.588542
53.591001
53.593816
53.597113
53.60094
53.605397
53.610694
53.617172
53.625328
53.635866
53.649791
53.668549
53.694253
53.730013
53.780452
53.852292
53.954925
54.099397
54.297405
54.570204
54.955968
55.514556
56.342684
57.598215
59.553131
62.688824
67.860351
77.086351
92.463831
127.35113
169.84391
362.8901
1627.9208
56.792526
53.694358
53.581204
53.582609
53.586368
53.596466
53.609831
53.611627
53.591353
53.566056
53.560051
53.572064
53.58213
53.584015
53.58468
53.586238
53.588342
53.590776
53.593567
53.596796
53.600526
53.604872
53.610044
53.616365
53.624305
53.634531
53.647989
53.666044
53.690686
53.724847
53.772872
53.841066
53.938231
54.07479
54.261746
54.518912
54.882004
55.40695
56.184516
57.363101
59.200388
62.148267
67.050615
75.71229
91.554988
125.30608
167.81189
358.62708
1604.2078
57.022806
53.770697
53.583003
53.582313
53.585749
53.595337
53.609807
53.614224
53.595681
53.569311
53.559531
53.569335
53.579729
53.583317
53.584637
53.586085
53.588054
53.590449
53.593208
53.596364
53.599992
53.604224
53.609265
53.615419
53.623127
53.633013
53.645964
53.663264
53.686782
53.719265
53.764784
53.829229
53.920841
54.049462
54.225427
54.46716
54.807864
55.299575
56.02709
57.129196
58.848115
61.6058
66.216187
74.320077
89.498948
120.95425
166.25339
347.7277
1584.211
57.226019
53.872162
53.584944
53.582029
53.585025
53.59394
53.609156
53.616647
53.600331
53.573151
53.559807
53.566579
53.576834
53.582397
53.584513
53.585954
53.58782
53.59018
53.592906
53.595994
53.599532
53.603667
53.608597
53.614607
53.622108
53.631687
53.644181
53.660799
53.683301
53.71427
53.757532
53.818612
53.905251
54.026758
54.192917
54.420987
54.741971
55.204574
55.88847
56.924225
58.540438
61.133572
65.487661
73.11066
87.788896
115.7989
164.6576
341.66519
1566.3621
57.426317
54.00251
53.587189
53.581804
53.584282
53.592324
53.607862
53.618626
53.605391
53.577775
53.560893
53.564046
53.573856
53.581083
53.584044
53.585711
53.587615
53.589945
53.592615
53.595634
53.599101
53.603158
53.607992
53.61387
53.621178
53.630467
53.64253
53.658504
53.680049
53.709596
53.750739
53.808672
53.890669
54.005538
54.162587
54.378017
54.680788
55.116613
55.760501
56.735512
58.257422
60.70009
64.812805
72.007469
86.051288
111.56855
158.82626
335.63558
1550.0035
57.618468
54.162409
53.589757
53.581598
53.583492
53.590536
53.605889
53.619868
53.610593
53.583206
53.562961
53.561863
53.570893
53.579121
53.583174
53.585473
53.587477
53.589731
53.592326
53.595297
53.598717
53.602712
53.607461
53.613217
53.620343
53.629361
53.641017
53.656387
53.677033
53.705243
53.744398
53.799384
53.877036
53.985691
54.134249
54.337923
54.623786
55.034885
55.64198
56.5613
57.996765
60.302236
64.191126
71.002028
84.380295
107.64884
151.88855
322.36377
1534.44
57.800766
54.352237
53.592745
53.581348
53.582642
53.588652
53.603304
53.620136
53.615763
53.58946
53.566194
53.560331
53.567951
53.576616
53.58202
53.585143
53.58729
53.589486
53.592047
53.595
53.598389
53.602331
53.607002
53.612644
53.619602
53.628367
53.639644
53.654448
53.674249
53.701204
53.738494
53.790718
53.864298
53.967121
54.107747
54.300418
54.570488
54.95862
55.531645
56.399516
57.755188
59.934628
63.615417
70.081044
82.755401
104.29678
145.53805
304.5919
1519.1643
57.97104
54.572597
53.596443
53.580946
53.581699
53.586733
53.600262
53.619135
53.620527
53.596399
53.570442
53.559765
53.565196
53.57374
53.58056
53.584489
53.586952
53.58925
53.591826
53.594758
53.598109
53.602002
53.606604
53.612147
53.618952
53.627485
53.638411
53.652686
53.671698
53.69748
53.733026
53.782666
53.852436
53.949795
54.08301
54.265355
54.520649
54.887397
55.428765
56.248916
57.530679
59.593815
63.081405
69.232778
81.185595
101.3313
139.92069
283.57445
1503.9957
58.127321
54.820944
53.604954
53.580344
53.580717
53.584827
53.596964
53.617024
53.624226
53.60371
53.575913
53.560592
53.562681
53.570626
53.578613
53.583526
53.586532
53.589056
53.591652
53.594543
53.597857
53.601714
53.606267
53.611725
53.618394
53.626715
53.637317
53.651103
53.669385
53.694077
53.728003
53.775242
53.841469
53.933735
54.060019
54.232708
54.474233
54.821101
55.333061
56.108936
57.322203
59.27784
62.586365
68.448492
79.694141
98.709885
134.98141
265.51235
1488.7396
58.268546
55.069496
53.638874
53.579676
53.579748
53.583006
53.5936
53.613995
53.626518
53.610879
53.582496
53.563046
53.560558
53.567565
53.576256
53.582227
53.585989
53.588831
53.591458
53.594328
53.597631
53.601476
53.605992
53.611376
53.617923
53.626051
53.636358
53.649698
53.667309
53.691001
53.723435
53.768461
53.831422
53.918985
54.0388
54.202529
54.431311
54.759776
55.244519
55.979444
57.129405
58.985839
62.128964
67.722546
78.361137
96.385138
130.63381
250.4348
1473.5077
58.394522
55.307353
53.701292
53.579329
53.578743
53.581276
53.59034
53.610256
53.627393
53.61734
53.589886
53.56685
53.559297
53.564857
53.57352
53.580568
53.585277
53.588493
53.591247
53.594149
53.59746
53.601293
53.605772
53.611089
53.617527
53.625484
53.635527
53.648464
53.665469
53.688253
53.719331
53.76234
53.822322
53.905584
54.019445
54.174938
54.392022
54.703587
55.163338
55.860669
56.952514
58.717939
61.709202
67.056
77.155556
94.316404
126.83932
237.74793
1458.384
58.505377
55.530026
53.788595
53.579427
53.577835
53.579732
53.587343
53.606157
53.626763
53.62296
53.597549
53.571722
53.559404
53.562559
53.570558
53.57862
53.584309
53.588056
53.591039
53.594008
53.597326
53.60114
53.605583
53.610845
53.617192
53.625003
53.634814
53.647395
53.66386
53.685832
53.715693
53.756889
53.814189
53.89357
54.002034
54.15005
54.356516
54.652741
55.089808
55.752993
56.792032
58.474753
61.327924
66.449523
76.075443
92.483547
123.57275
227.06051
1443.9452
58.601365
55.733839
53.895677
53.579932
53.577105
53.57845
53.584754
53.60208
53.624871
53.6275
53.604912
53.577447
53.561025
53.560625
53.567719
53.576494
53.583088
53.587501
53.590793
53.593871
53.597196
53.600991
53.605411
53.610635
53.616912
53.6246
53.634212
53.646483
53.662474
53.68373
53.712517
53.752108
53.807032
53.88297
53.986623
54.127961
54.324944
54.607464
55.024252
55.656886
56.648632
58.257241
60.986518
65.905599
75.116745
90.876714
120.84027
218.05038
1429.4418
58.682853
55.9154
54.015576
53.580844
53.576508
53.577509
53.582693
53.598327
53.622326
53.630618
53.611506
53.583567
53.563876
53.559308
53.565286
53.574259
53.581661
53.586804
53.590499
53.593722
53.59707
53.600859
53.605266
53.610463
53.616684
53.624269
53.633712
53.645718
53.6613
53.681938
53.709792
53.747992
53.800855
53.873799
53.973254
54.108754
54.297438
54.567956
54.966976
55.572815
56.523026
58.066483
60.686647
65.427081
74.278888
89.497998
118.41332
210.64789
1415.8084
58.75036
56.071895
54.139757
53.582077
53.575982
53.576814
53.581108
53.595085
53.61955
53.632427
53.617007
53.589633
53.567224
53.558918
53.563434
53.572028
53.580122
53.585992
53.590146
53.59356
53.596956
53.600746
53.605142
53.610315
53.616491
53.623996
53.633301
53.645085
53.660324
53.680438
53.707505
53.744529
53.795647
53.866056
53.961948
54.092477
54.274091
54.534375
54.918236
55.501185
56.415855
57.903495
60.42992
65.016802
73.562852
88.340184
116.32164
204.80984
1403.3328
58.804477
56.201361
54.258676
53.583721
53.575548
53.576273
53.57989
53.592428
53.616822
53.63331
53.621296
53.595148
53.570712
53.559347
53.562087
53.570005
53.578598
53.585117
53.589745
53.59338
53.596845
53.600643
53.605025
53.610176
53.616318
53.623763
53.632962
53.644568
53.659527
53.679214
53.705638
53.741701
53.791396
53.859734
53.952707
54.079159
54.254967
54.506843
54.878238
55.442343
56.327693
57.76923
60.217899
64.677545
72.970108
87.403248
114.54733
200.50329
1392.3504
58.845715
56.302617
54.359088
53.589774
53.575221
53.575838
53.578965
53.59037
53.61445
53.633563
53.624475
53.599676
53.573915
53.560247
53.561167
53.568411
53.57723
53.584251
53.58932
53.59318
53.596734
53.600552
53.604924
53.610055
53.616168
53.623565
53.632682
53.644151
53.658892
53.678247
53.704172
53.73949
53.788081
53.854811
53.945518
54.068798
54.240089
54.485416
54.847094
55.396485
56.258876
57.664246
60.051477
64.410666
72.500849
86.681312
113.08847
197.53397
1383.2533
58.874598
56.375144
54.433879
53.598507
53.574935
53.575499
53.57832
53.588928
53.612673
53.633508
53.626612
53.602967
53.576442
53.56125
53.560582
53.567333
53.576124
53.583501
53.588928
53.592979
53.596624
53.600473
53.604842
53.609957
53.616046
53.623404
53.632458
53.643827
53.658411
53.677528
53.703095
53.737879
53.785682
53.851268
53.940362
54.061386
54.229459
54.470119
54.824859
55.36372
56.209602
57.588883
59.931235
64.216923
72.15597
86.168913
111.94359
195.79422
1376.4404
58.89177
56.418752
54.479955
53.605817
53.57465
53.575314
53.577976
53.588091
53.611614
53.633402
53.627802
53.604908
53.57802
53.561995
53.560299
53.566693
53.575381
53.582979
53.588639
53.592815
53.596526
53.600401
53.60477
53.609874
53.615945
53.623278
53.632293
53.6436
53.658088
53.677059
53.702409
53.736873
53.784205
53.849112
53.937252
54.056945
54.223121
54.461023
54.811652
55.344253
56.180248
57.543824
59.858615
64.098964
71.941671
85.863381
111.15729
195.12498
1372.2233
58.897465
56.433327
54.49562
53.608674
53.574558
53.57527
53.577869
53.587815
53.611269
53.633362
53.628169
53.605534
53.57854
53.562238
53.560209
53.566458
53.575079
53.58276
53.588516
53.59274
53.596474
53.600354
53.604721
53.609818
53.61588
53.623204
53.632205
53.64349
53.657946
53.676868
53.702149
53.736512
53.7837
53.848401
53.936258
54.055559
54.221178
54.45827
54.807685
55.338421
56.171425
57.530185
59.836171
64.06193
71.870771
85.766783
110.8508
195.10009
1370.7651
58.89177
56.418752
54.479955
53.60582
53.57464
53.575312
53.577975
53.588086
53.6116
53.633379
53.627772
53.604876
53.577991
53.561952
53.560228
53.566596
53.575296
53.582904
53.58857
53.592749
53.596459
53.600329
53.604691
53.609788
53.615853
53.623183
53.632198
53.643507
53.658002
53.676983
53.702352
53.736847
53.784228
53.84921
53.937463
54.057321
54.223738
54.461991
54.813132
55.346482
56.183572
57.548738
59.86576
64.109403
71.954788
85.878656
111.17552
195.13473
1372.2282
58.874598
56.375145
54.433881
53.59851
53.574919
53.575489
53.578312
53.588915
53.612642
53.633456
53.626547
53.602901
53.576376
53.561153
53.560425
53.567135
53.575942
53.583344
53.588784
53.592837
53.596477
53.600312
53.604666
53.609766
53.615842
53.623193
53.632243
53.643614
53.658208
53.677346
53.702949
53.737794
53.785692
53.851429
53.940748
54.062104
54.230664
54.47203
54.827803
55.368177
56.216268
57.598755
59.945587
64.23785
72.18214
86.199314
111.97882
195.81617
1376.4484
58.845715
56.302618
54.359092
53.589774
53.5752
53.575822
53.578949
53.590345
53.6144
53.633479
53.624374
53.599575
53.573812
53.560088
53.560916
53.568107
53.576957
53.584018
53.589103
53.59296
53.5965
53.600298
53.604646
53.609754
53.615847
53.623229
53.632338
53.643808
53.658563
53.677949
53.703928
53.739336
53.788072
53.85503
53.94608
54.069866
54.241899
54.488306
54.851563
55.403267
56.269029
57.679281
60.073302
64.442368
72.540285
86.726919
113.14019
197.5685
1383.264
58.804477
56.201363
54.258683
53.583717
53.575522
53.576251
53.579867
53.592391
53.616749
53.633191
53.621161
53.595015
53.57057
53.559113
53.561737
53.569599
53.578243
53.584814
53.589457
53.59308
53.596523
53.600293
53.604644
53.609765
53.615879
53.623302
53.63249
53.644097
53.659074
53.678802
53.705299
53.741485
53.791378
53.860027
53.953469
54.080611
54.257436
54.51079
54.884349
55.451621
56.34158
57.789771
60.247648
64.720532
73.023285
87.464328
114.61575
200.54872
1392.3634
58.75036
56.071898
54.139765
53.582068
53.575951
53.576786
53.581076
53.595033
53.619451
53.632272
53.616838
53.589471
53.567036
53.55859
53.562973
53.571536
53.579698
53.585626
53.589789
53.593181
53.596544
53.600299
53.604658
53.609795
53.615936
53.623415
53.632706
53.644492
53.659754
53.679921
53.707082
53.744263
53.795638
53.86645
53.962946
54.094367
54.277294
54.539491
54.92615
55.513194
56.433813
57.930004
60.468193
65.071748
73.630403
88.417143
116.40668
204.86829
1403.3509
58.682852
55.915404
54.015584
53.580828
53.576473
53.577475
53.58265
53.598257
53.622198
53.630428
53.611304
53.58338
53.563634
53.55886
53.56472
53.5737
53.581183
53.586378
53.590071
53.593261
53.596568
53.600315
53.60468
53.609833
53.616014
53.623571
53.632999
53.645009
53.660622
53.681325
53.709298
53.747696
53.800878
53.874326
53.974536
54.111147
54.301471
54.574379
54.976898
55.587852
56.545475
58.099535
60.734189
65.494802
74.361572
89.591279
118.51504
210.7169
1415.8219
58.601364
55.733844
53.895683
53.579909
53.577067
53.578408
53.584699
53.601991
53.624715
53.627272
53.60468
53.577235
53.560714
53.56006
53.567044
53.575883
53.582569
53.58702
53.590294
53.593327
53.596602
53.600348
53.604719
53.609895
53.616128
53.623786
53.633385
53.645666
53.661697
53.683036
53.711968
53.751801
53.807117
53.883671
53.988243
54.130937
54.32992
54.61536
55.036423
55.675302
56.676073
58.297524
61.044212
65.98704
75.215428
90.986801
120.9585
218.1251
1429.454
58.505377
55.530034
53.7886
53.579399
53.577796
53.579686
53.58728
53.606054
53.626581
53.622701
53.597297
53.571479
53.558985
53.56189
53.569797
53.577967
53.583755
53.587522
53.590471
53.593383
53.596644
53.600402
53.60479
53.609997
53.616298
53.624078
53.63388
53.646479
53.662995
53.685069
53.715107
53.756595
53.814367
53.894489
54.004053
54.153692
54.362561
54.662298
55.104508
55.775194
56.825047
58.523064
61.396793
66.545757
76.191107
92.610805
123.70815
227.13583
1443.9427
58.394524
55.307367
53.701296
53.579302
53.578705
53.58123
53.590276
53.610144
53.627188
53.617057
53.589618
53.566561
53.55875
53.564087
53.572711
53.579886
53.584691
53.587903
53.590605
53.593443
53.596692
53.600466
53.604884
53.610143
53.616532
53.624459
53.634496
53.647458
53.664529
53.687437
53.718727
53.762085
53.822628
53.906769
54.021932
54.179343
54.399276
54.715013
55.180879
55.887115
56.991767
58.775195
61.790423
67.168244
77.289268
94.461488
126.98642
237.81941
1458.3972
58.268552
55.069517
53.638875
53.579645
53.57971
53.582958
53.593532
53.613874
53.62629
53.610562
53.582212
53.562724
53.559887
53.566688
53.575419
53.581535
53.585375
53.588188
53.590736
53.59353
53.596768
53.600552
53.605007
53.610334
53.616835
53.624936
53.635241
53.648615
53.666306
53.690147
53.722834
53.768271
53.831893
53.920488
54.041817
54.207794
54.439928
54.773305
55.265246
56.010652
57.17565
59.053092
62.223899
67.852187
78.514147
96.548724
130.79194
250.49463
1473.5355
58.127332
54.820971
53.604946
53.580306
53.580675
53.584772
53.596885
53.616893
53.623963
53.603343
53.57561
53.560197
53.561903
53.569659
53.577755
53.582828
53.585883
53.588368
53.59087
53.593667
53.596902
53.600692
53.605183
53.610587
53.617216
53.625515
53.636123
53.649954
53.668333
53.693203
53.727425
53.775145
53.842144
53.935615
54.06362
54.238919
54.484373
54.836987
55.357361
56.145485
57.376298
59.356301
62.696597
68.597165
79.867504
98.892492
135.14801
265.54635
1488.7768
57.971051
54.572622
53.596424
53.580902
53.58165
53.586667
53.600174
53.619
53.620201
53.59596
53.570122
53.559291
53.564316
53.572702
53.579704
53.583768
53.586257
53.588491
53.590977
53.593817
53.59708
53.600892
53.605427
53.610916
53.617687
53.626207
53.637149
53.651481
53.670612
53.696602
53.732493
53.782689
53.853349
53.952096
54.087288
54.27263
54.53247
54.905905
55.457063
56.291461
57.593616
59.684922
63.208845
69.402455
81.382029
101.53409
140.09191
283.59576
1504.0461
57.800769
54.352245
53.592713
53.581298
53.582588
53.58858
53.603224
53.619992
53.615334
53.588936
53.565892
53.559792
53.566933
53.575504
53.58119
53.584443
53.586542
53.588633
53.591102
53.593978
53.597286
53.601145
53.605742
53.611331
53.618258
53.627018
53.638322
53.653199
53.673141
53.700339
53.738027
53.790888
53.865484
53.969889
54.112808
54.308895
54.584164
54.980031
55.564408
56.448806
57.828125
60.040071
63.762353
70.274173
82.970694
104.52009
145.70209
304.31509
1519.2208
57.618451
54.162387
53.589713
53.581539
53.583433
53.590469
53.605842
53.619699
53.610023
53.582617
53.562731
53.561221
53.569729
53.577949
53.582295
53.584797
53.586734
53.588823
53.591291
53.594182
53.597532
53.601451
53.606129
53.611832
53.618931
53.62795
53.639645
53.655104
53.675916
53.704406
53.744016
53.799728
53.878531
53.988972
54.140168
54.347737
54.639516
55.059515
55.679748
56.618234
58.081152
60.424278
64.360621
71.223027
84.612394
107.89513
152.04198
321.71415
1534.4903
57.426274
54.002451
53.587137
53.581733
53.584217
53.592279
53.607872
53.618392
53.604612
53.577208
53.560766
53.563268
53.572497
53.579929
53.58317
53.584969
53.586817
53.588991
53.591512
53.594432
53.597827
53.601817
53.60659
53.612422
53.619707
53.629006
53.641118
53.657201
53.678939
53.708807
53.750465
53.80922
53.892513
54.009389
54.169443
54.389313
54.698807
55.14483
55.803889
56.801129
58.354901
60.84117
65.008293
72.259684
86.295249
111.83939
158.8533
334.65
1550.0385
57.225946
53.872061
53.584891
53.58194
53.58496
53.593943
53.609226
53.61627
53.599335
53.572704
53.559846
53.56562
53.575175
53.581331
53.583737
53.585131
53.586894
53.589147
53.591743
53.594714
53.59817
53.602244
53.607123
53.613097
53.620584
53.63018
53.642737
53.659482
53.682205
53.713538
53.757378
53.819381
53.907474
54.031222
54.20078
54.433904
54.762531
55.236822
55.938285
56.999948
58.653577
61.298368
65.714397
73.410473
88.029176
116.11392
164.22351
340.09207
1566.3962
57.022712
53.770558
53.582948
53.582197
53.585689
53.595409
53.609916
53.613606
53.594527
53.5691
53.559672
53.568153
53.577785
53.582207
53.584012
53.585277
53.587018
53.58931
53.591977
53.595021
53.598556
53.602727
53.607727
53.613858
53.621564
53.63148
53.644511
53.661962
53.685735
53.718631
53.764803
53.830288
53.923533
54.054659
54.234468
54.481961
54.831383
55.336493
56.084347
57.216873
58.979278
61.798129
66.480637
74.669382
89.738149
121.32609
165.56463
347.53566
1584.2482
56.792328
53.694214
53.581131
53.582474
53.586337
53.59661
53.609936
53.61067
53.590121
53.566263
53.56017
53.570527
53.580012
53.582808
53.584076
53.585435
53.587231
53.589523
53.592238
53.59537
53.599004
53.603285
53.608419
53.614723
53.62267
53.632935
53.646483
53.664703
53.689622
53.724228
53.77296
53.842285
53.941231
54.080516
54.271724
54.535343
54.908247
55.448449
56.249436
57.463048
59.352478
62.375112
67.343097
76.179293
91.541882
125.72831
166.78915
355.57383
1604.2471
56.689318
53.652438
53.579308
53.582941
53.586833
53.597569
53.609468
53.60794
53.586142
53.563875
53.561555
53.573286
53.581889
53.583131
53.583795
53.585405
53.587401
53.589718
53.59245
53.595661
53.599408
53.603812
53.609087
53.615569
53.623759
53.634373
53.648437
53.667424
53.693492
53.729821
53.781143
53.854381
53.959176
54.106901
54.310009
54.590573
54.98825
55.565334
56.422827
57.725467
59.742351
62.992706
68.272749
77.732205
93.244924
131.28099
168.2545
369.76823
1627.7845
2498.9458
1186.8671
420.37881
211.50262
148.54375
119.2602
100.91757
88.019218
78.883253
72.361815
67.707621
64.329157
61.83204
59.920674
58.449473
57.298416
56.393888
55.678161
55.126962
54.716472
54.419432
54.204993
54.047928
53.931298
53.844906
53.780878
53.731695
53.691847
53.658713
53.631585
53.610632
53.595631
53.585782
53.579974
53.576997
53.576237
53.576848
53.577623
53.578732
53.582668
53.585176
53.58671
53.580453
53.580487
53.576227
53.579997
53.57873
53.581434
53.65567
2537.0515
970.53551
338.71186
192.75163
141.02401
114.23631
97.183005
85.302764
76.967708
70.98626
66.714136
63.590837
61.277568
59.491957
58.121697
57.047623
56.205786
55.538415
55.0256
54.644159
54.368937
54.170908
54.026185
53.91806
53.836876
53.77624
53.729731
53.691932
53.660065
53.633419
53.612396
53.597063
53.586804
53.580629
53.577441
53.576583
53.576959
53.577686
53.578942
53.582795
53.584984
53.586344
53.580386
53.580639
53.576618
53.580156
53.57884
53.581486
53.655942
2561.4374
900.57391
321.90261
187.27153
137.97988
111.79178
95.308017
83.863396
75.89656
70.16537
66.096516
63.108469
60.903534
59.193033
57.888912
56.865263
56.066812
55.433337
54.948169
54.587746
54.328205
54.142039
54.006831
53.905982
53.829515
53.771753
53.727464
53.691586
53.661081
53.635054
53.614044
53.598437
53.587812
53.581284
53.577875
53.576823
53.57704
53.57772
53.579103
53.582876
53.584743
53.585938
53.580291
53.580767
53.576857
53.580314
53.578925
53.581539
53.656146
2576.5165
848.6346
308.97801
182.35495
135.26847
109.70394
93.693829
82.610047
74.957688
69.436952
65.550168
62.67723
60.567819
58.922659
57.678067
56.698755
55.939211
55.336084
54.876151
54.535079
54.28983
54.114071
53.987139
53.893111
53.821574
53.766786
53.724537
53.690499
53.661499
53.636318
53.615493
53.599714
53.588797
53.581965
53.578326
53.577063
53.577116
53.577777
53.579278
53.582972
53.584525
53.585545
53.580193
53.580893
53.577134
53.580481
53.579027
53.581594
53.65632
2585.1363
814.69951
300.44281
179.21616
133.31583
108.1032
92.435475
81.621255
74.203727
68.837157
65.096176
62.310801
60.280399
58.687947
57.494023
56.551857
55.825885
55.248944
54.811134
54.487233
54.254734
54.088052
53.968077
53.879994
53.813281
53.761613
53.721286
53.688891
53.661415
53.637258
53.61678
53.600914
53.589757
53.582659
53.578783
53.577319
53.577223
53.577842
53.579453
53.583071
53.584309
53.58515
53.580083
53.581018
53.577415
53.580657
53.579131
53.58165
53.656468
2588.5014
787.70824
293.12954
176.61333
131.68829
106.76168
91.367154
80.782365
73.556771
68.315752
64.699057
61.986276
60.02485
58.477032
57.328034
56.418543
55.722631
55.169147
54.751246
54.44293
54.222104
54.063703
53.949796
53.866799
53.804577
53.756188
53.717831
53.686888
53.660865
53.637863
53.617901
53.602044
53.590693
53.58336
53.579262
53.577604
53.57735
53.577912
53.579626
53.583172
53.584093
53.584747
53.579962
53.581154
53.577712
53.580845
53.579242
53.581711
53.656592
2587.3203
765.31294
286.85735
174.33709
130.3473
105.61395
90.442116
80.058108
72.990309
67.855419
64.3457
61.69492
59.793768
58.285029
57.176394
56.296361
55.627682
55.095575
54.695747
54.40167
54.191567
54.04086
53.93245
53.853816
53.795567
53.750472
53.714236
53.684635
53.659914
53.638132
53.618848
53.603106
53.591609
53.584063
53.579756
53.577927
53.577484
53.577987
53.5798
53.583276
53.58387
53.58432
53.579829
53.581314
53.578031
53.581045
53.579361
53.58178
53.656694
2582.1014
745.61108
281.29596
172.39476
129.11445
104.63164
89.615452
79.416824
72.480284
67.440677
64.023899
61.428886
59.580662
58.107809
57.035853
56.183167
55.539425
55.027179
54.643937
54.363005
54.162799
54.019302
53.916031
53.841257
53.786427
53.744442
53.710489
53.682243
53.658648
53.638068
53.619601
53.604094
53.592504
53.584763
53.580258
53.578265
53.577635
53.578069
53.579975
53.58338
53.583636
53.583859
53.579685
53.581502
53.578377
53.58126
53.579486
53.581858
53.656776
2573.2365
727.75844
276.24212
170.68734
127.9924
103.70112
88.863518
78.84198
72.01417
67.064371
63.727169
61.184667
59.382128
57.943762
56.904952
56.078127
55.457177
54.963555
54.595574
54.326821
54.135739
53.998969
53.90055
53.8293
53.777387
53.738172
53.706562
53.679788
53.657169
53.637691
53.620135
53.604989
53.593372
53.585454
53.580763
53.578609
53.57781
53.57816
53.580154
53.58349
53.583389
53.583367
53.579529
53.5817
53.578745
53.58149
53.579613
53.581944
53.656845
2561.3046
711.21808
271.58217
169.17141
126.94508
102.85399
88.163936
78.321329
71.579408
66.719326
63.448755
60.958203
59.194622
57.791114
56.781823
55.980027
55.379942
54.904023
54.5502
54.292829
54.110209
53.979728
53.885901
53.817961
53.768601
53.731768
53.70242
53.677274
53.655572
53.637044
53.620435
53.605776
53.594204
53.586138
53.581269
53.578972
53.578013
53.578261
53.580338
53.583607
53.583127
53.582859
53.579348
53.581902
53.579118
53.581731
53.579737
53.582033
53.656893
2546.3533
695.56117
267.18428
167.79697
125.93674
102.0558
87.495448
77.841639
71.163236
66.398265
63.181415
60.745351
59.014224
57.647257
56.664109
55.887236
55.306402
54.847615
54.50713
54.260563
54.085902
53.961357
53.871908
53.807149
53.760104
53.72532
53.698044
53.674646
53.653916
53.636185
53.620494
53.606434
53.594995
53.586816
53.581784
53.579352
53.578234
53.578371
53.580529
53.58374
53.582854
53.58234
53.57916
53.582119
53.579485
53.581994
53.579855
53.582128
53.656928
2528.5499
680.54729
262.98823
166.53257
124.95029
101.30377
86.846135
77.397847
70.758419
66.098443
62.921296
60.544696
58.839038
57.511197
56.550777
55.799137
55.236054
54.793964
54.466123
54.229867
54.062736
53.943811
53.858531
53.796815
53.751939
53.718949
53.693488
53.671853
53.65223
53.635186
53.620318
53.606942
53.595733
53.587491
53.582314
53.579752
53.578468
53.578492
53.580729
53.583894
53.582586
53.581789
53.578961
53.58237
53.579855
53.582282
53.579967
53.582233
53.65695
2508.1058
666.11296
258.97357
165.35034
123.98533
100.60499
86.210397
76.989181
70.361669
65.819809
62.666913
60.356371
58.66863
57.382918
56.44168
55.71571
55.168915
54.743065
54.427207
54.200771
54.04076
53.927144
53.845826
53.786985
53.744155
53.712769
53.688856
53.668879
53.65051
53.63412
53.619939
53.60728
53.596402
53.588161
53.582862
53.580169
53.578721
53.578624
53.580941
53.584054
53.58231
53.581192
53.578755
53.582632
53.580248
53.582596
53.580073
53.582352
53.656962
2485.6788
652.30323
255.12495
164.24382
123.03038
99.953222
85.580648
76.613022
69.967947
65.56063
62.415485
60.179212
58.501676
57.261504
56.336062
55.636368
55.104606
54.694592
54.390174
54.173119
54.019877
53.911303
53.833724
53.777627
53.736739
53.706816
53.684231
53.665731
53.648713
53.633034
53.619407
53.607439
53.596986
53.58882
53.583428
53.580603
53.578991
53.578769
53.581169
53.584212
53.582014
53.580583
53.578539
53.582928
53.580669
53.582941
53.58017
53.582489
53.656951
2460.9304
639.02887
251.38086
163.19594
122.06112
99.343357
84.949369
76.263912
69.56994
65.317201
62.162762
60.010649
58.335893
57.145135
56.232568
55.55997
55.042352
54.647909
54.354584
54.146582
53.999859
53.896151
53.822114
53.768651
53.72963
53.701066
53.679651
53.662432
53.646778
53.631934
53.61878
53.607421
53.597465
53.589455
53.584009
53.581053
53.579278
53.578928
53.581417
53.584366
53.58169
53.579943
53.578324
53.583266
53.581098
53.583327
53.580259
53.582633
53.656925
2434.0835
626.08183
247.72473
162.20149
121.06625
98.776321
84.313466
75.940296
69.165367
65.088703
61.907733
59.850046
58.17112
57.033295
56.131212
55.486292
54.982144
54.602945
54.320425
54.121148
53.980707
53.881649
53.811004
53.760059
53.722837
53.695539
53.675171
53.659045
53.644672
53.630806
53.618115
53.607248
53.59782
53.590047
53.584592
53.581517
53.57958
53.579104
53.58169
53.584517
53.581322
53.579278
53.578119
53.583658
53.581521
53.583755
53.580341
53.582785
53.656882
2405.6835
613.5137
244.15607
161.25897
120.04205
98.253007
83.671066
75.6407
68.753833
64.874308
61.65057
59.696798
58.007738
56.925651
56.032449
55.415228
54.924115
54.559713
54.287741
54.096854
53.96248
53.867819
53.800409
53.751861
53.71637
53.690258
53.670837
53.655638
53.642397
53.629609
53.617455
53.60696
53.598035
53.590569
53.585161
53.581993
53.579891
53.5793
53.58199
53.584674
53.580888
53.578602
53.57793
53.584126
53.581923
53.584212
53.58043
53.582947
53.65682
2376.0471
601.5302
240.66813
160.36668
118.98227
97.77191
83.020305
75.361139
68.333035
64.671204
61.390386
59.548941
57.845545
56.821072
55.936031
55.34619
54.86804
54.517957
54.256377
54.073628
53.945028
53.854594
53.79028
53.744021
53.710199
53.685218
53.666655
53.65225
53.639987
53.628289
53.616804
53.606611
53.598112
53.591001
53.585703
53.582477
53.580204
53.579511
53.582327
53.584844
53.580348
53.577922
53.577776
53.584684
53.582324
53.584695
53.580527
53.583115
53.656735
2344.809
590.15972
237.20492
159.51329
117.87685
97.326641
82.361032
75.095086
67.898895
64.474949
61.125843
59.403612
57.684065
56.717906
55.841477
55.278425
54.813555
54.477333
54.226113
54.051207
53.92824
53.841883
53.78055
53.736488
53.704284
53.680404
53.662625
53.648918
53.637492
53.626799
53.616136
53.60625
53.598069
53.591325
53.586204
53.582961
53.580519
53.579735
53.582716
53.585017
53.579694
53.577227
53.577708
53.585298
53.582779
53.585192
53.580623
53.583289
53.656633
2312.3581
579.05204
233.74773
158.70324
116.74373
96.922734
81.716132
74.838138
67.451977
64.282187
60.858493
59.258791
57.524365
56.615259
55.749216
55.211706
54.760719
54.437842
54.197011
54.029601
53.912109
53.829685
53.771217
53.72926
53.698617
53.675821
53.658765
53.645693
53.634968
53.625135
53.615397
53.605909
53.597944
53.591532
53.586649
53.583437
53.580822
53.579991
53.583162
53.585156
53.578952
53.576508
53.577715
53.585971
53.583285
53.585695
53.580711
53.583471
53.65652
2278.9213
568.57864
230.33859
157.96334
115.67169
96.586536
81.02724
74.586223
66.998627
64.089409
60.592079
59.112723
57.368273
56.512719
55.66007
55.145921
54.709764
54.399658
54.169007
54.008855
53.896664
53.818022
53.762297
53.722348
53.693199
53.671469
53.655099
53.642606
53.632452
53.623345
53.614521
53.605593
53.597787
53.591629
53.587021
53.583895
53.58109
53.580323
53.583707
53.585155
53.578152
53.57578
53.577806
53.586714
53.583828
53.586203
53.580787
53.583658
53.656405
2244.962
558.43352
227.05304