/*--------------------------------*- C++ -*----------------------------------*\
| =========                 |                                                 |
| \\      /  F ield         | OpenFOAM: The Open Source CFD Toolbox           |
|  \\    /   O peration     | Version:  2506                                  |
|   \\  /    A nd           | Website:  www.openfoam.com                      |
|    \\/     M anipulation  |                                                 |
\*---------------------------------------------------------------------------*/
FoamFile
{
    version     2.0;
    format      ascii;
    arch        "LSB;label=32;scalar=64";
    class       volScalarField;
    location    "0.025";
    object      yPlus;
}
// * * * * * * * * * * * * * * * * * * * * * * * * * * * * * * * * * * * * * //

dimensions      [0 0 0 0 0 0 0];

internalField   uniform 0;

boundaryField
{
    Side
    {
        type            empty;
    }
    Inlet
    {
        type            calculated;
        value           uniform 0;
    }
    Airfoil
    {
        type            calculated;
        value           nonuniform List<scalar> 
657
(
81.427898
78.722855
77.008375
76.367705
74.717707
74.560699
74.981633
75.630068
76.026471
76.726335
76.469173
77.713531
77.276306
79.280663
78.768224
80.251076
79.531678
80.726576
80.042263
82.063463
82.255682
83.258498
82.886781
84.577915
84.947346
86.675144
87.554453
89.777289
90.58957
92.493131
93.722168
95.977211
96.490653
97.898447
98.658817
99.839558
100.12354
101.22919
100.35863
100.92266
99.743996
100.92514
96.45063
96.760024
95.631496
94.394045
90.45772
87.817976
85.091797
81.899022
80.804217
79.587388
77.431722
74.933125
75.51396
75.463384
72.768392
72.380751
74.592431
74.593654
69.311331
68.020233
67.141611
65.478897
63.596351
61.59993
59.497872
56.757615
54.5268
53.176504
51.988812
51.758023
51.283813
49.657264
46.355029
44.854249
41.816395
41.023835
40.225403
38.334639
38.274004
35.89871
34.691285
34.521319
32.593332
32.015178
31.011293
30.119337
29.293843
28.438035
27.623867
26.823303
25.98864
25.849506
26.073013
26.19849
26.29998
26.400293
26.511738
26.624626
26.753131
26.893285
27.04999
27.243822
27.453822
27.619647
27.751693
27.869829
27.976271
28.084636
28.196376
28.323341
28.461703
28.624229
28.797024
29.008432
29.240528
29.501517
30.116503
14.140619
13.429187
14.080902
14.427661
15.050663
15.469957
15.970916
16.370433
16.806832
17.19229
17.586208
17.946033
18.311238
18.665532
19.012679
19.34142
19.659105
19.971205
20.282576
20.582914
20.872704
21.149829
21.420102
21.691817
21.957437
22.215322
22.464047
22.703868
22.941299
23.182065
23.418662
23.649918
23.873724
24.089663
24.301869
24.518688
24.733384
24.945328
25.153027
25.355307
25.55191
25.749976
25.951368
26.152077
26.352524
26.551409
26.747542
26.940624
27.137242
27.335921
27.533873
27.730132
27.923119
28.110996
28.293195
28.475329
28.658813
28.840796
29.021671
29.200874
29.377764
29.551705
29.725187
29.904212
30.084844
30.267302
30.450614
30.633673
30.814741
30.99286
31.172496
31.354264
31.535062
31.714574
31.891817
32.065566
32.2344
32.398272
32.563979
32.730538
32.896913
33.063313
33.229598
33.394907
33.55782
33.717885
33.881207
34.0461
34.210124
34.372675
34.5328
34.689569
34.841326
34.987933
35.134838
35.285188
35.434491
35.583845
35.731601
35.877777
36.019174
36.155088
36.286103
36.421573
36.553395
36.684313
36.810478
36.934738
37.052536
37.166072
37.271097
37.381934
37.495075
37.61593
37.740897
37.880597
38.02859
38.194828
38.365094
38.553791
38.754803
38.972819
39.183301
39.400471
39.598922
39.79321
39.956715
40.110702
40.237528
40.376524
40.494667
40.628431
40.745981
40.885092
41.004457
41.145981
41.266419
41.419907
41.573954
41.767373
41.962416
42.188211
42.411589
42.633588
42.843601
43.016067
43.188504
43.316024
43.472172
43.57613
43.748616
43.854016
44.066912
44.214939
44.475289
44.680332
45.012117
45.277366
45.65438
45.913254
46.199237
46.38354
46.531327
46.656098
46.716582
46.821656
46.879718
47.01226
47.096006
47.298414
47.455076
47.733284
47.948628
48.273684
48.513065
48.845698
49.082483
49.385597
49.595962
49.863324
50.045687
50.283214
50.444464
50.691774
50.860446
51.161392
51.363603
51.709416
51.935242
52.25636
52.414449
52.648174
52.745985
52.94412
53.075009
53.371264
53.641077
54.062791
54.390138
54.840521
55.126821
55.437484
55.550297
55.71877
55.740966
55.886251
55.935525
56.151359
56.314942
56.663486
56.930206
57.358741
57.687639
58.163546
58.490096
58.912064
59.156528
59.522881
59.745896
60.104674
60.396208
60.896763
61.310261
61.886673
62.323765
62.878368
63.241113
63.725757
64.00467
64.387458
64.619576
65.060544
65.25613
65.818548
66.244505
67.032747
67.645201
68.662702
69.299944
70.025634
70.366348
70.835611
70.942012
71.307405
71.264855
71.606946
71.723656
72.153809
72.19556
72.506869
72.661332
72.677148
73.022517
73.433948
73.919383
74.566936
75.412557
75.641144
75.953407
75.728923
75.558389
75.036392
75.000155
74.712911
75.650974
76.385031
78.056816
78.952169
80.368416
30.350887
30.537925
30.654263
30.765896
30.910591
31.103094
31.341388
31.622442
31.940122
32.288301
32.650014
33.016723
33.369064
33.691167
33.984668
34.261245
34.5331
34.80818
35.090604
35.381819
35.680748
35.985518
36.288246
36.582256
36.864262
37.132538
37.388517
37.634827
37.874035
38.109186
38.343328
38.578787
38.816285
39.054232
39.289123
39.516896
39.734349
39.936338
40.120964
40.290403
40.449485
40.603459
40.756059
40.908613
41.060114
41.208035
41.349508
41.482311
41.606053
41.721829
41.831488
41.936831
42.039086
42.138778
42.235815
42.329856
42.42051
42.507596
42.591005
42.67104
42.747954
42.822311
42.894149
42.96411
43.032131
43.099056
43.1651
43.230839
43.296147
43.360327
43.425118
43.488773
43.554158
43.617896
43.683089
43.746038
43.810097
43.870789
43.930624
43.985638
44.039669
44.090135
44.140985
44.189839
44.240123
44.289893
44.340955
44.391264
44.438006
44.483378
44.525349
44.565116
44.603944
44.640034
44.675752
44.711836
44.745673
44.778463
44.807628
44.834088
44.859573
44.882948
44.906535
44.930068
44.95443
44.980239
45.005875
45.030416
45.050412
45.06635
45.080572
45.09638
45.113623
45.132626
45.154097
45.174069
45.18547
45.198138
45.218126
45.224047
45.219879
45.226935
45.238872
45.255337
45.269043
45.283944
45.297504
45.295352
45.30176
45.311957
45.32406
45.317006
45.319556
45.327395
45.336264
45.352895
45.360587
45.339672
45.329467
45.329731
45.335259
45.340212
45.349107
45.348712
45.347859
45.350404
45.36101
45.351826
45.33461
45.338107
45.351805
45.355486
45.343554
45.341936
45.351404
45.355599
45.345477
45.33279
45.334469
45.344525
45.354203
45.350659
45.340255
45.338837
45.347337
45.350377
45.338877
45.333739
45.339102
45.352264
45.356662
45.3453
45.331271
45.334234
45.343085
45.339666
45.330349
45.330523
45.340941
45.343054
45.33227
45.320081
45.32377
45.327348
45.322809
45.313572
45.32103
45.325794
45.31484
45.28903
45.289683
45.296876
45.284024
45.291779
45.273764
45.277168
45.288814
45.266741
45.25568
45.26332
45.255531
45.248945
45.262356
45.250747
45.247684
45.22261
45.232361
45.232643
45.223918
45.219986
45.231915
45.208269
45.202506
45.180138
45.190069
45.172633
45.182004
45.166935
45.169977
45.142886
45.137038
45.11763
45.127854
45.111715
45.115033
45.090318
45.082259
45.052171
45.049249
45.026753
45.029088
45.002089
44.992548
44.956972
44.942229
44.910395
44.908632
44.877064
44.868666
44.823937
44.806813
44.765266
44.754573
44.710625
44.697057
44.648814
44.624187
44.568712
44.551067
44.482657
44.468882
44.397969
44.374084
44.3079
44.263324
44.191735
44.129521
44.043234
43.982892
43.896135
43.81218
43.704658
43.615316
43.496459
43.37156
43.220962
43.041862
42.919596
41.47711
)
;
    }
    Outlet
    {
        type            calculated;
        value           uniform 0;
    }
}


// ************************************************************************* //
