/*--------------------------------*- C++ -*----------------------------------*\
| =========                 |                                                 |
| \\      /  F ield         | OpenFOAM: The Open Source CFD Toolbox           |
|  \\    /   O peration     | Version:  2506                                  |
|   \\  /    A nd           | Website:  www.openfoam.com                      |
|    \\/     M anipulation  |                                                 |
\*---------------------------------------------------------------------------*/
FoamFile
{
    version     2.0;
    format      ascii;
    arch        "LSB;label=32;scalar=64";
    class       volVectorField;
    location    "0.0225";
    object      U;
}
// * * * * * * * * * * * * * * * * * * * * * * * * * * * * * * * * * * * * * //

dimensions      [0 1 -1 0 0 0 0];

internalField   nonuniform List<vector> 
13761
(
(117.9504 38.503283 0)
(119.46636 39.433312 0)
(120.9995 40.696278 -1.1074928e-20)
(122.64982 41.739605 1.5783716e-18)
(124.28763 42.89184 -6.5571517e-21)
(126.11841 44.005914 7.421408e-21)
(127.8489 45.086523 -1.0419741e-18)
(129.72026 46.132883 -1.143737e-18)
(131.61963 47.165366 0)
(133.50667 48.124085 0)
(135.49949 49.064951 0)
(137.42392 49.911263 0)
(139.42867 50.717547 -1.7999835e-18)
(141.38558 51.440635 0)
(143.33673 52.092384 1.0907353e-18)
(145.3027 52.696851 5.8596521e-19)
(147.19047 53.217218 6.1934647e-19)
(149.05078 53.667609 6.9707077e-19)
(150.88978 54.058271 -2.3692067e-20)
(152.64317 54.369416 4.1396922e-19)
(154.35947 54.634358 5.6349557e-20)
(156.01106 54.842701 -1.1727064e-22)
(157.57338 54.988482 -1.2218335e-22)
(159.07443 55.102262 -2.9080541e-19)
(160.51979 55.170717 -3.1646456e-19)
(161.86705 55.209529 -3.8705518e-19)
(163.10571 55.211434 -4.2079051e-19)
(164.29329 55.187345 -3.5564888e-19)
(165.42843 55.149664 -1.4332602e-22)
(166.4674 55.088664 0)
(167.40616 55.005724 3.2628159e-19)
(168.29199 54.918238 -1.5098108e-22)
(169.12365 54.826267 7.688675e-20)
(169.88686 54.725975 0)
(170.58807 54.620905 0)
(171.24499 54.519167 1.9751526e-19)
(171.85323 54.419521 0)
(172.41412 54.320031 -1.1648374e-19)
(172.93231 54.221156 0)
(173.41082 54.126314 1.3734169e-19)
(173.85181 54.035534 -7.4557271e-20)
(174.26422 53.951865 0)
(174.64903 53.873941 -8.787332e-20)
(175.01011 53.805482 -1.9059823e-19)
(175.35139 53.74367 4.1408188e-19)
(175.67137 53.691384 -2.2471157e-19)
(175.96459 53.642597 -2.4376295e-19)
(176.21976 53.592095 1.9858019e-19)
(176.46399 53.547715 1.436417e-19)
(176.72428 53.519708 -2.7271e-19)
(176.9589 53.498071 7.1901178e-19)
(177.15283 53.471153 -4.132349e-19)
(177.35487 53.455409 4.9799829e-19)
(177.55262 53.457701 -4.5959817e-19)
(177.7312 53.460637 4.3978878e-19)
(177.90789 53.463562 -5.0933838e-19)
(178.06071 53.491962 -5.5238654e-19)
(178.19035 53.61045 5.8094667e-19)
(178.23504 53.664013 6.2788324e-19)
(177.55863 53.527048 -6.7955484e-19)
(172.95489 52.209851 -2.3754112e-20)
(165.13003 49.817825 -2.5979135e-20)
(158.36363 47.716548 -2.8125104e-20)
(152.47188 45.92846 1.516851e-20)
(147.25582 44.384979 -1.6309549e-20)
(142.57297 43.013014 -1.7557429e-20)
(138.32402 41.795646 9.4265173e-21)
(134.43743 40.695605 1.0150367e-20)
(130.8588 39.688487 -2.1785058e-20)
(127.54589 38.763007 1.1676783e-20)
(124.46696 37.908624 -6.2595568e-21)
(121.59606 37.116166 6.7059207e-21)
(118.90888 36.377319 0)
(116.38233 35.684395 -7.6771639e-21)
(113.9956 35.030557 2.1101117e-18)
(111.73067 34.410185 -2.2540599e-18)
(109.57346 33.818814 2.3970593e-18)
(107.51125 33.252626 1.1577604e-22)
(105.53176 32.707932 -2.7429688e-18)
(103.62329 32.181225 -2.8460379e-21)
(101.77488 31.66923 -3.0329614e-21)
(99.975954 31.168801 3.2313162e-21)
(98.216305 30.676902 -3.5306906e-18)
(96.485907 30.190547 3.762668e-18)
(94.774433 29.706649 0)
(93.071464 29.222059 -2.0778487e-21)
(91.365578 28.733301 2.2300404e-21)
(89.6438 28.236414 1.1872094e-21)
(87.892038 27.727086 1.2794768e-21)
(86.093943 27.200143 0)
(84.229258 26.648459 0)
(82.272857 26.062353 6.6008163e-18)
(80.190669 25.436038 -1.4389731e-17)
(77.933915 24.754977 7.8937933e-18)
(75.427147 23.991701 8.7168446e-18)
(72.55717 23.099863 -9.6677707e-18)
(69.170033 22.041802 0)
(65.043739 20.744837 0)
(59.863088 19.106605 8.2482477e-22)
(53.233364 17.000448 0)
(44.873988 14.33695 0)
(35.075884 11.210147 -5.4725085e-22)
(24.731481 7.9065814 5.8446213e-22)
(14.564007 4.6577626 0)
(4.825105 1.5422871 5.6524325e-22)
(117.87672 38.580413 2.3165336e-18)
(119.38377 39.526159 -9.9806033e-21)
(120.91394 40.796968 -1.4021237e-18)
(122.56237 41.855042 -1.5468776e-18)
(124.19657 43.016226 -3.442034e-18)
(126.02327 44.143456 -1.4763499e-20)
(127.75037 45.23691 1.0550486e-18)
(129.61918 46.299668 2.2638596e-18)
(131.51611 47.346497 9.7981287e-21)
(133.40167 48.324416 1.0694681e-20)
(135.39646 49.28193 -1.1765352e-20)
(137.32298 50.148974 0)
(139.33357 50.972375 8.9943373e-19)
(141.29577 51.715544 -9.6780095e-19)
(143.25312 52.387432 -3.3558469e-20)
(145.22787 53.007944 -5.6787882e-19)
(147.12825 53.543875 1.9943266e-20)
(148.99883 54.012464 -2.1945505e-20)
(150.84915 54.421205 7.6045547e-19)
(152.61607 54.748191 -4.144292e-19)
(154.34545 55.031208 -4.7950803e-19)
(156.01213 55.252678 3.0783444e-20)
(157.59107 55.412099 3.3386019e-20)
(159.10872 55.536137 2.5484786e-19)
(160.56986 55.617505 -3.9539563e-20)
(161.92946 55.66756 -3.0137735e-19)
(163.18612 55.678004 3.7471305e-19)
(164.39408 55.660835 8.1519575e-19)
(165.54377 55.628912 -1.6630377e-19)
(166.59535 55.572527 -6.026871e-20)
(167.54849 55.497054 0)
(168.44614 55.413715 7.1005187e-20)
(169.28651 55.32425 -1.5458348e-19)
(170.06317 55.230873 1.6779885e-19)
(170.77495 55.130016 -9.1218032e-20)
(171.44018 55.031369 -1.9789999e-19)
(172.05235 54.931426 -1.0747099e-19)
(172.61867 54.833418 1.1671794e-19)
(173.15058 54.74165 -1.2674546e-19)
(173.63992 54.654755 1.3760214e-19)
(174.08446 54.571898 -1.4957955e-19)
(174.49653 54.493563 -1.6221836e-19)
(174.88312 54.425723 2.643529e-19)
(175.23917 54.361194 2.8679695e-19)
(175.56008 54.302305 -1.038668e-19)
(175.85061 54.245757 5.256624e-23)
(176.12822 54.200983 1.8342864e-19)
(176.40402 54.172105 -2.6564923e-19)
(176.65543 54.151969 -7.208655e-20)
(176.856 54.129779 -3.9119216e-20)
(177.04454 54.113554 0)
(177.24544 54.116241 0)
(177.42023 54.124193 -5.0000547e-20)
(177.57944 54.131174 2.7113598e-20)
(177.73464 54.149918 0)
(177.86998 54.18008 0)
(178.00686 54.212194 -3.4650474e-20)
(178.13858 54.156447 5.3445647e-24)
(178.12728 54.089371 0)
(177.06304 53.701252 -7.2659632e-19)
(171.98496 51.969283 1.525504e-18)
(163.95429 49.457479 -2.2038888e-22)
(157.24625 47.390789 -8.8726046e-19)
(151.38782 45.575835 9.583953e-19)
(146.12607 43.950741 -1.0664713e-18)
(141.35 42.478977 1.7687167e-20)
(136.97368 41.142003 -1.218203e-18)
(132.93599 39.919547 1.3008702e-18)
(129.19087 38.797143 1.4207745e-18)
(125.70089 37.762598 -1.5269879e-18)
(122.43596 36.805636 0)
(119.37196 35.917706 0)
(116.4884 35.091259 0)
(113.76668 34.318845 2.0075235e-18)
(111.18869 33.593223 -2.1507009e-18)
(108.73447 32.910181 -4.4946136e-21)
(106.39341 32.261518 2.4566474e-18)
(104.15267 31.642857 -2.6237478e-18)
(101.99956 31.049899 5.4778772e-21)
(99.922031 30.478402 2.9234591e-21)
(97.908659 29.92437 -3.1879229e-18)
(95.948195 29.383978 3.4023152e-18)
(94.029546 28.853545 0)
(92.141561 28.329442 0)
(90.272284 27.807858 4.1502793e-18)
(88.409188 27.284838 -8.8815802e-18)
(86.538237 26.755996 4.7547985e-18)
(84.643019 26.216238 0)
(82.705041 25.65982 5.4890309e-18)
(80.70221 25.079879 -1.1847255e-17)
(78.606627 24.46776 1.2819739e-17)
(76.383253 23.812573 -6.9598839e-18)
(73.987836 23.100513 4.8598694e-25)
(71.36321 22.313686 0)
(68.434556 21.428558 0)
(65.102316 20.413665 0)
(61.230138 19.225852 1.1146603e-17)
(56.63259 17.805901 -1.2402558e-17)
(51.069562 16.077603 1.3820311e-17)
(44.292457 13.961715 -3.0695399e-17)
(36.266583 11.446257 1.6862051e-17)
(27.518735 8.6963505 0)
(18.897135 5.9794215 -5.8981251e-22)
(10.878502 3.4465023 2.0263518e-17)
(3.517252 1.1160268 -1.8705117e-17)
(119.30643 39.618563 -9.9589836e-21)
(120.83017 40.899322 1.4061643e-18)
(122.47934 41.96693 -1.5524892e-18)
(124.10838 43.139071 1.717757e-18)
(125.93201 44.28043 -1.4715408e-20)
(127.65613 45.38913 8.1090517e-21)
(129.5215 46.46766 -1.1381571e-18)
(131.41605 47.531331 1.2590815e-18)
(133.30155 48.525232 -2.1404951e-20)
(135.29445 49.500527 1.5129819e-18)
(137.22339 50.384577 -8.3466657e-19)
(139.23509 51.228855 1.4079737e-20)
(141.20308 51.990441 9.8309355e-19)
(143.16814 52.679593 1.0574925e-18)
(145.151 53.321103 8.3740979e-23)
(147.05936 53.878005 2.0048855e-20)
(148.94158 54.366001 -7.2018181e-19)
(150.80273 54.793052 -1.4991288e-18)
(152.58042 55.137772 2.5881053e-20)
(154.32595 55.434547 9.0421248e-19)
(156.0098 55.674117 -1.2064519e-22)
(157.60131 55.849051 5.0257911e-19)
(159.13415 55.987535 0)
(160.60958 56.081469 -3.1749703e-19)
(161.98542 56.143524 3.0241761e-19)
(163.25794 56.165323 -7.514036e-19)
(164.4786 56.157368 -7.6619716e-19)
(165.6429 56.135365 0)
(166.70814 56.089026 0)
(167.6729 56.018567 0)
(168.58418 55.942812 0)
(169.43854 55.860171 -7.7608595e-20)
(170.22301 55.769116 -1.6832431e-19)
(170.9439 55.67323 -9.1269295e-20)
(171.61831 55.580014 1.9872149e-19)
(172.241 55.487832 1.0792493e-19)
(172.8136 55.395977 -2.3432763e-19)
(173.33978 55.304344 1.2029366e-22)
(173.82273 55.217835 1.380975e-19)
(174.265 55.136049 0)
(174.67601 55.062597 0)
(175.05652 54.995871 -8.8460915e-20)
(175.41003 54.939686 1.9180173e-19)
(175.73986 54.891609 -2.0849771e-19)
(176.04248 54.852248 5.6582293e-20)
(176.30953 54.815523 6.1418561e-20)
(176.53338 54.776943 0)
(176.74728 54.747744 0)
(176.97456 54.736138 0)
(177.17038 54.731229 0)
(177.32255 54.721718 0)
(177.47612 54.723949 -5.0162792e-20)
(177.61913 54.741624 -2.7234853e-20)
(177.73879 54.761685 4.726733e-19)
(177.8521 54.78097 -1.026078e-18)
(177.94174 54.815552 1.1482609e-18)
(178.00905 54.893263 -5.8480592e-19)
(178.01129 54.894801 6.5357663e-19)
(177.1778 54.628441 -7.3111059e-19)
(171.81183 52.932187 7.7593517e-19)
(163.69494 50.287093 -8.1799475e-19)
(156.94023 48.1673 1.4263998e-20)
(151.02536 46.337876 1.5394603e-20)
(145.70061 44.704104 -4.5370703e-24)
(140.87241 43.228335 1.7682545e-20)
(136.45108 41.884639 0)
(132.37434 40.65389 0)
(128.59854 39.519067 1.1038269e-20)
(125.08309 38.466148 2.3741325e-20)
(121.79521 37.484521 0)
(118.7096 36.565717 -6.8504923e-21)
(115.80567 35.702809 0)
(113.0659 34.890534 0)
(110.47592 34.124496 0)
(108.02487 33.397419 4.5179169e-21)
(105.69182 32.706558 4.8294067e-21)
(103.46086 32.046302 0)
(101.31816 31.411977 0)
(99.25135 30.799682 0)
(97.248878 30.205831 3.1415968e-21)
(95.29946 29.626909 3.3534029e-21)
(93.392012 29.059459 0)
(91.515449 28.500029 0)
(89.658104 27.944993 0)
(87.807987 27.390621 0)
(85.951803 26.832779 2.3427416e-21)
(84.07418 26.266681 0)
(82.157991 25.686979 1.3506849e-21)
(80.182909 25.087308 0)
(78.123269 24.459625 -1.5751353e-21)
(75.946623 23.79374 0)
(73.61124 23.076529 -7.6388825e-18)
(71.062324 22.29074 8.3647406e-18)
(68.227102 21.413439 1.1234072e-21)
(65.006215 20.413303 0)
(61.259228 19.245977 0)
(56.790967 17.850256 5.4483609e-25)
(51.349926 16.146512 0)
(44.685324 14.055867 9.4344026e-22)
(36.759444 11.566333 -1.0348443e-21)
(28.069891 8.8344777 5.5757163e-22)
(19.410169 6.1103219 -5.9097568e-22)
(11.244132 3.5402954 -6.1999784e-22)
(3.6598738 1.1523756 -1.8778342e-17)
(119.22188 39.711804 -2.5408516e-18)
(120.7428 40.99998 -1.0909745e-20)
(122.38976 42.082336 1.5693844e-18)
(124.01474 43.26344 1.6910285e-18)
(125.83398 44.417951 0)
(127.55428 45.53917 -8.0521505e-21)
(129.41669 46.633979 1.1531222e-18)
(131.30842 47.712299 -1.2661076e-18)
(133.19217 48.725255 1.070817e-20)
(135.18662 49.717741 1.0508419e-22)
(137.11688 50.622704 8.3388532e-19)
(139.13401 51.484588 -1.4072366e-20)
(141.10738 52.266449 0)
(143.07797 52.976312 -2.2178811e-23)
(145.06863 53.634682 5.8675372e-19)
(146.98926 54.207245 -6.2058763e-19)
(148.88208 54.714028 -2.1890669e-20)
(150.75471 55.159945 1.2906081e-22)
(152.54562 55.521484 0)
(154.3036 55.83665 -4.2467586e-19)
(156.002 56.090527 -1.2237908e-22)
(157.61051 56.28011 -5.7100645e-19)
(159.16077 56.428742 2.9241434e-19)
(160.6518 56.536437 2.7861634e-19)
(162.04027 56.609809 3.4629396e-19)
(163.33089 56.641116 4.2396295e-19)
(164.57146 56.640571 -5.0892387e-20)
(165.74999 56.624596 2.7842173e-19)
(166.82896 56.583092 2.4203247e-19)
(167.80834 56.520384 2.6307121e-19)
(168.73121 56.44773 -2.8590236e-19)
(169.59553 56.368359 -1.5533352e-19)
(170.393 56.284298 8.4337974e-20)
(171.12268 56.191176 2.7506577e-19)
(171.80327 56.099673 9.955033e-20)
(172.42923 56.006103 1.0800928e-19)
(173.00845 55.915328 -2.9894779e-23)
(173.5485 55.829668 2.553247e-19)
(174.0408 55.747308 -1.386962e-19)
(174.48516 55.66846 7.5229886e-20)
(174.89418 55.594425 -1.6335915e-19)
(175.27287 55.530162 3.5491526e-19)
(175.61766 55.469067 -3.8541565e-19)
(175.92315 55.41337 2.090727e-19)
(176.19683 55.361353 -1.7040795e-19)
(176.45854 55.322838 6.1591827e-20)
(176.71453 55.299946 0)
(176.9375 55.281524 2.9030005e-19)
(177.10409 55.259241 -3.1528658e-19)
(177.25666 55.241936 3.420185e-19)
(177.41593 55.241597 -1.7667068e-22)
(177.54765 55.242999 5.0212478e-20)
(177.66203 55.242271 -4.6475939e-19)
(177.76892 55.247341 4.7455335e-19)
(177.85495 55.260596 -3.2351329e-20)
(177.93959 55.276699 -1.0829933e-18)
(178.00747 55.247047 5.8761896e-19)
(177.94312 55.222784 2.0564034e-20)
(177.0445 54.972912 5.9911996e-24)
(172.2339 53.332299 0)
(163.95392 50.603664 2.6679315e-20)
(156.99271 48.352836 -2.8898758e-20)
(150.93505 46.410575 -1.561431e-20)
(145.55685 44.693743 1.664677e-20)
(140.65914 43.156744 1.1304491e-18)
(136.17172 41.756665 -1.2261934e-18)
(132.0304 40.480588 1.0340809e-20)
(128.1807 39.298701 -1.1087988e-20)
(124.59241 38.199109 1.512104e-18)
(121.23701 37.175512 -1.6368427e-18)
(118.08671 36.21918 -1.7495711e-18)
(115.11893 35.320901 1.8853683e-18)
(112.31476 34.474543 -2.024961e-18)
(109.65642 33.67529 1.4612006e-23)
(107.12756 32.917787 2.3291704e-18)
(104.71241 32.197162 4.8637589e-21)
(102.39927 31.508585 2.6604253e-18)
(100.17639 30.848032 4.5211376e-24)
(98.031724 30.211453 -3.0294567e-18)
(95.953718 29.595015 -3.2399833e-18)
(93.931086 28.995001 3.4546143e-18)
(91.952705 28.407781 -3.6847756e-18)
(90.00733 27.829717 3.9410948e-18)
(88.082947 27.256968 -4.2097612e-18)
(86.167056 26.685566 -1.6685652e-23)
(84.245716 26.111123 4.8194518e-18)
(82.30284 25.528602 0)
(80.320676 24.932446 5.5659541e-18)
(78.278391 24.316143 -5.9993699e-18)
(76.14989 23.671547 0)
(73.902565 22.988481 -7.0407347e-18)
(71.495362 22.254118 7.6691668e-18)
(68.875413 21.451933 8.3933627e-18)
(65.973613 20.560308 -1.8458932e-17)
(62.697379 19.550263 1.0196758e-17)
(58.917856 18.381438 1.1312975e-17)
(54.458518 16.998528 -1.2602419e-17)
(49.092401 15.330592 1.4043009e-17)
(42.574721 13.300816 -1.5579398e-17)
(34.876981 10.900151 1.7086871e-17)
(26.505567 8.2868 -3.6797657e-17)
(18.241091 5.7049248 3.8977195e-17)
(10.51863 3.2908135 -4.0894894e-17)
(3.4059732 1.0660171 3.7741906e-17)
(119.14268 39.804765 9.5536745e-21)
(120.65734 41.102475 -1.4023669e-18)
(122.30449 42.194039 -1.5379128e-18)
(123.92394 43.385814 -1.7034856e-18)
(125.73961 44.55479 7.3185504e-21)
(127.45669 45.691294 -1.0295711e-18)
(129.31522 46.802296 -1.1233051e-18)
(131.20433 47.897103 -9.7369973e-21)
(133.08722 48.926474 0)
(135.07936 49.936387 -1.4970402e-18)
(137.01148 50.85876 -1.2785147e-20)
(139.02915 51.741789 9.1208656e-19)
(141.00739 52.542627 -1.5314737e-20)
(142.98593 53.270319 -2.1317896e-18)
(144.98463 53.949593 -1.1738159e-18)
(146.91247 54.544068 6.4094042e-19)
(148.81662 55.070841 0)
(150.70035 55.535605 1.5262355e-18)
(152.50096 55.915994 -2.5946322e-20)
(154.27465 56.245589 1.1816452e-22)
(155.99074 56.517852 1.2412533e-22)
(157.61235 56.724013 -5.0442869e-19)
(159.17724 56.888258 -2.5653702e-19)
(160.68181 57.009267 -3.9933154e-20)
(162.08741 57.095083 -3.4710087e-19)
(163.39565 57.137787 4.2461261e-19)
(164.64948 57.147702 3.5944197e-19)
(165.84302 57.142419 -2.2337853e-19)
(166.93516 57.111336 -5.4613461e-19)
(167.92751 57.053751 -1.9793926e-19)
(168.86487 56.989674 2.2261256e-22)
(169.74236 56.916123 -7.7716042e-20)
(170.54861 56.833641 8.4756917e-20)
(171.28969 56.745448 -1.8407589e-19)
(171.98135 56.658475 2.9966278e-19)
(172.61804 56.570949 -1.0879291e-19)
(173.20188 56.482567 -1.1801797e-19)
(173.73599 56.393659 -1.4714604e-22)
(174.22356 56.310016 -1.5389309e-22)
(174.66733 56.230152 -1.5104399e-19)
(175.07679 56.158249 -1.639228e-19)
(175.45314 56.0922 1.7816433e-19)
(175.79943 56.035679 9.6716789e-20)
(176.11743 55.986066 2.0981529e-19)
(176.40287 55.942458 -1.1410499e-19)
(176.64553 55.898059 -3.0931919e-19)
(176.84333 55.850128 0)
(177.03461 55.813199 -7.2838805e-20)
(177.236 55.7913 3.9530453e-20)
(177.40192 55.772189 0)
(177.52646 55.746723 -3.7262828e-19)
(177.65034 55.730831 4.5514751e-19)
(177.76138 55.724651 4.6639888e-19)
(177.85024 55.719222 -4.7655335e-19)
(177.93158 55.712249 1.9248339e-23)
(177.99284 55.708156 5.2595904e-19)
(178.03453 55.736188 1.8900188e-20)
(178.0077 55.717947 -1.321936e-18)
(177.2996 55.468015 1.4591092e-18)
(172.65185 53.955093 -1.1320527e-22)
(164.36575 51.188332 -8.8428629e-19)
(157.357 48.912505 -9.1434133e-19)
(151.26735 46.940909 1.0195652e-18)
(145.77331 45.172239 -1.0830955e-18)
(140.77698 43.573767 1.1672807e-18)
(136.19858 42.119511 1.2360078e-18)
(131.98729 40.78035 -1.3550438e-18)
(128.10011 39.555118 0)
(124.48951 38.427586 1.5558847e-18)
(121.11647 37.379094 -6.4719255e-21)
(117.9488 36.397503 -1.7766865e-18)
(114.95775 35.472799 0)
(112.122 34.60016 -7.9222704e-21)
(109.42833 33.772644 -2.1807079e-18)
(106.86469 32.986394 2.3322831e-18)
(104.42087 32.23761 -4.8705691e-21)
(102.0838 31.522753 0)
(99.841761 30.838493 0)
(97.679939 30.179512 -9.8340756e-25)
(95.585834 29.541877 -3.2543046e-18)
(93.548277 28.922077 -3.398856e-21)
(91.556565 28.31663 7.4204447e-18)
(89.599833 27.721997 -3.9652637e-18)
(87.666125 27.134323 0)
(85.743039 26.549651 -4.5343792e-18)
(83.817048 25.963704 4.7282603e-21)
(81.872682 25.371602 5.2076938e-18)
(79.892898 24.767976 1.3662561e-21)
(77.857631 24.146521 -1.473188e-21)
(75.741677 23.499349 0)
(73.513345 22.816556 0)
(71.132054 22.085475 -7.7090557e-18)
(68.544642 21.289524 -1.0439714e-21)
(65.680686 20.406747 9.2855385e-18)
(62.444182 19.407219 -1.0263386e-17)
(58.700612 18.248979 6.8346359e-22)
(54.267798 16.875322 7.6348409e-22)
(48.911521 15.21333 1.4119516e-17)
(42.394872 13.189267 0)
(34.704187 10.798835 -1.8421493e-25)
(26.356722 8.2029357 5.6388814e-22)
(18.128609 5.6431573 0)
(10.447958 3.252884 0)
(3.3807257 1.0528285 0)
(119.05597 39.898035 2.4895227e-18)
(120.56794 41.203008 2.7776958e-18)
(122.21258 42.309308 1.5179014e-18)
(123.82725 43.510293 0)
(125.63827 44.69223 0)
(127.35123 45.841079 1.0258654e-18)
(129.20642 46.968135 0)
(131.09215 48.07799 -9.6707627e-21)
(132.97308 49.126284 1.3731274e-18)
(134.9662 50.153862 0)
(136.89887 51.097352 0)
(138.92134 51.99843 -1.794401e-18)
(140.90502 52.819687 -9.666979e-19)
(142.8886 53.568409 1.0572523e-18)
(144.89389 54.2655 2.3330468e-23)
(146.83396 54.876146 -6.2113233e-19)
(148.74896 55.422342 -2.1921906e-20)
(150.64415 55.90668 -7.4002727e-19)
(152.45768 56.304718 -2.6087202e-20)
(154.24303 56.65298 4.8236213e-19)
(155.97288 56.94085 -5.2579251e-19)
(157.61173 57.162617 5.7285097e-19)
(159.1947 57.337077 -7.3391324e-20)
(160.71505 57.472614 3.1961344e-19)
(162.13408 57.569829 1.4683442e-22)
(163.46028 57.622899 -3.3117946e-19)
(164.73327 57.640963 -4.1159138e-19)
(165.94083 57.642279 5.5885313e-20)
(167.04807 57.616452 4.2585374e-19)
(168.05515 57.566718 0)
(169.00434 57.504908 2.1591554e-19)
(169.89375 57.435499 2.9603841e-22)
(170.71278 57.359714 8.5007215e-20)
(171.46159 57.272902 -1.8446844e-19)
(172.15877 57.186556 -1.0034981e-19)
(172.79972 57.097092 1.0900078e-19)
(173.39244 57.009833 1.1822211e-19)
(173.9409 56.925408 -1.2858553e-19)
(174.43697 56.841963 -1.3961913e-19)
(174.88324 56.760278 7.5810694e-20)
(175.29171 56.682484 0)
(175.66566 56.612103 0)
(176.00363 56.543856 -9.6959882e-20)
(176.30022 56.479272 -1.052711e-19)
(176.56549 56.418631 1.143418e-19)
(176.82006 56.371309 2.4817585e-19)
(177.06438 56.336989 -4.7163771e-19)
(177.2683 56.300753 6.5822194e-19)
(177.4159 56.258838 -3.9868038e-20)
(177.55144 56.220743 -3.4474808e-19)
(177.68955 56.196606 0)
(177.80092 56.170957 -5.0774626e-20)
(177.89741 56.143129 -2.7531908e-20)
(177.98583 56.117667 0)
(178.05641 56.09591 2.4073001e-23)
(178.12634 56.073726 -5.2794157e-19)
(178.18247 56.011709 6.1124505e-19)
(178.11873 55.956964 -2.0742573e-20)
(177.41403 55.732384 0)
(173.5189 54.384102 0)
(165.21305 51.593409 0)
(157.97062 49.201501 -9.330551e-19)
(151.76643 47.183098 1.9856087e-18)
(146.23005 45.386587 -1.1054064e-18)
(141.20653 43.764455 -1.1546848e-18)
(136.598 42.283163 2.5256838e-18)
(132.33633 40.920269 -1.3582785e-18)
(128.37389 39.658318 -1.4481846e-18)
(124.67773 38.486504 1.5672363e-18)
(121.22181 37.396082 6.569624e-21)
(117.98344 36.378909 0)
(114.94144 35.429222 0)
(112.07278 34.535918 2.05764e-18)
(109.35457 33.692507 -4.3784547e-18)
(106.76775 32.892447 2.3505559e-18)
(104.29526 32.129952 0)
(101.92142 31.399765 2.6790411e-18)
(99.631401 30.696473 -2.8670027e-18)
(97.415654 30.01831 -2.9731052e-21)
(95.265968 29.360746 3.1734933e-21)
(93.172435 28.721344 3.4713843e-18)
(91.12509 28.096806 -2.9624952e-24)
(89.11408 27.48376 -3.974155e-18)
(87.126419 26.878267 0)
(85.1489 26.27608 1.6195233e-24)
(83.168621 25.672998 4.8745595e-18)
(81.170328 25.064202 -2.547166e-21)
(79.137004 24.444328 -1.1248356e-17)
(77.048506 23.80705 1.4709651e-21)
(74.879486 23.144442 1.3102735e-17)
(72.598365 22.446668 8.9803547e-24)
(70.165475 21.701393 -7.7407294e-18)
(67.529756 20.892751 -8.467424e-18)
(64.624354 19.999963 9.311253e-18)
(61.359233 18.995061 -1.028985e-17)
(57.607654 17.838726 2.2829414e-17)
(53.190735 16.475369 -1.2709882e-17)
(47.877254 14.833213 -1.4165537e-17)
(41.433613 12.839765 3.1434986e-17)
(33.851242 10.492285 -5.234303e-22)
(25.651714 7.9523922 -3.710533e-17)
(17.604547 5.4587083 1.9648565e-17)
(10.124358 3.1399245 2.061448e-17)
(3.2680803 1.0138831 -1.9024387e-17)
(118.97466 39.99186 0)
(120.48043 41.305407 1.375366e-18)
(122.12491 42.420723 0)
(123.7334 43.632377 -6.5535721e-21)
(125.54044 44.82893 7.2579824e-21)
(127.24989 45.993188 0)
(129.10077 47.136723 0)
(130.98357 48.262649 1.2373008e-18)
(132.86299 49.327977 -1.3591915e-18)
(134.85327 50.372708 -1.4918648e-18)
(136.78726 51.3339 0)
(138.80973 52.256155 9.1017408e-19)
(140.79738 53.09709 1.9471975e-18)
(142.78857 53.864277 0)
(144.80245 54.582238 5.8691712e-19)
(146.7487 55.215411 6.4130039e-19)
(148.67452 55.782188 0)
(150.58089 56.285746 7.6428332e-19)
(152.40355 56.703823 0)
(154.20378 57.067657 -4.5468903e-19)
(155.95133 57.374128 4.6471779e-19)
(157.60415 57.613354 3.3813844e-20)
(159.20151 57.804772 -2.5733362e-19)
(160.73496 57.954393 -3.6030516e-19)
(162.17207 58.064584 3.4838661e-19)
(163.51739 58.129109 3.7918378e-19)
(164.80441 58.158601 4.1278514e-19)
(166.02768 58.171142 5.601819e-20)
(167.14793 58.155915 -2.4425227e-19)
(168.16967 58.111651 -6.640824e-20)
(169.13414 58.059216 2.8829287e-19)
(170.03597 57.994724 1.2851071e-22)
(170.86554 57.920268 0)
(171.62858 57.838567 1.6431356e-22)
(172.33919 57.755779 -2.0120299e-19)
(172.99168 57.670344 0)
(173.58881 57.582069 -2.3721146e-19)
(174.13402 57.492398 1.28996e-19)
(174.63003 57.407117 0)
(175.07976 57.323629 0)
(175.4924 57.246294 0)
(175.87067 57.173122 -2.6880443e-19)
(176.21661 57.10741 2.9214983e-19)
(176.5303 57.045813 1.0573535e-19)
(176.80705 56.986431 -2.8678773e-19)
(177.0366 56.922908 -6.2086003e-20)
(177.22417 56.855278 2.704766e-19)
(177.41012 56.800446 2.9352038e-19)
(177.6019 56.757321 -2.7895453e-19)
(177.755 56.713359 0)
(177.87208 56.662416 3.7540823e-19)
(177.98906 56.620347 -4.0762067e-19)
(178.09157 56.584625 2.7657611e-20)
(178.17478 56.549178 4.800238e-19)
(178.25073 56.511423 -4.8851559e-19)
(178.30879 56.476364 -3.1498911e-23)
(178.35488 56.468156 6.3249189e-19)
(178.34359 56.431244 -1.3320705e-18)
(177.81845 56.213833 7.2380952e-19)
(174.16429 55.006489 -7.6625473e-19)
(166.06335 52.244764 1.7286472e-18)
(158.71127 49.778399 -1.8888211e-18)
(152.44994 47.708501 1.0289411e-18)
(146.83931 45.85908 1.7091345e-20)
(141.74229 44.187385 -1.8423069e-20)
(137.07239 42.663855 1.2689589e-18)
(132.76791 41.26639 -1.3650283e-18)
(128.77903 39.977274 -1.4784378e-18)
(125.06327 38.781432 -1.2275194e-20)
(121.58481 37.666444 3.3803659e-18)
(118.31413 36.622307 7.0455799e-21)
(115.22716 35.640869 -1.941288e-18)
(112.3039 34.71553 -8.1135553e-21)
(109.52791 33.840529 -3.989333e-24)
(106.88485 33.010792 -4.6450742e-21)
(104.3613 32.221573 0)
(101.94466 31.46845 -5.2970549e-21)
(99.622788 30.747117 2.8969585e-18)
(97.384028 30.052524 -5.7244089e-24)
(95.215088 29.381842 -3.2847886e-18)
(93.103671 28.729971 0)
(91.037589 28.092973 3.7317135e-18)
(89.004588 27.467087 -4.0022436e-18)
(86.99477 26.848609 0)
(84.997819 26.234665 4.5608732e-18)
(83.000933 25.620993 -4.878712e-18)
(80.989076 25.002824 1.2785615e-21)
(78.945658 24.374955 -5.6272898e-18)
(76.851223 23.731401 1.2144382e-17)
(74.679835 23.064009 -6.5711589e-18)
(72.399367 22.36281 8.7009808e-22)
(69.969578 21.615325 -7.7705784e-18)
(67.338478 20.805434 8.501684e-18)
(64.437603 19.911914 0)
(61.174483 18.906105 0)
(57.420433 17.748187 0)
(52.997748 16.383163 0)
(47.677528 14.740201 0)
(41.229927 12.748184 0)
(33.652621 10.406354 0)
(25.473544 7.8779279 1.8623981e-17)
(17.462855 5.4010884 -1.9723935e-17)
(10.031724 3.103053 0)
(3.2339604 1.0005924 -2.9151006e-22)
(120.38835 41.405763 -2.7328114e-18)
(122.03051 42.535674 0)
(123.63327 43.75714 0)
(125.43534 44.966323 1.8391521e-18)
(127.14037 46.142922 7.9681483e-21)
(128.98768 47.302201 -1.1212824e-18)
(130.86656 48.443659 -2.4670802e-18)
(132.74373 49.527739 -1.0567636e-20)
(134.73451 50.590603 1.5002837e-18)
(136.66823 51.573068 0)
(138.69487 52.513823 0)
(140.68769 53.375219 -9.9565744e-19)
(142.68356 54.163632 3.3529404e-20)
(144.70324 54.900614 -8.6892917e-23)
(146.66131 55.550584 -9.3994506e-23)
(148.59824 56.137404 -2.1940594e-20)
(150.51582 56.661147 -7.6484949e-19)
(152.35141 57.097737 -2.6019731e-20)
(154.16265 57.480494 2.8504511e-20)
(155.92278 57.803836 -5.2705145e-19)
(157.59284 58.05972 3.3863957e-20)
(159.20894 58.261766 8.8361266e-19)
(160.75865 58.426524 -3.6065997e-19)
(162.2102 58.548262 -3.0552519e-19)
(163.57323 58.623846 -2.0750467e-22)
(164.87851 58.662348 -4.134508e-19)
(166.1158 58.682332 -1.6870021e-19)
(167.25263 58.67314 -6.1232977e-20)
(168.28919 58.636844 6.6408175e-20)
(169.26615 58.586311 -3.6165949e-19)
(170.18236 58.527071 7.8733161e-20)
(171.02481 58.458753 7.3594249e-23)
(171.79544 58.377485 -1.1745984e-23)
(172.51229 58.294893 -1.7896016e-22)
(173.1716 58.20792 -2.1919539e-19)
(173.78071 58.121441 1.1910238e-19)
(174.34056 58.034791 -1.2922107e-19)
(174.84462 57.946491 1.4054003e-19)
(175.29836 57.857732 -1.5245067e-19)
(175.71253 57.771463 3.3131496e-19)
(176.0893 57.689672 -1.7988452e-19)
(176.42951 57.609043 0)
(176.72868 57.530091 -2.1201271e-19)
(176.99878 57.455321 5.1809546e-19)
(177.2589 57.392578 -1.8755302e-19)
(177.50305 57.33919 -3.3920185e-19)
(177.70103 57.278369 7.3771336e-20)
(177.84741 57.212506 5.9965771e-19)
(177.98547 57.150735 -3.9061674e-19)
(178.12138 57.100964 4.2383956e-19)
(178.23123 57.048095 -1.395329e-22)
(178.32975 56.994145 -4.4402364e-19)
(178.41936 56.941188 -3.0098999e-20)
(178.49331 56.892191 0)
(178.56622 56.843897 -3.5482806e-20)
(178.63082 56.760868 -1.9253864e-20)
(178.59301 56.691729 0)
(178.1042 56.511813 0)
(175.21693 55.49969 -2.6801681e-23)
(167.35361 52.816857 -2.7088407e-20)
(159.74681 50.244817 -9.2621015e-19)
(153.3804 48.134908 7.0891848e-23)
(147.71107 46.257856 1.0984009e-18)
(142.56707 44.560912 0)
(137.84855 43.010932 1.9920667e-20)
(133.4898 41.585395 1.070901e-20)
(129.44291 40.267662 -1.1509992e-20)
(125.66991 39.044486 1.5831462e-18)
(122.13886 37.904622 -1.7053778e-18)
(118.82205 36.838279 -7.1183932e-21)
(115.69496 35.836822 -1.9513233e-18)
(112.73575 34.892611 2.0889933e-18)
(109.92541 33.999086 2.2307096e-18)
(107.24721 33.150514 -4.6852737e-21)
(104.68614 32.341799 -2.5539325e-18)
(102.22885 31.568414 5.3303753e-21)
(99.863155 30.826246 -5.6841745e-21)
(97.577814 30.111516 0)
(95.362413 29.420662 3.2403254e-21)
(93.206688 28.750201 3.5348707e-18)
(91.100365 28.096618 -3.7761261e-18)
(89.032887 27.456332 0)
(86.992672 26.825787 -2.0891853e-21)
(84.967486 26.200551 0)
(82.942721 25.57619 -2.3945713e-21)
(80.901931 24.947492 -5.2555683e-18)
(78.82719 24.308798 2.9246397e-24)
(76.697628 23.653471 1.2192455e-17)
(74.488883 22.973992 -6.5937655e-18)
(72.170394 22.260921 -7.1222771e-18)
(69.703557 21.502078 9.4721642e-22)
(67.038246 20.682009 8.4909489e-18)
(64.108448 19.780259 -9.336336e-18)
(60.824499 18.769084 2.0631034e-17)
(57.059123 17.609096 -1.1464323e-17)
(52.635053 16.245507 0)
(47.322874 14.607409 -1.4266458e-17)
(40.893288 12.623946 -3.1661429e-25)
(33.345501 10.294834 3.4729682e-17)
(25.210702 7.7840446 -3.7390253e-17)
(17.260372 5.3297866 1.9798615e-17)
(9.9026513 3.0581315 2.0771852e-17)
(3.187594 0.98464688 -1.9167168e-17)
(120.29838 41.50805 1.3575824e-18)
(121.94007 42.646997 1.1769576e-20)
(123.53619 43.87915 -1.2970004e-20)
(125.33396 45.102889 -1.8157206e-18)
(127.03488 46.295074 -7.9342295e-21)
(128.87755 47.471009 1.1082676e-18)
(130.75318 48.628242 1.2295316e-18)
(132.62825 49.730024 2.1123908e-20)
(134.61561 50.809897 -1.1628758e-20)
(136.55025 51.810223 8.0241649e-19)
(138.57631 52.771997 9.0779865e-19)
(140.57212 53.653797 -1.5263866e-20)
(142.57521 54.461559 3.3504714e-20)
(144.60371 55.219248 -3.6654578e-20)
(146.56731 55.89214 4.0074792e-20)
(148.5144 56.500122 -7.2257581e-19)
(150.44332 57.04349 0)
(152.288 57.501298 4.1752432e-19)
(154.11303 57.90105 0)
(155.89043 58.24329 9.9348133e-19)
(157.57552 58.517358 -3.3772774e-20)
(159.20561 58.737645 -8.1836167e-23)