/*--------------------------------*- C++ -*----------------------------------*\
| =========                 |                                                 |
| \\      /  F ield         | OpenFOAM: The Open Source CFD Toolbox           |
|  \\    /   O peration     | Version:  2506                                  |
|   \\  /    A nd           | Website:  www.openfoam.com                      |
|    \\/     M anipulation  |                                                 |
\*---------------------------------------------------------------------------*/
FoamFile
{
    version     2.0;
    format      ascii;
    arch        "LSB;label=32;scalar=64";
    class       volScalarField;
    location    "2.9";
    object      k;
}
// * * * * * * * * * * * * * * * * * * * * * * * * * * * * * * * * * * * * * //

dimensions      [0 2 -2 0 0 0 0];

internalField   nonuniform List<scalar> 
1375
(
2.7165339
3.0666777
3.3472019
2.3517919
2.6925448
3.0415053
3.3206489
3.5383721
3.6991006
3.8074463
3.8716225
3.9022251
2.3311224
2.6729006
3.0209807
3.2983493
3.5134169
3.6710564
3.7764483
3.8382221
3.8672332
3.8754882
3.8731215
3.8606483
3.8484988
3.8391189
3.8335625
2.3129785
2.6569625
3.0046019
3.2801186
3.4920888
3.6460144
3.7478048
3.8066146
3.8336455
3.8410473
3.8379875
3.8259343
3.8145498
3.806075
3.8013263
3.7996756
3.7995703
3.8019136
3.8067248
2.2964463
2.6429906
2.9905414
3.2643688
3.4732215
3.6232449
3.7211254
3.7766297
3.8014025
3.8077882
3.8037334
3.792041
3.7813635
3.7737324
3.7697154
3.7684861
3.7686442
3.7715498
3.776643
3.7830475
3.7904761
3.7987633
3.8078099
2.2805704
2.6291962
2.9767399
3.2490805
3.4550666
3.6013886
3.6954529
3.7476557
3.7701274
3.7754352
3.7702436
3.7588615
3.748841
3.7419991
3.7386374
3.7377283
3.7382477
3.741656
3.7469844
3.7535377
3.7610734
3.7694399
3.7785433
3.7883378
3.7988143
3.8099946
3.8219185
2.2647491
2.6143924
2.961653
3.2325905
3.4360337
3.5790696
3.6697094
3.7189246
3.7392948
3.7435961
3.7373529
3.7262711
3.7168856
3.7107883
3.7080086
3.7073584
3.7083378
3.7121911
3.7177305
3.7244197
3.732048
3.740479
3.7496298
3.7594555
3.7699487
3.7811316
3.7930492
3.8057646
3.8193521
3.8339007
2.2487471
2.5981195
2.9445058
3.2139455
3.4151176
3.555338
3.6430865
3.6898108
3.7084469
3.7119249
3.7049018
3.6941653
3.685423
3.6800325
3.677773
3.6773541
3.6788739
3.6831212
3.6888608
3.6956824
3.7034002
3.7118896
3.7210742
3.7309187
3.7414196
3.7526009
3.7645059
3.777198
3.7907554
3.8052673
3.8208395
3.8375894
3.8556599
2.2325868
2.5806757
2.9254939
3.1931769
3.3921924
3.5299601
3.6153089
3.6600496
3.6773612
3.6802454
3.6727952
3.6624905
3.6544167
3.6496992
3.6479166
3.6477193
3.6498304
3.6544265
3.6603606
3.6673121
3.6751147
3.6836587
3.6928767
3.7027368
3.7132356
3.7243979
3.7362765
3.7489375
3.7624572
3.7769241
3.7924402
3.8091263
3.8271252
3.8466071
3.8677814
2.2163204
2.5627476
2.9055439
3.1711927
3.3679932
3.5034533
3.5866958
3.6298104
3.6461181
3.6486038
3.6410385
3.6312582
3.6238748
3.6198002
3.6184493
3.6184773
3.6211961
3.6260987
3.6322199
3.6392983
3.6471815
3.6557719
3.6650131
3.6748795
3.6853743
3.6965218
3.7083717
3.720989
3.7344573
3.7488666
3.7643176
3.7809297
3.7988429
3.8182247
3.8392813
3.8622615
3.8874554
3.91521
2.2000014
2.5451093
2.8859015
3.1493787
3.3437927
3.4768472
3.5580006
3.5995976
3.6150409
3.6172282
3.6097276
3.6005329
3.5938445
3.5903727
3.5893535
3.5897036
3.5929702
3.5981373
3.6044313
3.6116276
3.619585
3.6282162
3.6374735
3.6473389
3.6578201
3.6689448
3.6807627
3.6933377
3.7067495
3.7210898
3.7364634
3.7529903
3.7708086
3.7900805
3.8110086
3.8338368
3.8588547
3.8864062
3.9169129
3.9509094
2.183757
2.5284109
2.8676547
3.1290222
3.3208541
3.4512301
3.530067
3.5700095
3.5845318
3.5864115
3.5789967
3.5703983
3.5643772
3.5614422
3.5606772
3.5614307
3.5651581
3.5705467
3.5769909
3.5842887
3.5923085
3.600972
3.610239
3.6200973
3.6305581
3.6416521
3.6534293
3.6659552
3.6793082
3.6935796
3.7088728
3.7253056
3.7430151
3.7621668
3.7829573
3.8056236
3.8304521
3.8577849
3.8880386
3.9217375
3.9595569
4.0023833
2.1677998
2.5130005
2.8513635
3.1108392
3.2999475
3.4273234
3.5034935
3.5414915
3.5548953
3.556375
3.5489475
3.540908
3.5354982
3.5330241
3.5324648
3.5336649
3.5377622
3.543329
3.5498939
3.5572713
3.5653379
3.5740226
3.5832917
3.5931374
3.6035729
3.6146312
3.6263629
3.6388342
3.6521227
3.6663192
3.6815272
3.6978627
3.7154613
3.7344846
3.7551269
3.7776223
3.8022509
3.8293509
3.8593341
3.8927176
3.9301642
3.9725417
4.0209229
2.1524213
2.4989068
2.8369607
3.0947986
3.2811341
3.405266
3.478447
3.5141917
3.5262406
3.5271994
3.519613
3.5120637
3.507193
3.5051101
3.5047295
3.5063918
3.5107811
3.5164883
3.5231435
3.5305739
3.5386653
3.5473539
3.5566126
3.5664387
3.5768471
3.5878692
3.5995536
3.6119664
3.6251864
3.6393029
3.6544202
3.6706531
3.6881357
3.7070257
3.7275145
3.7498318
3.7742519
3.8011076
3.8308048
3.8638549
3.9009133
3.9428262
3.9906362
4.0454778
4.1083528
2.1380176
2.4861102
2.8240847
3.0804108
3.2639597
3.3847144
3.4547027
3.4879655
3.4984522
3.4988346
3.4909578
3.4838256
3.4794246
3.4776789
3.4774639
3.4795853
3.4842028
3.4900178
3.4967362
3.5041962
3.5122934
3.5209716
3.5302079
3.5400022
3.5503718
3.5613495
3.5729841
3.5853372
3.5984875
3.612523
3.6275457
3.6436706
3.6610322
3.6797852
3.7001166
3.7222501
3.7464557
3.7730592
3.8024597
3.8351615
3.871814
3.9132454
3.960464
4.0145442
4.0763972
4.1474987
2.1250527
2.4748431
2.8125364
3.0672238
3.2478923
3.3651691
3.4318413
3.4624948
3.4714178
3.4710442
3.462887
3.4561154
3.45213
3.4506929
3.4506324
3.4532067
3.4580059
3.4639066
3.4706683
3.4781393
3.4862241
3.4948738
3.504073
3.513828
3.5241523
3.5350823
3.5466618
3.5589462
3.5720186
3.5859676
3.6008929
3.6169086
3.6341459
3.6527577
3.6729275
3.6948737
3.7188601
3.7452056
3.7743028
3.8066465
3.8428784
3.8838087
3.930413
3.9837074
4.0445221
4.1143
4.2014818
2.1136543
2.4652502
2.8022005
3.0549174
3.2325029
3.3461797
3.4094468
3.4374581
3.4449935
3.443574
3.4352772
3.4288443
3.425251
3.4240782
3.4242093
3.4272134
3.4321589
3.4381289
3.4449194
3.4523892
3.4604521
3.4690678
3.4782232
3.4879245
3.4981939
3.5090635
3.5205789
3.5327968
3.545792
3.5596458
3.5744618
3.5903572
3.6074651
3.6259333
3.6459396
3.6676954
3.6914592
3.7175437
3.7463321
3.7783122
3.814111
3.8545258
3.9004979
3.9529795
4.0127335
4.0811923
4.1670508
4.3300597
5.249258
2.103406
2.4569787
2.7927336
3.0430969
3.2173653
3.327334
3.3871743
3.4126269
3.4189366
3.4163169
3.4080362
3.4019488
3.3987326
3.3977748
3.3981722
3.401565
3.4066346
3.4126653
3.4194769
3.4269382
3.4349711
3.4435415
3.4526447
3.4622908
3.4725026
3.4833085
3.4947515
3.5068898
3.5197911
3.5335436
3.5482486
3.564022
3.5809903
3.5993031
3.619139
3.6407013
3.6642427
3.6900633
3.7185397
3.7501526
3.7855132
3.8254033
3.8707263
3.9223724
3.9810445
4.0481842
4.1327592
4.2960411
5.2351502
2.0937801
2.4495362
2.7837803
3.0314252
3.2021436
3.308323
3.3647872
3.3878405
3.3930517
3.3892585
3.3811227
3.3754014
3.3725451
3.3717686
3.3725055
3.3762365
3.3814133
3.3874967
3.3943244
3.4017737
3.4097754
3.4183002
3.427347
3.43693
3.4470726
3.4578052
3.4691688
3.4812211
3.4940285
3.5076766
3.5222641
3.5379017
3.5547205
3.5728746
3.5925315
3.6138885
3.6371962
3.6627483
3.6909143
3.7221583
3.7570818
3.796442
3.8411
3.8918911
3.9494648
4.0152832
4.0986037
4.2622782
5.2218372
2.0843016
2.4423717
2.7749916
3.0196541
3.1866369
3.2889852
3.342177
3.3630158
3.367238
3.3624272
3.3545323
3.3491983
3.3466813
3.3460664
3.3471944
3.3512062
3.3564764
3.362607
3.3694487
3.376887
3.384857
3.3933353
3.402323
3.411837
3.4219049
3.4325586
3.4438377
3.4557971
3.468504
3.4820413
3.4965033
3.512001
3.5286684
3.546648
3.5661091
3.5872554
3.6103221
3.6355954
3.6634406
3.6943163
3.7288056
3.7676335
3.8116196
3.8615407
3.9179997
3.9824903
4.0645673
4.2287193
5.209002
2.0744399
2.4346972
2.7657936
3.0074123
3.1706214
3.2692067
3.3193023
3.3381306
3.3414769
3.3358673
3.3282793
3.3233445
3.3211449
3.3206828
3.3222303
3.3264689
3.3318206
3.3379915
3.3448394
3.3522595
3.360197
3.3686298
3.3775637
3.3870132
3.3970021
3.4075676
3.4187548
3.4306178
3.4432196
3.4566396
3.4709702
3.4863213
3.5028236
3.5206204
3.5398828
3.5608028
3.5836139
3.6086028
3.6361241
3.6666233
3.7006688
3.7389602
3.7822727
3.8313199
3.8866557
3.9498056
4.0306353
4.1953216
5.1970249
2.0636871
2.4255782
2.7554035
2.9941632
3.1537893
3.2488546
3.2961355
3.3131971
3.3158009
3.3096326
3.3023947
3.2978584
3.295955
3.2956422
3.2976112
3.3020234
3.3074401
3.3136427
3.3204948
3.327897
3.3357976
3.3441803
3.3530519
3.3624308
3.3723445
3.3828272
3.393922
3.4056826
3.4181745
3.4314742
3.44567
3.4608689
3.477199
3.4948037
3.5138498
3.5345289
3.5570751
3.5817703
3.6089599
3.6390751
3.6726729
3.7104187
3.7530483
3.8012161
3.8554224
3.9172259
3.9968121
4.1621016
5.1864861
2.0517543
2.4142942
2.7431601
2.9794534
3.1359
3.2278469
3.2726809
3.2882518
3.2902614
3.2837652
3.276904
3.2727543
3.2711285
3.270964
3.2733379
3.2778801
3.2833465
3.2895665
3.2964083
3.3037829
3.3116461
3.3199819
3.3287942
3.3381033
3.3479324
3.358323
3.369322
3.3809787
3.3933585
3.4065361
3.4205959
3.4356403
3.4517924
3.469194
3.4880141
3.5084432
3.5307142
3.5550987
3.58194
3.6116622
3.6448037
3.6820015
3.7239465
3.7712272
3.8242921
3.884748
3.9631068
4.1291278
5.1774633
2.0384937
2.4004177
2.7286312
2.9630058
3.1168379
3.2061774
3.2489797
3.2633469
3.2649106
3.2582859
3.2518138
3.2480336
3.246675
3.246648
3.249402
3.2540368
3.2595382
3.2657667
3.2725957
3.2799398
3.2877547
3.2960287
3.3047708
3.3140002
3.3237484
3.3340548
3.3449559
3.3565031
3.3687635
3.3818094
3.3957262
3.4106132
3.4265861
3.4437859
3.4623745
3.4825422
3.5045221
3.5285842
3.5550677
3.5843868
3.61706
3.6537011
3.6949575
3.7413458
3.7932668
3.8523812
3.9295422
4.096467
5.1695629
2.0238256
2.3837754
2.7115952
2.9446973
3.0965866
3.1838943
3.2250976
3.2385409
3.2397936
3.2331982
3.2271185
3.2236942
3.2225611
3.2227065
3.2257945
3.2304933
3.2360158
3.242239
3.2490401
3.2563407
3.264103
3.2723174
3.2809919
3.2901449
3.2998055
3.3100089
3.3208004
3.3322368
3.3443787
3.3572915
3.37106
3.3857802
3.4015656
3.4185545
3.4369053
3.4568107
3.4784963
3.5022327
3.5283476
3.55725
3.5894454
3.6255197
3.6660696
3.7115595
3.7623397
3.8201296
3.8961514
4.0641573
5.1625443
2.0079693
2.3647645
2.6922707
2.9246782
3.0752768
3.1611085
3.2011171
3.2138882
3.2149441
3.2084948
3.2028048
3.1997169
3.1987642
3.1991343
3.2025027
3.207246
3.2127793
3.2189876
3.2257525
3.2330009
3.2407003
3.2488447
3.2574405
3.2665075
3.2760744
3.2861769
3.2968616
3.3081794
3.320189
3.3329583
3.3465675
3.3611179
3.3767184
3.3934988
3.4116104
3.4312459
3.4526298
3.4760302
3.5017721
3.5302551
3.5619662
3.5974576
3.6372869
3.6818602
3.7314907
3.7879842
3.862945
4.0322625
5.1572302
1.9913853
2.3443602
2.6714141
2.9034589
3.0532334
3.1380125
3.1771428
3.1894406
3.1903872
3.1841639
3.1788541
3.1760765
3.1752726
3.1759168
3.1795163
3.1842937
3.1898319
3.1960173
3.2027364
3.2099229
3.2175479
3.2256084
3.2341168
3.2430947
3.2525665
3.2625632
3.2731264
3.284311
3.29618
3.3088024
3.322255
3.3366302
3.3520354
3.368601
3.3864732
3.4058426
3.4269254
3.4499841
3.4753407
3.5033919
3.5346088
3.5695187
3.6086176
3.6522607
3.7007456
3.7559671
3.8299313
4.0008792
5.1544925
1.9745012
2.3235899
2.6499423
2.8816964
3.030873
3.1148448
3.1532949
3.1652499
3.1661445
3.1601945
3.1552505
3.1527555
3.1520817
3.153036
3.1568191
3.1616226
3.1671597
3.1733174
3.179986
3.1871056
3.1946551
3.2026316
3.211044
3.2199118
3.2292659
3.2391444
3.2495886
3.2606434
3.2723686
3.284833
3.2981133
3.3123029
3.3275118
3.343859
3.3614917
3.3805926
3.4013704
3.4240864
3.4490568
3.4766699
3.5073803
3.541691
3.5800516
3.6227639
3.6701049
3.7240816
3.7971214
3.9700595
5.1537073
1.9579877
2.3037882
2.6290426
2.8602354
3.0087187
3.0918844
3.1297084
3.1413711
3.1422375
3.1365761
3.1319785
3.1297401
3.1291879
3.1304734
3.1343995
3.1392233
3.1447527
3.1508755
3.1574881
3.1645336
3.1719948
3.1798772
3.1881916
3.1969585
3.2062031
3.2159563
3.2262614
3.2371675
3.2487379
3.2610368
3.2741498
3.2881609
3.3031645
3.319283
3.3366699
3.3554956
3.3759678
3.3983428
3.422926
3.4500928
3.4802934
3.5139973
3.5516062
3.5933724
3.6395674
3.6923224
3.7645323
3.9397492
5.1521928
3.0694412
3.1065271
3.1178615
3.1186906
3.1133051
3.1090327
3.1070289
3.1065936
3.1082151
3.1122471
3.1170835
3.1225976
3.128678
3.1352302
3.1422032
3.1495786
3.1573596
3.1655608
3.1742085
3.1833305
3.192957
3.2031305
3.2139002
3.2253166
3.2374532
3.2503835
3.2641937
3.2789917
3.2948907
3.3120342
3.3305767
3.3507364
3.3727582
3.3969442
3.42367
3.4533554
3.4864391
3.5232855
3.5640972
3.609148
3.6606919
3.7321447
3.9098728
5.1400908
3.0864024
3.0846183
3.084301
3.0862552
3.0903646
3.0952095
3.1007038
3.1067353
3.1132177
3.120106
3.1273836
3.1350609
3.143157
3.1516923
3.1606881
3.1701792
3.1802056
3.1908249
3.2020884
3.2140588
3.2268106
3.2404318
3.2550204
3.2706871
3.287574
3.3058427
3.3256902
3.347357
3.3711429
3.3974086
3.4265595
3.4590097
3.4950871
3.5349407
3.5788413
3.6291931
3.6999361
3.880645
5.1524766
3.0735747
3.0790416
3.0850186
3.0914296
3.0982389
3.1054315
3.1130074
3.120986
3.1293874
3.138249
3.1476069
3.1575001
3.1679727
3.179078
3.1908764
3.2034407
3.2168613
3.2312364
3.246674
3.2633059
3.2812983
3.300826
3.3221363
3.3455182
3.3713249
3.399935
3.4317329
3.4670107
3.505886
3.5486434
3.59783
3.6679215
3.852127
5.1822172
3.0836755
3.0911462
3.0990137
3.107301
3.1160362
3.1252604
3.135008
3.1453229
3.1562607
3.1678912
3.1802828
3.1935084
3.2076642
3.2228611
3.2392258
3.2569223
3.2761345
3.2970933
3.3200726
3.345409
3.3734706
3.4046106
3.4390749
3.4769514
3.5185515
3.5665868
3.636109
3.8240873
5.1879394
3.1030974
3.112696
3.122865
3.1336502
3.1451105
3.1573088
3.1703302
3.1842697
3.199233
3.2153427
3.2327479
3.2516351
3.2722219
3.2947835
3.3196435
3.3471484
3.3776233
3.4112753
3.448154
3.4885929
3.5355025
3.6045423
3.7963422
5.1832483
3.1224913
3.1345011
3.1473303
3.1610563
3.1757804
3.1916264
3.2087361
3.2272935
3.247521
3.269672
3.2940515
3.3209976
3.3507912
3.3836011
3.4194639
3.4587596
3.5045922
3.5732904
3.7690738
5.163555
3.1524673
3.1680436
3.184873
3.2031161
3.2229801
3.2447173
3.2686204
3.2949912
3.324082
3.3560505
3.3908927
3.4290517
3.4738464
3.5423072
3.7431548
5.1923723
3.1790625
3.1985512
3.219879
3.2433095
3.2691165
3.2975374
3.3286528
3.36247
3.3995069
3.4432896
3.5116139
3.7189985
5.2740494
3.2181294
3.2433711
3.2711082
3.3013784
3.3341823
3.370097
3.4129062
3.4812914
3.6958197
5.3004152
3.2741936
3.3059815
3.3408177
3.3827442
3.4513826
3.6729434
5.2885795
3.3116633
3.3527871
3.4218406
3.6508461
5.288473
3.6307359
5.3695159
)
;

boundaryField
{
    Side
    {
        type            empty;
    }
    Inlet
    {
        type            turbulentIntensityKineticEnergyInlet;
        intensity       0.03;
        value           nonuniform List<scalar> 
25
(
12.000979
12.001026
12.001149
12.001338
12.001505
12.001672
12.001849
12.002023
12.002184
12.002289
12.002383
12.002563
12.002836
12.003138
12.003429
12.003782
12.004275
12.004882
12.005531
12.006103
12.006604
12.007061
12.007595
12.008279
12.008934
)
;
    }
    Airfoil
    {
        type            kqRWallFunction;
        value           nonuniform List<scalar> 0();
    }
    Outlet
    {
        type            inletOutlet;
        inletValue      nonuniform List<scalar> 0();
        value           nonuniform List<scalar> 0();
    }
    procBoundary5to4
    {
        type            processor;
        value           nonuniform List<scalar> 
64
(
2.7438643
3.095144
3.3764542
3.5668126
3.5668126
3.7297842
3.8403674
3.9064314
3.9383325
3.9111503
3.9111503
3.9091777
3.8962479
3.8832925
3.8729459
3.8664822
3.8313742
3.8313742
3.8310424
3.8327899
3.8372486
3.8129542
3.8129542
3.8202561
3.8284499
3.8374267
3.8175664
3.8175664
3.8280199
3.8391849
3.8511006
3.8346441
3.8346441
3.8482461
3.8628148
3.8495128
3.8495128
3.8663101
3.8844409
3.8752279
3.8752279
3.8965068
3.8908982
3.8908982
3.9162534
3.9441955
3.9459549
3.9459549
3.9802326
3.9890861
3.9890861
4.0323441
4.0513184
4.0513184
4.0765072
4.0765072
4.1403929
4.1807819
4.1807819
4.2360432
4.2360432
4.3643421
4.3643421
5.2644472
)
;
    }
    procBoundary5to6
    {
        type            processor;
        value           nonuniform List<scalar> 
61
(
1.9427688
2.2864709
2.6100261
2.8399843
2.9873117
2.9873117
3.0477305
3.0838456
3.0947514
3.0955105
3.090369
3.090369
3.0640802
3.0625042
3.0623043
3.0645731
3.0687306
3.0687306
3.0521758
3.0576074
3.0635255
3.0698604
3.0765809
3.0765809
3.0621319
3.0695055
3.0772591
3.0854245
3.0940273
3.0940273
3.0811513
3.0906032
3.100606
3.1112191
3.1112191
3.1000642
3.1118842
3.1244976
3.137993
3.137993
3.1293312
3.1446333
3.1611572
3.1611572
3.1551575
3.1742748
3.1951858
3.1951858
3.1930662
3.2177472
3.2447808
3.2447808
3.247113
3.2778893
3.2778893
3.282656
3.3229956
3.3925201
3.3925201
3.612859
5.4856655
)
;
    }
    procBoundary5to12
    {
        type            processor;
        value           nonuniform List<scalar> 
30
(
2.3649545
2.3429241
2.3215819
2.3014034
2.2827417
2.2656648
2.2499122
2.2349877
2.2203863
2.2056906
2.1906174
2.175157
2.1595361
2.1439613
2.1283498
2.1124512
2.0960742
2.0792089
2.0622461
2.0461796
2.0323566
2.0215912
2.0136272
2.0074976
2.0018561
1.9956128
1.9881277
1.9788355
2.3752441
2.3752441
)
;
    }
}


// ************************************************************************* //
