/*--------------------------------*- C++ -*----------------------------------*\
| =========                 |                                                 |
| \\      /  F ield         | OpenFOAM: The Open Source CFD Toolbox           |
|  \\    /   O peration     | Version:  2506                                  |
|   \\  /    A nd           | Website:  www.openfoam.com                      |
|    \\/     M anipulation  |                                                 |
\*---------------------------------------------------------------------------*/
FoamFile
{
    version     2.0;
    format      ascii;
    arch        "LSB;label=32;scalar=64";
    class       volVectorField;
    location    "0.15";
    object      U;
}
// * * * * * * * * * * * * * * * * * * * * * * * * * * * * * * * * * * * * * //

dimensions      [0 1 -1 0 0 0 0];

internalField   nonuniform List<vector> 
19257
(
(93.848399 1.9076319 -3.4968395e-17)
(93.830446 0.14077648 1.388848e-20)
(93.856523 0.22941394 6.3113487e-17)
(93.91568 0.18973622 -9.1733182e-18)
(93.921194 0.15945926 4.7991319e-17)
(93.944833 0.14865876 4.588971e-23)
(93.981105 0.13630072 -5.0407414e-17)
(94.010102 0.12044461 8.3647744e-18)
(94.027942 0.10525839 3.8854841e-17)
(94.041041 0.094603706 -1.1276427e-17)
(94.055507 0.09141901 5.8884521e-17)
(94.073946 0.097189026 5.3125387e-17)
(94.096389 0.1120875 7.0396579e-17)
(94.122139 0.13558352 0)
(94.150273 0.16683122 0)
(94.179985 0.20509478 5.4705699e-17)
(94.210766 0.24997798 5.5389481e-17)
(94.242415 0.30154815 -2.7451012e-17)
(94.274945 0.36035314 4.2302657e-17)
(94.30846 0.42737536 0)
(94.343058 0.50396485 5.63877e-17)
(94.378777 0.59177903 -3.2515843e-17)
(94.415561 0.69274222 0)
(94.453234 0.80902833 5.3931259e-17)
(94.49149 0.94306115 3.7229363e-17)
(94.52987 1.0975329 0)
(94.567747 1.2754166 2.4562719e-17)
(94.604318 1.4800359 3.7571529e-17)
(94.638581 1.7150082 1.0761546e-17)
(94.669337 1.9845861 0)
(94.695296 2.2930539 0)
(94.714506 2.646683 8.0366362e-18)
(94.724161 3.0486935 -9.1677626e-18)
(94.723459 3.5065467 4.1827526e-17)
(94.711673 4.0310784 0)
(94.688523 4.63128 0)
(94.652959 5.319279 3.0832017e-17)
(94.604796 6.1101574 -6.9960338e-17)
(94.545575 7.0217258 -2.9716199e-17)
(94.479162 8.0775234 3.3669969e-17)
(94.417875 9.309737 -6.3375299e-17)
(94.358676 10.727672 2.8592996e-17)
(94.418124 12.518947 -1.6083628e-17)
(94.324556 14.18476 0)
(95.061087 17.554711 0)
(94.774795 17.99012 -1.1392851e-17)
(97.122402 25.756019 1.2771922e-17)
(97.896275 21.777611 -1.4453907e-17)
(100.91639 37.393465 1.5873469e-17)
(93.751382 1.6830607 7.686252e-21)
(93.98523 0.13006836 3.6842306e-17)
(93.900211 0.26028138 5.7201779e-17)
(93.911871 0.21623705 0)
(93.926122 0.17745766 7.7521776e-17)
(93.950659 0.16309072 0)
(93.985542 0.1499981 -6.5618469e-18)
(94.013097 0.13384143 1.5268919e-17)
(94.028946 0.11839187 -8.8807444e-18)
(94.03982 0.10710521 -3.0984615e-17)
(94.051945 0.10282176 -1.5120664e-22)
(94.067819 0.10733205 -1.3958927e-17)
(94.087556 0.12114744 -6.4885694e-17)
(94.110441 0.143902 -9.4223211e-18)
(94.135634 0.17482342 1.0942798e-17)
(94.1623 0.21315873 -3.811211e-17)
(94.189838 0.25845282 -1.4741936e-17)
(94.217917 0.31069596 8.5512563e-18)
(94.2464 0.3703544 -5.9495555e-17)
(94.27524 0.43833143 1.1493528e-17)
(94.304393 0.51590234 -5.3261991e-17)
(94.33376 0.60465287 0)
(94.363145 0.7064358 -8.9213631e-18)
(94.392231 0.82335048 -3.0958017e-17)
(94.420548 0.95774108 -4.7708064e-17)
(94.447456 1.1122118 0)
(94.472119 1.289642 0)
(94.493483 1.4932461 -3.6685958e-17)
(94.510253 1.7265389 0)
(94.520878 1.9936363 0)
(94.523589 2.2986995 6.3027028e-17)
(94.515993 2.6478698 -7.24436e-17)
(94.495067 3.0444647 -3.6980971e-17)
(94.458153 3.4957993 -3.187577e-17)
(94.40364 4.012445 -2.4393675e-17)
(94.329917 4.6034796 1.3989083e-17)
(94.233922 5.2811878 -2.4034085e-17)
(94.11271 6.0610153 6.4210759e-17)
(93.964256 6.9617026 -1.048799e-17)
(93.787648 8.0087326 -2.3931236e-17)
(93.586318 9.2337303 -1.457413e-20)
(93.362209 10.672926 -1.5585419e-17)
(93.158173 12.428641 -2.6594731e-17)
(92.905685 14.353029 4.0298337e-17)
(93.017289 17.357894 -1.1420496e-17)
(92.733144 19.054198 -1.292109e-17)
(94.067892 26.188349 -1.4620503e-17)
(94.534608 23.986348 1.6632373e-17)
(98.092704 40.511637 -9.1860567e-18)
(93.711892 1.6441295 -7.6461149e-17)
(94.117438 0.13462294 4.4573759e-17)
(93.946701 0.26964485 -3.8966066e-17)
(93.912162 0.23951962 4.5401935e-17)
(93.932131 0.19523647 -8.8182279e-18)
(93.958491 0.17630261 5.1361028e-17)
(93.990783 0.16329801 0)
(94.016084 0.14765714 -1.3939471e-17)
(94.029935 0.1322312 8.1181141e-18)
(94.038563 0.12035448 4.7271928e-17)
(94.048167 0.11487953 3.3028003e-17)
(94.061169 0.11789623 -2.5636003e-17)
(94.07784 0.13029281 5.9685978e-17)
(94.097521 0.15190637 -1.7367212e-17)
(94.119467 0.18210588 -4.0419666e-17)
(94.142822 0.22011561 3.5269011e-17)
(94.16688 0.26541108 -4.1024383e-17)
(94.191168 0.31789083 -6.3613743e-17)
(94.215392 0.3779234 -7.3961126e-17)
(94.239352 0.44631693 -3.2238964e-17)
(94.262868 0.52425595 7.4923076e-17)
(94.285712 0.61323824 1.4506415e-17)
(94.307566 0.71502904 -6.7387404e-17)
(94.327984 0.8316375 8.8006247e-17)
(94.346359 0.96531262 3.404506e-17)
(94.361897 1.1185552 0)
(94.373584 1.2941345 0)
(94.380162 1.4951382 0)
(94.380089 1.7249589 1.0244807e-17)
(94.371523 1.9875422 8.5040714e-23)
(94.352311 2.2869252 -6.8607605e-17)
(94.319688 2.6289917 7.9174093e-18)
(94.270452 3.0172646 2.750098e-17)
(94.200285 3.4584324 4.2419459e-17)
(94.107036 3.9627837 1.2264996e-17)
(93.987812 4.5394665 -1.4170911e-17)
(93.837814 5.2005654 -6.5478432e-17)
(93.651701 5.961453 -3.7760533e-17)
(93.424221 6.8411083 4.3574909e-17)
(93.149867 7.8655716 5.0219639e-17)
(92.825467 9.0670927 0)
(92.446103 10.491023 5.8207038e-17)
(92.02786 12.214899 9.5051485e-18)
(91.544277 14.231321 -4.3911089e-17)
(91.190579 17.081986 6.3099505e-17)
(90.613049 19.448736 -2.4110592e-20)
(91.141717 26.199359 2.4685327e-17)
(90.922917 25.81571 -9.4783739e-18)
(94.794106 42.978459 -2.1308096e-17)
(93.680776 1.5429799 3.470699e-17)
(94.209076 0.15346696 -6.0852358e-17)
(94.003284 0.26271985 0)
(93.914717 0.25398874 -6.8935467e-17)
(93.939748 0.21037711 -4.8227849e-17)
(93.969288 0.18762482 2.8114957e-17)
(93.998094 0.17521302 1.0927193e-17)
(94.019637 0.16086981 0)
(94.030957 0.14595929 5.9414609e-17)
(94.037323 0.1338353 -1.7317138e-17)
(94.044339 0.12743256 -1.0094158e-17)
(94.054353 0.12907727 -1.1767235e-17)
(94.067686 0.13995797 -6.8582263e-17)
(94.08393 0.1602519 1.598769e-17)
(94.102339 0.18946207 1.1180003e-16)
(94.122089 0.22683503 0)
(94.142385 0.27180077 0)
(94.162615 0.3241719 4.4225674e-17)
(94.182328 0.38421733 8.5877664e-17)
(94.201179 0.45264403 4.0017345e-17)
(94.21885 0.53053711 -8.1576071e-17)
(94.234997 0.61929633 -1.3573259e-17)
(94.249187 0.72058879 6.3224283e-17)
(94.26086 0.83632316 -4.6011326e-17)
(94.269288 0.9686432 -3.2139228e-17)
(94.273544 1.1199368 0)
(94.27246 1.2928529 1.4514001e-17)
(94.264606 1.4903431 1.4026606e-22)
(94.248233 1.7156649 -1.9645764e-17)
(94.221253 1.9725788 -1.1424473e-17)
(94.181198 2.2649976 5.3136775e-17)
(94.124983 2.5984575 7.7187476e-17)
(94.049186 2.9768086 -7.1775806e-17)
(93.948248 3.40606 0)
(93.819499 3.8960405 0)
(93.658859 4.4559518 0)
(93.460087 5.0974828 7.3953215e-17)
(93.21578 5.8356831 3.8248025e-17)
(92.917832 6.6893518 -5.5559353e-17)
(92.556689 7.6844041 3.9997182e-20)
(92.123324 8.8532313 0)
(91.604645 10.244556 -3.4911466e-17)
(91.000677 11.927376 4.0575145e-17)
(90.282104 13.957596 0)
(89.550746 16.686653 -5.4785352e-17)
(88.592153 19.472092 7.1834824e-17)
(88.352612 25.532412 -7.4009387e-17)
(87.288811 27.229056 -4.3223439e-17)
(90.799957 44.684697 6.1223371e-17)
(93.654879 1.496304 4.7575977e-17)
(94.273595 0.16553148 1.8521954e-17)
(94.05578 0.23151497 -2.158462e-17)
(93.922415 0.26060737 -1.259169e-17)
(93.948428 0.22176411 -1.469255e-17)
(93.981916 0.19673561 -6.8564928e-17)
(94.00684 0.18525066 0)
(94.023381 0.17301121 -4.6664147e-17)
(94.031763 0.15919579 -5.4445872e-17)
(94.035943 0.14716499 1.5881661e-17)
(94.040341 0.14009024 7.4124208e-17)
(94.047162 0.14047685 -6.4868432e-17)
(94.056923 0.14982344 1.2615214e-17)
(94.06944 0.16860923 -1.3279655e-22)
(94.08402 0.19649096 -1.545907e-16)
(94.099872 0.2328468 0)
(94.116125 0.27707404 -1.1694381e-17)
(94.132023 0.32890618 2.7293453e-17)
(94.146961 0.3885122 -1.5925447e-17)
(94.160447 0.45649137 0)
(94.172038 0.53382019 3.2533189e-17)
(94.181275 0.62179006 1.2998581e-22)
(94.187624 0.72195936 1.4772373e-17)
(94.190418 0.83612599 8.6213205e-17)
(94.188824 0.96631867 -4.0251006e-17)
(94.181794 1.1148031 2.3492062e-17)
(94.168034 1.2840986 -5.4849869e-17)
(94.14596 1.477012 -1.6006834e-17)
(94.113653 1.6966543 -8.0054732e-22)
(94.068814 1.9465916 2.1815159e-17)
(94.008717 2.2306054 -5.0933593e-17)
(93.929998 2.5538509 0)
(93.828924 2.9204537 1.3888651e-16)
(93.699244 3.3357229 0)
(93.537558 3.8089918 0)
(93.338774 4.3494368 -5.5618946e-17)
(93.095475 4.9682228 1.6279588e-17)
(92.798492 5.6798915 -5.7179955e-17)
(92.437233 6.5027618 4.4694231e-17)
(91.99863 7.4621378 -5.2365375e-17)
(91.46848 8.5898849 4.6112395e-17)
(90.825932 9.9355439 1.8031987e-17)
(90.058409 11.563643 0)
(89.121221 13.560606 0)
(88.066286 16.183165 0)
(86.699545 19.187267 -6.9159489e-17)
(85.714747 24.822812 8.1371378e-17)
(83.692428 28.063634 -4.8272414e-17)
(86.450178 45.628175 7.2813068e-18)
(93.627231 1.4401995 4.3555079e-17)
(94.316873 0.19426806 1.6960075e-17)
(94.104267 0.20038235 7.9099227e-17)
(93.934846 0.25898873 0)
(93.958542 0.22941623 0)
(93.995679 0.20376973 0)
(94.016554 0.19311011 0)
(94.027149 0.18355359 8.5678389e-17)
(94.032232 0.17142694 2.5005298e-17)
(94.034312 0.15988066 2.9193895e-17)
(94.036102 0.15243798 -6.817311e-17)
(94.039588 0.15179716 3.9802144e-17)
(94.045595 0.15966161 0)
(94.054119 0.17674364 -1.3570308e-17)
(94.064651 0.20301588 7.9246728e-17)
(94.07635 0.23796948 5.5539848e-17)
(94.088293 0.28101228 2.1626368e-17)
(94.099591 0.33182873 -5.0532851e-17)
(94.109491 0.39049456 -4.4284097e-17)
(94.117361 0.45749845 -1.7249717e-17)
(94.122639 0.5337008 -6.0484296e-17)
(94.124762 0.62027546 2.3567629e-17)
(94.123098 0.71866243 0)
(94.116887 0.83053934 -6.4441665e-17)
(94.105196 0.95781079 -7.5381146e-17)
(94.086875 1.1026118 -2.2046217e-17)
(94.060513 1.267323 1.4188613e-16)
(94.024398 1.4545992 4.5297974e-17)
(93.976459 1.6673943 1.767686e-17)
(93.914221 1.9090744 -6.2106782e-17)
(93.834736 2.183276 -4.8507976e-17)
(93.734396 2.4947853 5.6846433e-17)
(93.609139 2.847865 -8.3287965e-17)
(93.452356 3.2472332 -5.8705006e-17)
(93.25983 3.7017146 0)
(93.02559 4.2203328 1.0823734e-16)
(92.741258 4.813663 0)
(92.396154 5.4956183 0)
(91.977536 6.2838451 -4.4299612e-17)
(91.469315 7.2027099 1.309276e-17)
(90.852736 8.2830794 -9.2882291e-17)
(90.100131 9.5738514 -4.5910603e-17)
(89.187755 11.135878 1.0954255e-20)
(88.05407 13.07075 -1.2956368e-17)
(86.714932 15.579337 0)
(84.94609 18.65721 -7.4126095e-17)
(83.269501 23.919986 -1.1099695e-17)
(80.250475 28.203666 -6.7299806e-18)
(81.848991 45.776727 -7.5090167e-18)
(93.593242 1.3958514 5.7945423e-21)
(94.340084 0.23159594 1.5572711e-17)
(94.148059 0.16086709 -5.4540907e-17)
(93.95053 0.24239075 0)
(93.96951 0.23302937 2.477935e-17)
(94.00956 0.20854919 -2.8932201e-17)
(94.026453 0.19860235 0)
(94.030705 0.19201892 -1.9726364e-17)
(94.032307 0.18212173 -6.9113747e-17)
(94.032331 0.1714747 0)
(94.03152 0.16398667 -4.7152467e-17)
(94.031544 0.16254486 -3.672635e-17)
(94.033631 0.16898428 -2.1456742e-17)
(94.038024 0.18430057 0)
(94.044329 0.20871459 -1.4653307e-17)
(94.051673 0.24185174 -6.8515063e-17)
(94.059074 0.28323294 8.0105355e-17)
(94.065528 0.33251221 -8.9340374e-22)
(94.070142 0.38968188 8.216593e-17)
(94.07216 0.45512237 0)
(94.070909 0.52957365 3.7490926e-17)
(94.065731 0.61408467 0)
(94.055905 0.70996864 0)
(94.040583 0.8187743 1.504253e-17)
(94.018742 0.94227358 5.2864485e-17)
(93.989138 1.0824627 0)
(93.950257 1.2415756 -7.2643015e-17)
(93.900271 1.4221073 -8.5211506e-17)
(93.836979 1.6268451 -6.6670437e-17)
(93.757752 1.8589502 3.9131939e-17)
(93.659448 2.1218975 -1.0700022e-20)
(93.538253 2.4201096 -4.05248e-17)
(93.389784 2.757892 3.25676e-21)
(93.207241 3.1394405 7.4910859e-17)
(92.985635 3.5730501 4.4227941e-17)
(92.718187 4.0675065 -2.6098857e-17)
(92.395727 4.6327524 6.1839643e-17)
(92.006284 5.2819819 -7.3287589e-17)
(91.535267 6.0320334 -1.0876302e-17)
(90.963985 6.9061085 1.2928434e-17)
(90.269734 7.9337524 -1.5425266e-17)
(89.418908 9.1622414 9.2102364e-17)
(88.377863 10.64884 1.1055444e-17)
(87.069377 12.501675 3.9925128e-17)
(85.479125 14.884771 -8.0400001e-18)
(83.336868 17.939492 1.6593498e-16)
(81.039011 22.852631 -9.5404314e-17)
(76.99806 27.81236 0)
(77.13369 45.1519 4.4134286e-19)
(93.54623 1.3461585 -4.9217114e-17)
(94.347198 0.28720717 -5.7486189e-17)
(94.188127 0.12121669 0)
(93.968646 0.22584569 -1.9598068e-17)
(93.980348 0.23154768 -2.2885399e-17)
(94.022662 0.21030562 5.3453679e-17)
(94.036045 0.20131086 0)
(94.034056 0.19768866 -5.5261314e-22)
(94.032064 0.19054528 3.7717279e-22)
(94.030018 0.18133028 4.9779462e-17)
(94.026495 0.17416741 5.8174277e-17)
(94.022965 0.17215747 3.3997565e-17)
(94.021074 0.17730954 0)
(94.021298 0.19080924 -2.3234176e-17)
(94.023266 0.21309859 -1.4217767e-22)
(94.026133 0.24406531 3.1779429e-17)
(94.028817 0.28332163 -1.8588689e-17)
(94.030218 0.33051878 2.1753634e-17)
(94.029331 0.38559555 7.6384696e-17)
(94.025291 0.44883418 -5.9620645e-17)
(94.017333 0.52085499 1.7456251e-17)
(94.004711 0.60257784 2.0451915e-17)
(93.986622 0.69518263 2.3971014e-17)
(93.962137 0.8000817 -2.8105626e-17)
(93.930149 0.91890656 1.6485389e-17)
(93.889326 1.0535069 1.9350161e-17)
(93.838061 1.205962 0)
(93.774422 1.3785999 5.3382742e-17)
(93.69609 1.5740315 1.2553598e-16)
(93.600303 1.7952079 1.8463759e-17)
(93.483744 2.0454245 2.1734737e-17)
(93.342427 2.328743 -2.562038e-17)
(93.171647 2.6494388 -3.0229811e-17)
(92.96455 3.0112427 0)
(92.715438 3.4218913 -6.3433428e-17)
(92.416761 3.8898643 -2.5075131e-17)
(92.058684 4.4244446 -1.4878304e-17)
(91.628147 5.0380375 1.0642964e-16)
(91.108961 5.7465713 -3.1755513e-17)
(90.480202 6.5719227 6.334421e-17)
(89.71574 7.5420948 1.5211816e-17)
(88.776839 8.7020565 -2.7468682e-17)
(87.621128 10.105458 -7.7596824e-17)
(86.157529 11.861495 6.3575846e-20)
(84.34509 14.107245 -6.5973958e-17)
(81.865618 17.072346 -9.1406525e-17)
(79.010333 21.641954 1.2353594e-17)
(73.965446 26.981911 7.966807e-18)
(72.444652 43.801133 -9.3651056e-18)
(93.486152 1.2922857 4.5546311e-17)
(94.33968 0.33533602 5.3262466e-17)
(94.221385 0.092849451 3.1119496e-17)
(93.990988 0.20448736 0)
(93.993735 0.22994004 2.1229194e-17)
(94.03641 0.20845071 -2.479759e-17)
(94.045403 0.20020084 -5.793844e-17)
(94.037472 0.19950642 4.5550522e-23)
(94.031805 0.19570533 -1.97766e-17)
(94.027322 0.18862707 2.3114442e-17)
(94.020941 0.18224907 0)
(94.013849 0.17995423 0)
(94.008023 0.18395795 0)
(94.004122 0.19561071 0)
(94.001777 0.21563557 -2.5278125e-17)
(94.000113 0.24413082 -5.9160684e-17)
(93.997967 0.28080338 3.4622407e-17)
(93.994159 0.32536986 -2.0266891e-17)
(93.987604 0.37773608 -7.1213071e-17)
(93.977353 0.43809873 0)
(93.962566 0.50696574 -9.7784784e-17)
(93.942421 0.5851283 1.9107244e-17)
(93.916041 0.67362914 2.2413939e-17)
(93.88242 0.77373837 0)
(93.840371 0.88694035 0)
(93.788481 1.0149312 -7.2585499e-17)
(93.725053 1.1596281 -4.2672722e-17)
(93.648065 1.3231845 0)
(93.555087 1.5080254 -5.9106934e-17)
(93.443238 1.716886 0)
(93.309044 1.9528633 6.1638598e-17)
(93.148376 2.2196607 2.4267549e-17)
(92.956207 2.5214625 4.3010809e-17)
(92.725721 2.8615765 6.7956191e-17)
(92.450596 3.2471524 2.0168382e-17)
(92.122527 3.6863011 0)
(91.731108 4.1876285 -5.7217159e-17)
(91.262366 4.7626931 0)
(90.698741 5.4264273 8.2021458e-17)
(90.01738 6.1992639 3.0079455e-20)
(89.189181 7.1074988 -7.4450553e-17)
(88.170983 8.1933034 1.8043966e-17)
(86.912776 9.5066809 -8.1512106e-20)
(85.311465 11.15416 -6.7567241e-17)
(83.302508 13.251915 8.3586265e-17)
(80.523006 16.080145 8.3777424e-17)
(77.169998 20.300256 0)
(71.17925 25.810758 1.3724677e-16)
(67.902782 41.815642 -4.9325405e-18)
(93.416039 1.2340979 -2.1288771e-17)
(94.317895 0.36615748 -2.4860342e-17)
(94.244634 0.070437693 -5.8007303e-17)
(94.018702 0.18887438 0)
(94.011279 0.22071653 0)
(94.050192 0.20180433 0)
(94.054006 0.19393279 5.4022307e-17)
(94.041468 0.19708488 3.1565531e-17)
(94.032029 0.19663311 -3.6892737e-17)
(94.024406 0.19225962 -3.8091976e-22)
(94.0149 0.18721008 -2.521426e-17)
(94.00433 0.18500452 -5.8975873e-17)
(93.994729 0.18810787 -5.297916e-22)
(93.986854 0.19802508 4.0357196e-17)
(93.9803 0.21570458 -2.3615313e-17)
(93.97411 0.24145141 -1.8451381e-21)
(93.967081 0.27514997 3.2369e-17)
(93.95797 0.31657666 -3.7913721e-17)
(93.945642 0.36562075 -2.0639754e-21)
(93.929098 0.42242069 0)
(93.907439 0.48738694 1.2212886e-16)
(93.879783 0.56118739 -3.5821463e-17)
(93.845181 0.6447272 4.2045235e-17)
(93.802555 0.73913064 4.9383902e-17)
(93.750642 0.84572977 -5.8035455e-17)
(93.687951 0.96606106 3.4120071e-17)
(93.612704 1.1018725 4.0153954e-17)
(93.522788 1.2551362 -4.73012e-17)
(93.415677 1.4280816 0)
(93.288381 1.6232213 0)
(93.13728 1.843435 -3.8860776e-17)
(92.958131 2.0920701 -4.5963934e-17)
(92.74558 2.3731644 0)
(92.492922 2.6896389 -6.4613632e-17)
(92.193295 3.0480251 -7.6918895e-17)
(91.837642 3.4560021 0)
(91.415055 3.9214876 0)
(90.910814 4.4551435 1.6449219e-17)
(90.306186 5.0708266 -9.8895949e-17)
(89.576643 5.7874322 -9.5596897e-17)
(88.690495 6.62941 1.4473502e-17)
(87.600773 7.6357826 5.3123003e-17)
(86.250791 8.8528596 7.6029292e-17)
(84.527171 10.381855 1.3448225e-17)
(82.34454 12.3221 0)
(79.300473 14.978048 -8.5318607e-17)
(75.506323 18.840251 0)
(68.654914 24.309822 3.9941127e-19)
(63.58356 39.289962 -9.2459335e-17)
(93.336037 1.175137 3.99233e-17)
(94.272596 0.37228855 0)
(94.262996 0.059256691 5.433496e-17)
(94.0618 0.17347602 3.1741929e-17)
(94.02937 0.21147208 -3.7077699e-17)
(94.060593 0.19109414 0)
(94.060567 0.18226102 0)
(94.046079 0.18734073 -5.9173263e-17)
(94.032897 0.19164863 0)
(94.021399 0.19074021 1.95546e-22)
(94.00857 0.18762904 -4.7290233e-17)
(93.994742 0.1861029 2.7658168e-17)
(93.981638 0.18874954 3.2360092e-17)
(93.969986 0.19718151 -3.7871506e-17)
(93.959347 0.21255792 4.4331335e-17)
(93.948698 0.23542794 5.1908927e-17)
(93.936789 0.26584769 3.0401288e-17)
(93.92235 0.3036681 -7.1241511e-17)
(93.904226 0.34880764 4.1750074e-17)
(93.881397 0.40137359 0)
(93.852926 0.46169537 -2.8716876e-17)
(93.817878 0.5303269 1.8877265e-21)
(93.775242 0.60803907 2.5880983e-21)
(93.723869 0.69580968 -9.3042379e-17)
(93.662424 0.79481534 5.4704748e-17)
(93.589339 0.90642831 -6.438417e-17)
(93.50276 1.0322217 0)
(93.400489 1.1739791 4.468885e-17)
(93.279909 1.3337259 -2.6370623e-17)
(93.137929 1.5137445 3.1158361e-17)
(92.9708 1.7166791 0)
(92.77418 1.9455238 0)
(92.542392 2.2041152 5.1769186e-17)
(92.268901 2.4950252 -6.1539794e-17)
(91.946378 2.8241308 7.334715e-17)
(91.565003 3.1986139 -2.1921674e-17)
(91.113435 3.6256952 5.2575836e-17)
(90.57636 4.1150958 1.5814444e-17)
(89.934044 4.6795227 1.9062462e-17)
(89.160494 5.3362523 4.6228996e-17)
(88.221758 6.1077606 5.6345339e-17)
(87.067604 7.0296666 -6.9111371e-17)
(85.635506 8.1445027 0)
(83.803397 9.5462804 0)
(81.467539 11.32037 0)
(78.19166 13.776792 -1.083204e-17)
(74.01106 17.272381 9.9221722e-17)
(66.393682 22.54483 -3.0700513e-16)
(59.577495 36.284648 -3.2747891e-18)
(93.238091 1.106889 -7.4955838e-17)
(94.182913 0.37660913 7.3377222e-20)
(94.304415 0.045447729 9.7311126e-21)
(94.126021 0.16025069 -5.9811373e-17)
(94.041824 0.20311189 3.4936391e-17)
(94.064908 0.18067571 4.0827238e-17)
(94.065846 0.16870363 -4.7714869e-17)
(94.050996 0.17401055 5.5774302e-17)
(94.033791 0.18079116 0)
(94.018118 0.18285901 0)
(94.002197 0.18212198 4.4590586e-17)
(93.985562 0.18202798 -2.6081948e-17)
(93.969316 0.18478566 -3.0521784e-17)
(93.95411 0.19214954 3.5726962e-17)
(93.939526 0.20545767 8.5719689e-22)
(93.924508 0.22545483 0)
(93.90777 0.25237559 0)
(93.888048 0.28620629 -3.3635515e-17)
(93.864198 0.32692599 3.943559e-17)
(93.835201 0.37463501 -2.313026e-17)
(93.800099 0.42960278 5.4288786e-17)
(93.757911 0.49228295 6.3746732e-17)
(93.707566 0.56331929 -3.7446831e-17)
(93.647849 0.64354558 -2.2014508e-17)
(93.577354 0.73398246 1.0360015e-16)
(93.49444 0.83583529 3.0493656e-17)
(93.397177 0.95049778 4.4063335e-21)
(93.28329 1.0795595 2.1199561e-17)
(93.150078 1.2248329 2.5030425e-17)
(92.994354 1.3883633 -5.9188512e-17)
(92.812253 1.5725406 -3.5045536e-17)
(92.599344 1.7800103 4.1541283e-17)
(92.349642 2.0143482 -9.868697e-17)
(92.056837 2.2778323 5.8721964e-17)
(91.713159 2.5756322 1.7536033e-17)
(91.308037 2.9143632 4.1985456e-17)
(90.829778 3.3005425 -1.0082025e-16)
(90.262612 3.7429138 -9.1130336e-17)
(89.585939 4.2529626 0)
(88.77248 4.8462707 0)
(87.786304 5.5432148 0)
(86.574401 6.3758213 -1.6871849e-17)
(85.069136 7.3827095 -6.2898451e-17)
(83.14121 8.6493479 -1.3182017e-17)
(80.670619 10.24921 2.5153025e-17)
(77.192923 12.484407 6.5369729e-17)
(72.677523 15.604855 -7.0704476e-18)
(64.392524 20.558893 1.7051689e-16)
(56.002616 32.870443 -1.7838882e-18)
(93.114741 1.0171531 0)
(94.071413 0.37045149 4.1512856e-17)
(94.374593 0.038612675 -1.6606572e-20)
(94.181524 0.14786824 2.8346732e-17)
(94.044254 0.19032416 0)
(94.065381 0.16843083 0)
(94.070793 0.15491713 0)
(94.055188 0.15865794 -8.0741765e-22)
(94.033872 0.16579566 3.0915274e-17)
(94.014548 0.16958565 -7.230741e-17)
(93.996215 0.17076713 -4.2291416e-17)
(93.977288 0.17208991 9.8963011e-17)
(93.958281 0.1753808 0)
(93.939775 0.18213597 3.3897937e-17)
(93.921409 0.19368709 -3.9694991e-17)
(93.902133 0.21092519 0)
(93.880673 0.23426344 5.4489208e-17)
(93.855799 0.26383647 3.1937831e-17)
(93.826406 0.29971248 -3.7455321e-17)
(93.79149 0.34201804 -8.7893703e-17)
(93.750076 0.39098729 1.9247038e-23)
(93.701146 0.44698959 0)
(93.643571 0.51055123 -7.1218795e-17)
(93.576069 0.58236732 4.1877002e-17)
(93.497167 0.66330481 4.7437562e-21)
(93.405154 0.75440184 2.9030965e-17)
(93.298029 0.85687004 4.1627085e-21)
(93.173443 0.97210012 2.0204283e-17)
(93.028616 1.1016847 -4.7745073e-17)
(92.860274 1.247425 5.6490531e-17)
(92.664452 1.4114375 9.233485e-21)
(92.436626 1.5960279 -5.9570759e-17)
(92.170551 1.8044375 7.0814215e-17)
(91.860162 2.038761 2.813517e-17)
(91.497199 2.3033333 -3.3619377e-17)
(91.070456 2.604158 -2.0166662e-17)
(90.56798 2.9470515 4.8478258e-17)
(89.973627 3.3397484 1.462612e-17)
(89.266041 3.7924423 3.5528114e-17)
(88.416814 4.3189459 -2.1651508e-17)
(87.388295 4.9374116 -1.3303952e-17)
(86.125135 5.6761292 1.6431335e-17)
(84.555233 6.5696156 1.642749e-16)
(82.543387 7.6938626 3.893718e-17)
(79.95506 9.1118655 1.664591e-17)
(76.303167 11.107949 9.8372166e-17)
(71.500298 13.844926 -1.253462e-16)
(62.645595 18.395528 -1.7790317e-16)
(52.926405 29.139951 1.2406499e-16)
(92.978968 0.90723363 -6.7768095e-17)
(94.012844 0.35098687 3.9672843e-17)
(94.420164 0.03664482 -6.9437914e-17)
(94.209366 0.13136385 8.1104048e-17)
(94.039016 0.17294287 0)
(94.064241 0.15560653 -3.6926327e-17)
(94.073673 0.14120749 0)
(94.057788 0.14168919 -2.5229317e-17)
(94.032969 0.14727645 2.9500482e-17)
(94.0109 0.15146347 3.4502231e-17)
(93.990918 0.15396965 4.0361757e-17)
(93.970232 0.15650982 -4.7229449e-17)
(93.948852 0.16037344 0)
(93.927344 0.16674137 -6.4724668e-17)
(93.905408 0.17679047 7.5803257e-17)
(93.882049 0.19142328 7.1910437e-22)
(93.856059 0.2111743 -5.2040006e-17)
(93.826281 0.23631914 -9.1525929e-17)
(93.791662 0.26703377 1.0735721e-16)
(93.75122 0.30349302 -2.5242894e-21)
(93.70397 0.34591497 4.9309571e-17)
(93.648853 0.39459982 2.8968282e-17)
(93.584684 0.44996797 2.1863549e-22)
(93.510119 0.51258405 -4.0066011e-17)
(93.423618 0.58316635 -4.1516802e-22)
(93.323404 0.66258792 2.7795974e-17)
(93.207408 0.75187768 -6.5563883e-17)
(93.073215 0.85222439 -3.870871e-17)
(92.91797 0.96499496 7.2540074e-21)
(92.738323 1.0917406 0)
(92.530224 1.2342868 0)
(92.289049 1.3946138 1.9077588e-17)
(92.008395 1.5755377 8.9261679e-21)
(91.68233 1.7791279 -5.4122345e-17)
(91.302056 2.0086854 -3.2380402e-17)
(90.856039 2.2696 1.9438248e-17)
(90.332062 2.5669961 2.3411474e-17)
(89.713631 2.9075639 -1.4170068e-17)
(88.978732 3.3001378 1.7205849e-17)
(88.097993 3.7566893 0)
(87.032295 4.2930248 -3.8840258e-17)
(85.724337 4.9335819 -1.6056058e-17)
(84.098137 5.708543 -8.0575183e-17)
(82.013787 6.6837896 -6.4021459e-17)
(79.323648 7.9127299 0)
(75.523338 9.6543548 -5.4969002e-18)
(70.475683 12.000528 -1.1265048e-16)
(61.140363 16.093902 2.6031574e-16)
(50.355114 25.137183 -1.3374633e-16)
(92.845103 0.78024631 5.4909824e-20)
(93.958179 0.3193541 3.8099618e-17)
(94.456249 0.035834887 4.4456913e-17)
(94.223286 0.10859629 -7.7889118e-17)
(94.041412 0.15014426 -3.0345599e-17)
(94.063007 0.13981802 3.5465454e-17)
(94.074726 0.12543556 6.2184584e-17)
(94.058323 0.12257802 -4.8466139e-17)
(94.031228 0.12596189 2.8338288e-17)
(94.007453 0.12974972 -3.3143305e-17)
(93.986375 0.13279921 -5.816405e-17)
(93.964424 0.13596979 -2.2689353e-17)
(93.941102 0.14013937 -1.0664382e-21)
(93.916951 0.14609669 6.2197599e-17)
(93.891743 0.15471843 -3.642638e-17)
(93.864578 0.16681481 6.4022311e-17)
(93.834371 0.18297783 -5.002848e-17)
(93.800074 0.2035938 -2.9332959e-17)
(93.760702 0.22893434 1.8335123e-21)
(93.715291 0.25921973 -2.0193741e-17)
(93.66284 0.2946604 -2.371838e-17)
(93.602252 0.33549846 5.5740825e-17)
(93.532285 0.38205989 -6.5544016e-17)
(93.451536 0.43478887 -3.8566301e-17)
(93.3584 0.49426203 2.2710304e-17)
(93.251039 0.56119165 0)
(93.127325 0.63642531 -2.962265e-21)
(92.984777 0.72094849 1.8655636e-17)
(92.820481 0.81589862 -6.6197403e-17)
(92.631015 0.92257148 2.613871e-17)
(92.412261 1.0424904 0)
(92.159492 1.1773223 0)
(91.866283 1.3293877 0)
(91.526496 1.5006937 7.8539501e-17)
(91.131098 1.6936871 -3.1346503e-17)
(90.66846 1.9129292 -3.7672574e-17)
(90.125939 2.1628576 0)
(89.486728 2.4490923 -2.7523426e-17)
(88.728289 2.7790571 0)
(87.820459 3.1628179 -2.0528647e-17)
(86.722883 3.6137206 7.5892572e-17)
(85.376662 4.1522547 -1.5765571e-17)
(83.702483 4.8040071 9.8802443e-18)
(81.556801 5.6243361 2.5316169e-17)
(78.78012 6.6574709 2.469225e-17)
(74.855806 8.131045 -5.4615014e-18)
(69.601417 10.081521 1.7528454e-16)
(59.863936 13.678002 -9.2639124e-17)
(48.221498 20.840309 3.3677653e-18)
(92.736025 0.63870066 0)
(93.896932 0.27575783 0)
(94.446844 0.02603301 -4.2978083e-17)
(94.266721 0.089912587 2.5113328e-17)
(94.069891 0.12659844 -1.4673809e-17)
(94.057887 0.11727558 3.4301005e-17)
(94.069362 0.10392583 -2.004797e-17)
(94.05604 0.10046138 2.3440166e-17)
(94.029764 0.10253234 -2.7409986e-17)
(94.005127 0.10555265 6.41245e-17)
(93.983068 0.10831722 -5.6267549e-17)
(93.960068 0.11143419 4.5474431e-22)
(93.935152 0.11544087 -5.1393163e-17)
(93.908711 0.12070523 -1.5045742e-17)
(93.880567 0.12776265 3.5250847e-17)
(93.849953 0.13726718 -4.1305756e-17)
(93.815961 0.14981064 2.4211191e-17)
(93.777681 0.16584067 -1.3313504e-21)
(93.734193 0.18568532 -2.3683469e-21)
(93.684534 0.20958161 1.9553681e-17)
(93.627679 0.23772794 0)
(93.562487 0.27031184 -2.699659e-17)
(93.487664 0.30757485 6.3496221e-17)
(93.40175 0.34985087 5.6053994e-17)
(93.303083 0.39758291 4.5162784e-21)
(93.189768 0.4513285 -5.1903796e-17)
(93.059624 0.51175702 6.1266336e-17)
(92.910117 0.57965081 -1.8099295e-17)
(92.73828 0.65591609 2.1412219e-17)
(92.54063 0.74158875 -2.5372623e-17)
(92.312994 0.83788714 0)
(92.050559 0.9461569 -3.5806793e-17)
(91.746866 1.0682477 0)
(91.395538 1.2058572 0)
(90.987578 1.3608972 0)
(90.511141 1.5369841 0)
(89.953184 1.7377661 0)
(89.296663 1.9677732 4.0319587e-17)
(88.518645 2.232984 -1.6374974e-17)
(87.588333 2.5415067 0)
(86.464364 2.9041243 0)
(85.086562 3.3373007 -1.5516673e-17)
(83.37283 3.861762 1.9553024e-17)
(81.176937 4.522087 4.3911078e-17)
(78.328759 5.353331 8.1953195e-18)
(74.303939 6.5468555 4.4197672e-17)
(68.876709 8.0996777 -6.1940679e-17)
(58.810679 11.143121 -2.9277583e-18)
(46.480664 16.622649 -1.5256459e-16)
(92.593358 0.46965543 3.0615427e-17)
(93.873292 0.2226743 -3.589255e-17)
(94.524444 0.03915596 2.0932409e-17)
(94.276182 0.061861722 4.6029916e-21)
(94.035079 0.088097538 4.8972029e-21)
(94.050408 0.086821281 -3.341536e-17)
(94.06965 0.080570803 -1.4487832e-22)
(94.05846 0.077764611 2.2835479e-17)
(94.03157 0.077747559 1.335341e-17)
(94.005072 0.079037933 -1.5618195e-17)
(93.981692 0.080902634 -5.4826147e-17)
(93.95772 0.083535226 4.2778379e-17)
(93.931443 0.086972004 5.008346e-17)
(93.902937 0.091175809 -2.9325646e-17)
(93.872113 0.096404342 -1.7178485e-17)
(93.838423 0.10317836 -2.0132559e-17)
(93.801169 0.1120571 1.1799423e-17)
(93.759578 0.12349171 4.152232e-17)
(93.712765 0.13780504 0)
(93.659735 0.15520688 -1.9068849e-17)
(93.599412 0.17586362 0)
(93.530611 0.19990375 -2.6333196e-17)
(93.451992 0.22750162 1.5485248e-17)
(93.362044 0.25888808 0)
(93.259058 0.2943788 -2.1480733e-17)
(93.141092 0.33438488 3.8000875e-17)
(93.005918 0.37940165 0)
(92.85096 0.43000931 0)
(92.673207 0.48688225 -2.092262e-17)
(92.469132 0.5507938 -1.2401651e-17)
(92.234514 0.62265539 2.9442151e-17)
(91.964473 0.70347919 1.7505906e-17)
(91.652509 0.79465034 -9.1533977e-21)
(91.292081 0.89749997 1.246281e-17)
(90.874235 1.0134219 1.4952745e-17)
(90.386941 1.1451038 0)
(89.816817 1.2953419 0)
(89.146646 1.4675552 0)
(88.353206 1.6662427 0)
(87.40522 1.8975068 0)
(86.260537 2.1694824 0)
(84.858025 2.4945465 0)
(83.11336 2.8883271 2.9111102e-17)
(80.878495 3.3844509 -6.2460265e-17)
(77.974104 4.008566 8.2298817e-18)
(73.871845 4.9114478 -1.0013408e-16)
(68.304288 6.0652825 -6.7074939e-17)
(57.979181 8.4895285 -9.0401896e-17)
(45.148674 12.364044 1.6755762e-16)
(92.531724 0.32715142 1.4984738e-17)
(93.841459 0.15417686 1.7567165e-17)
(94.49652 0.0097045761 -2.0553678e-17)
(94.276454 0.030133506 0)
(94.066066 0.059825072 1.4029064e-17)
(94.05522 0.063418891 -1.63971e-17)
(94.071039 0.057040964 -1.9168428e-17)
(94.061775 0.052099035 4.4826151e-17)
(94.034493 0.050114816 -1.3106221e-17)
(94.006628 0.04996278 5.3660665e-17)