/*--------------------------------*- C++ -*----------------------------------*\
| =========                 |                                                 |
| \\      /  F ield         | OpenFOAM: The Open Source CFD Toolbox           |
|  \\    /   O peration     | Version:  2506                                  |
|   \\  /    A nd           | Website:  www.openfoam.com                      |
|    \\/     M anipulation  |                                                 |
\*---------------------------------------------------------------------------*/
FoamFile
{
    version     2.0;
    format      ascii;
    arch        "LSB;label=32;scalar=64";
    class       volScalarField;
    location    "1.35";
    object      Cp;
}
// * * * * * * * * * * * * * * * * * * * * * * * * * * * * * * * * * * * * * //

dimensions      [0 0 0 0 0 0 0];

internalField   nonuniform List<scalar> 
1376
(
0.020412575
0.020435439
0.020450059
0.020465019
0.020292086
0.020317247
0.0203344
0.02035156
0.020368646
0.020385892
0.020403544
0.02042201
0.020441817
0.020463459
0.02017438
0.020201849
0.02022158
0.020241141
0.020260286
0.020279051
0.020297597
0.020316337
0.020335711
0.020356072
0.020377831
0.020401316
0.020426643
0.020453869
0.020483361
0.020062838
0.020091771
0.020113889
0.020136164
0.020158068
0.020179263
0.02019975
0.020219861
0.020240068
0.020260647
0.02028186
0.020304078
0.020327678
0.020352851
0.020379471
0.020408524
0.020441045
0.020475391
0.02051182
0.019957921
0.019986959
0.020009947
0.020033925
0.020058309
0.020082482
0.020106119
0.020129209
0.020151871
0.020174381
0.020197037
0.02021998
0.020243394
0.020267662
0.020293039
0.020319686
0.020348748
0.020380545
0.020414048
0.02044966
0.020488153
0.020529796
0.020575121
0.019854871
0.019884238
0.019907504
0.019931894
0.019957137
0.019982776
0.020008644
0.020034511
0.020060256
0.020085936
0.020111672
0.020137555
0.020163564
0.020189707
0.020216036
0.02024275
0.020270327
0.020299828
0.020331742
0.020365303
0.02040078
0.020438741
0.020479407
0.020523551
0.020570303
0.020618033
0.020665777
0.019752227
0.019781257
0.019804357
0.019829036
0.019854749
0.019880938
0.019907344
0.019934127
0.019961437
0.019989193
0.020017546
0.020046614
0.020076378
0.020106425
0.020136686
0.020167088
0.020197533
0.02022814
0.020259473
0.020291993
0.020326163
0.020362095
0.020400137
0.020440925
0.020484384
0.020529648
0.020575728
0.020622251
0.020668936
0.020716724
0.019661792
0.019688801
0.019710422
0.019734441
0.019760056
0.019786666
0.019813854
0.019841359
0.019869075
0.019897259
0.019926164
0.019955753
0.019986035
0.020017801
0.0200511
0.020085371
0.020120385
0.020155767
0.020190882
0.020226429
0.020261759
0.020297193
0.020333968
0.020372563
0.020412994
0.020455208
0.020499379
0.020545353
0.020592895
0.020642948
0.020697018
0.020754361
0.020811712
0.019599687
0.019620681
0.019637839
0.019659023
0.019682755
0.019708151
0.01973479
0.019762321
0.019790402
0.019818973
0.019848221
0.01987826
0.019909551
0.019942089
0.019976047
0.020011519
0.020048221
0.020085763
0.020123862
0.02016176
0.020199856
0.020238276
0.020275927
0.020314419
0.02035479
0.020396234
0.020438781
0.020483033
0.020529982
0.020580861
0.020638564
0.02070256
0.020768786
0.020832567
0.020890485
0.019580649
0.019591882
0.019600682
0.019615116
0.01963396
0.019656087
0.019680645
0.019706901
0.019734305
0.019762602
0.019791694
0.019821707
0.019852962
0.019885919
0.019920313
0.019956103
0.019993996
0.020032982
0.020072111
0.02011029
0.020148013
0.020185371
0.020222552
0.020261002
0.020301822
0.020344951
0.020389255
0.020434569
0.020481497
0.020530559
0.02058529
0.020649521
0.02072069
0.02079261
0.020861901
0.020927757
0.020994842
0.02106602
0.019604528
0.019605489
0.01960538
0.019611491
0.019622586
0.019638191
0.019657409
0.019680089
0.019705414
0.019732544
0.019760583
0.019789514
0.01981978
0.019852036
0.019885211
0.019921279
0.019959076
0.019997185
0.020036599
0.02007634
0.020114058
0.02014925
0.02018326
0.020215934
0.020250361
0.020289404
0.020334018
0.020381656
0.020431991
0.020483861
0.020538933
0.020600381
0.020669878
0.020743618
0.020819595
0.020898757
0.020981416
0.021065739
0.021149513
0.021236056
0.019654399
0.019648916
0.019641018
0.019639022
0.019642389
0.019650737
0.019663863
0.019681147
0.019701454
0.019724448
0.019749252
0.019775511
0.019803655
0.019832565
0.019864091
0.019898013
0.01993242
0.019969529
0.020007611
0.020046614
0.020085139
0.0201216
0.020155063
0.020185485
0.020214378
0.020244897
0.020279883
0.020321308
0.02036868
0.02042284
0.020481604
0.020545871
0.020616648
0.020692013
0.020769648
0.020851901
0.020943364
0.021042547
0.021141691
0.021242284
0.021350363
0.021468586
0.01969329
0.019687965
0.019677868
0.019671668
0.019668917
0.019670507
0.019676602
0.01968713
0.019701885
0.019720221
0.01974119
0.019763908
0.019788297
0.019814881
0.019843302
0.019871811
0.019902439
0.019935392
0.019970131
0.020006809
0.020044837
0.020082768
0.020118308
0.020150412
0.020179462
0.020207414
0.02023791
0.020272869
0.020313565
0.020359088
0.020411414
0.0204737
0.02054705
0.020627592
0.020711365
0.020798291
0.020893689
0.021000052
0.021110835
0.021218862
0.021347926
0.021472213
0.021542771
0.019689576
0.019689192
0.019682915
0.019677496
0.019673365
0.019671104
0.019672281
0.019677338
0.019686881
0.019700262
0.019716528
0.019735534
0.019756865
0.019781099
0.019806757
0.01983317
0.01986102
0.019890195
0.019921135
0.019954003
0.019988872
0.020025157
0.020061623
0.020097058
0.020130473
0.020161625
0.020192239
0.020225938
0.020264931
0.020309449
0.020358004
0.020411591
0.020473762
0.020547697
0.02063385
0.020729937
0.020833504
0.020944163
0.021060353
0.021175512
0.021294639
0.021405698
0.021516692
0.021615955
0.021673439
0.019625069
0.019633518
0.019633765
0.019634579
0.019635109
0.019634962
0.019635493
0.019637837
0.019642958
0.019651398
0.019663282
0.019678375
0.019696503
0.019717833
0.019741727
0.01976738
0.01979472
0.019823665
0.019854124
0.019886142
0.019920293
0.019956513
0.019993945
0.020031065
0.020066151
0.020099177
0.020131922
0.020167261
0.020208693
0.02025635
0.020307062
0.020361643
0.020421924
0.020489382
0.020564956
0.020654499
0.020759869
0.020875988
0.020995885
0.021115006
0.02122568
0.021340747
0.021473186
0.021585198
0.021637699
0.021711395
0.019490391
0.019506749
0.019515526
0.019524418
0.019532019
0.01953843
0.019543886
0.019549508
0.019556368
0.019565024
0.019576133
0.019590081
0.019607405
0.019626639
0.019647506
0.019671702
0.019698025
0.019726447
0.019756756
0.019789274
0.019824846
0.019863517
0.019905511
0.019949569
0.019993395
0.020034312
0.02007129
0.020106436
0.020144719
0.020191019
0.02024622
0.020308086
0.020374543
0.020444682
0.020518448
0.020599094
0.020693599
0.020805775
0.020929503
0.021052024
0.021165092
0.021287015
0.021402674
0.021505239
0.021605513
0.021711745
0.021698769
0.021719091
0.019312022
0.019330821
0.019342269
0.019356403
0.019370295
0.019383583
0.019396046
0.019407844
0.019420114
0.019433584
0.019448883
0.01946626
0.019486497
0.019508202
0.019530454
0.019554539
0.01958058
0.019607932
0.019636881
0.01966843
0.019702726
0.019741055
0.01978484
0.019834658
0.019889164
0.019945109
0.019997884
0.020045553
0.020091152
0.020139204
0.020191686
0.020249026
0.020315423
0.020391547
0.020471998
0.020555153
0.020644591
0.020747262
0.020868736
0.020998762
0.021116404
0.021228198
0.021333597
0.021457833
0.021569642
0.021686208
0.021687845
0.021704175
0.021613079
0.019138595
0.01915355
0.019159538
0.019171355
0.019185443
0.019200891
0.019216803
0.019232443
0.019248478
0.01926565
0.019284507
0.019305508
0.019329402
0.019354905
0.019381233
0.019409135
0.019438686
0.019470182
0.019503503
0.019538338
0.019574978
0.019613781
0.019655749
0.019703102
0.019757767
0.0198198
0.019886715
0.019953458
0.020016705
0.020077651
0.020139388
0.020202292
0.020266923
0.020338442
0.020418497
0.020505383
0.02060064
0.020704805
0.020819938
0.020948232
0.021075149
0.021187684
0.02129152
0.02140268
0.021499897
0.021628601
0.021667014
0.02174458
0.021625545
0.019007554
0.019017557
0.019014491
0.019018124
0.019025114
0.019035164
0.01904711
0.019060152
0.019074451
0.019090011
0.019107297
0.019127055
0.019150863
0.01917781
0.019206271
0.019237315
0.019271317
0.019308045
0.019348006
0.019390853
0.019435911
0.019483275
0.019532878
0.019585428
0.019642524
0.019704617
0.019770542
0.019840949
0.019914038
0.019986688
0.020062321
0.020140799
0.020217187
0.020292601
0.020371716
0.020455536
0.020548793
0.020655036
0.02077334
0.020904149
0.021035066
0.021149519
0.021252648
0.021362913
0.021457708
0.021585692
0.021632173
0.021756977
0.021642874
0.018933708
0.018942951
0.018934266
0.018930269
0.018927794
0.018927283
0.018928466
0.018931396
0.018936238
0.018942768
0.018951709
0.018965003
0.018984361
0.019008722
0.019037084
0.019068983
0.019104021
0.019142919
0.019185813
0.019232702
0.019283422
0.019338217
0.019397742
0.019461734
0.019529365
0.01960037
0.019674247
0.019748556
0.019820734
0.019893612
0.019968477
0.020048335
0.020133731
0.020222757
0.020313047
0.020403106
0.02049536
0.020596285
0.020708919
0.020836503
0.020977687
0.021106848
0.021212685
0.021321546
0.021411814
0.0215213
0.021605627
0.021772962
0.021701118
0.01890186
0.018918876
0.018912368
0.018906865
0.018899367
0.018890882
0.018881895
0.018872224
0.018862763
0.018855364
0.01885103
0.018850796
0.018859529
0.018876899
0.01889988
0.018929294
0.018964304
0.019004296
0.019048635
0.019097085
0.019149652
0.01920648
0.019268441
0.019336873
0.019411527
0.019491185
0.019574085
0.01965687
0.019738684
0.01981707
0.019892666
0.019968562
0.020048641
0.020135811
0.020229484
0.020327071
0.020426599
0.020530726
0.020642777
0.020760563
0.020890666
0.02102718
0.02114822
0.021259158
0.021359222
0.021477402
0.021585495
0.021715829
0.021755176
0.018863871
0.018897212
0.018903388
0.018907508
0.018905597
0.018898698
0.018887527
0.018873161
0.018856373
0.018838549
0.018821342
0.018807664
0.018801253
0.018802901
0.018812842
0.018832143
0.018860668
0.018897175
0.018940822
0.018991475
0.019047992
0.019109222
0.019174049
0.019242759
0.019316857
0.019395903
0.019478221
0.019563465
0.019650413
0.019738246
0.019826175
0.019910705
0.019992315
0.020070953
0.020151599
0.020237197
0.02033146
0.020437557
0.020554103
0.020675665
0.020797781
0.020921761
0.021042756
0.021165996
0.021279182
0.021396216
0.021501168
0.021658095
0.021714437
0.018772271
0.018822855
0.018846678
0.018867468
0.01888036
0.018886004
0.018885322
0.01887938
0.018868734
0.018854047
0.018836862
0.018819541
0.018805342
0.018794966
0.018788734
0.01878971
0.018800953
0.018823727
0.01885838
0.018904581
0.018960558
0.019023775
0.019091815
0.019163174
0.019238549
0.019318882
0.019402552
0.019486703
0.019570687
0.019656646
0.01974648
0.019842732
0.019936311
0.020020436
0.020099747
0.020177311
0.020252283
0.020335109
0.020434433
0.020549808
0.020674318
0.020799859
0.020918399
0.021042597
0.021166776
0.021284535
0.021384778
0.021593943
0.02157062
0.018611456
0.018672414
0.018709854
0.018747181
0.018778988
0.018804467
0.018823968
0.018838115
0.018846353
0.01884879
0.018845655
0.018838125
0.018829361
0.018818693
0.018806535
0.018796926
0.018793327
0.018798571
0.018815741
0.018846861
0.018891387
0.018946313
0.019008113
0.019074791
0.019146755
0.019226957
0.01931584
0.019409361
0.019501777
0.019589366
0.019674052
0.019760373
0.019852438
0.019948291
0.020038094
0.020118568
0.020190264
0.020257261
0.020334845
0.020424154
0.020525647
0.020647661
0.020778174
0.020910148
0.021047807
0.021172762
0.021252447
0.021513436
0.021418135
0.018401236
0.018464504
0.01850679
0.018553632
0.018599205
0.018642402
0.018683139
0.018720908
0.018754155
0.018781358
0.018801744
0.018815354
0.01882375
0.018826251
0.018822675
0.01881704
0.01881017
0.018806238
0.018809415
0.018822171
0.01884658
0.01888211
0.018927056
0.018979909
0.019040686
0.019112435
0.019197901
0.019295149
0.019398064
0.019500686
0.019599306
0.019694058
0.019788346
0.01988086
0.019965344
0.020041105
0.020111489
0.020175505
0.020242752
0.020326609
0.020413948
0.020501705
0.020611705
0.020754205
0.020914384
0.02106618
0.021149182
0.021443097
0.021316668
0.018163913
0.018223771
0.018265008
0.018315307
0.018367899
0.018422066
0.018477454
0.018533127
0.018587606
0.018638129
0.018683633
0.018723387
0.018755339
0.018777073
0.018792082
0.018802095
0.018804945
0.018804027
0.018802987
0.018805519
0.018814959
0.018833463
0.018862113
0.018900665
0.018949245
0.019008687
0.019081443
0.019170315
0.019272901
0.019381653
0.019494323
0.019611177
0.01972627
0.019831606
0.019925346
0.020006465
0.020069414
0.020115797
0.020157262
0.020222469
0.020312725
0.020398548
0.020480642
0.020600801
0.020765257
0.020952181
0.021065359
0.02135534
0.021246859
0.017937166
0.01798909
0.018022198
0.018067456
0.018118601
0.018174391
0.01823462
0.018298484
0.01836495
0.018432516
0.018497988
0.018559186
0.018613923
0.018659736
0.018698395
0.018728526
0.018748648
0.018759526
0.018763269
0.018764411
0.018768724
0.018780175
0.018800315
0.018829152
0.018867263
0.018917287
0.018982857
0.019065651
0.01916468
0.019274822
0.019388234
0.019502415
0.01962423
0.019752437
0.01987785
0.019985969
0.020068323
0.020123155
0.020158171
0.020184678
0.020229175
0.020303147
0.020390456
0.020489674
0.020633757
0.020831445
0.020976036
0.021285322
0.021177576
0.017749582
0.017792739
0.017812508
0.017843403
0.017880654
0.017924508
0.01797604
0.018035093
0.018100729
0.018172477
0.018247288
0.018322039
0.018393856
0.01846169
0.018525355
0.018581596
0.018628287
0.01866354
0.018685689
0.018696422
0.018701802
0.018707983
0.018719327
0.018739389
0.018770655
0.018814816
0.018873705
0.018948396
0.019038612
0.019145255
0.019265975
0.019393626
0.019521188
0.01964845
0.0197751
0.019903102
0.020025853
0.020121443
0.020182965
0.020217032
0.020238129
0.020270196
0.020325414
0.020414392
0.020543436
0.020721284
0.020868123
0.021224661
0.021098859
0.017599371
0.017638432
0.017648734
0.01766579
0.017685044
0.017709576
0.017742311
0.017784737
0.017836872
0.017898008
0.017966428
0.018038398
0.018111533
0.01818634
0.018261984
0.018336887
0.018409087
0.018475204
0.018531014
0.018573341
0.018602984
0.018623441
0.01863779
0.018647838
0.018657043
0.018673059
0.018706524
0.01876692
0.018856838
0.018967057
0.019090031
0.019221045
0.019355165
0.019497188
0.019646357
0.019789766
0.019928492
0.020054553
0.020142311
0.020206958
0.020255284
0.020278979
0.020306336
0.020372301
0.020481268
0.020645578
0.020761577
0.021154656
0.021044362
0.017550017
0.017565726
0.017590291
0.017622402
0.017664468
0.017713856
0.017764926
0.017819773
0.017879781
0.01794541
0.018018845
0.018099785
0.018184369
0.018265654
0.018336674
0.018393334
0.018436246
0.01846988
0.018497838
0.018522507
0.018547095
0.01857454
0.018605845
0.018646229
0.018708851
0.018802867
0.01893268
0.019090419
0.019256847
0.019431256
0.019603727
0.019759739
0.019914343
0.020050311
0.02013621
0.020193843
0.020240184
0.020271621
0.020322926
0.020428289
0.020591307
0.020663834
0.021093117
0.020965074
0.017511434
0.017542023
0.017579885
0.017628029
0.017690752
0.017767801
0.017853852
0.017939565
0.01801713
0.018083485
0.018141264
0.018197442
0.018256585
0.018315015
0.018366058
0.018407483
0.018443908
0.018482009
0.018530379
0.018596039
0.018680693
0.018792089
0.018932577
0.019094633
0.019292105
0.019501222
0.019678972
0.019843156
0.019979141
0.020069647
0.020133578
0.02018036
0.020235634
0.020336099
0.020507774
0.020567196
0.021048318
0.020860098
0.017447185
0.017534035
0.01762541
0.017714026
0.017795626
0.017868761
0.017933575
0.017992735
0.018048778
0.018106036
0.018170145
0.018243283
0.018321873
0.018392569
0.018458036
0.018530278
0.018619694
0.018738651
0.018877839
0.019015481
0.019169012
0.019358856
0.019546442
0.019721568
0.019868127
0.019971968
0.020051008
0.020124005
0.020227699
0.020413859
0.020431579
0.02096662
0.02076145
0.017483017
0.017584238
0.017683528
0.017780061
0.01787131
0.017949721
0.018010088
0.018055305
0.018100369
0.018172652
0.018275342
0.01839187
0.018510074
0.018620443
0.018742121
0.018878478
0.019009686
0.019147882
0.019304197
0.01945969
0.019609605
0.019756005
0.019884949
0.01999609
0.020120851
0.020311167
0.020315957
0.020892293
0.020617981
0.017714636
0.017825975
0.017933418
0.018035593
0.018117632
0.018173434
0.018217877
0.018288135
0.01841384
0.0185667
0.018726399
0.018887778
0.019018812
0.019146388
0.019297869
0.019460977
0.019605238
0.019727408
0.019852705
0.020004676
0.020199894
0.020223531
0.020825985
0.02052841
0.01795717
0.018057568
0.018149258
0.01824139
0.018328086
0.018415811
0.018506746
0.01861259
0.018774698
0.018968725
0.019162318
0.019327369
0.019490092
0.019639232
0.019783613
0.01995614
0.020149108
0.02009369
0.020747642
0.020475271
0.018202874
0.018313077
0.018437636
0.018560008
0.018656249
0.018753017
0.018912327
0.019115522
0.0193433
0.019530013
0.01971354
0.01992266
0.020189901
0.020114455
0.020662134
0.020288614
0.018450945
0.018592405
0.01872493
0.01883559
0.018961771
0.019127196
0.019340285
0.019580841
0.019807031
0.020153786
0.020174581
0.020791366
0.020145831
0.018711796
0.0188691
0.019031329
0.019235401
0.019499397
0.019746808
0.019996422
0.020064332
0.020922896
0.020097406
0.019227075
0.019396386
0.019627975
0.019939874
0.019994219
0.020805057
0.020045686
0.019892618
0.019941097
0.020863535
0.019955486
0.020955647
0.019849811
0.020417568
)
;

boundaryField
{
    Side
    {
        type            empty;
    }
    Inlet
    {
        type            calculated;
        value           nonuniform List<scalar> 
25
(
0.021874174
0.021852738
0.021826087
0.021792449
0.021756908
0.02172946
0.021713561
0.021704565
0.021688115
0.021657562
0.021621149
0.021584532
0.021546643
0.021512846
0.021485344
0.021457837
0.021435141
0.021414243
0.021363349
0.021292482
0.021254022
0.021233115
0.021207964
0.021161058
0.021073297
)
;
    }
    Airfoil
    {
        type            calculated;
        value           nonuniform List<scalar> 0();
    }
    Outlet
    {
        type            calculated;
        value           nonuniform List<scalar> 0();
    }
    procBoundary12to4
    {
        type            processor;
        value           uniform 0.020525935;
    }
    procBoundary12to5
    {
        type            processor;
        value           nonuniform List<scalar> 
30
(
0.020295423
0.020174334
0.020060232
0.019954582
0.019850873
0.01974785
0.01965712
0.019595523
0.01957884
0.019605991
0.019658713
0.019700559
0.01970018
0.019638118
0.019508871
0.019335932
0.019163928
0.019030036
0.018947352
0.018902535
0.018852963
0.018755841
0.018597012
0.018395842
0.018168885
0.017945509
0.017756338
0.017602803
0.020449991
0.020295423
)
;
    }
    procBoundary12to6
    {
        type            processor;
        value           uniform 0.017470489;
    }
    procBoundary12to11
    {
        type            processor;
        value           nonuniform List<scalar> 
65
(
0.020521257
0.020542284
0.020556223
0.020571401
0.020480628
0.020480628
0.020497304
0.020515468
0.02053553
0.020557876
0.020582763
0.020487316
0.020487316
0.020513688
0.020542663
0.020573965
0.020607832
0.020517134
0.020517134
0.020553082
0.020590153
0.020630386
0.020551532
0.020551532
0.020593911
0.020639961
0.020689397
0.020623495
0.020623495
0.020673379
0.020723154
0.020771565
0.020712524
0.020712524
0.020758518
0.020804923
0.020766739
0.020766739
0.02081665
0.020862925
0.020865225
0.020865225
0.020912459
0.020943854
0.020943854
0.020998182
0.021055893
0.021138593
0.021138593
0.021210468
0.02133561
0.02133561
0.021420745
0.021552258
0.021552258
0.021625552
0.021625552
0.021669392
0.021718351
0.021718351
0.021659909
0.021659909
0.021747502
0.021606653
0.021606653
)
;
    }
    procBoundary12to13
    {
        type            processor;
        value           nonuniform List<scalar> 
60
(
0.017512052
0.017520622
0.017531985
0.017540287
0.017540287
0.017413059
0.01741668
0.01742478
0.017441039
0.017462832
0.017485814
0.017485814
0.017244933
0.017255153
0.01727744
0.017315903
0.017372694
0.017372694
0.01712628
0.017201052
0.01728768
0.017382962
0.017382962
0.017125294
0.017236881
0.017352613
0.017472058
0.017594789
0.017594789
0.017384863
0.017544877
0.017693313
0.017832534
0.017832534
0.017651574
0.017828962
0.017979805
0.018100266
0.018100266
0.018024052
0.018181754
0.018310712
0.018310712
0.018211044
0.018429864
0.018600552
0.018600552
0.018502311
0.018780628
0.019021298
0.019021298
0.019096326
0.019298225
0.019511753
0.019511753
0.019721036
0.019788359
0.019788359
0.020735241
0.019725732
)
;
    }
}


// ************************************************************************* //
