/*--------------------------------*- C++ -*----------------------------------*\
| =========                 |                                                 |
| \\      /  F ield         | OpenFOAM: The Open Source CFD Toolbox           |
|  \\    /   O peration     | Version:  2506                                  |
|   \\  /    A nd           | Website:  www.openfoam.com                      |
|    \\/     M anipulation  |                                                 |
\*---------------------------------------------------------------------------*/
FoamFile
{
    version     2.0;
    format      ascii;
    arch        "LSB;label=32;scalar=64";
    class       volVectorField;
    location    "1.35";
    object      wallShearStress;
}
// * * * * * * * * * * * * * * * * * * * * * * * * * * * * * * * * * * * * * //

dimensions      [1 -1 -2 0 0 0 0];

internalField   uniform (0 0 0);

boundaryField
{
    Side
    {
        type            empty;
    }
    Inlet
    {
        type            calculated;
        value           uniform (0 0 0);
    }
    Airfoil
    {
        type            calculated;
        value           nonuniform List<vector> 
25
(
(-5.2729308 -1.9409097 9.391717e-19)
(-5.0040279 -2.2652535 -5.8620296e-19)
(-4.8663725 -2.2257169 7.0148154e-19)
(-4.6422197 -2.2649804 -2.3450644e-18)
(-4.4260444 -2.1022064 -4.3524911e-19)
(-4.2337049 -2.1485643 5.8472695e-19)
(-4.0978286 -1.8316824 2.4961737e-20)
(-3.8703679 -1.8289174 7.9233788e-19)
(-3.8249283 -1.5280241 4.0215845e-19)
(-3.6910091 -1.4926299 7.7511452e-18)
(-3.7554704 -1.2224588 2.3480167e-19)
(-3.5936142 -1.0463879 1.2778711e-19)
(-3.7029819 -0.9196618 -1.0862212e-17)
(-3.5771713 -0.63135412 1.1672597e-17)
(-3.6445388 -0.62817676 -3.2655425e-19)
(-3.6753252 -0.38223326 1.2608857e-17)
(-3.5638492 -0.30484736 -1.3304571e-17)
(-3.6537566 -0.21008549 -3.7126337e-20)
(-3.6156138 -0.099803222 -1.6024788e-18)
(-6.1941799 -1.5611284 6.0185311e-36)
(-6.0294426 -1.5359922 8.9294475e-19)
(-5.8234798 -1.6268876 -1.0971237e-18)
(-5.6888895 -1.814035 -5.3030778e-19)
(-5.6121983 -1.8651438 1.4666067e-18)
(-5.4651198 -1.9600815 -1.5787418e-18)
)
;
    }
    Outlet
    {
        type            calculated;
        value           nonuniform List<vector> 0();
    }
    procBoundary7to0
    {
        type            processor;
        value           uniform (0 0 0);
    }
    procBoundary7to8
    {
        type            processor;
        value           uniform (0 0 0);
    }
}


// ************************************************************************* //
