/*--------------------------------*- C++ -*----------------------------------*\
| =========                 |                                                 |
| \\      /  F ield         | OpenFOAM: The Open Source CFD Toolbox           |
|  \\    /   O peration     | Version:  2506                                  |
|   \\  /    A nd           | Website:  www.openfoam.com                      |
|    \\/     M anipulation  |                                                 |
\*---------------------------------------------------------------------------*/
FoamFile
{
    version     2.0;
    format      ascii;
    arch        "LSB;label=32;scalar=64";
    class       volScalarField;
    location    "0.004";
    object      k;
}
// * * * * * * * * * * * * * * * * * * * * * * * * * * * * * * * * * * * * * //

dimensions      [0 2 -2 0 0 0 0];

internalField   nonuniform List<scalar> 
192657
(
0.37149342
0.099277118
0.09953455
0.099538859
0.099538647
0.099538617
0.099538617
0.099538616
0.099538617
0.099538615
0.099538615
0.099538607
0.099538602
0.099538599
0.099538621
0.099538614
0.099538606
0.099538596
0.099538616
0.099538605
0.099538602
0.099538593
0.099538576
0.099538564
0.099538551
0.099538581
0.099538796
0.099540938
0.099552595
0.099595016
0.099712857
0.09996257
0.10031959
0.1006358
0.10100505
0.10135487
0.10147814
0.101259
0.10083483
0.10072945
0.10066338
0.1004544
0.10013841
0.099844237
0.099673964
0.099496309
0.099368037
0.099271537
0.099200338
0.099152417
0.099120665
0.099100172
0.099115193
0.09915456
0.0992075
0.099281258
0.099380756
0.099478208
0.099576702
0.09970194
0.099832841
0.099923136
0.099907763
0.099784054
0.099748577
0.099915524
0.10038393
0.100982
0.10154833
0.1020866
0.10264171
0.10326716
0.10397515
0.10476166
0.10561731
0.10654081
0.10754586
0.10865264
0.10988603
0.11126643
0.11279925
0.11451595
0.11642285
0.11852959
0.12084831
0.12342066
0.12631485
0.12957182
0.13323219
0.13739249
0.14218279
0.14773126
0.15414736
0.1615023
0.16971275
0.17829106
0.18694346
0.195809
0.20505881
0.21453093
0.22390067
0.23284589
0.24133464
0.2492845
0.25620491
0.26158907
0.27299497
0.51662259
2.3257658
6.3860545
11.551329
17.092288
22.69075
28.157505
33.366268
38.239176
42.734704
46.836444
50.547729
53.867186
56.761222
59.244479
61.378518
63.207115
64.76508
66.082032
67.18332
68.089699
68.816986
69.37464
69.765709
69.995007
70.048341
69.904666
69.535261
68.870082
67.837628
66.337485
64.152793
60.9102
56.099302
49.082907
39.294937
26.980408
14.488861
5.5726388
1.4129123
0.24898403
0.52094774
0.37124186
0.099274981
0.099534546
0.099538859
0.099538649
0.099538618
0.099538617
0.099538615
0.099538617
0.099538616
0.099538615
0.099538605
0.099538603
0.099538598
0.09953862
0.099538614
0.099538606
0.099538595
0.099538615
0.099538608
0.099538601
0.099538593
0.099538575
0.099538563
0.099538551
0.099538578
0.099538795
0.099540905
0.099552478
0.099594181
0.0997113
0.099960112
0.10031724
0.10063455
0.1010038
0.10135496
0.10148092
0.10126559
0.10083999
0.10073379
0.10066735
0.10046068
0.10014608
0.099852582
0.099676783
0.099502541
0.099376558
0.099276733
0.099206309
0.099158579
0.099128203
0.099107002
0.099121479
0.099160751
0.09921355
0.099286461
0.09938525
0.099483101
0.099581349
0.099706646
0.099840528
0.09993657
0.099932051
0.099816934
0.099778747
0.099933656
0.10038401
0.10098239
0.10155282
0.10210039
0.10265804
0.10328454
0.10399795
0.10479513
0.10566349
0.10660041
0.10761842
0.10873697
0.10998117
0.11137198
0.11292405
0.11465303
0.11657629
0.11869791
0.12102653
0.12361411
0.12652345
0.12978318
0.13342931
0.13756175
0.14234252
0.14788237
0.15430154
0.16168986
0.17002182
0.17887751
0.18793431
0.19719322
0.20679228
0.21677985
0.22681012
0.23637788
0.24531331
0.25364909
0.26096341
0.26737038
0.2959708
0.69513974
3.0158768
7.5976233
13.032295
18.746255
24.473209
30.033506
35.307097
40.218973
44.726026
48.807221
52.466818
55.724484
58.593392
61.091657
63.24329
65.07253
66.603434
67.859692
68.863557
69.634972
70.190543
70.541764
70.699046
70.656778
70.404622
69.910293
69.125163
68.013996
66.490813
64.412596
61.560142
57.615491
52.099876
44.457406
34.348618
22.460739
11.428647
4.2285835
1.0522094
0.17232856
0.29553917
0.37305573
0.099272632
0.099534347
0.099538847
0.099538649
0.099538619
0.099538612
0.099538608
0.099538614
0.099538614
0.099538604
0.099538593
0.099538602
0.099538598
0.099538613
0.099538612
0.099538608
0.099538593
0.099538606
0.099538606
0.099538603
0.099538593
0.099538569
0.099538542
0.099538551
0.099538566
0.099538788
0.099540772
0.099551999
0.099592718
0.099709269
0.099957105
0.10031417
0.1006322
0.10100142
0.10135482
0.10148331
0.10127211
0.1008451
0.10073779
0.100671
0.10046689
0.10015382
0.099860842
0.099632287
0.099509125
0.099384463
0.099281771
0.099211871
0.099164528
0.099135155
0.099113657
0.099127341
0.099166147
0.099218899
0.099290679
0.099388897
0.099486851
0.099584991
0.099710014
0.099846847
0.09994857
0.099956181
0.099849821
0.099808529
0.099949636
0.10037658
0.1009713
0.10155132
0.10210668
0.10266691
0.10329322
0.10400873
0.10481295
0.10569175
0.10663942
0.10766679
0.1087925
0.11004134
0.1114347
0.11298951
0.11472439
0.11665653
0.11878698
0.12112219
0.12371238
0.12661552
0.12985555
0.13346635
0.1375491
0.14220411
0.14756996
0.15379455
0.16101222
0.16930052
0.17862333
0.18804774
0.19759432
0.20742839
0.21770359
0.22821174
0.23837695
0.24781598
0.25664274
0.26468074
0.27174683
0.29668745
0.67472609
3.0234446
7.6563751
13.100778
18.828
24.570119
30.143425
35.427652
40.349575
44.866834
48.968696
52.650339
55.931405
58.819008
61.328017
63.485283
65.31303
66.832614
68.066079
69.033918
69.754523
70.244284
70.517215
70.579163
70.417372
70.015303
69.348875
68.378441
67.042483
65.248532
62.859863
59.67181
55.375986
49.580592
41.834339
31.920031
20.616841
10.399009
3.83499
0.95509631
0.16173425
0.30722288
0.37398087
0.099270305
0.099534288
0.099538845
0.099538649
0.09953862
0.099538613
0.099538608
0.099538614
0.099538613
0.099538603
0.099538592
0.0995386
0.099538599
0.099538611
0.09953861
0.099538609
0.099538594
0.099538605
0.099538605
0.099538603
0.099538592
0.099538572
0.099538548
0.099538562
0.099538577
0.09953879
0.09954074
0.099551843
0.099592225
0.099707959
0.099954889
0.10031201
0.10063069
0.10099961
0.10135469
0.10148631
0.10127939
0.10085103
0.10074258
0.10067539
0.10047391
0.10016236
0.099869393
0.099644831
0.099518301
0.099392184
0.099288244
0.099218034
0.099171425
0.099142635
0.099121332
0.099134302
0.099172487
0.099224965
0.099296011
0.099393262
0.099491593
0.099589483
0.099714421
0.09985362
0.099961111
0.099980414
0.099883447
0.099839753
0.099968926
0.10037303
0.10096339
0.10154771
0.10211212
0.1026762
0.10330212
0.10401934
0.10483114
0.10572056
0.10667973
0.10771705
0.10885068
0.11010491
0.11150148
0.11305946
0.11480007
0.11674107
0.1188807
0.12122411
0.12382127
0.12672296
0.12994819
0.13353086
0.1375604
0.1421444
0.14741143
0.15350975
0.16058331
0.1687225
0.17795902
0.18799465
0.19784166
0.2079539
0.21849677
0.22942926
0.24023564
0.25031775
0.25963253
0.26823019
0.27587773
0.29861004
0.62192547
2.7749096
7.3380141
12.725697
18.43047
24.178227
29.777764
35.104741
40.085922
44.682341
48.876135
52.658732
56.01498
58.974706
61.566586
63.811774
65.728215
67.332098
68.64402
69.682088
70.4637
71.004112
71.314684
71.401895
71.267182
70.896109
70.261754
69.319207
67.99803
66.193145
63.75284
60.454901
55.997405
49.998127
42.03522
31.932934
20.516703
10.296367
3.7853821
0.94103332
0.15616086
0.27943975
0.37524208
0.099267884
0.099534199
0.099538845
0.099538649
0.09953862
0.099538614
0.09953861
0.099538615
0.099538612
0.099538602
0.099538592
0.099538597
0.099538597
0.099538609
0.099538609
0.099538607
0.099538593
0.099538606
0.099538604
0.099538601
0.099538593
0.099538573
0.099538551
0.099538569
0.099538589
0.099538792
0.099540699
0.09955165
0.099591618
0.09970651
0.099952494
0.10030961
0.10062901
0.10099761
0.10135434
0.10148912
0.10128658
0.10085697
0.10074723
0.1006796
0.10048084
0.10017086
0.099877997
0.099652229
0.099528267
0.099398878
0.099295548
0.099223844
0.099178016
0.099149619
0.099128556
0.099141091
0.099178611
0.09923088
0.09930093
0.099397257
0.099495978
0.099593625
0.099718369
0.099859872
0.099973065
0.10000347
0.099916977
0.099870947
0.099989081
0.10037055
0.10095376
0.10154333
0.10211581
0.10268437
0.10330988
0.10402835
0.10484636
0.10574566
0.10671597
0.1077629
0.10890439
0.11016388
0.1115634
0.11312399
0.114869
0.11681717
0.11896436
0.12131508
0.12391836
0.1268186
0.13003125
0.13358855
0.13757701
0.14209168
0.14725353
0.15321082
0.16010925
0.16808192
0.17719833
0.18741283
0.1978769
0.20825291
0.21903485
0.23028871
0.24166113
0.25249178
0.2624374
0.27168729
0.28008172
0.29942904
0.57122807
2.5541461
7.0298653
12.357735
18.030843
23.76617
29.368635
34.711028
39.714977
44.340717
48.569089
52.394013
55.818824
58.850699
61.50148
63.785727
65.741409
67.383749
68.725582
69.780339
70.564893
71.094094
71.378032
71.422615
71.230681
70.790952
70.078158
69.049978
67.639718
65.745765
63.219018
59.855295
55.369284
49.374277
41.44331
31.40604
20.112193
10.059817
3.6905076
0.91661198
0.15175415
0.26973251
0.37641938
0.099265387
0.099534119
0.099538843
0.099538649
0.09953862
0.099538614
0.099538612
0.099538615
0.099538612
0.099538602
0.099538593
0.099538597
0.099538597
0.099538606
0.099538611
0.099538608
0.099538592
0.099538606
0.099538605
0.099538602
0.099538591
0.099538576
0.099538552
0.099538578
0.099538598
0.099538792
0.099540658
0.099551461
0.099591036
0.099705084
0.099950117
0.10030727
0.10062739
0.10099554
0.10135387
0.10149197
0.10129394
0.1008631
0.10075194
0.10068387
0.10048793
0.10017955
0.099886727
0.099660751
0.099536463
0.099405222
0.099304015
0.099229755
0.09918446
0.099156543
0.09913571
0.099148014
0.099184972
0.099236847
0.099305852
0.099401272
0.099500219
0.099598072
0.099722261
0.099865969
0.099984547
0.10002586
0.099950312
0.099902518
0.10001079
0.10036958
0.10094371
0.1015377
0.10211782
0.10269161
0.10331708
0.10403647
0.10485934
0.10576766
0.10674889
0.10780578
0.10895575
0.1102211
0.11162401
0.1131869
0.11493518
0.11688897
0.11904214
0.12139943
0.12400856
0.12690811
0.13011176
0.13365173
0.1376025
0.14205654
0.14712554
0.15295085
0.15967297
0.16743906
0.17639867
0.18653808
0.19757551
0.20835765
0.21938725
0.23089611
0.2427208
0.25430712
0.26500035
0.27479546
0.28380248
0.30099752
0.51558478
2.2428132
6.5399061
11.789916
17.419159
23.13843
28.746348
34.11319
39.160428
43.84266
48.136984
52.035329
55.539501
58.658135
61.403298
63.787178
65.813129
67.512397
68.911719
70.035303
70.888611
71.482345
71.82367
71.914162
71.749033
71.313465
70.581568
69.512527
68.043335
66.079846
63.480503
60.034526
55.452093
49.351581
41.318757
31.215935
19.922155
9.9343018
3.6379205
0.90281187
0.14862238
0.2595113
0.37767986
0.099262799
0.099534039
0.09953884
0.099538649
0.09953862
0.099538615
0.099538614
0.099538616
0.099538611
0.099538602
0.099538594
0.0995386
0.0995386
0.099538605
0.099538614
0.099538607
0.099538594
0.099538609
0.099538609
0.099538604
0.099538588
0.099538576
0.099538554
0.099538586
0.099538606
0.099538791
0.099540618
0.09955127
0.099590442
0.099703633
0.099947691
0.10030485
0.10062574
0.1009934
0.10135324
0.10149487
0.10130143
0.10086934
0.10075667
0.10068817
0.10049514
0.1001884
0.099895568
0.099669149
0.09953916
0.099411939
0.099312985
0.099235963
0.09919051
0.09916346
0.099142646
0.099155098
0.099191515
0.099242777
0.099310801
0.099405038
0.099504502
0.09960242
0.099726197
0.09987176
0.099995626
0.10004741
0.099983314
0.099934446
0.10003387
0.10036978
0.10093328
0.10153115
0.10211849
0.10269784
0.1033237
0.10404361
0.10486999
0.10578642
0.10677821
0.10784541
0.10900445
0.11027619
0.11168302
0.11324796
0.1149986
0.11695643
0.11911394
0.12147671
0.12409056
0.12698914
0.13018568
0.13371488
0.13763434
0.14203551
0.14702083
0.15272224
0.15927301
0.16682213
0.17556536
0.18558937
0.19670609
0.20829455
0.21955891
0.23128829
0.2434546
0.25572693
0.26733106
0.27782667
0.28742132
0.3028474
0.47048524
1.9535
6.0419814
11.207483
16.785558
22.482847
28.090046
33.471154
38.543804
43.261248
47.59932
51.547211
55.10465
58.278622
61.080429
63.524255
65.625167
67.397689
68.857299
70.026499
70.921644
71.549105
71.916493
72.026071
71.874365
71.44939
70.727378
69.667167
68.202701
66.234931
63.620271
60.155485
55.550033
49.423157
41.363327
31.233167
19.917222
9.9223316
3.6309721
0.90063957
0.14754544
0.25368766
0.37896447
0.099260124
0.099533957
0.099538837
0.099538649
0.09953862
0.099538615
0.099538617
0.099538616
0.09953861
0.099538602
0.099538598
0.099538604
0.099538604
0.099538602
0.099538614
0.099538604
0.099538596
0.099538612
0.09953861
0.099538599
0.099538588
0.099538578
0.099538557
0.099538591
0.09953861
0.099538791
0.099540569
0.099551081
0.099589841
0.099702156
0.099945218
0.10030238
0.10062407
0.10099117
0.10135246
0.10149783
0.10130903
0.10087567
0.10076141
0.10069253
0.10050248
0.1001974
0.099904496
0.099677535
0.099494316
0.099420008
0.0993217
0.099242897
0.099196215
0.099170396
0.099149405
0.099162225
0.099198311
0.099248865
0.099315632
0.099408899
0.099508706
0.099606694
0.099730247
0.099877321
0.10000628
0.10006803
0.10001602
0.099966664
0.10005806
0.10037395
0.10092273
0.10152383
0.10211784
0.10270289
0.1033298
0.10404998
0.1048787
0.105802
0.10680362
0.10788152
0.10905044
0.11032956
0.1117413
0.1133085
0.11506092
0.11702129
0.1191814
0.12154836
0.12416554
0.12706254
0.13025341
0.133776
0.13767288
0.1420273
0.14693939
0.15252886
0.15891891
0.16625599
0.17475049
0.18457932
0.19566668
0.20767196
0.21959288
0.23150919
0.24392491
0.25672421
0.26924663
0.28056837
0.29070516
0.30480642
0.43168089
1.6584184
5.4722793
10.544434
16.063131
21.734245
27.339591
32.736269
37.837912
42.59579
46.984698
50.993
54.618175
57.865489
60.744565
63.268205
65.451561
67.310801
68.86078
70.107525
71.070413
71.759797
72.179596
72.331367
72.210358
71.803166
71.084052
70.010003
68.516057
66.50689
63.842122
60.319157
55.655565
49.471484
41.358927
31.186813
19.855887
9.8772746
3.6112141
0.89532589
0.14619402
0.24870691
0.3802961
0.099257358
0.099533874
0.099538834
0.099538649
0.09953862
0.099538615
0.099538619
0.099538616
0.099538609
0.099538601
0.099538604
0.099538606
0.099538606
0.099538602
0.099538605
0.099538605
0.099538598
0.099538612
0.099538608
0.099538598
0.09953859
0.09953858
0.09953856
0.099538595
0.099538614
0.09953879
0.099540515
0.099550892
0.099589234
0.099700658
0.099942687
0.10029985
0.10062237
0.10098886
0.10135151
0.10150086
0.10131672
0.10088209
0.10076617
0.10069695
0.10050996
0.10020658
0.099913532
0.099685449
0.099506289
0.099429829
0.099329492
0.09925087
0.099201917
0.099177304
0.099156214
0.099169279
0.099205332
0.09925507
0.099320655
0.099412602
0.099512818
0.099611164
0.099734076
0.099882785
0.10001652
0.10008785
0.10004834
0.099999118
0.10008338
0.10037924
0.10091243
0.10151599
0.10211485
0.10270691
0.10333549
0.10405558
0.10488557
0.10581428
0.10682496
0.10791401
0.1090937
0.11038126
0.11179886
0.1133686
0.11512248
0.11708401
0.11924524
0.12161515
0.12423422
0.12712884
0.13031515
0.13383245
0.13771522
0.14202674
0.14687705
0.15236753
0.1586096
0.16574687
0.1739863
0.18354982
0.19452719
0.20664868
0.21934276
0.23158334
0.24419853
0.25738571
0.27073805
0.28309664
0.29387324
0.3071187
0.40210405
1.3943619
4.8936538
9.8571704
15.305778
20.942917
26.540443
31.947594
37.073464
41.867648
46.304953
50.374016
54.071599
57.398899
60.361672
62.968236
65.22873
67.154727
68.759497
70.057686
71.065195
71.795704
72.249612
72.431084
72.336752
71.951413
71.247786
70.183814
68.695571
66.687256
64.017553
60.482574
55.797052
49.583985
41.438561
31.235457
19.879528
9.8852044
3.6130294
0.89555867
0.14586211
0.24610353
0.38166824
0.099254506
0.099533786
0.099538831
0.099538648
0.099538619
0.099538618
0.09953862
0.099538616
0.09953861
0.099538601
0.099538609
0.099538609
0.099538609
0.099538604
0.099538597
0.099538605
0.099538599
0.099538612
0.099538607
0.099538596
0.099538591
0.099538583
0.099538564
0.099538597
0.099538615
0.099538784
0.099540466
0.0995507
0.099588621
0.099699133
0.099940093
0.10029724
0.10062066
0.10098648
0.10135041
0.10150396
0.10132448
0.10088859
0.10077099
0.10070144
0.10051755
0.10021593
0.099922679
0.099693577
0.099513325
0.099437691
0.099336457
0.099259767
0.099207997
0.099184031
0.099163137
0.099176367
0.099212291
0.099261589
0.099325728
0.099416283
0.099516897
0.099615634
0.099738003
0.099888014
0.10002636
0.10010686
0.10008007
0.10003183
0.10010986
0.10038694
0.10090262
0.10150766
0.10211154
0.10270985
0.10334059
0.1040604
0.10489104
0.10582366
0.10684252
0.10794277
0.10913383
0.11043091
0.11185545
0.11342847
0.11518402
0.11714588
0.11930723
0.12167905
0.12429859
0.12718993
0.13037237
0.13388474
0.13775858
0.14203434
0.14683092
0.15223577
0.15834522
0.16529938
0.17329379
0.18256427
0.19332117
0.20548855
0.2185009
0.23155607
0.24431986
0.2577644
0.27174171
0.28517738
0.29682911
0.30946928
0.37895736
1.1549486
4.2999492
9.1357324
14.507198
20.107775
25.6971
31.114162
36.261142
41.084106
45.556943
49.668944
53.418071
56.807287
59.842015
62.530376
64.881855
66.906405
68.614005
70.013326
71.109339
71.910675
72.431862
72.667312
72.610957
72.249148
71.558009
70.498377
69.008174
66.992625
64.311217
60.760652
56.055325
49.817738
41.641732
31.398631
19.991032
9.9434867
3.6346279
0.90081022
0.14633805
0.24476266
0.38308542
0.099251565
0.099533691
0.09953883
0.099538648
0.099538619
0.099538621
0.09953862
0.099538614
0.09953861
0.099538602
0.099538612
0.099538612
0.099538612
0.099538605
0.099538593
0.099538605
0.099538599
0.099538613
0.099538607
0.099538595
0.099538591
0.099538586
0.099538568
0.099538598
0.099538612
0.099538779
0.099540415
0.099550501
0.099587999
0.099697587
0.09993745
0.10029457
0.10061894
0.10098403
0.10134915
0.10150712
0.10133228
0.10089522
0.1007759
0.10070601
0.10052524
0.10022546
0.099931926
0.099701719
0.09952137
0.099440241
0.099343005
0.099269077
0.099214901
0.099190462
0.099170104
0.099183289
0.09921922
0.099268159
0.099331104
0.099420075
0.099520854
0.099620092
0.099742178
0.099892901
0.10003582
0.10012491
0.1001113
0.10006473
0.10013722
0.10039674
0.1008937
0.10149885
0.10210708
0.10271185
0.10334523
0.10406463
0.1048954
0.10583045
0.10685632
0.10796737
0.10917021
0.11047807
0.11191076
0.11348822
0.11524592
0.11720752
0.1193683
0.12174114
0.12435977
0.12724678
0.13042547
0.13393302
0.13779848
0.14204866
0.14679634
0.15212743
0.15811992
0.16490762
0.17267355
0.18165201
0.19211605
0.20418363
0.21739997
0.23101524
0.24435577
0.25796208
0.27236987
0.28678551
0.29956951
0.31206719
0.36322654
0.95556864
3.722224
8.4027236
13.686615
19.243145
24.82001
30.245828
35.415241
40.269955
44.782023
48.940434
52.743413
56.193845
59.296542
62.057022
64.482691
66.5821
68.364433
69.838762
71.01335
71.894624
72.484964
72.789945
72.797
72.492247
71.85036
70.829629
69.365648
67.362396
64.679227
61.113517
56.381829
50.108661
41.88865
31.592216
20.12153
10.011383
3.6597834
0.90694229
0.14696793
0.24375452
0.38454718
0.099248528
0.099533589
0.09953883
0.099538647
0.099538615
0.099538621
0.099538619
0.099538614
0.099538611
0.099538605
0.099538613
0.099538613
0.099538612
0.099538605
0.099538591
0.099538606
0.099538599
0.099538614
0.099538604
0.099538595
0.099538593
0.099538591
0.09953857
0.099538596
0.099538613
0.099538776
0.099540373
0.0995503
0.099587366
0.099696013
0.099934739
0.10029182
0.10061722
0.1009815
0.10134777
0.1015103
0.1013401
0.10090203
0.10078091
0.10071064
0.100533
0.10023514
0.099941283
0.099709921
0.099529089
0.099395177
0.099350161
0.099278099
0.099222961
0.099196656
0.099177028
0.09919004
0.099225928
0.099274838
0.099336837
0.099423934
0.099524896
0.099624498
0.099746096
0.099897805
0.10004473
0.10014214
0.1001421
0.10009777
0.10016558
0.10040877
0.10088602
0.10148966
0.10210222
0.10271299
0.10334944
0.10406838
0.10489892
0.10583529
0.10686695
0.10798799
0.10920267
0.11052234
0.11196423
0.11354732
0.1153079
0.1172692
0.11942942
0.1218029
0.12441965
0.12730172
0.13047666
0.13397946
0.1378348
0.14206839
0.14677166
0.1520392
0.1579315
0.16456986
0.17212751
0.18083129
0.19098001
0.2028042
0.21609851
0.23003494
0.24414247
0.25803353
0.27268604
0.28782165
0.3018723
0.31471038
0.35257262
0.79038998
3.1638596
7.6548138
12.844385
18.352395
23.914384
29.347133
34.536045
39.417245
43.960509
48.154956
52.000292
55.501243
58.663937
61.49465
63.99884
66.18245
68.051774
69.612995
70.871787
71.832458
72.496319
72.861318
72.926628
72.670716
72.068892
71.079807
69.639568
67.652665
64.978685
61.415019
56.677497
50.389281
42.142708
31.804138
20.272555
10.093401
3.6909516
0.9146692
0.14794804
0.24379841
0.38605582
0.099245386
0.099533484
0.099538827
0.099538646
0.099538614
0.099538621
0.099538618
0.099538615
0.099538612
0.099538607
0.099538614
0.099538614
0.099538612
0.099538605
0.099538591
0.099538603
0.099538599
0.099538611
0.099538602
0.099538594
0.099538596
0.099538596
0.09953857
0.099538594
0.099538611
0.099538766
0.09954033
0.0995501
0.099586721
0.099694413
0.099931975
0.100289
0.10061548
0.10097889
0.10134626
0.1015135
0.10134792
0.10090906
0.10078605
0.10071532
0.10054083
0.100245
0.099950773
0.099718179
0.099536328
0.099406958
0.099359241
0.099286229
0.099231987
0.099202784
0.099183761
0.099196739
0.099232356
0.099281622
0.099342708
0.099428165
0.09952887
0.099628979
0.099749966
0.09990242
0.10005314
0.10015851
0.10017204
0.10013112
0.10019478
0.1004227
0.10087974
0.10148011
0.10209693
0.10271342
0.10335317
0.10407176
0.10490174
0.10583867
0.10687474
0.10800452
0.10923061
0.11056274
0.11201487
0.11360512
0.11536959
0.11733112
0.11949137
0.12186542
0.1244796
0.12735619
0.13052699
0.13402466
0.13786808
0.14208921
0.14675309
0.15196473
0.15777218
0.16427673
0.17164553
0.18009757
0.18993567
0.20143186
0.21458658
0.22881675
0.24334606
0.25804574
0.27283659
0.28842765
0.3036438
0.3173525
0.34646845
0.66264683
2.6470228
6.905414
11.991356
17.443017
22.986278
28.426029
33.637311
38.549012
43.126847
47.358456
51.243871
54.789181
58.002207
60.890514
63.460619
65.717149
67.664848
69.30804
70.650272
71.693881
72.438548
72.879993
73.009803
72.81513
72.2661
71.320686
69.914587
67.952079
65.292738
61.734006
56.991738
50.688641
42.415191
32.033318
20.437571
10.18389
3.7255364
0.92326654
0.14909695
0.24430234
0.38761201
0.099242135
0.099533374
0.099538824
0.099538645
0.099538614
0.09953862
0.099538618
0.099538615
0.099538614
0.099538609
0.099538614
0.099538613
0.099538612
0.099538605
0.099538592
0.099538603
0.099538597
0.099538609
0.099538602
0.099538594
0.099538599
0.099538599
0.099538565
0.0995386
0.099538612
0.099538759
0.099540281
0.099549902
0.099586067
0.099692782
0.099929139
0.10028608
0.10061372
0.10097617
0.10134469
0.10151667
0.10135574
0.10091635
0.10079132
0.10072004
0.10054871
0.10025501
0.099960393
0.099726483
0.099543796
0.099413839
0.099369386
0.099293656
0.099241364
0.099209163
0.099190169
0.09920339
0.099238729
0.09928817
0.099349059
0.099432524
0.099532826
0.099633404
0.0997539
0.099906585
0.10006123
0.10017403
0.10020098
0.10016493
0.10022456
0.10043882
0.10087527
0.10147043
0.10209151
0.10271305
0.10335656
0.10407503
0.10490405
0.10584106
0.10688023
0.10801732
0.1092541
0.11059892
0.11206218
0.11366099
0.11543044
0.11739307
0.11955424
0.12192907
0.12454055
0.12741181
0.13057829
0.13407018
0.13790106
0.14210937
0.14674088
0.15190282
0.15763877
0.16402545
0.17122426
0.17945059
0.18899734
0.20013421
0.21297566
0.22728569
0.24227208
0.25757369
0.27289703
0.28869996
0.30477779
0.31969234
0.34333667
0.56544696
2.1772699
6.1560077
11.130471
16.518484
22.038317
27.482413
32.714503
37.655329
42.265839
46.531737
50.453143
54.037437
57.29421
60.232681
62.860386
65.18281
67.203477
68.924783
70.348217
71.474066
72.300181
72.821303
73.027119
72.901458
72.413141
71.521032
70.160075
68.234131
65.6024
62.061944
57.327929
51.021539
42.729653
32.30702
20.64052
10.297615
3.7695505
0.93429623
0.15068297
0.24572947
0.38921817
0.099238775
0.099533257
0.099538822
0.099538644
0.099538614
0.099538617
0.099538617
0.099538617
0.099538615
0.099538609
0.099538614
0.099538613
0.099538611
0.099538606
0.099538593
0.099538603
0.099538597
0.099538605
0.099538602
0.099538589
0.099538601
0.0995386
0.099538555
0.0995386
0.099538609
0.099538758
0.09954023
0.099549701
0.099585406
0.099691124
0.099926248
0.10028309
0.10061193
0.10097334
0.10134303
0.10151983
0.10136358
0.10092392
0.10079671
0.10072478
0.10055663
0.10026517
0.09997013
0.099734836
0.099551334
0.099421822
0.099377825
0.099300677
0.099250414
0.099216247
0.099196322
0.099210147
0.099244952
0.099294579
0.099355457
0.09943734
0.099536943
0.099637632
0.099757827
0.099910731
0.10006857
0.10018887
0.10022885
0.10019885
0.1002549
0.1004569
0.10087258
0.10146071
0.10208585
0.10271206
0.10335947
0.10407821
0.10490583
0.10584265
0.10688386
0.10802684
0.10927328
0.11063036
0.11210521
0.11371376
0.11548926
0.11745423
0.11961762
0.12199393
0.12460324
0.12746982
0.13063184
0.13411715
0.1379355
0.14212679
0.1467339
0.15185078
0.15752463
0.16380846
0.17085367
0.17887894
0.18815745
0.19893379
0.21136989
0.22550231
0.2408959
0.25667528
0.2728452
0.28885642
0.30541355
0.3215349
0.34239813
0.49608618
1.7678363
5.4181764
10.269191
15.584325
21.075776
26.523255
31.77823
36.75184
41.398702
45.701216
49.658646
53.279238
56.57444
59.555666
62.232438
64.61148
66.69712
68.490886
69.992371
71.199841
72.108875
72.711887
72.99614
72.942058
72.523332
71.692593
70.384198
68.501241
65.902419
62.384326
57.661507
51.353814
43.04482
32.582358
20.845545
10.413002
3.8143139
0.94552509
0.15233305
0.24745713
0.39087459
0.099235298
0.099533135
0.099538821
0.099538644
0.099538615
0.099538617
0.099538615
0.099538618
0.099538616
0.099538609
0.099538613
0.099538613
0.09953861
0.099538605
0.099538593
0.099538601
0.099538599
0.099538602
0.099538601
0.099538586
0.0995386
0.099538598
0.099538555
0.0995386
0.099538607
0.099538753
0.099540177
0.099549496
0.099584738
0.099689437
0.099923285
0.10028001
0.10061011
0.10097039
0.10134129
0.10152295
0.10137145
0.10093179
0.1008022
0.10072952
0.10056457
0.10027546
0.099979989
0.099743259
0.099559017
0.099429755
0.099380724
0.099308058
0.099258676
0.099224297
0.099202458
0.099216962
0.099251232
0.099300712
0.099361762
0.099442566
0.099541275
0.099642048
0.099761561
0.099914746
0.10007541
0.10020294
0.10025542
0.10023305
0.10028576
0.10047662
0.10087178
0.10145133
0.10208009
0.10271042
0.10336209
0.10408147
0.10490736
0.10584381
0.10688624
0.10803379
0.10928859
0.1106569
0.11214342
0.11376269
0.11554537
0.11751422
0.11968122
0.12206
0.1246682
0.1275311
0.13068881
0.13416699
0.13797299
0.14214378
0.14673663
0.15181041
0.15742782
0.16362321
0.17053123
0.17837883
0.18741403
0.19784504
0.20984534
0.22362012
0.23913259
0.25554755
0.27215127
0.28889075
0.30569865
0.32273428
0.34251858
0.44772336
1.4199507
4.6980692
9.4099601
14.642756
20.099486
25.54673
30.823309
35.830055
40.514331
44.854241
48.847272
52.501835
55.830859
58.847939
61.564927
63.990558
66.130437
67.986899
69.55924
70.843795
71.834284
72.521086
72.889375
72.918715
72.57581
71.815967
70.571474
68.744257
66.19192
62.709987
58.011617
51.714322
43.396875
32.897764
21.085349
10.550011
3.8679289
0.95904512
0.1543869
0.24999511
0.39258355
0.099231698
0.099533011
0.099538819
0.099538644
0.099538616
0.099538615
0.099538613
0.099538619
0.099538615
0.09953861
0.099538614
0.099538612
0.099538611
0.099538606
0.099538593
0.099538598
0.099538598
0.0995386
0.099538596
0.099538583
0.0995386
0.099538591
0.099538553
0.099538595
0.099538609
0.099538751
0.099540129
0.099549288
0.099584065
0.099687726
0.09992027
0.10027685
0.10060826
0.10096732
0.10133949
0.10152604
0.10137938
0.10093996
0.10080779
0.10073428
0.10057257
0.10028588
0.099989971
0.099751759
0.099566827
0.099437694
0.099336134
0.099316895
0.099266135
0.09923321
0.099208917
0.099223761
0.099257618
0.099306725
0.09936797
0.099447751
0.099546001
0.099646594
0.099765269
0.099918413
0.10008201
0.10021603
0.10028085
0.10026741
0.100317
0.10049803
0.10087369
0.1014422
0.10207416
0.10270853
0.10336434
0.10408499
0.10490904
0.10584477
0.10688793
0.10803884
0.10930058
0.11067876
0.11217663
0.11380713
0.11559785
0.11757201
0.11974386
0.12212628
0.1247348
0.12759547
0.13074946
0.13422054
0.13801428
0.14216419
0.14674435
0.1517827
0.15734618
0.16346408
0.17025138
0.17794075
0.18675593
0.1968647
0.20843725
0.22177442
0.23713978
0.25407699
0.27125858
0.28872974
0.30588575
0.32339461
0.34291278
0.41620945
1.137576
4.0106631
8.5596953
13.700331
19.116265
24.560747
29.859626
34.902596
39.62864
44.010363
48.042324
51.732161
55.093642
58.142299
60.892473
63.35545
65.539029
67.446965
69.079176
70.432024
71.497351
72.263372
72.713195
72.82366
72.560583
71.876131
70.700265
68.933832
66.432889
62.991743
58.322236
52.039683
43.718564
33.188809
21.308616
10.678517
3.9184273
0.9717998
0.15637593
0.25278715
0.39434605
0.099227976
0.099532876
0.099538816
0.099538644
0.099538618
0.099538615
0.09953861
0.099538618
0.099538615
0.099538612
0.099538615
0.099538608
0.099538613
0.099538605
0.099538593
0.099538599
0.099538599
0.0995386
0.099538593
0.09953858
0.099538593
0.099538589
0.099538556
0.099538592
0.099538608
0.09953874
0.099540089
0.099549077
0.099583386
0.099685989
0.099917187
0.1002736
0.1006064
0.10096411
0.10133762
0.10152908
0.1013874
0.10094844
0.10081347
0.10073906
0.10058061
0.1002964
0.10000006
0.099760355
0.099574769
0.099444996
0.099348855
0.099327789
0.099273138
0.099242552
0.099216177
0.099230605
0.099263918
0.099312845
0.099373843
0.099453281
0.09955082
0.099651264
0.099769346
0.099921865
0.10008805
0.10022855
0.10030511
0.10030159
0.10034886
0.10052094
0.10087876
0.10143373
0.10206815
0.10270627
0.10336628
0.10408899
0.10491119
0.10584567
0.10688951
0.10804283
0.10931009
0.11069652
0.11220489
0.11384663
0.11564608
0.11762694
0.11980498
0.12219254
0.12480314
0.12766326
0.13081476
0.13427953
0.13806108
0.14219189
0.14675514
0.15177227
0.15728246
0.16332959
0.17001441
0.17756315
0.18617939
0.1959929
0.20716367
0.22004261
0.23507361
0.25219259
0.27013921
0.28788668
0.30591943
0.32374553
0.34326778
0.39612057
0.9151128
3.3656514
7.7195595
12.758448
18.126266
23.563251
28.882484
33.962201