/*--------------------------------*- C++ -*----------------------------------*\
| =========                 |                                                 |
| \\      /  F ield         | OpenFOAM: The Open Source CFD Toolbox           |
|  \\    /   O peration     | Version:  2506                                  |
|   \\  /    A nd           | Website:  www.openfoam.com                      |
|    \\/     M anipulation  |                                                 |
\*---------------------------------------------------------------------------*/
FoamFile
{
    version     2.0;
    format      ascii;
    arch        "LSB;label=32;scalar=64";
    class       volScalarField;
    location    "0.004";
    object      Ma;
}
// * * * * * * * * * * * * * * * * * * * * * * * * * * * * * * * * * * * * * //

dimensions      [0 0 0 0 0 0 0];

internalField   nonuniform List<scalar> 
192657
(
0.2996595
0.29955121
0.29960759
0.29958766
0.29959269
0.2995921
0.2995923
0.29959231
0.29959231
0.29959231
0.29959231
0.29959231
0.29959231
0.29959231
0.29959231
0.29959231
0.29959231
0.29959231
0.29959231
0.29959231
0.29959231
0.29959229
0.29959175
0.29958796
0.29956984
0.29950246
0.29931502
0.29897184
0.29874919
0.29969978
0.30345636
0.30896169
0.31352246
0.31585639
0.31849733
0.32293718
0.32672362
0.32945369
0.33333622
0.33735337
0.34061735
0.34472689
0.34862584
0.35263884
0.35690394
0.36121942
0.3656822
0.37029715
0.37498512
0.37989736
0.38487242
0.38996632
0.39515879
0.40038254
0.40580127
0.41115901
0.41645844
0.42178685
0.42708491
0.43233714
0.43748084
0.44251895
0.44743173
0.45217439
0.45670443
0.46111186
0.46529906
0.46928184
0.47304681
0.47661599
0.47995494
0.48309014
0.48602589
0.48877665
0.49133064
0.49371458
0.49590612
0.49796556
0.49985054
0.50162388
0.50324764
0.50476716
0.50619455
0.50748778
0.50872004
0.50984476
0.51089719
0.51192573
0.51285954
0.51373953
0.51459751
0.5153973
0.51614977
0.51688476
0.51759109
0.51826231
0.51892993
0.51958821
0.52021516
0.52081901
0.52140693
0.52194949
0.52262254
0.52254224
0.51664011
0.5043916
0.49332595
0.48338925
0.47421337
0.46561638
0.45749176
0.44977315
0.44241148
0.43536584
0.42859804
0.42207678
0.4157746
0.40966181
0.40370913
0.39789167
0.39219019
0.38658642
0.38106121
0.37559421
0.3701638
0.36474667
0.35931806
0.35385142
0.3483171
0.34268386
0.33691652
0.33097437
0.3248132
0.31838194
0.31161728
0.30444089
0.29675416
0.28841021
0.27917645
0.26867126
0.25641519
0.24168163
0.22339317
0.20006934
0.17027881
0.1343039
0.09522352
0.056264189
0.018698947
0.29965941
0.29955107
0.29960762
0.29958762
0.29959267
0.2995921
0.2995923
0.29959231
0.29959231
0.29959231
0.29959231
0.29959231
0.29959231
0.29959231
0.29959231
0.29959231
0.29959231
0.29959231
0.29959231
0.29959231
0.29959231
0.29959229
0.29959178
0.29958802
0.29957013
0.29950345
0.29931664
0.2989703
0.29873285
0.29963829
0.30334153
0.30884122
0.3134446
0.31578619
0.31838843
0.32281235
0.32662146
0.32933892
0.33319357
0.33722928
0.3404807
0.34456693
0.34847418
0.35246925
0.35672875
0.36103375
0.36548677
0.37009494
0.37477403
0.37967937
0.38464873
0.3897419
0.39493882
0.40016242
0.40558467
0.41095428
0.41626735
0.42160977
0.42693066
0.4322045
0.43737911
0.44245027
0.44740174
0.45216993
0.45675825
0.46120746
0.46542193
0.46945035
0.4732568
0.47686916
0.48025017
0.48342527
0.48639995
0.4891846
0.49177083
0.49418723
0.49641096
0.4985013
0.50041012
0.50220913
0.50385603
0.50538994
0.50680576
0.50812227
0.50937751
0.51051027
0.51157
0.51256236
0.5134612
0.5143138
0.51514602
0.51591508
0.51663077
0.51732187
0.51796981
0.51857696
0.51916839
0.51973271
0.52025006
0.52074107
0.52122377
0.52172638
0.52200931
0.52120344
0.51399911
0.50135206
0.49010564
0.47980353
0.47014155
0.46099471
0.45228143
0.44394159
0.43593163
0.42821506
0.42076217
0.41354866
0.40655318
0.39975391
0.39312539
0.38664398
0.38029823
0.37407018
0.36793914
0.36188265
0.3558767
0.34989546
0.34391134
0.33789456
0.33181094
0.32562258
0.31928539
0.31274702
0.30594818
0.29881782
0.29126584
0.28317928
0.27441616
0.26479368
0.25407243
0.24193205
0.22792844
0.2114462
0.19164358
0.16751759
0.13851657
0.10600516
0.073195722
0.042302933
0.01373633
0.29966028
0.29955097
0.2996078
0.29958763
0.29959265
0.2995921
0.2995923
0.29959231
0.29959231
0.29959231
0.29959231
0.29959231
0.29959231
0.29959231
0.29959231
0.29959231
0.29959231
0.29959231
0.29959231
0.29959231
0.29959231
0.2995923
0.29959179
0.29958799
0.29956988
0.29950247
0.29931289
0.29895857
0.29870348
0.29957864
0.30325334
0.30875522
0.31337868
0.31571129
0.31828751
0.32270075
0.32651818
0.32922264
0.33305998
0.33710148
0.34033921
0.34440848
0.34831861
0.35229852
0.35654981
0.3608432
0.36528826
0.36988688
0.37455525
0.37945414
0.3844188
0.38951079
0.39470782
0.39992987
0.40535978
0.41074205
0.4160727
0.42142618
0.42676831
0.43206389
0.43726625
0.44236811
0.44735612
0.45215346
0.45680529
0.46128848
0.46553264
0.46960867
0.47346221
0.47711646
0.48053988
0.48375687
0.48676963
0.48959323
0.49221516
0.49466438
0.49691909
0.49903702
0.50096901
0.50279309
0.50445106
0.5060054
0.50744736
0.50875458
0.50999457
0.51111595
0.51217016
0.51317263
0.51405962
0.514892
0.51568381
0.5163969
0.51705448
0.51768391
0.51826823
0.51880243
0.51930924
0.51978086
0.52020174
0.52058526
0.5209406
0.52123066
0.52164908
0.52133738
0.51444492
0.50145317
0.48994895
0.47941459
0.46953227
0.46019039
0.45131696
0.44285083
0.4347399
0.42693823
0.41940886
0.41212182
0.40505332
0.39818587
0.39150996
0.38501197
0.37866201
0.37243432
0.36630456
0.36024857
0.35424196
0.34825901
0.34227241
0.33625287
0.3301676
0.32398128
0.31765314
0.31113486
0.30437235
0.29730129
0.28984003
0.28188522
0.27330354
0.26391948
0.25349959
0.24172281
0.22812654
0.21204682
0.19260989
0.16880448
0.14009263
0.10778547
0.074880312
0.043513525
0.01420929
0.2996608
0.29955085
0.29960786
0.29958764
0.29959262
0.29959211
0.2995923
0.29959231
0.29959231
0.29959231
0.29959231
0.29959231
0.29959231
0.29959231
0.29959231
0.29959231
0.29959231
0.29959231
0.29959231
0.29959231
0.29959231
0.2995923
0.29959182
0.29958804
0.29957003
0.2995029
0.29931299
0.29895329
0.29868317
0.29951577
0.30313916
0.30863654
0.31329961
0.3156438
0.31818028
0.32257424
0.32641352
0.32910946
0.33291818
0.33697041
0.34019807
0.34424742
0.3481625
0.35212344
0.35636876
0.36065211
0.36508598
0.36967482
0.37433557
0.37922776
0.38418508
0.38927676
0.39447873
0.39969904
0.40513167
0.41052359
0.41586929
0.42123296
0.42659896
0.43191532
0.43714601
0.44228382
0.44730594
0.45213255
0.45684701
0.46136268
0.46564191
0.46976538
0.47366355
0.47735953
0.48082386
0.48408369
0.48713629
0.48999647
0.49265405
0.49513512
0.49742179
0.49956876
0.50152731
0.50337417
0.50505414
0.50661636
0.50805432
0.50938727
0.51063472
0.51174657
0.51277936
0.51373266
0.51458764
0.51539481
0.51615829
0.5168322
0.51744197
0.51801554
0.51853213
0.51899456
0.51942809
0.51981666
0.52014557
0.52044111
0.52071954
0.52100416
0.52102011
0.52040603
0.51395379
0.50087214
0.48912608
0.47831733
0.46817098
0.45859191
0.44949998
0.44082233
0.43250072
0.42449478
0.4167698
0.40929624
0.40204873
0.3950041
0.38813991
0.38143198
0.37486232
0.3684111
0.36205762
0.35578005
0.34955535
0.34335816
0.33716111
0.33093464
0.32464517
0.31825611
0.31172501
0.30500134
0.29802865
0.2907405
0.28305323
0.27486253
0.26603771
0.25641058
0.24576148
0.23379464
0.22009217
0.2040682
0.18490734
0.16161474
0.13367912
0.1024473
0.070888331
0.041037616
0.013343772
0.29966213
0.29955076
0.29960805
0.29958768
0.2995926
0.29959212
0.2995923
0.29959231
0.29959231
0.29959231
0.29959231
0.29959231
0.29959231
0.29959231
0.29959231
0.29959231
0.29959231
0.29959231
0.29959231
0.29959231
0.29959231
0.2995923
0.29959183
0.29958801
0.29956977
0.29950179
0.29930866
0.29894016
0.29865009
0.29945192
0.30304657
0.30855131
0.31323645
0.31557043
0.31807726
0.32246168
0.32631123
0.32899145
0.33278135
0.33684053
0.34005411
0.34408587
0.34800227
0.35194558
0.35618477
0.36045556
0.36487788
0.36945772
0.37410863
0.37899338
0.38394667
0.38903644
0.39423698
0.39945495
0.40489146
0.41029741
0.41565753
0.42103692
0.42642024
0.43175952
0.43701955
0.44218725
0.44724145
0.45210679
0.45687812
0.46142396
0.46574084
0.46991267
0.47385766
0.4775958
0.48110413
0.48440756
0.4875004
0.49039776
0.49309253
0.49560901
0.49793069
0.50010562
0.50208841
0.50395961
0.50565095
0.50723338
0.50867922
0.51000091
0.51124189
0.51235324
0.51339485
0.51434847
0.51517925
0.51595355
0.51666794
0.517291
0.51785497
0.51838453
0.51885543
0.51926703
0.51963973
0.51997027
0.52024788
0.52048818
0.52069997
0.52084222
0.5211049
0.52075798
0.51513685
0.50189701
0.48964501
0.47854408
0.46821752
0.45851801
0.44933511
0.44058006
0.43217848
0.42409259
0.41628303
0.40871723
0.40136969
0.39422112
0.38725997
0.3804776
0.37384058
0.36732547
0.3609112
0.35457679
0.34830001
0.34205471
0.33581283
0.32954554
0.32322062
0.31680333
0.31025347
0.30352328
0.29655922
0.28929757
0.28165754
0.27353699
0.26480513
0.25529106
0.24476807
0.23292523
0.21932043
0.20334273
0.18416629
0.16082806
0.13287851
0.1017232
0.070322732
0.040674787
0.013212007
0.29966284
0.29955064
0.29960811
0.29958771
0.29959257
0.29959213
0.2995923
0.29959231
0.29959231
0.29959231
0.29959231
0.29959231
0.29959231
0.29959231
0.29959231
0.29959231
0.29959231
0.29959231
0.29959231
0.29959231
0.29959231
0.2995923
0.29959186
0.29958806
0.29956987
0.29950202
0.29930822
0.29893406
0.29862762
0.29938881
0.3029282
0.30842918
0.31315428
0.31550328
0.31796966
0.32233321
0.32620514
0.32887516
0.33263692
0.33670686
0.33990787
0.34391958
0.34784028
0.35176507
0.35599668
0.36025682
0.36466741
0.36923988
0.37388217
0.37876015
0.38370393
0.38879041
0.39399428
0.39921248
0.40465064
0.41006616
0.41544007
0.42082986
0.42623518
0.43159512
0.43688188
0.44208654
0.44716711
0.45207736
0.45690178
0.46147462
0.46583516
0.47005521
0.47404619
0.47782469
0.48137683
0.48472352
0.48785898
0.49079647
0.49352954
0.49607986
0.49843386
0.50063665
0.50264859
0.5045433
0.50625365
0.50784569
0.50930828
0.51064785
0.51188134
0.51297535
0.51398514
0.51491055
0.51573169
0.51649822
0.5171958
0.51778946
0.51832066
0.51881214
0.51923979
0.5196084
0.51994329
0.52022969
0.52045941
0.52065712
0.52084021
0.52103191
0.52098012
0.52055094
0.51584151
0.50293283
0.49057986
0.47936608
0.46884293
0.45890119
0.44947829
0.4405269
0.43199949
0.42382238
0.41594539
0.40832928
0.40094022
0.39374662
0.3867187
0.3798293
0.37306827
0.36642042
0.35986679
0.35338761
0.34696428
0.34056852
0.3341714
0.32774761
0.32126691
0.31469551
0.30799342
0.30111212
0.2939969
0.28658301
0.27878889
0.27051288
0.26162726
0.25196779
0.24131947
0.22939112
0.21576661
0.19984273
0.18080012
0.15768456
0.13006737
0.099382915
0.068577432
0.039596125
0.012836362
0.29966441
0.29955055
0.29960827
0.29958775
0.29959255
0.29959214
0.2995923
0.29959231
0.29959231
0.29959231
0.29959231
0.29959231
0.29959231
0.29959231
0.29959231
0.29959231
0.29959231
0.29959231
0.29959231
0.29959231
0.29959231
0.29959231
0.29959188
0.29958805
0.29956966
0.29950099
0.29930393
0.2989204
0.29859254
0.29932252
0.30282782
0.30834044
0.31309073
0.3154317
0.31786344
0.32221818
0.32610105
0.32875476
0.3324984
0.33657273
0.33975878
0.34375455
0.34767444
0.35158131
0.35580698
0.3600555
0.36445322
0.36901528
0.37364646
0.37851614
0.3834538
0.38853968
0.39374327
0.39895775
0.40439494
0.40982712
0.41521148
0.42062043
0.42603873
0.43142308
0.43673843
0.44197275
0.44708034
0.45203919
0.4569108
0.4615162
0.46592065
0.4701893
0.47422566
0.4780455
0.48164401
0.48503582
0.48821402
0.49118991
0.49396159
0.49654933
0.49894202
0.50117558
0.50321674
0.5051365
0.50686557
0.50847848
0.50993602
0.51128073
0.512527
0.51363332
0.51466043
0.51557286
0.51636958
0.5171092
0.51777459
0.51834506
0.51885902
0.51933336
0.51974228
0.5200917
0.52040216
0.52066797
0.52088461
0.5210694
0.52122469
0.52132113
0.52154545
0.52135059
0.51744594
0.50490029
0.49203066
0.48059351
0.46997927
0.46000217
0.45054341
0.4415164
0.43286112
0.42453593
0.41650541
0.40873901
0.40120979
0.3938931
0.3867671
0.37981129
0.37300207
0.36631221
0.35971597
0.35318758
0.34670042
0.34023711
0.33377913
0.3273006
0.32077138
0.31415894
0.30742585
0.30052375
0.29339697
0.28598133
0.2781965
0.2699417
0.26108874
0.25147033
0.24086472
0.22896946
0.21535872
0.19943224
0.18037706
0.15724851
0.12963191
0.09897835
0.0682439
0.039371354
0.01275124
0.29966536
0.29955043
0.29960832
0.29958779
0.29959252
0.29959215
0.2995923
0.29959231
0.29959231
0.29959231
0.29959231
0.29959231
0.29959231
0.29959231
0.29959231
0.29959231
0.29959231
0.29959231
0.29959231
0.29959231
0.29959231
0.29959231
0.2995919
0.2995881
0.29956973
0.29950112
0.29930325
0.29891395
0.29856881
0.29926121
0.30270403
0.30821265
0.31300282
0.31536338
0.31775556
0.32208493
0.32599183
0.32863768
0.33235027
0.33643424
0.33960873
0.34358291
0.34750632
0.35139546
0.35561429
0.35985223
0.36423412
0.36878816
0.3734108
0.37827424
0.38320282
0.38828301
0.39348785
0.39870334
0.40414128
0.40958294
0.41497925
0.4203998
0.42583566
0.43124232
0.43658418
0.44185269
0.44698737
0.45199663
0.45690724
0.46154649
0.46600094
0.47031523
0.47439744
0.47825775
0.48190339
0.48533957
0.4885626
0.49158095
0.49439397
0.49701842
0.49944622
0.50170973
0.50378265
0.50572765
0.50747436
0.50910671
0.51059816
0.51194928
0.51318478
0.51428106
0.51529145
0.51621167
0.51701967
0.51776534
0.51842397
0.5189786
0.51947977
0.51993999
0.52033212
0.5206652
0.52096553
0.52122091
0.52142596
0.52160426
0.52176808
0.52193302
0.52188864
0.5216418
0.51861897
0.50699758
0.49389434
0.48230937
0.47152797
0.46137875
0.45177177
0.44263601
0.43390809
0.42553138
0.41745725
0.40964488
0.40205998
0.39467338
0.38746088
0.38040088
0.37347427
0.36666405
0.35995257
0.35332072
0.34674812
0.34021172
0.333685
0.32713692
0.3205331
0.3138366
0.30700472
0.29999077
0.29274462
0.28520582
0.27729679
0.26891926
0.25994852
0.25022228
0.23952314
0.22755995
0.21391258
0.19798381
0.17896295
0.15590888
0.12841565
0.097948048
0.067461626
0.038879997
0.012577345
0.29966709
0.29955034
0.29960847
0.29958785
0.29959249
0.29959216
0.2995923
0.29959231
0.29959231
0.29959231
0.29959231
0.29959231
0.29959231
0.29959231
0.29959231
0.29959231
0.29959231
0.29959231
0.29959231
0.29959231
0.29959231
0.29959231
0.29959192
0.29958812
0.29956957
0.29950023
0.29929919
0.29890009
0.29853252
0.29919239
0.30259523
0.30812064
0.31293769
0.31529186
0.31764369
0.32196669
0.32588711
0.32851404
0.3322067
0.33629571
0.33945442
0.34341447
0.34733684
0.35120688
0.35541784
0.35964218
0.36400985
0.36855536
0.37316826
0.37802311
0.38294357
0.38802147
0.39322627
0.39843767
0.4038718
0.40932847
0.41473372
0.42017401
0.42562222
0.43105398
0.43642362
0.44172309
0.44688474
0.45194479
0.4568909
0.4615678
0.46607334
0.470433
0.47456002
0.47846284
0.48215705
0.48563999
0.48890775
0.49196653
0.49482087
0.49748411
0.49995355
0.50225217
0.5043605
0.50633354
0.50811028
0.50976483
0.51125446
0.51263452
0.51389756
0.51501414
0.51603898
0.5169406
0.51774026
0.51847867
0.51913304
0.5196937
0.52020151
0.5206639
0.52105745
0.52139484
0.52169591
0.52195461
0.52216858
0.52235631
0.52251699
0.52262802
0.52287275
0.52282743
0.52042116
0.50965553
0.49609498
0.48431921
0.47344538
0.46322885
0.4535503
0.44433002
0.43550639
0.42702935
0.41885666
0.41095194
0.40328307
0.39582082
0.38853953
0.38141575
0.37442682
0.36755123
0.36076787
0.35405564
0.3473937
0.34076003
0.33413121
0.32748181
0.32078231
0.31400026
0.30709723
0.30002658
0.29273585
0.28516162
0.27722308
0.26881925
0.25982252
0.25006811
0.23934277
0.22735109
0.21367261
0.19771169
0.17866025
0.15558081
0.12807457
0.097619818
0.067183885
0.038689803
0.012504545
0.29966811
0.29955022
0.29960852
0.2995879
0.29959246
0.29959217
0.29959231
0.29959231
0.29959231
0.29959231
0.29959231
0.29959231
0.29959231
0.29959231
0.29959231
0.29959231
0.29959231
0.29959231
0.29959231
0.29959231
0.29959231
0.29959231
0.29959195
0.29958817
0.29956964
0.2995003
0.29929837
0.29889353
0.29850775
0.29913228
0.30246778
0.3079892
0.31284086
0.31522045
0.31753514
0.32182947
0.32577242
0.3283936
0.33205406
0.33615153
0.33930225
0.3432391
0.34716176
0.35101367
0.35521749
0.35943221
0.36378462
0.36832158
0.37292415
0.3777712
0.38268288
0.38775325
0.39295846
0.39817129
0.40360433
0.40907103
0.41448692
0.41994035
0.42540167
0.43085778
0.43625345
0.44158164
0.44677473
0.45188627
0.45685739
0.46157886
0.46613871
0.47053978
0.47471297
0.47865899
0.48240182
0.48593208
0.48924602
0.49234758
0.49524604
0.49794871
0.50045855
0.50279142
0.50493437
0.50693619
0.50873418
0.51042064
0.51194774
0.51333067
0.51459691
0.51572305
0.5167625
0.51770083
0.51851988
0.5192702
0.51992502
0.52048394
0.52099789
0.52146835
0.52186731
0.52220925
0.52252084
0.52279146
0.52301678
0.52321905
0.52340633
0.52358334
0.52358219
0.52348232
0.521798
0.5124183
0.49865727
0.48671048
0.4756966
0.46534927
0.45556041
0.44625204
0.43735807
0.4288221
0.42059595
0.41263875
0.40491543
0.39739534
0.39005244
0.38286359
0.37580693
0.36886156
0.36200704
0.35522286
0.34848804
0.34178008
0.33507494
0.3283466
0.32156518
0.31469822
0.30770772
0.30054794
0.2931676
0.28550562
0.27748401
0.26900438
0.25994167
0.25013312
0.23936361
0.22733931
0.21363911
0.19766581
0.1786087
0.15552506
0.12800675
0.097530769
0.067084392
0.038607654
0.01246837
0.29967008
0.29955013
0.29960865
0.29958797
0.29959243
0.29959218
0.29959231
0.29959231
0.29959231
0.29959231
0.29959231
0.29959231
0.29959231
0.29959231
0.29959231
0.29959231
0.29959231
0.29959231
0.29959231
0.29959231
0.29959231
0.29959231
0.29959197
0.2995882
0.29956953
0.29949955
0.29929463
0.29887974
0.29847069
0.29906018
0.30235047
0.30789374
0.31277243
0.31514955
0.31741857
0.32170528
0.32566395
0.32826701
0.33190621
0.33600939
0.33914361
0.34306233
0.34698437
0.35081851
0.35501547
0.35921761
0.36355306
0.36808118
0.37267331
0.37751155
0.38241442
0.38748115
0.39268693
0.39789424
0.40332276
0.40880055
0.41422726
0.4196963
0.42517293
0.43065158
0.43607423
0.44143392
0.44665825
0.45181647
0.45681532
0.46158171
0.46619713
0.47063817
0.47485644
0.47884936
0.48264171
0.48622012
0.48958271
0.49272604
0.49566993
0.49841304
0.50096599
0.50333811
0.50552177
0.50755605
0.50939358
0.51110639
0.5126517
0.51408075
0.51537792
0.51652687
0.51757621
0.51850812
0.51934718
0.52011675
0.52079357
0.52137931
0.52191472
0.52239839
0.52281226
0.52317483
0.52350568
0.52379487
0.52404294
0.52426698
0.52446254
0.52461418
0.52490168
0.52497497
0.52365113
0.5154393
0.50147311
0.4893132
0.47819245
0.46776207
0.45789492
0.44850714
0.43953335
0.43091943
0.42261903
0.41459203
0.40680316
0.39922081
0.3918176
0.38456896
0.3774518
0.37044438
0.36352556
0.35667443
0.34987016
0.34309057
0.33631206
0.32950914
0.32265242
0.31570991
0.30864401
0.30140932
0.29395492
0.28622008
0.27812723
0.26957856
0.26044977
0.25057864
0.23974994
0.22766968
0.21391781
0.19789819
0.1787996
0.15567441
0.1281042
0.097565206
0.067068915
0.038574077
0.012448165
0.29967138
0.29955002
0.29960867
0.29958803
0.29959239
0.29959219
0.29959231
0.29959231
0.29959231
0.29959231
0.29959231
0.29959231
0.29959231
0.29959231
0.29959231
0.29959231
0.29959231
0.29959231
0.29959231
0.29959231
0.29959231
0.29959231
0.29959199
0.29958827
0.2995696
0.2994996
0.29929371
0.29887309
0.29844493
0.29900054
0.30221969
0.30775677
0.31266805
0.31507467
0.31730637
0.3215625
0.32554381
0.32814535
0.33174997
0.33585751
0.33898495
0.34288147
0.34680571
0.35062178
0.35480968
0.35900064
0.36331954
0.36783848
0.37242047
0.37725133
0.38214624
0.38720296
0.39240668
0.39761355
0.40304175
0.40852789
0.41396465
0.41944818
0.42493498
0.43043834
0.43588664
0.44127132
0.44653594
0.45173634
0.45675835
0.46157863
0.46624422
0.4707252
0.47499041
0.47903022
0.48287306
0.4864999
0.48990966
0.49309581
0.49608564
0.49887168
0.50147102
0.50388148
0.50610384
0.50817233
0.51003965
0.51179335
0.51336932
0.51481248
0.5161379
0.51732061
0.51841422
0.51939142
0.52025042
0.5210354
0.52172354
0.52232557
0.5228841
0.52339345
0.52382886
0.52421222
0.52456709
0.52488159
0.52515289
0.52540189
0.52563411
0.52584555
0.52589033
0.52591953
0.52513121
0.51846771
0.50464358
0.49224191
0.48098353
0.47044277
0.46048513
0.45101987
0.44197992
0.4333085
0.42495664
0.41688201
0.40904755
0.40142022
0.39397155
0.38667613
0.37951013
0.37245124
0.36547778
0.35856865
0.35170306
0.34485878
0.33801238
0.3311387
0.32420882
0.31719129
0.31004916
0.30273767
0.29520665
0.28739608
0.27922912
0.27060842
0.26140941
0.25146953
0.24057401
0.22842947
0.21461613
0.19853738
0.17937965
0.15618769
0.12852731
0.09786806
0.067249111
0.038658299
0.012467879
0.29967354
0.29954994
0.29960878
0.29958811
0.29959236
0.2995922
0.29959231
0.29959231
0.29959231
0.29959231
0.29959231
0.29959231
0.29959231
0.29959231
0.29959231
0.29959231
0.29959231
0.29959231
0.29959231
0.29959231
0.29959231
0.29959231
0.29959201
0.29958833
0.29956956
0.299499
0.29929033
0.29885957
0.29840728
0.29892502
0.3020951
0.30765321
0.31259887
0.3150037
0.31718457
0.32143215
0.32543328
0.32801572
0.33159496
0.33570867
0.3388232
0.34270077
0.34662431
0.35041915
0.35459987
0.35877882
0.36308161
0.3675904
0.37216155
0.37698234
0.38186546
0.38691693
0.39212443
0.39732453
0.40274914
0.40824164
0.41369181
0.41918475
0.42469248
0.43021475
0.43569012
0.44110474
0.44640747
0.45164383
0.4566876
0.46156752
0.46628601
0.47080387
0.47511678
0.47920682
0.48310012
0.48677563
0.49023554
0.49346748
0.49650676
0.49933593
0.50197971
0.50443157
0.5066987
0.50880441
0.51071559
0.5125043
0.51412424
0.51561586
0.51696905
0.51817683
0.51928531
0.52028678
0.52119318
0.5220209
0.52274886
0.52338826
0.52397794
0.52450954
0.52497092
0.52538571
0.52577026
0.5261121
0.52641389
0.52669074
0.52693618
0.52714265
0.5274819
0.52764572
0.5270045
0.52150375
0.50800849
0.49530341
0.48392794
0.47330398
0.46326933
0.45372952
0.44461842
0.4358802
0.42746655
0.41933507
0.41144807
0.40377144
0.39627553
0.38893372
0.38172112
0.37461452
0.36759158
0.36063017
0.35370888
0.34680548
0.33989644
0.33295668
0.32595754
0.31886803
0.31165166
0.30426426
0.29665637
0.28876859
0.28052413
0.27182554
0.2625489
0.2525326
0.24156266
0.22934628
0.21546385
0.19931808
0.18009246
0.15682296
0.12905742
0.098257017
0.067490844
0.038778995
0.012499725
0.29967507
0.29954984
0.29960879
0.29958819
0.29959232
0.29959221
0.29959231
0.29959231
0.29959231
0.29959231
0.29959231
0.29959231
0.29959231
0.29959231
0.29959231
0.29959231
0.29959231
0.29959231
0.29959231
0.29959231
0.29959231
0.29959231
0.29959204
0.2995884
0.29956964
0.29949904
0.29928936
0.29885277
0.29838058
0.2988641
0.30196222
0.30750804
0.31248971
0.31492514
0.3170694
0.32128367
0.32530652
0.32788951
0.3314334
0.33555097
0.33866262
0.34251283
0.3464381
0.35021566
0.35438676
0.35855529
0.36283993
0.36733935
0.37189986
0.37671233
0.38158754
0.38662959
0.39183456
0.39703174
0.40245429
0.40795485
0.41341554
0.41892134
0.42443987
0.42998515
0.43548448
0.44092288
0.44627075
0.45153879
0.45660444
0.4615469
0.4663147
0.47087171
0.47523206
0.47937296
0.48331768
0.48704216
0.49054975
0.49382579
0.4969137
0.49978798
0.50248245
0.50497736
0.50728827
0.50943376
0.51138737
0.51321949
0.51486315
0.51639263
0.51779719
0.51905615
0.52022241
0.52126051
0.52219101
0.52304337
0.52379951
0.52447516
0.52510196
0.52567098
0.52616536
0.52661198
0.52702838
0.5274022
0.52773252
0.52803988
0.52832707
0.52858204
0.5286752
0.528822
0.52856948
0.52445697
0.51169965
0.49864441
0.48713262
0.47641284
0.46629804
0.45668807
0.44751425
0.43872063
0.43025825
0.42208372
0.41415809
0.40644594
0.39891625
0.39154112
0.38429453
0.37715235
0.37009145
0.36308915
0.35612331
0.34917106
0.34220865
0.33521099
0.32814958
0.32099375
0.31370745
0.30624685
0.29856255
0.29059525
0.28226878
0.2734866
0.26412551
0.25402452
0.2429701
0.23066975
0.21670374
0.20047372
0.18115952
0.15778617
0.12987831
0.098883121
0.067903742
0.039001846
0.012565846
0.29967746
0.29954978
0.29960887
0.29958829
0.29959229
0.29959223
0.29959231
0.29959231
0.29959231
0.29959231
0.29959231
0.29959231
0.29959231
0.29959231
0.29959231
0.29959231
0.29959231
0.29959231
0.29959231
0.29959231
0.29959231
0.29959232
0.29959206
0.29958848
0.29956965
0.29949859
0.29928635
0.2988397
0.29834238
0.29878499
0.30183091
0.30739573
0.31242012
0.31485488
0.31694127
0.32114593
0.32519099
0.32775778
0.33127407
0.33539692
0.33849511
0.34232491
0.34625075
0.35000734
0.35416978
0.35832581
0.36259511
0.36708441
0.37163173
0.37643422
0.38129858
0.38633234
0.39153917
0.39673179
0.40214968
0.40765169
0.41312723
0.41863904
0.42417996
0.42974252
0.43526852
0.44073546
0.44612769
0.45142487
0.45651563
0.46152136
0.46633561
0.47093126
0.47534213
0.47953468
0.48353143
0.48730601
0.49086415
0.49418956
0.49733028
0.50025084
0.50299253
0.50552979
0.50788735
0.51007457
0.51207335
0.51395126
0.51565623
0.51722565
0.5186582
0.51995074
0.52114899
0.52224509
0.52323682
0.52414297
0.52494616
0.52566493
0.52633208
0.52693473
0.52746561
0.5279508
0.52840312
0.52880947
0.52917443
0.5295118
0.52981451
0.53008386
0.53047392
0.53071741
0.53047214
0.52725916
0.51548292
0.50205663
0.49042482
0.4796267
0.46943969
0.45976099
0.45052039
0.44166492
0.4331467
0.42492251
0.41695297
0.40920176
0.40163669
0.39422857
0.38695009
0.37977597
0.3726819
0.36564396
0.35863894
0.35164321
0.34463268
0.33758203
0.33046267
0.32324393
0.31588988
0.30835698
0.30059647
0.29254984
0.28414155
0.2752756
0.26582929
0.25564204
0.24450064
0.23211272
0.21805822
0.20173746
0.18232633
0.15883885
0.1307765
0.099572042
0.068362661
0.039252758
0.012641613
0.29967925
0.29954969
0.29960888
0.29958838
0.29959227
0.29959224
0.29959231
0.29959231
0.29959231
0.29959231
0.29959231
0.29959231
0.29959231
0.29959231
0.29959231
0.29959231
0.29959231
0.29959231
0.29959231
0.29959231
0.29959231
0.29959232
0.29959208
0.29958857
0.29956976
0.29949864
0.29928535
0.29883271
0.29831509
0.29872191
0.30169749
0.30724387
0.31230373
0.3147703
0.3168213
0.32099168
0.3250595
0.32762955
0.3311086
0.33522965
0.33832832
0.34213133
0.34605824
0.34979757
0.35394852
0.35809542
0.36234829
0.36682652
0.37136179
0.37615482
0.3810099
0.38603425
0.39123692
0.39642506
0.40184084
0.40734931
0.41283612
0.41835933
0.42391437
0.42949516
0.43504553
0.44053781
0.44597318
0.45129356
0.45642059
0.46148348
0.46634243
0.47098009
0.47544099
0.47968633
0.48373472
0.48755919
0.49116589
0.49453876
0.49773069
0.50069782
0.50349151
0.50607553
0.50848153
0.51071297
0.51276535
0.51468624
0.51641783
0.51804793
0.51954117
0.52088819
0.52213991
0.52326317
0.52429105
0.52523669
0.52608763
0.52685866
0.5275728
0.52822049
0.52879306
0.52931867
0.5298095
0.53025204
0.53064882
0.53101934
0.53136556
0.53166871
0.53181035
0.5320695
0.53212182
0.52995517
0.51948012
0.50571152
0.49394126
0.48306098
0.47280009
0.4630531
0.45375067
0.44484007
0.43627353
0.42800774
0.42000283
0.41222169
0.40463108
0.39720055
0.3899016
0.38270738
0.37559176
0.36852948
0.36149654
0.35446863
0.34742102
0.34032791
0.33316039
0.32588768
0.31847392
0.31087572
0.3030446
0.2949224
0.28643398
0.27748377
0.26794947
0.25767089
0.24643515
0.23395001
0.21979504
0.20336906
0.18384335
0.16021854
0.13196692
0.10050013
0.068993956
0.039606181
0.012751616
0.29968181
0.29954964
0.29960893
0.29958848
0.29959224
0.29959225
0.29959231
0.29959231
0.29959231
0.29959231
0.29959231
0.29959231
0.29959231
0.29959231
0.29959231
0.29959231
0.29959231
0.29959231
0.29959231
0.29959231
0.29959231
0.29959232
0.2995921
0.29958866
0.29956983
0.29949834
0.29928274
0.29882021
0.29827649
0.29863985
0.30155856
0.30712083
0.3122305
0.31470106
0.31668779
0.32084914
0.32494016
0.32749434
0.33094134
0.33506742
0.33815783
0.34193759
0.3458654
0.34958391
0.35372477
0.35786032
0.36209556
0.36656244
0.37108403
0.37586697
0.38070972
0.38572531
0.39092966
0.3961141
0.40152439
0.40703229
0.41253278
0.41806254
0.4236374
0.42923646
0.43481116
0.44033168
0.4458111
0.4511509
0.45631834
0.46143947
0.46634218
0.47102405
0.4755372
0.4798348
0.48393542
0.48781136
0.4914695
0.49489349
0.49813908
0.50115488
0.50399974
0.50662866
0.50908324
0.51136046
0.5134589
0.51543306
0.51722628
0.51888911
0.520419
0.5218135
0.52311924
0.52431799
0.52540416
0.52640282
0.52729979
0.52811761
0.52888125
0.52957413
0.53019311
0.53076563
0.53129879
0.53178047
0.53221606
0.53261899
0.53298428
0.53332068
0.53376328
0.53406548
0.53405786
0.53244143
0.52339818
0.50940834
0.49749518
0.48653838
0.47620627
0.46639337
0.45702896
0.4480594
0.43943902
0.43112555
0.42307951
0.41526363
0.40764405
0.40018935
0.39286973
0.38565681
0.37852303
0.37144195
0.36438825
0.35733647
0.3502608
0.34313454
0.33592818
0.32861053
0.3211455
0.31348967
0.30559468
0.29740262
0.28883868
0.27980761
0.27018749
0.25981842
0.24848776
0.23590324
0.22164388
0.20510676
0.1854584
0.16168626
0.13323401
0.1014917
0.069672804
0.039989109
0.012871938
0.29968393
0.29954957
0.29960894
0.29958859
0.29959222
0.29959226
0.29959231
0.29959231
0.29959231
0.29959231
0.29959231
0.29959231
0.29959231
0.29959231
0.29959231
0.29959231
0.29959231
0.29959231
0.29959231
0.29959231
0.29959231
0.29959232
0.29959212
0.29958877
0.29956997
0.29949842
0.29928176
0.29881306
0.29824861
0.29857423
0.30142491
0.30696339
0.31210655
0.31461076
0.31656362
0.32069112
0.32479973
0.32736095
0.33077146
0.33489274
0.33798804
0.34173942
0.34566582
0.34936876
0.3534952
0.35762101
0.3618401
0.36629767
0.37080622
0.37557736
0.38040944
0.38541788
0.39061704
0.39579502
0.40120223
0.40671472
0.41222662
0.41776686
0.42335753
0.42897086
0.43456901
0.44011844
0.44563325
0.45099552
0.45621202
0.46138161
0.46632733
0.47105414
0.47562217
0.47997286
0.48412498
0.48805101
0.4917599
0.49523497
0.49853363
0.50159784
0.50449455
0.50717218
0.50967864
0.51200325
0.51416002
0.5161769
0.51801041
0.51974229
0.52132713
0.5227694
0.52411584
0.52534419
0.5264818
0.52753393
0.52849213
0.52936804
0.53018085
0.53092037
0.53158737
0.53220661
0.53278484
0.53330739
0.53377964
0.53422128
0.53463227
0.53498783
0.53518815
0.53553479
0.53577107
0.53485458
0.52735013
0.51332786
0.50122702
0.49018646
0.47978385
0.46990728
0.46048433
0.45145948
0.44278909
0.43443186
0.42634882
0.41850268
0.41085921
0.40338629
0.39605294
0.38882943
0.38168698
0.37459774
0.36753497
0.36047164
0.3533806
0.3462341
0.33900164