/*--------------------------------*- C++ -*----------------------------------*\
| =========                 |                                                 |
| \\      /  F ield         | OpenFOAM: The Open Source CFD Toolbox           |
|  \\    /   O peration     | Version:  2506                                  |
|   \\  /    A nd           | Website:  www.openfoam.com                      |
|    \\/     M anipulation  |                                                 |
\*---------------------------------------------------------------------------*/
FoamFile
{
    version     2.0;
    format      ascii;
    arch        "LSB;label=32;scalar=64";
    class       volScalarField;
    location    "0.004";
    object      p;
}
// * * * * * * * * * * * * * * * * * * * * * * * * * * * * * * * * * * * * * //

dimensions      [1 -1 -2 0 0 0 0];

internalField   nonuniform List<scalar> 
428467
(
47899.152
49682.111
48607.234
48684.523
47976.144
47497.444
47188.787
47046.36
46991.565
46974.848
46970.845
46970.119
46970.015
46970.002
46970
46970
46970
46970
46970
46970
46970
46970
46970
46970
46970
46970
46970
46970
46970
46970
46970
46970
46970
46970
46970
46970
46970
46970
46970
46970
46970
46970
46970
46970
46970
46970
46970
46970
46970
46970
46970
46970
46970
46970
46970
46970
46970
46970
46970
46970
46970
46970
46970
46970
46970
46970
46970
46970
46970
46970
46970
46970
46970
46970
46970
46970
46970
46970
46970
46970
46970
46970
46970
46970
46970
46970
46970
46970
46970
46970
46970
46970
46970
46970
46970
46970
46970
46970
46970.001
46970.003
46970.014
46970.054
46970.193
46970.644
46971.987
46975.642
46984.69
47004.922
47045.448
47117.87
47232.562
47384.607
47533.736
47618.005
47599.152
47470.135
47288.854
47109.251
46996.737
46917.006
46842.975
46769.388
46701.62
46639.915
46582.728
46529.491
46479.537
46432.448
46387.904
46345.685
46305.556
46267.287
46230.687
46195.59
46161.837
46129.283
46097.804
46067.307
46037.73
46009.009
45981.072
45953.847
45927.266
45901.273
45875.813
45850.851
45826.368
45802.334
45778.694
45755.377
45732.32
45709.486
45686.863
45664.46
45642.285
45620.319
45598.5
45576.719
45554.867
45532.89
45510.809
45488.69
45466.595
45444.564
45422.614
45400.732
45378.857
45356.886
45334.722
45312.305
45289.625
45266.689
45243.514
45220.128
45196.572
45172.9
45149.143
45125.279
45101.223
45076.853
45052.061
45026.802
45001.104
44975.033
44948.621
44921.88
44894.835
44867.527
44839.978
44812.225
44784.224
44755.864
44726.994
44697.508
44667.438
44636.894
44605.962
44574.659
44543.305
44512.771
44484.843
44446.538
44406.646
44377.694
44349.442
44320.237
44272.533
44235.04
44207.804
44170.641
44134.29
44096.05
44055.891
44011.777
43972.933
43936.897
43902.944
43867.409
43819.47
43776.716
43741.36
43704.426
43661.372
43620.342
43581.175
43539.382
43487.297
43438.565
43400.564
43358.26
43319.309
43281.508
43226.963
43173.86
43135.271
43093.423
43066.281
43025.979
42974.381
42935.759
42894.458
42845.478
42797.717
42752.728
42702.001
42660.375
42628.828
42588.699
42539.776
42497.362
42448.555
42397.909
42351.812
42318.378
42290.647
42237.575
42182.564
42142.222
42112.149
42064.847
42012.258
41981.829
41956.862
41923.481
41867.265
41813.917
41780.843
41760.211
41726.161
41679.551
41634.062
41593.134
41555.169
41533.533
41511.647
41496.085
41455.602
41390.598
41341.355
41306.402
41281.739
41263.483
41243.388
41217.266
41184.811
41149.32
41105.846
41059.352
41021.99
40992.704
40970.102
40948.057
40927.396
40910.381
40883.058
40852.123
40817.732
40777.108
40727.718
47892.317
49507.997
48546.343
48528.304
47871.987
47430.008
47156.812
47033.967
46987.719
46973.826
46970.611
46970.079
46970.009
46970.001
46970
46970
46970
46970
46970
46970
46970
46970
46970
46970
46970
46970
46970
46970
46970
46970
46970
46970
46970
46970
46970
46970
46970
46970
46970
46970
46970
46970
46970
46970
46970
46970
46970
46970
46970
46970
46970
46970
46970
46970
46970
46970
46970
46970
46970
46970
46970
46970
46970
46970
46970
46970
46970
46970
46970
46970
46970
46970
46970
46970
46970
46970
46970
46970
46970
46970
46970
46970
46970
46970
46970
46970
46970
46970
46970
46970
46970
46970
46970
46970
46970
46970
46970
46970
46970.001
46970.003
46970.012
46970.048
46970.175
46970.588
46971.831
46975.25
46983.798
47003.097
47042.147
47112.608
47224.946
47376.959
47531.987
47625.654
47615.608
47494.57
47314.162
47129.471
47013.835
46934.538
46860.996
46787.408
46719.194
46657.154
46599.71
46546.282
46496.16
46448.923
46404.24
46361.887
46321.65
46283.291
46246.605
46211.426
46177.601
46144.992
46113.474
46082.948
46053.346
46024.601
45996.643
45969.402
45942.812
45916.814
45891.348
45866.377
45841.884
45817.849
45794.227
45770.944
45747.933
45725.146
45702.561
45680.178
45658.008
45636.051
45614.268
45592.566
45570.831
45548.983
45527.02
45504.991
45482.959
45460.967
45439.042
45417.184
45395.348
45373.448
45351.387
45329.105
45306.583
45283.817
45260.808
45237.563
45214.113
45190.507
45166.794
45142.974
45118.982
45094.709
45070.047
45044.933
45019.378
44993.436
44967.14
44940.511
44913.57
44886.359
44858.889
44831.197
44803.256
44774.974
44746.218
44716.876
44686.983
44656.746
44626.352
44595.444
44562.72
44528.368
44497.814
44473.622
44432.935
44390.221
44359.809
44332.788
44300.061
44259.074
44221.525
44198.362
44159.861
44117.564
44075.472
44033.288
43992.587
43951.173
43909.406
43874.996
43835.266
43794.745
43760.219
43721.712
43672.582
43636.145
43598.943
43552.695
43514.187
43472.066
43425.87
43381.154
43334.382
43288.456
43240.395
43193.013
43153.229
43114.961
43067.996
43024.807
42986.574
42946.124
42903.076
42852.704
42811.822
42767.028
42719.615
42676.532
42636.636
42591.484
42537.726
42480.238
42439.591
42410.064
42372.029
42318.937
42266.804
42224.824
42187.079
42157.283
42105.746
42047.559
42020.172
41990.463
41937.261
41882.881
41844.644
41818.733
41796.401
41742.717
41683.247
41649.043
41618.331
41595.108
41573.908
41531.838
41490.442
41441.571
41392.451
41347.955
41316.125
41300.14
41286.421
41257.277
41215.453
41172.02
41136.109
41105.112
41072.134
41043.911
41020.771
40998.779
40976.521
40953.254
40930.254
40906.404
40879.637
40859.21
40836.567
40812.411
40803.837
47890.974
49302.98
48468.885
48361.195
47760.71
47361.023
47125.086
47021.914
46983.984
46972.862
46970.427
46970.052
46970.006
46970.001
46970
46970
46970
46970
46970
46970
46970
46970
46970
46970
46970
46970
46970
46970
46970
46970
46970
46970
46970
46970
46970
46970
46970
46970
46970
46970
46970
46970
46970
46970
46970
46970
46970
46970
46970
46970
46970
46970
46970
46970
46970
46970
46970
46970
46970
46970
46970
46970
46970
46970
46970
46970
46970
46970
46970
46970
46970
46970
46970
46970
46970
46970
46970
46970
46970
46970
46970
46970
46970
46970
46970
46970
46970
46970
46970
46970
46970
46970
46970
46970
46970
46970
46970
46970
46970.001
46970.002
46970.011
46970.042
46970.156
46970.531
46971.672
46974.846
46982.871
47001.193
47038.759
47107.335
47217.419
47368.721
47528.87
47632.65
47632.049
47518.998
47338.655
47152.409
47031.585
46952.034
46878.907
46805.602
46737.063
46674.778
46617.103
46563.491
46513.198
46465.8
46420.979
46378.502
46338.158
46299.712
46262.945
46227.687
46193.789
46161.12
46129.559
46099.004
46069.378
46040.613
46012.635
45985.378
45958.779
45932.776
45907.308
45882.331
45857.828
45833.79
45810.176
45786.92
45763.95
45741.21
45718.667
45696.309
45674.148
45652.196
45630.437
45608.797
45587.167
45565.449
45543.613
45521.69
45499.737
45477.798
45455.907
45434.074
45412.271
45390.426
45368.452
45346.288
45323.91
45301.307
45278.468
45255.381
45232.055
45208.535
45184.876
45161.1
45137.165
45112.977
45088.433
45063.458
45038.046
45012.236
44986.058
44959.543
44932.702
44905.586
44878.194
44850.568
44822.697
44794.506
44765.867
44736.639
44706.804
44676.565
44646.258
44616.176
44585.784
44552.476
44513.718
44482.193
44461.771
44433
44384.173
44333.058
44309.682
44282.592
44240.739
44214.764
44185.002
44141.032
44100.533
44062.785
44024.654
43985.707
43930.036
43884.426
43858.448
43810.746
43767.844
43735.481
43685.371
43640.282
43604.268
43564.368
43530.291
43493.896
43449.241
43403.284
43353.942
43308.612
43266.348
43221.111
43174.944
43124.791
43077.169
43033.568
43005.228
42962.146
42910.238
42866.623
42815.91
42765.935
42730.546
42694.651
42637.703
42581.858
42534.321
42486.522
42448.479
42410.494
42361.863
42315.551
42273.153
42228.831
42186.773
42144.403
42097.782
42058.978
42024.642
41969.694
41911.584
41871.392
41852.478
41817.511
41757.768
41708.629
41677.534
41647.303
41618.006
41579.627
41543.39
41504.618
41460.324
41416.053
41373.292
41342.711
41329.843
41301.94
41252.23
41205.522
41172.877
41147.732
41124.875
41102.412
41078.521
41059.288
41033.633
41000.278
40962.542
40927.582
40894.65
40855.672
40861.341
40852.268
40838.289
40841.93
40838.424
47887.098
49065.676
48372.78
48181.941
47646.241
47293.615
47095.077
47010.701
46980.465
46971.984
46970.276
46970.032
46970.003
46970
46970
46970
46970
46970
46970
46970
46970
46970
46970
46970
46970
46970
46970
46970
46970
46970
46970
46970
46970
46970
46970
46970
46970
46970
46970
46970
46970
46970
46970
46970
46970
46970
46970
46970
46970
46970
46970
46970
46970
46970
46970
46970
46970
46970
46970
46970
46970
46970
46970
46970
46970
46970
46970
46970
46970
46970
46970
46970
46970
46970
46970
46970
46970
46970
46970
46970
46970
46970
46970
46970
46970
46970
46970
46970
46970
46970
46970
46970
46970
46970
46970
46970
46970
46970
46970
46970.002
46970.009
46970.037
46970.138
46970.476
46971.516
46974.443
46981.933
46999.231
47035.053
47101.512
47209.449
47360.105
47524.099
47639.063
47648.549
47543.481
47363.563
47177.54
47051.076
46970.195
46897.23
46824.419
46755.642
46693.101
46635.174
46581.348
46530.89
46483.341
46438.377
46395.765
46355.304
46316.764
46279.916
46244.578
46210.602
46177.866
46146.255
46115.666
46086.013
46057.225
46029.225
46001.95
45975.339
45949.331
45923.861
45898.879
45874.368
45850.322
45826.71
45803.472
45780.535
45757.838
45735.337
45713.012
45690.866
45668.918
45647.172
45625.578
45604.038
45582.444
45560.741
45538.938
45517.08
45495.211
45473.365
45451.564
45429.792
45407.993
45386.09
45364.026
45341.776
45319.327
45296.657
45273.737
45250.556
45227.142
45203.552
45179.825
45155.942
45131.831
45107.395
45082.556
45057.287
45031.614
45005.57
44979.179
44952.449
44925.418
44898.103
44870.543
44842.739
44814.645
44786.144
44757.061
44727.321
44697.042
44666.438
44635.984
44606.23
44576.076
44542.555
44502.09
44471.728
44451.448
44415.518
44371.177
44331.74
44301.605
44262.789
44221.941
44192.346
44158.947
44122.32
44082.484
44049.157
44007.878
43964.752
43922.255
43878.201
43839.228
43783.833
43741.242
43717.411
43667.755
43611.637
43574.123
43537.57
43496.145
43459.448
43418.14
43366.867
43325.641
43279.333
43235.731
43191.97
43147.813
43114.51
43064.771
43013.266
42966.955
42916.512
42869.906
42834.438
42788.849
42733.095
42683.631
42637.193
42594.374
42554.389
42514.505
42455.248
42397.663
42360.281
42318.318
42260.68
42219.957
42185.767
42138.828
42097.932
42067.842
42012.254
41950.843
41904.149
41882.629
41840.3
41785.733
41748.798
41722.807
41685.571
41633.726
41579.519
41534.851
41498.498
41469.101
41436.556
41399.878
41368.592
41351.583
41310.983
41260.349
41223.636
41199.15
41178.789
41155.752
41124.58
41089.21
41049.659
41005.621
40965.72
40936.297
40916.503
40901.488
40890.406
40883.091
40854.796
40844.618
40843.653
40834.013
40837.195
47887.872
48765.915
48250.868
47997.582
47531.928
47230.32
47067.898
47000.694
46977.404
46971.294
46970.171
46970.019
46970.002
46970
46970
46970
46970
46970
46970
46970
46970
46970
46970
46970
46970
46970
46970
46970
46970
46970
46970
46970
46970
46970
46970
46970
46970
46970
46970
46970
46970
46970
46970
46970
46970
46970
46970
46970
46970
46970
46970
46970
46970
46970
46970
46970
46970
46970
46970
46970
46970
46970
46970
46970
46970
46970
46970
46970
46970
46970
46970
46970
46970
46970
46970
46970
46970
46970
46970
46970
46970
46970
46970
46970
46970
46970
46970
46970
46970
46970
46970
46970
46970
46970
46970
46970
46970
46970
46970
46970.002
46970.008
46970.032
46970.121
46970.423
46971.363
46974.043
46980.989
46997.24
47031.276
47095.14
47201.083
47351.572
47517.483
47644.035
47664.772
47568.663
47390.27
47204.01
47071.767
46989.077
46916.232
46843.873
46774.974
46712.171
46654.002
46599.949
46549.314
46501.615
46456.505
46413.746
46373.155
46334.511
46297.579
46262.16
46228.103
46195.292
46163.623
46132.994
46103.312
46074.499
46046.475
46019.177
45992.55
45966.533
45941.06
45916.075
45891.556
45867.502
45843.888
45820.659
45797.747
45775.086
45752.628
45730.339
45708.216
45686.277
45664.538
45642.976
45621.508
45600.027
45578.457
45556.785
45535.038
45513.254
45491.469
45469.71
45447.973
45426.215
45404.372
45382.393
45360.255
45337.945
45315.438
45292.69
45269.669
45246.382
45222.878
45199.21
45175.38
45151.339
45127.005
45102.296
45077.171
45051.641
45025.738
44999.489
44972.881
44945.947
44918.716
44891.222
44863.484
44835.486
44807.141
44778.261
44748.734
44718.649
44688.083
44657.204
44626.513
44596.126
44565.638
44532.721
44493.217
44460.57
44439.915
44405.374
44365.124
44321.077
44287.285
44244.24
44201.83
44173.668
44135.735
44099.14
44063.652
44027.037
43982.296
43942.844
43906.274
43868.287
43821.251
43776.942
43742.92
43701.22
43655.418
43605.231
43553.671
43506.82
43467.388
43421.986
43380.197
43333.96
43294.245
43247.6
43189.548
43155.131
43122.158
43079.095
43030.258
42985.182
42937.394
42881.639
42833.819
42791.99
42739.732
42698.691
42655.916
42604.757
42562.174
42514.622
42461.425
42412.816
42360.891
42313.427
42271.263
42222.515
42177.324
42135.422
42094.101
42049.483
41998.594
41952.596
41923.424
41877.712
41821.56
41782.375
41749.38
41700.876
41645.887
41594.387
41551.373
41523.564
41494.162
41458.677
41425.405
41388.451
41358.038
41326.169
41281.395
41246.256
41217.301
41183.372
41141.463
41096.431
41056.721
41024.147
40996.253
40968.112
40943.519
40925.728
40907.331
40890.937
40878.016
40867.793
40842.719
40819.848
40808.886
40808.099
40805.414
47879.216
48423.024
48100.768
47813.671
47420.816
47172.136
47043.722
46991.996
46974.921
46970.801
46970.103
46970.012
46970.001
46970
46970
46970
46970
46970
46970
46970
46970
46970
46970
46970
46970
46970
46970
46970
46970
46970
46970
46970
46970
46970
46970
46970
46970
46970
46970
46970
46970
46970
46970
46970
46970
46970
46970
46970
46970
46970
46970
46970
46970
46970
46970
46970
46970
46970
46970
46970
46970
46970
46970
46970
46970
46970
46970
46970
46970
46970
46970
46970
46970
46970
46970
46970
46970
46970
46970
46970
46970
46970
46970
46970
46970
46970
46970
46970
46970
46970
46970
46970
46970
46970
46970
46970
46970
46970
46970
46970.001
46970.007
46970.027
46970.105
46970.372
46971.216
46973.651
46980.05
46995.225
47027.467
47088.521
47192.286
47342.201
47510.627
47646.542
47680.352
47592.925
47419.264
47232.405
47094.496
47009.035
46936.047
46863.978
46795.13
46732.043
46673.63
46619.335
46568.508
46520.647
46475.393
46432.483
46391.751
46352.993
46315.972
46280.47
46246.327
46213.436
46181.7
46151.026
46121.314
46092.473
46064.423
46037.099
46010.451
45984.422
45958.942
45933.953
45909.429
45885.367
45861.748
45838.524
45815.629
45792.999
45770.581
45748.331
45726.238
45704.315
45682.585
45661.043
45639.63
45618.246
45596.804
45575.267
45553.643
45531.96
45510.253
45488.55
45466.857
45445.142
45423.353
45401.446
45379.403
45357.216
45334.859
45312.281
45289.43
45266.289
45242.891
45219.295
45195.523
45171.551
45147.313
45122.731
45097.751
45072.37
45046.609
45020.515
44994.047
44967.222
44940.08
44912.653
44884.972
44857.051
44828.838
44800.147
44770.831
44740.99
44710.755
44680.123
44649.272
44618.132
44585.499
44554.749
44517.793
44475.517
44449.115
44423.989
44393.906
44351.586
44312.435
44274.256
44236.363
44193.136
44155.119
44118.573
44070.961
44034.239
43999.268
43959.083
43929.035
43889.669
43844.061
43801.915
43759.059
43720.577
43678.644
43634.522
43594.221
43547.507
43491.599
43450.125
43410.764
43359.119
43305.774
43252.603
43210.561
43169.699
43119.696
43078.631
43038.149
42990.079
42945.492
42891.353
42845.602
42804.523
42756.009
42707.43
42662.396
42616.039
42570.462
42519.952
42466.193
42421.17
42373.76
42317.669
42267.555
42221.5
42177.731
42139.876
42098.118
42042.865
41986.432
41947.72
41917.731
41868.488
41811.351
41768.951
41724.11
41675.34
41629.898
41587.139
41567.61
41538.861
41488.788
41440.34
41397.091
41363.481
41323.324
41279.958
41244.569
41211.883
41175.003
41135.688
41095.406
41054.963
41025.039
41005.543
40990.458
40968.228
40951.564
40931.708
40903.046
40869.575
40835.219
40797.425
40780.317
40777.287
40765.303
40764.304
40759.965
47865.827
48122.014
47923.865
47638.378
47317.083
47120.75
47023.095
46984.918
46973.115
46970.49
46970.064
46970.008
46970.001
46970
46970
46970
46970
46970
46970
46970
46970
46970
46970
46970
46970
46970
46970
46970
46970
46970
46970
46970
46970
46970
46970
46970
46970
46970
46970
46970
46970
46970
46970
46970
46970
46970
46970
46970
46970
46970
46970
46970
46970
46970
46970
46970
46970
46970
46970
46970
46970
46970
46970
46970
46970
46970
46970
46970
46970
46970
46970
46970
46970
46970
46970
46970
46970
46970
46970
46970
46970
46970
46970
46970
46970
46970
46970
46970
46970
46970
46970
46970
46970
46970
46970
46970
46970
46970
46970
46970.001
46970.006
46970.023
46970.09
46970.325
46971.075
46973.271
46979.123
46993.206
47023.554
47081.89
47182.693
47332.08
47504.716
47644.598
47695.156
47617.684
47449.078
47262.426
47119.532
47030.005
46956.775
46884.791
46816.117
46752.725
46694.077
46639.534
46588.509
46540.477
46495.074
46452.012
46411.131
46372.248
46335.129
46299.54
46265.308
46232.328
46200.52
46169.796
46140.05
46111.18
46083.103
46055.751
46029.078
46003.029
45977.538
45952.544
45928.015
45903.946
45880.322
45857.101
45834.219
45811.614
45789.23
45767.021
45744.964
45723.066
45701.35
45679.824
45658.449
45637.144
45615.817
45594.415
45572.923
45551.355
45529.741
45508.109
45486.473
45464.808
45443.072
45421.229
45399.267
45377.184
45354.962
45332.547
45309.87
45286.889
45263.619
45240.11
45216.405
45192.502
45168.355
45143.896
45119.062
45093.835
45068.232
45042.276
45015.986
44989.291
44962.251
44934.896
44907.268
44879.408
44851.303
44822.776
44793.617
44763.877
44733.766
44703.29
44672.596
44641.77
44610.075
44574.584
44541.13
44510.539
44468.049
44428.228
44407.428
44377.919
44341.531
44303.03
44264.419
44233.083
44191.027
44139.501
44095.291
44055.013
44026.665
43978.285
43931.837
43912.513
43862.03
43816.519
43777.9
43736.243
43691.482
43656.059
43621.577
43569.581
43521.507
43474.036
43428.755
43385.686
43339.813
43296.868
43254.449
43192.407
43141.213
43095.079
43041.291
42990.178
42951.911
42923.949
42870.7
42803.417
42762.831
42715.619
42664.972
42621.432
42566.399
42514.039
42476.972
42430.62
42373.656
42322.412
42285.841
42245.715
42189.376
42127.94
42070.842
42023.767
41983.2
41952.636
41901.538
41839.651
41786.45
41748.535
41717.855
41679.145
41643.203
41614.784
41558.051
41497.621
41451.457
41408.641
41363.558
41314.555
41270.758
41242.535
41215.139
41187.012
41154.506
41116.346
41081.465
41053.974
41041.427
41014.593
40976.221
40949.189
40916.853
40871.624
40837.167
40808.344
40784.161
40765.554
40740.279
40711.537
40687.197
40685.87
40695.404
47813.411
47875.297
47731.708
47476.576
47224.876
47077.409
47006.536
46979.734
46971.968
46970.317
46970.044
46970.006
46970.001
46970
46970
46970
46970
46970
46970
46970
46970
46970
46970
46970
46970
46970
46970
46970
46970
46970
46970
46970
46970
46970
46970
46970
46970
46970
46970
46970
46970
46970
46970
46970
46970
46970
46970
46970
46970
46970
46970
46970
46970
46970
46970
46970
46970
46970
46970
46970
46970
46970
46970
46970
46970
46970
46970
46970
46970
46970
46970
46970
46970
46970
46970
46970
46970
46970
46970
46970
46970
46970
46970
46970
46970
46970
46970
46970
46970
46970
46970
46970
46970
46970
46970
46970
46970
46970
46970
46970.001
46970.005
46970.02
46970.077
46970.28
46970.941
46972.905
46978.218
46991.199
47019.613
47075.067
47172.38
47321.038
47497.559
47643.753
47706.209
47641.874
47480.306
47294.18
47146.684
47052.223
46978.616
46906.414
46837.95
46774.258
46715.381
46660.585
46609.352
46561.14
46515.579
46472.361
46431.327
46392.312
46355.085
46319.405
46285.08
46252.004
46220.114
46189.331
46159.549
46130.653
46102.548
46075.166
46048.464
46022.391
45996.883
45971.879
45947.343
45923.269
45899.643
45876.424
45853.553
45830.968
45808.614
45786.443
45764.426
45742.563
45720.87
45699.36
45678.013
45656.767
45635.54
45614.265
45592.908
45571.466
45549.957
45528.412
45506.846
45485.243
45463.565
45441.782
45419.891
45397.898
45375.792
45353.526
45331.021
45308.212
45285.087
45261.686
45238.059
45214.227
45190.169
45165.829
45141.141
45116.071
45090.629
45064.836
45038.696
45012.171
44985.26
44957.998
44930.426
44902.623
44874.619
44846.274
44817.331
44787.709
44757.601
44727.068
44696.057
44665.015
44634.134
44600.745
44563.655
44527.181
44500.225
44468.846
44419.797
44389.248
44362.61
44332.662
44289.832
44257.735
44220.788
44171.493
44136.331
44095.086
44050.575
44021.094
43962.043
43905.875
43884.566
43848.832
43795.42
43741.656
43702.734
43672.785
43634.436
43587.22
43551.425
43500.095
43451.027
43403.983
43353.661
43316.618
43275.809
43217.498
43165.833
43124.149
43076.087
43023.792
42967.173
42918.008
42872.833
42833.994
42789.591
42738.872
42682.005
42620.632
42566.997
42531.083
42489.872
42423.27
42380.885
42341.725
42282.999
42219.061
42162.778
42124.53
42087.92
42045.387
41991.879
41946.881
41893.568
41832.013
41788.705
41752.417
41701.266
41654.84
41616.394
41568.889
41519.856
41477.605
41433.334
41386.752
41339.083
41290.375
41264.2
41242.253
41210.936
41177.419
41142.21
41107.798
41076.786
41049.913
40999.099
40940.993
40900.548
40863.77
40827.11
40798.508
40777.534
40758.332
40736.014
40711.084
40691.564
40677.58
40658.797
40644.343
40633.666
47705.95
47670.1
47539.367
47332.576
47147.742
47043.323
46994.529
46976.463
46971.341
46970.229
46970.034
46970.004
46970.001
46970
46970
46970
46970
46970
46970
46970
46970
46970
46970
46970
46970
46970
46970
46970
46970
46970
46970
46970
46970
46970
46970
46970
46970
46970
46970
46970
46970
46970
46970
46970
46970
46970
46970
46970
46970
46970
46970
46970
46970
46970
46970
46970
46970
46970
46970
46970
46970
46970
46970
46970
46970
46970
46970
46970
46970
46970
46970
46970
46970
46970
46970
46970
46970
46970
46970
46970
46970
46970
46970
46970
46970
46970
46970
46970
46970
46970
46970
46970
46970
46970
46970
46970
46970
46970
46970
46970.001
46970.004
46970.016
46970.065
46970.24
46970.817
46972.558
46977.343
46989.223
47015.66
47068.089
47161.619
47308.858
47489.106
47643.574
47714.727
47665.37
47511.769
47327.6
47176.03
47076.196
47001.525
46928.962
46860.65
46796.688
46737.564
46682.519
46631.068
46582.672
46536.946
46493.568
46452.376
46413.219
46375.875
46340.097
46305.678
46272.502
46240.519
46209.666
46179.841
46150.919
46122.788
46095.379
46068.647
46042.545
46017.013
45991.991
45967.445
45943.366
45919.739
45896.524
45873.664
45851.098
45828.77
45806.633
45784.657
45762.836
45741.177
45719.69
45698.365
45677.163
45656.016
45634.856
45613.631
45592.319
45570.927
45549.483
45528.002
45506.473
45484.862
45463.144
45441.318
45419.401
45397.395
45375.261
45352.92
45330.287
45307.324
45284.05
45260.517
45236.763
45212.793
45188.567
45164.022
45139.109
45113.829
45088.201
45062.229
45035.878
45009.119
44981.978
44954.471
44926.715
44898.779
44870.591
44841.906
44812.523
44782.564
44752.142
44721.053
44689.422
44657.746
44626.626
44592.041
44551.91
44520.733
44498.427
44458.341
44414.724
44377.582
44347.865
44312.33
44271.534
44235.549
44193.539
44155.076
44128.466
44089.852
44043.61
44002.449
43961.989
43913.244
43864.689
43822.078
43777.056
43747.518
43693.671
43628.183
43607.301
43570.626
43513.328
43464.506
43414.612
43377.623
43327.804
43277.971
43224.791
43185.65
43146.74
43088.451
43036.787
42987.432
42936.279
42896.254
42854.453
42794.967
42738.202
42689.267
42646.435
42600.219
42533.473
42476.594
42437.127
42392.193
42340.864
42285.299
42230.432
42181.471
42144.099
42094.762
42035.187
41996.416
41936.719
41875.12
41839.418
41816.137
41745.401
41674.68
41619.212
41567.033
41522.145
41492.614
41466.045
41425.159
41390.01
41357.867
41328.321
41292.805
41237.269
41183.765
41134.847
41091.371
41054.027
41013.217
40963.491
40919.601
40879.021
40842.153
40815.47
40790.178
40768.33
40744.606
40715.951
40682.763
40648.712
40619.028
40599.063
40582.332
40558.342
40511.346
47544.743
47491.874
47360.689
47212.091
47088.556
47019.595
46987.142
46974.738
46971.042
46970.187
46970.028
46970.004
46970
46970
46970
46970
46970
46970
46970
46970
46970
46970
46970
46970
46970
46970
46970
46970
46970
46970
46970
46970
46970
46970
46970
46970
46970
46970
46970
46970
46970
46970
46970
46970
46970
46970
46970
46970
46970
46970
46970
46970
46970
46970
46970
46970
46970
46970
46970
46970
46970
46970
46970
46970
46970
46970
46970
46970
46970
46970
46970
46970
46970
46970
46970
46970
46970
46970
46970
46970
46970
46970
46970
46970
46970
46970
46970
46970
46970
46970
46970
46970
46970
46970
46970
46970
46970
46970
46970
46970.001
46970.003
46970.013
46970.054
46970.203
46970.702
46972.232
46976.505
46987.295
47011.726
47061.02
47150.58
47295.242
47478.992
47642.386
47722.859
47687.363
47543.116
47362.544
47207.52
47102.145
47025.433
46952.647
46884.234
46820.08
46760.667
46705.386
46653.702
46605.11
46559.211
46515.672
46474.314
46435.005
46397.534
46361.647
46327.131
46293.856
46261.774
46230.838
46200.958
46172.005
46143.852
46116.419
46089.66
46063.527
46037.966
46012.92
45988.358
45964.271
45940.643
45917.435
45894.588
45872.04
45849.736
45827.63
45805.692
45783.916
45762.3
45740.847
45719.547
45698.377
45677.292
45656.229
45635.128
45613.948
45592.68
45571.345
45549.964
45528.524
45506.994
45485.347
45463.589
45441.74
45419.818
45397.797
45375.606
45353.149
45330.36
45307.235
45283.814
45260.148
45236.265
45212.149
45187.743
45162.987
45137.867
45112.404
45086.607
45060.443
45033.866
45006.86
44979.447
44951.743
44923.841
44895.751
44867.27
44838.116
44808.322
44778.114
44747.411
44715.957
44684.054
44652.124
44620.134
44582.435
44539.903
44510.79
44495.397
44464.83
44413.276
44367.757
44334.707
44287.881
44247.213
44214.94
44177.106
44144.151
44112.776
44064.978
44022.758
43984.416
43949.823
43902.309
43851.74
43815.194
43779.501
43732.148
43684.956
43632.312
43573.658
43539.812
43505.842
43460.844
43399.92
43340.405
43281.744
43259.725
43212.194
43131.999
43097.486
43049.972
42996.892
42952.002
42900.276
42862.123
42825.832
42755.224
42685.67
42648.459
42610.422
42549.141
42493.089
42441.296
42397.497
42354.223
42302.638
42263.034
42206.513
42125.161
42061.456
42013.117
41970.295
41928.24
41875.385
41836.339
41786.371
41728.187
41677.987
41618.584
41573.367
41533.564
41495.61
41451.84
41411.734
41386.047
41351.574
41309.715
41246.03
41181.913
41128.864
41079.15
41039.461
41007.301
40970.688
40921.482
40889.11
40865.747
40853.855
40832.983
40801.106
40768.991
40722.376
40669.23
40620.532
40576.871
40535.723
40495.439
40437.28
40429.96
40461.933
47347.154
47330.39
47213.04
47122.855
47049.478
47006.026
46983.486
46973.97
46970.906
46970.164
46970.025
46970.003
46970
46970
46970
46970
46970
46970
46970
46970
46970
46970
46970
46970
46970
46970
46970
46970
46970
46970
46970
46970
46970
46970
46970
46970
46970
46970
46970
46970
46970
46970
46970
46970
46970
46970
46970
46970
46970
46970
46970
46970
46970
46970
46970
46970
46970
46970
46970
46970
46970
46970
46970
46970
46970
46970
46970
46970
46970
46970
46970
46970
46970
46970
46970
46970
46970
46970
46970
46970
46970
46970
46970
46970
46970
46970
46970
46970
46970
46970
46970
46970
46970
46970
46970
46970
46970
46970
46970
46970
46970.002
46970.011
46970.044
46970.17
46970.597
46971.929
46975.712
46985.433
47007.845
47053.903
47139.147
47280.245
47467.026
47639.7
47731.196
47707.676
47574.645
47398.201
47241.042
47130.209
47050.552
46977.572
46908.735
46844.507
46784.736
46729.222
46677.286
46628.487
46582.403
46538.707
46497.185
46457.713
46420.1
46384.092
46349.472
46316.1
46283.918
46252.887
46222.934
46193.941
46165.766
46138.315
46111.533
46085.373
46059.781
46034.705
46010.119
45986.019
45962.389
45939.189
45916.357
45893.829
45871.548
45849.469
45827.567
45805.834
45784.269
45762.86
45741.592
45720.451
45699.412
45678.429
45657.439
45636.386
45615.245
45594.028
45572.756
45551.42
45529.985
45508.423
45486.738
45464.957
45443.107
45421.183
45399.124
45376.835
45354.229
45331.272
45307.986
45284.422
45260.631
45236.619
45212.346
45187.744
45162.783
45137.479
45111.855
45085.884
45059.507
45032.674
45005.396
44977.764
44949.904
44921.887
44893.561
44864.609
44834.934
44804.768
44774.279
44743.315
44711.967
44680.578
44647.508
44613.982
44575.185
44532.047
44505.361
44494.073
44455.367
44408.541
44367.453
44322.591
44278.283
44247.64
44208.852
44161.094
44118.372
44091.945
44051.292
43992.092
43959.233
43928.871
43878.52
43840.115
43808.262
43765.392
43711.959
43659.594
43618.727
43573.111
43522.833
43480.566
43431.681
43382.481
43331.233
43273.861
43218.859
43165.369
43119.491
43085.473
43046.941
42984.073
42917.971
42856.122
42811.581
42772.359
42734.551
42668.892
42596.385
42543.046
42501.443
42462.679
42405.32
42345.203
42299.561
42251.547
42189.034
42130.611
42079.388
42027.653
41988.283
41937.477
41881.224
41811.915
41740.186
41714.901
41693.034
41642.547
41593.345
41559.735
41490.549
41425.336
41382.847
41319.159
41266.917
41234.379
41195.375
41143.611
41085.857
41045.089
41022.864
41003.179
40973.335
40923.348
40884.854
40871.312
40826.458
40757.557
40704.12
40652.3
40604.959
40577.578
40562.792
40542.769
40508.294
40465.993
40419.102
40394.034
40369.538
47181.015
47194.602
47112.371
47069.15
47029.111
47000.036
46982.034
46973.65
46970.84
46970.152
46970.023
46970.003
46970
46970
46970
46970
46970
46970
46970
46970
46970
46970
46970
46970
46970
46970
46970
46970
46970
46970
46970
46970