/*--------------------------------*- C++ -*----------------------------------*\
| =========                 |                                                 |
| \\      /  F ield         | OpenFOAM: The Open Source CFD Toolbox           |
|  \\    /   O peration     | Version:  2506                                  |
|   \\  /    A nd           | Website:  www.openfoam.com                      |
|    \\/     M anipulation  |                                                 |
\*---------------------------------------------------------------------------*/
FoamFile
{
    version     2.0;
    format      ascii;
    arch        "LSB;label=32;scalar=64";
    class       volVectorField;
    location    "0.004";
    object      wallShearStress;
}
// * * * * * * * * * * * * * * * * * * * * * * * * * * * * * * * * * * * * * //

dimensions      [1 -1 -2 0 0 0 0];

internalField   uniform (0 0 0);

boundaryField
{
    Side
    {
        type            empty;
    }
    Inlet
    {
        type            calculated;
        value           uniform (0 0 0);
    }
    Airfoil
    {
        type            calculated;
        value           nonuniform List<vector> 
1047
(
(-23.534367 -7.5178756 -5.5133192e-21)
(-17.658635 -5.5949926 1.819476e-16)
(-18.046729 -5.6810418 1.8279511e-16)
(-17.197194 -5.3795896 -3.6745062e-16)
(-16.896896 -5.2604159 -2.4074124e-35)
(-16.569291 -5.1388158 1.8538031e-16)
(-16.377763 -5.0660096 2.8405829e-21)
(-16.210622 -5.006402 1.8698558e-16)
(-16.120498 -4.9761641 8.2574246e-33)
(-16.070541 -4.9634752 -3.7694117e-16)
(-16.029764 -4.9588749 2.8875683e-21)
(-16.022827 -4.969911 1.9005564e-16)
(-16.03043 -4.9907656 -2.9122493e-21)
(-16.067242 -5.0260749 -3.8325386e-16)
(-16.112146 -5.0695088 1.9239322e-16)
(-16.182347 -5.1267217 -2.9474301e-21)
(-16.258616 -5.1920224 1.2037062e-35)
(-16.357719 -5.2711693 -1.9467645e-16)
(-16.463845 -5.3595957 0)
(-16.590224 -5.4621906 1.962086e-16)
(-16.723151 -5.5751664 6.0120549e-21)
(-16.876677 -5.7040172 1.9778566e-16)
(-17.035564 -5.844548 -6.0630095e-21)
(-17.206857 -6.0002235 -1.9938991e-16)
(-17.39608 -6.1741886 4.8148249e-35)
(-17.564998 -6.3538696 4.0204607e-16)
(-17.530701 -6.4394391 2.018527e-16)
(-17.396073 -6.4576879 1.2518545e-33)
(-17.31181 -6.4949392 -2.0356337e-16)
(-17.267676 -6.5476977 -1.2037062e-35)
(-17.232052 -6.6043927 2.2881482e-33)
(-17.206158 -6.6658576 -1.2037062e-35)
(-17.184727 -6.7298489 -2.0710403e-16)
(-17.167816 -6.7967823 -2.079658e-16)
(-17.151141 -6.8649097 4.176488e-16)
(-17.13709 -6.9353309 -2.0969292e-16)
(-17.122905 -7.006911 6.4248273e-21)
(-17.110227 -7.080468 -4.2285293e-16)
(-17.096017 -7.1547136 0)
(-17.084039 -7.2313735 -2.1316689e-16)
(-17.069182 -7.3082449 2.1403819e-16)
(-17.056018 -7.3874445 6.5596779e-21)
(-17.040664 -7.4672347 2.1578277e-16)
(-17.025727 -7.5489378 2.1666975e-16)
(-17.009101 -7.63156 -6.6401346e-21)
(-16.992264 -7.7159451 2.1844023e-16)
(-16.974305 -7.8016454 -2.4074124e-35)
(-16.954032 -7.8882328 6.7211991e-21)
(-16.935032 -7.9774406 -6.7423014e-21)
(-16.911336 -8.0665346 2.2197475e-16)
(-16.891918 -8.1599502 6.8003673e-21)
(-16.868413 -8.2543188 2.2376868e-16)
(-16.846316 -8.3517871 -2.2466651e-16)
(-16.816637 -8.4478116 -2.4074124e-35)
(-16.788362 -8.5469319 -6.9126745e-21)
(-16.752765 -8.6447781 -2.2737041e-16)
(-16.720109 -8.7466934 -3.0344042e-24)
(-16.677685 -8.8461278 6.990453e-21)
(-16.640161 -8.9508893 0)
(-16.591375 -9.0523937 -2.3100831e-16)
(-16.54773 -9.1596999 2.3193181e-16)
(-16.493523 -9.2640001 -2.3285059e-16)
(-16.441121 -9.3726824 -9.3170611e-25)
(-16.381432 -9.4803402 2.3469055e-16)
(-16.320985 -9.5908068 -7.1902676e-21)
(-16.253704 -9.7010002 -4.0920074e-24)
(-16.184398 -9.8136913 7.2431239e-21)
(-16.108583 -9.9259583 2.3827366e-16)
(-16.029797 -10.040408 0)
(-15.943936 -10.154466 -6.5963101e-33)
(-15.855021 -10.270853 2.4110673e-16)
(-15.758682 -10.386744 2.4207778e-16)
(-15.657366 -10.50394 0)
(-15.548532 -10.620691 -7.4489683e-21)
(-15.432969 -10.737349 -5.6968096e-24)
(-15.307755 -10.851714 1.5011275e-20)
(-15.174381 -10.964878 -7.5325109e-21)
(-15.033316 -11.077083 -1.1483357e-32)
(-14.88084 -11.185624 -2.4889971e-16)
(-14.720446 -11.292976 0)
(-14.548353 -11.396187 5.0180024e-16)
(-14.366267 -11.496456 -1.5374973e-20)
(-14.174036 -11.59353 -7.6758512e-24)
(-13.968403 -11.684529 7.7452605e-21)
(-13.7512 -11.77077 -7.7844689e-21)
(-13.520337 -11.85009 7.8072142e-21)
(-13.275863 -11.922196 2.5698901e-16)
(-13.017959 -11.986783 -2.5801495e-16)
(-12.74408 -12.040959 2.590425e-16)
(-12.456914 -12.086652 9.6296497e-35)
(-12.153978 -12.12077 -5.2219585e-16)
(-11.835909 -12.143084 1.0636758e-23)
(-11.502706 -12.152451 2.6314043e-16)
(-11.153963 -12.145718 8.0675454e-21)
(-10.795781 -12.129194 -1.6185597e-20)
(-10.428956 -12.10319 -2.6617957e-16)
(-10.058234 -12.072495 1.015928e-32)
(-9.6857007 -12.039205 9.9743987e-33)
(-9.311698 -12.003527 3.8091659e-33)
(-8.9418174 -11.972648 -8.3588865e-21)
(-8.5691889 -11.937627 5.4207433e-16)
(-8.1982237 -11.904326 8.2922878e-21)
(-7.820645 -11.860434 -8.3336664e-21)
(-7.439601 -11.809458 8.3457403e-21)
(-7.0483467 -11.739098 0)
(-6.6477152 -11.647693 -1.3767912e-16)
(-6.2315041 -11.520292 -8.4202377e-21)
(-5.8016393 -11.354256 -2.7689465e-16)
(-5.3592098 -11.144542 -1.6943824e-20)
(-4.9094187 -10.897081 1.3914567e-16)
(-4.4472241 -10.595797 -8.5184964e-21)
(-3.9757649 -10.216721 1.3975892e-16)
(-3.5017924 -9.7601345 2.8006607e-16)
(-3.0361362 -9.238355 1.4029595e-16)
(-2.5838259 -8.6506631 1.4054194e-16)
(-2.150269 -7.9973675 5.5869088e-24)
(-1.7419259 -7.2831617 7.0477996e-17)
(-1.366116 -6.5191134 -1.4113528e-16)
(-1.0246833 -5.6924544 -6.4666074e-21)
(-0.72799058 -4.837972 2.1457239e-21)
(-0.47161718 -3.8951265 0)
(-0.27218654 -2.9741455 -7.0810932e-17)
(-0.12208907 -1.9514507 -2.2762136e-24)
(-0.038078464 -1.1380209 7.0864396e-17)
(-0.0052898978 0.023105319 -3.2433912e-37)
(-0.03727558 1.1186622 -2.1929561e-24)
(-0.11935249 1.905514 0)
(-0.27019194 2.9516805 3.5407471e-17)
(-0.47116699 3.8905355 -2.16024e-21)
(-0.72984616 4.8501916 -7.0714949e-17)
(-1.026889 5.704738 -2.1528737e-21)
(-1.368317 6.5296436 -7.0563627e-17)
(-1.7433796 7.289235 -7.0483086e-17)
(-2.1515598 8.0021753 5.5839336e-24)
(-2.5841372 8.6517425 8.5777276e-21)
(-3.0359385 9.2377878 -1.4030161e-16)
(-3.5008615 9.7575387 -1.4003321e-16)
(-3.9743967 10.213196 -2.7949686e-16)
(-4.446092 10.593078 -8.5189186e-21)
(-4.9075643 10.892951 -1.3913806e-16)
(-5.3575404 11.141064 -8.4223678e-21)
(-5.7993591 11.349848 8.5019077e-21)
(-6.2304628 11.518434 -1.3809622e-16)
(-6.6456931 11.644186 8.4111355e-21)
(-7.0484632 11.739293 -4.9619968e-34)
(-7.438359 11.807513 8.3456708e-21)
(-7.8220877 11.86263 -8.3336805e-21)
(-8.1973899 11.903116 0)
(-8.5718451 11.941319 -2.7104155e-16)
(-8.9413168 11.971991 -2.7011188e-16)
(-9.3150591 12.007874 1.6321545e-20)
(-9.6871164 12.041009 2.6816672e-16)
(-10.061308 12.0762 0)
(-10.4318 12.106519 1.6350679e-36)
(-10.798479 12.132251 -5.1329729e-37)
(-11.157434 12.14954 -1.1074097e-32)
(-11.505999 12.155972 2.6315263e-16)
(-11.839593 12.14691 0)
(-12.157603 12.124428 6.8394894e-23)
(-12.460496 12.09016 0)
(-12.749358 12.045998 2.5904279e-16)
(-13.022532 11.991036 7.8694664e-21)
(-13.280121 11.926049 -7.8471715e-21)
(-13.525861 11.854973 2.3810132e-32)
(-13.756136 11.775029 0)
(-13.974823 11.689934 -2.5393045e-16)
(-14.179546 11.598082 -2.5289194e-16)
(-14.372667 11.501589 -7.4125165e-24)
(-14.555522 11.401848 -2.5090687e-16)
(-14.727043 11.29806 -2.4988365e-16)
(-14.887747 11.190852 7.592415e-21)
(-15.039373 11.081568 -7.5686836e-21)
(-15.18106 10.969726 5.4424683e-33)
(-15.314535 10.856542 7.3046528e-38)
(-15.439549 10.741951 1.4606476e-23)
(-15.555289 10.62533 -7.4433195e-21)
(-15.664204 10.508544 -2.430174e-16)
(-15.765565 10.391309 -4.8412894e-16)
(-15.861662 10.275176 0)
(-15.950633 10.158751 -2.4015643e-16)
(-16.036367 10.044537 2.3920872e-16)
(-16.114913 9.929881 4.4905352e-24)
(-16.190513 9.8174065 7.2428661e-21)
(-16.259564 9.7045896 -7.2207823e-21)
(-16.326404 9.5939375 -7.1839871e-21)
(-16.386539 9.4833222 3.8315543e-24)
(-16.445996 9.3754731 2.3376295e-16)
(-16.497716 9.2663677 -2.3283364e-16)
(-16.551699 9.1618987 -4.6382783e-16)
(-16.594675 9.054208 7.047858e-21)
(-16.643289 8.9525716 -7.0232791e-21)
(-16.680004 8.8473601 -2.2917402e-16)
(-16.722643 8.7480151 2.2827299e-16)
(-16.75428 8.6455574 2.2736057e-16)
(-16.790176 8.5478397 -6.9095002e-21)
(-16.817777 8.4483847 2.2555709e-16)
(-16.847211 8.3522269 -2.2465795e-16)
(-16.869106 8.2546624 -2.2376125e-16)
(-16.892093 8.160032 -2.2286651e-16)
(-16.911548 8.0666389 -4.4394755e-16)
(-16.93433 7.9771074 6.7457655e-21)
(-16.953851 7.888154 -2.2766357e-24)
(-16.972735 7.8009203 -2.193158e-16)
(-16.99121 7.7154485 6.6647495e-21)
(-17.00734 7.6308112 -6.6399876e-21)
(-17.023785 7.5480598 2.1666859e-16)
(-17.038162 7.4661597 -1.3170408e-20)
(-17.053294 7.3862234 6.5593883e-21)
(-17.066073 7.3069455 2.9387359e-37)
(-17.08095 7.2300421 -6.5042378e-21)
(-17.091914 7.1530046 -2.1228388e-16)
(-17.10679 7.0790011 4.2284236e-16)
(-17.118476 7.0051012 6.4247857e-21)
(-17.133263 6.9337387 -1.7355123e-24)
(-17.146513 6.8630636 -6.377073e-21)
(-17.163493 6.7950373 2.0796592e-16)
(-17.179954 6.7279876 2.0710626e-16)
(-17.201206 6.6639185 -1.1531506e-32)
(-17.226908 6.6024297 -2.0527914e-16)
(-17.261978 6.545512 0)
(-17.306142 6.4928178 4.071331e-16)
(-17.389744 6.4553212 2.027109e-16)
(-17.524707 6.4372421 -2.0184932e-16)
(-17.558041 6.351339 -3.4534928e-24)
(-17.390746 6.1722967 0)
(-17.200718 5.9980661 -1.9938932e-16)
(-17.029089 5.8423242 -1.9858796e-16)
(-16.871125 5.7021307 -3.9557541e-16)
(-16.716476 5.5729489 1.2023869e-20)
(-16.584859 5.4604182 -1.1976326e-20)
(-16.457034 5.3573804 5.9642462e-21)
(-16.352552 5.2694979 7.3468397e-40)
(-16.252854 5.1901939 -2.9576653e-21)
(-16.176812 5.1249724 -3.2750531e-25)
(-16.10662 5.0677701 2.9355231e-21)
(-16.061898 5.0244016 3.8326131e-16)
(-16.025458 4.9892139 2.9124553e-21)
(-16.018085 4.9684362 -3.8011984e-16)
(-16.025649 4.9575981 2.887616e-21)
(-16.066848 4.9623319 1.8846608e-16)
(-16.117313 4.9751849 2.8647155e-21)
(-16.207566 5.0054693 -2.8528912e-21)
(-16.374763 5.0650942 2.8413618e-21)
(-16.56657 5.1379752 1.8538445e-16)
(-16.894548 5.2596934 -2.8153768e-21)
(-17.195261 5.3789895 -1.8372395e-16)
(-18.04566 5.6807176 1.2037062e-35)
(-17.656994 5.594469 -3.6388805e-16)
(-23.535285 7.5181769 -1.0521554e-23)
(-5.7296307 2.8343902 1.666372e-16)
(-5.7269945 0.83334609 1.0383526e-21)
(-4.3811279 0.64394391 1.2337598e-16)
(-4.6761214 0.68206097 -1.1485655e-16)
(-4.8589176 0.70670158 -3.9982143e-22)
(-5.1078504 0.74046972 2.3345146e-25)
(-5.3723074 0.7769904 -1.9705931e-16)
(-5.5730159 0.8062174 -1.8936596e-16)
(-5.8229491 0.84095161 3.6523947e-16)
(-6.0118053 0.8660714 -1.7663581e-16)
(-6.232346 0.89488335 1.7125273e-16)
(-6.3841742 0.91371293 -3.306818e-22)
(-6.560196 0.93734721 1.2791375e-23)
(-6.681152 0.95370389 -1.579191e-16)
(-6.8469925 0.97542062 -2.941633e-22)
(-6.9586204 0.98936074 -5.7397185e-42)
(-7.1055962 1.0073773 2.8137726e-22)
(-7.2050928 1.0182304 1.4456614e-16)
(-7.3290502 1.0328218 1.4177649e-16)
(-7.4024042 1.0420114 1.2723175e-32)
(-7.516942 1.0565907 -5.4682771e-16)
(-7.5922423 1.065023 2.6877656e-16)
(-7.7030194 1.0778273 -2.3672695e-22)
(-7.7733864 1.0845689 -5.2052668e-16)
(-7.8788699 1.0955995 -2.4450792e-22)
(-7.9397597 1.1001838 2.5260446e-16)
(-8.030218 1.1104666 0)
(-8.0817034 1.1157055 2.4569624e-16)
(-8.1715434 1.125809 3.0092655e-36)
(-8.2290122 1.1309594 3.0092655e-36)
(-8.3126108 1.1392395 2.3650335e-16)
(-8.3670272 1.1430446 2.336957e-16)
(-8.4455106 1.1497842 6.3164484e-33)
(-8.4928167 1.1521 -2.2843281e-16)
(-8.551235 1.1573885 -2.2597031e-16)
(-8.5964943 1.16126 2.2360151e-16)
(-8.659176 1.1670361 4.2220515e-22)
(-8.710755 1.170906 4.3825294e-16)
(-8.7719058 1.1757975 2.1701526e-16)
(-8.8209501 1.1787936 -4.1010803e-22)
(-8.8776717 1.182477 2.1301626e-16)
(-8.9243171 1.1845379 2.1111886e-16)
(-8.9750474 1.1874277 -4.0518903e-22)
(-9.0144331 1.1900823 4.1504693e-16)
(-9.0627863 1.1936513 -3.9252373e-22)
(-9.1060638 1.1961643 3.8950168e-22)
(-9.1515777 1.1987259 -2.8698593e-42)
(-9.1945055 1.2008021 1.5046328e-36)
(-9.239532 1.2028094 1.9956161e-16)
(-9.2836189 1.2042965 -3.7781773e-22)
(-9.3296716 1.205586 3.7525354e-22)
(-9.3669809 1.206116 -3.9072249e-16)
(-9.3992731 1.207383 1.9405786e-16)
(-9.4320005 1.2086424 1.9279038e-16)
(-9.468957 1.2101928 3.6542091e-22)
(-9.5082233 1.2113925 -1.793662e-43)
(-9.5474232 1.2122898 3.5022284e-22)
(-9.5884664 1.2130353 3.7609798e-16)
(-9.6187815 1.2123765 -3.7390578e-16)
(-9.6527158 1.2120933 7.0913105e-22)
(-9.6776421 1.2107001 3.6972722e-16)
(-9.7034744 1.2101373 3.5073139e-22)
(-9.7323176 1.2105506 3.4880889e-22)
(-9.7638376 1.2105499 -3.4707488e-22)
(-9.796379 1.2110976 3.6208839e-16)
(-9.8316201 1.2113755 1.8055593e-35)
(-9.8656016 1.2114792 -3.5859471e-16)
(-9.8960897 1.2109194 -3.5687619e-16)
(-9.9267734 1.2098991 -3.5525635e-16)
(-9.9556017 1.2086458 3.3725596e-22)
(-9.9737739 1.2065214 -7.0422994e-16)
(-9.9963659 1.2059988 3.506076e-16)
(-10.020668 1.2052989 -3.3299788e-22)
(-10.052194 1.2054215 3.315531e-22)
(-10.081486 1.2047386 6.9256946e-16)
(-10.117343 1.2048264 -3.4495901e-16)
(-10.146701 1.2039766 -3.2772087e-22)
(-10.176192 1.2031316 3.2657518e-22)
(-10.202053 1.2015865 3.4116948e-16)
(-10.229061 1.199557 -3.3994537e-16)
(-10.251281 1.1972042 -3.0092655e-36)
(-10.270703 1.1954729 3.3759514e-16)
(-10.292024 1.1941432 -6.7296568e-16)
(-10.314787 1.1929316 -2.8257003e-32)
(-10.341798 1.1919023 1.5046328e-36)
(-10.368631 1.1908145 -3.3332636e-16)
(-10.398789 1.1897319 6.6465991e-16)
(-10.426069 1.1882874 -3.1599276e-22)
(-10.455563 1.1867373 3.1513492e-22)
(-10.482771 1.1844616 3.142305e-22)
(-10.50612 1.1816895 -3.2862326e-16)
(-10.522441 1.1790055 -6.5558247e-16)
(-10.535763 1.1765269 4.4061237e-26)
(-10.54928 1.1743226 3.1109151e-22)
(-10.56792 1.1724739 -3.2537037e-16)
(-10.589601 1.170603 3.2456652e-16)
(-10.619856 1.1691168 6.4759971e-16)
(-10.648443 1.1670667 3.0812079e-22)
(-10.679014 1.1653254 3.0738705e-22)
(-10.705428 1.1630493 -3.0678459e-22)
(-10.729071 1.1604358 -2.6283606e-38)
(-10.748422 1.1575147 2.8588023e-33)
(-10.76486 1.1551172 -6.3945164e-16)
(-10.784391 1.1529449 3.0431031e-22)
(-10.804443 1.1506646 -3.0381327e-22)
(-10.82601 1.148376 -3.0321569e-22)
(-10.84911 1.1461366 -3.1742602e-16)
(-10.872283 1.1436801 3.0673619e-22)
(-10.896318 1.1411794 3.1639046e-16)
(-10.91962 1.1383854 -3.1589781e-16)
(-10.942792 1.1354186 3.0083631e-22)
(-10.965074 1.1321616 1.8028808e-32)
(-10.984728 1.1289387 -2.9992516e-22)
(-11.002908 1.1263692 5.9910234e-22)
(-11.023601 1.123935 -2.9919334e-22)
(-11.044277 1.1212815 -6.266128e-16)
(-11.066829 1.1186176 3.1292714e-16)
(-11.088563 1.1157279 -3.1256131e-16)
(-11.112099 1.112858 3.1220715e-16)
(-11.134891 1.1097746 3.1187743e-16)
(-11.15959 1.1067913 -3.1156235e-16)
(-11.181935 1.1033282 2.9686703e-22)
(-11.204863 1.0997371 -8.6095778e-42)
(-11.221814 1.0955798 -2.9629469e-22)
(-11.237267 1.0920877 4.9702514e-26)
(-11.251339 1.0884863 3.1022822e-16)
(-11.269024 1.0850643 3.10002e-16)
(-11.284625 1.081349 1.5201652e-32)
(-11.305301 1.0780583 3.0959862e-16)
(-11.323404 1.0743172 -5.9017084e-22)
(-11.345489 1.0709076 3.0926744e-16)
(-11.364809 1.0668651 3.0911218e-16)
(-11.383283 1.0624456 2.9463749e-22)
(-11.399567 1.0576595 -2.9455826e-22)
(-11.410298 1.0521449 -3.087234e-16)
(-11.419911 1.0475967 6.0185311e-36)
(-11.427913 1.0431534 3.0852157e-16)
(-11.442537 1.0391681 2.9411756e-22)
(-11.458367 1.0351575 -2.9410605e-22)
(-11.479865 1.0314023 2.9399036e-22)
(-11.502686 1.0276922 -5.3403166e-26)
(-11.526996 1.0237136 -5.0674999e-26)
(-11.549846 1.0194907 3.0822157e-16)
(-11.570696 1.0147366 -3.0092655e-36)
(-11.588673 1.009493 3.5972633e-24)
(-11.606454 1.0040601 -3.2620438e-33)
(-11.619944 0.99836077 -3.0828532e-16)
(-11.633845 0.99381645 2.9407572e-22)
(-11.649237 0.98931749 3.0838244e-16)
(-11.668365 0.98494743 -3.0844303e-16)
(-11.68803 0.98043809 -3.0851301e-16)
(-11.712796 0.97611567 0)
(-11.737341 0.97161105 3.0092655e-36)
(-11.766476 0.96723284 3.0879348e-16)
(-11.794061 0.9625801 -3.0891066e-16)
(-11.824629 0.95792232 7.0304423e-26)
(-11.853998 0.95298061 -3.0917351e-16)
(-11.88497 0.94791639 3.7615819e-37)
(-11.911686 0.94283427 -1.5474243e-16)
(-11.938209 0.93866471 1.548373e-16)
(-11.964103 0.9341311 1.5492801e-16)
(-11.988147 0.92930982 -1.5503153e-16)
(-12.0077 0.92380271 1.5512755e-16)
(-12.024341 0.91792775 -2.9342783e-22)
(-12.03769 0.91146201 7.9638594e-40)
(-12.04706 0.90446959 2.9650308e-22)
(-12.072087 0.89850227 -2.9674269e-22)
(-12.084806 0.89133572 3.6797355e-26)
(-12.087728 0.88325867 5.9476725e-22)
(-12.096782 0.87559917 -3.1215401e-16)
(-12.079019 0.86520919 3.0092655e-36)
(-12.09431 0.86028712 -3.1333977e-34)
(-12.089202 0.85367748 1.565794e-16)
(-12.087628 0.84578459 1.5673202e-16)
(-12.101771 0.83922252 -1.5690574e-16)
(-12.112652 0.83212638 3.1415053e-16)
(-12.132211 0.82533266 1.5724995e-16)
(-12.147423 0.81797892 -3.0032446e-22)
(-12.163672 0.81044289 -1.5761448e-16)
(-12.178805 0.80259085 1.5780598e-16)
(-12.19296 0.79442269 1.5800162e-16)
(-12.207078 0.78599632 3.1640935e-16)
(-12.216997 0.77738022 2.2569492e-36)
(-12.225147 0.76994549 5.7446045e-33)
(-12.235114 0.76261157 6.0584903e-22)
(-12.246622 0.75518405 -1.5907602e-16)
(-12.261675 0.74775771 -3.1859899e-16)
(-12.281161 0.7403694 3.1904773e-16)
(-12.306183 0.73304392 3.7247184e-33)
(-12.337094 0.7257791 1.599712e-16)
(-12.374263 0.71857245 7.4381521e-33)
(-12.418805 0.71147481 -1.3313277e-38)
(-12.472901 0.70453745 -6.1258588e-22)
(-12.538796 0.69778634 1.608772e-16)
(-12.613104 0.6909502 6.1483261e-22)
(-12.688702 0.68486775 6.09536e-22)
(-12.759818 0.67881308 -6.168129e-22)
(-12.818895 0.67178971 -1.6196107e-16)
(-12.861658 0.6637747 -1.6228712e-16)
(-12.89372 0.65499815 -1.6263052e-16)
(-12.916428 0.64546837 -1.6299048e-16)
(-12.9269 0.63517955 -1.0092441e-25)
(-12.92698 0.62428604 6.2454423e-22)
(-12.921588 0.61300227 -6.3377972e-38)
(-12.915856 0.60149927 1.00674e-24)
(-12.912531 0.58981026 -1.6491199e-16)
(-12.912896 0.57811904 3.5134977e-26)
(-12.914278 0.56638295 -8.285946e-17)
(-12.910964 0.55543098 -8.30642e-17)
(-12.915914 0.5453303 1.2809212e-26)
(-12.916358 0.53422241 -8.3489306e-17)
(-12.920776 0.52350639 1.2773324e-21)
(-12.922577 0.51218924 1.8864058e-26)
(-12.925083 0.50070559 -6.4204706e-22)
(-12.928629 0.48914712 -4.7240753e-38)
(-12.932868 0.47708471 6.4556518e-22)
(-12.939232 0.46516868 6.4558365e-27)
(-12.946617 0.45272456 -8.5089762e-17)
(-12.955827 0.44034098 6.5102582e-22)
(-12.962172 0.42710753 8.5578618e-17)
(-12.96942 0.41447595 -1.5046328e-36)
(-12.971308 0.40268646 -8.6090993e-17)
(-12.978536 0.39110631 -8.6357424e-17)
(-12.982629 0.3790347 -7.5231638e-37)
(-12.990579 0.36687641 -6.6295312e-22)
(-12.99773 0.35446132 -1.7433011e-16)
(-13.004805 0.34167393 8.744312e-17)
(-13.013724 0.32888747 -4.3860995e-17)
(-13.020522 0.3154655 -1.3428806e-21)
(-13.02921 0.3020183 -4.4146637e-17)
(-13.035594 0.28799594 -8.8586983e-17)
(-13.043287 0.27401422 6.5827684e-37)
(-13.050878 0.25944346 -5.3341649e-26)
(-13.053091 0.24491499 4.2317797e-37)
(-13.054194 0.23147866 -4.4900721e-17)
(-13.055977 0.218008 6.8754285e-22)
(-13.060709 0.20450053 -4.5219218e-17)
(-13.066005 0.19064338 4.5382308e-17)
(-13.072496 0.17678864 -2.2774488e-17)
(-13.080269 0.16235123 4.5714161e-17)
(-13.087705 0.14805631 7.0014487e-22)
(-13.097407 0.1332715 2.302683e-17)
(-13.107175 0.11842739 -3.367086e-34)
(-13.118807 0.103095 -2.3202626e-17)
(-13.129629 0.087640222 -2.3509887e-38)
(-13.140891 0.071826768 -7.1360507e-22)
(-13.150498 0.055760452 7.1637602e-22)
(-13.15536 0.040573194 3.0952632e-26)
(-13.162767 0.025580145 7.2216034e-22)
(-13.169713 0.010441719 -1.484957e-18)
(-13.179279 -0.0050189999 3.2434007e-26)
(-13.187765 -0.020533778 -7.3105646e-22)
(-13.197329 -0.03650227 -8.5437e-27)
(-13.207643 -0.052565729 1.2078021e-17)
(-13.217276 -0.069067705 7.4035361e-22)
(-13.229854 -0.085579158 7.4355992e-22)
(-13.238665 -0.10259323 -7.4679246e-22)
(-13.24939 -0.11978167 2.4579069e-17)
(-13.261424 -0.13726991 -2.3509887e-38)
(-13.269971 -0.15504814 -2.4798607e-17)
(-13.278974 -0.17284565 -7.6024923e-22)
(-13.284943 -0.18980822 -7.6377308e-22)
(-13.293494 -0.20689235 1.5346348e-21)
(-13.302993 -0.22419183 -2.5262361e-17)
(-13.315038 -0.24176312 -7.7450164e-22)
(-13.327379 -0.25953679 5.1007976e-17)
(-13.34071 -0.27755878 -1.880791e-37)
(-13.351108 -0.29592234 -5.1502557e-17)
(-13.366735 -0.31445484 -7.8976188e-22)
(-13.38318 -0.33325728 -5.2019414e-17)
(-13.398886 -0.35231526 -5.2281328e-17)
(-13.416163 -0.3716795 -8.0186896e-22)
(-13.434619 -0.39140959 8.0596393e-22)
(-13.449973 -0.41132793 -5.3097146e-17)
(-13.467346 -0.4313958 -2.8211864e-37)
(-13.480075 -0.45084189 -8.1886005e-22)
(-13.495584 -0.47050799 8.2324043e-22)
(-13.511715 -0.49041175 5.4248979e-17)
(-13.528094 -0.51049972 4.0957226e-26)
(-13.544602 -0.5308462 3.7883949e-26)
(-13.561334 -0.55139143 -8.417001e-22)
(-13.577834 -0.57221322 1.1095715e-16)
(-13.595553 -0.59323961 -1.1159901e-16)
(-13.612413 -0.61453633 8.5627184e-22)
(-13.630665 -0.63611148 -8.6146888e-22)
(-13.647076 -0.65790108 -7.5231638e-37)
(-13.666539 -0.68007219 -1.1428232e-16)
(-13.683405 -0.70239243 -1.1754944e-38)
(-13.703819 -0.72513609 -1.1569995e-16)
(-13.718639 -0.74749227 -1.7632415e-38)
(-13.738868 -0.7702208 -1.171693e-16)
(-13.757936 -0.79309799 -8.9969137e-22)
(-13.779586 -0.81619331 1.1869314e-16)
(-13.800385 -0.83939075 -9.1152146e-22)
(-13.825234 -0.86306214 1.2027065e-16)
(-13.850298 -0.88701839 2.4216366e-16)
(-13.877189 -0.91123614 0)
(-13.904021 -0.93574778 1.2274858e-16)
(-13.935352 -0.9607923 9.4305988e-22)
(-13.967239 -0.98608055 -9.4967756e-22)
(-13.998491 -1.0118109 -1.5046328e-36)
(-14.030506 -1.0377586 1.2627221e-16)
(-14.063958 -1.0642761 2.5438447e-16)
(-14.099148 -1.0911195 1.2812941e-16)
(-14.129269 -1.1179278 1.2908424e-16)
(-14.164086 -1.1452398 2.0911325e-25)
(-14.196785 -1.1724286 4.1222569e-38)
(-14.230116 -1.2000131 -4.377615e-33)
(-14.260998 -1.2277666 1.0151979e-21)
(-14.299223 -1.2562187 -2.046145e-21)
(-14.333964 -1.2845322 -1.3514728e-16)
(-14.368564 -1.3132558 2.2569492e-36)
(-14.403291 -1.3422399 -8.3507119e-34)
(-14.443057 -1.3718729 -2.7682047e-16)
(-14.479131 -1.4015682 -1.3953478e-16)
(-14.515859 -1.4315363 1.0732252e-21)
(-14.553497 -1.4619081 1.4183853e-16)
(-14.591677 -1.4926798 -1.0911097e-21)
(-14.627049 -1.5234936 1.100371e-21)
(-14.663666 -1.5549437 8.2944414e-26)
(-14.698985 -1.5866575 1.4669464e-16)
(-14.732814 -1.6185234 -1.1289277e-21)
(-14.764406 -1.6503513 2.2775289e-21)
(-14.795127 -1.6823157 1.5057864e-16)
(-14.825381 -1.7143569 1.519256e-16)
(-14.854059 -1.7465209 -1.1695202e-21)
(-14.880995 -1.7786623 1.546945e-16)
(-14.90824 -1.8111055 -1.191143e-21)
(-14.934392 -1.8436253 -1.5757525e-16)
(-14.959355 -1.8762556 1.2134892e-21)
(-14.984764 -1.9091168 1.2251013e-21)
(-15.009207 -1.9421298 -1.6211274e-16)
(-15.034071 -1.9754202 -1.636852e-16)
(-15.058054 -2.0088631 -1.0761443e-24)
(-15.082388 -2.0425998 -1.6691593e-16)
(-15.107483 -2.0767473 1.6857944e-16)
(-15.134091 -2.1118446 -1.7027494e-16)
(-15.159971 -2.1472682 -1.719997e-16)
(-15.185135 -2.1827511 1.3257206e-21)
(-15.208727 -2.2181765 -1.3392796e-21)
(-15.232893 -2.2538584 -3.0092655e-36)
(-15.256146 -2.289585 -1.7923051e-16)
(-15.279631 -2.3255272 3.0092655e-36)
(-15.303126 -2.3616623 1.3966307e-21)
(-15.326399 -2.3979557 -1.4115025e-21)
(-15.349738 -2.4344557 1.4268996e-21)
(-15.374037 -2.4713243 1.2724816e-25)
(-15.397414 -2.5082472 -1.4582194e-21)
(-15.422076 -2.5456195 1.9326138e-16)
(-15.446651 -2.5831892 1.4910342e-21)
(-15.471502 -2.6210537 -1.9763208e-16)
(-15.497215 -2.6592904 3.0498944e-21)
(-15.523624 -2.6979144 -3.0849069e-21)
(-15.55089 -2.7369489 2.0451547e-16)
(-15.582827 -2.7778165 -2.0690002e-16)
(-15.614008 -2.8190934 4.1867174e-16)
(-15.643996 -2.8603578 -1.6161504e-21)
(-15.673911 -2.9017507 4.287152e-16)
(-15.70276 -2.9431559 2.169442e-16)
(-15.732078 -2.9848086 0)
(-15.761065 -3.0265993 2.2227884e-16)
(-15.790036 -3.0685658 -2.2502895e-16)
(-15.818916 -3.1107087 2.2783715e-16)
(-15.847716 -3.1530305 -6.0185311e-36)
(-15.876225 -3.19549 -6.0185311e-36)
(-15.905407 -3.2382768 -2.3662481e-16)
(-15.934256 -3.2812085 -2.3967654e-16)
(-15.964042 -3.3245332 -1.8523332e-21)
(-15.994102 -3.3681341 0)
(-16.025519 -3.412239 0)
(-16.059474 -3.4571077 4.6041125e-33)
(-16.095565 -3.5026702 -1.9528553e-21)
(-16.130261 -3.5481621 -1.0180321e-26)
(-16.18198 -3.5977596 2.0063675e-21)
(-16.32791 -3.6814907 2.0339792e-21)
(-16.5176 -3.7997114 1.3514791e-16)
(-16.623124 -3.8961721 -1.3706971e-16)
(-16.680891 -3.9776805 -1.3904005e-16)
(-16.700052 -4.0453485 1.4107767e-16)
(-16.708356 -4.1054266 1.4313986e-16)
(-16.695137 -4.1549303 4.9472325e-33)
(-16.65865 -4.1930629 3.601039e-37)
(-16.604263 -4.2209231 1.6422529e-40)
(-16.5409 -4.2406579 -1.4402345e-32)
(-16.462362 -4.2506325 -1.5435779e-16)
(-16.378713 -4.2536041 -2.3915905e-21)
(-16.285156 -4.2482051 3.1842733e-16)
(-16.183786 -4.2355345 -1.2037062e-35)
(-16.073393 -4.2150031 2.5065453e-21)
(-15.962479 -4.1895467 -2.5460087e-21)
(-15.831114 -4.1538819 1.077648e-33)
(-15.715282 -4.1180146 2.6274713e-21)
(-15.596186 -4.0771816 -2.6689142e-21)
(-15.478129 -4.032917 -1.7764364e-16)
(-15.334386 -3.9785014 -1.6785683e-32)
(-15.176192 -3.9169204 1.7711419e-24)
(-14.743209 -3.7797742 2.836555e-21)
(-12.894742 -3.2851432 -2.8822924e-21)
(-19.18287 -4.8790804 -1.9127773e-16)
(-19.185387 4.8799146 9.5653718e-17)
(-12.894938 3.2852472 1.8887301e-16)
(-14.744904 3.7802665 3.7234687e-16)
(-15.178624 3.9176072 1.8341993e-16)
(-15.337093 3.9793304 6.0185311e-36)
(-15.482936 4.0341125 -2.7159028e-21)
(-15.599738 4.0781606 2.6744589e-21)
(-15.72016 4.1193633 -1.4793845e-24)
(-15.835078 4.1550017 1.7001374e-16)
(-15.967939 4.1909247 -2.5558398e-21)
(-16.078622 4.2165032 1.6483298e-16)
(-16.190934 4.2372732 2.4766948e-21)
(-16.291289 4.2498377 1.5988088e-16)
(-16.386798 4.2555097 -3.149514e-16)
(-16.469689 4.2524532 1.5511036e-16)
(-16.548856 4.2426273 4.6629215e-21)
(-16.612228 4.2228637 -2.2973233e-21)
(-16.667737 4.1952726 2.9662829e-16)
(-16.703089 4.1568315 -6.199087e-33)
(-16.719441 4.1080656 2.1982681e-21)
(-16.708268 4.0473831 1.4202586e-16)
(-16.691392 3.9801168 2.1363717e-21)
(-16.632683 3.89837 1.3807725e-16)
(-16.527578 3.8019233 -2.0780166e-21)
(-16.342732 3.6847859 -1.3435747e-16)
(-16.189637 3.5994136 -6.0185311e-36)
(-16.140506 3.5504695 1.3083137e-16)
(-16.104864 3.5046778 -1.2912119e-16)
(-16.067866 3.458945 1.8817937e-25)
(-16.034909 3.4142207 -1.919564e-21)
(-16.002046 3.3698379 -2.4839756e-16)
(-15.971766 3.3261285 1.8712156e-21)
(-15.940912 3.2825919 -2.4217729e-16)
(-15.912165 3.2396285 -1.2037062e-35)
(-15.882053 3.1966397 0)
(-15.853398 3.1541099 -2.3332146e-16)
(-15.82373 3.1115888 2.3049189e-16)
(-15.793585 3.0691776 2.277184e-16)
(-15.765136 3.027289 2.2499938e-16)
(-15.734862 2.9852354 3.3926276e-21)
(-15.705731 2.9435958 2.197266e-16)
(-15.675989 2.9020112 2.1717626e-16)
(-15.645941 2.8605745 4.2933697e-16)
(-15.61541 2.8192012 2.1221558e-16)
(-15.584163 2.7779068 1.6006248e-21)
(-15.551901 2.7369777 -4.1489445e-16)
(-15.524325 2.6978875 3.1300402e-21)
(-15.498067 2.6592823 -1.5477685e-21)
(-15.471762 2.6209505 8.2282716e-33)
(-15.447609 2.5832051 3.0092655e-36)
(-15.421846 2.5454595 -1.9631156e-16)
(-15.398774 2.5083807 1.9421333e-16)
(-15.374763 2.4712554 0)
(-15.351239 2.4345702 1.570276e-32)
(-15.327566 2.3979535 1.1649471e-38)
(-15.304918 2.3618035 0)
(-15.281857 2.3256792 -1.8429308e-16)
(-15.259516 2.2899536 1.391679e-21)
(-15.236506 2.2542242 1.8057317e-16)
(-15.213681 2.2187752 0)
(-15.190452 2.1833719 1.7698973e-16)
(-15.166459 2.1480767 4.7019774e-38)
(-15.141478 2.1127715 1.7353309e-16)
(-15.115915 2.0778189 1.7184931e-16)
(-15.091642 2.0437897 -1.7019723e-16)
(-15.068621 2.0101854 -1.6857697e-16)
(-15.044709 1.9767536 -1.2739528e-21)
(-15.020981 1.9435917 -1.6542258e-16)
(-14.996604 1.9105907 -1.6389026e-16)
(-14.972171 1.8778219 1.6238683e-16)
(-14.947669 1.8452789 3.0092655e-36)
(-14.922255 1.8128482 -1.5946694e-16)
(-14.895376 1.780473 3.1609651e-16)
(-14.868761 1.7483428 1.195149e-21)
(-14.84065 1.7162723 -1.1848302e-21)
(-14.810123 1.6841276 1.1747172e-21)
(-14.77931 1.6521846 -9.5368898e-26)
(-14.748946 1.6205064 -1.5135382e-16)
(-14.712421 1.5883524 1.500872e-16)
(-14.678981 1.5567713 1.4884858e-16)
(-14.640607 1.5251335 -1.7500011e-25)
(-14.606447 1.4943538 -1.464306e-16)
(-14.565625 1.4632412 2.9051092e-16)
(-14.528595 1.4328478 -1.0993526e-21)
(-14.492543 1.4028136 -2.8593361e-16)
(-14.452402 1.3728226 1.4184746e-16)
(-14.415573 1.3433309 0)
(-14.375293 1.3138368 2.7933148e-16)
(-14.3453 1.2855739 -1.3860541e-16)
(-14.304461 1.2565683 1.6256052e-32)
(-14.272005 1.2285489 -1.0415909e-21)
(-14.234495 1.2004493 1.3551382e-16)
(-14.207278 1.1733637 -1.3451945e-16)
(-14.168192 1.1454788 -2.6707308e-16)
(-14.141547 1.1188264 0)
(-14.103825 1.0916695 7.5231638e-37)
(-14.077026 1.0652658 -1.3069495e-16)
(-14.038451 1.0385201 -1.9802575e-21)
(-14.014217 1.0127992 9.8332056e-22)
(-13.980035 0.98719191 9.7651091e-22)
(-13.953481 0.96183748 -9.6995306e-22)
(-13.921014 0.93680125 -1.262772e-16)
(-13.896893 0.91234352 1.2544279e-16)
(-13.871614 0.88829596 -3.7615819e-37)
(-13.847148 0.86419148 2.4763406e-16)
(-13.824859 0.84065759 -1.2302707e-16)
(-13.803546 0.81729845 -1.2225356e-16)
(-13.78327 0.79423375 -9.269122e-22)
(-13.764909 0.77147032 1.0755491e-32)
(-13.743798 0.74874362 -1.2000868e-16)
(-13.730109 0.72639146 1.1928864e-16)
(-13.706575 0.70344298 -9.0468503e-22)
(-13.691733 0.68114515 1.1788903e-16)
(-13.669768 0.65885244 -8.9421572e-22)
(-13.652345 0.63698974 8.890978e-22)
(-13.633316 0.61538807 -8.8411036e-22)
(-13.613223 0.59392258 -1.1523634e-16)
(-13.597924 0.57298617 -1.1460221e-16)
(-13.576891 0.55195253 -1.1398025e-16)
(-13.559665 0.53139955 -5.6683719e-17)
(-13.542983 0.51103359 8.6031448e-22)
(-13.521337 0.49074805 -8.5583492e-22)
(-13.506811 0.47088958 5.5795123e-17)