/*--------------------------------*- C++ -*----------------------------------*\
| =========                 |                                                 |
| \\      /  F ield         | OpenFOAM: The Open Source CFD Toolbox           |
|  \\    /   O peration     | Version:  2506                                  |
|   \\  /    A nd           | Website:  www.openfoam.com                      |
|    \\/     M anipulation  |                                                 |
\*---------------------------------------------------------------------------*/
FoamFile
{
    version     2.0;
    format      ascii;
    arch        "LSB;label=32;scalar=64";
    class       volScalarField;
    location    "0.014";
    object      Ma;
}
// * * * * * * * * * * * * * * * * * * * * * * * * * * * * * * * * * * * * * //

dimensions      [0 0 0 0 0 0 0];

internalField   nonuniform List<scalar> 
192657
(
0.30044594
0.29916422
0.30033055
0.29977083
0.29994396
0.29981854
0.29974408
0.29968003
0.29963965
0.29961219
0.29956406
0.29941277
0.29895521
0.29789075
0.29627466
0.29574965
0.29847118
0.30259868
0.3053175
0.3050504
0.30288686
0.30165927
0.30196526
0.30236021
0.30277529
0.3027024
0.30258729
0.30276544
0.30291901
0.3029746
0.30299818
0.30305397
0.30313382
0.30317581
0.3032539
0.30334879
0.30341853
0.30347698
0.30351277
0.30361212
0.30379056
0.30385196
0.30399334
0.30410121
0.30416969
0.30438311
0.30449034
0.30478265
0.30512999
0.30542302
0.30591705
0.30650419
0.30706593
0.30774732
0.30862946
0.30954543
0.31047054
0.31156513
0.3128232
0.31411551
0.31541962
0.31680195
0.31830211
0.31985228
0.3213735
0.32286088
0.32437123
0.32593128
0.32748898
0.32899439
0.33042822
0.3317948
0.33311835
0.33442934
0.335716
0.33692486
0.33802673
0.33904159
0.34000327
0.34093734
0.34184985
0.34273086
0.34355906
0.3443187
0.34501581
0.345669
0.34629291
0.34689857
0.34749388
0.34808131
0.34865422
0.34919989
0.3497112
0.35018974
0.35064328
0.35107725
0.35149929
0.35191957
0.35234488
0.35277577
0.35320756
0.35363457
0.354053
0.35445789
0.35484777
0.35522691
0.35582171
0.35552575
0.35327937
0.34947976
0.3455543
0.34150312
0.33732617
0.33307192
0.32878144
0.32448256
0.32019153
0.31591342
0.3116503
0.30740802
0.30318633
0.29897873
0.2947755
0.29056534
0.28633539
0.28207075
0.27775486
0.27336929
0.26889275
0.26430212
0.25957098
0.25466817
0.24956007
0.24420765
0.23856193
0.23256165
0.22611504
0.21907941
0.21120618
0.20220933
0.19167552
0.17900387
0.1633861
0.14393419
0.12029893
0.093603762
0.06597031
0.038908485
0.012917146
0.30044654
0.29916469
0.30033431
0.29977166
0.29994399
0.29981841
0.29974391
0.29967988
0.29963959
0.29961235
0.29956468
0.29941496
0.29896108
0.29790104
0.29628003
0.29572449
0.29842467
0.30254867
0.30529543
0.3050656
0.30292219
0.30166973
0.30195448
0.30234513
0.30276624
0.30269882
0.30257574
0.30274907
0.3028979
0.30295154
0.302973
0.30302503
0.30309997
0.30313877
0.30321004
0.30329841
0.30337315
0.3034228
0.30345273
0.30354648
0.30371391
0.30376229
0.30389862
0.30398889
0.30404573
0.30424396
0.30433765
0.304619
0.30494582
0.30522206
0.30570068
0.3062652
0.30680493
0.30746945
0.30833307
0.30922543
0.31013183
0.3112112
0.3124524
0.31372624
0.31501492
0.3163878
0.31788083
0.31942106
0.32093546
0.32241935
0.32392874
0.3254923
0.32705265
0.32856038
0.32999817
0.33137005
0.33270111
0.33402219
0.33531751
0.33653317
0.33764154
0.33866367
0.33963372
0.34057551
0.34149437
0.34237839
0.34320585
0.34396184
0.34465448
0.34530227
0.34592015
0.34651855
0.34710362
0.34767357
0.34821987
0.34873504
0.34921624
0.34966368
0.35007667
0.35046208
0.35083169
0.35119476
0.35155553
0.35191378
0.35226792
0.35261437
0.35294678
0.35325914
0.35354881
0.3538095
0.35367501
0.35274245
0.34983074
0.3457142
0.34144351
0.33699544
0.33240813
0.32772268
0.32297959
0.3182121
0.31344516
0.30869324
0.30396013
0.29925612
0.29458022
0.28992647
0.28528582
0.28064675
0.27599557
0.27131585
0.26658867
0.2617925
0.256902
0.25188876
0.24671914
0.24135212
0.23574038
0.22982626
0.22353515
0.21677254
0.20941952
0.20132318
0.19228455
0.18204176
0.17023945
0.15640603
0.13997556
0.12046867
0.098128267
0.074485478
0.051412401
0.029787815
0.0097043732
0.30044728
0.29916493
0.30033408
0.29977253
0.2999446
0.29981896
0.29974432
0.29968009
0.29963972
0.29961256
0.29956519
0.29941645
0.29896493
0.29790717
0.29628033
0.29569942
0.29838414
0.30250734
0.30527701
0.3050755
0.30295313
0.30167897
0.30194391
0.30233159
0.3027576
0.30269372
0.30256368
0.30273244
0.30287657
0.30292882
0.30294749
0.30299559
0.30306623
0.30310158
0.30316513
0.30324761
0.30332651
0.30336839
0.30339156
0.30347845
0.30363412
0.30367136
0.30380252
0.30387399
0.30391984
0.30410352
0.3041839
0.30445311
0.30476004
0.30501911
0.30548193
0.30602409
0.30654218
0.30718925
0.30803347
0.30890356
0.30979095
0.31085406
0.31207581
0.31333325
0.31460742
0.31596875
0.31745145
0.31898297
0.32049024
0.32196934
0.32347993
0.32504404
0.32660517
0.32811727
0.32956036
0.33093793
0.33227755
0.33360766
0.3349112
0.33613301
0.33724785
0.33827698
0.33925391
0.34020161
0.34112398
0.3420098
0.34283721
0.34359151
0.34427966
0.34491977
0.34552597
0.34610861
0.34667463
0.34722484
0.34775053
0.34823776
0.34868013
0.34908006
0.34944417
0.34977771
0.35008859
0.35038604
0.3506752
0.35095601
0.35122439
0.35147596
0.35170657
0.35191283
0.35209221
0.35229579
0.35264169
0.35204458
0.34902748
0.34481294
0.34044645
0.33590937
0.33123587
0.32647362
0.3216624
0.31683135
0.31200346
0.30720579
0.30245822
0.29775016
0.2930729
0.28841753
0.28377412
0.27913111
0.27447502
0.26978992
0.26505751
0.26025698
0.25536386
0.25035119
0.2451876
0.23983522
0.23425075
0.22838214
0.22216233
0.21550482
0.20829633
0.20038606
0.19157225
0.18157814
0.17002733
0.15642985
0.14020355
0.12088899
0.09875438
0.075266079
0.052162488
0.030326848
0.0099141152
0.30044743
0.29916359
0.30033146
0.29977302
0.29994497
0.29981912
0.29974443
0.2996802
0.29963982
0.29961275
0.29956579
0.29941828
0.29896963
0.29791487
0.29628207
0.29567113
0.29833668
0.30246007
0.30525764
0.30509024
0.30298741
0.30168953
0.30193253
0.30231708
0.30274916
0.30269013
0.3025517
0.30271519
0.30285558
0.30290631
0.30292189
0.30296646
0.30303211
0.30306395
0.30312062
0.30319724
0.30327868
0.30331155
0.30332896
0.3034096
0.30355415
0.30357963
0.30370477
0.30375712
0.30379269
0.30396129
0.30402829
0.30428596
0.30457208
0.30481459
0.30526138
0.30578026
0.30627638
0.30690629
0.30773111
0.30857699
0.30944564
0.31049177
0.31169588
0.31293483
0.3141922
0.3155435
0.31701744
0.31853919
0.32003861
0.32151295
0.32302252
0.32458932
0.32615252
0.32766704
0.32911413
0.33049672
0.33184441
0.33318483
0.33449711
0.33572619
0.33684779
0.33788418
0.33886878
0.33982332
0.34075075
0.34163806
0.34246257
0.34321042
0.34389041
0.34452072
0.34511573
0.34568491
0.34623306
0.34675739
0.34724891
0.34769983
0.34810603
0.34846687
0.34878366
0.3490648
0.34932201
0.34956457
0.34979687
0.35001902
0.35022951
0.35042454
0.35059875
0.35074732
0.35087064
0.35091126
0.3508115
0.35008194
0.34712056
0.34289536
0.33849552
0.33391441
0.32919007
0.32437178
0.31950238
0.31461406
0.30972519
0.30485103
0.29999821
0.29516885
0.29036069
0.28556904
0.28078638
0.27600225
0.27120401
0.26637631
0.26150142
0.256559
0.25152472
0.24637116
0.24106554
0.23556803
0.22983348
0.22380804
0.21742365
0.2105955
0.20321712
0.19515164
0.18622054
0.1761842
0.16469783
0.1512844
0.13537355
0.1165086
0.094964312
0.072203692
0.049925381
0.028963896
0.0094458509
0.3004476
0.29916091
0.30033154
0.2997732
0.29994581
0.29981996
0.29974507
0.29968058
0.29964006
0.29961299
0.2995663
0.29941962
0.29897286
0.29791948
0.29627979
0.29564313
0.29829437
0.30241991
0.30524122
0.30509962
0.30301766
0.30169875
0.3019207
0.30230304
0.30274094
0.30268485
0.30253918
0.30269767
0.30283399
0.30288334
0.30289595
0.30293722
0.30299802
0.30302569
0.30307503
0.30314643
0.30322948
0.30325436
0.30326583
0.30333939
0.30347135
0.30348617
0.30360562
0.3036383
0.30366396
0.30381821
0.30387213
0.30411692
0.30438313
0.30460841
0.30503863
0.3055347
0.30600919
0.30662115
0.30742587
0.30824905
0.3090978
0.31012643
0.31131148
0.31253206
0.31377435
0.31511342
0.31657521
0.31808791
0.31957932
0.32104819
0.32255869
0.32412473
0.32568874
0.3272075
0.3286589
0.33004787
0.33140405
0.33275302
0.33407329
0.33530898
0.33643819
0.33748239
0.33847466
0.33943516
0.34036615
0.34125494
0.34207906
0.34282457
0.34349897
0.34412008
0.34470195
0.34525428
0.3457833
0.34628838
0.34675935
0.34718225
0.34755237
0.3478737
0.34815273
0.34839556
0.34861172
0.34881098
0.34899897
0.34917646
0.34934049
0.34948778
0.34961475
0.34971966
0.34980145
0.34992861
0.35003358
0.34937773
0.34649583
0.34227093
0.33785186
0.33324848
0.32849804
0.32364799
0.31874107
0.31381231
0.30889069
0.30398403
0.29909816
0.29423553
0.28939467
0.28457078
0.27975584
0.27493957
0.2701098
0.26525152
0.26034786
0.25537972
0.25032422
0.24515549
0.23984239
0.23434682
0.22862514
0.22262417
0.21627451
0.2094895
0.20215818
0.19413587
0.18523304
0.17519661
0.16367737
0.15020984
0.13424428
0.11535821
0.093869095
0.071257726
0.049200222
0.028503949
0.0092811798
0.30044911
0.29915891
0.30033527
0.29977345
0.29994629
0.29982046
0.29974532
0.29968082
0.29964022
0.2996132
0.2995669
0.29942138
0.29897723
0.29792643
0.29628036
0.29561228
0.29824389
0.30237132
0.30522188
0.30511321
0.30305221
0.30170997
0.30190861
0.30228731
0.30273188
0.30268029
0.30252688
0.30267984
0.3028127
0.30286019
0.30286996
0.30290841
0.30296306
0.30298711
0.3030299
0.30309671
0.30317932
0.30319554
0.30320103
0.30326749
0.30338833
0.3033927
0.30350476
0.30351774
0.30353426
0.3036739
0.30371409
0.30394707
0.3041922
0.30440082
0.30481432
0.30528677
0.3057391
0.30633374
0.30711823
0.30791676
0.30874603
0.30975666
0.31092329
0.31212457
0.31334926
0.31467732
0.31612897
0.31763172
0.31911346
0.32057678
0.322086
0.32365336
0.32521905
0.32674013
0.32819525
0.32958919
0.33095396
0.3323134
0.33364247
0.33488603
0.33602234
0.3370742
0.33807433
0.33904239
0.33997933
0.34087089
0.34169355
0.34243419
0.343102
0.34371533
0.34428831
0.34482966
0.3453437
0.34582766
0.34627273
0.34667114
0.34701849
0.34731465
0.34756371
0.34777575
0.34796272
0.34813452
0.34829617
0.34844827
0.34858955
0.34871665
0.3488256
0.34891338
0.3489813
0.34896163
0.34894849
0.34841753
0.34582097
0.34166946
0.33728162
0.33270787
0.32798096
0.32314777
0.31824839
0.31331329
0.30836391
0.30341474
0.29847469
0.29354783
0.28863395
0.28373004
0.27883048
0.27392636
0.26900602
0.26405488
0.25905798
0.25399648
0.24884696
0.24358325
0.23817434
0.23258269
0.22676592
0.22067362
0.2142418
0.20738731
0.20000388
0.19195256
0.18304901
0.1730429
0.1615857
0.14821163
0.13237225
0.11365335
0.092388223
0.070062199
0.048330056
0.027975718
0.0091003106
0.30045094
0.29915855
0.30033798
0.29977368
0.2999472
0.29982137
0.29974603
0.29968128
0.29964051
0.29961346
0.29956743
0.29942275
0.29898038
0.29793068
0.29627707
0.2955821
0.29819873
0.30232972
0.30520564
0.30512353
0.30308379
0.30171999
0.30189578
0.30227136
0.30272291
0.30267312
0.30251385
0.30266168
0.30279049
0.30283618
0.30284372
0.30287961
0.30292865
0.30294855
0.30298424
0.30304634
0.30312793
0.30313572
0.30313624
0.30319481
0.30330336
0.3032972
0.30340228
0.30339563
0.30340293
0.30352874
0.30355596
0.30377543
0.30400022
0.30419164
0.30458779
0.30503719
0.30546789
0.30604415
0.30680781
0.30758301
0.30839149
0.30938357
0.31053171
0.31171229
0.31292109
0.31423618
0.31567422
0.31716723
0.31864006
0.32009722
0.32160653
0.32317229
0.32473881
0.32626321
0.3277219
0.32912274
0.3304954
0.33186296
0.3332002
0.33445143
0.33559684
0.33665777
0.33766701
0.33864224
0.33958449
0.3404797
0.34130487
0.34204651
0.34271243
0.3433206
0.34388526
0.34441585
0.34491874
0.34539264
0.34582675
0.34620808
0.34653412
0.34681044
0.34704308
0.34723877
0.34740828
0.34756177
0.34770524
0.34783995
0.34796338
0.34807302
0.34816708
0.34824498
0.34830627
0.34842089
0.34840548
0.34796336
0.34558263
0.34147904
0.33710484
0.33254472
0.32782699
0.32299734
0.3180965
0.31315519
0.3081948
0.30322979
0.29826952
0.29331852
0.28837698
0.28344223
0.27850909
0.27356975
0.26861516
0.2636344
0.25861204
0.25352862
0.24835891
0.24307661
0.23765118
0.23204528
0.22621622
0.22011207
0.21366581
0.20679245
0.19938434
0.19130274
0.18236491
0.17232437
0.16083792
0.14744592
0.13160661
0.11291274
0.091705931
0.069477849
0.047880559
0.027689304
0.0089973992
0.30045183
0.29915796
0.30033575
0.29977364
0.29994783
0.29982214
0.29974635
0.29968158
0.29964072
0.29961368
0.29956803
0.29942452
0.29898476
0.29793758
0.29627742
0.29555003
0.2981454
0.30227873
0.30518541
0.30513629
0.3031194
0.30173256
0.30188285
0.30225331
0.30271301
0.3026677
0.30250122
0.30264348
0.30276819
0.30281241
0.30281808
0.30285145
0.30289423
0.30290984
0.30293954
0.30299686
0.3030756
0.30307533
0.30306979
0.3031204
0.30321797
0.3032023
0.30329887
0.30327153
0.30327095
0.30338244
0.30339595
0.30360276
0.30380624
0.30398117
0.30435999
0.30478554
0.30519373
0.3057526
0.30649512
0.3072453
0.30803309
0.30900714
0.31013571
0.31129531
0.3124865
0.3137892
0.3152161
0.3166983
0.31815941
0.31961088
0.32111835
0.32268382
0.32425169
0.32577811
0.32724015
0.32864606
0.3300277
0.33140587
0.33275202
0.33401169
0.3351646
0.33623395
0.33725218
0.33823693
0.33918759
0.34008893
0.34091691
0.34165876
0.34232368
0.34293041
0.34349283
0.34401972
0.34451598
0.34497933
0.34540146
0.3457745
0.34609387
0.34636026
0.34658023
0.34676448
0.34692461
0.34707104
0.34720942
0.34734084
0.34746454
0.34757755
0.34767562
0.34775503
0.34781522
0.34781651
0.34781593
0.34750283
0.34549166
0.3415099
0.33716452
0.33262776
0.32792169
0.32309326
0.31818527
0.31323078
0.30825375
0.30327047
0.29829157
0.29332257
0.28836438
0.28341394
0.2784637
0.27350374
0.26852203
0.26350352
0.25843012
0.25328399
0.2480459
0.24269294
0.23719613
0.23151936
0.22562166
0.21945256
0.21294603
0.20602066
0.19857198
0.19046166
0.18150699
0.17146117
0.15998071
0.14660644
0.13079879
0.11215618
0.091030145
0.068917528
0.047462721
0.027430165
0.0089067115
0.30045253
0.29915626
0.30033231
0.29977341
0.29994877
0.29982316
0.29974717
0.29968208
0.29964103
0.29961396
0.29956859
0.29942595
0.29898805
0.29794194
0.29627383
0.29551699
0.29809678
0.30223454
0.30516879
0.30514772
0.30315227
0.30174303
0.30186941
0.30223437
0.30270373
0.30266077
0.30248822
0.30262491
0.30274543
0.30278816
0.30279237
0.30282278
0.30286019
0.30287148
0.30289462
0.30294617
0.30302224
0.30301342
0.30300373
0.30304557
0.30313141
0.30310575
0.30319349
0.30314599
0.30313794
0.30323511
0.30323552
0.30342831
0.3036114
0.30376926
0.30412992
0.30453207
0.30491858
0.30545882
0.30617966
0.30690563
0.30767213
0.30862688
0.30973642
0.31087378
0.31204811
0.31333678
0.31474932
0.31622052
0.31767186
0.31911662
0.32062276
0.32218626
0.3237547
0.32528305
0.32674851
0.32816133
0.32955008
0.33093609
0.33229099
0.33355975
0.33472322
0.3358032
0.3368323
0.33782607
0.33878473
0.33969326
0.34052845
0.34127695
0.34194651
0.34255509
0.34311711
0.34364257
0.34413803
0.34460167
0.34502265
0.34538963
0.34570187
0.34596577
0.34618641
0.34637071
0.34653037
0.34667596
0.34681397
0.3469458
0.34706884
0.34718066
0.3472793
0.34736391
0.34744006
0.34753695
0.34755181
0.34730326
0.34557376
0.34174582
0.33744101
0.33294864
0.32828406
0.32349044
0.31860839
0.31366982
0.30869769
0.30370685
0.29870742
0.29370607
0.28870539
0.28370399
0.27869795
0.27368082
0.268644
0.26357584
0.25846184
0.25328461
0.24802246
0.24264929
0.23713377
0.23143797
0.2255188
0.21932597
0.21279629
0.20584788
0.1983754
0.19024112
0.18126314
0.1711958
0.15969711
0.14630961
0.13049581
0.11185693
0.090748233
0.068670572
0.047269024
0.02730485
0.0088610702
0.30045366
0.29915449
0.30033207
0.2997732
0.29994962
0.29982391
0.29974761
0.29968242
0.29964126
0.29961418
0.29956922
0.29942775
0.29899256
0.29794908
0.29627435
0.29548465
0.29804008
0.30217984
0.30514665
0.30515995
0.30318963
0.30175646
0.30185605
0.30221331
0.30269356
0.30265523
0.30247575
0.30260604
0.30272293
0.30276441
0.30276733
0.3027952
0.30282701
0.30283262
0.30284979
0.30289631
0.30296784
0.30295135
0.30293619
0.30296871
0.30304395
0.3030095
0.30308681
0.30301841
0.30300478
0.30308635
0.30307323
0.30325299
0.30341468
0.30355582
0.30389861
0.30427673
0.3046405
0.30516317
0.30586195
0.30656247
0.30730721
0.3082442
0.30933262
0.31044711
0.31160409
0.31287885
0.31427947
0.31573826
0.31717628
0.31861543
0.32011879
0.32168055
0.32324991
0.32477988
0.32624825
0.32766621
0.32906414
0.33046091
0.33182489
0.33310244
0.33427387
0.33536334
0.33640321
0.33740901
0.33837917
0.33929796
0.34014118
0.34089615
0.34157167
0.34218647
0.34275446
0.34328458
0.34378237
0.34424626
0.34466841
0.34504067
0.3453585
0.34562371
0.34584489
0.34603244
0.34619745
0.34635065
0.34649783
0.34663996
0.34677567
0.3469015
0.347013
0.34710598
0.34717308
0.34719217
0.3472281
0.34708409
0.34572596
0.34212122
0.33785278
0.33339142
0.32874993
0.32397137
0.31909859
0.31416577
0.30919729
0.30420898
0.29921087
0.29420837
0.28920287
0.28419229
0.27917134
0.27413257
0.26906678
0.26396233
0.2588053
0.25357898
0.24826288
0.24283424
0.23726511
0.23152012
0.22555849
0.21933055
0.21277195
0.20579984
0.19830838
0.19015957
0.18117133
0.17109757
0.15959571
0.14620772
0.13039558
0.11175823
0.090648805
0.06857228
0.047182078
0.027242897
0.0088364918
0.30045445
0.29915304
0.30033484
0.29977351
0.29995073
0.29982505
0.29974851
0.29968298
0.2996416
0.29961447
0.29956982
0.29942926
0.29899607
0.29795377
0.29627079
0.295449
0.29798843
0.3021328
0.30512892
0.30517085
0.30322327
0.30176804
0.3018426
0.30219224
0.30268466
0.30264862
0.30246264
0.30258685
0.30270005
0.30274042
0.30274183
0.30276695
0.30279346
0.30279422
0.30280504
0.30284559
0.30291264
0.30288803
0.30286817
0.30289117
0.30295579
0.3029117
0.30297772
0.3028893
0.30287044
0.30293653
0.30291044
0.30307609
0.30321685
0.30334094
0.30366493
0.30401922
0.30436137
0.30486522
0.30554135
0.30621681
0.30694017
0.30785717
0.30892449
0.31001664
0.3111557
0.31241492
0.31380103
0.31524704
0.31667449
0.31810657
0.31960672
0.3211664
0.32273555
0.32426612
0.32573815
0.32716245
0.32856684
0.32997137
0.33134489
0.33263294
0.33381609
0.33491783
0.33597025
0.33698704
0.33796797
0.33889761
0.33975264
0.34051987
0.34120676
0.34183092
0.3424069
0.34294491
0.34345164
0.34392472
0.34435376
0.34472944
0.3450525
0.34532954
0.34556441
0.34576399
0.34594038
0.34610412
0.3462615
0.34641346
0.34655712
0.34668984
0.34680946
0.34691474
0.34701234
0.34712595
0.3471709
0.34706
0.34595171
0.34261693
0.33840296
0.33399473
0.32940316
0.32466615
0.31982496
0.31491354
0.3099566
0.30497053
0.29996595
0.29494899
0.2899221
0.28488556
0.27983625
0.27476723
0.26966929
0.2645309
0.2593383
0.25407525
0.24872144
0.24325361
0.23764347
0.23185577
0.22585005
0.21957726
0.21297375
0.20595803
0.19842533
0.19023852
0.18121647
0.17111418
0.15959008
0.14618675
0.13036431
0.11171843
0.090599008
0.068514169
0.047125178
0.027199904
0.0088187238
0.30045472
0.2991508
0.30033858
0.29977444
0.29995193
0.29982572
0.29974904
0.2996834
0.29964185
0.29961471
0.29957047
0.2994311
0.29900074
0.29796127
0.29627168
0.29541592
0.29792821
0.30207439
0.3051044
0.30518128
0.30326153
0.30178397
0.3018294
0.30216875
0.30267431
0.30264338
0.30245013
0.30256797
0.30267762
0.30271643
0.3027166
0.30273913
0.30276026
0.3027551
0.30276038
0.30279501
0.30285677
0.30282462
0.30279941
0.30281183
0.30286639
0.30281374
0.30286739
0.30275859
0.30273541
0.30278543
0.30274621
0.30289813
0.30301696
0.30312426
0.30342991
0.30375992
0.30407954
0.30456534
0.30521845
0.305868
0.30656911
0.30746788
0.30851261
0.30958064
0.31070193
0.31194588
0.31331934
0.31475088
0.31616429
0.3175905
0.31908654
0.3206435
0.32221297
0.32374466
0.32521899
0.32664839
0.32806194
0.32947728
0.33086008
0.33215696
0.33334866
0.33446114
0.33552633
0.33655763
0.33755312
0.33849673
0.33936425
0.34014318
0.34084213
0.3414797
0.34206937
0.34262013
0.34313786
0.34362163
0.34406398
0.34445634
0.34479446
0.34508119
0.345326
0.34553866
0.3457295
0.34590929
0.34608359
0.34625281
0.34641513
0.34656681
0.34670334
0.34682034
0.34690952
0.34695521
0.34702372
0.34699821
0.34620326
0.34320329
0.33904611
0.33467687
0.3301199
0.32541091
0.32059252
0.31570039
0.31076039
0.3057891
0.30079667
0.29578818
0.2907646
0.28572434
0.28066411
0.27557837
0.27045908
0.2652954
0.26007398
0.25477896
0.24939069
0.24388665
0.23823919
0.23241378
0.2263705
0.22006034
0.21341957
0.20636686
0.19879788
0.19057602
0.18152059
0.17138696
0.15983378
0.14640324
0.13055443
0.11187894
0.090721524
0.068593377
0.047166972
0.027216244
0.0088211128
0.30045588
0.299148
0.30034187
0.29977609
0.29995346
0.29982681
0.29974999
0.29968401
0.29964222
0.29961501
0.2995711
0.29943271
0.2990045
0.29796641
0.29626833
0.29537845
0.29787278
0.30202371
0.3050853
0.3051913
0.30329563
0.30179818
0.30181489
0.30214563
0.30266513
0.30263763
0.30243748
0.30254895
0.30265437
0.3026926
0.30269164
0.30271054
0.30272682
0.30271618
0.30271522
0.30274362
0.30279948
0.30275965
0.30272953
0.30273196
0.30277685
0.30271471
0.30275455
0.30262633
0.30259888
0.30263354
0.30258109
0.30271832
0.30281553
0.3029062
0.30319265
0.30349821
0.30379638
0.30426313
0.30489252
0.3055164
0.30619612
0.307074
0.30809484
0.30914144
0.31024366
0.31147052
0.3128293
0.31424606
0.31564811
0.31706683
0.3185578
0.32011244
0.32168046
0.32321182
0.32469
0.32612479
0.32754451
0.32896773
0.33036078
0.33166915
0.33287334
0.33399958
0.33507858
0.33612257
0.33713118
0.33808866
0.33897146
0.33976683
0.34048274
0.34113664
0.34174227
0.34230983
0.34284548
0.34334626
0.34380244
0.34420662
0.34456029
0.34486924
0.34513603
0.3453677
0.34557652
0.34577293
0.34596294
0.34614695
0.34632184
0.34648488
0.34663395
0.34676788
0.34689335
0.34702822
0.3471051
0.3470858
0.34647313
0.34384106
0.33977506
0.33546419
0.33096227
0.32629911
0.32151649
0.31665088
0.31172947
0.30677025
0.30178447
0.29677791
0.29175178
0.28670429
0.28163142
0.27652776
0.27138612
0.26619606
0.26094472
0.25561678
0.25019302
0.24465131
0.23896427
0.23309751
0.22701161
0.22065837
0.2139748
0.20688014
0.19927056
0.19100982
0.18191755
0.17174933
0.16016375
0.14670247
0.13082261
0.11211104
0.090906633
0.068723399
0.047245795
0.027254968
0.0088310958
0.30045848
0.29914652
0.30034507
0.29977791
0.29995547
0.29982748
0.29975055
0.29968448
0.29964251
0.29961527
0.29957178
0.29943462
0.29900934
0.29797433
0.29626973
0.29534423
0.29780968
0.30196125
0.30505789
0.30520157
0.30333472
0.30181783
0.30180157
0.30212051
0.30265392
0.30263329
0.30242581
0.30252986
0.30263135
0.30266873
0.30266627
0.3026825
0.3026937
0.30267669
0.30267012
0.30269159
0.30274155
0.3026939
0.30265917
0.30265064
0.30268568
0.30261464
0.3026398
0.30249364
0.3024616
0.30248007
0.3024145
0.30253723
0.30261237
0.30268628
0.3029538
0.30323492
0.30351083
0.30395878
0.30456439
0.3051618
0.30581922
0.30667727
0.30767466
0.3086968
0.30977959
0.3109902
0.3123355
0.31373573
0.31512381
0.31653563
0.31802095
0.31957246
0.32114003
0.32267184
0.32415155
0.32559124
0.32701983
0.32845376
0.32985618
0.33117324
0.33238675
0.33352498
0.33461858
0.33567908
0.33670471
0.33767891
0.33857726
0.33938786
0.3401203
0.34079357
0.34141967
0.34200719
0.34256184
0.34308296
0.34356303
0.34399266
0.34436777
0.34469188
0.34497467
0.34522507
0.34545324
0.34567007
0.34588087
0.34608561
0.34628218
0.34646668
0.34663465
0.34678138
0.34689858
0.34697324
0.3470769
0.34712722
0.34674642
0.3445188
0.3405683
0.33630295
0.33184432
0.32721869
0.32246809
0.31763006
0.31273275
0.30779476
0.30282751
0.29783664
0.29282297
0.2877841
0.28271509
0.27760921
0.27245889
0.26725455
0.26198396
0.25663227
0.25118067
0.24560757
0.23988622
0.23398276
0.22785833
0.22146526
0.21474095
0.20760511
0.19995433
0.19165278
0.18252045
0.17231318
0.16068955
0.14719043
0.13127028
0.11250919
0.091237079
0.068970072
0.047408304
0.027343663
0.0088578811
0.30046091
0.29914652
0.30034675
0.29977945
0.29995806
0.29982835
0.29975147
0.29968512
0.29964291
0.29961559
0.29957245
0.29943634
0.29901338
0.29798001
0.29626673
0.29530509
0.29774991
0.30190712
0.30503719
0.30521124
0.3033706
0.30183468
0.30178731
0.30209474
0.30264401
0.30262873
0.30241331
0.30251026
0.30260762
0.3026444
0.3026409
0.3026535
0.30266
0.30263707
0.30262501
0.30263863
0.30268211
0.30262723
0.30258664
0.30256794
0.30259472
0.30251321
0.30252337
0.3023595
0.30232234
0.30232574
0.30224648
0.30235445
0.30240767
0.30246473
0.30271273
0.30296918
0.30322357
0.303652
0.30423295
0.30480441
0.30543998
0.30627606
0.30724752
0.30824879
0.3093113
0.31050374
0.3118335
0.31321718
0.31459311
0.31599665
0.31747552
0.31902406
0.32058863
0.32211967
0.323603
0.32504708
0.3264819
0.32792388
0.32933698
0.33066589
0.33189231
0.33304536
0.33415347
0.33522798
0.33626843
0.33725859
0.33817458
0.3390044
0.33975744
0.34045224
0.34110052
0.34171167
0.34229109
0.34283517
0.34333462
0.3437832
0.34418203
0.34453557
0.34484546
0.34511908
0.345369
0.34560575
0.34583512
0.34605721
0.34626876
0.34646734
0.34665047
0.34681763
0.346975
0.34713587
0.34724146
0.34728725
0.34701212
0.34518467
0.3414092
0.33720509
0.33280429
0.32822807
0.32351739
0.31871073
0.31383791
0.30891917
0.30396715
0.2989882
0.29398339
0.28895015
0.28388316
0.27877505
0.27361733
0.26840016
0.26311194
0.25773819
0.25226037
0.24665725
0.24090254
0.23496292
0.2287998
0.22236601
0.21559969
0.20842101
0.20072697
0.19238213
0.18320678
0.17295689
0.16129084
0.14774861
0.13178183
0.1129639
0.091615769
0.069255535
0.047599167
0.027449696
0.0088906505
0.30046209
0.29914654
0.30034394
0.29978005
0.29996139
0.29982886
0.29975206
0.29968563
0.29964323
0.29961586
0.29957315
0.29943831
0.29901841
0.29798837
0.29626869
0.29526983
0.29768352
0.30184003
0.30500667
0.30522096
0.30341172
0.30185618
0.30177453
0.3020686
0.30263202
0.30262518
0.30240182
0.30249095
0.30258431
0.30262027
0.30261531
0.30262443
0.30262674
0.30259686
0.30257843
0.30258521
0.30262229
0.30255963
0.30251484
0.30248474
0.3025016
0.30241017
0.30240441
0.30222507
0.30218314
0.30216931
0.30207712
0.3021703
0.30220135
0.30224121
0.3024698
0.30270188
0.30293406
0.30334293
0.30389951
0.3044439
0.30505701
0.30587126
0.30681904
0.30779585
0.30883651
0.31001205
0.31132718
0.31269285
0.31405508
0.31544997
0.31692172
0.31846706
0.32003031
0.32156084
0.32304484
0.3244935
0.32593666
0.32738905
0.32881142
0.33014886
0.33138552
0.3325516
0.33367559
0.33476788
0.33582691
0.33683536
0.33776868
0.33861584
0.3393875
0.34010459
0.34077716
0.34141282
0.34201699
0.34258883
0.34312018
0.34360028
0.34402485
0.34439776
0.34472828
0.34502458
0.34529707
0.34555689
0.34580916
0.34605365
0.34628831
0.3465093
0.34671226
0.34689217
0.34703996
0.34714783
0.34728201
0.34738904
0.34727151
0.34583869
0.34228685
0.33813424
0.33378262
0.32925113
0.32457913
0.31980557
0.31496146
0.31006817
0.30513925
0.30018149
0.29519605
0.2901801
0.28512775
0.28003083
0.27487981
0.26966346
0.26436935
0.25898358
0.25348838
0.24786292
0.24208131
0.23611068
0.22991307
0.22344174
0.21663516
0.20941405
0.20167593
0.19328578
0.18406427
0.1737676
0.16205403
0.14846249
0.13244131
0.11355559
0.092114678
0.069637779
0.047859627
0.027597361
0.0089374379
0.30046205
0.29914518
0.30033991
0.29978019
0.2999656
0.29982946
0.299753
0.29968631
0.29964365
0.29961619
0.29957386
0.29944014
0.29902276
0.29799466
0.29626623
0.29522901
0.29761992
0.3017815
0.3049843
0.30523197
0.30344874
0.30187516
0.30176111
0.30204035
0.30262037
0.30262159
0.30238941
0.30247131
0.3025605
0.30259553
0.30258913
0.30259439
0.30259176
0.30255622
0.30253201
0.30253033
0.30256072
0.30249158
0.3024405
0.30239984
0.30240836
0.30230645
0.30228446
0.30209012
0.30204211
0.3020114
0.30190609
0.30198432
0.30199339
0.3020157
0.30222469
0.30243192
0.30264253
0.30303135
0.30356236
0.30408066
0.30467098
0.30546225
0.30638361
0.3073385
0.30835782
0.30951486
0.31081261
0.31216051
0.31350973
0.31489506
0.31635973
0.31790086
0.31945951
0.32098911
0.322476
0.32392828
0.32537789
0.32683845
0.32827147
0.3296205
0.33087016
0.33205154
0.33319025
0.33429743
0.33537228
0.33639781
0.33735004
0.33821801
0.33901186
0.33975215
0.3404492
0.34111126
0.34174297
0.34234025
0.34289404
0.34339828
0.34385273
0.34426016
0.34462164
0.34494489
0.34524252
0.34552509
0.34579818
0.34606182
0.34631299
0.34654949
0.34676931
0.34697158
0.347163
0.34735155
0.34748484
0.34758237
0.34751013
0.34642869
0.34317368
0.33908977
0.33479827
0.33032024
0.32569236
0.32095415
0.31613842
0.31126848
0.30635951
0.30141948
0.29645016
0.29144892
0.28640962
0.28132358
0.27618052
0.27096832
0.26567343
0.26028099
0.25477333
0.24913026
0.24332614
0.23732829
0.2310991
0.22459231
0.21774694
0.21048416
0.2027019
0.19426553
0.184996
0.17464963
0.16288441
0.1492382
0.13315612
0.11419547
0.09265452
0.070053349
0.048144919
0.027760466
0.0089896473
0.30046124
0.29914291
0.30033816
0.29978138
0.29996889
0.29982975
0.29975365
0.29968685
0.29964399
0.29961647
0.29957458
0.29944218
0.29902799
0.2980035
0.29626885
0.29519302
0.2975495
0.3017099
0.30495001
0.30524154
0.30349193
0.30190072
0.30174939
0.30201238
0.3026066
0.30261847
0.30237837
0.30245157
0.30253643
0.30257047
0.30256275
0.30256461
0.30255748
0.3025149
0.30248418
0.30247539
0.30249895
0.30242228
0.30236639
0.30231495
0.30231364
0.30219977
0.30216145
0.30195423
0.30190137
0.30185162
0.30173328
0.30179665
0.30178362
0.30178846
0.30197765
0.30216029
0.30234864
0.30271742
0.30322354
0.30371407
0.30428131
0.30504947
0.30594693
0.30687682
0.30787227
0.30901189
0.31029336
0.31162264
0.31295798
0.31433253
0.31578902
0.31732679
0.31888312
0.32041104
0.32189786
0.32335421
0.32481144
0.32628191
0.32772391
0.32908151
0.33034225
0.33153726
0.33269241
0.33381783
0.33491183
0.33595608
0.33692623
0.33781225
0.33862538
0.33938726
0.3401083
0.34079542
0.34145348
0.34208137
0.34267013
0.3432076
0.34368924
0.34411883
0.34450462
0.34485405
0.34517767
0.34548634
0.3457848
0.34607264
0.34634805
0.34660763
0.34684716
0.34706169
0.34724189
0.3473838
0.34754709
0.34770163
0.3477343
0.34696753
0.34405827
0.34004534
0.33580817
0.33138119
0.32679747
0.32209652
0.3173124
0.31247002
0.30758597
0.30266933
0.29772261
0.29274345
0.28772561
0.28265997
0.27753551
0.27233911
0.26705607
0.26167014
0.25616224
0.2505118