/*--------------------------------*- C++ -*----------------------------------*\
| =========                 |                                                 |
| \\      /  F ield         | OpenFOAM: The Open Source CFD Toolbox           |
|  \\    /   O peration     | Version:  2506                                  |
|   \\  /    A nd           | Website:  www.openfoam.com                      |
|    \\/     M anipulation  |                                                 |
\*---------------------------------------------------------------------------*/
FoamFile
{
    version     2.0;
    format      ascii;
    arch        "LSB;label=32;scalar=64";
    class       volScalarField;
    location    "0.014";
    object      T;
}
// * * * * * * * * * * * * * * * * * * * * * * * * * * * * * * * * * * * * * //

dimensions      [0 0 0 1 0 0 0];

internalField   nonuniform List<scalar> 
428467
(
247.4708
249.86606
248.25943
249.20646
248.38273
248.7864
248.23662
248.62207
248.53578
248.63921
248.43938
248.26006
248.10328
248.0813
248.21497
248.50417
248.81001
248.96023
248.80059
248.33934
247.73081
247.13507
246.63127
246.24183
245.96403
245.77637
245.65457
245.5786
245.53319
245.50731
245.49332
245.48619
245.48276
245.48119
245.48049
245.4802
245.48008
245.48003
245.48001
245.48001
245.48001
245.48002
245.48012
245.48049
245.48183
245.48587
245.49612
245.51731
245.55016
245.58489
245.59859
245.55215
245.41204
245.198
244.96041
244.73928
244.55648
244.41012
244.28297
244.16433
244.05361
243.95014
243.85312
243.76208
243.6763
243.59611
243.52472
243.47246
243.45714
243.49788
243.6176
243.84091
244.13994
244.44363
244.68608
244.84793
244.94944
245.01605
245.06615
245.10996
245.1489
245.1825
245.2116
245.23569
245.25469
245.26885
245.27865
245.28474
245.28774
245.28817
245.28606
245.28177
245.27451
245.263
245.2477
245.22732
245.20176
245.17341
245.14241
245.1114
245.08078
245.05004
245.02036
244.99052
244.96077
244.93099
244.90213
244.87319
244.84565
244.81934
244.79119
244.76308
244.73566
244.70795
244.68038
244.65202
244.62369
244.59693
244.57142
244.54471
244.51803
244.49229
244.46679
244.44098
244.41418
244.38621
244.35759
244.32917
244.30161
244.27503
244.24905
244.22287
244.19571
244.16724
244.13783
244.10822
244.07887
244.04974
244.02049
243.9909
243.96093
243.93052
243.89959
243.86822
243.83655
243.80446
243.77165
243.73806
243.70392
243.66965
243.63567
243.60207
243.56846
243.53396
243.49801
243.46103
243.42377
243.38649
243.35156
243.30944
243.27062
243.23218
243.18621
243.14738
243.11513
243.06683
243.02462
242.98002
242.92913
242.87585
242.84933
242.81995
242.77066
242.71292
242.6595
242.61543
242.57223
242.51566
242.44661
242.37788
242.33043
242.29754
242.23632
242.17276
242.1272
242.06458
242.00402
241.94541
241.89287
241.83151
241.76825
241.70597
241.63771
241.57116
241.51745
241.47128
241.39219
241.30273
241.24428
241.1825
241.11007
241.03627
240.97394
240.8827
240.8181
240.74688
240.6755
240.61007
240.52514
240.45443
240.3867
240.29714
240.19188
240.11073
240.01906
239.94941
239.89282
239.77486
239.68045
239.6177
239.5358
239.42953
239.32696
239.24967
239.17711
239.09165
238.99439
238.91888
238.82113
238.73571
238.63337
238.52341
238.44456
238.35245
238.26509
238.17788
238.07884
237.98203
237.88422
237.80231
237.7316
237.63985
237.52733
237.42822
237.36128
237.30814
237.20127
237.10461
237.00094
236.92492
236.83222
236.7175
236.6223
236.54472
236.4612
236.33527
236.24688
236.17366
236.11986
236.05274
235.96721
235.86059
235.7606
235.68905
235.61587
235.52922
235.46333
235.40505
235.33851
235.25143
235.14235
235.04393
234.96847
234.90402
234.84742
234.79283
234.74455
234.71749
234.70595
234.67317
234.60749
234.55276
234.50498
234.43802
234.36527
234.28013
234.18685
234.12404
234.10378
234.13486
234.24513
234.4163
234.72402
235.30533
236.32209
237.68564
238.74387
239.0046
238.33839
247.57607
249.70283
248.22917
249.1169
248.33885
248.74084
248.22034
248.5931
248.51286
248.59203
248.39241
248.21855
248.08073
248.07495
248.22501
248.51711
248.80214
248.9103
248.71187
248.22848
247.62595
247.0488
246.56477
246.19548
245.93379
245.75712
245.64269
245.57152
245.52913
245.50508
245.49216
245.48561
245.48248
245.48106
245.48044
245.48018
245.48007
245.48003
245.48001
245.48
245.48001
245.48002
245.4801
245.48045
245.4817
245.48555
245.49544
245.51616
245.54947
245.58591
245.6032
245.56501
245.43303
245.22142
244.98159
244.75832
244.57427
244.42782
244.30092
244.18241
244.07191
243.96863
243.87153
243.78022
243.69408
243.61332
243.54033
243.48357
243.46043
243.48969
243.5922
243.79552
244.08471
244.39421
244.65154
244.8269
244.93617
245.00659
245.05818
245.10257
245.14214
245.17647
245.20621
245.23089
245.25041
245.26501
245.2752
245.28164
245.28498
245.28576
245.28405
245.28022
245.2736
245.26279
245.24833
245.22855
245.20384
245.17583
245.14489
245.11432
245.08342
245.0524
245.02312
244.99388
244.9648
244.93446
244.90455
244.8767
244.84918
244.82132
244.79319
244.76611
244.73911
244.71113
244.68355
244.65546
244.62745
244.60001
244.57352
244.54729
244.52104
244.49526
244.46987
244.44424
244.41761
244.38976
244.36116
244.3327
244.3051
244.27855
244.25265
244.22661
244.19959
244.17128
244.14202
244.11254
244.0833
244.05424
244.02505
243.9955
243.96559
243.93533
243.90461
243.87344
243.84189
243.80985
243.77709
243.7436
243.70957
243.67538
243.64149
243.60807
243.57475
243.54059
243.50486
243.46805
243.43127
243.39313
243.35569
243.31804
243.27174
243.23886
243.20316
243.1542
243.10833
243.06974
243.03703
242.99082
242.93944
242.89905
242.86127
242.82515
242.77561
242.71838
242.671
242.62784
242.58219
242.52054
242.44306
242.39201
242.34773
242.29549
242.24126
242.19075
242.13092
242.06244
242.01546
241.96274
241.91158
241.85425
241.7813
241.70091
241.64236
241.57387
241.51753
241.4688
241.39502
241.32581
241.26164
241.19894
241.12459
241.04462
240.98835
240.90789
240.82257
240.75915
240.67078
240.60023
240.53756
240.45604
240.38716
240.28939
240.18836
240.12704
240.0579
239.96621
239.88338
239.78784
239.69833
239.60828
239.51383
239.43223
239.35627
239.25617
239.15695
239.07863
239.01012
238.91739
238.83661
238.73899
238.61593
238.50469
238.42079
238.33386
238.24382
238.16319
238.06538
237.98867
237.90146
237.78609
237.68202
237.58841
237.50133
237.40433
237.32067
237.21964
237.13549
237.06955
237.00895
236.91618
236.7953
236.71671
236.62137
236.48845
236.3797
236.29235
236.20017
236.13816
236.05648
235.93987
235.83614
235.76669
235.71751
235.6344
235.54051
235.47379
235.39451
235.31264
235.22441
235.12436
235.02693
234.94754
234.89111
234.84759
234.7938
234.72893
234.6814
234.64686
234.57942
234.52457
234.45917
234.40618
234.37802
234.33705
234.29823
234.21917
234.13842
234.09085
234.08124
234.11154
234.18574
234.31725
234.60326
235.21055
236.26565
237.67918
238.7656
239.03913
238.37843
247.5553
249.63174
248.1937
249.04713
248.30116
248.69008
248.20206
248.56896
248.48603
248.54932
248.35165
248.17894
248.05604
248.06364
248.22873
248.52004
248.78999
248.86686
248.63741
248.13731
247.54069
246.97821
246.51172
246.1594
245.91015
245.74212
245.63346
245.56601
245.52596
245.50332
245.49122
245.48514
245.48225
245.48095
245.48039
245.48016
245.48006
245.48002
245.48001
245.48
245.48
245.48002
245.48009
245.48039
245.48153
245.4851
245.49445
245.51438
245.54754
245.58561
245.60702
245.57746
245.45726
245.25209
245.01257
244.7874
244.60115
244.45324
244.32582
244.20683
244.09574
243.99183
243.89414
243.80237
243.71583
243.63448
243.55997
243.49893
243.46688
243.48384
243.56763
243.74617
244.0186
244.32898
244.6013
244.79424
244.91546
244.9927
245.04742
245.09305
245.13353
245.16878
245.1993
245.22479
245.24503
245.2603
245.27108
245.27804
245.28185
245.28308
245.28192
245.27857
245.27253
245.26275
245.24907
245.22989
245.20643
245.17904
245.14863
245.11829
245.08724
245.05636
245.02657
244.99716
244.96906
244.93971
244.90835
244.88079
244.85446
244.8251
244.79553
244.7688
244.74304
244.71536
244.68772
244.65968
244.63179
244.60443
244.57734
244.55081
244.52471
244.49906
244.47377
244.44832
244.42191
244.39424
244.36574
244.33728
244.30963
244.28307
244.25724
244.23132
244.20447
244.17635
244.14728
244.11796
244.08885
244.05988
244.03076
244.00128
243.97143
243.94129
243.91081
243.87988
243.84851
243.81659
243.78392
243.75055
243.71668
243.68262
243.64882
243.61553
243.58244
243.54862
243.51312
243.47638
243.43971
243.4034
243.36435
243.32768
243.28785
243.24136
243.21345
243.1731
243.11747
243.06936
243.03843
243.00437
242.9559
242.91643
242.87852
242.82717
242.77574
242.72983
242.68661
242.64002
242.58724
242.52393
242.45649
242.40637
242.36754
242.30493
242.25365
242.20869
242.14603
242.0819
242.03615
241.98211
241.9331
241.86918
241.79143
241.7142
241.65631
241.59557
241.53117
241.46894
241.3936
241.33439
241.26806
241.2146
241.12961
241.0597
240.98952
240.92737
240.85017
240.77548
240.70445
240.62969
240.53971
240.46213
240.38169
240.29245
240.20543
240.12966
240.06557
239.97317
239.85836
239.79918
239.73241
239.62247
239.50904
239.41905
239.35534
239.26474
239.17671
239.09244
239.00212
238.92047
238.8217
238.69607
238.61149
238.5349
238.42046
238.31827
238.24079
238.15746
238.05781
237.95742
237.8626
237.77268
237.67624
237.57193
237.48782
237.4078
237.2792
237.179
237.12017
237.05248
236.941
236.83133
236.75348
236.68922
236.55222
236.45363
236.34718
236.24716
236.16525
236.10598
235.9936
235.88622
235.80305
235.73214
235.63403
235.52934
235.44559
235.36829
235.28754
235.20946
235.1273
235.06377
235.01372
234.97031
234.90245
234.8021
234.69698
234.60523
234.52997
234.47351
234.43914
234.40989
234.36413
234.31965
234.31485
234.239
234.12092
234.05991
234.01255
233.97113
233.9567
233.97964
234.04734
234.17792
234.46866
235.04348
236.13959
237.61332
238.69065
238.99022
238.38812
247.55302
249.53057
248.14039
248.98959
248.26124
248.62665
248.19253
248.53148
248.4544
248.50124
248.30259
248.13949
248.03211
248.05683
248.23623
248.5224
248.76955
248.81042
248.54331
248.02951
247.44172
246.89747
246.45277
246.11935
245.88395
245.72555
245.62332
245.56001
245.52253
245.50144
245.49024
245.48465
245.48202
245.48085
245.48035
245.48014
245.48005
245.48002
245.48001
245.48
245.48
245.48002
245.48008
245.48034
245.48137
245.48466
245.49347
245.51267
245.54567
245.58562
245.61096
245.58895
245.48059
245.28204
245.0434
244.81542
244.62662
244.47727
244.34942
244.23004
244.11855
244.01436
243.91642
243.8244
243.73756
243.65571
243.57999
243.51548
243.47527
243.48061
243.54732
243.70141
243.95412
244.26172
244.54765
244.75935
244.89395
244.97875
245.03685
245.08369
245.12498
245.16105
245.19233
245.21861
245.23957
245.25549
245.26684
245.2743
245.27856
245.28023
245.27958
245.2767
245.27125
245.2624
245.24956
245.23143
245.20869
245.18176
245.15246
245.12224
245.09119
245.0607
245.03073
245.00041
244.97138
244.94342
244.91341
244.88529
244.85883
244.82921
244.79951
244.77244
244.74625
244.71894
244.69174
244.664
244.63611
244.60875
244.58166
244.55486
244.52867
244.50304
244.47781
244.45249
244.42629
244.39884
244.37046
244.34201
244.31431
244.28773
244.26195
244.23616
244.20947
244.18153
244.15263
244.12346
244.09447
244.06561
244.03657
244.00715
243.97736
243.94732
243.91702
243.88633
243.85517
243.8234
243.79085
243.7576
243.72387
243.68995
243.65625
243.62304
243.59011
243.55661
243.52147
243.48489
243.44799
243.41146
243.37385
243.33718
243.29906
243.25106
243.21146
243.18649
243.13315
243.07958
243.04443
243.01119
242.96879
242.92835
242.89392
242.8423
242.78609
242.74466
242.69884
242.64921
242.59272
242.51794
242.46447
242.4347
242.38936
242.31014
242.25256
242.21528
242.15683
242.11323
242.05963
241.99499
241.94369
241.88261
241.80321
241.73256
241.67519
241.62636
241.56385
241.48078
241.39759
241.33547
241.27935
241.21879
241.13608
241.05894
240.99717
240.93324
240.85627
240.77995
240.71924
240.63896
240.56479
240.48124
240.38886
240.31236
240.21662
240.14757
240.07289
239.98184
239.88912
239.78408
239.70222
239.61996
239.52206
239.44202
239.35754
239.26678
239.18313
239.07868
238.99811
238.92167
238.80489
238.69209
238.61511
238.51908
238.40446
238.325
238.25447
238.13555
238.02958
237.91811
237.84497
237.77115
237.67983
237.59511
237.48173
237.35924
237.25804
237.1641
237.09186
236.98196
236.88532
236.78451
236.6934
236.60424
236.53227
236.43948
236.34686
236.26942
236.16884
236.0357
235.94346
235.86319
235.77137
235.6389
235.52416
235.42107
235.34148
235.28843
235.22928
235.17044
235.09742
235.0281
234.93531
234.82097
234.72083
234.64263
234.55901
234.48523
234.43832
234.39298
234.36408
234.33366
234.27668
234.20351
234.10068
234.03494
233.96971
233.89774
233.83571
233.80108
233.81274
233.87194
233.9626
234.09433
234.35953
234.90957
235.97858
237.48472
238.6515
239.01503
238.45492
247.54505
249.42294
248.09683
248.92078
248.20204
248.57294
248.18018
248.48999
248.42315
248.44619
248.25022
248.09592
248.00605
248.05008
248.2431
248.52264
248.74448
248.74674
248.44041
247.91519
247.33816
246.81535
246.39348
246.07882
245.85745
245.70882
245.6131
245.55398
245.5191
245.49957
245.48927
245.48418
245.4818
245.48075
245.48031
245.48012
245.48005
245.48002
245.48001
245.48
245.48
245.48001
245.48006
245.4803
245.48121
245.48422
245.49246
245.51087
245.54352
245.5852
245.61465
245.59979
245.50325
245.3125
245.07628
244.84546
244.65381
244.50276
244.37448
244.25482
244.14296
244.03839
243.94001
243.84759
243.76039
243.67812
243.60141
243.53403
243.4866
243.47986
243.53082
243.66095
243.89033
244.19003
244.48683
244.71797
244.86832
244.96228
245.02498
245.07362
245.1159
245.15281
245.18487
245.21199
245.2337
245.25032
245.26229
245.2703
245.27505
245.27718
245.27703
245.27469
245.26984
245.26195
245.2495
245.23258
245.211
245.18432
245.15591
245.12611
245.09543
245.06545
245.03542
245.00502
244.97505
244.94476
244.91695
244.89152
244.86276
244.83353
244.80404
244.77755
244.75039
244.72244
244.69536
244.6681
244.64054
244.61314
244.58614
244.55933
244.53299
244.50729
244.48206
244.45682
244.43081
244.40358
244.37537
244.34697
244.31923
244.29262
244.26689
244.24123
244.21472
244.18695
244.15821
244.12918
244.10032
244.07158
244.04265
244.01332
243.9836
243.95363
243.92348
243.89303
243.86212
243.83053
243.79812
243.76501
243.73144
243.69767
243.66409
243.63096
243.59812
243.56485
243.53015
243.49392
243.45732
243.42021
243.38248
243.34174
243.30828
243.2729
243.21989
243.18837
243.14627
243.10275
243.05396
243.01312
242.97824
242.9416
242.89696
242.85368
242.80976
242.76571
242.71682
242.65245
242.59739
242.52467
242.47458
242.44844
242.39924
242.33411
242.27077
242.21807
242.16633
242.12964
242.07674
242.00854
241.94801
241.88828
241.81022
241.74772
241.69571
241.64761
241.58673
241.49162
241.4243
241.36632
241.2855
241.2219
241.15616
241.09925
241.03363
240.956
240.86902
240.76981
240.71787
240.64236
240.57494
240.50104
240.41127
240.31816
240.22714
240.15875
240.08406
239.98916
239.90011
239.81897
239.7269
239.60779
239.52147
239.44202
239.35956
239.27434
239.17952
239.08301
239.00659
238.89825
238.79811
238.71522
238.60633
238.52343
238.43675
238.32438
238.20839
238.10912
238.0277
237.93433
237.83969
237.75063
237.65251
237.54099
237.42404
237.34068
237.26598
237.15608
237.02733
236.9312
236.84537
236.7652
236.67791
236.55871
236.51091
236.44092
236.33581
236.2095
236.07162
235.97758
235.89516
235.79895
235.67164
235.54563
235.44105
235.35448
235.27442
235.24383
235.17237
235.05768
234.99188
234.88423
234.79738
234.72063
234.63316
234.55662
234.50487
234.46431
234.43511
234.35662
234.26168
234.16931
234.07479
234.01281
233.94147
233.87331
233.81699
233.75824
233.72027
233.71694
233.75346
233.8045
233.85459
233.948
234.17657
234.69765
235.76205
237.30805
238.52557
238.93812
238.47254
247.53789
249.29867
248.0597
248.83444
248.1436
248.5142
248.15837
248.44819
248.38352
248.38884
248.19449
248.05245
247.98121
248.043
248.24849
248.52004
248.71198
248.67054
248.32433
247.79187
247.23034
246.73174
246.33316
246.03771
245.83069
245.69204
245.60291
245.54799
245.51571
245.49774
245.48834
245.48373
245.4816
245.48066
245.48027
245.48011
245.48004
245.48002
245.48001
245.48
245.48
245.48001
245.48005
245.48025
245.48105
245.48377
245.49143
245.509
245.54114
245.58433
245.61807
245.61035
245.52506
245.34371
245.11105
244.87791
244.6828
244.52955
244.40064
244.28063
244.16832
244.06336
243.9646
243.87187
243.78438
243.70172
243.62417
243.55442
243.50097
243.48233
243.51802
243.62549
243.82861
244.1149
244.41886
244.66939
244.83824
244.9432
245.01184
245.06288
245.10625
245.14405
245.17693
245.20492
245.22745
245.24482
245.25745
245.26603
245.27131
245.27393
245.27427
245.27244
245.2682
245.26082
245.24924
245.23398
245.21325
245.18714
245.1591
245.12967
245.09954
245.07003
245.04041
245.01009
244.97993
244.94919
244.92114
244.89482
244.86713
244.83852
244.80902
244.78284
244.75503
244.72695
244.69953
244.67215
244.64486
244.61763
244.59067
244.56397
244.53767
244.5119
244.48661
244.46141
244.43556
244.40856
244.38054
244.35222
244.32446
244.29781
244.27213
244.2466
244.22028
244.19269
244.1641
244.1352
244.10646
244.07785
244.04905
244.01984
243.99021
243.96032
243.93029
243.90006
243.8694
243.83803
243.80579
243.77283
243.73942
243.70583
243.67239
243.63935
243.60656
243.5734
243.53904
243.50324
243.46704
243.43042
243.39237
243.35289
243.30768
243.27952
243.24334
243.18744
243.15339
243.11813
243.07038
243.02922
242.99008
242.95437
242.91391
242.85946
242.81767
242.77941
242.73109
242.66751
242.60592
242.55638
242.49846
242.45665
242.41426
242.35192
242.30215
242.23928
242.17823
242.1408
242.08867
242.0281
241.9599
241.89016
241.82727
241.76576
241.7155
241.6634
241.59738
241.50077
241.44077
241.38693
241.31083
241.23574
241.16975
241.113
241.04021
240.95337
240.87863
240.80449
240.72685
240.66246
240.59435
240.51425
240.42747
240.3388
240.25163
240.17623
240.08237
239.99228
239.91354
239.82562
239.74127
239.64646
239.54188
239.44133
239.37366
239.28012
239.19237
239.09121
238.98361
238.89746
238.80143
238.71472
238.61553
238.51702
238.42917
238.31687
238.2263
238.13476
238.03609
237.93902
237.79874
237.68951
237.62306
237.54106
237.42546
237.32263
237.23963
237.13373
237.01968
236.90703
236.82201
236.7485
236.60663
236.53518
236.4606
236.33751
236.23509
236.13149
236.05254
235.95531
235.85704
235.72489
235.60087
235.49764
235.42619
235.36167
235.28706
235.15681
235.04361
234.9469
234.85142
234.81192
234.75545
234.69865
234.61894
234.53249
234.48037
234.39846
234.28206
234.19685
234.11035
234.01385
233.93319
233.86702
233.81141
233.75864
233.70727
233.66038
233.62845
233.59819
233.5945
233.61305
233.65337
233.73667
233.9453
234.43498
235.45695
237.01777
238.33788
238.81899
238.40924
247.52994
249.16593
248.02254
248.73943
248.08993
248.44643
248.14352
248.40304
248.33974
248.32487
248.13372
248.00793
247.95721
248.04042
248.25632
248.51446
248.66997
248.579
248.19648
247.66305
247.12041
246.64662
246.27192
245.99618
245.8038
245.67525
245.59277
245.54207
245.51239
245.49596
245.48744
245.4833
245.48141
245.48058
245.48023
245.48009
245.48004
245.48001
245.48
245.48
245.48
245.48001
245.48004
245.48021
245.48091
245.48334
245.4904
245.50706
245.53851
245.58293
245.62109
245.62065
245.546
245.37554
245.14697
244.91274
244.7136
244.55769
244.42801
244.30775
244.19504
244.08973
243.99057
243.89744
243.80958
243.72653
243.64828
243.57663
243.5181
243.48824
243.50948
243.59522
243.77065
244.03785
244.34385
244.61262
244.8024
244.92064
244.99676
245.05109
245.09592
245.13473
245.16847
245.19736
245.22076
245.23893
245.25228
245.26148
245.2673
245.27044
245.27128
245.26994
245.26611
245.25899
245.24901
245.23556
245.2155
245.19011
245.16229
245.13325
245.10385
245.07433
245.04454
245.01507
244.98514
244.95567
244.92606
244.89739
244.87028
244.84315
244.81573
244.78769
244.75979
244.73189
244.70437
244.67688
244.6494
244.62223
244.59533
244.56871
244.54256
244.51681
244.49147
244.46629
244.44058
244.41379
244.38598
244.35778
244.33003
244.30334
244.27768
244.25228
244.22616
244.19876
244.17034
244.14155
244.11291
244.08444
244.0558
244.02673
243.99722
243.96742
243.9375
243.90745
243.87705
243.84592
243.81387
243.78106
243.74782
243.71442
243.68117
243.64827
243.6155
243.58237
243.5482
243.51275
243.47676
243.44091
243.40384
243.36449
243.32166
243.27822
243.25135
243.21148
243.1665
243.13003
243.07688
243.04125
243.00433
242.96335
242.93065
242.87525
242.82545
242.78861
242.73886
242.67907
242.62924
242.57798
242.53
242.47897
242.42994
242.36905
242.32508
242.25953
242.20314
242.13537
242.08441
242.04123
241.98096
241.92758
241.85528
241.79878
241.74314
241.67238
241.60737
241.50966
241.45906
241.4083
241.33536
241.27071
241.19199
241.11856
241.03739
240.96256
240.89272
240.84487
240.75213
240.65086
240.596
240.52771
240.43133
240.35361
240.28312
240.19056
240.09068
239.99352
239.89981
239.81637
239.74505
239.66121
239.57199
239.48444
239.39361
239.29432
239.19403
239.09885
239.00181
238.91084
238.81068
238.70934
238.61384
238.50872
238.41154
238.34048
238.23694
238.12575
238.02746
237.9109
237.78845
237.69329
237.60489
237.51262
237.41425
237.30452
237.1892
237.11399
237.01826
236.92128
236.82022
236.69323
236.59261
236.47128
236.37811
236.27189
236.16496
236.10917
236.05559
235.92411
235.78981
235.70865
235.60181
235.4876
235.38246
235.26062
235.15449
235.03204
234.93781
234.84496
234.78002
234.74335
234.68468
234.57894
234.4717
234.41811
234.32253
234.24091
234.17176
234.09773
234.02419
233.94215
233.87314
233.81366
233.7179
233.62711
233.55585
233.46981
233.38798
233.36327
233.37777
233.41889
233.46599
233.54118
233.74935
234.22839
235.25364
236.83737
238.20505
238.71584
238.28109
247.52114
249.02063
247.98666
248.63564
248.03506
248.37612
248.12852
248.34512
248.28748
248.25415
248.07205
247.96271
247.93318
248.03957
248.26286
248.50226
248.61524
248.47044
248.05838
247.52975
247.00774
246.55975
246.21008
245.95466
245.77709
245.65867
245.58282
245.5363
245.50918
245.49428
245.48661
245.48291
245.48124
245.48051
245.4802
245.48008
245.48003
245.48001
245.48
245.48
245.48
245.48001
245.48004
245.48018
245.48078
245.48293
245.48937
245.50505
245.5356
245.58098
245.62349
245.6306
245.56634
245.40765
245.18387
244.95022
244.74673
244.58758
244.45679
244.33623
244.22304
244.11733
244.01774
243.92422
243.83603
243.75262
243.67381
243.60065
243.53798
243.4981
243.50504
243.57047
243.71803
243.96078
244.26235
244.54689
244.75929
244.8939
244.97919
245.03805
245.08486
245.12484
245.15946
245.18927
245.21361
245.23263
245.24676
245.25663
245.26303
245.2667
245.26807
245.26723
245.26394
245.25829
245.24898
245.23526
245.21667
245.19299
245.16605
245.13724
245.10824
245.07932
245.04885
245.01876
244.99038
244.96227
244.93266
244.90313
244.8745
244.8462
244.81981
244.79255
244.76569
244.73774
244.70944
244.68208
244.65454
244.62722
244.60027
244.5737
244.54766
244.52194
244.4966
244.47147
244.44588
244.4193
244.3917
244.36364
244.33593
244.3092
244.28355
244.25829
244.23237
244.20519
244.17693
244.14825
244.1197
244.09135
244.06288
244.034
244.00466
243.97498
243.94515
243.91525
243.88508
243.85422
243.82238
243.78973
243.75665
243.72346
243.69043
243.65771
243.62503
243.59187
243.55778
243.52258
243.48666
243.45083
243.41479
243.37791
243.33899
243.29461
243.25774
243.2247
243.18202
243.14296
243.09383
243.05444
243.0154
242.97156
242.93443
242.90358
242.85223
242.79652
242.75075
242.68448
242.64246
242.60311
242.55785
242.50288
242.44704
242.39612
242.33798
242.27854
242.22694
242.1655
242.08411
242.03341
241.98584
241.9514
241.89104
241.82673
241.77119
241.68875
241.61003
241.52854
241.47715
241.42304
241.36321
241.28772
241.21206
241.11557
241.04141
240.97144
240.90368
240.86768
240.7964
240.70739
240.61816
240.54026
240.44538
240.35727
240.27833
240.18418
240.08782
240.02878
239.92467
239.82512
239.7379
239.64985
239.58965
239.5115
239.40663
239.31105
239.21665
239.09806
238.99904
238.91591
238.81427
238.72115
238.64181
238.53895
238.4215
238.3169
238.21039
238.11529
238.01119
237.90073
237.80984
237.71075
237.58728
237.4734
237.37139
237.27059
237.16569
237.07693
237.01067
236.90024
236.78495
236.68926
236.56873
236.48982
236.38524
236.25682
236.15203
236.04747
235.95038
235.82687
235.72614
235.64528
235.53078
235.40397
235.3004
235.19749
235.09578
234.99936
234.89338
234.80113
234.75765
234.65867
234.55496
234.46381
234.35538
234.26636
234.21508
234.17569
234.12355
234.04438
233.9828
233.92287
233.81918
233.67035
233.54986
233.44088
233.32962
233.24106
233.19524
233.19114
233.21677
233.24737
233.28505
233.35246
233.54094
233.98438
234.9333
236.48111
237.9516
238.59515
238.24727
247.51351
248.87391
247.94785
248.50992
247.97628
248.30246
248.10252
248.28093
248.22642
248.17878
248.01072
247.92082
247.91542
248.04174
248.26614
248.48047
248.54616
248.34697
247.91196
247.39077
246.89143
246.47159
246.14808
245.91337
245.75072
245.64241
245.57313
245.53074
245.50613
245.4927
245.48584
245.48257
245.48109
245.48045
245.48018
245.48007
245.48003
245.48001
245.48
245.48
245.48
245.48001
245.48003
245.48015
245.48066
245.48254
245.48836
245.50299
245.53244
245.5784
245.6251
245.64012
245.58626
245.43968
245.22175
244.9899
244.78226
244.61922
244.48691
244.36606
244.2524
244.14633
244.04633
243.95241
243.86384
243.78007
243.70073
243.62639
243.56042
243.5124
243.50361
243.55142
243.67185
243.88604
244.17569
244.47183
244.70738
244.86197
244.95839
245.02333
245.07279
245.11424
245.14986
245.18061
245.20598
245.22591
245.24087
245.25146
245.25847
245.26268
245.26459
245.26426
245.26186
245.25691
245.24797
245.23505
245.21742
245.1951
245.16979
245.14199
245.11305
245.08399
245.05412
245.02361
244.99467
244.968
244.9397
244.90941
244.87961
244.85121
244.82349
244.79595
244.7707
244.74417
244.71572
244.68761
244.66007
244.63271
244.60565
244.57911
244.55306
244.52731
244.50201
244.47696
244.45151
244.42511
244.39771
244.36981
244.34216
244.31542
244.28978
244.26463
244.23892
244.21197
244.18389
244.15533
244.12686
244.09861
244.07032
244.04166
244.01253
243.98302
243.9533
243.92351
243.89355
243.86295
243.83134
243.79886
243.76594
243.73295
243.70017
243.66769
243.63515
243.60201
243.56797
243.53297
243.49729
243.46118
243.425
243.38788
243.35263
243.31424
243.27015
243.23508
243.19818
243.14854
243.11245
243.06862
243.03028
242.98821
242.94546
242.90785
242.87203
242.82108
242.77241
242.71115
242.66098
242.62281
242.57291
242.51899
242.46521
242.42099
242.35187
242.28506
242.22897
242.17871
242.14665
242.07546
242.00851
241.96384
241.91047
241.84219
241.77789
241.70029
241.63746
241.58545
241.4966
241.4417
241.38707
241.30135
241.23078
241.14987
241.07132
240.9923
240.91282
240.85033
240.79289
240.73644
240.64853
240.55645
240.45997
240.36858
240.29738
240.19782
240.079
240.01598
239.95162
239.87347
239.77216
239.70815
239.6271
239.52322
239.41345
239.30318
239.20668
239.10109
239.00175
238.91913
238.8446
238.74175
238.63794
238.53723
238.41839
238.31454
238.22029
238.11973
238.02108
237.91566
237.79489
237.66824
237.55599
237.46128
237.36771
237.2624
237.17391
237.06452
236.9396
236.84309
236.77514
236.73319
236.59871
236.42761
236.30413
236.19839
236.09344
235.97756
235.90496
235.80296
235.67292
235.57218
235.44763
235.33657
235.26667
235.1944
235.07361
234.98515
234.91964
234.8231
234.67326
234.55059
234.44661
234.35258
234.27746
234.18205
234.13173
234.0776
233.9906
233.91953
233.85824
233.75832
233.6297
233.51651
233.41274
233.31419
233.23167
233.16085
233.10915
233.06993
233.05422
233.05149
233.05467
233.10027
233.27179
233.70159
234.63699
236.17016
237.67309
238.36197
238.07034
247.50692
248.70223
247.91027
248.37717
247.92098
248.21934
248.07024
248.21368
248.15665
248.09502
247.95001
247.88101
247.90039
248.04478
248.26412
248.44859
248.46156
248.20917
247.75632
247.24558
246.77243
246.3831
246.0866
245.87277
245.72497
245.62666
245.56382
245.52546
245.50328
245.49125
245.48516
245.48226
245.48096
245.48039
245.48016
245.48006
245.48002
245.48001
245.48
245.48
245.48
245.48
245.48002
245.48012
245.48055
245.48217
245.48737
245.50089
245.52906
245.57514
245.62597
245.64899
245.60577
245.47152
245.26066
245.03128
244.82055
244.65298
244.51862
244.3974
244.28323
244.17676
244.07633
243.98195
243.89299
243.80885
243.72909
243.65383
243.58533
243.53071
243.50752
243.53815
243.63293
243.81612
244.08607
244.38747
244.64529
244.82328
244.93361
245.00636
245.05946
245.10286
245.13968
245.17137
245.19782
245.21872
245.23458
245.24593
245.25361
245.25839
245.26082
245.26109
245.25948
245.25468
245.24663
245.23455
245.21842
245.19749
245.17211
245.14563
245.11851
245.08952
245.05964
245.02977
244.99937
244.97205
244.94552
244.91573
244.88602
244.85944
244.83044
244.80123
244.7746
244.74862
244.72201
244.69381
244.66591
244.63855
244.6115
244.58498
244.55884
244.53301
244.50774
244.48279
244.4575
244.43126
244.40404
244.3763
244.34873
244.322
244.29636
244.27132
244.24583
244.21912
244.19124
244.1628
244.1344
244.10625
244.07812
244.0497
244.02083
243.99154
243.96196
243.93228
243.90247
243.87211
243.84077
243.80848
243.77571
243.7429
243.71036
243.67817
243.64585
243.61277
243.57879
243.54405
243.50876
243.47286
243.43662
243.39928
243.36087
243.32696
243.28967
243.2502
243.21598
243.16601
243.12034
243.07468
243.04283
243.0025
242.96577
242.9194
242.88305
242.8426
242.79588
242.74661
242.69077
242.64236
242.59126
242.54419
242.48581
242.43701
242.3625
242.29714
242.2207
242.17725
242.17386
242.1077
242.04452
241.98123
241.92561
241.8559
241.78052
241.71566
241.6619
241.61285
241.53578
241.46843
241.40325
241.32274
241.24817
241.18742
241.10586
241.03464
240.91849
240.85753
240.81054
240.73185
240.65398
240.58512
240.5
240.40513
240.31308
240.22084
240.09488
240.01993
239.96785
239.89588
239.82011
239.72428
239.61453
239.52551
239.42107
239.31459
239.2038
239.11681
239.03965
238.94277
238.84573
238.74224
238.6343
238.54233
238.44335
238.32748
238.2212
238.11574
238.00231
237.89774
237.79657
237.68088
237.56177
237.44301
237.3668
237.25579
237.12215
237.04077
236.95419
236.87973
236.763
236.63239
236.51869
236.38175
236.26988
236.15183
236.02741
235.9642