/*--------------------------------*- C++ -*----------------------------------*\
| =========                 |                                                 |
| \\      /  F ield         | OpenFOAM: The Open Source CFD Toolbox           |
|  \\    /   O peration     | Version:  2506                                  |
|   \\  /    A nd           | Website:  www.openfoam.com                      |
|    \\/     M anipulation  |                                                 |
\*---------------------------------------------------------------------------*/
FoamFile
{
    version     2.0;
    format      ascii;
    arch        "LSB;label=32;scalar=64";
    class       volVectorField;
    location    "0.028";
    object      wallShearStress;
}
// * * * * * * * * * * * * * * * * * * * * * * * * * * * * * * * * * * * * * //

dimensions      [1 -1 -2 0 0 0 0];

internalField   uniform (0 0 0);

boundaryField
{
    Side
    {
        type            empty;
    }
    Inlet
    {
        type            calculated;
        value           uniform (0 0 0);
    }
    Airfoil
    {
        type            calculated;
        value           nonuniform List<vector> 
109
(
(-1.4278251 -0.029115458 -2.2063769e-17)
(-2.0762488 -0.0505933 -3.3823224e-22)
(-3.0855526 -0.08003431 -2.2293588e-17)
(-3.7510489 -0.10034633 -2.2440244e-17)
(-3.8573987 -0.10659131 -3.4444023e-22)
(-3.5035138 -0.10048386 3.4641299e-22)
(-3.1093252 -0.092125082 -2.2799351e-17)
(-2.9668967 -0.09208103 0)
(-3.1687593 -0.1044908 -3.5084215e-22)
(-3.5374565 -0.12330297 3.5280035e-22)
(-3.8744499 -0.14054529 2.3246884e-17)
(-4.1613968 -0.15646775 -1.2474183e-27)
(-4.3758914 -0.17080254 -6.5968935e-26)
(-4.4957086 -0.18208351 -3.6083868e-22)
(-4.6213321 -0.19382467 4.7552221e-17)
(-4.7598895 -0.20654012 -4.7821041e-17)
(-4.873854 -0.2187255 3.6525963e-22)
(-5.0043571 -0.23227343 -3.6909986e-22)
(-5.1107987 -0.24494568 -5.6423729e-37)
(-5.2365942 -0.25921101 -4.8926964e-17)
(-5.4569646 -0.27888163 -1.7632415e-38)
(-5.650829 -0.29780108 -4.9522125e-17)
(-5.7644636 -0.31264765 -5.8774718e-39)
(-5.8950339 -0.3289465 -5.0129298e-17)
(-6.0617243 -0.34784679 -3.8469665e-22)
(-6.2319384 -0.36750279 5.0754172e-17)
(-6.3914552 -0.38710337 -3.8952176e-22)
(-6.509092 -0.40465242 5.1394336e-17)
(-6.6847537 -0.42656974 1.0343545e-16)
(-6.90232 -0.45172967 3.7615819e-37)
(-7.0084397 -0.46963541 5.2392309e-17)
(-7.1168862 -0.48878785 4.0211343e-22)
(-7.3170303 -0.51506314 -4.0501956e-22)
(-7.5040701 -0.54093597 -5.6423729e-37)
(-7.62757 -0.5626267 5.3780691e-17)
(-7.7707152 -0.58646655 1.0828265e-16)
(-7.9537161 -0.61391123 5.4514091e-17)
(-8.0936161 -0.63869611 5.4890788e-17)
(-8.243489 -0.66487704 2.6933417e-24)
(-8.4197325 -0.69373804 -2.1215883e-39)
(-8.5405687 -0.71853229 -1.3645368e-33)
(-8.6856886 -0.74603726 4.3063513e-22)
(-8.8532444 -0.77602353 -8.6785224e-22)
(-8.9674927 -0.80197052 -5.7291848e-17)
(-9.1122452 -0.83117818 3.7615819e-37)
(-9.2590104 -0.86107119 1.243579e-33)
(-9.3717654 -0.88846894 -1.1718177e-16)
(-9.5169659 -0.91955987 -5.9041203e-17)
(-9.6453272 -0.94943782 4.5410424e-22)
(-9.7611541 -0.97875872 5.9957903e-17)
(-9.9118948 -1.0122747 -4.6123224e-22)
(-10.035507 -1.0435472 4.6449101e-22)
(-10.160018 -1.0756333 -4.0949118e-25)
(-10.30851 -1.1110349 6.1892902e-17)
(-10.425866 -1.143597 -4.7583603e-22)
(-10.554413 -1.1779551 9.5994814e-22)
(-10.687539 -1.2133403 6.3435362e-17)
(-10.80035 -1.2470242 6.3966841e-17)
(-10.932538 -1.2835065 -4.9239958e-22)
(-11.045376 -1.3181842 6.5064128e-17)
(-11.158215 -1.353443 -5.0045863e-22)
(-11.286615 -1.39114 -6.6201937e-17)
(-11.391586 -1.4265353 5.0977303e-22)
(-11.518476 -1.4652599 5.1382396e-22)
(-11.636064 -1.5033388 -6.7988268e-17)
(-11.750808 -1.5416551 -6.8604862e-17)
(-11.88776 -1.5835099 -4.1348387e-24)
(-12.004946 -1.6233978 -6.9874573e-17)
(-12.145514 -1.6671637 7.0530668e-17)
(-12.277642 -1.7107988 -7.1196964e-17)
(-12.40518 -1.7546121 -7.1874706e-17)
(-12.544238 -1.8006419 5.5333339e-22)
(-12.661246 -1.8441374 -5.5933168e-22)
(-12.791168 -1.8900994 -7.5231638e-37)
(-12.903167 -1.9340159 -7.4722257e-17)
(-13.008537 -1.9774415 7.5231638e-37)
(-13.11205 -2.021088 5.8125702e-22)
(-13.198995 -2.062668 -5.8784546e-22)
(-13.294304 -2.106025 5.9320117e-22)
(-13.376013 -2.147767 -6.9409503e-25)
(-13.463172 -2.1908216 -6.063228e-22)
(-13.548749 -2.2340997 8.0265446e-17)
(-13.633911 -2.2777677 6.185454e-22)
(-13.730405 -2.323814 -8.1995906e-17)
(-13.824424 -2.3700254 1.2647105e-21)
(-13.931079 -2.4189474 -1.2785814e-21)
(-14.035595 -2.4681271 8.4721534e-17)
(-14.146721 -2.5196996 -8.5667157e-17)
(-14.256589 -2.5719423 1.7326605e-16)
(-14.360324 -2.62359 -6.6806838e-22)
(-14.469454 -2.6767433 1.7724925e-16)
(-14.572583 -2.7293076 8.9649037e-17)
(-14.682332 -2.7836616 -1.880791e-37)
(-14.787494 -2.8376906 9.1763202e-17)
(-14.891489 -2.8920399 -9.2852942e-17)
(-14.992355 -2.9463067 9.3966625e-17)
(-15.088259 -3.0000823 0)
(-15.189108 -3.055371 0)
(-15.287216 -3.1106405 -9.744968e-17)
(-15.391895 -3.1677812 -9.8660476e-17)
(-15.493743 -3.2248929 -7.6266421e-22)
(-15.599731 -3.2834278 4.5917748e-41)
(-15.706429 -3.3426769 0)
(-15.817467 -3.4034291 7.5502553e-34)
(-15.93973 -3.4672115 -8.0143223e-22)
(-16.068801 -3.533149 1.1618903e-24)
(-16.220907 -3.6049403 8.2383486e-22)
(-16.497969 -3.7184069 8.3363601e-22)
(-16.828035 -3.8698577 5.5403774e-17)
)
;
    }
    Outlet
    {
        type            calculated;
        value           nonuniform List<vector> 0();
    }
    procBoundary9to2
    {
        type            processor;
        value           uniform (0 0 0);
    }
    procBoundary9to8
    {
        type            processor;
        value           uniform (0 0 0);
    }
    procBoundary9to10
    {
        type            processor;
        value           uniform (0 0 0);
    }
}


// ************************************************************************* //
