/*--------------------------------*- C++ -*----------------------------------*\
| =========                 |                                                 |
| \\      /  F ield         | OpenFOAM: The Open Source CFD Toolbox           |
|  \\    /   O peration     | Version:  2506                                  |
|   \\  /    A nd           | Website:  www.openfoam.com                      |
|    \\/     M anipulation  |                                                 |
\*---------------------------------------------------------------------------*/
FoamFile
{
    version     2.0;
    format      ascii;
    arch        "LSB;label=32;scalar=64";
    class       volScalarField;
    location    "0.75";
    object      Cp;
}
// * * * * * * * * * * * * * * * * * * * * * * * * * * * * * * * * * * * * * //

dimensions      [0 0 0 0 0 0 0];

internalField   nonuniform List<scalar> 
1376
(
0.020141076
0.020168478
0.020173961
0.020155046
0.019584255
0.01967873
0.019733361
0.019767068
0.019773347
0.019763121
0.019749082
0.019740283
0.01974005
0.019744428
0.019743823
0.01898844
0.019102538
0.019171324
0.019225479
0.019255548
0.019267609
0.019269236
0.019270786
0.019281009
0.019301912
0.01932537
0.019340447
0.019342871
0.019334143
0.019321148
0.019313516
0.018374396
0.018496612
0.018564966
0.018626685
0.018671082
0.018702424
0.018722625
0.018739476
0.018764292
0.018803652
0.018854471
0.018904483
0.01893908
0.018953466
0.018959284
0.018974294
0.01899643
0.019014928
0.019021818
0.019002215
0.017854004
0.017975601
0.018031513
0.018083644
0.018123675
0.018154889
0.018179023
0.018199689
0.018226155
0.018269155
0.018331799
0.018404969
0.018474944
0.018531694
0.018578931
0.018631096
0.018692993
0.018760182
0.018825762
0.018870417
0.01887247
0.018808115
0.01866713
0.018461162
0.018212688
0.017444925
0.017574745
0.017622422
0.017660166
0.017681575
0.017692943
0.01769837
0.017700968
0.017708128
0.01772934
0.017771951
0.01783595
0.01791431
0.017998714
0.018086375
0.018177991
0.018277369
0.018384065
0.018490665
0.01859315
0.018670428
0.018698867
0.018648746
0.018508484
0.018292086
0.018028019
0.017741225
0.017464206
0.017231846
0.017022607
0.017168194
0.017221621
0.017262869
0.017280044
0.017282449
0.0172746
0.017260301
0.017245599
0.017236163
0.017239996
0.017265183
0.01731624
0.017392148
0.017487433
0.017593485
0.017706501
0.017828936
0.0179656
0.018114481
0.018263952
0.018388072
0.01845017
0.018438615
0.018333221
0.018119796
0.017810075
0.017465884
0.0171466
0.016895266
0.016744717
0.01671468
0.016810161
0.016489392
0.016630338
0.01668594
0.016737991
0.016766781
0.016777788
0.016775667
0.016765024
0.016750536
0.016736611
0.016730194
0.016739286
0.016770784
0.01682799
0.016905918
0.017000337
0.017109774
0.017235105
0.017378222
0.01753761
0.017710705
0.017880901
0.018030984
0.018149346
0.018193019
0.018102088
0.017869313
0.017552694
0.01721686
0.01687273
0.016577044
0.016407749
0.016392728
0.01650902
0.016741286
0.017074328
0.015904429
0.016009004
0.016044004
0.016090226
0.016124129
0.01614464
0.016156744
0.016164276
0.016169758
0.01617695
0.016191837
0.016219769
0.016267962
0.016340645
0.016434614
0.016545276
0.016666239
0.016794847
0.016929982
0.017072332
0.017220097
0.01737688
0.01754318
0.017704104
0.017814332
0.017815838
0.017756085
0.01766486
0.017417874
0.017039602
0.016589872
0.016209448
0.016024603
0.015997972
0.016132796
0.016419768
0.016783782
0.017151874
0.017478245
0.015362478
0.015433256
0.015438976
0.015466283
0.015492777
0.015517678
0.015544597
0.015575542
0.015610496
0.015651968
0.015705501
0.015776933
0.015868789
0.01597861
0.016100653
0.016227702
0.016352867
0.016475491
0.016597834
0.016725771
0.016862181
0.017000551
0.017130813
0.017253809
0.01739824
0.017564844
0.017684063
0.017633434
0.017430131
0.017092482
0.016686105
0.016293413
0.015888455
0.015603231
0.015538212
0.015668348
0.015956337
0.016356019
0.016783833
0.017133252
0.017381771
0.017662343
0.014885914
0.014957508
0.014956115
0.014975952
0.014996421
0.015025245
0.015068077
0.01512579
0.015197881
0.015280666
0.015375154
0.01548579
0.01560881
0.015735921
0.015857414
0.015966968
0.016064111
0.016157218
0.016257081
0.016374794
0.016513701
0.016666748
0.016818774
0.016947993
0.017045708
0.017148847
0.017247674
0.017294502
0.017259664
0.017107561
0.016822925
0.016337549
0.015788053
0.015334336
0.015028437
0.014951187
0.015120832
0.015485604
0.015966873
0.016438219
0.016831395
0.017134828
0.017444757
0.017797653
0.018144048
0.014439152
0.014540737
0.014570986
0.014616615
0.014653778
0.014692876
0.014744247
0.014812313
0.014899048
0.01499991
0.015108935
0.015226614
0.015352285
0.01548085
0.015601114
0.015702978
0.015784051
0.015851651
0.015916578
0.015991046
0.016080663
0.016181425
0.01628822
0.016396386
0.016499473
0.016594779
0.016655241
0.016675619
0.016672191
0.016639433
0.016513078
0.016215556
0.015771729
0.01527069
0.014828416
0.01453473
0.014487726
0.014698474
0.015132729
0.015697842
0.016259326
0.016714099
0.017043236
0.017354623
0.017711491
0.018123516
0.018377197
0.014020243
0.014147372
0.014222731
0.014318181
0.014397255
0.014464704
0.014529947
0.014597205
0.014670917
0.014749921
0.014830834
0.01491528
0.015005131
0.01510561
0.015210366
0.015306538
0.015385273
0.015448162
0.015505884
0.01556699
0.015635322
0.015704812
0.015758544
0.015782889
0.015772923
0.015737683
0.015706073
0.015714251
0.015765752
0.015823513
0.015835003
0.015750085
0.015549696
0.015234428
0.0148715
0.014562733
0.014380827
0.014359433
0.014541452
0.014979289
0.01560584
0.016217924
0.016715989
0.017081106
0.01739048
0.01783598
0.018105588
0.018474901
0.018568956
0.01363517
0.013774104
0.013876158
0.014011231
0.014133386
0.014242058
0.014338994
0.014422926
0.014496036
0.014554729
0.014593624
0.014618994
0.014643588
0.014683863
0.014745161
0.01481993
0.014893697
0.014955722
0.015004703
0.01503837
0.015053991
0.015053085
0.01503624
0.015003119
0.014959316
0.014917948
0.014893785
0.014896477
0.014926011
0.014969512
0.015019956
0.015058704
0.015043772
0.014956728
0.014802395
0.014624846
0.014483587
0.014393857
0.014369414
0.014555789
0.015016002
0.015656213
0.016331876
0.016881983
0.017259689
0.01768541
0.017882681
0.018294484
0.018239192
0.013270805
0.013400314
0.013496124
0.01364227
0.013790907
0.013935272
0.01406805
0.014184298
0.014281573
0.014347494
0.014374534
0.014373196
0.01436361
0.014368955
0.014399466
0.014447729
0.014488908
0.01449813
0.014463698
0.014391355
0.014296214
0.014195677
0.014110866
0.014054099
0.014025685
0.014022682
0.014046141
0.014095582
0.014153298
0.01421
0.014280399
0.014376864
0.014493824
0.014595114
0.014623154
0.014526106
0.014357593
0.014272776
0.014304337
0.014426731
0.014675241
0.015154822
0.01582843
0.016486836
0.016987951
0.017507665
0.017764571
0.018254026
0.01798711
0.012999129
0.013097352
0.013156248
0.013274761
0.013414076
0.013564546
0.013708681
0.013834728
0.013937978
0.014010622
0.014049352
0.014059663
0.014054031
0.01404779
0.014045981
0.014040947
0.014016458
0.013958971
0.013861928
0.013730739
0.013578175
0.013416852
0.013268534
0.013151305
0.013078579
0.013072172
0.013123622
0.01320422
0.013316416
0.01344265
0.013568667
0.013704345
0.013846789
0.013976564
0.014101297
0.014203684
0.01423133
0.014182789
0.014171359
0.014261486
0.014459369
0.014829453
0.015365415
0.01595566
0.016547381
0.017198275
0.017581403
0.018230386
0.017851148
0.012889708
0.012946839
0.012945907
0.013003113
0.013090243
0.01319837
0.01330499
0.01339317
0.013461412
0.0135165
0.013564931
0.013604753
0.013621981
0.013599461
0.013527071
0.013412534
0.013276442
0.013133862
0.012992618
0.012853362
0.012719007
0.012604031
0.012522382
0.012482655
0.012474614
0.012481647
0.012504721
0.012539449
0.01257785
0.012639582
0.012725257
0.012826756
0.012958968
0.013128706
0.013327544
0.013566173
0.013809983
0.013950251
0.014017414
0.014104549
0.01432797
0.014639351
0.015112569
0.015605555
0.016198716
0.016841274
0.017287293
0.01800569
0.017632734
0.012806685
0.012835053
0.012772275
0.012750343
0.012747237
0.012760749
0.012780422
0.012801058
0.012825485
0.012866818
0.012927912
0.012983378
0.012994297
0.012930597
0.012787527
0.012588708
0.012372606
0.012166862
0.011985483
0.011842782
0.011758809
0.011742564
0.01176958
0.011808921
0.01184284
0.011855716
0.01185782
0.011877593
0.011911873
0.011964831
0.012047861
0.012150834
0.012251979
0.012362157
0.01250464
0.012671439
0.012902624
0.013237249
0.01359714
0.013927931
0.014164994
0.01433525
0.014703427
0.015221336
0.015706495
0.016384143
0.016905021
0.017723549
0.01752002
0.012530479
0.01256047
0.012460159
0.012356217
0.012236668
0.012122313
0.012019201
0.011944414
0.011910737
0.011918556
0.011957526
0.011992495
0.011987371
0.011926177
0.011817135
0.011680179
0.011529585
0.011370184
0.011207872
0.011062173
0.010957312
0.010892723
0.010846629
0.010801777
0.010765681
0.010762757
0.010798791
0.010870715
0.010982525
0.011122857
0.011264389
0.011397522
0.011536943
0.011673911
0.011812798
0.011985654
0.01222383
0.012533533
0.012895517
0.013263731
0.013681222
0.01410887
0.014472043
0.014975428
0.015339561
0.016105008
0.016709476
0.01750613
0.017175423
0.011997426
0.012057356
0.011960758
0.011811384
0.011600525
0.011365507
0.011139095
0.010952181
0.010819991
0.010737878
0.010684084
0.010631155
0.010566547
0.010500877
0.010455594
0.010430942
0.010395994
0.010330373
0.010242298
0.010156327
0.01009275
0.010043892
0.0099975169
0.0099529376
0.009903064
0.0098513966
0.0098218513
0.0098440579
0.0099057867
0.0099884983
0.010114634
0.010300623
0.010513327
0.010760329
0.011090401
0.011457274
0.011827245
0.012182563
0.012513257
0.012901292
0.013355939
0.01386513
0.014413325
0.015029484
0.015492527
0.015942516
0.016402474
0.017426744
0.01672601
0.011253441
0.01136693
0.011312342
0.011181708
0.010957453
0.010677079
0.010378848
0.010094009
0.0098479411
0.0096344359
0.0094373865
0.0092560167
0.0091026431
0.0090035699
0.0089737189
0.0089921435
0.0090117438
0.0090047592
0.0089824472
0.0089636101
0.0089500399
0.0089386114
0.0089289902
0.0089254179
0.0089235808
0.0089343792
0.0089729027
0.0090361963
0.0091487042
0.0093109971
0.0094878434
0.0096656683
0.0098518327
0.010062853
0.010292512
0.010583239
0.010970533
0.01145324
0.012061123
0.01274709
0.013403486
0.013955587
0.014385441
0.014950228
0.015589836
0.016171953
0.01633235
0.017283927
0.016406982
0.010251964
0.010431847
0.010454475
0.010409528
0.010267444
0.010048512
0.0097789695
0.0094895948
0.009183558
0.0088705801
0.008564811
0.0082760863
0.0080371109
0.0078811128
0.0078104521
0.0077957726
0.0077955779
0.0077848802
0.0077672317
0.0077498108
0.0077205037
0.0076809323
0.0076565523
0.0076675478
0.0077282102
0.0078490772
0.0080368381
0.0082438485
0.0084541607
0.0086827466
0.0088855972
0.0090383701
0.0092088021
0.009481423
0.0098532935
0.010298616
0.010782175
0.011301239
0.011852563
0.012410155
0.012988478
0.013659689
0.01426036
0.014819623
0.015241814
0.015751575
0.016180114
0.017437155
0.016113839
0.0089881192
0.0092069131
0.0093031577
0.0093590866
0.0093406264
0.009253437
0.0091025036
0.0088927481
0.0086295257
0.0083310117
0.0080153851
0.0077027868
0.0074190865
0.007185279
0.0070093823
0.0068881424
0.0068159875
0.0067870315
0.0067932358
0.0068179054
0.0068332569
0.0068397686
0.0068527959
0.0068760148
0.0069146262
0.0069620859
0.0070049973
0.0070661919
0.0071576751
0.0073329028
0.007663425
0.0080981053
0.0085466129
0.0090247692
0.0095486616
0.01000784
0.010395014
0.010865872
0.011452894
0.012109078
0.012785917
0.013426769
0.014072782
0.014714275
0.015209408
0.01579123
0.016151876
0.017729073
0.015801567
0.0076265515
0.0078266348
0.0079492891
0.008073441
0.0081613641
0.0082089025
0.008201636
0.0081194783
0.0079793707
0.0077883499
0.0075560238
0.0073105834
0.0070514899
0.0067902716
0.006539511
0.0063103105
0.006125318
0.0060024482
0.0059246122
0.0058684754
0.005834617
0.0058167699
0.0058185087
0.0058464287
0.0059181117
0.0060521706
0.0062216858
0.006430355
0.0066849296
0.0069299829
0.0071390963
0.0073334157
0.007505316
0.0076364157
0.0079292788
0.0084742875
0.0091995964
0.010113766
0.011148122
0.012076287
0.01281715
0.013507931
0.014109181
0.014718496
0.015224073
0.015877981
0.01593321
0.017704491
0.015302947
0.0064216567
0.0065684707
0.0066714946
0.0068084858
0.0069444637
0.0070703946
0.0071634065
0.0072075902
0.0071960916
0.0071398954
0.0070517556
0.0069243947
0.0067544184
0.0065394394
0.0062833497
0.0059982141
0.0057090771
0.005449961
0.0052278263
0.0050357443
0.0048907442
0.0047967469
0.0047382544
0.0047210709
0.0047565176
0.0048797721
0.0050951044
0.0053640908
0.0056541487
0.0059481488
0.006243783
0.0065730816
0.0069804157
0.0074487479
0.0079442117
0.0084485109
0.0089776596
0.0095555056
0.010150773
0.010780125
0.01149786
0.01239872
0.013286299
0.013827654
0.014904278
0.016003305
0.015944207
0.018476063
0.014749162
0.0054585047
0.0055710374
0.005650389
0.0057742099
0.0059118845
0.0060488946
0.0061608271
0.0062437028
0.0062972782
0.0063205395
0.0063147285
0.0062816985
0.0062145662
0.0060889346
0.0058971112
0.0056549737
0.0053827866
0.0051024711
0.0048355253
0.0045955961
0.0043917933
0.0042241389
0.0040746393
0.0039358586
0.0038053758
0.0037083446
0.0037231243
0.003884966
0.0042042466
0.0046837436
0.0052711734
0.0058709593
0.0064361964
0.0069711738
0.0074695969
0.0079714116
0.0085451866
0.0091442539
0.0098170882
0.010590072
0.01140439
0.012225857
0.013094468
0.014177291
0.0148896
0.015098141
0.015041111
0.018624031
0.014104987
0.0046496095
0.0047582954
0.0048355968
0.0049544869
0.0050843507
0.0052064136
0.00528974
0.0053473341
0.005376938
0.0053729393
0.0053444775
0.0053045697
0.0052580499
0.0051789031
0.0050509845
0.0048746931
0.0046686244
0.0044484829
0.0042365126
0.0040600141
0.0039306894
0.0038496648
0.0038124328
0.0038137801
0.0038535278
0.0039082403
0.0039751715
0.0040560135
0.0041286563
0.0041898354
0.0042570594
0.0044250769
0.0049441467
0.0054788006
0.0060202762
0.0070134168
0.008096168
0.0089778436
0.0097863765
0.010598716
0.011429676
0.012266134
0.013131879
0.014067577
0.014597133
0.015724194
0.014593449
0.01834416
0.013436055
0.0038960421
0.0040104076
0.0040939154
0.0042117191
0.0043344928
0.004447839
0.0045208833
0.0045628467
0.0045609569
0.004502925
0.0044068099
0.0042957572
0.0041917124
0.0040915803
0.0039824365
0.0038457222
0.0036942395
0.0035488647
0.0034229136
0.0033402742
0.0033116359
0.0033383743
0.0034113346
0.0035166903
0.0036637004
0.0038229894
0.0039710851
0.0041477447
0.0043641566
0.0046283108
0.0049662194
0.0053192868
0.0055444852
0.0059221557
0.0064440161
0.0066765346
0.0068380039
0.0072555297
0.0078868534
0.0088630382
0.010128048
0.01131862
0.01257662
0.013839967
0.014402691
0.015759269
0.014080624
0.018961925
0.012728882
0.0031705291
0.0033069066
0.0034112455
0.003536906
0.0036515133
0.0037471
0.0038075381
0.0038429729
0.003832668
0.0037586183
0.0036366508
0.0034861753
0.0033430001
0.0032264509
0.0031303684
0.0030375813
0.002944727
0.0028621367
0.0027953992
0.0027525436
0.0027436467
0.002773741
0.0028438448
0.0029612133
0.0031346916
0.0033618828
0.0035992172
0.0038518952
0.0041367448
0.0044409232
0.0048023347
0.0052101366
0.0055761538
0.005944953
0.0063001568
0.0066700234
0.0071292468
0.007618544
0.0081598179
0.0086839399
0.0091444163
0.0096734014
0.010423504
0.011311353
0.012327574
0.014409514
0.012719912
0.018825764
0.011530322
0.0025095655
0.0026876353
0.0028238567
0.0029550019
0.003042384
0.0030879058
0.0030993863
0.0030923179
0.0030544859
0.0029662193
0.0028358783
0.0026903427
0.0025637668
0.002473796
0.0024285132
0.0024151911
0.0024170609
0.0024324801
0.002450676
0.0024674156
0.0024816356
0.0025012081
0.0025478903
0.0026125028
0.0026779481
0.0027562138
0.0028586979
0.0029848578
0.0031738377
0.0034159377
0.0037210011
0.0041042103
0.0045104385
0.0049248018
0.0053459007
0.0058491434
0.0064411615
0.0070278886
0.0076172174
0.0082357047
0.0088125059
0.0094284973
0.010059559
0.010701355
0.010811617
0.01298884
0.01050009
0.017713086
0.0092640043
0.0019242789
0.0021181371
0.0022481908
0.0023483182
0.0023890762
0.0023839302
0.0023426376
0.0022776389
0.0021971533
0.0020841709
0.0019412287
0.001809214
0.0017015781
0.0016380252
0.0016292755
0.0016621405
0.0017186565
0.001779465
0.0018356004
0.0018749195
0.0019041509
0.0019462206
0.0020261978
0.0021457237
0.0022741949
0.0023918045
0.0024986071
0.0025781207
0.0026548017
0.0027441624
0.0028658989
0.0030375968
0.003258877
0.0035679217
0.0039323292
0.0043869215
0.0050086995
0.0056335351
0.0062305171
0.0068709337
0.0074723284
0.0081375852
0.0088267079
0.0095799005
0.0095479764
0.012893824
0.0084999227
0.018525153
0.0064611851
0.0013120978
0.0014558155
0.001518562
0.0015591015
0.0015523708
0.0015254059
0.0014787394
0.0014120554
0.0013211673
0.0012093837
0.0011010012
0.00099689285
0.00090415582
0.00085039955
0.00083324876
0.00084366021
0.00087074843
0.00089582627
0.0009104496
0.00092996949
0.00096372709
0.0010116385
0.0010927543
0.0012283748
0.0014045878
0.00159768
0.0018011481
0.001994176
0.0021668016
0.0023331127
0.0025037736
0.002672867
0.002809929
0.003004931
0.0032083857
0.0033944047
0.0036669363
0.0039838277
0.0043408434
0.0047705722
0.0052478727
0.005793211
0.006451373
0.0072622927
0.0068830304
0.010537918
0.0055237828
0.015151266
0.0037786038
0.00060666958
0.00066899649
0.00066505968
0.00067953308
0.00065235715
0.00061378452
0.00057721737
0.00054869811
0.00050761437
0.00047115526
0.00044723724
0.0003949239
0.00033413421
0.00028666841
0.00024685536
0.00022155028
0.00019528995
0.0001722609
0.00014982624
0.00015352376
0.00017487247
0.00019623631
0.00024677142
0.00035192905
0.0005156747
0.00070595985
0.00090838034
0.0011184389
0.0012972218
0.0014371295
0.001569165
0.0017073988
0.0017987875
0.0018437064
0.0019269324
0.0020324884
0.0021318042
0.0022770474
0.0024627697
0.0027116648
0.0030459067
0.0034644296
0.0040157254
0.0053809527
0.0048172664
0.010153391
0.0031629045
0.020638266
0.0014837808
)
;

boundaryField
{
    Side
    {
        type            empty;
    }
    Inlet
    {
        type            calculated;
        value           nonuniform List<scalar> 
21
(
0.019116837
0.018954691
0.018822755
0.018698415
0.018571851
0.018407354
0.018203275
0.018060047
0.017936089
0.017822204
0.017733466
0.01762328
0.01752272
0.017410677
0.017226818
0.01695829
0.01654271
0.015993087
0.015474423
0.014750209
0.014581027
)
;
    }
    Airfoil
    {
        type            calculated;
        value           nonuniform List<scalar> 0();
    }
    Outlet
    {
        type            calculated;
        value           uniform 0;
    }
    procBoundary13to6
    {
        type            processor;
        value           nonuniform List<scalar> 
34
(
0.020072665
0.020072665
0.019567928
0.018982079
0.018366981
0.01783309
0.017407373
0.016983823
0.016483459
0.015942819
0.015418809
0.014919068
0.014438346
0.01400227
0.013612322
0.013247032
0.012974096
0.012870554
0.012803872
0.012534314
0.011978656
0.011192237
0.01015509
0.008883968
0.0075612878
0.0064059318
0.0054614355
0.0046392054
0.0038627585
0.0031002345
0.0023770804
0.0017483674
0.0011625606
0.00054342135
)
;
    }
    procBoundary13to12
    {
        type            processor;
        value           nonuniform List<scalar> 
60
(
0.020408732
0.020405934
0.020388723
0.02035745
0.020126918
0.020126918
0.020101192
0.020083633
0.020072846
0.020062695
0.020047868
0.019733782
0.019733782
0.019717043
0.019697283
0.019675535
0.019641842
0.019300675
0.019300675
0.019261778
0.019194465
0.019089044
0.018931486
0.018931486
0.018792769
0.018591235
0.018347489
0.018087453
0.017944762
0.017944762
0.017688925
0.017469858
0.017301632
0.017069446
0.017069446
0.017015303
0.017077753
0.0172571
0.017032921
0.017032921
0.017354102
0.017745809
0.01746165
0.01746165
0.017821312
0.018157586
0.017745292
0.017745292
0.018044754
0.018432578
0.018041444
0.018041444
0.018387386
0.018648503
0.018515453
0.018515453
0.018708762
0.018618573
0.018618573
0.018682262
)
;
    }
}


// ************************************************************************* //
