/*--------------------------------*- C++ -*----------------------------------*\
| =========                 |                                                 |
| \\      /  F ield         | OpenFOAM: The Open Source CFD Toolbox           |
|  \\    /   O peration     | Version:  2506                                  |
|   \\  /    A nd           | Website:  www.openfoam.com                      |
|    \\/     M anipulation  |                                                 |
\*---------------------------------------------------------------------------*/
FoamFile
{
    version     2.0;
    format      ascii;
    arch        "LSB;label=32;scalar=64";
    class       volScalarField;
    location    "0.75";
    object      k;
}
// * * * * * * * * * * * * * * * * * * * * * * * * * * * * * * * * * * * * * //

dimensions      [0 2 -2 0 0 0 0];

internalField   nonuniform List<scalar> 
1376
(
2.2912928
2.614271
2.8414967
2.9862031
1.9340671
2.2828825
2.6037151
2.8281922
2.9698236
3.0474188
3.0816319
3.091555
3.0919791
3.0865918
3.0826398
1.9282131
2.2760909
2.5947311
2.8162476
2.9545318
3.0290627
3.0610052
3.0696385
3.0695721
3.0639947
3.060244
3.0586243
3.0583941
3.0605454
3.0645569
3.0692139
1.9227332
2.2702474
2.5867755
2.8052058
2.939963
3.0112659
3.0408281
3.0482548
3.0474899
3.0417674
3.0381799
3.0367215
3.0365951
3.0390237
3.0430571
3.0476947
3.0528961
3.0585584
3.0646148
3.0710361
1.9169147
2.2646614
2.5792081
2.7944934
2.9256428
2.9936699
3.0208832
3.0272376
3.0256491
3.0198719
3.0164329
3.0151287
3.0150997
3.0177718
3.0218045
3.0264118
3.0315619
3.0371567
3.0431368
3.0494758
3.0561682
3.0632211
3.0706477
3.0784655
3.0866941
1.9102955
2.2587717
2.571455
2.7835843
2.9111345
2.9759555
3.000968
3.0063907
3.0039916
2.9982592
2.9949794
2.9938241
2.9939
2.9967811
3.0007959
3.0053627
3.0104517
3.0159704
3.0218663
3.0281175
3.034719
3.0416758
3.0490014
3.0567124
3.0648292
3.0733731
3.0823729
3.091868
3.1019091
1.9026002
2.2521085
2.5630152
2.7720409
2.8961023
2.9579015
2.9809425
2.9855741
2.9824888
2.9768908
2.9737934
2.9727688
2.9729814
2.9760336
2.9800187
2.9845401
2.9895638
2.9950029
3.0008112
3.0069697
3.0134739
3.0203283
3.0275452
3.0351421
3.0431385
3.0515564
3.0604226
3.0697716
3.0796492
3.0901135
3.1012396
3.1131197
3.1258678
1.8937402
2.2443361
2.5535384
2.7595924
2.8803747
2.9394206
2.9607542
2.9647314
2.9611363
2.955741
2.9528431
2.9519318
2.9523209
2.9555053
2.9594553
2.963931
2.9688894
2.9742487
2.9799674
2.9860287
2.9924307
2.9991765
3.006277
3.0137514
3.0216188
3.0299025
3.0386294
3.047831
3.0575483
3.0678353
3.0787614
3.0904121
3.1028954
3.1163438
3.1309218
3.1468313
1.8838086
2.2353027
2.5428819
2.7461777
2.8639656
2.9205644
2.9404454
2.9438898
2.9399554
2.934803
2.9321087
2.931297
2.9318985
2.9351774
2.9390909
2.9435206
2.9484134
2.9536918
2.959319
2.9652804
2.9715742
2.9782061
2.9851885
2.9925355
3.0002678
3.0084114
3.0169935
3.0260457
3.0356048
3.0457204
3.0564551
3.0678886
3.0801228
3.0932857
3.107537
3.1230696
3.1401147
3.1589395
3.1797744
1.8730354
2.2250512
2.5311064
2.7319192
2.8470319
2.9014818
2.9201252
2.923133
2.9189873
2.9140902
2.9115917
2.9108699
2.911705
2.9150442
2.9189206
2.9233034
2.9281295
2.9333263
2.9388608
2.9447209
2.9509048
2.9574182
2.9642739
2.9714895
2.9790863
2.9870881
2.9955221
3.0044191
3.0138155
3.0237585
3.0343072
3.0455385
3.0575456
3.0704451
3.0843899
3.0995706
3.1162109
3.1345643
3.1548794
3.1773963
3.2023545
3.229936
1.8617334
2.2137683
2.5183946
2.7170173
2.829772
2.8823396
2.8999159
2.9025576
2.8982791
2.8936265
2.8913076
2.8906695
2.891741
2.8951132
2.8989523
2.903286
2.9080435
2.9131568
2.9185964
2.9243529
2.9304258
2.9368217
2.9435518
2.9506329
2.9580846
2.965931
2.9742017
2.9829307
2.9921568
3.0019284
3.0123
3.0233398
3.035134
3.0477969
3.0614669
3.0763201
3.0925763
3.110478
3.1302691
3.1521885
3.1764358
3.2031744
3.2324595
3.2643331
3.2995601
1.8503017
2.2018123
2.5050669
2.7017409
2.812397
2.8632889
2.8799199
2.8822413
2.8778667
2.873433
2.8712729
2.8707135
2.8720092
2.8753941
2.8791964
2.8834799
2.8881665
2.893193
2.8985341
2.9041823
2.9101395
2.9164124
2.9230103
2.9299473
2.9372449
2.9449314
2.9530385
2.961597
2.970647
2.9802364
2.9904264
3.0012779
3.0128697
3.0253035
3.0387221
3.0532809
3.0691822
3.0866621
3.1059504
3.1272539
3.1507794
3.176674
3.2049725
3.2357785
3.2699884
3.312511
3.3852852
1.8392178
2.1897316
2.4915972
2.6864353
2.7951264
2.8444528
2.8602013
2.8622229
2.8577598
2.8535167
2.851496
2.8510117
2.8525138
2.8558972
2.8596635
2.8638945
2.8685064
2.8734404
2.8786746
2.8842043
2.8900338
2.8961703
2.9026251
2.9094139
2.9165577
2.9240834
2.9320201
2.940404
2.9492769
2.9586859
2.9686825
2.9793336
2.9907169
3.0029433
3.0161214
3.030402
3.0459732
3.063041
3.081833
3.1025454
3.1253623
3.1504071
3.1777268
3.2074758
3.2406745
3.2825687
3.3561691
3.6174079
5.5020847
1.8289212
2.1781276
2.478474
2.6714262
2.7781423
2.8259156
2.8407921
2.8425145
2.8379546
2.8338777
2.8319803
2.8315672
2.8332545
2.8366221
2.84035
2.8445264
2.8490623
2.8539019
2.8590247
2.8644283
2.8701197
2.8761083
2.8824095
2.8890428
2.896027
2.9033833
2.9111411
2.9193425
2.9280276
2.9372412
2.9470422
2.9574942
2.968677
2.9806711
2.9935887
3.0075955
3.0228526
3.0395433
3.0578625
3.0779953
3.1001064
3.124319
3.1506896
3.179417
3.2116472
3.2529313
3.3274738
3.599113
5.5130673
1.8196956
2.1675657
2.466151
2.6569957
2.7615866
2.8077311
2.8217048
2.8231162
2.8184446
2.8145166
2.8127293
2.8123807
2.8142283
2.8175629
2.8212458
2.8253631
2.8298207
2.8345632
2.8395722
2.8448469
2.8503945
2.8562309
2.8623747
2.868845
2.8756579
2.8828411
2.8904283
2.8984471
2.9069325
2.915939
2.9255201
2.9357392
2.9466813
2.958437
2.9711212
2.9848564
2.9997992
3.0161168
3.0339788
3.0535601
3.0750001
3.0984017
3.1238377
3.1515684
3.1828738
3.2235973
3.2992344
3.5815694
5.5393565
1.8115311
2.1584078
2.4549826
2.6433789
2.7455771
2.7899405
2.8029433
2.8040228
2.799222
2.7954337
2.7937499
2.7934604
2.7954424
2.7987214
2.802344
2.8063896
2.8107607
2.8154029
2.8202981
2.8254466
2.8308558
2.83654
2.8425198
2.8488187
2.8554623
2.8624744
2.869878
2.8777048
2.8859988
2.8948059
2.9041754
2.9141625
2.9248447
2.9363386
2.9487453
2.9621885
2.9768164
2.9927725
3.0102014
3.0292504
3.0500383
3.0726478
3.0971654
3.1239086
3.1542997
3.1944798
3.2713401
3.5645953
5.590601
1.8040879
2.1506214
2.445044
2.6306488
2.7301514
2.7725502
2.7844982
2.7852215
2.7802752
2.7766219
2.7750404
2.7748059
2.7769005
2.7801042
2.7836504
2.7876082
2.7918807
2.7964165
2.8011963
2.8062188
2.8114936
2.8170346
2.8228622
2.828999
2.835467
2.8422942
2.8495125
2.857155
2.8652528
2.8738506
2.8830023
2.8927684
2.9032297
2.9144604
2.9265762
2.9397168
2.9540106
2.9695966
2.9865952
3.0051143
3.0252542
3.0470741
3.0706677
3.0964216
3.1258927
3.1655989
3.2438729
3.5485384
5.6504433
1.7968692
2.1438395
2.4361015
2.618664
2.7152245
2.7555057
2.7663265
2.7666823
2.7615824
2.7580617
2.7565819
2.7563984
2.7585872
2.7617024
2.7651636
2.7690248
2.7731883
2.7776071
2.782264
2.7871567
2.7922944
2.7976954
2.8033808
2.8093669
2.8156752
2.8223349
2.8293773
2.8368291
2.8447216
2.8531044
2.862029
2.8715635
2.881779
2.8927575
2.9046076
2.917464
2.9314579
2.9466866
2.9632476
2.9812432
3.0007306
3.0217514
3.0443992
3.0691339
3.0976976
3.1369572
3.2169811
3.5339213
5.6431132
1.7893791
2.1375265
2.4277379
2.6071422
2.7006241
2.7387017
2.7483656
2.748353
2.7431045
2.7397151
2.7383404
2.7382092
2.7404774
2.7434969
2.7468662
2.7506213
2.7546669
2.7589599
2.7634849
2.7682432
2.7732445
2.778505
2.7840465
2.7898895
2.7960509
2.802552
2.809423
2.8166939
2.8243968
2.832579
2.8412975
2.8506054
2.8605741
2.8712936
2.882878
2.8954514
2.9091353
2.9240252
2.9401692
2.9576381
2.9764648
2.9966787
3.0183839
3.0420985
3.0698084
3.1087539
3.1908898
3.5222962
5.6705916
1.7812217
2.1310992
2.4194558
2.595736
2.6861374
2.7220097
2.7306058
2.7301562
2.7248133
2.7215568
2.7202917
2.7202157
2.722551
2.7254719
2.728746
2.7323909
2.7363162
2.7404814
2.7448729
2.7494957
2.7543615
2.7594817
2.7648745
2.7705663
2.7765786
2.7829291
2.7896398
2.796735
2.8042523
2.8122377
2.82074
2.8298194
2.8395542
2.8500415
2.86139
2.8737041
2.8870875
2.9016207
2.9173315
2.9342621
2.9524239
2.971834
2.9925982
3.0153663
3.0423391
3.0812071
3.1658987
3.5143379
5.7329388
1.7721542
2.1240082
2.4107512
2.5840868
2.6715574
2.7053474
2.7130114
2.7120878
2.7067144
2.7035903
2.7024393
2.7024184
2.7048062
2.7076271
2.7108025
2.7143322
2.718133
2.7221712
2.7264382
2.7309367
2.735673
2.7406572
2.745911
2.75146
2.7573222
2.7635052
2.7700348
2.7769485
2.7842742
2.7920482
2.8003337
2.8091909
2.8187087
2.8289742
2.8400729
2.8521239
2.8652033
2.8793741
2.8946547
2.9110578
2.9285672
2.9471877
2.9671061
2.9890316
3.0153731
3.0543123
3.142074
3.5098664
5.7882546
1.762141
2.1158271
2.4011902
2.5718811
2.6567091
2.6886526
2.6955445
2.6941706
2.6888258
2.6858297
2.6847779
2.6848229
2.6872408
2.6899626
2.6930374
2.6964504
2.7001275
2.7040409
2.7081829
2.7125552
2.717161
2.7220118
2.7271294
2.7325327
2.7382329
2.7442455
2.7506036
2.7573364
2.7644627
2.7720307
2.7800964
2.7887322
2.798019
2.8080259
2.8188562
2.8306252
2.843392
2.8571883
2.8720174
2.8878784
2.9047503
2.9226642
2.941833
2.9630745
2.9889534
3.0282052
3.1198016
3.5094704
5.8553457
1.7513749
2.1063634
2.3905277
2.5589361
2.6414925
2.6718881
2.6781706
2.6764245
2.6711594
2.6682884
2.6673113
2.6674287
2.6698457
2.6724693
2.6754437
2.6787384
2.6822899
2.6860758
2.6900873
2.6943263
2.6987981
2.7035138
2.7084916
2.7137486
2.7192965
2.7251385
2.7313059
2.7378385
2.7447629
2.7521203
2.759961
2.7683611
2.7774134
2.7871783
2.7977483
2.8092135
2.8216301
2.8350163
2.8493732
2.8646901
2.880944
2.8981846
2.9166674
2.9373258
2.9629128
3.0028539
3.0987716
3.50815
5.9487738
1.7402229
2.0957339
2.3787986
2.5452762
2.6259294
2.6550671
2.6608824
2.6588693
2.653722
2.6509712
2.6500509
2.6502407
2.6526295
2.6551521
2.6580246
2.6612011
2.6646247
2.6682781
2.6721552
2.6762582
2.6805932
2.6851698
2.6900015
2.6951041
2.7004835
2.7061551
2.7121379
2.7184653
2.7251786
2.7323248
2.7399449
2.7481118
2.7569098
2.7664072
2.7766896
2.7878295
2.7998827
2.8128581
2.8267517
2.8415373
2.8571925
2.8737968
2.8916427
2.911766
2.9371645
2.9779869
3.0790453
3.5143704
6.0595411
1.7290896
2.0842749
2.3662212
2.5310328
2.6100943
2.6382226
2.643685
2.6415101
2.636506
2.6338692
2.6329931
2.6332511
2.6355894
2.63801
2.6407815
2.6438444
2.6471443
2.6506678
2.6544108
2.658374
2.6625634
2.6669923
2.6716714
2.6766134
2.6818326
2.6873371
2.6931443
2.6992812
2.7057841
2.7127169
2.7201108
2.7280354
2.7365648
2.7457781
2.7557579
2.7665586
2.7782279
2.7907765
2.8041889
2.8184327
2.8334963
2.8494745
2.8667067
2.8863477
2.9116375
2.9536349
3.0611734
3.5320157
6.191571
1.718294
2.0724371
2.3531376
2.5164237
2.5941051
2.6214012
2.6265922
2.6243412
2.6194975
2.6169696
2.6161296
2.6164501
2.6187153
2.6210325
2.623703
2.6266539
2.6298348
2.6332335
2.636849
2.6406823
2.6447368
2.6490196
2.6535455
2.6583257
2.6633679
2.6686796
2.6743003
2.6802356
2.6865383
2.6932594
2.7004389
2.7081504
2.716443
2.7253883
2.7350677
2.7455307
2.7568102
2.7689125
2.7818199
2.7954963
2.8099447
2.8252755
2.8418961
2.8610755
2.8863162
2.9299118
3.0453821
3.5567133
6.3353971
1.7080003
2.0606854
2.3399367
2.5016963
2.5780891
2.6046493
2.6096155
2.6073441
2.6026714
2.6002489
2.5994431
2.5998252
2.6020008
2.6042146
2.6067823
2.6096206
2.6126849
2.6159637
2.6194552
2.6231609
2.6270844
2.6312287
2.6356035
2.6402279
2.6450861
2.6502179
2.6556482
2.6613699
2.6674675
2.6739609
2.6809125
2.6883986
2.6964561
2.7051471
2.7145463
2.7246961
2.7356061
2.7472716
2.7596778
2.7727884
2.7866173
2.8012865
2.8172827
2.8360264
2.861282
2.9066995
3.0319982
3.5912346
6.502065
1.6983252
2.0494436
2.3270228
2.4871307
2.5622042
2.58804
2.5927923
2.5905183
2.5860179
2.5836997
2.5829327
2.5833832
2.5854609
2.5875755
2.5900417
2.5927689
2.5957179
2.5988764
2.6022409
2.6058131
2.6095996
2.6136082
2.6178451
2.6223226
2.6270199
2.6319914
2.637232
2.6427536
2.6486431
2.654911
2.6616277
2.6688735
2.6766817
2.6851148
2.6942324
2.7040621
2.7146099
2.7258509
2.7377636
2.750305
2.7635031
2.7775127
2.7928897
2.8112183
2.8365403
2.8844594
3.0221045
3.6396713
6.7021455
1.6891288
2.0389561
2.3146729
2.4729244
2.5465534
2.5716086
2.5761293
2.5738378
2.5695038
2.5672871
2.5665636
2.5670886
2.5690653
2.5710871
2.5734556
2.5760772
2.5789161
2.5819568
2.5851939
2.5886282
2.5922678
2.5961235
2.6002039
2.6045206
2.6090649
2.6138777
2.6189509
2.624322
2.6300354
2.6361131
2.6426209
2.6496316
2.6571803
2.6653439
2.6741608
2.6836457
2.6938035
2.7046075
2.7160228
2.7279952
2.7405484
2.753895
2.7686811
2.7867376
2.8122193
2.8636344
3.016194
3.7059667
6.9352803
1.6807563
2.0294546
2.303169
2.4593512
2.5313706
2.5555549
2.5598109
2.557459
2.553276
2.5511545
2.5504745
2.5510699
2.5529427
2.5548732
2.5571438
2.5596609
2.5623919
2.5653207
2.5684392
2.5717487
2.5752537
2.5789628
2.5828851
2.5870323
2.5914138
2.5960424
2.6009362
2.6061432
2.6116843
2.6175979
2.6239347
2.6307446
2.6380643
2.6459726
2.6544898
2.6636288
2.673392
2.6837385
2.694635
2.7060427
2.717978
2.7306727
2.7449366
2.7627798
2.7887119
2.8437896
3.0148394
3.7791655
7.1419845
1.6723822
2.0208596
2.2924308
2.4461849
2.5162735
2.5393904
2.5433089
2.5408127
2.5367617
2.5347234
2.5340837
2.5347408
2.5365022
2.5383378
2.5405026
2.5429061
2.5455211
2.5483309
2.5513294
2.5545169
2.5578948
2.5614661
2.5652369
2.5692206
2.5734397
2.5778875
2.5826009
2.5876222
2.5929692
2.5986954
2.6048442
2.6114459
2.6185418
2.6261997
2.6344104
2.6431945
2.6525507
2.6624199
2.6727764
2.683573
2.6948821
2.7069639
2.7207934
2.738768
2.7657301
2.8282007
3.024252
3.8983953
7.4500863
1.666365
2.0140399
2.2836129
2.4350791
2.5033063
2.5253856
2.5289614
2.5262627
2.5223104
2.5203362
2.5197214
2.5204166
2.5220762
2.5238273
2.5258981
2.5281992
2.5307056
2.5334042
2.5362904
2.5393668
2.5426365
2.5460975
2.5497513
2.5536077
2.5576931
2.5620007
2.5665696
2.571435
2.5766131
2.5821597
2.5881147
2.5945044
2.6013834
2.6088021
2.6167392
2.6252192
2.6342207
2.6436929
2.6535993
2.663895
2.6746854
2.6862666
2.6997747
2.7181713
2.7458713
2.8137311
3.035187
4.0018954
7.675904
1.6560871
2.0049094
2.2711103
2.4178992
2.4821619
2.501961
2.5047618
2.5015102
2.4976724
2.4957726
2.4951999
2.4959157
2.4973975
2.4990028
2.5009145
2.5030461
2.5053742
2.5078891
2.510589
2.5134784
2.5165606
2.5198344
2.5233009
2.5269643
2.5308411
2.5349371
2.5392839
2.5439044
2.5488117
2.5540519
2.5596715
2.5656859
2.5721535
2.5791081
2.5865416
2.594466
2.6028386
2.6116246
2.6207593
2.6302414
2.6402376
2.6512357
2.6645213
2.6847677
2.7153227
2.8059361
3.0954781
4.309937
8.226945
)
;

boundaryField
{
    Side
    {
        type            empty;
    }
    Inlet
    {
        type            turbulentIntensityKineticEnergyInlet;
        intensity       0.03;
        value           nonuniform List<scalar> 
21
(
12.046418
12.047914
12.049056
12.050165
12.051922
12.054621
12.057363
12.059422
12.061169
12.062879
12.06432
12.065872
12.067685
12.069455
12.072193
12.076149
12.080418
12.087419
12.095248
12.103669
12.104981
)
;
    }
    Airfoil
    {
        type            kqRWallFunction;
        value           nonuniform List<scalar> 0();
    }
    Outlet
    {
        type            inletOutlet;
        inletValue      uniform 1.48208e-06;
        value           nonuniform List<scalar> 
49
(
1.6560871
2.0049094
2.2711103
2.4178992
2.4821619
2.501961
2.5047618
2.5015102
2.4976724
2.4957726
2.4951999
2.4959157
2.4973975
2.4990028
2.5009145
2.5030461
2.5053742
2.5078891
2.510589
2.5134784
2.5165606
2.5198344
2.5233009
2.5269643
2.5308411
2.5349371
2.5392839
2.5439044
2.5488117
2.5540519
2.5596715
2.5656859
2.5721535
2.5791081
2.5865416
2.594466
2.6028386
2.6116246
2.6207593
2.6302414
2.6402376
2.6512357
2.6645213
2.6847677
2.7153227
2.8059361
3.0954781
4.309937
8.226945
)
;
    }
    procBoundary13to6
    {
        type            processor;
        value           nonuniform List<scalar> 
34
(
1.9411852
1.9411852
1.9460404
1.939351
1.9325547
1.9250664
1.9164763
1.9066331
1.8957348
1.8842951
1.8729841
1.8623756
1.8528044
1.8442783
1.8364662
1.8288834
1.8210936
1.8127264
1.803494
1.7933092
1.7823161
1.7708498
1.7593607
1.7483378
1.7381881
1.729033
1.7207364
1.7129701
1.7054546
1.6978306
1.6902014
1.6818985
1.6751134
1.6634032
)
;
    }
    procBoundary13to12
    {
        type            processor;
        value           nonuniform List<scalar> 
60
(
2.3017016
2.6266194
2.8563133
3.003781
3.0666117
3.0666117
3.1028967
3.1140076
3.1148306
3.1095711
3.1053661
3.0808407
3.0808407
3.0805017
3.082344
3.0863087
3.0909728
3.074457
3.074457
3.0801772
3.0863019
3.0927982
3.0778156
3.0778156
3.0849597
3.0924829
3.1004026
3.1087404
3.0953584
3.0953584
3.1044914
3.1141355
3.1243449
3.112558
3.112558
3.1238949
3.1360169
3.1490409
3.1396222
3.1396222
3.154546
3.1708314
3.1643043
3.1643043
3.183568
3.2049017
3.2028799
3.2028799
3.2285367
3.2569338
3.2601872
3.2601872
3.2930924
3.3292909
3.3427196
3.3427196
3.4146937
3.6366668
3.6366668
5.3996951
)
;
    }
}


// ************************************************************************* //
