/*--------------------------------*- C++ -*----------------------------------*\
| =========                 |                                                 |
| \\      /  F ield         | OpenFOAM: The Open Source CFD Toolbox           |
|  \\    /   O peration     | Version:  2506                                  |
|   \\  /    A nd           | Website:  www.openfoam.com                      |
|    \\/     M anipulation  |                                                 |
\*---------------------------------------------------------------------------*/
FoamFile
{
    version     2.0;
    format      ascii;
    arch        "LSB;label=32;scalar=64";
    class       volScalarField;
    location    "0.0185";
    object      T;
}
// * * * * * * * * * * * * * * * * * * * * * * * * * * * * * * * * * * * * * //

dimensions      [0 0 0 1 0 0 0];

internalField   nonuniform List<scalar> 
13761
(
243.02318
243.06592
243.11386
243.16743
243.22705
243.29307
243.36575
243.44528
243.53173
243.62523
243.72583
243.83352
243.94825
244.06988
244.1981
244.33232
244.47127
244.61316
244.75407
244.88724
245.0011
245.07152
245.02354
244.84443
242.74119
242.74232
242.74477
242.74886
242.75498
242.76349
242.77474
242.78885
242.80558
242.82432
242.84435
242.86503
242.8859
242.90674
242.92743
242.94799
242.96853
242.98918
243.01011
243.03154
243.05368
243.0768
243.10116
243.12706
243.15481
243.18475
243.21724
243.25266
243.29136
243.33374
243.38015
243.43096
243.4865
243.54706
243.61292
243.68437
243.76157
243.8447
243.93397
244.02961
244.13191
244.24127
244.3582
244.48325
244.61679
244.75905
244.91033
245.07102
245.24651
245.45957
243.43193
243.43206
243.43204
243.4317
243.43089
243.42946
243.42731
243.42446
243.42119
243.41796
243.41527
243.4135
243.41293
243.4137
243.4159
243.41955
243.42468
243.43129
243.43941
243.44908
243.46035
243.47331
243.48804
243.50468
243.52336
243.54424
243.56748
243.59327
243.6218
243.65328
243.6879
243.72587
243.76738
243.8126
243.86171
243.91487
243.97224
244.03397
244.10023
244.17122
244.24723
244.32858
244.4157
244.50913
244.60949
244.71718
244.83227
244.95465
244.03174
244.03253
244.0339
244.03582
244.03813
244.04074
244.04345
244.04613
244.04856
244.05067
244.0524
244.05381
244.05498
244.05601
244.05702
244.05809
244.05935
244.06087
244.06276
244.06511
244.06803
244.07163
244.07605
244.08142
244.08789
244.09563
244.10479
244.11558
244.12819
244.14279
244.1596
244.17878
244.20052
244.22499
244.25233
244.28265
244.31608
244.35271
244.39262
244.43592
244.48272
244.53319
244.58751
244.64595
244.70882
244.7765
244.33131
244.33149
244.33208
244.33331
244.33563
244.33939
244.34505
244.35282
244.36275
244.37451
244.38762
244.40155
244.41589
244.43033
244.4447
244.45889
244.47287
244.48664
244.50024
244.51371
244.52711
244.54052
244.554
244.56763
244.5815
244.59569
244.61028
244.62537
244.64104
244.6574
244.67453
244.69255
244.71154
244.7316
244.75283
244.77531
244.79913
244.82438
244.85116
244.87957
244.90974
244.94179
244.97584
244.48263
244.48447
244.48826
244.49427
244.50253
244.51322
244.52626
244.54146
244.55823
244.57589
244.59371
244.61127
244.62829
244.6447
244.66052
244.67584
244.69076
244.7054
244.71985
244.73422
244.74859
244.76307
244.77772
244.79262
244.80782
244.82336
244.8393
244.85565
244.87244
244.88969
244.90738
244.92552
244.94408
244.96305
244.98241
245.00214
245.02221
245.04261
245.06329
244.70804
244.70904
244.71119
244.71474
244.71995
244.7271
244.73639
244.74785
244.76122
244.77601
244.79164
244.80765
244.82373
244.83972
244.85552
244.87113
244.88658
244.90192
244.91721
244.93253
244.94795
244.96354
244.97936
244.99548
245.01194
245.0288
245.04608
245.0638
245.08197
245.10059
245.11961
245.13902
245.15876
245.17877
245.199
244.8736
244.87463
244.87682
244.88038
244.88551
244.8924
244.90122
244.91194
244.92434
244.93796
244.95232
244.96702
244.98178
244.99647
245.01101
245.02542
245.03972
245.05398
245.06826
245.08262
245.09716
245.11195
245.12706
245.14257
245.15854
245.17502
247.0163
247.01641
247.01665
247.01707
247.01769
247.01856
247.01969
247.02106
247.02264
247.02434
247.02614
247.028
247.02991
247.03185
247.03382
247.03583
247.03787
247.03994
247.04206
247.04422
247.04643
247.04871
247.05105
247.05348
247.056
247.05861
247.06132
247.06415
247.0671
247.07017
247.07337
247.0767
247.08017
247.08376
247.08749
247.09134
247.09531
247.09941
247.10361
247.10792
247.11233
247.11684
247.12144
247.12612
247.13086
247.13561
247.14026
247.14455
247.1478
247.01168
247.0118
247.01208
247.01256
247.01329
247.01431
247.01567
247.01732
247.01923
247.02131
247.02351
247.02579
247.02813
247.03052
247.03295
247.03543
247.03795
247.04052
247.04315
247.04585
247.04862
247.05146
247.0544
247.05743
247.06057
247.06382
247.0672
247.07071
247.07436
247.07816
247.08212
247.08623
247.0905
247.09494
247.09953
247.10427
247.10917
247.11421
247.11939
247.12471
247.13016
247.13573
247.14141
247.1472
247.15305
247.15889
247.16453
247.16957
247.17293
247.17092
247.14442
246.9923
246.7108
246.31906
245.83165
245.3521
245.04429
244.92786
244.90737
244.9109
244.92104
244.93142
244.93925
244.94444
244.94756
244.94912
244.94985
244.95066
244.94852
244.9474
244.94862
244.95389
244.96459
244.97708
244.98902
244.99978
245.00531
245.00445
244.99904
244.98877
244.97813
244.97004
244.97416
244.995
245.01233
245.01458
245.00415
244.99327
245.00632
245.03868
247.00653
247.00665
247.00691
247.00733
247.00795
247.00879
247.00987
247.01118
247.01267
247.01431
247.01604
247.01785
247.01973
247.02168
247.02368
247.02574
247.02787
247.03006
247.03232
247.03465
247.03706
247.03956
247.04215
247.04484
247.04765
247.05058
247.05364
247.05685
247.06022
247.06374
247.06743
247.0713
247.07534
247.07955
247.08395
247.08852
247.09327
247.09819
247.10328
247.10853
247.11396
247.11955
247.12532
247.13125
247.13732
247.14349
247.14959
247.15527
247.15954
247.15891
247.13503
246.98416
246.68088
246.29293
245.82181
245.3545
245.05557
244.94153
244.9159
244.91723
244.92625
244.93593
244.94281
244.94637
244.94739
244.94535
244.9416
244.93899
244.94006
244.93976
244.93974
244.94301
244.95173
244.96868
244.98585
244.9973
245.00355
245.00342
244.99642
244.98453
244.9731
244.96558
244.97346
244.99356
245.00852
245.00724
244.99378
244.98576
245.00484
245.03617
245.05767
245.05925
245.05116
245.07201
245.09989
245.09143
245.06241
245.09029
245.1194
247.01547
247.01553
247.01566
247.0159
247.01627
247.0168
247.01752
247.01843
247.0195
247.02071
247.02203
247.02343
247.0249
247.02644
247.02805
247.02971
247.03143
247.03322
247.03507
247.03699
247.03899
247.04107
247.04324
247.0455
247.04787
247.05035
247.05294
247.05564
247.05848
247.06144
247.06454
247.06778
247.07116
247.07469
247.07836
247.08217
247.08612
247.09021
247.09443
247.09878
247.10327
247.10789
247.11266
247.11757
247.12264
247.12784
247.13313
247.13834
247.14301
247.14536
247.13399
247.03573
246.7305
246.31208
245.83175
245.37821
245.07887
244.94461
244.91537
244.91645
244.92567
244.93589
244.94349
244.94821
244.94959
244.94716
244.9432
244.93922
244.93695
244.9349
244.93398
244.93627
244.94413
244.96089
244.98009
244.99416
245.00157
245.00016
244.99254
244.98151
244.96851
244.96265
244.97401
244.99408
245.00581
245.00037
244.98509
244.98241
245.0053
245.03466
245.05213
245.05063
245.04569
245.0713
245.09496
245.08268
245.05933
245.09436
245.11642
245.09533
245.12181
245.16
245.15419
245.1829
247.02001
247.02014
247.02045
247.02097
247.02174
247.02281
247.02421
247.0259
247.02783
247.02991
247.0321
247.03435
247.03665
247.03899
247.04135
247.04374
247.04616
247.04862
247.05112
247.05366
247.05624
247.05888
247.06157
247.06434
247.06717
247.0701
247.07312
247.07624
247.07946
247.0828
247.08626
247.08983
247.09351
247.09731
247.10123
247.10525
247.10937
247.11359
247.11789
247.12229
247.12676
247.13132
247.13595
247.14066
247.14545
247.15028
247.15511
247.15977
247.16385
247.16591
247.15772
247.0736
246.84628
246.44961
245.93035
245.43651
245.08759
244.93719
244.90333
244.90472
244.91525
244.9277
244.93731
244.94346
244.94605
244.94483
244.94219
244.93894
244.93453
244.93033
244.9291
244.93206
244.94199
244.95664
244.97307
244.98943
244.99887
244.99668
244.98783
244.97548
244.96312
244.96143
244.97495
244.9945
245.0031
244.99406
244.97894
244.98235
245.00649
245.03415
245.0463
245.04132
245.04141
245.06949
245.08888
245.07325
245.05856
245.09893
245.11182
245.08616
245.12385
245.15675
245.15241
245.18761
245.19488
245.21276
245.25765
247.01097
247.01116
247.01157
247.01226
247.01327
247.01467
247.01647
247.01863
247.02108
247.02371
247.02646
247.02929
247.03216
247.03507
247.03801
247.04098
247.04399
247.04703
247.05012
247.05325
247.05646
247.05974
247.06312
247.0666
247.0702
247.07392
247.07777
247.08177
247.08592
247.09023
247.0947
247.09933
247.10414
247.10911
247.11424
247.11954
247.12498
247.13057
247.1363
247.14216
247.14814
247.15423
247.16043
247.16671
247.17305
247.17935
247.18544
247.19091
247.19473
247.19333
247.16882
247.03647
246.81612
246.46551
245.9757
245.45679
245.08498
244.92175
244.88197
244.88265
244.89237
244.90525
244.91674
244.92554
244.93007
244.93158
244.9325
244.93129
244.92674
244.92205
244.92113
244.9245
244.93606
244.95195
244.96877
244.98384
244.99271
244.99155
244.98265
244.96851
244.95763
244.96138
244.97677
244.99518
245.0007
244.98875
244.97529
244.98283
245.00874
245.03395
245.03955
245.03256
245.03856
245.06769
245.08293
245.06417
245.06
245.10184
245.10487
245.0789
245.12516
245.15119
245.15149
245.19117
245.19245
245.21447
245.25101
245.29116
245.32977
245.34856
246.9983
246.99842
246.99867
246.99911
246.99975
247.00064
247.00181
247.00324
247.0049
247.00672
247.00868
247.01074
247.01289
247.01513
247.01744
247.01983
247.02229
247.02484
247.02747
247.0302
247.03302
247.03594
247.03897
247.04212
247.04541
247.04883
247.05241
247.05615
247.06007
247.06417
247.06845
247.07294
247.07762
247.08251
247.0876
247.09289
247.09838
247.10406
247.10993
247.11599
247.12223
247.12866
247.13525
247.14202
247.14891
247.15586
247.16266
247.16885
247.17324
247.17154
247.14166
246.9677
246.70139
246.39148
245.94789
245.448
245.08326
244.92709
244.88819
244.88715
244.89432
244.90448
244.91302
244.91912
244.92145
244.92151
244.91978
244.91633
244.91568
244.91369
244.9133
244.91731
244.92813
244.94425
244.96295
244.97896
244.98622
244.9848
244.97604
244.9625
244.95416
244.95997
244.97731
244.99465
244.99655
244.98282
244.97213
244.98312
245.01107
245.03264
245.03162
245.02439
245.03529
245.06628
245.07682
245.05657
245.06389
245.10261
245.09654
245.07493
245.12599
245.14336
245.15123
245.1934
245.19023
245.21717
245.24529
245.2879
245.32449
245.34662
245.36389
245.38774
245.4146
247.00188
247.00194
247.00207
247.0023
247.00265
247.00315
247.00383
247.00469
247.00571
247.00685
247.00809
247.00941
247.01079
247.01224
247.01374
247.0153
247.01691
247.01859
247.02034
247.02215
247.02403
247.026
247.02805
247.0302
247.03246
247.03482
247.03731
247.03992
247.04268
247.04557
247.04862
247.05182
247.05518
247.05871
247.06239
247.06624
247.07025
247.07443
247.07876
247.08325
247.0879
247.09272
247.09769
247.10283
247.10813
247.11353
247.11894
247.12407
247.12812
247.12817
247.10794
246.96815
246.6636
246.31391
245.89808
245.44341
245.10785
244.95216
244.90637
244.90106
244.9043
244.90991
244.9159
244.92122
244.9236
244.92321
244.9192
244.91246
244.90806
244.9063
244.90668
244.91417
244.92629
244.93944
244.95572
244.97159
244.97956
244.9777
244.96695
244.95405
244.94955
244.95818
244.97782
244.99335
244.99211
244.97739
244.9697
244.98391
245.01358
245.02947
245.02317
245.01567
245.03247
245.06511
245.07028
245.05148
245.0695
245.10313
245.08767
245.07378
245.1248
245.13353
245.15115
245.19281
245.18993
245.22003
245.2405
245.28469
245.31837
245.34364
245.35923
245.38197
245.40734
245.42848
245.48145
247.00762
247.00772
247.00795
247.00834
247.00892
247.00973
247.01078
247.01206
247.01353
247.01512
247.01681
247.01856
247.02035
247.02218
247.02404
247.02592
247.02784
247.02978
247.03176
247.03378
247.03585
247.03798
247.04017
247.04243
247.04477
247.04719
247.04971
247.05234
247.05507
247.05791
247.06087
247.06396
247.06717
247.0705
247.07396
247.07754
247.08124
247.08505
247.08898
247.09301
247.09716
247.10141
247.10578
247.11025
247.11481
247.11944
247.12405
247.1284
247.13189
247.13224
247.11666
247.00807
246.73572
246.36173
245.92557
245.47206
245.12496
244.95057
244.90256
244.89702
244.90018
244.90543
244.91126
244.91691
244.9204
244.92129
244.91807
244.91155
244.90426
244.90002
244.90237
244.91255
244.92577
244.93934
244.95218
244.96367
244.97062
244.9679
244.95644
244.94469
244.94359
244.9562
244.97692
244.99024
244.98595
244.97193
244.96717
244.98459
245.0139
245.02425
245.01411
245.00477
245.0313
245.06322
245.06317
245.04905
245.07623
245.10335
245.07881
245.07548
245.12262
245.12275
245.15106
245.19064
245.1903
245.22262
245.23681
245.28173
245.3124
245.34046
245.35605
245.37757
245.40151
245.4215
245.47691
245.52904
245.53601
247.00146
247.00161
247.00194
247.00251
247.00335
247.0045
247.00598
247.00777
247.00979
247.01197
247.01424
247.01658
247.01895
247.02136
247.02379
247.02626
247.02877
247.03133
247.03394
247.03661
247.03934
247.04214
247.04502
247.04798
247.05105
247.05421
247.0575
247.0609
247.06443
247.0681
247.07191
247.07586
247.07995
247.08418
247.08856
247.09307
247.09771
247.10247
247.10736
247.11236
247.11747
247.12268
247.12799
247.13339
247.13887
247.14435
247.14971
247.15464
247.15833
247.15785
247.13753
247.00728
246.76296
246.42379
245.97916
245.4946
245.12273
244.93984
244.88807
244.88238
244.88518
244.88992
244.89563
244.90193
244.90707
244.90913
244.90686
244.90295
244.8969
244.89336
244.89861
244.90919
244.92232
244.93753
244.94996
244.95758
244.96039
244.95547
244.94428
244.93552
244.93636
244.95226
244.97458
244.98535
244.97891
244.9663
244.96438
244.98572
245.01358
245.01838
245.00412
244.99508
245.03074
245.05958
245.05535
245.04736
245.08228
245.10254
245.07139
245.08054
245.11974
245.11135
245.151
245.18586
245.19116
245.22378
245.23453
245.27874
245.30703
245.33635
245.35268
245.37277
245.39449
245.4134
245.47142
245.5241
245.53121
245.55728
246.98952
246.98965
246.98995
246.99045
246.9912
246.99223
246.99356
246.99519
246.99705
246.99907
247.00122
247.00345
247.00575
247.0081
247.01049
247.01294
247.01543
247.01797
247.02055
247.0232
247.02591
247.0287
247.03157
247.03454
247.03761
247.04079
247.0441
247.04753
247.05111
247.05484
247.05872
247.06277
247.06697
247.07134
247.07587
247.08056
247.08542
247.09043
247.09559
247.1009
247.10636
247.11198
247.11774
247.12365
247.1297
247.13584
247.14195
247.14771
247.15232
247.15275
247.13274
247.00526
246.74905
246.40824
245.97353
245.49549
245.12254
244.94123
244.88488
244.87658
244.87777
244.88045
244.88296
244.886
244.88869
244.8879
244.88422
244.88274
244.88182
244.88584
244.89392
244.90415
244.91694
244.93146
244.94376
244.95111
244.94953
244.9402
244.92962
244.92538
244.93004
244.94845
244.97034
244.97848
244.97143
244.9599
244.96087
244.98671
245.01227
245.01256
244.99277
244.9902
245.0312
245.05487
245.04726
245.04614
245.0867
245.09963
245.06535
245.08801
245.11703
245.10295
245.15043
245.17862
245.19254
245.22373
245.23394
245.27563
245.30257
245.33176
245.34961
245.36867
245.38848
245.40645
245.46653
245.51983
245.5274
245.55663
245.56288
245.59048
246.98836
246.98846
246.9887
246.98911
246.98972
246.99056
246.99167
246.99302
246.99457
246.99627
246.99807
246.99994
247.00187
247.00385
247.00586
247.00792
247.01002
247.01216
247.01436
247.01661
247.01892
247.0213
247.02376
247.0263
247.02893
247.03167
247.03452
247.03748
247.04058
247.0438
247.04716
247.05067
247.05432
247.05812
247.06206
247.06615
247.07037
247.07474
247.07925
247.08389
247.08866
247.09358
247.09864
247.10385
247.1092
247.11468
247.12022
247.12564
247.13041
247.13254
247.12043
247.02256
246.78344
246.42966
245.98682
245.51355
245.13967
244.94123
244.88158
244.87196
244.87309
244.87556
244.87675
244.87744
244.87729
244.87459
244.87223
244.8723
244.87291
244.87945
244.88831
244.89962
244.91316
244.92579
244.93612
244.94032
244.93601
244.92463
244.91502
244.91227
244.92176
244.94375
244.96438
244.97047
244.9633
244.95192
244.95684
244.98568
245.00896
245.00506
244.97942
244.9875
245.03066
245.04969
245.03883
245.0452
245.08885
245.09379
245.06462
245.09616
245.11466
245.0982
245.14927
245.17017
245.19388
245.2223
245.23445
245.27268
245.29871
245.32661
245.34577
245.36385
245.38129
245.399
245.461
245.51464
245.52291
245.55664
245.56318
245.58728
245.50453
246.98635
246.98649
246.98681
246.98735
246.98815
246.98927
246.99071
246.99245
246.99443
246.99658
246.99882
247.00114
247.0035
247.0059
247.00832
247.01078
247.01327
247.0158
247.01837
247.02098
247.02365
247.02638
247.02919
247.03207
247.03504
247.03812
247.0413
247.04459
247.04801
247.05155
247.05523
247.05905
247.063
247.06708
247.07129
247.07562
247.08007
247.08464
247.0893
247.09408
247.09895
247.10392
247.10898
247.11414
247.11938
247.12466
247.1299
247.13486
247.13898
247.14005
247.12549
247.02006
246.80887
246.49027
246.05084
245.55463
245.1433
244.9334
244.8702
244.85999
244.86139
244.86439
244.86535
244.86488
244.86322
244.86171
244.86334
244.86597
244.86883
244.87436
244.88209
244.8944
244.90809
244.92048
244.92829
244.92683
244.91886
244.90859
244.90003
244.89709
244.91182
244.93713
244.95718
244.96196
244.95328
244.94283
244.953
244.98405
245.00461
244.99674
244.96945
244.98665
245.0301
245.04489
245.02999
245.04463
245.08784
245.08559
245.06521
245.10339
245.11182
245.09901
245.14824
245.1617
245.19489
245.21925
245.23577
245.26931
245.29527
245.32077
245.34143
245.35951
245.37561
245.39351
245.4569
245.51025
245.51918
245.55596
245.56351
245.58442
245.50376
245.6031
246.96977
246.96997
246.97042
246.97116
246.97226
246.97375
246.97566
246.97795
246.98053
246.9833
246.98617
246.9891
246.99206
246.99504
246.99804
247.00106
247.00409
247.00716
247.01025
247.01339
247.01658
247.01983
247.02315
247.02656
247.03006
247.03367
247.03739
247.04123
247.04521
247.04933
247.0536
247.05802
247.06259
247.06732
247.07221
247.07728
247.0825
247.08789
247.09343
247.09911
247.10494
247.1109
247.117
247.12322
247.12953
247.13586
247.14203
247.14764
247.15165
247.15029
247.12463
246.97691
246.75555
246.46251
246.0487
245.56061
245.14125
244.91943
244.8496
244.83939
244.84154
244.84638
244.84867
244.84739
244.84345
244.84243
244.84581
244.85082
244.85902
244.86718
244.87608
244.88871
244.90148
244.91273
244.91827
244.91407
244.90317
244.89105
244.88144
244.88319
244.90168
244.92702
244.94691
244.95098
244.94125
244.93344
244.94931
244.98101
244.99858
244.98666
244.96212
244.98607
245.02936
245.0389
245.02015
245.04454
245.08493
245.07557
245.06648
245.10831
245.10706
245.10221
245.14714
245.15431
245.19469
245.21504
245.237
245.26596
245.29215
245.31524
245.33674
245.35514
245.36994
245.3883
245.45228
245.50517
245.51485
245.55572
245.56283
245.58097
245.50329
245.6027
245.60564
245.57185
246.95604
246.95616
246.95641
246.95684
246.95747
246.95836
246.95952
246.96094
246.96258
246.96439
246.96631
246.96833
246.97042
246.97258
246.97479
246.97707
246.97941
246.98181
246.98428
246.98683
246.98945
246.99217
246.99499
246.99792
247.00097
247.00416
247.00748
247.01097
247.01462
247.01844
247.02245
247.02665
247.03105
247.03564
247.04043
247.04542
247.0506
247.05597
247.06153
247.06729
247.07324
247.07939
247.08574
247.09229
247.09902
247.10587
247.11269
247.11909
247.12401
247.12347
247.09571
246.94115
246.68254
246.37788
246.00241
245.54305
245.13384
244.92111
244.85012
244.83905
244.8399
244.84313
244.84395
244.84159
244.83729
244.83651
244.83831
244.84187
244.84969
244.85901
244.87049
244.88278
244.89422
244.90253
244.90499
244.89947
244.88767
244.87273
244.8635
244.87057
244.89176
244.91759
244.93648
244.9381
244.92744
244.92429
244.94507
244.97697
244.99133
244.97596
244.95675
244.98639
245.02824
245.03127
245.01131
245.04336
245.07901
245.06464
245.0686
245.11165
245.09992
245.10738
245.14588
245.14973
245.19412
245.20988
245.23797
245.26284
245.28906
245.30993
245.33212
245.35142
245.36605
245.38462
245.44868
245.50036
245.51095
245.55479
245.56207
245.57892
245.50385
245.60198
245.60553
245.56793
245.75666
246.956
246.95609
246.95629
246.95662
246.95713
246.95784
246.95876
246.95989
246.96119
246.96261
246.96412
246.96569
246.96731
246.96896
246.97066
246.97239
246.97416
246.97596
246.97781
246.97971
246.98167
246.98368
246.98577
246.98793
246.99017
246.99251
246.99495
246.9975
247.00017
247.00296
247.00589
247.00895
247.01215
247.01549
247.01898
247.02263
247.02642
247.03036
247.03445
247.0387
247.04311
247.0477
247.05247
247.05744
247.06262
247.06803
247.07363
247.07933
247.08476
247.08846
247.08032
246.97482
246.70458
246.36264
245.9697
245.53203
245.15409
244.935
244.85618
244.84131
244.84058
244.84198
244.84092
244.83773
244.83414
244.83427
244.83617
244.83875
244.84433
244.85352
244.86608
244.87733
244.88735
244.89319
244.89142
244.88363
244.87081
244.85552
244.84897
244.85809
244.88147
244.90804
244.92519
244.92386
244.91324
244.91569
244.94025
244.97204
244.98306
244.96503
244.95311
244.98779
245.02576
245.02174
245.00304
245.04022
245.07039
245.05285
245.07171
245.11111
245.09141
245.11299
245.1439
245.14776
245.19245
245.20525
245.23751
245.25978
245.28655
245.30542
245.32737
245.34744
245.36188
245.38082
245.44413
245.49474
245.50637
245.55377
245.56038
245.57596
245.50487
245.6007
245.60484
245.56404
245.75518
245.57378
246.96003
246.96015
246.96043
246.96091
246.96162
246.96262
246.96392
246.9655
246.96731
246.96927
246.97132
246.97343
246.97556
246.97771
246.97988
246.98205
246.98424
246.98645
246.98868
246.99094
246.99323
246.99557
246.99796
247.00041
247.00292
247.0055
247.00817
247.01092
247.01376
247.01669
247.01973
247.02286
247.0261
247.02944
247.03287
247.03641
247.04003
247.04375
247.04756
247.05146
247.05545
247.05955
247.06377
247.06811
247.07262
247.0773
247.08218
247.08726
247.09251
247.09764
247.09917
247.05669
246.8589
246.48703
246.03558
245.56896
245.17538
244.92648
244.84431
244.82936
244.82916
244.83087
244.83045
244.82843
244.82694
244.82823
244.83067
244.83411
244.84019
244.84955
244.86109
244.87086
244.87965
244.88404
244.8797
244.86819
244.85279
244.83862
244.83646
244.84956
244.87353
244.89884
244.91216
244.9084
244.90066
244.90768
244.93545
244.96622
244.97302
244.95396
244.95126
244.99103
245.02189
245.0109
244.995
245.03569
245.06001
245.04187
245.075
245.10867
245.08597
245.11745
245.14019
245.1482
245.18989
245.20192
245.23598
245.2574
245.28451
245.30158
245.32272
245.34391
245.35877
245.37782
245.44024
245.48927
245.50222
245.55231
245.55869
245.57551
245.50675
245.59935
245.60341
245.56019
245.75384
245.57462
245.57235
246.95242
246.95263
246.95311
246.9539
246.95507
246.95668
246.95874
246.96121
246.96399
246.96697
246.97006
246.97321
246.97641
246.97964
246.98289
246.98617
246.98946
246.99279
246.99615
246.99955
247.003
247.00651
247.01009
247.01375
247.01751
247.02136
247.02532
247.02941
247.03361
247.03795
247.04241
247.04701
247.05175
247.05661
247.0616
247.0667
247.07192
247.07723
247.08265
247.08816
247.09375
247.09944
247.10522
247.11111
247.1171
247.1232
247.12933
247.13538
247.14101
247.1446
247.13407
247.05084
246.90023
246.62397
246.17967
245.64887
245.17926
244.90293
244.8034
244.78524
244.78853
244.79559
244.80123
244.80464
244.80837
244.81232
244.81596
244.82173
244.8306
244.84212
244.85217
244.86137
244.86899
244.87016
244.86557
244.85451
244.83692
244.82469
244.82761
244.84302
244.86687
244.89043
244.89847
244.89322
244.88844
244.90012
244.93121
244.96005
244.96154
244.94333
244.95165
244.9938
245.01674
244.99932
244.98817
245.03036
245.04786
245.03265
245.07787
245.10328
245.08346
245.12007
245.13409
245.14976
245.18684
245.19943
245.23341
245.25541
245.28277
245.29825
245.31763
245.33939
245.35482
245.37432
245.4353
245.48303
245.49773
245.55072
245.55602
245.5751
245.50919
245.59789
245.60145
245.55629
245.75239
245.57552
245.57078
245.697
246.92671
246.92693
246.92742
246.92823
246.92942
246.93105
246.93314
246.93567
246.93853
246.94163
246.94486
246.94819
246.95158
246.955
246.95846
246.96194
246.96545
246.96901
246.97262
246.97628
246.98001
246.98382
246.98772
246.99174
246.99588
247.00015
247.00457
247.00915
247.01391
247.01885
247.02398
247.02931
247.03484
247.04058
247.04651
247.05265
247.05898
247.0655
247.0722
247.07908
247.08613
247.09335
247.10075
247.10831
247.11602
247.12381
247.13159
247.13897
247.1449
247.14561
247.12202
246.97715
246.80181
246.56516
246.17058
245.65934
245.17646
244.87993
244.76458
244.7402
244.74248
244.75096
244.76115
244.77315
244.78372
244.79016
244.79382
244.80056
244.81193
244.82538
244.83632
244.84811
244.85653
244.85453
244.84778
244.83601
244.82282
244.81563
244.82096
244.8371
244.86196
244.88223
244.88457
244.87797
244.87676
244.89339
244.92765
244.95229
244.94836
244.9339
244.95361
244.99486
245.01015
244.98629
244.98241
245.02422
245.03438
245.026
245.07717
245.09451
245.08154
245.12084
245.12643
245.15138
245.18332
245.1981
245.22983
245.25356
245.28137
245.2952
245.31234
245.33488
245.35143
245.37161
245.4313
245.47749
245.49387
245.54886
245.55333
245.57572
245.51268
245.5966
245.59925
245.55251
245.75105
245.57627
245.56925
245.69845
245.52851
246.9151
246.9152
246.91543
246.91582
246.9164
246.91721
246.91827
246.91957
246.92107
246.92273
246.92449
246.92633
246.92824
246.93021
246.93223
246.93431
246.93644
246.93863
246.94088
246.94321
246.94562
246.94812
246.95071
246.95342
246.95625
246.95921
246.96233
246.9656
246.96904
246.97267
246.9765
246.98053
246.98478
246.98926
246.99396
246.99891
247.0041
247.00955
247.01525
247.02121
247.02745
247.03397
247.04079
247.04793
247.05538
247.0631
247.07095
247.07862
247.08519
247.08719
247.06513
246.93372
246.70304
246.43401
246.09181
245.63218
245.16658
244.88539
244.76922
244.74348
244.74284
244.74835
244.75548
244.76513
244.77371
244.77778
244.77966
244.78366
244.79255
244.80509
244.8196
244.83428
244.84317
244.84228
244.83485
244.82012
244.80773
244.80741
244.81549
244.8358
244.85991
244.87296
244.87116
244.86362
244.86489
244.88806
244.92426
244.94302
244.93457
244.92612
244.95567
244.99462
245.00181
244.97272
244.9793
245.01799
245.02037
245.02133
245.07436
245.08307
245.0807
245.1195
245.11825
245.15208
245.17998
245.19761
245.22534
245.25177
245.2797
245.29183
245.30658
245.32957
245.34767
245.36869
245.42689
245.47141
245.48993
245.54675
245.54957
245.57652
245.51715
245.5954
245.59694
245.54869
245.7495
245.57709
245.56775
245.6996
245.52802
245.67269
246.91801
246.91809
246.91828
246.91861
246.9191
246.91979
246.9207
246.92182
246.92312
246.92455
246.92607
246.92765
246.92929
246.93096
246.93267
246.93442
246.93619
246.938
246.93985
246.94174
246.94368
246.94567
246.94772
246.94984
246.95204
246.95431
246.95669
246.95915
246.96173
246.96442
246.96722
246.97014
246.9732
246.97637
246.97968
246.98312
246.98669
246.99039
246.99423
246.99821
247.00234
247.00662
247.01109
247.01576
247.02067
247.02585
247.03132
247.03708
247.04309
247.04885
247.04912
246.97405
246.7376
246.42093
246.04852
245.60992
245.17746
244.90528
244.78144
244.75087
244.7463
244.74956
244.75472
244.76085
244.76611
244.76764
244.76942
244.77335
244.77947
244.78885
244.80627
244.82202
244.83048
244.83196
244.82501
244.8109
244.79911
244.79929
244.81218
244.8366
244.85801
244.86361
244.85774
244.84936
244.85434
244.88419
244.91975
244.9316
244.92058
244.91923
244.9571
244.99331
244.99188
244.96066
244.97733
245.0109
245.0056
245.0177
245.06931
245.06997
245.08175
245.11569
245.1114
245.15173
245.17668
245.19743
245.22114
245.24954
245.27787
245.28858
245.30113
245.32487
245.34503
245.36708
245.42323
245.46637
245.48657
245.54437
245.54546
245.57828
245.52233
245.59438
245.59498
245.54518
245.74797
245.57782
245.56628
245.70096
245.5277
245.66991
246.92178
246.92193
246.92226
246.92282
246.92365
246.92481
246.92632
246.92815
246.93024
246.93249
246.93485
246.93727
246.93972
246.94219
246.94467
246.94716
246.94966
246.95216
246.95468
246.95722
246.95979
246.96239
246.96503
246.96773
246.97048
246.9733
246.97618
246.97915
246.98219
246.98532
246.98854
246.99185
246.99525
246.99873
247.0023
247.00594
247.00967
247.01346
247.01733
247.02127
247.02529
247.02939
247.0336
247.03792
247.04241
247.04709
247.05203
247.0573
247.06309
247.06976
247.07617
247.04155
246.88759
246.57118
246.1389
245.65797
245.21154
244.89895
244.77255
244.74221
244.73847
244.74201
244.74655
244.74998
244.7525
244.75243
244.7546
244.75995
244.76747
244.77831
244.7967
244.81173
244.81994
244.82076
244.81363
244.8015
244.79386
244.79481
244.81174
244.83774
244.85532
244.85651
244.8459
244.83606
244.84578
244.88069
244.91352
244.91848
244.90633
244.91323
244.95782
244.9905
244.97966
244.9517
244.97721
245.00365
244.99143
245.01485
245.06205
245.05617
245.08176
245.1098
245.10692
245.14976
245.17311
245.19766
245.21753
245.24651
245.27591
245.28562
245.29584
245.32007
245.34221
245.36527
245.41939
245.4606
245.48297
245.54122
245.5404
245.58018
245.52815
245.59324
245.59294
245.54165
245.74621
245.57855
245.5648
245.70205
245.52728
245.66712
245.68037
246.91155
246.91178
246.91228
246.91311
246.91435
246.91604
246.91822
246.92084
246.92379
246.92695
246.93023
246.93358
246.93696
246.94035
246.94375
246.94716
246.9506
246.95407
246.95758
246.96114
246.96476
246.96844
246.97221
246.97607
246.98003
246.98411
246.98831
246.99265
246.99713
247.00175
247.00653
247.01145
247.01653
247.02176
247.02713
247.03264
247.03828
247.04404
247.04992
247.05591
247.06201
247.06823
247.07456
247.08102
247.08762
247.09435
247.10117
247.10795
247.11426
247.1182
247.10536
247.0178
246.89194
246.67451
246.286
245.7569
245.23855
244.8872
244.73957
244.70325
244.70248
244.70871
244.71623
244.7204
244.72251
244.72374
244.72887
244.73845
244.75144
244.76737
244.78494
244.79938
244.81024
244.80851
244.79958
244.78946
244.78721
244.79346
244.81286
244.83764
244.85232
244.85003
244.83576
244.82506
244.84051
244.878
244.90597
244.90503
244.89138
244.90711
244.95773
244.9853
244.96558
244.94661
244.97776
244.99606