/*--------------------------------*- C++ -*----------------------------------*\
| =========                 |                                                 |
| \\      /  F ield         | OpenFOAM: The Open Source CFD Toolbox           |
|  \\    /   O peration     | Version:  2506                                  |
|   \\  /    A nd           | Website:  www.openfoam.com                      |
|    \\/     M anipulation  |                                                 |
\*---------------------------------------------------------------------------*/
FoamFile
{
    version     2.0;
    format      ascii;
    arch        "LSB;label=32;scalar=64";
    class       surfaceScalarField;
    location    "0.017";
    object      phi;
}
// * * * * * * * * * * * * * * * * * * * * * * * * * * * * * * * * * * * * * //

dimensions      [1 0 -1 0 0 0 0];

oriented        oriented;

internalField   nonuniform List<scalar> 
27187
(
0.016105523
-3.5255201
0.016889047
-3.703058
0.017711671
3.892375
-3.8931903
0.018577567
4.0955582
-4.0964195
0.019507601
4.3129893
-4.3138998
0.020511861
4.5483976
-4.5493497
0.021547171
4.8039745
-4.8049745
0.022554802
5.0708144
-5.0718772
0.02355303
5.3399045
-5.3410135
0.024611236
5.6151607
-5.6163168
0.025775531
5.9062175
-5.9074374
0.027054024
6.2200176
-6.221307
0.028436249
6.5609093
-6.5622658
6.9312721
0.029898456
-6.9326916
0.018601828
0.019510698
4.0946542
0.020486866
4.3120335
0.02154096
4.5473982
0.022627722
4.8029247
0.023685207
5.0696988
0.024732878
5.3387405
0.025843588
5.6139472
0.02706568
5.904937
0.028407654
6.2186642
0.02985849
6.5594856
6.9297821
0.031393337
0.020491206
0.021515809
0.022622198
4.5463493
0.023762879
4.8018228
0.024872704
5.068528
0.02597221
5.3375188
0.027138038
5.6126734
0.028420762
5.9035929
0.029829306
6.2172436
0.031352122
6.5579912
6.9282182
0.032963169
0.023757354
0.024954664
0.026119371
5.0672992
0.027273258
5.3362366
0.028496879
5.6113364
0.029843263
5.9021821
0.031321685
6.2157526
0.032920031
6.5564227
6.9265766
0.034611053
0.027428927
0.028639899
0.029924211
5.609933
0.031337381
5.9007013
0.032889124
6.2141876
0.034566765
6.5547765
6.9248536
0.03634169
0.031423277
0.032906526
0.034535193
0.036296013
6.5530486
6.9230451
0.03815903
0.038111266
1.4503615
0.041648491
-1.4621021
1.438396
0.043368683
1.4262016
0.045167869
1.4137742
0.047049178
1.4011098
0.049017402
1.5650763
0.054517758
-1.577932
1.5519744
0.056484731
1.5386219
0.058535064
1.5250144
0.060672019
1.6891512
0.068617918
-1.7032326
1.6748
0.070855205
1.6601745
0.073180681
0.075597663
1.8232336
0.084074406
-1.838666
1.8075057
0.086607956
1.7914771
0.089234995
1.9681371
0.10102372
-1.9850576
1.9508927
0.10388208
0.10683975
2.1247093
0.11961618
-2.1432698
2.1057935
0.12283082
2.293872
0.14001763
-2.3142403
0.14362309
2.4766262
0.16241142
-2.4989881
0.16644578
2.6740513
0.18700103
-2.6986126
0.19150624
2.8873066
0.21401262
-2.914295
0.21903491
3.1176376
0.24369839
-3.147306
0.27633997
-3.399013
0.31225001
-3.6708932
0.35177745
-3.9645456
0.39531018
-4.2817018
0.44327902
-4.624235
0.49616385
-4.9941729
0.55449839
-5.3937067
0.61887715
-5.8252032
0.68996312
-6.2912194
0.76849526
-6.7945171
0.85529775
-7.3380783
0.95129087
-7.9251246
-8.5591345
-1.4697222
0.031047769
-0.023420439
-1.4774865
0.032363187
-0.024591434
-1.4853974
0.033739825
-0.025821182
-1.4934573
0.035180101
-0.027112061
-1.5016687
0.036687779
-0.028467794
-1.5100343
0.038265908
-0.02989141
-1.5185566
0.039917407
-0.031385804
-1.5272382
0.04164645
-0.032955109
-1.5360818
0.043456647
-0.034602948
-1.5450899
0.045351728
-0.036332953
-1.5542653
0.047336272
-0.038149756
-1.5636107
0.049414331
-0.040057327
-1.5731288
0.051590357
-0.042060137
-1.5828223
0.053869519
-0.044163313
-1.592694
0.056256727
-0.046371718
-1.6027467
0.058756915
-0.048690307
-1.6129832
0.06137571
-0.051124698
-1.6234062
0.064119374
-0.053681101
-1.6340187
0.066993793
-0.056365374
-1.6448235
0.070005092
-0.059183704
-1.6558234
0.073160139
-0.062142872
-1.6670212
0.076466198
-0.065250158
-1.6784199
0.07993073
-0.068513061
-1.6900222
0.083561003
-0.071938742
-1.7018311
0.087365478
-0.075535775
-1.7138494
0.091353
-0.079312928
-1.7260799
0.095532014
-0.083278684
-1.7385255
0.099912348
-0.087442888
-1.7511891
0.10450382
-0.091815327
-1.7640734
0.10931674
-0.096406383
-1.7771812
0.11436219
-0.1012271
-1.7905153
0.11965141
-0.10628876
-1.8040784
0.12519645
-0.11160347
-1.8178732
0.13101016
-0.11718407
-1.8319025
0.13710566
-0.12304375
-1.8461687
0.14349686
-0.12919645
-1.8606745
0.15019863
-0.13565707
-1.8754224
0.15722578
-0.14244051
-1.8904148
0.16459468
-0.14956318
-1.9056541
0.17232235
-0.15704217
-1.9211426
0.1804265
-0.16489527
-1.9368825
0.18892555
-0.17314095
-1.9528759
0.19783907
-0.18179889
-1.9691248
0.20718774
-0.19088994
-1.9856312
0.2169934
-0.20043592
-2.0023967
0.22727799
-0.21045901
-2.0194232
0.23806569
-0.22098342
-2.0367119
0.24938159
-0.23203445
-2.0542644
0.26125144
-0.24363797
-2.0720818
0.27370292
-0.25582181
-2.090165
0.28676506
-0.2686152
-2.1085149
0.30046806
-0.28204858
-2.1271321
0.31484377
-0.29615389
-2.146017
0.3299254
-0.31096465
-2.1651696
0.34574808
-0.32651619
-2.1845898
0.36234875
-0.34284573
-2.2042773
0.37976581
-0.35999193
-2.2242314
0.39804017
-0.37799596
-2.2444509
0.41721446
-0.39690084
-2.2649346
0.43733302
-0.41675117
-2.2856808
0.45844313
-0.43759462
-2.3066873
0.48059413
-0.4594809
-2.3279516
0.50383782
-0.48246227
-2.3494707
0.52822861
-0.50659348
-2.3712414
0.5538233
-0.53193189
-2.3932595
0.58068203
-0.55853806
-2.4155208
0.60886779
-0.58647558
-2.4380201
0.63844669
-0.61581104
-2.460752
0.66948807
-0.64661444
-2.4837101
0.70206479
-0.67895923
-2.5068876
0.73625357
-0.71292286
-2.5302768
0.77213472
-0.74858632
-2.5538694
0.80979248
-0.78603459
-2.5776561
0.84931559
-0.82535731
-2.601627
0.89079686
-0.86664802
-2.6257712
0.93433387
-0.91000533
-2.6500767
0.98002965
-0.95553317
-2.6745305
1.0279919
-1.0033403
-2.6991188
1.0783338
-1.053541
-2.7238264
1.1311736
-1.1062546
-2.7486369
1.1866365
-1.1616077
-2.7735329
1.2448536
-1.2197324
-2.7984951
1.3059624
-1.2807678
-2.8235034
1.3701066
-1.3448591
-2.8485358
1.4374389
-1.4121604
-2.8735687
1.5081184
-1.4828324
-2.8985771
1.582312
-1.557044
-2.9235338
1.6601957
-1.6349726
-2.9484101
1.7419534
-1.7168044
-2.973175
1.8277797
-1.8027358
-2.9977957
1.917877
-1.8929715
-3.0222368
2.0124594
-1.9877279
-3.0464609
2.1117513
-2.0872316
-3.0704281
2.2159876
-2.1917204
-3.0940955
2.3254153
-2.3014436
-3.117418
2.4402947
-2.4166647
-3.1403473
2.5608979
-2.5376585
-3.1628321
2.6875109
-2.6647142
-3.1848178
2.8204335
-2.7981351
-3.2062468
2.9599813
-2.9382402
-3.2270573
3.1064846
-3.0853636
-3.2471844
3.2602912
-3.2398567
-3.2665591
3.421765
-3.4020876
-3.2851082
3.5912876
-3.5724423
-3.3027543
3.7692609
-3.7513269
-3.3194153
3.9561047
-3.9391661
-3.3350047
4.1522612
-4.1364066
-3.3494311
4.3581921
-4.3435153
-3.3625974
4.574384
-4.5609841
-3.3744018
4.801346
-4.7893273
-3.3847362
5.0396123
-5.0290847
-3.3934869
5.2897431
-5.2808223
-3.400534
5.5523272
-5.5451347
-3.4057507
5.8279818
-5.8226455
-3.4090035
6.1173554
-6.1140095
-3.4101514
6.4211291
-6.4199147
-3.4090456
6.7400175
-6.7410825
-3.4055294
7.0747742
-7.0782742
-3.3994371
7.4261893
-7.432288
-3.3905941
7.7950957
-7.8039654
-3.378816
8.1823694
-8.1941919
-3.3639088
8.5889338
-8.6039012
-3.3456679
9.0157594
-9.0340748
-3.3238781
9.4638691
-9.4857481
-3.2983141
9.9343398
-9.960011
-3.2687399
10.428304
-10.45801
-3.2349094
10.946956
-10.980954
-3.1965669
11.491551
-11.530113
-3.1534474
12.063412
-12.106826
-3.1052772
12.663936
-12.712505
-3.0517731
13.294598
-13.348642
-2.9926425
13.956959
-14.016813
-2.92758
14.652675
-14.718693
-2.8562618
15.383498
-15.456054
-2.7783312
16.151271
-16.230763
-2.693374
16.957906
-17.044759
-2.6008822
17.805323
-17.899997
-2.5002164
18.695375
-18.798356
-2.3905838
19.629798
-19.741591
-2.2710684
20.61025
-20.731376
-2.1408029
21.638506
-21.769508
-1.9993457
22.716784
-22.858254
-1.8457416
23.849498
-24.002007
-1.6825581
25.031512
-25.195875
-1.5038546
26.277355
-26.453752
-1.3168256
27.592982
-27.782116
-1.1126154
28.925476
-29.128517
-0.89901509
30.469254
-30.686235
31.774272
-32.007255
-1.5863089
0.03943486
-1.5948443
0.040909111
-1.6035408
0.042447338
-1.6124013
0.04405197
-1.6214285
0.045726788
-1.6306252
0.047474907
-1.6399943
0.049299225
-1.6495386
0.051203997
-1.659261
0.053192851
-1.6691644
0.055269524
-1.6792519
0.057438624
-1.6895263
0.059704254
-1.6999907
0.062070886
-1.7106481
0.064543699
-1.7215015
0.067127604
-1.732554
0.069827615
-1.7438087
0.072649354
-1.7552687
0.075599087
-1.7669371
0.078682697
-1.778817
0.081906386
-1.7909117
0.085277004
-1.8032241
0.088801804
-1.8157576
0.092488295
-1.8285151
0.096343683
-1.8415
0.10037651
-1.8547153
0.10459555
-1.8681642
0.1090093
-1.8818498
0.11362758
-1.8957753
0.11846013
-1.9099437
0.12351732
-1.9243582
0.12881016
-1.9390217
0.13434988
-1.9539374
0.14014854
-1.9691082
0.14621888
-1.9845371
0.15257405
-2.0002269
0.15922784
-2.0161804
0.16619516
-2.0324005
0.17349068
-2.0488899
0.18113077
-2.0656512
0.18913231
-2.0826869
0.19751298
-2.0999995
0.20629107
-2.1175914
0.21548606
-2.1354647
0.22511859
-2.1536216
0.23521027
-2.1720641
0.24578297
-2.190794
0.25686073
-2.2098131
0.2684685
-2.2291227
0.2806318
-2.2487242
0.29337819
-2.2686188
0.30673649
-2.2888074
0.32073672
-2.3092906
0.33541044
-2.330069
0.35079065
-2.3511426
0.36691225
-2.3725115
0.38381187
-2.3941752
0.40152764
-2.4161329
0.42010009
-2.4383836
0.43957158
-2.4609259
0.45998603
-2.4837579
0.48139036
-2.5068774
0.50383346
-2.5302817
0.52736674
-2.5539676
0.55204407
-2.5779315
0.57792179
-2.602169
0.60505949
-2.6266754
0.63351957
-2.6514454
0.66336757
-2.6764728
0.69467211
-2.7017508
0.7275054
-2.7272722
0.76194343
-2.7530285
0.79806574
-2.7790106
0.83595566
-2.8052088
0.87570118
-2.8316119
0.91739401
-2.8582083
0.96113092
-2.8849849
1.0070137
-2.9119278
1.0551491
-2.9390218
1.105649
-2.9662505
1.1586303
-2.993596
1.2142172
-3.0210393
1.272539
-3.0485597
1.3337319
-3.0761352
1.3979381
-3.1037418
1.4653084
-3.131354
1.5360003
-3.1589444
1.6101788
-3.1864837
1.6880178
-3.2139403
1.7696992
-3.2412809
1.8554153
-3.2684694
1.9453662
-3.2954676
2.0397636
-3.3222347
2.1388291
-3.348727
2.2427949
-3.3748983
2.3519051
-3.400699
2.466417
-3.4260768
2.5865993
-3.4509758
2.7127346
-3.4753366
2.845119
-3.4990964
2.9840646
-3.5221881
3.1298974
-3.544541
3.2829609
-3.5660798
3.4436148
-3.5867248
3.612236
-3.6063917
3.7892216
-3.6249913
3.9749864
-3.642429
4.1699669
-3.6586049
4.3746198
-3.6734136
4.5894259
-3.6867434
4.8148883
-3.6984767
5.051535
-3.7084889
5.2999201
-3.716649
5.5606257
-3.7228183
5.8342622
-3.7268507
6.121471
-3.7285919
6.422926
-3.7278791
6.7393337
-3.7245407
7.0714396
-3.7183955
7.4200249
-3.7092525
7.7859131
-3.6969103
8.1699699
-3.6811569
8.5731074
-3.661769
8.996284
-3.6385127
9.4405096
-3.611142
9.9068465
-3.5794006
10.396413
-3.5430209
10.910386
-3.5017254
11.450005
-3.4552259
12.016577
-3.4032249
12.611481
-3.3454144
13.236174
-3.2814754
13.892199
-3.2110746
14.581193
-3.1338566
15.304883
-3.0494291
16.065087
-2.957334
16.863684
-2.857008
17.70256
-2.7477408
18.583539
-2.6286547
19.508336
-2.4987494
20.478607
-2.3571035
21.496112
-2.2032671
22.563006
-2.0362595
23.683757
-1.8587375
24.852671
-1.6643821
26.085563
-1.4609892
27.387203
-1.2386197
28.704392
-1.0062563
30.233121
31.520606
-1.7124445
0.04866057
-1.7218308
0.050309637
-1.7313943
0.052025635
-1.7411382
0.053811126
-1.7510655
0.055669857
-1.7611792
0.057605003
-1.7714826
0.059619507
-1.7819787
0.061717658
-1.7926708
0.063903075
-1.8035621
0.066179585
-1.8146558
0.068551796
-1.8259552
0.071023836
-1.8374636
0.073600212
-1.8491844
0.076286135
-1.8611209
0.07908655
-1.8732765
0.082006477
-1.8856545
0.085051544
-1.8982585
0.088228098
-1.9110918
0.091541984
-1.9241579
0.094999448
-1.9374603
0.098607331
-1.9510024
0.1023729
-1.9647877
0.10630371
-1.9788197
0.11040695
-1.9931018
0.11469113
-2.0076377
0.11916509
-2.0224307
0.12383729
-2.0374843
0.1287175
-2.0528019
0.13381551
-2.0683871
0.13914166
-2.0842431
0.14470692
-2.1003734
0.15052252
-2.1167813
0.15660043
-2.1334702
0.16295344
-2.1504432
0.16959457
-2.1677037
0.17653765
-2.1852547
0.18379744
-2.2030993
0.19138862
-2.2212405
0.19932744
-2.2396813
0.20763071
-2.2584244
0.21631605
-2.2774727
0.22540164
-2.2968287
0.23490684
-2.3164949
0.24485214
-2.3364737
0.25525909
-2.3567673
0.26614941
-2.3773777
0.27754691
-2.3983069
0.28947643
-2.4195566
0.30196335
-2.4411282
0.31503494
-2.4630231
0.3287199
-2.4852423
0.34304793
-2.5077867
0.35805043
-2.5306567
0.37376009
-2.5538526
0.39021153
-2.5773744
0.40744108
-2.6012217
0.42548655
-2.6253938
0.44438811
-2.6498895
0.46418776
-2.6747074
0.48492901
-2.6998455
0.50665835
-2.7253013
0.52942422
-2.7510721
0.55327753
-2.7771543
0.57827165
-2.8035441
0.60446234
-2.8302369
0.63190862
-2.8572274
0.66067227
-2.8845099
0.69081812
-2.9120778
0.72241412
-2.9399237
0.75553173
-2.9680396
0.7902461
-2.9964165
0.82663591
-3.0250446
0.86478363
-3.053913
0.90477624
-3.0830099
0.94670448
-3.1123224
0.99066397
-3.1418365
1.0367554
-3.171537
1.0850843
-3.2014072
1.1357611
-3.2314294
1.1889017
-3.2615843
1.2446284
-3.291851
1.3030693
-3.3222071
1.3643588
-3.3526285
1.4286374
-3.3830893
1.4960541
-3.4135616
1.5667644
-3.4440156
1.6409313
-3.4744194
1.7187265
-3.5047388
1.8003298
-3.5349372
1.8859308
-3.5649756
1.9757271
-3.5948122
2.0699278
-3.6244027
2.1687515
-3.6536995
2.2724276
-3.6826522
2.3811968
-3.711207
2.4953131
-3.7393068
2.6150416
-3.7668906
2.7406612
-3.7938941
2.8724643
-3.8202485
3.0107583
-3.8458808
3.1558652
-3.8707141
3.3081241
-3.8946661
3.4678894
-3.9176503
3.6355333
-3.9395746
3.8114476
-3.9603414
3.9960414
-3.979848
4.1897457
-3.9979852
4.3930112
-4.0146378
4.6063123
-4.029684
4.8301458
-4.0429951
5.0650331
-4.0544352
5.3115212
-4.0638607
5.5701851
-4.0711201
5.8416277
-4.0760537
6.1264829
-4.0784924
6.4254157
-4.0782585
6.7391246
-4.0751638
7.0683456
-4.0690107
7.4138504
-4.05959
7.7764517
-4.046682
8.157004
-4.0300552
8.5564072
-4.0094661
8.975606
-3.9846595
9.4155961
-3.9553682
9.8774247
-3.9213127
10.362193
-3.8822025
10.871062
-3.8377352
11.405253
-3.7875982
11.966055
-3.7314675
12.554829
-3.669008
13.173011
-3.5998719
13.822126
-3.5236945
14.503785
-3.4400862
15.219691
-3.3486138
15.971632
-3.2487697
16.761451
-3.1399271
17.590998
-3.0212943
18.462064
-2.8918977
19.376345
-2.7506441
20.335497
-2.5965604
21.341279
-2.4292146
22.395794
-2.2475532
23.503555
-2.0544179
24.658085
-1.8429967
25.876979
-1.6217524
27.163246
-1.3795285
28.463591
-1.1266598
29.976047
31.24435
-1.848802
0.058814171
-1.8591298
0.060655647
-1.8696528
0.062567384
-1.8803743
0.064551954
-1.8912977
0.066613154
-1.9024263
0.06875422
-1.9137636
0.070978099
-1.9253132
0.073289132
-1.9370784
0.075690998
-1.9490629
0.078187488
-1.9612703
0.080783345
-1.9737042
0.083482641
-1.9863681
0.086289956
-1.9992659
0.089210534
-2.0124011
0.092249343
-2.0257776
0.095411394
-2.039399
0.098702428
-2.0532691
0.1021287
-2.0673918
0.10569616
-2.0817709
0.10941105
-2.0964101
0.11328024
-2.1113132
0.11731096
-2.1264842
0.12151083
-2.1419269
0.12588701
-2.1576452
0.13044805
-2.1736427
0.13520273
-2.1899235
0.14015957
-2.2064914
0.14532832
-2.2233501
0.15071871
-2.2405034
0.15634109
-2.2579551
0.16220645
-2.275709
0.16832591
-2.2937688
0.1747115
-2.3121381
0.18137588
-2.3308204
0.18833207
-2.3498195
0.19559386
-2.3691387
0.20317587
-2.3887815
0.21109281
-2.4087512
0.2193608
-2.429051
0.2279966
-2.4496841
0.23701766
-2.4706535
0.2464421
-2.4919622
0.25628919
-2.5136129
0.26657927
-2.5356082
0.2773337
-2.5579506
0.28857409
-2.5806424
0.3003241
-2.6036858
0.31260837
-2.6270827
0.32545206
-2.6508348
0.33888227
-2.6749434
0.3529274
-2.69941
0.36761701
-2.7242353
0.38298212
-2.7494201
0.3990552
-2.7749647
0.41587053
-2.8008692
0.43346414
-2.827133
0.45187343
-2.8537556
0.47113826
-2.8807357
0.49130014
-2.9080719
0.51240222
-2.9357619
0.53449044
-2.9638034
0.55761284
-2.992193
0.58181971
-3.0209273
0.6071639
-3.050002
0.63370055
-3.0794121
0.66148806
-3.1091521
0.69058745
-3.1392155
0.7210629
-3.1695955
0.75298156
-3.2002839
0.78641402
-3.2312721
0.82143464
-3.2625503
0.85812105
-3.2941078
0.89655484
-3.3259329
0.93682186
-3.3580127
0.97901177
-3.3903332
1.023219
-3.4228792
1.069543
-3.455634
1.1180879
-3.4885797
1.1689628
-3.5216969
1.222282
-3.5549645
1.2781664
-3.5883599
1.3367422
-3.6218587
1.3981421
-3.6554345
1.4625048
-3.6890592
1.5299772
-3.7227024
1.6007127
-3.7563317
1.6748722
-3.7899122
1.7526248
-3.8234068
1.8341479
-3.8567756
1.9196286
-3.889976
2.0092615
-3.9229627
2.1032529
-3.9556872
2.2018182
-3.9880977
2.3051835
-4.0201394
2.4135861
-4.0517537
2.5272762
-4.0828781
2.6465153
-4.1134466
2.7715779
-4.1433885
2.9027522
-4.1726292
3.0403413
-4.2010894
3.1846624
-4.2286847
3.3360492
-4.2553257
3.4948514
-4.280918
3.6614357
-4.305361
3.8361878
-4.3285487
4.0195111
-4.3503685
4.2118305
-4.3707015
4.4135899
-4.3894219
4.6252571
-4.4063966
4.847322
-4.421485
5.0802985
-4.4345387
5.3247261
-4.4454006
5.5811718
-4.4539054
5.8502305
-4.459878
6.132527
-4.463134
6.4287176
-4.4634787
6.7394911
-4.4607067
7.0655732
-4.4546014
7.4077246
-4.4449348
7.7667465
-4.4314665
8.1434807
-4.4139438
8.5388135
-4.3921014
8.9536753
-4.3656608
9.3890458
-4.3343308
9.8459558
-4.2978074
10.325489
-4.2557743
10.828789
-4.2079028
11.357057
-4.1538527
11.911564
-4.0932716
12.493648
-4.0257946
13.104728
-3.9510422
13.746301
-3.8686157
14.419956
-3.7780865
15.127366
-3.678976
15.870284
-3.5707196
16.650516
-3.4526169
17.469869
-3.3237825
18.330098
-3.1831346
19.232881
-3.0294792
20.179877
-2.8617983
21.172858
-2.6796959
22.21389
-2.4820114
23.307532
-2.2718621
24.446345
-2.0418202
25.650072
-1.8010961
26.91943
-1.5371616
28.201254
-1.2618817
29.696077
30.943401
-1.9962155
0.069992965
-2.0075846
0.072046333
-2.0191687
0.074173603
-2.0309713
0.076377406
-2.0429962
0.078661581
-2.0552472
0.081029395
-2.067728
0.083483871
-2.0804426
0.086029353
-2.0933947
0.088669553
-2.1065883
0.091408362
-2.1200274
0.094250464
-2.1337159
0.097200074
-2.1476578
0.10026175
-2.1618573
0.10344073
-2.1763183
0.10674211
-2.191045
0.11017087
-2.2060416
0.11373276
-2.2213122
0.11743413
-2.236861
0.12128089
-2.2526922
0.12527931
-2.26881
0.12943631
-2.2852186
0.13375914
-2.3019223
0.13825534
-2.3189254
0.14293222
-2.336232
0.14779823
-2.3538465
0.15286218
-2.3717731
0.15813258
-2.390016
0.16361919
-2.4085794
0.16933172
-2.4274675
0.17528049
-2.4466845
0.18147646
-2.4662346
0.18793075
-2.4861217
0.1946553
-2.5063501
0.20166281
-2.5269236
0.20896617
-2.5478462
0.21657914
-2.5691218
0.22451628
-2.5907541
0.23279222
-2.6127469
0.24142297
-2.6351038
0.25042523
-2.6578282
0.25981636
-2.6809235
0.26961432
-2.704393
0.27983826
-2.7282397
0.29050837
-2.7524666
0.30164591
-2.7770766
0.31327228
-2.802072
0.32541094
-2.8274555
0.33808637
-2.853229
0.3513235
-2.8793945
0.36514917
-2.9059538
0.37959159
-2.9329081
0.39467997
-2.9602587
0.41044509
-2.9880062
0.4269191
-3.0161511
0.44413593
-3.0446936
0.46213125
-3.0736332
0.48094208
-3.1029692
0.50060784
-3.1327005
0.52116958
-3.1628254
0.54267003
-3.1933416
0.56515457
-3.2242466
0.58867072
-3.2555369
0.61326816
-3.2872087
0.63899914
-3.3192574
0.66591814
-3.3516775
0.69408282
-3.3844632
0.72355352
-3.4176076
0.75439355
-3.451103
0.78666926
-3.4849408
0.82045029
-3.5191115
0.85581004
-3.5536045
0.89282521
-3.5884083
0.9315762
-3.62351
0.97214774
-3.6588957
1.0146283
-3.6945501
1.059111
-3.7304567
1.1056939
-3.7665974
1.1544797
-3.8029526
1.205576
-3.8395012
1.2590953
-3.8762202
1.3151569
-3.913085
1.3738852
-3.950069
1.4354109
-3.9871436
1.4998706
-4.024278
1.5674091
-4.0614391
1.6381775
-4.0985916
1.7123341
-4.1356977
1.7900457
-4.1727166
1.8714867
-4.2096049
1.9568415
-4.2463163
2.0463017
-4.2828014
2.1400702
-4.3190072
2.2383591
-4.3548775
2.3413909
-4.3903523
2.4493992
-4.4253678
2.5626302
-4.4598561
2.6813411
-4.4937447
2.805802
-4.5269571
2.9362965
-4.5594118
3.0731229
-4.5910219
3.216593
-4.6216958
3.3670355
-4.6513361
3.524794
-4.6798393
3.6902295
-4.7070961
3.8637213
-4.7329907
4.0456668
-4.7574001
4.2364837
-4.7801946
4.4366088
-4.8012368
4.646503
-4.8203814
4.8666479
-4.8374748
5.0975499
-4.8523548
5.3397399
-4.86485
5.5937763
-4.8747792
5.8602447
-4.8819514
6.1397603
-4.8861646
6.4329693
-4.8872063
6.7405497
-4.8848516
7.0632159
-4.878864
7.4017164
-4.868994
7.7568393
-4.8549793
8.1294127
-4.8365439
8.5203077
-4.8133979
8.930439
-4.785238
9.3607696
-4.7517466
9.8123122
-4.7125929
10.286132
-4.6674324
10.783353
-4.6159077
11.305157
-4.5576484
11.852792
-4.4922712
12.427577
-4.4193783
13.030904
-4.3385558
13.664248
-4.2493669
14.329166
-4.1513402
15.0273
-4.0439455
15.760365
-3.926553
16.530121
-3.7983775
17.338331
-3.6584262
18.186712
-3.5054959
19.076919
-3.3382857
20.010618
-3.1557421
20.989603
-2.9575169
22.015918
-2.7423092
23.094194
-2.5136068
24.215896
-2.2632301
25.403132
-2.0012468
26.653913
-1.7135691
27.915413
-1.4137867
29.391075
30.615439
-2.1555584
0.082304736
-2.1680797
0.084591491
-2.1808379
0.086956181
-2.1938368
0.089401486
-2.2070807
0.09193129
-2.2205736
0.094548879
-2.2343199
0.097257372
-2.2483235
0.10006109
-2.262589
0.10296388
-2.2771206
0.10596959
-2.2919226
0.10908301
-2.3069995
0.11230837
-2.3223557
0.11565022
-2.3379956
0.11911394
-2.3539238
0.12270454
-2.3701448
0.12642713
-2.3866633
0.13028746
-2.4034837
0.13429188
-2.4206107
0.13844635
-2.4380489
0.14275718
-2.455803
0.14723126
-2.4738778
0.15187593
-2.4922778
0.15669868
-2.5110077
0.16170683
-2.5300723
0.16690888
-2.5494763
0.17231361
-2.5692243
0.17792955
-2.589321
0.18376639
-2.6097712
0.1898339
-2.6305793
0.19614234
-2.6517501
0.20270265
-2.6732881
0.20952593
-2.6951979
0.21662408
-2.717484
0.22400969
-2.7401507
0.23169568
-2.7632024
0.23969571
-2.7866435
0.24802426
-2.810478
0.2566959
-2.8347103
0.26572656
-2.8593441
0.27513276
-2.8843835
0.28493181
-2.9098321
0.29514154
-2.9356936
0.30578095
-2.9619715
0.31687006
-2.9886689
0.32843
-3.0157891
0.34048192
-3.0433349
0.35304918
-3.071309
0.36615596
-3.0997138
0.37982694
-3.1285515
0.39408881
-3.157824
0.40896941
-3.1875329
0.42449766
-3.2176795
0.44070408
-3.2482646
0.45762041
-3.279289
0.47528026
-3.3107526
0.49371884
-3.3426553
0.5129728
-3.3749964
0.53308109
-3.4077745
0.55408427
-3.440988
0.5760245
-3.4746345
0.5989467
-3.5087112
0.62289768
-3.5432145
0.64792659
-3.5781402
0.6740849
-3.6134834
0.70142645
-3.6492383
0.7300081
-3.6853985
0.75988933
-3.7219565
0.79113262
-3.758904
0.82380338
-3.7962317
0.85797027
-3.8339294
0.89370563
-3.8719854
0.93108505
-3.9103872
0.97018771
-3.949121
1.0110972
-3.9881715
1.0539005
-4.0275222
1.0986894
-4.067155
1.1455604
-4.1070501
1.1946147
-4.1471865
1.2459583
-4.1875409
1.2997017
-4.2280884
1.3559624
-4.2688022
1.4148627
-4.3096533
1.4765314
-4.3506104
1.5411028
-4.39164
1.6087191
-4.4327062
1.6795292
-4.4737703
1.7536886
-4.5147911
1.8313612
-4.5557242
1.9127187
-4.5965223
1.997942
-4.6371348
2.0872198
-4.6775079
2.1807512
-4.7175838
2.2787447
-4.7573013
2.381419
-4.7965948
2.4890034
-4.8353948
2.60174
-4.8736271
2.7198811
-4.911213
2.8436926
-4.9480689
2.9734525
-4.9841054
3.1094538
-5.0192285
3.2520032
-5.0533377
3.401423
-5.0863269
3.5580511
-5.1180832
3.7222418
-5.1484871
3.8943677
-5.1774123
4.0748193
-5.2047247
4.2640067
-5.2302825
4.4623592
-5.2539355
4.6703294
-5.2755253
4.8883908
-5.2948839
5.1170406
-5.3118339
5.3568008
-5.326188
5.6082199
-5.3377484
5.8718733
-5.3463058
6.1483657
-5.3516398
6.438332
-5.3535175
6.742438
-5.3516934
7.0613854
-5.3459087
7.3959094
-5.335891
7.7467836
-5.3213532
8.1148207
-5.3019942
8.5008757
-5.2774978
8.9058459
-5.2475328
9.3306761
-5.2117534
9.7763599
-5.169799
10.243943
-5.1212946
10.734527
-5.0658514
11.249273
-5.0030661
11.789407
-4.9325214
12.356222
-4.8537838
12.951086
-4.766401
13.575443
-4.6698944
14.230822
-4.5637442
14.918825
-4.447362
15.641125
-4.3200428
16.399434
-4.180903
17.195464
-4.0288278
18.03089
-3.8624796
18.907343
-3.6804472
19.826496
-3.4816569
20.790166
-3.2658169
21.800383
-3.0314458
22.861901
-2.7824959
23.965022
-2.5098943
25.134248
-2.2247094
26.364678
-1.9110613
27.603942
-1.5844756
29.058698
30.257906
-2.3277805
0.095868839
-2.3415773
0.098412778
-2.3556351
0.10103905
-2.3699583
0.10375049
-2.3845515
0.10655093
-2.3994192
0.10944376
-2.4145661
0.11243215
-2.4299969
0.11552047
-2.4457162
0.11871258
-2.4617288
0.12201242
-2.4780396
0.12542483
-2.4946534
0.128954
-2.5115751
0.13260467
-2.5288097
0.13638212
-2.5463621
0.14029149
-2.5642373
0.14433786
-2.5824405
0.14852709
-2.6009765
0.15286548
-2.6198507
0.15735909
-2.6390681
0.16201421
-2.6586338
0.16683777
-2.678553
0.17183711
-2.6988309
0.17701976
-2.7194727
0.18239306
-2.7404836
0.18796546
-2.7618687
0.19374582
-2.7836333
0.19974258
-2.8057826
0.2059655
-2.8283217
0.21242428
-2.8512557
0.21912919
-2.8745897
0.2260911
-2.8983289
0.23332112
-2.9224782
0.2408311
-2.9470426
0.24863357
-2.9720271
0.25674138
-2.9974364
0.26516812
-3.0232753
0.27392821
-3.0495486
0.28303614
-3.0762606
0.29250766
-3.1034159
0.30235929
-3.1310189
0.31260814
-3.1590736
0.32327191
-3.1875842
0.33436948
-3.2165544
0.3459207
-3.2459879
0.35794643
-3.2758883
0.37046777
-3.3062586
0.3835077
-3.3371021
0.39709026
-3.3684213
0.4112399
-3.4002187
0.42598293
-3.4324966
0.44134694
-3.4652567
0.45736057
-3.4985005
0.47405388
-3.5322291
0.49145836
-3.5664432
0.50960709
-3.6011431
0.52853498
-3.6363286
0.54827809
-3.6719989
0.56887493
-3.7081528
0.59036554
-3.7447884
0.61279145
-3.7819035
0.63619703
-3.8194947
0.66062838
-3.8575585
0.686134
-3.8960903
0.7127646
-3.9350847
0.74057321
-3.9745356
0.76961587
-4.0144359
0.79995117
-4.0547778
0.83164062
-4.0955521
0.86474861
-4.1367487
0.89934273
-4.1783565
0.93549415
-4.2203631
0.97327728
-4.2627547
1.01277
-4.3055162
1.0540544
-4.3486311
1.0972163
-4.3920815
1.1423457
-4.4358475
1.1895375
-4.4799079
1.2388912
-4.5242394
1.2905109
-4.5688169
1.3445053
-4.6136132
1.4009897
-4.658599
1.4600844
-4.7037428
1.5219156
-4.7490105
1.5866153
-4.7943656
1.6543233
-4.8397688
1.7251854
-4.885178
1.7993545
-4.9305481
1.8769914
-4.975831
1.9582644
-5.0209749
2.0433513
-5.0659247
2.1324368
-5.1106215
2.2257165
-5.1550025
2.3233949
-5.1990007
2.4256862
-5.2425448
2.5328156
-5.2855587
2.6450202
-5.3279617
2.7625476
-5.3696677
2.8856582
-5.4105853
3.0146248
-5.4506176
3.1497346
-5.4896613
3.2912881
-5.527607
3.4396012
-5.5643387
3.5950054
-5.5997333
3.7578477
-5.6336605
3.9284937
-5.665982
4.1073258
-5.6965513
4.2947462
-5.7252137
4.491176
-5.7518052
4.6970586
-5.7761524
4.9128584
-5.7980716
5.1390627
-5.8173693
5.3761835
-5.8338405
5.6247585
-5.8472687
5.8853518
-5.8574253
6.158556
-5.864069
6.4449937
-5.8669451
6.7453171
-5.8657853
7.0602142
-5.8603065
7.3904049
-5.8502108
7.736647
-5.835185
8.0997366
-5.8148998
8.4805106
-5.7890103
8.8798479
-5.7571554
9.2986734
-5.718958
9.7379602
-5.6740253
10.198732
-5.6219493
10.682069
-5.5623063
11.189108
-5.4946575
11.721049
-5.4185481
12.27916
-5.3335055
12.864779
-5.239035
13.479322
-5.1346111
14.124278
-5.0196598
14.801211
-4.8935254
15.511747
-4.7554154
16.257543
-4.6043318
17.040258
-4.4390206
17.861519
-4.2579986
18.722931
-4.0597463
19.626172
-3.8431935
20.573081
-3.6081107
21.565666
-3.3527842
22.608871
-3.0817169
23.691822
-2.7848112
24.841277
-2.4743044
26.04952
-2.1322319
27.264528
-1.7763192
28.696382
29.867983
-2.5139143
0.11081787
-2.5291234
0.11364527
-2.5446203
0.11655995
-2.5604099
0.11956469
-2.5764972
0.12266347
-2.5928872
0.12585969
-2.6095852
0.12915663
-2.6265962
0.13255864
-2.6439254
0.13606971
-2.6615782
0.1396938
-2.6795597
0.14343575
-2.6978755
0.14729991
-2.7165309
0.15129096
-2.7355314
0.15541428
-2.7548824
0.15967503
-2.7745896
0.16407839
-2.7946584
0.16863017
-2.8150945
0.17333678
-2.8359036
0.17820427
-2.8570912
0.18323896
-2.8786632
0.18844783
-2.9006252
0.19383821
-2.9229829
0.19941767
-2.9457421
0.20519354
-2.9689085
0.21117434
-2.9924879
0.2173688
-3.016486
0.2237855
-3.0409086
0.2304341
-3.0657613
0.23732434
-3.0910499
0.24446643
-3.11678
0.25187122
-3.1429572
0.25954978
-3.1695871
0.26751391
-3.1966752
0.27577609
-3.224227
0.28434911
-3.2522478
0.29324647
-3.2807429
0.30248253
-3.3097174
0.3120716
-3.3391766
0.32202947
-3.3691252
0.3323724
-3.3995681
0.34311741
-3.43051
0.35428208
-3.4619553
0.36588509
-3.4939083
0.3779461
-3.5263732
0.39048577
-3.5593537
0.403525
-3.5928537
0.41708655
-3.6268763
0.43119414
-3.6614247
0.44587195
-3.6965017
0.46114607
-3.7321098
0.47704366
-3.768251
0.49359302
-3.8049271
0.51082388
-3.8421393
0.52876725
-3.8798885
0.54745586
-3.918175
0.566924
-3.9569989
0.58720737
-3.9963592
0.60834384
-4.0362549
0.63037289
-4.076684
0.65333547
-4.117644
0.67727517
-4.1591315
0.70223752
-4.2011425
0.72827011
-4.2436723
0.75542296
-4.286715
0.78374815
-4.3302642
0.81330086
-4.374312
0.84413866
-4.41885
0.87632203
-4.4638684
0.90991424
-4.5093563
0.94498172
-4.5553014
0.98159437
-4.6016903
1.0198253
-4.6485081
1.0597509
-4.6957384
1.1014518
-4.7433633
1.1450123
-4.7913631
1.1905206
-4.8397164
1.23807
-4.8884
1.2877578
-4.9373885
1.3396864
-4.9866546
1.3939622
-5.0361686
1.4506983
-5.0858988
1.5100125
-5.1358105
1.5720288
-5.1858667
1.6368762
-5.2360276
1.7046919
-5.2862504
1.7756186
-5.3364891
1.8498061
-5.3866945
1.9274119
-5.4368141
2.0086008
-5.4867914
2.0935467
-5.5365663
2.1824307
-5.5860745
2.275444
-5.6352474
2.3727868
-5.684012
2.474669
-5.7322903
2.5813104
-5.7799995
2.6929434
-5.8270512
2.8098103
-5.8733515
2.9321654
-5.9188007
3.0602759
-5.9632928
3.1944226
-6.006715
3.3348994
-6.0489482
3.4820156
-6.0898652
3.6360948
-6.1293319
3.7974768
-6.1672055
3.9665191
-6.2033352
4.1435957
-6.237561
4.3290999
-6.2697135
4.5234434
-6.2996137
4.7270601
-6.3270716
4.9404039
-6.3518871
5.1639518
-6.3738478
5.398204
-6.3927297
5.6436866
-6.4082962
5.900951
-6.420297
6.1705768
-6.4284681
6.4531723
-6.4325313
6.7493754
-6.4321927
7.0598581
-6.4271429
7.385324
-6.4170565
7.7265137
-6.401591
8.0842045
-6.3803871
8.4592143
-6.3530682
8.8524015
-6.3192406
9.2646698
-6.2784934
9.6969698
-6.2303986
10.150302
-6.1745118
10.625722
-6.1103719
11.12434
-6.037501
11.647331
-5.9554031
12.195932
-5.8635626
12.771451
-5.7614377
13.375267