/*--------------------------------*- C++ -*----------------------------------*\
| =========                 |                                                 |
| \\      /  F ield         | OpenFOAM: The Open Source CFD Toolbox           |
|  \\    /   O peration     | Version:  2506                                  |
|   \\  /    A nd           | Website:  www.openfoam.com                      |
|    \\/     M anipulation  |                                                 |
\*---------------------------------------------------------------------------*/
FoamFile
{
    version     2.0;
    format      ascii;
    arch        "LSB;label=32;scalar=64";
    class       volScalarField;
    location    "1.45";
    object      alphat;
}
// * * * * * * * * * * * * * * * * * * * * * * * * * * * * * * * * * * * * * //

dimensions      [1 -1 -1 0 0 0 0];

internalField   nonuniform List<scalar> 
1375
(
0.12852266
0.12912893
0.12803955
0.12845828
0.12904824
0.12770342
0.12798368
0.1283967
0.12897082
0.12745379
0.12765401
0.12793018
0.12833761
0.12889669
0.12726474
0.12740978
0.12760655
0.12787875
0.12828099
0.1288255
0.12711684
0.12722497
0.12736723
0.12756088
0.12782927
0.12822679
0.12875719
0.12699905
0.1270807
0.12718675
0.12732617
0.12751689
0.12778172
0.12817479
0.1286917
0.12690494
0.12696575
0.12704568
0.12714959
0.12728661
0.1274745
0.12773606
0.12812493
0.12862885
0.12683023
0.12687402
0.12693335
0.12701164
0.12711351
0.12724845
0.12743361
0.12769213
0.12807714
0.12856844
0.12676879
0.12680148
0.12684384
0.12690176
0.1269784
0.12707849
0.12721154
0.12739415
0.12764985
0.12803135
0.12851049
0.12671772
0.12674159
0.12677327
0.12681433
0.12687093
0.12694595
0.12704452
0.1271758
0.12735609
0.12760917
0.12798739
0.12845493
0.12667332
0.12669159
0.12671494
0.12674545
0.12678538
0.12684076
0.12691425
0.1270115
0.12714112
0.12731935
0.12756996
0.12794515
0.12840153
0.12664839
0.1266658
0.12668866
0.12671791
0.12675693
0.12681115
0.12688336
0.12697935
0.12710732
0.12728382
0.12753212
0.12790457
0.12835013
0.12661432
0.12662362
0.12664036
0.1266626
0.12669065
0.12672894
0.12678207
0.12685321
0.12694803
0.12707447
0.12724937
0.12749558
0.12786557
0.12830079
0.12658379
0.12659042
0.12659902
0.12661519
0.12663671
0.12666372
0.12670137
0.12675348
0.12682373
0.12691749
0.12704248
0.12721599
0.12746027
0.12782807
0.12825342
0.12656143
0.12656066
0.12656669
0.12657452
0.12659021
0.12661094
0.12663704
0.12667408
0.1267253
0.12679476
0.1268876
0.12701121
0.12718363
0.12742611
0.12779199
0.12820786
0.1265487
0.12654259
0.12653881
0.12653765
0.12654297
0.12655002
0.12656529
0.12658524
0.12661055
0.12664699
0.12669743
0.12676616
0.12685824
0.12698076
0.12715215
0.12739303
0.12775724
0.12816431
0.12654519
0.1265273
0.12652007
0.12651581
0.12651465
0.12651904
0.12652549
0.1265403
0.12655949
0.1265841
0.12662012
0.12666983
0.12673787
0.12682932
0.12695099
0.1271214
0.1273609
0.12772371
0.12812155
0.126555
0.12652432
0.1265054
0.12649692
0.12649231
0.12649122
0.12649473
0.12650082
0.12651507
0.1265336
0.12655762
0.12659327
0.12664246
0.12670984
0.12680082
0.12692164
0.12709145
0.12732978
0.12769146
0.1280839
0.12659862
0.12655708
0.126536
0.12650273
0.12648341
0.12647321
0.12646812
0.12646694
0.1264697
0.12647551
0.12648908
0.12650698
0.12653065
0.1265658
0.12661459
0.12668135
0.12677197
0.12689196
0.12706131
0.1272985
0.12765933
0.12803639
0.016519313
0.016235917
0.015947642
0.01566962
0.015416388
0.015169889
0.014897851
0.014599844
0.014309725
0.014066047
0.013839537
0.013550258
0.013179345
0.012791239
0.012498473
0.012329495
0.012158094
0.011908965
0.011641318
0.011452267
0.011293249
0.011073216
0.010802869
0.0183664
0.018101967
0.017864102
0.01765113
0.01746346
0.01727127
0.017028487
0.016738961
0.01646838
0.016271839
0.016098522
0.015835882
0.015457719
0.015054651
0.01473215
0.014509789
0.014308135
0.01405205
0.013749426
0.013448091
0.013168842
0.012915499
0.012699453
0.020526402
0.020135944
0.019821143
0.019526701
0.019213107
0.018847072
0.018413005
0.017948432
0.017534862
0.017246358
0.01700526
0.016634557
0.016114016
0.015592888
0.015212454
0.015005256
0.014895524
0.01473199
0.014555687
0.014531742
0.014632921
0.014750208
0.014756974
0.024862099
0.02463338
0.024586734
0.024580068
0.024509259
0.024352097
0.024163595
0.024005837
0.023946756
0.024065519
0.024257301
0.024271352
0.024014664
0.023688255
0.023609209
0.023871185
0.024352222
0.024780247
0.024991732
0.025300701
0.025742197
0.026105867
0.026253669
0.03319462
0.033364974
0.03380312
0.034286151
0.034644446
0.034839282
0.034982087
0.035184398
0.035528894
0.036078095
0.03670388
0.037097639
0.037010131
0.036662036
0.036680312
0.037202828
0.038124224
0.039013994
0.039540912
0.03977151
0.039962449
0.039868426
0.039726236
0.04422436
0.044724231
0.045551595
0.04642096
0.04710878
0.047511935
0.047770711
0.048100872
0.048632137
0.049402282
0.050253706
0.050830554
0.050735918
0.050229718
0.050218473
0.050861128
0.052004432
0.053126895
0.053804924
0.053778974
0.053359763
0.052665048
0.052119021
0.056059196
0.056731658
0.057796058
0.058915362
0.059833983
0.060356058
0.060593083
0.060893655
0.061459088
0.062297967
0.063227153
0.063877908
0.063775445
0.063222713
0.063233822
0.063936644
0.06515213
0.066354411
0.067074086
0.06690061
0.06610703
0.065077432
0.064300811
0.067729872
0.068447274
0.069626421
0.070888561
0.071984075
0.072648169
0.072866952
0.073098356
0.0736315
0.074454059
0.075374501
0.076055742
0.076043119
0.075625865
0.075736712
0.076460081
0.077626358
0.07879726
0.079529346
0.079442492
0.078764889
0.077918918
0.077290467
0.078846037
0.079510886
0.080705436
0.082019402
0.083227301
0.084091194
0.084390536
0.084587525
0.085064371
0.085820299
0.086675
0.087348481
0.087484588
0.087307847
0.087533897
0.088229825
0.089203728
0.09020767
0.090884761
0.09088697
0.090500188
0.090010766
0.089666099
0.089444718
0.089185295
0.089726627
0.090855302
0.092147413
0.0933795
0.094409139
0.094901814
0.095129974
0.095546815
0.096201823
0.096944479
0.097556125
0.097818386
0.097875637
0.098162339
0.098750806
0.099492936
0.10025061
0.10067861
0.10060263
0.10032237
0.099904584
0.099587375
0.099395414
0.098549031
0.098925654
0.099913829
0.10111949
0.10231077
0.10337857
0.10405541
0.10436667
0.10473466
0.1052713
0.10587119
0.10638231
0.10670608
0.10691759
0.1072122
0.10762663
0.10808694
0.10851795
0.10872508
0.10865941
0.10841434
0.1079801
0.10755633
0.10728681
0.10696878
0.10775558
0.1088085
0.10988968
0.11088032
0.11158709
0.11196974
0.11231505
0.11274882
0.11321829
0.1136368
0.11396114
0.11420327
0.11442869
0.11465407
0.11485935
0.1150524
0.11516645
0.11519038
0.11513953
0.11493896
0.11465979
0.11443148
0.11375903
0.11432024
0.11513947
0.11602622
0.11683204
0.11743807
0.11784244
0.11817554
0.11852939
0.1188975
0.11924559
0.11954738
0.11976833
0.11990287
0.11996091
0.11997277
0.12000839
0.12008342
0.12019425
0.12030873
0.12033744
0.12028138
0.12024277
0.11916226
0.11953403
0.12008743
0.12071403
0.1212977
0.12176746
0.12212652
0.12242281
0.12270664
0.12299215
0.12327764
0.1235476
0.12375209
0.12385025
0.12384205
0.12378218
0.12376226
0.12383015
0.12398671
0.12419408
0.12436751
0.12443127
0.12445394
0.12308989
0.12334327
0.1236762
0.1240636
0.12444523
0.12477875
0.12505938
0.12529683
0.12551194
0.12571941
0.12593249
0.12614916
0.12632863
0.12642651
0.12643349
0.12639362
0.12638678
0.12646416
0.12660111
0.12674775
0.12688286
0.12694563
0.1269599
0.12561874
0.12581302
0.1260153
0.12624501
0.12648358
0.12670738
0.12690956
0.1270872
0.12724452
0.12738768
0.12753099
0.12768323
0.12782355
0.1279254
0.12797873
0.12800097
0.1280354
0.12812454
0.12823764
0.12832232
0.12837699
0.12838419
0.12837996
0.12839907
0.1270083
0.12717135
0.12731876
0.12747278
0.12763089
0.12778141
0.1279211
0.1280498
0.12816523
0.12826373
0.12835305
0.12844786
0.12854791
0.12864511
0.12873323
0.12880171
0.12886054
0.12893601
0.12902153
0.12907741
0.12908595
0.12908137
0.12907815
0.1290912
0.12758581
0.12772293
0.12784764
0.12797034
0.12808795
0.12819318
0.12828596
0.12837426
0.12845804
0.12853074
0.12859173
0.12865572
0.12872884
0.12881016
0.12889684
0.12897787
0.12904974
0.12910832
0.12917377
0.12923123
0.12924432
0.12923216
0.12921915
0.1292239
0.12763721
0.12774696
0.12785107
0.12795335
0.12804779
0.12812664
0.12818942
0.12824698
0.1283062
0.12836443
0.12841463
0.12846806
0.12853035
0.12859555
0.12865923
0.1287288
0.12880161
0.12885969
0.12892052
0.1289735
0.12900271
0.12901425
0.1290155
0.12900478
0.12903432
0.12738382
0.12746863
0.1275494
0.12763075
0.12770871
0.12777532
0.12782705
0.12786962
0.12791217
0.12795989
0.12800843
0.12805753
0.12811415
0.12816746
0.12821403
0.12826475
0.12832524
0.12838715
0.12844345
0.12848677
0.12851721
0.12855309
0.12857186
0.12857748
0.12860626
0.12699473
0.12706332
0.12712574
0.12718983
0.12725676
0.12731984
0.12737257
0.1274166
0.12745371
0.12749346
0.12753818
0.12758308
0.12763263
0.12768638
0.12773335
0.12777584
0.12781791
0.1278694
0.1279124
0.12795175
0.12798956
0.128039
0.12807048
0.12809953
0.12812475
0.12658989
0.12665285
0.12670777
0.12676362
0.12682628
0.12688943
0.12694562
0.12699525
0.12703802
0.12707846
0.12712376
0.1271712
0.12721688
0.12726632
0.12731616
0.12735899
0.12739369
0.12742863
0.12746535
0.12750032
0.12754588
0.127587
0.1276214
0.12765791
0.12766055
0.1276332
0.12623806
0.12630138
0.12635779
0.1264138
0.12647558
0.12653953
0.12660028
0.12665398
0.12670449
0.12675186
0.12679665
0.12684296
0.12688737
0.12693321
0.12698376
0.12702737
0.12706436
0.12709599
0.12712465
0.12715961
0.12720301
0.12724153
0.12726814
0.12728698
0.12729052
0.12728925
0.12596533
0.12603004
0.12609094
0.12615094
0.12621349
0.1262772
0.12634017
0.12639819
0.12645086
0.12650092
0.12654778
0.12659539
0.12663971
0.12668527
0.1267311
0.12677727
0.12681837
0.12685238
0.12687857
0.12690669
0.12694083
0.1269763
0.12700394
0.12702618
0.12704241
0.12705474
0.12577143
0.12583724
0.1259003
0.12596159
0.12602395
0.12608555
0.12614753
0.12620841
0.12626438
0.12631482
0.12636377
0.12640951
0.12645239
0.1264951
0.12653567
0.12657822
0.12661833
0.12665551
0.12668652
0.1267154
0.12674928
0.12678094
0.12680467
0.12683266
0.1268505
0.12686847
0.12687943
0.12570354
0.12576859
0.12583004
0.12589214
0.12595355
0.12601391
0.12607206
0.12612757
0.12617949
0.12622758
0.12626996
0.12631098
0.12635067
0.12639027
0.12642685
0.12646644
0.12651054
0.12654686
0.12658421
0.12661816
0.12664192
0.12666676
0.12669405
0.12671545
0.12673518
0.12674746
0.12561018
0.12567627
0.12573834
0.12579856
0.12585917
0.12591799
0.1259738
0.12602652
0.1260765
0.12612278
0.1261658
0.12620879
0.12624917
0.12628717
0.12632161
0.12636337
0.12640162
0.12643572
0.12647496
0.1265073
0.12653272
0.12656188
0.12658783
0.12660787
0.12662736
0.12664032
0.12665272
0.12554254
0.12560808
0.12567052
0.12573031
0.12578974
0.12584912
0.12590544
0.12595745
0.12600555
0.12605151
0.1260956
0.12613818
0.12617762
0.12621546
0.12625253
0.12629323
0.12633019
0.12636784
0.12640643
0.12643655
0.12646273
0.12649149
0.12651613
0.12653643
0.12655441
0.12656833
0.12658323
0.12549506
0.12556057
0.12562326
0.12568238
0.12573901
0.12579662
0.12585174
0.12590451
0.12595352
0.12600004
0.12604534
0.12608694
0.1261301
0.12616815
0.12620492
0.12624301
0.12627632
0.12631107
0.12634698
0.12637502
0.1264017
0.12642958
0.12645384
0.12647712
0.12649872
0.12651825
0.12653763
0.12546033
0.1255252
0.12558809
0.12564736
0.12570585
0.12576287
0.12581829
0.12587019
0.12591942
0.12596705
0.12601026
0.12605247
0.12609421
0.12613122
0.12616883
0.12620682
0.12623873
0.12627131
0.12630491
0.12633427
0.12636493
0.12639375
0.12641977
0.12644509
0.12646874
0.12649207
0.1265144
0.12543882
0.12550214
0.12556447
0.12562396
0.12568124
0.125737
0.1257912
0.125842
0.12589137
0.12593724
0.1259804
0.12602408
0.12606464
0.1261037
0.12614354
0.12618028
0.12621243
0.12624615
0.12627669
0.12630529
0.12633479
0.12636184
0.12638798
0.12641249
0.12643562
0.12645806
0.12648
0.12548832
0.12555005
0.12560815
0.12566479
0.12572002
0.12577165
0.12582197
0.12587082
0.1259174
0.12596249
0.12600475
0.1260452
0.12608565
0.12612316
0.12615636
0.12618938
0.12622266
0.12625342
0.12628541
0.12631494
0.12634304
0.12637007
0.12639448
0.12641792
0.12643997
0.1264613
0.12548178
0.12554213
0.12559867
0.12565496
0.12570913
0.12576026
0.12581054
0.1258587
0.12590408
0.12594781
0.12599032
0.12603052
0.12606966
0.12610706
0.12614209
0.12617644
0.12620909
0.12624098
0.12627205
0.12630134
0.12632968
0.12635602
0.12638092
0.12640467
0.1264276
0.12645
0.12547489
0.12553481
0.1255918
0.12564737
0.12570121
0.12575289
0.12580336
0.12584984
0.12589382
0.12593828
0.12598185
0.12602364
0.12606596
0.12610397
0.1261387
0.1261725
0.1262033
0.12623369
0.1262638
0.12629313
0.12632173
0.1263488
0.12637431
0.12639863
0.12642188
0.12644457
0.1255314
0.12558932
0.12564504
0.12569729
0.1257483
0.12579803
0.12584393
0.12588862
0.12593253
0.12597388
0.12601471
0.12605557
0.12609362
0.12613026
0.12616539
0.12619836
0.1262303
0.12626056
0.12628946
0.12631738
0.12634413
0.12637007
0.12639519
0.12641947
0.12644292
0.12553163
0.12558909
0.12564401
0.12569623
0.12574722
0.12579675
0.12584334
0.12588796
0.12593068
0.12597218
0.12601205
0.12605099
0.1260883
0.12612484
0.12616024
0.12619406
0.12622681
0.12625799
0.12628782
0.12631656
0.1263442
0.12637091
0.12639664
0.1264214
0.12644525
0.12553786
0.12559426
0.12564864
0.12570053
0.12575121
0.12580043
0.12584653
0.12589151
0.12593606
0.12597714
0.1260164
0.12605528
0.12609189
0.12612752
0.12616227
0.12619608
0.12622899
0.12626065
0.1262911
0.1263204
0.12634851
0.12637555
0.12640161
0.12642669
0.12645086
0.12560635
0.12565999
0.12571156
0.1257616
0.12580895
0.12585435
0.12589932
0.12594253
0.12598384
0.12602476
0.12606338
0.12610034
0.12613658
0.12617144
0.12620522
0.12623793
0.1262696
0.1263002
0.12632983
0.12635849
0.12638624
0.12641302
0.12643884
0.12646375
0.12562202
0.12567523
0.12572842
0.12577708
0.12582431
0.12586991
0.12591404
0.12595655
0.12599761
0.12603762
0.12607634
0.12611397
0.12615044
0.12618556
0.12621946
0.12625229
0.12628403
0.1263148
0.12634468
0.12637364
0.12640178
0.12642909
0.12645554
0.12648109
0.12569961
0.12574963
0.12579741
0.12584476
0.12589047
0.12593499
0.12597775
0.12601873
0.12605873
0.12609752
0.12613523
0.12617175
0.12620724
0.12624174
0.12627515
0.12630738
0.1263386
0.1263687
0.12639763
0.12642561
0.12645273
0.12647901
0.12650461
0.12577943
0.1258281
0.12587469
0.12592033
0.1259647
0.126007
0.12604824
0.12608832
0.12612692
0.12616444
0.1262012
0.12623693
0.12627143
0.12630466
0.12633683
0.12636821
0.12639896
0.12642891
0.1264578
0.12648576
0.12651293
0.12653931
0.12582448
0.12587215
0.12591887
0.12596387
0.12600745
0.12605014
0.12609144
0.12613116
0.1261702
0.12620843
0.12624539
0.12628128
0.12631615
0.12634976
0.12638238
0.12641427
0.12644542
0.12647577
0.12650514
0.12653357
0.1265611
0.12658778
0.12593175
0.12597774
0.12602259
0.12606655
0.12610901
0.12615004
0.12619055
0.12623015
0.1262683
0.12630555
0.126342
0.1263771
0.12641128
0.12644474
0.1264771
0.12650847
0.12653899
0.12656869
0.12659768
0.12662611
0.12665385
0.12605993
0.12610504
0.12614888
0.12619132
0.12623297
0.12627393
0.12631341
0.12635186
0.1263896
0.12642627
0.12646195
0.12649679
0.12653071
0.12656372
0.12659589
0.12662726
0.12665774
0.12668738
0.12671621
0.12674424
0.12621726
0.12626092
0.12630372
0.12634584
0.1263867
0.12642652
0.12646566
0.1265037
0.12654068
0.12657684
0.12661215
0.12664647
0.12667988
0.12671246
0.12674416
0.12677497
0.12680503
0.12683442
0.12686331
0.12646301
0.12650517
0.12654641
0.1265868
0.12662618
0.12666465
0.12670227
0.12673897
0.12677477
0.12680974
0.12684389
0.12687721
0.12690971
0.12694145
0.1269725
0.1270028
0.12703237
0.12672974
0.12677142
0.12681219
0.12685206
0.12689104
0.1269292
0.12696653
0.12700303
0.12703875
0.12707372
0.12710795
0.12714143
0.1271742
0.12720631
0.1272377
0.12726846
0.12715372
0.12719477
0.12723499
0.12727443
0.12731308
0.12735098
0.12738818
0.12742463
0.12746024
0.12749518
0.1275295
0.12756313
0.12759607
0.12762832
0.12748954
0.1275414
0.12759206
0.12764154
0.12768991
0.12773721
0.12778345
0.12782868
0.1278729
0.12791613
0.12795832
0.12799916
)
;

boundaryField
{
    Side
    {
        type            empty;
    }
    Inlet
    {
        type            calculated;
        value           nonuniform List<scalar> 
32
(
0.13265472
0.13265591
0.13265624
0.13265599
0.13265587
0.13265601
0.13265628
0.13265646
0.13265647
0.13265641
0.13265632
0.13265608
0.13265561
0.13265501
0.1326543
0.13265352
0.13265269
0.13265179
0.13265087
0.13264999
0.13263072
0.13263182
0.13263295
0.13263435
0.13263589
0.13263748
0.13263926
0.13264117
0.13264306
0.13264505
0.13264709
0.13264882
)
;
    }
    Airfoil
    {
        type            compressible::alphatWallFunction;
        value           nonuniform List<scalar> 0();
    }
    Outlet
    {
        type            calculated;
        value           nonuniform List<scalar> 0();
    }
    procBoundary2to1
    {
        type            processor;
        value           nonuniform List<scalar> 
75
(
0.1285904
0.12921277
0.12809769
0.12809769
0.12775491
0.12775491
0.12749947
0.12749947
0.12730603
0.12730603
0.12715407
0.12715407
0.12703348
0.12703348
0.12693661
0.12693661
0.12685958
0.12685958
0.12679661
0.12679661
0.12674413
0.12674413
0.12669838
0.12669838
0.1266627
0.12663844
0.12663844
0.12660711
0.12660711
0.12658363
0.12658363
0.12656985
0.12656469
0.12656469
0.12656464
0.12656464
0.12657218
0.12657218
0.12660948
0.12657457
0.12657457
0.12666607
0.12666607
0.010537021
0.012461358
0.014674251
0.026268206
0.03962977
0.051892696
0.063931869
0.076926254
0.076926254
0.089485123
0.099465679
0.1073073
0.11435657
0.12024921
0.12449076
0.12697226
0.12697226
0.1284507
0.12913762
0.12926151
0.12926151
0.12909849
0.12864791
0.12810285
0.12810285
0.12762265
0.12729859
0.12706859
0.12706859
0.12688539
0.12675633
0.12675633
)
;
    }
    procBoundary2to3
    {
        type            processor;
        value           nonuniform List<scalar> 
65
(
0.018654266
0.021006547
0.025308651
0.033354781
0.044159576
0.055940638
0.067681266
0.0789286
0.089400109
0.098832208
0.10674757
0.10674757
0.11361134
0.11899835
0.12287546
0.12538639
0.12680312
0.12742598
0.12751787
0.12729204
0.12691761
0.12651826
0.12616855
0.1258981
0.12570366
0.12563588
0.12563588
0.12554111
0.12547456
0.12542775
0.12539432
0.12537314
0.12542469
0.12542469
0.125417
0.12541107
0.12547109
0.12547109
0.12547276
0.12547996
0.12555047
0.12555047
0.12556709
0.12564551
0.12564551
0.1257304
0.1257304
0.12577551
0.12588424
0.12588424
0.12601392
0.12601392
0.12617236
0.12617236
0.12637582
0.1264199
0.1264199
0.12668713
0.12668713
0.12706912
0.12711183
0.12711183
0.12738217
0.12743651
0.12743651
)
;
    }
    procBoundary2to9
    {
        type            processor;
        value           nonuniform List<scalar> 
23
(
0.016429167
0.016149709
0.015840014
0.015513536
0.015201754
0.014923826
0.01466525
0.014404216
0.014134753
0.013855215
0.013578786
0.013318247
0.013067412
0.012814915
0.012560291
0.012343265
0.01218357
0.012027536
0.011792397
0.011464724
0.011145406
0.010942312
0.010817758
)
;
    }
    procBoundary2to10
    {
        type            processor;
        value           uniform 0.016793129;
    }
}


// ************************************************************************* //
