/*--------------------------------*- C++ -*----------------------------------*\
| =========                 |                                                 |
| \\      /  F ield         | OpenFOAM: The Open Source CFD Toolbox           |
|  \\    /   O peration     | Version:  2506                                  |
|   \\  /    A nd           | Website:  www.openfoam.com                      |
|    \\/     M anipulation  |                                                 |
\*---------------------------------------------------------------------------*/
FoamFile
{
    version     2.0;
    format      ascii;
    arch        "LSB;label=32;scalar=64";
    class       volScalarField;
    location    "2.15";
    object      Cp;
}
// * * * * * * * * * * * * * * * * * * * * * * * * * * * * * * * * * * * * * //

dimensions      [0 0 0 0 0 0 0];

internalField   nonuniform List<scalar> 
1376
(
0.0228723
0.022876286
0.022880469
0.02288479
0.022889301
0.022893934
0.022898696
0.022825398
0.02283205
0.022838786
0.022845767
0.022853089
0.022861043
0.02286969
0.022877088
0.022882121
0.022887987
0.022894907
0.022903082
0.022913118
0.022923381
0.022931862
0.022940061
0.02294877
0.022954824
0.022969206
0.022750585
0.022760692
0.022770687
0.022780284
0.022789094
0.02279712
0.022804092
0.022809095
0.022816048
0.022826052
0.022835221
0.022843626
0.022852341
0.022861529
0.022869144
0.022876712
0.022882691
0.022889953
0.022906945
0.022924022
0.022928785
0.02292799
0.022945547
0.022967091
0.02297715
0.022986692
0.022998914
0.022658713
0.022668147
0.022677268
0.022686885
0.022697488
0.022708978
0.022721395
0.022735152
0.022745941
0.022751716
0.022756865
0.022761985
0.022766119
0.022770664
0.022779318
0.02278991
0.022804466
0.022819737
0.022825201
0.022820726
0.022818489
0.022842119
0.022878444
0.022897931
0.022901175
0.022907142
0.022932875
0.022950217
0.022958996
0.022962867
0.022964397
0.02297125
0.022972072
0.0229601
0.022567703
0.022577503
0.022586281
0.022595007
0.022604244
0.022614028
0.022624383
0.02263605
0.022648664
0.022661198
0.022673057
0.022684157
0.022694808
0.022704463
0.022713264
0.022721593
0.022730784
0.022741646
0.022756189
0.022777731
0.0228019
0.02280172
0.022787621
0.02278669
0.02279054
0.022811589
0.022840387
0.022866037
0.022876629
0.022873919
0.022876095
0.022884961
0.022894946
0.022905012
0.02292216
0.022933454
0.0229386
0.022917693
0.022477893
0.022489851
0.022500889
0.022511657
0.022521926
0.022531789
0.022541762
0.022552538
0.022564582
0.022577921
0.022592152
0.022606929
0.02262205
0.022636215
0.02264906
0.022661426
0.022672973
0.02268306
0.022692609
0.022704348
0.022721368
0.022737868
0.022751674
0.022763137
0.022774054
0.022762851
0.022749207
0.022767781
0.022801075
0.022828627
0.022843102
0.022846209
0.02284962
0.022870591
0.022897666
0.02290755
0.022896615
0.022888301
0.02286666
0.022879294
0.022902146
0.022900192
0.022395371
0.02240552
0.022415005
0.022425341
0.022436347
0.022447473
0.022459041
0.022471671
0.022485184
0.022499294
0.022514495
0.022530787
0.022547305
0.022563734
0.022579872
0.022595959
0.022612692
0.022629519
0.022644833
0.022657539
0.022669221
0.022683153
0.022699307
0.022718618
0.022741975
0.022759793
0.022765104
0.022761436
0.022760918
0.022787372
0.02281345
0.022822325
0.022818812
0.022822408
0.02283271
0.022844214
0.022856629
0.022884658
0.022891386
0.022900472
0.022904333
0.022903071
0.022902994
0.022881137
0.022303696
0.022314897
0.022324805
0.022334642
0.022345396
0.022356846
0.022368042
0.022379652
0.022393163
0.022408767
0.022425464
0.022444129
0.022464863
0.022486151
0.022506919
0.022526935
0.022546808
0.022566376
0.022585219
0.022601836
0.022615665
0.022629903
0.022647859
0.022665695
0.022685244
0.022707155
0.022726998
0.02274622
0.022760494
0.022774835
0.022779936
0.022781715
0.022794406
0.022813199
0.022841725
0.022854159
0.022853468
0.022895193
0.022894327
0.022906339
0.022892303
0.022887402
0.022873748
0.022853992
0.022825961
0.022751466
0.022214759
0.022225099
0.022234529
0.022244039
0.022254203
0.0222656
0.02227792
0.022289968
0.022302065
0.022315955
0.022331718
0.022347091
0.022364334
0.022384287
0.022405296
0.022428078
0.022450882
0.022473075
0.022494273
0.022515618
0.022536751
0.02255728
0.022577158
0.022597632
0.022617843
0.022637894
0.022662015
0.022690571
0.022717934
0.022732862
0.022747547
0.022771239
0.022802469
0.022821173
0.022824535
0.022840172
0.022866712
0.022858598
0.022876394
0.022892789
0.022864639
0.022847896
0.022829952
0.02281992
0.022771346
0.022722801
0.022656005
0.022604656
0.022159969
0.022164996
0.022169565
0.022174925
0.022180874
0.022187186
0.022194626
0.022203437
0.022212801
0.022222364
0.022234101
0.022248916
0.022263664
0.022279269
0.022298798
0.022321159
0.022347171
0.022376811
0.022409307
0.022443431
0.022477248
0.022510453
0.022541121
0.022570459
0.022597233
0.022623353
0.022648787
0.022671346
0.022692458
0.022713947
0.022734134
0.022757417
0.022778715
0.022796299
0.022807797
0.022821597
0.022825098
0.022847518
0.02285401
0.022845858
0.022830589
0.022795777
0.022776326
0.02276752
0.022711817
0.02269381
0.022662063
0.022601637
0.022551469
0.022146925
0.022147146
0.02214779
0.02215004
0.022153656
0.022158335
0.022164375
0.022172205
0.022181278
0.022190419
0.022199529
0.022213056
0.02222902
0.022247604
0.022269586
0.022293865
0.022321289
0.022352245
0.022385188
0.022418411
0.022454747
0.022490707
0.022524989
0.022560081
0.022590613
0.022614716
0.022634391
0.022652939
0.022672597
0.022693925
0.022710745
0.02272783
0.02273753
0.022746527
0.022769252
0.022798409
0.022813056
0.022823756
0.022813693
0.022780303
0.022760091
0.022745511
0.022714649
0.02270026
0.022657041
0.022669642
0.022669081
0.022608468
0.022559802
0.022170629
0.022168744
0.022166288
0.022164183
0.022162775
0.022162355
0.022162937
0.022164107
0.022165558
0.022170123
0.022182002
0.022191823
0.022205541
0.022223163
0.022239709
0.022260319
0.022284108
0.022309639
0.022338508
0.02236908
0.022402028
0.022438717
0.022474061
0.022505236
0.022539527
0.02257197
0.022593476
0.02260912
0.02262691
0.022648142
0.022673121
0.022678043
0.022671727
0.022703448
0.02273498
0.02274514
0.02275209
0.022763406
0.022760883
0.022727143
0.022709136
0.022680956
0.022655713
0.0226399
0.022624791
0.022651002
0.022665459
0.022624438
0.022567261
0.022197024
0.022196788
0.022194908
0.022192636
0.022190264
0.022187594
0.022184469
0.022181399
0.022179227
0.022176867
0.022171564
0.022170524
0.022172294
0.022179986
0.02217939
0.022198392
0.02224215
0.022275297
0.022304548
0.022334391
0.022364778
0.02239619
0.022427429
0.022456186
0.022487517
0.022516943
0.022539601
0.022554707
0.022566619
0.022590071
0.022627489
0.02265803
0.022692604
0.022706105
0.022706468
0.022706841
0.02270709
0.02270433
0.022706152
0.022697756
0.022662248
0.022631851
0.022615791
0.022607525
0.022612484
0.022638112
0.022654691
0.022634943
0.02257238
0.022206703
0.022211585
0.022213222
0.022214101
0.022214493
0.022214395
0.022213772
0.022213232
0.022213528
0.022214407
0.022214867
0.022214179
0.02221191
0.022209385
0.022221765
0.02222857
0.022223046
0.022234876
0.022256499
0.022286403
0.0223239
0.022364737
0.022404899
0.022444521
0.022479976
0.022503067
0.022521885
0.022545635
0.022577399
0.022607379
0.022635426
0.022668305
0.022694184
0.022686266
0.02267845
0.022668028
0.0226694
0.022673843
0.022670471
0.022672954
0.02265453
0.022618059
0.022586322
0.022594825
0.022605368
0.022633878
0.022644528
0.022633759
0.022580193
0.022218065
0.022226582
0.022231734
0.022235528
0.022238024
0.022239694
0.022240834
0.022241353
0.022242077
0.022244079
0.022246987
0.02225172
0.022256505
0.022259464
0.022264441
0.022266356
0.022268751
0.022275727
0.022286031
0.022298635
0.022315893
0.022341057
0.022375528
0.022416704
0.022458091
0.022493305
0.022524988
0.022553356
0.022573382
0.022589206
0.022605177
0.022630451
0.022646961
0.022648133
0.022648694
0.0226414
0.022633954
0.022640233
0.022656872
0.022666282
0.022644787
0.022596336
0.022570504
0.022595938
0.022604649
0.022630393
0.022634866
0.022636505
0.022588366
0.022218868
0.02223529
0.022247637
0.022257814
0.02226582
0.022271697
0.022276293
0.022279609
0.022280111
0.022277146
0.022273013
0.022270746
0.022271485
0.022275293
0.022281266
0.022288481
0.022297398
0.022307602
0.022318315
0.022329856
0.022343118
0.022361866
0.022385306
0.022410691
0.02243595
0.022461553
0.022492514
0.022509833
0.022525694
0.022542993
0.022563349
0.022584874
0.022608056
0.0226244
0.022622027
0.022625029
0.022616387
0.02263003
0.022647466
0.022659949
0.022631492
0.022573225
0.02255121
0.022593305
0.022601259
0.022631296
0.02262775
0.022631886
0.022591753
0.022193871
0.022216764
0.0222349
0.022251306
0.022266536
0.022280208
0.022291934
0.022302218
0.022311932
0.022320669
0.022326836
0.022329065
0.022328195
0.022327319
0.022327663
0.022328416
0.022329554
0.022332726
0.022341368
0.022354898
0.02237561
0.022403965
0.022444135
0.022456961
0.022456016
0.022470021
0.022486828
0.022503344
0.0225173
0.022533033
0.022543261
0.022555897
0.02258355
0.022599077
0.022603727
0.022614569
0.022619109
0.022625549
0.022634212
0.022641319
0.022609408
0.022554857
0.022530174
0.022576246
0.022590987
0.022617101
0.022616868
0.022630697
0.022582951
0.022141565
0.022172113
0.022198866
0.02222405
0.022247643
0.022269664
0.022290428
0.022310072
0.022328219
0.022344281
0.022357914
0.022369225
0.022378421
0.0223857
0.022392169
0.022397586
0.0224011
0.02240383
0.022407939
0.022413186
0.022417023
0.022420194
0.022411497
0.022412388
0.022431452
0.022461248
0.022495402
0.022515662
0.022530363
0.022538801
0.022538334
0.0225497
0.02255222
0.022578226
0.022610785
0.022610174
0.022620385
0.022613273
0.022614615
0.02261485
0.02258086
0.022546199
0.02252196
0.022553251
0.022566425
0.022585908
0.022605282
0.022624237
0.022575717
0.022090216
0.02212019
0.022150119
0.022181277
0.022212075
0.022241182
0.022268344
0.0222934
0.022316101
0.022337523
0.022357652
0.022376386
0.022393528
0.022408407
0.022420392
0.022430242
0.02243825
0.022444726
0.022448234
0.022449109
0.022448291
0.022444283
0.022443752
0.02245634
0.022477982
0.022507808
0.022526987
0.022537849
0.022546049
0.022553157
0.022568684
0.022573442
0.022564013
0.022570146
0.022595084
0.022613164
0.022627299
0.022617113
0.022602295
0.02259188
0.02256957
0.022544944
0.022525508
0.022528235
0.022538446
0.022557839
0.022599066
0.022627247
0.022586933
0.022058325
0.022086115
0.022112776
0.022140545
0.022169465
0.022198342
0.022225369
0.022252284
0.022280718
0.022308942
0.022336183
0.022361638
0.02238651
0.02240932
0.022430496
0.022450401
0.022467834
0.022482484
0.022495581
0.022508028
0.02251807
0.022525319
0.022535114
0.022547907
0.022554091
0.022548166
0.022545918
0.022555854
0.022577043
0.022580064
0.022572345
0.022608036
0.022622337
0.022593366
0.022603929
0.022623364
0.02261717
0.022608199
0.022593471
0.022584901
0.022565958
0.022546326
0.022527716
0.022509688
0.022518984
0.022551416
0.022571846
0.022614455
0.022593345
0.02201295
0.022039349
0.022065765
0.022094647
0.022126725
0.022160508
0.022192424
0.022219988
0.022246758
0.0222758
0.022304169
0.022330275
0.022354158
0.02238074
0.022408046
0.022433818
0.022461725
0.02249187
0.022515227
0.022532888
0.022550213
0.022567265
0.022579371
0.022587879
0.02259587
0.022604035
0.022618131
0.022635042
0.022634798
0.022622024
0.022625387
0.022607917
0.02256717
0.022587621
0.022619781
0.022624838
0.02261975
0.022607555
0.022589869
0.022574667
0.022557705
0.022539084
0.022515393
0.022497211
0.022496471
0.02253518
0.022533304
0.022569146
0.022586014
0.0219623
0.021989418
0.022019575
0.022053207
0.022088048
0.022122006
0.022153733
0.022184818
0.022215193
0.022241244
0.02227004
0.022308586
0.022341441
0.022366541
0.022392441
0.022417171
0.02244764
0.022476362
0.022507913
0.022537012
0.022559762
0.022581992
0.022606169
0.022627872
0.0226412
0.022646707
0.02264585
0.0226549
0.022665664
0.022672497
0.022660816
0.022618612
0.022622076
0.022635627
0.022616688
0.022622091
0.022626736
0.022614181
0.022572195
0.022550986
0.022551832
0.022519147
0.022488695
0.022482242
0.022483923
0.022504048
0.022475476
0.022524522
0.022566773
0.021909179
0.021943797
0.021980102
0.022014271
0.022042539
0.022070623
0.022108537
0.02215286
0.02219588
0.022229916
0.022252862
0.022265885
0.022289009
0.022327497
0.022367315
0.02240725
0.022431708
0.022462157
0.022503604
0.022537215
0.022560782
0.022584297
0.022610119
0.02263924
0.022664197
0.022684565
0.022692553
0.022692162
0.022690193
0.022690684
0.022693699
0.02268209
0.022672247
0.022651601
0.022630934
0.022626674
0.022624064
0.0226027
0.022564486
0.022533739
0.022510749
0.022490949
0.022468987
0.022476957
0.022478963
0.022473142
0.022437266
0.022498772
0.022529032
0.021869973
0.021897864
0.02192327
0.021951337
0.021984854
0.022021746
0.022059285
0.02209581
0.022121202
0.022155439
0.022205679
0.022248678
0.022277572
0.02228925
0.022296513
0.022329448
0.022381454
0.022426871
0.022464963
0.022505762
0.022544412
0.022578418
0.022615048
0.022646668
0.022676963
0.022701399
0.022722463
0.022733569
0.022734792
0.022734417
0.02272965
0.022721105
0.022708197
0.022683004
0.022659665
0.022642517
0.022637956
0.02260042
0.022553923
0.0225109
0.022493583
0.022472702
0.022455593
0.022467917
0.022469922
0.022444778
0.022423972
0.022469771
0.022490991
0.021842082
0.021864475
0.021886899
0.021911032
0.021938125
0.021966325
0.021993713
0.022023142
0.022061103
0.022097646
0.022127479
0.022165463
0.022207592
0.02224915
0.022282762
0.022298633
0.022317937
0.022351213
0.022394659
0.02245209
0.022515447
0.0225637
0.022597952
0.022631347
0.022661228
0.02268546
0.02271072
0.022728903
0.022742727
0.022754855
0.02275856
0.022752654
0.022745038
0.022727181
0.022711499
0.022686704
0.022637618
0.022583533
0.022553913
0.022511912
0.022482757
0.022465664
0.022457518
0.022450671
0.022450997
0.022424848
0.022414852
0.022454105
0.022476657
0.021896576
0.021919893
0.021944869
0.021971909
0.022003957
0.022035791
0.022065683
0.022096319
0.022130077
0.022172406
0.022220499
0.022262474
0.022294737
0.022321699
0.022348607
0.022377385
0.022415135
0.022475478
0.022537522
0.022575355
0.022602879
0.022633904
0.022666318
0.022690967
0.022712797
0.022737637
0.022759036
0.022772338
0.022774456
0.022762527
0.022741941
0.022711672
0.022660459
0.022609261
0.022562556
0.022512487
0.022485404
0.022472835
0.022450006
0.022430529
0.022432881
0.022415553
0.022403771
0.022440371
0.022465303
0.022006726
0.022038065
0.022069346
0.022103875
0.022143156
0.022184795
0.02222483
0.022260751
0.022294741
0.022327071
0.022357345
0.022387055
0.02244251
0.022504272
0.022550266
0.02257979
0.022599956
0.022622615
0.02264801
0.022678081
0.022716665
0.02274874
0.022769424
0.022770779
0.022760199
0.022734173
0.02268854
0.02263258
0.022575286
0.022530659
0.022507223
0.022478291
0.022441644
0.022407465
0.022412766
0.022414717
0.022386017
0.02242556
0.022441124
0.02210287
0.022138914
0.022176437
0.022216567
0.022260913
0.022304265
0.022330133
0.022353436
0.0224031
0.022463708
0.022510511
0.022542617
0.0225658
0.022582481
0.022598672
0.022631865
0.022683337
0.022727002
0.022744727
0.022749454
0.022738557
0.022706039
0.022662784
0.022608556
0.02256275
0.022527111
0.022483306
0.022424772
0.022370239
0.022385913
0.02240485
0.0223693
0.022410178
0.022411685
0.022167534
0.022214698
0.022262428
0.022296733
0.022323014
0.022362021
0.022416868
0.022463153
0.022496022
0.022523462
0.022546109
0.022566392
0.022592788
0.022639174
0.022680652
0.022702757
0.022712496
0.022704639
0.022681019
0.022635324
0.022593665
0.022538129
0.022484533
0.022410423
0.022345146
0.022347752
0.022370237
0.022354163
0.022393473
0.022377113
0.022267345
0.022296054
0.022325326
0.022363198
0.022401909
0.022435068
0.022472365
0.022504411
0.022531227
0.022561466
0.022593489
0.022625759
0.022655288
0.022669952
0.022668016
0.022646938
0.02261365
0.02255603
0.022492442
0.022418333
0.022335937
0.022311412
0.022324175
0.022321942
0.022386198
0.022361692
0.022330836
0.022358656
0.022386766
0.022424273
0.022461143
0.022485742
0.022512818
0.022539538
0.022569061
0.022594957
0.022618999
0.022622739
0.022606378
0.02257033
0.022513319
0.022439595
0.022351411
0.022293835
0.022285715
0.022277701
0.022374604
0.022367364
0.022351772
0.022367522
0.022387954
0.022415314
0.022450531
0.02248195
0.022506646
0.022536427
0.022560773
0.022570533
0.022560475
0.022525586
0.022467368
0.022383985
0.022294288
0.022270199
0.022253119
0.022345416
0.022379549
0.022318399
0.022338724
0.02237393
0.022414129
0.022445373
0.022474643
0.022513841
0.022530773
0.022522896
0.022482307
0.022425031
0.022333193
0.022281738
0.022249145
0.022338303
0.022375372
0.022261151
0.022303771
0.0223562
0.022407291
0.022448634
0.022484987
0.022497221
0.022478233
0.022452065
0.02239437
0.022330545
0.022259305
0.022352827
0.022368275
0.022337862
0.022392125
0.022414918
0.02243717
0.022448218
0.022454509
0.022433528
0.022401411
0.022297258
0.022355182
0.022370971
0.022344842
0.022368524
0.022393358
0.022442537
0.022446245
0.022458803
0.022358458
0.022347643
0.022367309
0.022335444
0.022396596
0.022436611
0.022470433
0.022389813
0.022347211
0.022345911
0.022326298
0.02238648
0.022443095
0.022404618
0.022379654
0.022322764
0.022400348
0.022424609
0.022417624
0.022314872
0.022407117
0.0224577
0.022319246
0.022336273
0.022870807
)
;

boundaryField
{
    Side
    {
        type            empty;
    }
    Inlet
    {
        type            calculated;
        value           nonuniform List<scalar> 
32
(
0.022517236
0.022516608
0.022512453
0.022507001
0.022500793
0.022494591
0.022489548
0.022485823
0.022482835
0.022480678
0.022481993
0.022492394
0.022514002
0.022537487
0.022548502
0.022546913
0.022539475
0.022528655
0.022517734
0.022509216
0.022503417
0.022496276
0.022485942
0.02247649
0.022471225
0.022476002
0.022490023
0.022498536
0.022501164
0.022500845
0.022497305
0.022490129
)
;
    }
    Airfoil
    {
        type            calculated;
        value           nonuniform List<scalar> 0();
    }
    Outlet
    {
        type            calculated;
        value           nonuniform List<scalar> 0();
    }
    procBoundary11to3
    {
        type            processor;
        value           uniform 0.02288993;
    }
    procBoundary11to4
    {
        type            processor;
        value           nonuniform List<scalar> 
26
(
0.022823351
0.022747346
0.022657591
0.022566833
0.022475779
0.022395722
0.022304208
0.022215274
0.022161182
0.022148106
0.022170362
0.022195853
0.022200994
0.022209272
0.022203887
0.022178842
0.022122589
0.022069962
0.022037427
0.021995095
0.021946511
0.021886634
0.021847798
0.021826799
0.022871676
0.022823351
)
;
    }
    procBoundary11to10
    {
        type            processor;
        value           nonuniform List<scalar> 
58
(
0.022891542
0.022894719
0.022898452
0.022902682
0.022907687
0.02291345
0.022919752
0.0229055
0.0229055
0.022914343
0.022922183
0.022930441
0.022939476
0.022946996
0.022954856
0.022971729
0.022995882
0.023018285
0.023043686
0.023061216
0.022990077
0.022990077
0.023013953
0.023041718
0.023045378
0.023040829
0.023047258
0.023051983
0.023055591
0.023007279
0.023007279
0.023016063
0.023031226
0.023043976
0.023050599
0.023054113
0.023051806
0.022938434
0.022938434
0.022911844
0.022914564
0.022937773
0.022889271
0.022889271
0.022901103
0.022904976
0.022894702
0.022911968
0.022911968
0.022900517
0.022858068
0.022858068
0.022783246
0.022652961
0.022652961
0.022612352
0.022547613
0.022547613
)
;
    }
    procBoundary11to12
    {
        type            processor;
        value           nonuniform List<scalar> 
65
(
0.021813793
0.02183561
0.021855501
0.021875169
0.021875169
0.021851431
0.021871552
0.021893341
0.021917472
0.021945281
0.021975503
0.021975503
0.02193966
0.021970008
0.022001833
0.022034672
0.022068304
0.022068304
0.022030438
0.022062497
0.022095694
0.022129361
0.022129361
0.022093184
0.022128037
0.022174733
0.022225835
0.022225835
0.022186024
0.022230213
0.022264195
0.02229767
0.02229767
0.022274513
0.022310048
0.022334327
0.022334327
0.02229311
0.022305992
0.022316584
0.022316584
0.022263079
0.022257048
0.022257048
0.022210905
0.022212459
0.02225795
0.02225795
0.022238101
0.022306358
0.022306358
0.022263383
0.022304671
0.022304671
0.022267683
0.022267683
0.022222876
0.022322053
0.022322053
0.022339819
0.022339819
0.022334532
0.022470569
0.022470569
0.022352805
)
;
    }
}


// ************************************************************************* //
