/*--------------------------------*- C++ -*----------------------------------*\
| =========                 |                                                 |
| \\      /  F ield         | OpenFOAM: The Open Source CFD Toolbox           |
|  \\    /   O peration     | Version:  2506                                  |
|   \\  /    A nd           | Website:  www.openfoam.com                      |
|    \\/     M anipulation  |                                                 |
\*---------------------------------------------------------------------------*/
FoamFile
{
    version     2.0;
    format      ascii;
    arch        "LSB;label=32;scalar=64";
    class       volVectorField;
    location    "0.0195";
    object      wallShearStress;
}
// * * * * * * * * * * * * * * * * * * * * * * * * * * * * * * * * * * * * * //

dimensions      [1 -1 -2 0 0 0 0];

internalField   uniform (0 0 0);

boundaryField
{
    Side
    {
        type            empty;
    }
    Inlet
    {
        type            calculated;
        value           uniform (0 0 0);
    }
    Airfoil
    {
        type            calculated;
        value           nonuniform List<vector> 
68
(
(-1.4619617 0.51996151 1.0108694e-16)
(-2.9273026 0.42040808 6.3067697e-22)
(-2.6480815 0.38273637 7.5014229e-17)
(-2.596024 0.37481919 -6.9959392e-17)
(-2.4578113 0.35510017 -2.5322334e-22)
(-2.2723828 0.32848381 2.2100857e-26)
(-2.1324381 0.30856359 -1.2026678e-16)
(-2.0046241 0.29056036 -1.1559753e-16)
(-1.888515 0.27355422 2.2300002e-16)
(-1.7263721 0.24960199 -1.0785047e-16)
(-1.5025365 0.21684057 1.0457256e-16)
(-1.2278338 0.17803946 -1.9604001e-22)
(-0.88701923 0.12983059 5.1026291e-24)
(-0.49712867 0.075519923 -9.6409206e-17)
(-0.045195231 0.012386754 -1.7955928e-22)
(0.46698159 -0.058697391 -5.7397185e-42)
(1.0357835 -0.13761547 1.7142216e-22)
(1.6227624 -0.21897151 8.8062852e-17)
(2.1898339 -0.29767479 8.6301685e-17)
(2.7244705 -0.37234302 4.1768606e-33)
(3.2119353 -0.44039295 -3.3239839e-16)
(3.6269252 -0.49797589 1.6328331e-16)
(3.9270418 -0.5396761 -1.1415734e-22)
(4.0313271 -0.55395936 -3.1585308e-16)
(3.9213095 -0.53883986 -1.4839061e-22)
(3.645066 -0.50070548 1.5316011e-16)
(3.2784112 -0.45074722 0)
(2.8759058 -0.39631608 1.4898321e-16)
(2.4635366 -0.34082792 4.5138983e-36)
(1.9617372 -0.27343599 -1.5046328e-36)
(1.2693117 -0.18057633 1.4357291e-16)
(0.18936589 -0.035813725 1.4199697e-16)
(-1.3630413 0.17109461 9.2324267e-33)
(-3.151023 0.41149873 -1.394429e-16)
(-4.1927604 0.55426159 -1.3831999e-16)
(-4.3255363 0.57707119 1.3706885e-16)
(-4.1091656 0.55024931 2.5873407e-22)
(-3.7180166 0.49885054 2.6888707e-16)
(-3.2743007 0.43872164 1.3308092e-16)
(-2.88989 0.386463 -2.5136605e-22)
(-2.778499 0.36989717 1.305039e-16)
(-2.8869345 0.3824241 1.2933578e-16)
(-3.0054099 0.39672666 -2.4302905e-22)
(-3.0651231 0.40432622 2.5439066e-16)
(-2.9888228 0.39408616 -2.4069368e-22)
(-2.7225488 0.35938933 2.3892681e-22)
(-2.2438249 0.29772763 1.4349296e-42)
(-1.4796713 0.19952655 2.2569492e-36)
(-0.42087773 0.064320973 1.2232762e-16)
(0.84019815 -0.096999991 -2.3083974e-22)
(2.1902299 -0.26881188 2.2973864e-22)
(3.4938544 -0.4342385 -2.3824409e-16)
(4.5181137 -0.56557117 1.1806814e-16)
(5.0578503 -0.63564551 1.1708713e-16)
(5.0395635 -0.63529184 2.219764e-22)
(4.3642845 -0.55399222 3.5873241e-43)
(2.9100187 -0.37730614 2.2552775e-22)
(0.87575516 -0.12342317 2.2869739e-16)
(-0.9648399 0.10370845 -2.279077e-16)
(-3.035658 0.36379376 4.338771e-22)
(-4.4705213 0.54280308 2.2700072e-16)
(-4.5707993 0.56441339 2.1544777e-22)
(-4.2346296 0.5223194 2.148213e-22)
(-3.7511414 0.46403199 -2.1389241e-22)
(-3.4737269 0.42982028 2.2326223e-16)
(-3.2407275 0.39992856 1.2037062e-35)
(-3.0846824 0.37945216 -2.2123392e-16)
(-1.6373149 -0.53021291 -5.6318118e-38)
)
;
    }
    Outlet
    {
        type            calculated;
        value           nonuniform List<vector> 0();
    }
    procBoundary12to4
    {
        type            processor;
        value           uniform (0 0 0);
    }
    procBoundary12to5
    {
        type            processor;
        value           uniform (0 0 0);
    }
    procBoundary12to11
    {
        type            processor;
        value           uniform (0 0 0);
    }
    procBoundary12to13
    {
        type            processor;
        value           uniform (0 0 0);
    }
}


// ************************************************************************* //
