/*--------------------------------*- C++ -*----------------------------------*\
| =========                 |                                                 |
| \\      /  F ield         | OpenFOAM: The Open Source CFD Toolbox           |
|  \\    /   O peration     | Version:  2506                                  |
|   \\  /    A nd           | Website:  www.openfoam.com                      |
|    \\/     M anipulation  |                                                 |
\*---------------------------------------------------------------------------*/
FoamFile
{
    version     2.0;
    format      ascii;
    arch        "LSB;label=32;scalar=64";
    class       volScalarField;
    location    "0.8";
    object      omega;
}
// * * * * * * * * * * * * * * * * * * * * * * * * * * * * * * * * * * * * * //

dimensions      [0 0 -1 0 0 0 0];

internalField   nonuniform List<scalar> 
1376
(
41.534445
38.022387
33.556321
29.851087
40.696874
37.248817
32.904249
29.32133
26.727431
24.913272
23.648588
22.768167
22.16194
21.754052
39.89269
36.506347
32.276992
28.810252
26.308166
24.561532
23.346622
22.503776
21.926427
21.540832
21.293027
21.142532
21.059526
21.021498
21.010116
39.128886
35.798818
31.675298
28.316693
25.901057
24.218759
23.051809
22.245483
21.696332
21.332508
21.101325
20.963345
20.889462
20.857489
20.849046
20.850969
20.86991
20.898615
20.932636
38.408456
35.126726
31.098512
27.839677
25.505148
23.884083
22.763361
21.992593
21.471088
21.128666
20.913786
20.787971
20.72278
20.696281
20.690148
20.69486
20.716545
20.746428
20.78123
20.820015
20.86221
20.907508
20.955781
37.73074
34.48879
30.545842
27.378961
25.12061
23.557919
22.48179
21.745608
21.251115
20.929617
20.730618
20.616533
20.559511
20.537867
20.533658
20.541571
20.565466
20.596348
20.631838
20.671109
20.713654
20.759213
20.807695
20.859124
20.913605
20.971321
21.032525
37.091813
33.882527
30.01663
26.934958
24.748366
23.241383
22.208216
21.505531
21.03722
20.735938
20.552174
20.44919
20.399668
20.382282
20.379774
20.39103
20.41666
20.448381
20.484459
20.524144
20.566973
20.612725
20.661342
20.712872
20.767433
20.825205
20.886434
20.951441
21.020637
21.09453
36.48476
33.303534
29.509592
26.507978
24.389316
22.93552
21.943623
21.273182
20.830008
20.548005
20.378626
20.285932
20.243149
20.229521
20.228541
20.243081
20.270055
20.302473
20.339036
20.379055
20.422105
20.467995
20.516691
20.568259
20.622831
20.680589
20.741781
20.806729
20.875831
20.949581
21.02858
21.113538
21.205275
35.900898
32.745433
29.021741
26.097021
24.043338
22.6405
21.688215
21.048691
20.629505
20.365743
20.2098
20.12653
20.089767
20.079314
20.079888
20.097487
20.125515
20.158513
20.195467
20.235746
20.278963
20.324945
20.373674
20.42523
20.479751
20.53743
20.598523
20.663361
20.73234
20.805933
20.884717
20.969405
21.060809
21.15984
21.2675
35.332051
32.202051
28.549618
25.700405
23.709579
22.355783
21.441542
20.831617
20.435259
20.188701
20.045273
19.970629
19.939223
19.931198
19.933815
19.953998
19.982875
20.016369
20.053637
20.094106
20.137429
20.183456
20.232177
20.283678
20.33811
20.395676
20.456635
20.521314
20.590127
20.663549
20.742134
20.82655
20.9176
21.016198
21.123358
21.240182
21.367973
21.50836
34.772611
31.668973
28.089935
25.31596
23.386593
22.080317
21.202743
20.621193
20.246578
20.016271
19.884537
19.817822
19.791139
19.785025
19.790134
19.812427
19.842009
19.875925
19.913442
19.954035
19.997403
20.043427
20.092108
20.143538
20.197869
20.255303
20.316108
20.380616
20.449237
20.522453
20.60081
20.68494
20.775614
20.873722
20.980287
21.09643
21.223412
21.362815
21.516691
21.687698
34.220596
31.14447
27.64061
24.94183
23.072903
21.812939
20.970881
20.416644
20.062807
19.84791
19.727151
19.667742
19.645235
19.640741
19.648662
19.672648
19.702834
19.737116
19.77483
19.815499
19.858866
19.904844
19.953453
20.004792
20.059009
20.11631
20.176957
20.241279
20.309682
20.382644
20.460711
20.544499
20.634745
20.732299
20.838172
20.953502
21.079558
21.217894
21.370539
21.540186
21.730337
21.945521
33.677865
30.630205
27.201402
24.576972
22.767385
21.552667
20.745157
20.217343
19.883464
19.68324
19.572819
19.520148
19.501366
19.498338
19.509229
19.534567
19.565291
19.599904
19.637786
19.678508
19.721853
19.767762
19.816274
19.867487
19.921563
19.978706
20.039175
20.103286
20.171427
20.244072
20.321776
20.405155
20.494895
20.591818
20.696894
20.811292
20.936309
21.073484
21.224838
21.393084
21.58175
21.795261
22.038915
33.149244
30.131602
26.775201
24.222529
22.470328
21.299428
20.525371
20.023073
19.708367
19.522131
19.421435
19.374951
19.359529
19.357901
19.371764
19.39817
19.429369
19.464278
19.502307
19.543073
19.586389
19.632214
19.680597
19.731651
19.785539
19.842467
19.902689
19.966521
20.03435
20.106641
20.183936
20.266836
20.356004
20.452214
20.556425
20.669795
20.793644
20.929572
21.079593
21.246408
21.433552
21.645361
21.886793
22.162817
22.476658
32.640088
29.654852
26.366051
23.880795
22.182991
21.053878
20.311835
19.833967
19.537569
19.364589
19.272968
19.232142
19.219847
19.219491
19.236238
19.263484
19.295099
19.330257
19.368403
19.409186
19.452444
19.498149
19.546358
19.597192
19.650823
19.707468
19.76739
19.830915
19.898412
19.970325
20.047167
20.129522
20.21805
20.313493
20.416787
20.529041
20.651654
20.786268
20.934903
21.100238
21.285806
21.495865
21.735001
22.007718
22.316843
22.671131
32.154142
29.204576
25.977838
23.554595
21.907286
20.817222
20.105244
19.650393
19.371244
19.210682
19.127467
19.091826
19.082095
19.083346
19.102626
19.130533
19.162491
19.197831
19.236028
19.276764
19.319905
19.365437
19.413429
19.46401
19.517363
19.573715
19.633335
19.696536
19.763675
19.835164
19.911483
19.993223
20.081047
20.175695
20.278039
20.389181
20.510523
20.643758
20.790962
20.954791
21.138717
21.346917
21.583655
21.85286
22.157007
22.505269
22.961066
23.993037
31.692122
28.78151
25.611834
23.245358
21.644483
20.590409
19.906204
19.47268
19.209538
19.060459
18.984954
18.953957
18.946231
18.949526
18.970858
18.999277
19.031495
19.066931
19.105102
19.145729
19.188699
19.234017
19.281766
19.332088
19.385165
19.441226
19.500531
19.563376
19.630102
19.70111
19.776877
19.857968
19.945051
20.03887
20.140263
20.25031
20.370379
20.502221
20.647958
20.810256
20.992499
21.198743
21.432904
21.698371
21.997264
22.339294
22.790745
23.836036
31.142937
31.251819
28.382817
25.266856
22.95294
21.394842
20.373769
19.714964
19.300949
19.052463
18.913876
18.845357
18.818425
18.812308
18.817919
18.840836
18.869646
18.902049
18.937516
18.975604
19.016072
19.058836
19.103916
19.151407
19.201451
19.254232
19.309968
19.368915
19.431365
19.497651
19.568156
19.64334
19.723749
19.810048
19.902991
20.003441
20.112436
20.231302
20.361771
20.50603
20.666758
20.847274
21.051438
21.282814
21.544322
21.837783
22.173336
22.620392
23.680664
31.111493
30.828982
28.002589
24.939058
22.675191
21.157221
20.166719
19.531223
19.135016
18.899868
18.770793
18.708533
18.685114
18.680354
18.688385
18.712487
18.74159
18.774116
18.809566
18.847533
18.887812
18.930341
18.975155
19.022352
19.072082
19.124522
19.179891
19.238442
19.300465
19.366284
19.436264
19.510837
19.590543
19.676038
19.768106
19.867617
19.975584
20.093293
20.222437
20.365227
20.524354
20.703061
20.904963
21.133375
21.390743
21.6786
22.007608
22.450197
23.528004
31.243235
30.418821
27.633744
24.623104
22.408426
20.929127
19.96764
19.353981
18.974284
18.75139
18.630972
18.574303
18.553931
18.550366
18.560784
18.585748
18.615064
18.647662
18.683056
18.720873
18.760935
18.8032
18.847716
18.894588
18.943963
18.996024
19.050987
19.109105
19.170661
19.235973
19.305395
19.379348
19.458347
19.54305
19.634228
19.73277
19.839713
19.956294
20.084152
20.225456
20.382941
20.559747
20.759279
20.984557
21.237615
21.519777
21.842235
22.280479
23.377962
31.432141
30.017585
27.270485
24.313973
22.148714
20.70761
19.774433
19.181836
18.81787
18.606494
18.494081
18.44246
18.424782
18.422313
18.435007
18.460575
18.490029
18.522644
18.557945
18.595586
18.63541
18.677389
18.721579
18.768091
18.817077
18.868725
18.923247
18.98089
19.041937
19.106702
19.175538
19.248851
19.327139
19.411024
19.501293
19.598858
19.704729
19.820145
19.946716
20.086562
20.242359
20.417187
20.614256
20.836261
21.084893
21.36126
21.67724
22.111571
23.229695
31.463461
29.623487
26.910123
24.008747
21.893347
20.490373
19.58531
19.013507
18.664914
18.464633
18.359773
18.312784
18.29755
18.296117
18.31094
18.336917
18.366444
18.399021
18.434188
18.471625
18.511191
18.552867
18.596712
18.642842
18.691413
18.742614
18.796661
18.8538
18.914309
18.978499
19.046717
19.119362
19.196915
19.279986
19.369323
19.465835
19.570593
19.684818
19.810057
19.948384
20.102434
20.275221
20.469692
20.688346
20.932454
21.203043
21.512659
21.943561
23.0825
31.396729
29.236272
26.552422
23.706323
21.640932
20.27607
19.399101
18.848059
18.514722
18.325314
18.227702
18.185049
18.172118
18.171655
18.188467
18.214701
18.244248
18.276746
18.311746
18.348955
18.388245
18.429602
18.473089
18.518823
18.566961
18.617695
18.671245
18.727856
18.787804
18.851396
18.918972
18.990923
19.067718
19.149943
19.238329
19.333779
19.437343
19.550267
19.674085
19.810805
19.963032
20.133667
20.325484
20.540665
20.780189
21.045046
21.348569
21.776579
22.938697
31.444505
28.856457
26.199112
23.407577
21.39176
20.064668
19.215588
18.685174
18.366961
18.188226
18.097608
18.05908
18.048244
18.048849
18.067462
18.093856
18.123391
18.155777
18.190586
18.227548
18.26655
18.307582
18.350705
18.396035
18.44373
18.493985
18.547024
18.603092
18.662462
18.725435
18.792347
18.863582
18.939597
19.020954
19.108361
19.202697
19.305009
19.416545
19.538825
19.67383
19.824095
19.99246
20.181547
20.393219
20.628133
20.887294
21.184924
21.610616
22.800405
31.711801
28.484582
25.852869
23.114635
21.147409
19.857309
19.035501
18.525233
18.22174
18.053318
17.969386
17.934761
17.925686
17.92767
17.947809
17.974306
18.00381
18.036068
18.070672
18.107376
18.14608
18.186778
18.229533
18.274456
18.321706
18.371476
18.423991
18.479502
18.538279
18.600617
18.666846
18.737346
18.812564
18.893036
18.979444
19.072635
19.173647
19.283728
19.404394
19.537559
19.685686
19.851602
20.037835
20.24597
20.476331
20.729855
21.021729
21.445649
22.666488
31.718956
28.120447
25.515971
22.82991
20.910001
19.655725
18.860115
18.369048
18.0795
17.920789
17.843113
17.812069
17.804446
17.80807
17.829428
17.855982
17.885444
17.917565
17.951955
17.988393
18.026793
18.067153
18.109533
18.154044
18.200844
18.250125
18.30211
18.35705
18.415215
18.476898
18.542425
18.612169
18.686567
18.766141
18.851543
18.943591
19.043301
19.151897
19.270876
19.402103
19.547962
19.711243
19.894443
20.098946
20.324784
20.572803
20.859205
21.281962
22.537422
31.889464
27.762719
25.18887
22.554595
20.680929
19.461226
18.690492
18.217367
17.940696
17.79088
17.718903
17.691044
17.684635
17.690048
17.712337
17.738903
17.768287
17.800236
17.834388
17.870549
17.90864
17.948658
17.990661
18.034758
18.081103
18.129886
18.181331
18.235685
18.293218
18.354224
18.419024
18.487987
18.561546
18.640213
18.724615
18.815533
18.913948
19.021058
19.138327
19.267576
19.411091
19.57158
19.751525
19.952185
20.173463
20.416184
20.697476
21.119851
22.413055
32.100611
27.409291
24.870049
22.288149
20.460184
19.274067
18.526979
18.070513
17.805564
17.663744
17.596839
17.571749
17.56638
17.573617
17.596591
17.623128
17.65239
17.684123
17.717994
17.753832
17.791575
17.831225
17.872841
17.91652
17.962403
18.01068
18.061571
18.115322
18.172203
18.232508
18.296559
18.364723
18.437425
18.51517
18.598569
18.688366
18.785505
18.891153
19.006729
19.134005
19.275171
19.432786
19.609276
19.805915
20.022459
20.25991
20.536432
20.959426
22.292576
32.143624
27.058296
24.556705
22.02832
20.246053
19.09303
18.368841
17.928104
17.673946
17.539332
17.476914
17.454215
17.449758
17.458772
17.482221
17.508694
17.537796
17.569268
17.602809
17.638276
17.675621
17.714857
17.756039
17.799262
17.844664
17.892425
17.942752
17.995887
18.0521
18.111685
18.174967
18.242309
18.314134
18.390941
18.473325
18.562004
18.657876
18.762072
18.87598
19.001315
19.14017
19.294927
19.467883
19.660288
19.871875
20.103986
20.376036
20.80052
22.176953
32.259641
18.214355
17.789053
17.545244
17.417357
17.358998
17.338403
17.334769
17.345471
17.369216
17.39559
17.424498
17.455675
17.488849
17.523904
17.560806
17.599577
17.640275
17.682994
17.727869
17.775071
17.824809
17.877315
17.932847
17.991697
18.05419
18.120693
18.191626
18.267475
18.348822
18.436363
18.530956
18.633699
18.745947
18.869366
19.005953
19.15793
19.327367
19.515399
19.721861
19.948498
20.216173
20.642985
22.06725
32.485274
17.221361
17.233659
17.257534
17.283762
17.31244
17.34329
17.376069
17.41068
17.447109
17.485382
17.525559
17.567732
17.612034
17.658633
17.707738
17.759581
17.814416
17.872519
17.934208
17.999849
18.069859
18.144721
18.225001
18.311374
18.404674
18.505945
18.616516
18.738023
18.872375
19.02163
19.187599
19.371237
19.572441
19.793517
20.056931
20.487038
21.964391
32.722924
17.232036
17.264395
17.298548
17.334487
17.372242
17.411877
17.45348
17.497174
17.543132
17.59156
17.642698
17.6968
17.754138
17.815019
17.879787
17.948857
18.022702
18.10187
18.187031
18.278983
18.378739
18.487605
18.607171
18.739271
18.88581
19.048349
19.227586
19.42347
19.638972
19.898379
20.33294
21.868263
32.871072
17.260123
17.299184
17.340188
17.383263
17.428563
17.476303
17.526709
17.580035
17.636568
17.696615
17.760505
17.828623
17.901435
17.979476
18.063387
18.153935
18.252121
18.359213
18.476781
18.606568
18.750331
18.909401
19.084221
19.274788
19.484792
19.740573
20.180915
21.779076
33.040905
17.361989
17.411645
17.464182
17.51989
17.579067
17.642044
17.709199
17.780968
17.857865
17.940487
18.029601
18.126155
18.231404
18.346877
18.474265
18.615171
18.770687
18.941051
19.126293
19.33088
19.583499
20.03101
21.697627
33.285269
17.462485
17.524525
17.590682
17.661368
17.737079
17.818422
17.906074
18.00096
18.104288
18.217554
18.342415
18.480337
18.632214
18.798064
18.977954
19.177195
19.427068
19.883142
21.625516
33.558577
17.617241
17.697248
17.783408
17.876603
17.977962
18.088957
18.211179
18.34599
18.494106
18.655368
18.82992
19.023877
19.271251
19.737462
21.573032
33.832038
17.753052
17.852492
17.961217
18.08076
18.212381
18.356638
18.513237
18.682424
18.871131
19.116141
19.593956
21.529251
34.147584
17.951246
18.079656
18.219992
18.371882
18.535702
18.719194
18.961918
19.452535
21.491937
34.430456
18.231532
18.390043
18.568412
18.808916
19.313496
21.464188
34.720244
18.657457
19.177476
21.447293
35.025575
21.441683
35.30113
41.532643
)
;

boundaryField
{
    Side
    {
        type            empty;
    }
    Inlet
    {
        type            fixedValue;
        value           uniform 60.24606;
    }
    Airfoil
    {
        type            omegaWallFunction;
        blending        binomial;
        n               2;
        value           nonuniform List<scalar> 0();
    }
    Outlet
    {
        type            inletOutlet;
        inletValue      nonuniform List<scalar> 0();
        value           nonuniform List<scalar> 0();
    }
    procBoundary12to4
    {
        type            processor;
        value           uniform 42.396866;
    }
    procBoundary12to5
    {
        type            processor;
        value           nonuniform List<scalar> 
30
(
40.682038
39.857474
39.070263
38.328587
37.635725
36.989811
36.385129
35.813737
35.266929
34.736481
34.216216
33.702256
33.192963
32.688701
32.191607
31.704841
31.232114
30.77707
30.342621
29.929705
29.536646
29.159791
28.794394
28.435462
28.078903
27.722471
27.366092
27.011616
38.037311
40.682038
)
;
    }
    procBoundary12to6
    {
        type            processor;
        value           uniform 26.708657;
    }
    procBoundary12to11
    {
        type            processor;
        value           nonuniform List<scalar> 
65
(
42.395945
38.821397
34.232045
30.401313
27.16091
27.16091
25.276376
23.960108
23.040838
22.404665
21.973497
21.489156
21.489156
21.325675
21.233042
21.18843
21.173271
21.009903
21.009903
21.025571
21.052885
21.086021
20.970861
20.970861
21.012637
21.057601
21.10559
21.007031
21.007031
21.061365
21.11897
21.180111
21.097549
21.097549
21.166818
21.240854
21.173733
21.173733
21.258963
21.351018
21.304694
21.304694
21.412794
21.384918
21.384918
21.513442
21.654746
21.663408
21.663408
21.835746
21.879312
21.879312
22.096161
22.191335
22.191335
22.318061
22.318061
22.636533
22.836918
22.836918
23.131616
23.131616
24.151619
31.165395
31.165395
)
;
    }
    procBoundary12to13
    {
        type            processor;
        value           nonuniform List<scalar> 
60
(
24.245508
21.771833
20.035657
18.915811
18.915811
18.061234
17.65182
17.418548
17.297335
17.242859
17.224213
17.224213
17.109425
17.12325
17.147103
17.173135
17.201542
17.201542
17.121848
17.153784
17.18747
17.222904
17.222904
17.148943
17.18744
17.22785
17.270297
17.314947
17.314947
17.248617
17.297553
17.349323
17.404197
17.404197
17.346907
17.407994
17.473126
17.542718
17.542718
17.498259
17.576888
17.661539
17.661539
17.630293
17.727838
17.834353
17.834353
17.822655
17.947898
18.084336
18.084336
18.092257
18.245522
18.418887
18.418887
18.507559
19.04487
19.04487
21.448096
35.636204
)
;
    }
}


// ************************************************************************* //
