/*--------------------------------*- C++ -*----------------------------------*\
| =========                 |                                                 |
| \\      /  F ield         | OpenFOAM: The Open Source CFD Toolbox           |
|  \\    /   O peration     | Version:  2506                                  |
|   \\  /    A nd           | Website:  www.openfoam.com                      |
|    \\/     M anipulation  |                                                 |
\*---------------------------------------------------------------------------*/
FoamFile
{
    version     2.0;
    format      ascii;
    arch        "LSB;label=32;scalar=64";
    class       volScalarField;
    location    "2.994";
    object      alphat;
}
// * * * * * * * * * * * * * * * * * * * * * * * * * * * * * * * * * * * * * //

dimensions      [1 -1 -1 0 0 0 0];

internalField   nonuniform List<scalar> 
1376
(
0.043505175
0.052057885
0.064393859
0.077523468
0.043905838
0.052646393
0.065167439
0.078396902
0.090747803
0.10115774
0.10915472
0.11478557
0.11840524
0.12049125
0.044303821
0.053229723
0.065931738
0.079255173
0.091588966
0.1018882
0.10971979
0.11516957
0.1186224
0.12057406
0.12150827
0.12182778
0.12182695
0.12169485
0.1215363
0.04469849
0.053806717
0.066685175
0.080096825
0.092408177
0.10259348
0.11025913
0.11552996
0.11882013
0.12064278
0.12148746
0.12175369
0.12172737
0.12158771
0.12143107
0.12129918
0.1212032
0.12114043
0.12110379
0.045088686
0.05437627
0.067426591
0.080920653
0.093204419
0.10327279
0.11077224
0.11586646
0.11899834
0.1206974
0.12145798
0.12167549
0.1216269
0.12148154
0.12132758
0.1212013
0.12111092
0.12105255
0.12101893
0.12100328
0.1210004
0.12100668
0.12101969
0.04547152
0.054936857
0.068154875
0.081725784
0.093976892
0.10392546
0.11125866
0.11617881
0.11915689
0.12073783
0.12141967
0.12159291
0.12152516
0.1213759
0.12122542
0.12110493
0.12102001
0.12096581
0.12093496
0.12092093
0.12091884
0.12092534
0.12093819
0.12095593
0.12097759
0.12100265
0.12103091
0.045850093
0.055486955
0.068868932
0.082511428
0.094725037
0.10455117
0.11171825
0.11646705
0.11929591
0.12076417
0.12137254
0.12150581
0.12142187
0.12127043
0.12112424
0.12100977
0.12093031
0.12088018
0.12085202
0.12083955
0.12083819
0.12084483
0.12085743
0.12087463
0.12089558
0.12091986
0.12094738
0.12097834
0.12101313
0.12105237
0.046223638
0.056025415
0.06956784
0.083276981
0.095448626
0.10515003
0.11215142
0.11673177
0.11941605
0.12077701
0.12131699
0.12141432
0.12131695
0.12116492
0.12102376
0.1209156
0.12084164
0.1207956
0.12077015
0.12075929
0.12075875
0.12076561
0.12077798
0.1207946
0.12081473
0.12083802
0.12086448
0.1208944
0.12092831
0.12096691
0.12101092
0.12106078
0.12111658
0.046589477
0.056551956
0.070251271
0.084022398
0.096147982
0.10572274
0.1125592
0.1169742
0.11951861
0.12077751
0.12125391
0.12131903
0.12121068
0.12105941
0.12092389
0.12082223
0.12075384
0.12071192
0.12068926
0.12068013
0.12068055
0.1206878
0.12070009
0.12071624
0.12073558
0.12075778
0.12078295
0.12081147
0.12084402
0.12088142
0.12092451
0.12097389
0.1210298
0.1210917
0.12115801
0.046947486
0.057067596
0.070919958
0.084748528
0.096824205
0.10627071
0.11294324
0.11719617
0.11960538
0.12076732
0.12118466
0.12122095
0.12110369
0.12095422
0.12082473
0.12072964
0.12066679
0.12062899
0.12060916
0.12060189
0.12060341
0.12061122
0.12062363
0.12063951
0.1206582
0.12067938
0.12070317
0.12073004
0.1207608
0.12079642
0.12083791
0.1208861
0.12094138
0.12100338
0.12107078
0.12114124
0.1212113
0.12127678
0.0472991
0.057574634
0.071575867
0.085457144
0.097479177
0.10679594
0.11330562
0.11739975
0.11967841
0.12074829
0.12111082
0.12112128
0.12099686
0.12084994
0.12072661
0.12063797
0.12058049
0.1205467
0.12052969
0.1205243
0.12052703
0.12053554
0.12054823
0.12056403
0.12058225
0.12060256
0.12062505
0.12065019
0.12067888
0.12071224
0.12075148
0.12079772
0.1208516
0.12091297
0.12098077
0.12105288
0.12112624
0.12119691
0.12126058
0.12131398
0.047646296
0.058076127
0.072221821
0.086150805
0.098115321
0.10730071
0.11364849
0.11758697
0.11973957
0.12072212
0.12103381
0.1210212
0.12089109
0.12074723
0.12062999
0.12054751
0.12049509
0.12046507
0.12045072
0.12044716
0.1204511
0.12046036
0.12047343
0.12048928
0.12050719
0.12052681
0.12054814
0.12057163
0.12059817
0.120629
0.12066554
0.12070918
0.1207609
0.12082091
0.12088842
0.12096159
0.12103766
0.12111301
0.1211834
0.12124486
0.12129591
0.12133954
0.047990895
0.058575063
0.072860756
0.086832241
0.098735084
0.10778716
0.11397371
0.11775947
0.11979029
0.12069002
0.12095467
0.12092153
0.12078704
0.12064659
0.12053527
0.12045856
0.12041079
0.1203842
0.12037227
0.12037037
0.12037541
0.12038536
0.12039882
0.12041476
0.12043248
0.12045156
0.12047193
0.12049394
0.12051846
0.12054676
0.1205804
0.12062106
0.12067005
0.12072801
0.12079458
0.12086822
0.12094643
0.12102589
0.12110254
0.12117202
0.1212314
0.12128131
0.12132537
0.048334078
0.05907346
0.073494985
0.087503639
0.099340394
0.1082569
0.11428257
0.11791825
0.11983136
0.12065262
0.12087387
0.12082263
0.12068498
0.12054827
0.12044268
0.12037133
0.12032777
0.12030422
0.1202944
0.12029392
0.1202999
0.12031043
0.12032419
0.12034022
0.12035779
0.12037645
0.12039604
0.12041684
0.1204396
0.12046557
0.12049643
0.12053402
0.12057999
0.12063542
0.1207004
0.12077381
0.12085346
0.12093632
0.1210185
0.12109555
0.12116346
0.12122067
0.12126821
0.1213074
0.12134222
0.048676252
0.059572009
0.074125548
0.088166128
0.099932279
0.10871078
0.11457569
0.11806375
0.11986305
0.12061002
0.12079138
0.1207244
0.1205848
0.12045217
0.12035216
0.12028581
0.12024606
0.1202252
0.12021719
0.1202179
0.12022463
0.1202356
0.12024958
0.12026563
0.12028306
0.12030138
0.12032038
0.12034023
0.12036157
0.12038558
0.12041394
0.12044863
0.12049156
0.12054413
0.1206069
0.12067924
0.12075939
0.12084465
0.12093142
0.12101531
0.12109167
0.121157
0.12120972
0.12124947
0.121282
0.12135338
0.049017234
0.060070335
0.074752333
0.088819784
0.10051089
0.10914896
0.11485323
0.11819606
0.11988534
0.12056208
0.12070693
0.12062648
0.12048609
0.12035794
0.12026343
0.12020179
0.12016553
0.12014705
0.12014061
0.12014233
0.12014968
0.120161
0.12017512
0.12019116
0.12020845
0.12022649
0.12024504
0.12026417
0.12028442
0.12030685
0.12033309
0.12036513
0.12040506
0.12045456
0.12051457
0.12058495
0.12066451
0.12075101
0.12084128
0.1209311
0.12101546
0.1210894
0.12114882
0.12119129
0.12122332
0.12129371
0.12156805
0.12245612
0.049356619
0.060567662
0.0753747
0.089464096
0.10107587
0.10957127
0.11511518
0.11831526
0.11989828
0.12050871
0.12062027
0.12052847
0.12038841
0.1202651
0.12017604
0.1201189
0.12008586
0.12006953
0.12006449
0.1200671
0.12007501
0.12008666
0.12010092
0.12011697
0.12013414
0.12015195
0.12017013
0.12018871
0.1202081
0.12022926
0.12025367
0.1202833
0.12032029
0.12036656
0.12042338
0.12049109
0.12056906
0.12065563
0.12074817
0.1208428
0.12093438
0.12101694
0.12108421
0.12113156
0.12116515
0.12123477
0.12150391
0.12237631
0.12674004
0.049694152
0.061063485
0.075992092
0.090098547
0.10162686
0.10997759
0.11536167
0.11842164
0.11990217
0.1204501
0.12053139
0.12043018
0.12029141
0.12017323
0.12008956
0.12003671
0.12000667
0.11999231
0.11998852
0.11999195
0.1200004
0.12001241
0.12002689
0.12004302
0.12006014
0.12007779
0.12009566
0.12011376
0.12013242
0.12015248
0.12017528
0.1202027
0.12023687
0.12027987
0.12033326
0.12039782
0.12047342
0.12055899
0.12065251
0.12075061
0.12084829
0.12093899
0.12101483
0.12106898
0.12110638
0.12117603
0.12143807
0.12229067
0.12679938
0.05002992
0.06155792
0.076604462
0.090723004
0.10216383
0.11036812
0.11559316
0.11851583
0.11989767
0.12038677
0.12044058
0.12033166
0.12019494
0.12008206
0.12000367
0.11995489
0.11992763
0.11991505
0.11991238
0.11991654
0.11992553
0.11993794
0.11995273
0.11996905
0.11998625
0.12000381
0.12002144
0.12003912
0.12005713
0.12007621
0.12009759
0.12012303
0.1201546
0.12019445
0.12024437
0.12030548
0.12037811
0.12046173
0.12055495
0.12065503
0.12075742
0.12085537
0.12093987
0.12100232
0.12104584
0.12111708
0.12137131
0.12220322
0.12685805
0.050364335
0.062051575
0.077212275
0.091337811
0.10268715
0.11074338
0.11581036
0.11859869
0.11988565
0.12031947
0.12034839
0.1202332
0.1200991
0.11999157
0.11991826
0.1198733
0.11984859
0.11983759
0.11983589
0.11984067
0.11985012
0.11986294
0.11987809
0.11989471
0.11991208
0.11992969
0.1199472
0.11996456
0.11998205
0.12000033
0.12002053
0.12004428
0.12007356
0.12011051
0.12015704
0.12021453
0.12028368
0.1203645
0.12045619
0.12055672
0.12066221
0.1207661
0.12085884
0.12093056
0.12098237
0.12105721
0.12130409
0.1221165
0.12692134
0.050697788
0.062545027
0.077816101
0.091943544
0.1031974
0.11110402
0.11601406
0.11867111
0.11986701
0.12024897
0.12025538
0.1201352
0.12000413
0.11990189
0.11983342
0.11979201
0.11976961
0.11975999
0.11975909
0.11976436
0.11977414
0.11978726
0.11980273
0.11981966
0.11983731
0.1198551
0.11987265
0.11988991
0.1199071
0.11992485
0.1199442
0.11996662
0.11999396
0.12002827
0.12007151
0.12012528
0.1201906
0.1202679
0.12035694
0.12045644
0.12056326
0.1206715
0.12077168
0.12085318
0.12091511
0.12099556
0.12123646
0.12203303
0.12698274
0.051030153
0.06303826
0.078416164
0.092540587
0.10369503
0.11145057
0.11620487
0.11873379
0.11984243
0.12017587
0.12016202
0.12003797
0.11991026
0.1198132
0.11974932
0.11971123
0.11969095
0.11968256
0.11968229
0.11968785
0.1196978
0.11971105
0.11972669
0.11974385
0.11976176
0.11977981
0.1197976
0.11981499
0.1198322
0.11984977
0.11986863
0.1198901
0.11991583
0.11994776
0.11998788
0.12003795
0.12009926
0.12017256
0.12025807
0.12035516
0.12046157
0.12057241
0.1206789
0.12077028
0.12084361
0.12093141
0.12116849
0.12195525
0.12704645
0.051360576
0.063530431
0.079012048
0.093128836
0.10418013
0.11178325
0.11638314
0.11878712
0.11981232
0.12010052
0.12006858
0.11994171
0.11981764
0.11972567
0.11966615
0.11963118
0.11961286
0.11960558
0.11960585
0.11961158
0.1196215
0.11963465
0.11965023
0.11966743
0.1196855
0.11970381
0.11972192
0.11973967
0.11975717
0.11977489
0.11979362
0.11981449
0.11983899
0.1198689
0.11990618
0.11995273
0.1200101
0.12007925
0.12016065
0.12025419
0.12035854
0.1204701
0.12058139
0.12068209
0.12076748
0.12086431
0.12110062
0.12188429
0.12709539
0.051687509
0.064019962
0.079602662
0.093707624
0.10465234
0.11210195
0.11654892
0.11883125
0.1197768
0.12002298
0.11997505
0.11984639
0.11972625
0.11963928
0.11958397
0.11955196
0.11953552
0.11952931
0.11953006
0.11953589
0.11954564
0.11955851
0.11957378
0.11959077
0.11960879
0.11962724
0.11964566
0.11966384
0.1196818
0.11969989
0.11971877
0.11973942
0.11976313
0.11979152
0.11982648
0.11986998
0.11992368
0.11998871
0.12006566
0.12015475
0.12025557
0.12036594
0.12048014
0.12058894
0.12068639
0.12079402
0.12103361
0.1218224
0.12713893
0.052009118
0.064504889
0.080186473
0.094275908
0.10511104
0.11240636
0.11670211
0.11886615
0.11973586
0.11994317
0.11988129
0.11975183
0.11963592
0.11955392
0.11950268
0.11947352
0.11945892
0.11945378
0.11945505
0.11946097
0.11947052
0.11948299
0.11949778
0.11951432
0.11953204
0.11955041
0.11956899
0.11958751
0.11960593
0.11962448
0.11964372
0.11966448
0.11968792
0.11971547
0.11974884
0.1197899
0.11984033
0.11990133
0.11997359
0.12005758
0.12015367
0.12026115
0.12037628
0.12049148
0.12060027
0.12071996
0.12096729
0.12177144
0.12720315
0.052323976
0.064983371
0.080761938
0.094832566
0.10555559
0.11269623
0.1168427
0.11889191
0.11968953
0.11986103
0.11978713
0.11965782
0.11954642
0.11946937
0.11942209
0.11939573
0.11938294
0.11937891
0.11938075
0.11938685
0.11939624
0.1194083
0.11942253
0.11943847
0.11945568
0.1194737
0.11949218
0.11951082
0.11952954
0.1195485
0.11956819
0.11958937
0.11961305
0.11964045
0.119673
0.11971232
0.11975993
0.11981704
0.11988446
0.11996295
0.12005351
0.12015683
0.12027116
0.12039073
0.12050909
0.12064075
0.12090012
0.12173198
0.12728965
0.052631536
0.065454171
0.081327902
0.095376767
0.10598557
0.11297155
0.11697092
0.11890884
0.11963805
0.11977665
0.11969254
0.11956422
0.11945758
0.11938545
0.11934204
0.11931839
0.11930741
0.11930451
0.11930702
0.11931339
0.11932273
0.11933445
0.11934813
0.11936341
0.11937993
0.11939738
0.11941546
0.11943393
0.11945272
0.11947197
0.11949213
0.11951392
0.11953822
0.11956602
0.11959841
0.11963662
0.11968194
0.1197355
0.11979823
0.11987112
0.11995576
0.12005398
0.12016589
0.12028743
0.12041278
0.12055526
0.12083033
0.12170248
0.12738278
0.052932248
0.065916879
0.081883834
0.095908169
0.10640096
0.11323262
0.11708731
0.11891752
0.11958191
0.11969035
0.11959767
0.11947105
0.11936936
0.1193021
0.11926246
0.11924144
0.11923221
0.11923045
0.11923366
0.11924038
0.11924977
0.11926127
0.11927446
0.11928906
0.11930481
0.1193215
0.11933893
0.11935698
0.1193756
0.11939501
0.11941563
0.11943812
0.11946325
0.11949175
0.11952441
0.11956207
0.11960572
0.11965634
0.11971485
0.1197824
0.11986093
0.1199532
0.12006094
0.12018198
0.12031173
0.12046373
0.12075753
0.12168108
0.12747006
0.053227335
0.066371909
0.082429903
0.096426962
0.10680215
0.11348005
0.11719265
0.11891876
0.11952181
0.11960265
0.11950285
0.11937853
0.11928188
0.1192194
0.11918338
0.11916488
0.11915734
0.11915667
0.11916056
0.11916765
0.11917713
0.11918845
0.11920122
0.11921518
0.11923013
0.11924595
0.11926259
0.11928003
0.11929836
0.11931784
0.1193389
0.11936212
0.1193881
0.11941741
0.11945054
0.11948805
0.11953064
0.11957905
0.11963403
0.11969668
0.1197691
0.11985465
0.11995656
0.12007482
0.12020656
0.12036661
0.12068092
0.12166363
0.12754942
0.11371465
0.11728787
0.1189135
0.11945858
0.11951421
0.11940856
0.11928697
0.11919536
0.11913749
0.11910492
0.11908879
0.11908282
0.11908316
0.11908765
0.11909504
0.11910456
0.1191157
0.11912807
0.11914142
0.11915559
0.11917056
0.11918637
0.11920316
0.11922115
0.11924068
0.11926215
0.11928605
0.11931284
0.11934291
0.11937657
0.11941416
0.11945611
0.11950288
0.11955495
0.11961322
0.11967978
0.11975827
0.11985309
0.11996639
0.12009748
0.12026353
0.12059911
0.12164761
0.12761378
0.11919671
0.11911005
0.11905656
0.11902721
0.11901326
0.11900868
0.11900991
0.11901488
0.11902246
0.11903193
0.11904283
0.11905479
0.11906756
0.11908102
0.11909521
0.11911028
0.11912647
0.11914414
0.11916367
0.11918547
0.11920994
0.11923742
0.11926815
0.11930229
0.11934001
0.1193815
0.11942693
0.1194765
0.11953094
0.11959222
0.11966396
0.11975105
0.11985737
0.11998487
0.12015444
0.12051151
0.12163017
0.12765323
0.11893496
0.1189369
0.11894222
0.11894987
0.11895921
0.1189698
0.11898133
0.11899356
0.11900642
0.11901995
0.11903438
0.11905004
0.11906736
0.11908679
0.11910875
0.11913362
0.11916162
0.11919289
0.11922744
0.11926525
0.11930629
0.1193505
0.11939792
0.11944916
0.11950601
0.1195717
0.11965098
0.11974877
0.11986995
0.12004069
0.12041912
0.12161084
0.12766333
0.11888646
0.11889671
0.11890782
0.11891957
0.1189319
0.11894486
0.11895872
0.11897386
0.11899075
0.11900992
0.11903183
0.11905684
0.11908516
0.1191168
0.11915165
0.1191895
0.11923015
0.1192734
0.11931918
0.11936799
0.11942126
0.11948157
0.11955313
0.11964148
0.11975455
0.11992501
0.12032473
0.1215903
0.12764116
0.11887004
0.11888335
0.11889791
0.11891426
0.11893297
0.11895457
0.11897947
0.11900785
0.11903965
0.11907466
0.11911254
0.11915301
0.1191958
0.11924071
0.11928792
0.11933828
0.11939353
0.11945731
0.11953572
0.11963984
0.11980964
0.12023123
0.12157125
0.12759961
0.11885596
0.11887704
0.11890155
0.1189297
0.11896141
0.11899642
0.11903441
0.11907506
0.11911803
0.11916282
0.11920905
0.1192568
0.11930696
0.11936274
0.119431
0.11952622
0.11969615
0.12014092
0.12155512
0.12755206
0.11888231
0.11891722
0.11895538
0.11899648
0.11904006
0.11908519
0.11913074
0.11917592
0.11922089
0.11926862
0.11932699
0.11941424
0.11958624
0.1200564
0.12154443
0.12748242
0.11891737
0.11896164
0.11900713
0.11905197
0.11909458
0.11913457
0.11917489
0.11922463
0.11930588
0.11948278
0.11998085
0.12153957
0.12738662
0.11897213
0.11901238
0.11904808
0.1190823
0.11912534
0.119203
0.1193874
0.11991466
0.12153912
0.12725461
0.11899158
0.11902964
0.11910576
0.11929999
0.11985817
0.12154315
0.12707521
0.11922145
0.11980797
0.12155044
0.12681847
0.1215594
0.12650909
0.043876604
)
;

boundaryField
{
    Side
    {
        type            empty;
    }
    Inlet
    {
        type            calculated;
        value           nonuniform List<scalar> 
25
(
0.13283658
0.13283794
0.13283873
0.13283914
0.13283947
0.13283998
0.13284084
0.13284214
0.13284387
0.13284594
0.13284815
0.13285039
0.13285265
0.13285492
0.13285723
0.13285965
0.13286235
0.13286542
0.13286892
0.13287288
0.13287729
0.1328821
0.13288726
0.13289285
0.13289905
)
;
    }
    Airfoil
    {
        type            compressible::alphatWallFunction;
        value           nonuniform List<scalar> 0();
    }
    Outlet
    {
        type            calculated;
        value           nonuniform List<scalar> 0();
    }
    procBoundary12to4
    {
        type            processor;
        value           uniform 0.043483692;
    }
    procBoundary12to5
    {
        type            processor;
        value           nonuniform List<scalar> 
30
(
0.04427025
0.044663357
0.045055386
0.045445311
0.045831615
0.046212686
0.046588091
0.046958631
0.047325676
0.047690474
0.048053659
0.048415085
0.048774096
0.049129879
0.049481777
0.049829331
0.050172096
0.050509404
0.05084043
0.051164426
0.051481152
0.051791172
0.052095836
0.052396983
0.052696584
0.052996202
0.053296701
0.053598153
0.052890486
0.04427025
)
;
    }
    procBoundary12to6
    {
        type            processor;
        value           uniform 0.053518213;
    }
    procBoundary12to11
    {
        type            processor;
        value           nonuniform List<scalar> 
65
(
0.043101598
0.0514657
0.063612823
0.076636352
0.089885746
0.089885746
0.10040272
0.10856417
0.11437785
0.11816831
0.12039398
0.12152043
0.12152043
0.12189789
0.1219259
0.1218033
0.12164364
0.12139886
0.12139886
0.12129703
0.12122946
0.12118941
0.1210863
0.1210863
0.12108243
0.1210883
0.12110127
0.12103784
0.12103784
0.12106
0.12108558
0.12111429
0.12106256
0.12106256
0.12109779
0.12113717
0.12109672
0.12109672
0.12114641
0.12120144
0.1211777
0.1211777
0.12124217
0.12122616
0.12122616
0.12129226
0.12135214
0.1213335
0.1213335
0.12137907
0.12135713
0.12135713
0.1213956
0.12138163
0.12138163
0.12136591
0.12136591
0.12140474
0.12141464
0.12141464
0.12163012
0.12163012
0.12252835
0.12668942
0.12668942
)
;
    }
    procBoundary12to13
    {
        type            processor;
        value           nonuniform List<scalar> 
60
(
0.066820094
0.082966686
0.09693363
0.1071897
0.1071897
0.11393715
0.11737377
0.11890255
0.11939292
0.11942556
0.11931517
0.11931517
0.11910783
0.11902597
0.1189766
0.11895024
0.11893827
0.11893827
0.11886154
0.11886409
0.11886967
0.1188773
0.1188773
0.11881377
0.1188237
0.11883441
0.11884572
0.11885757
0.11885757
0.11879548
0.11880823
0.11882217
0.11883785
0.11883785
0.11877896
0.11879932
0.11882322
0.11885088
0.11885088
0.11880267
0.11883737
0.1188757
0.1188757
0.1188377
0.11888244
0.11892807
0.11892807
0.11889135
0.1189297
0.11896206
0.11896206
0.11890279
0.11893738
0.1190141
0.1190141
0.1191505
0.11976854
0.11976854
0.12157182
0.12618862
)
;
    }
}


// ************************************************************************* //
