/*--------------------------------*- C++ -*----------------------------------*\
| =========                 |                                                 |
| \\      /  F ield         | OpenFOAM: The Open Source CFD Toolbox           |
|  \\    /   O peration     | Version:  2506                                  |
|   \\  /    A nd           | Website:  www.openfoam.com                      |
|    \\/     M anipulation  |                                                 |
\*---------------------------------------------------------------------------*/
FoamFile
{
    version     2.0;
    format      ascii;
    arch        "LSB;label=32;scalar=64";
    class       volScalarField;
    location    "1.5";
    object      omega;
}
// * * * * * * * * * * * * * * * * * * * * * * * * * * * * * * * * * * * * * //

dimensions      [0 0 -1 0 0 0 0];

internalField   nonuniform List<scalar> 
1375
(
38.024213
33.518149
29.809068
40.826924
37.261354
32.85142
29.258022
26.676457
24.879445
23.630557
22.76304
22.166655
40.075676
36.529048
32.215636
28.731886
26.241813
24.514637
23.318637
22.491795
21.927003
21.550622
21.309093
21.162589
21.081967
21.045242
21.034425
39.341476
35.83117
31.615725
28.235019
25.828971
24.1658
23.018615
22.229652
21.694506
21.341163
21.117205
20.983822
20.91263
20.882044
20.874121
20.876437
20.895594
20.924254
20.958185
38.623741
35.16606
31.050008
27.766713
25.438161
23.833707
22.73145
21.977536
21.469927
21.13803
20.930444
20.80927
20.746764
20.721596
20.715927
20.721124
20.742953
20.772759
20.807447
20.846086
20.888112
20.93323
20.981343
37.925157
34.529817
30.513317
27.323147
25.06722
23.517382
22.456863
21.735515
21.253474
20.941446
20.748982
20.639019
20.584348
20.563837
20.560015
20.568424
20.592398
20.623189
20.658549
20.697655
20.740004
20.785343
20.833605
20.88485
20.939218
20.996909
21.05818
37.251193
33.919217
30.000105
26.899674
24.713041
23.214948
22.193774
21.502991
21.044828
20.751248
20.572731
20.472994
20.425276
20.408737
20.406521
20.418201
20.443867
20.475499
20.511444
20.550962
20.593597
20.639129
20.687515
20.738833
20.79324
20.850948
20.912219
20.977373
21.046802
21.120979
36.607504
33.332863
29.506503
26.492527
24.372733
22.924363
21.940769
21.278978
20.843301
20.56696
20.401358
20.310929
20.269352
20.256275
20.255481
20.270331
20.297319
20.329664
20.366109
20.40598
20.448863
20.494562
20.543048
20.594412
20.648822
20.706503
20.767724
20.83281
20.902149
20.976202
21.05552
21.140753
21.232673
35.996605
32.770322
29.030384
26.099191
24.044039
22.643791
21.696396
21.062342
20.648014
20.387914
20.234356
20.152459
20.11639
20.106204
20.10692
20.124692
20.152723
20.185668
20.22253
20.262691
20.305775
20.351607
20.400167
20.451548
20.505927
20.563537
20.62466
20.689626
20.758824
20.832707
20.911814
20.996779
21.088362
21.187465
21.295149
35.415721
32.230255
28.570329
25.717991
23.725254
22.371684
21.459341
20.852001
20.458099
20.213421
20.071193
19.997211
19.966116
19.958189
19.960888
19.981157
20.010034
20.043488
20.080689
20.121073
20.164301
20.210222
20.25882
20.310187
20.364502
20.422003
20.482982
20.547779
20.616784
20.690451
20.769304
20.853963
20.945172
21.04382
21.15096
21.267823
21.395852
21.536779
34.857184
31.708803
28.123987
25.347039
23.414688
22.106563
21.228379
20.646984
20.272802
20.042903
19.911431
19.844852
19.81823
19.81213
19.817265
19.839604
19.869188
19.903079
19.940552
19.981092
20.024403
20.070357
20.118948
20.170267
20.224486
20.281847
20.342647
20.407232
20.476001
20.549405
20.627963
20.712279
20.803082
20.901245
21.007806
21.123983
21.251204
21.391179
21.546027
21.718447
34.311386
31.200218
27.687955
24.983996
23.110493
21.846936
21.002352
20.446438
20.091516
19.87593
19.754754
19.695124
19.672525
19.668007
19.675901
19.699922
19.730116
19.764382
19.802066
19.842702
19.886037
19.931968
19.980503
20.031733
20.085827
20.143021
20.203614
20.267957
20.336455
20.409558
20.487782
20.571723
20.66209
20.759738
20.865683
20.981126
21.107479
21.246435
21.400082
21.571081
21.762859
21.979768
33.770701
30.69928
27.259064
24.62681
22.811149
21.591619
20.780368
20.249734
19.913819
19.712222
19.600963
19.547856
19.5289
19.525835
19.536651
19.562016
19.59274
19.627327
19.665172
19.705855
19.749161
19.795018
19.843448
19.89455
19.948489
20.005494
20.06586
20.129937
20.198131
20.270898
20.348753
20.432286
20.522191
20.619296
20.724592
20.839252
20.964673
21.102535
21.254905
21.42441
21.614417
21.829179
22.073677
33.232394
30.20381
26.836213
24.27499
22.51637
21.340373
20.562215
20.056696
19.739583
19.551685
19.449965
19.402949
19.387317
19.385645
19.399391
19.425816
19.456997
19.491851
19.529811
19.5705
19.613738
19.659478
19.707763
19.7587
19.812453
19.869248
19.929371
19.993166
20.061036
20.133434
20.210879
20.293958
20.383358
20.479885
20.584498
20.698339
20.822779
20.959486
21.110506
21.278428
21.466568
21.679085
21.920757
22.196162
22.508695
32.698967
29.714615
26.420153
23.929443
22.227054
21.09393
20.348404
19.867638
19.568975
19.394378
19.301735
19.260362
19.247833
19.247435
19.264021
19.291268
19.322837
19.357905
19.395939
19.436601
19.47974
19.525332
19.573437
19.624173
19.67771
19.734272
19.794134
19.857632
19.925159
19.997166
20.074166
20.156747
20.245589
20.341482
20.445363
20.558343
20.681764
20.817265
20.966871
21.133139
21.319325
21.529494
21.768243
22.039774
22.347107
22.698849
32.176891
29.235319
26.013389
23.592223
21.944929
20.85364
20.139885
19.683156
19.402319
19.240434
19.15632
19.120159
19.110214
19.111356
19.130449
19.15833
19.190219
19.225451
19.263523
19.304131
19.347149
19.39257
19.440469
19.490974
19.544262
19.600557
19.66013
19.723307
19.790472
19.862066
19.938594
20.02064
20.108877
20.204087
20.307185
20.419259
20.541615
20.675863
20.824002
20.988557
21.17272
21.380457
21.616171
21.883733
22.18579
22.531163
22.983695
31.673795
28.771051
25.61949
23.26601
21.672061
20.621024
19.937671
19.503844
19.2399
19.089951
19.013741
18.982289
18.974377
18.977466
18.9986
19.026969
19.059114
19.094459
19.132532
19.173062
19.215942
19.261177
19.308849
19.359097
19.412106
19.468101
19.527353
19.590179
19.656951
19.7281
19.804125
19.885599
19.973191
20.067671
20.169942
20.281068
20.402324
20.535286
20.681921
20.84472
21.026817
21.232058
21.464648
21.728114
22.024792
22.363748
22.811103
23.845366
31.16282
31.195096
28.32586
25.241379
22.952949
21.410046
20.39721
19.742482
19.330085
19.081862
18.942938
18.873947
18.846649
18.840373
18.8457
18.868423
18.897166
18.929506
18.964914
19.00295
19.043372
19.086091
19.131122
19.17855
19.228522
19.281226
19.336891
19.395788
19.45823
19.52458
19.595259
19.670752
19.751622
19.838525
19.932225
20.033615
20.143748
20.263872
20.395526
20.54064
20.701666
20.881677
21.084392
21.313772
21.573034
21.864228
22.196717
22.639112
23.685929
31.1029
30.742263
27.901331
24.880076
22.653552
21.159116
20.182278
19.554297
19.16179
18.928076
18.79926
18.736803
18.713136
18.708242
18.715959
18.739879
18.768907
18.801381
18.836804
18.874764
18.915047
18.957579
19.002382
19.049547
19.09922
19.151594
19.206902
19.265414
19.327442
19.39334
19.463519
19.538452
19.61869
19.704877
19.797765
19.898235
20.007325
20.126276
20.256595
20.400174
20.559421
20.737334
20.937495
21.163616
21.418578
21.704171
22.030188
22.46788
23.529997
31.192965
30.313128
27.497092
24.535156
22.367039
20.918341
19.975362
19.372411
18.998426
18.778156
18.658646
18.602112
18.581643
18.577986
18.588132
18.612935
18.642171
18.674725
18.710115
18.747958
18.788066
18.830381
18.874932
18.921812
18.971168
19.023191
19.078116
19.136214
19.197794
19.263209
19.332858
19.407203
19.486781
19.572223
19.664268
19.763786
19.871801
19.98954
20.118497
20.260526
20.417982
20.593784
20.791364
21.014177
21.264753
21.544653
21.864222
22.297595
23.378377
31.376276
29.903102
27.110935
24.204731
22.091494
20.685922
19.774954
19.195681
18.839194
18.631577
18.520752
18.469648
18.452061
18.449568
18.462113
18.487553
18.516935
18.549517
18.584828
18.622516
18.662414
18.704479
18.748749
18.795319
18.844334
18.895986
18.950506
19.008165
19.069269
19.134168
19.203255
19.276983
19.355876
19.44055
19.531728
19.630266
19.737174
19.853667
19.98122
20.121668
20.277312
20.450985
20.645948
20.865405
21.111514
21.385631
21.698822
22.128441
23.230087
31.379436
29.507379
26.740452
23.886773
21.824927
20.460022
19.579535
19.022975
18.683318
18.487836
18.385256
18.339203
18.324287
18.322932
18.337798
18.363687
18.393165
18.425729
18.460919
18.498417
18.538073
18.579858
18.623817
18.67005
18.7187
18.769957
18.824048
18.881241
18.941841
19.006191
19.074683
19.14776
19.225938
19.309821
19.400116
19.497658
19.60344
19.718658
19.84477
19.983586
20.137361
20.308851
20.501145
20.717173
20.958752
21.22707
21.534009
21.960507
23.085106
31.3327
29.122653
26.384228
23.580118
21.566165
20.239527
19.388153
18.853562
18.530287
18.346591
18.251917
18.210623
18.198275
18.197983
18.215079
18.241277
18.270812
18.303321
18.338357
18.375632
18.415017
18.456494
18.500114
18.545982
18.594244
18.645082
18.698721
18.755422
18.815487
18.879257
18.947117
19.019507
19.096936
19.179996
19.269381
19.365907
19.470549
19.584479
19.709125
19.846267
19.998113
20.167339
20.356877
20.569389
20.806387
21.068901
21.369664
21.79347
22.945216
31.51454
28.74763
26.041754
23.28473
21.315314
20.024518
19.200831
18.687424
18.380055
18.207775
18.120672
18.083898
18.073782
18.074794
18.09386
18.120266
18.14983
18.182255
18.21711
18.254135
18.293224
18.334365
18.377617
18.42309
18.470932
18.521323
18.574483
18.630668
18.690171
18.75333
18.820528
18.8922
18.968848
19.051053
19.139498
19.234982
19.338458
19.451071
19.574225
19.70966
19.85953
20.026425
20.21313
20.422038
20.654378
20.911053
21.205761
21.62739
22.810683
31.782707
28.382702
25.712416
23.000577
21.072864
19.815665
19.018182
18.525019
18.232913
18.071538
17.9916
17.959023
17.950724
17.953404
17.974068
18.00061
18.030177
18.062494
18.097148
18.133906
18.172677
18.21346
18.256321
18.30137
18.348758
18.398669
18.451316
18.506951
18.565861
18.628376
18.694877
18.765797
18.841636
18.922966
19.010454
19.104876
19.207163
19.318432
19.440056
19.57374
19.721589
19.886101
20.069912
20.275137
20.502742
20.753582
21.042364
21.462534
22.679895
31.789461
28.029328
25.395533
22.727545
20.839359
19.613789
18.840995
18.366955
18.089254
17.938103
17.864804
17.836
17.829179
17.83378
17.855653
17.882271
17.911813
17.943997
17.97843
18.014902
18.053338
18.093745
18.136194
18.1808
18.227713
18.277115
18.329221
18.384276
18.442561
18.504402
18.570173
18.640307
18.7153
18.795718
18.882218
18.97556
19.076644
19.186555
19.306628
19.438532
19.584327
19.746412
19.92727
20.128763
20.351584
20.596616
20.879606
21.29904
22.552909
31.801333
27.68879
25.089852
22.464892
20.614847
19.419354
18.66981
18.213663
17.949353
17.807615
17.740341
17.71484
17.709252
17.715875
17.738602
17.765238
17.794715
17.826733
17.86092
17.897087
17.935167
17.97518
18.017199
18.06134
18.107758
18.156633
18.208178
18.262633
18.320276
18.381424
18.446447
18.51577
18.589888
18.669362
18.754835
18.847052
18.946888
19.055404
19.173907
19.30402
19.447747
19.607398
19.785286
19.983021
20.201007
20.440261
20.717718
21.137092
22.433823
32.102818
27.36104
24.793126
22.21093
20.398495
19.232089
18.50461
18.065194
17.813242
17.680074
17.618182
17.595533
17.591007
17.599624
17.622906
17.649506
17.678873
17.710688
17.744598
17.780435
17.818141
17.857741
17.899312
17.942973
17.988877
18.037206
18.088171
18.14201
18.198994
18.259436
18.323699
18.392201
18.465428
18.54393
18.628341
18.719392
18.817942
18.925022
19.041906
19.170185
19.311823
19.469035
19.643944
19.837897
20.051026
20.284527
20.556706
20.976915
22.322823
32.388109
27.0444
24.502557
21.96319
20.188506
19.050801
18.344659
17.921078
17.680617
17.555283
17.498198
17.478025
17.474449
17.484955
17.508556
17.535065
17.564274
17.595842
17.629443
17.664922
17.702233
17.741403
17.782512
17.825679
17.871058
17.91883
17.969204
18.022415
18.07873
18.138457
18.201946
18.269609
18.341919
18.41942
18.502735
18.592585
18.689807
18.795414
18.910657
19.037085
19.1766
19.331336
19.503233
19.693362
19.901608
20.129405
20.396613
20.818944
22.219099
32.46863
18.188881
17.780543
17.55096
17.432907
17.380185
17.362226
17.359532
17.3718
17.395543
17.421914
17.450915
17.482194
17.515447
17.550536
17.587423
17.626141
17.666769
17.709429
17.754274
17.801482
17.851259
17.903836
17.959475
18.018475
18.08118
18.14799
18.219368
18.295843
18.378027
18.466626
18.562468
18.666554
18.780109
18.904655
19.042027
19.194247
19.363064
19.549289
19.752611
19.974795
20.237361
20.663065
22.123577
32.655722
17.248034
17.246181
17.260091
17.283849
17.310043
17.338795
17.369746
17.402617
17.437286
17.473723
17.511964
17.552092
17.594229
17.638524
17.685153
17.73432
17.786249
17.841198
17.899458
17.961364
18.027305
18.097732
18.173163
18.254192
18.341511
18.435937
18.538452
18.650265
18.772869
18.908042
19.057683
19.223352
19.405586
19.603926
19.820556
20.078768
20.50878
22.036952
33.040917
17.227884
17.258473
17.290933
17.325156
17.361119
17.398863
17.438473
17.480069
17.523799
17.569836
17.618376
17.669641
17.723881
17.781381
17.842467
17.907516
17.976965
18.051318
18.13116
18.217169
18.310148
18.411064
18.521108
18.641733
18.774645
18.92162
19.084018
19.262142
19.455435
19.66656
19.920645
20.355754
21.957842
33.393723
17.286817
17.325886
17.366921
17.410067
17.455492
17.503389
17.553972
17.607486
17.664209
17.724458
17.788598
17.857051
17.930305
18.008929
18.093588
18.185077
18.284353
18.392588
18.511197
18.641799
18.786026
18.945046
19.118945
19.307127
19.512782
19.762906
20.203811
21.883301
33.600275
17.389333
17.439208
17.49197
17.547891
17.607279
17.67049
17.73793
17.810073
17.887469
17.970771
18.060753
18.158361
18.26475
18.38129
18.50951
18.650895
18.806427
18.976005
19.15903
19.359267
19.605585
20.052676
21.80983
33.831264
17.490927
17.553178
17.619577
17.69058
17.766724
17.84865
17.937122
18.03307
18.137607
18.252046
18.377822
18.516283
18.668218
18.833388
19.011237
19.206131
19.448817
19.902233
21.736117
34.120018
17.646719
17.727243
17.814175
17.908423
18.011076
18.123394
18.246717
18.382216
18.530496
18.6912
18.863866
19.053509
19.292822
19.752982
21.663477
34.34465
17.784516
17.885258
17.995399
18.116189
18.248671
18.393265
18.549481
18.716975
18.901464
19.137723
19.605558
21.595624
34.508118
17.986336
18.115749
18.256583
18.40828
18.57065
18.750101
18.983648
19.460679
21.538097
34.709801
18.267629
18.424869
18.599415
18.830686
19.318916
21.493845
34.98418
18.449404
18.678885
19.180843
21.464943
35.284586
21.440086
35.55723
)
;

boundaryField
{
    Side
    {
        type            empty;
    }
    Inlet
    {
        type            fixedValue;
        value           uniform 60.24606;
    }
    Airfoil
    {
        type            omegaWallFunction;
        blending        binomial;
        n               2;
        value           nonuniform List<scalar> 0();
    }
    Outlet
    {
        type            inletOutlet;
        inletValue      nonuniform List<scalar> 0();
        value           nonuniform List<scalar> 0();
    }
    procBoundary5to4
    {
        type            processor;
        value           nonuniform List<scalar> 
64
(
38.808017
34.204998
30.376634
27.129364
27.129364
25.257422
23.95222
23.041811
22.412399
21.765856
21.765856
21.505769
21.345408
21.254756
21.211331
21.196781
21.034476
21.034476
21.050426
21.077748
21.11083
20.996296
20.996296
21.037956
21.082819
21.130747
21.032483
21.032483
21.086773
21.144403
21.205628
21.123352
21.123352
21.192825
21.267079
21.200464
21.200464
21.28592
21.378128
21.332189
21.332189
21.440366
21.412652
21.412652
21.541429
21.683243
21.692759
21.692759
21.866531
21.911914
21.911914
22.130886
22.226995
22.226995
22.352874
22.352874
22.670539
22.866767
22.866767
23.1566
23.1566
24.006331
24.006331
31.170698
)
;
    }
    procBoundary5to6
    {
        type            processor;
        value           nonuniform List<scalar> 
61
(
26.73679
24.216681
21.72011
19.98338
18.874205
18.874205
18.036501
17.64298
17.423831
17.312647
17.263958
17.263958
17.135352
17.13432
17.149745
17.173429
17.199415
17.199415
17.118154
17.148354
17.180376
17.214126
17.249592
17.249592
17.175818
17.214328
17.25478
17.297318
17.342107
17.342107
17.276211
17.325354
17.377339
17.432429
17.432429
17.375402
17.436673
17.502009
17.57185
17.57185
17.527481
17.606599
17.69198
17.69198
17.661326
17.760135
17.868088
17.868088
17.857091
17.983415
18.120469
18.120469
18.127461
18.279586
18.279586
18.299995
18.528327
19.046649
19.046649
21.441641
35.830784
)
;
    }
    procBoundary5to12
    {
        type            processor;
        value           nonuniform List<scalar> 
30
(
40.836595
40.131978
39.425653
38.714945
38.00798
37.319501
36.663788
36.047828
35.468752
34.916131
34.376893
33.840118
33.30056
32.760347
32.227618
31.713029
31.225708
30.769724
30.342892
29.938352
29.547337
29.16208
28.778682
28.398192
28.025865
27.668793
27.332946
27.019976
41.597677
41.597677
)
;
    }
}


// ************************************************************************* //
