/*--------------------------------*- C++ -*----------------------------------*\
| =========                 |                                                 |
| \\      /  F ield         | OpenFOAM: The Open Source CFD Toolbox           |
|  \\    /   O peration     | Version:  2506                                  |
|   \\  /    A nd           | Website:  www.openfoam.com                      |
|    \\/     M anipulation  |                                                 |
\*---------------------------------------------------------------------------*/
FoamFile
{
    version     2.0;
    format      ascii;
    arch        "LSB;label=32;scalar=64";
    class       volScalarField;
    location    "0.0225";
    object      T;
}
// * * * * * * * * * * * * * * * * * * * * * * * * * * * * * * * * * * * * * //

dimensions      [0 0 0 1 0 0 0];

internalField   nonuniform List<scalar> 
13761
(
245.47808
245.47809
245.47814
245.47807
245.47798
245.47793
245.47794
245.47779
245.67851
245.47751
245.67837
245.47733
245.67823
245.47738
245.67811
245.4776
245.67807
245.47776
245.67813
245.47787
245.67821
245.47794
245.67828
245.47794
245.52341
245.67836
245.47798
245.52325
245.67841
245.47813
245.52322
245.67843
245.4784
245.52349
245.67841
245.47863
245.5239
245.67839
245.47874
245.5242
245.67844
245.4788
245.52437
245.67852
245.4788
245.67483
245.52447
245.67865
245.47875
245.67487
245.52453
245.67886
245.47864
245.67492
245.52453
245.67912
245.4785
245.67498
245.52463
245.67934
245.47838
245.67507
245.52445
245.67941
245.4783
245.67517
245.52434
245.67942
245.47824
245.67532
245.52435
245.6794
245.67551
245.52454
245.6794
245.52434
245.67567
245.5247
245.67939
245.52456
245.6758
245.52476
245.67934
245.52477
245.67594
245.52484
245.6793
245.525
245.67612
245.5249
245.6793
245.52524
245.67631
245.52501
245.67938
245.52548
245.67645
245.52503
245.67954
245.52571
245.67653
245.52496
245.67972
245.52595
245.6766
245.52459
245.57014
245.52622
245.67664
245.52438
245.5707
245.52651
245.67677
245.52441
245.57125
245.52681
245.67692
245.52479
245.5718
245.52711
245.67696
245.52518
245.57234
245.5274
245.67687
245.52536
245.57288
245.52769
245.67682
245.52545
245.57342
245.52798
245.67684
245.52552
245.34796
245.57396
245.52828
245.6769
245.5256
245.34895
245.5745
245.52856
245.67696
245.34993
245.57504
245.52882
245.67706
245.35092
245.57559
245.52906
245.67716
245.35191
245.57615
245.52928
245.67736
245.3529
245.57672
245.5295
245.67762
245.3539
245.57729
245.52973
245.6778
245.19748
245.3549
245.57787
245.52998
245.67785
245.19844
245.3559
245.57845
245.53024
245.67782
245.1994
245.35691
245.57901
245.53052
245.6779
245.20037
245.35791
245.57956
245.53081
245.20135
245.35893
245.58009
245.5311
245.20235
245.35995
245.5806
245.53139
245.20336
245.36098
245.5811
245.53168
245.02257
245.20437
245.36201
245.58159
245.53197
245.02256
245.2054
245.36304
245.58209
245.53226
245.02256
245.20643
245.36409
245.5826
245.53256
245.02257
245.20747
245.36513
245.58312
245.53286
245.02257
245.20853
245.36618
245.58365
245.02258
245.20959
245.36723
245.58419
245.02259
245.21067
245.36828
245.58472
245.15239
245.0226
245.21177
245.36933
245.58525
245.15063
245.02262
245.21288
245.37038
245.58579
245.14886
245.02264
245.21401
245.37144
245.58632
245.14711
245.02267
245.21514
245.3725
245.58684
245.14534
245.0227
245.2163
245.37356
245.58736
245.1436
245.02274
245.21746
245.37462
245.58787
245.14185
245.02278
245.21863
245.37568
245.56363
245.14012
245.02282
245.2198
245.37675
245.56046
245.13838
245.02287
245.22097
245.37782
245.55739
245.13667
245.02293
245.22212
245.3789
245.55422
245.13496
245.02301
245.22326
245.37997
245.5511
245.13326
245.02313
245.22438
245.38105
245.5479
245.13157
245.02331
245.2255
245.38212
245.96462
245.54475
245.1299
245.02353
245.22663
245.38319
245.96369
245.54152
245.12822
245.02378
245.22777
245.38427
245.96281
245.53835
245.12654
245.02403
245.22892
245.96176
245.53511
245.12486
245.0243
245.23007
245.96079
245.5319
245.12318
245.02459
245.23121
245.95969
245.52863
245.1215
245.02491
245.23236
245.95873
245.52539
245.11982
245.02524
245.2335
245.75962
245.95773
245.5221
245.11815
245.02559
245.23466
245.76237
245.95685
245.51884
245.11647
245.02596
245.23582
245.76503
245.95591
245.51553
245.11477
245.02634
245.23698
245.76779
245.95499
245.51225
245.11306
245.02675
245.77049
245.95393
245.50893
245.11133
245.0272
245.77325
245.95288
245.50562
245.10959
245.02767
245.31317
245.77593
245.95168
245.50228
245.10785
245.02817
245.31446
245.77866
245.95051
245.49893
245.10613
245.02869
245.31573
245.78132
245.9492
245.49556
245.10444
245.02924
245.31708
245.78404
245.94791
245.49219
245.10282
245.02979
245.31843
245.78675
245.94648
245.4888
245.10125
245.03036
245.31983
245.78952
245.94507
245.48543
245.09973
245.29437
245.32121
245.79228
245.94354
245.48205
245.09824
245.29326
245.32266
245.79511
245.94205
245.47869
245.09678
245.29215
245.32405
245.79791
245.94046
245.47532
245.09532
245.291
245.32556
245.80074
245.9389
245.47195
245.09385
245.28983
245.32701
245.80356
245.93723
245.46856
245.09239
245.51292
245.28864
245.32861
245.80639
245.93557
245.46517
245.09093
245.51194
245.28743
245.33017
245.80923
245.9338
245.46177
245.08948
245.51085
245.28623
245.33189
245.81208
245.93203
245.45836
245.50987
245.28503
245.33358
245.81494
245.93016
245.45496
245.50875
245.28382
245.3354
245.81782
245.92828
245.45155
245.50776
245.28262
245.33718
245.82069
245.92631
245.44813
245.39843
245.50665
245.28139
245.33906
245.8236
245.92431
245.44471
245.40057
245.50566
245.28016
245.3409
245.8265
245.92224
245.44128
245.40256
245.50458
245.27889
245.34286
245.82945
245.92014
245.43785
245.40461
245.50358
245.27759
245.34479
245.83238
245.91797
245.43442
245.40659
245.50251
245.27626
245.34684
245.83535
245.91576
245.1867
245.40853
245.50146
245.2749
245.34889
245.8383
245.91348
245.18725
245.41045
245.50037
245.27353
245.35101
245.84124
245.91115
245.18749
245.41229
245.49928
245.27212
245.35318
245.84416
245.90876
245.18809
245.41411
245.49816
245.27073
245.3554
245.84709
245.90632
245.18848
245.41587
245.49705
245.26927
245.35767
245.84999
245.90384
245.2642
245.18906
245.41759
245.49592
245.26785
245.35998
245.85294
245.90132
245.26317
245.18963
245.41929
245.49479
245.26636
245.3623
245.85588
245.2624
245.19021
245.42089
245.49364
245.26491
245.36468
245.85884
245.26144
245.19096
245.42255
245.49249
245.26338
245.36704
245.86173
245.23585
245.26063
245.19159
245.42406
245.49131
245.26189
245.36946
245.86459
245.23623
245.25971
245.19246
245.42568
245.49014
245.26033
245.3719
245.86738
245.23674
245.25893
245.19322
245.42714
245.48895
245.25879
245.37441
245.87015
245.2371
245.258
245.19417
245.42873
245.48778
245.25717
245.37697
245.8729
245.23764
245.25729
245.19509
245.4302
245.48661
245.25556
245.37964
245.87563
245.12518
245.23793
245.25631
245.1961
245.43179
245.48547
245.2539
245.38236
245.12565
245.23856
245.25567
245.19716
245.43329
245.48434
245.25223
245.38515
245.1255
245.23878
245.25465
245.19822
245.43487
245.48325
245.25054
245.38797
245.12599
245.23951
245.25401
245.19936
245.4364
245.48217
245.24887
245.39086
245.11691
245.12581
245.23974
245.25298
245.20046
245.43798
245.4811
245.2472
245.39376
245.11694
245.12628
245.2405
245.25225
245.2016
245.43953
245.48006
245.24558
245.39672
245.11697
245.12609
245.24084
245.25125
245.20273
245.44111
245.47902
245.24395
245.39968
245.11713
245.12648
245.24154
245.25038
245.20384
245.44267
245.47801
245.24236
245.05382
245.11709
245.12631
245.24201
245.24941
245.20499
245.44426
245.47697
245.24074
245.05264
245.11733
245.12655
245.24265
245.24842
245.20606
245.44584
245.47596
245.23916
245.05214
245.11729
245.12639
245.24316
245.24745
245.20721
245.44743
245.47489
245.23757
245.05119
245.11758
245.12652
245.24379
245.24639
245.20825
245.449
245.47384
245.23603
245.00302
245.0508
245.11754
245.12636
245.24428
245.24539
245.20937
245.45056
245.47274
245.2345
245.00169
245.05003
245.11788
245.12649
245.24498
245.24431
245.21039
245.45211
245.47165
245.23304
244.9996
245.04971
245.11783
245.12624
245.2454
245.24328
245.21147
245.45363
245.47051
244.99827
245.04906
245.11824
245.12641
245.24621
245.24225
245.21248
245.45513
245.46937
244.98529
244.9962
245.04881
245.11812
245.12609
245.2466
245.24121
245.21354
245.45662
245.46818
244.98405
244.99477
245.04828
245.11861
245.12626
245.24749
245.24026
245.21455
245.4581
245.46695
244.98254
244.99273
245.04805
245.11841
245.12592
245.24792
245.23924
245.21561
245.45957
245.46567
244.98141
244.99115
245.04762
245.11893
245.12605
245.24882
245.23836
245.21664
245.46102
245.46434
244.93002
244.97996
244.98925
245.04741
245.11872
245.12577
245.24933
245.23742
245.2177
245.46247
245.46296
244.92828
244.97893
244.98754
245.04708
245.11921
245.12584
245.2502
245.23659
245.21873
245.4639
244.92739
244.9775
244.98587
245.04692
245.11903
245.12564
245.25076
245.23576
245.21978
245.46531
244.86797
244.92584
244.97646
244.98406
245.04666
245.11947
245.1257
245.25158
245.23497
245.2208
245.4667
244.8668
244.92482
244.975
244.98266
245.04655
245.11934
245.12554
245.25217
245.23424
245.22181
245.46808
244.86568
244.92335
244.9739
244.98078
245.0464
245.11976
245.12564
245.25292
245.23346
245.22277
245.46943
244.80404
244.8647
244.92225
244.97232
244.97958
245.04641
245.11967
245.12545
245.2535
245.23281
245.22371
245.47077
244.80369
244.86354
244.92083
244.97115
244.97766
245.04652
245.12011
245.12557
245.25419
245.23205
245.22459
244.80318
244.8628
244.91964
244.96944
244.97657
245.04684
245.12003
245.12533
245.25475
245.23145
245.22546
244.72768
244.8031
244.86157
244.9182
244.96832
244.97471
245.04731
245.12051
245.12544
245.25539
245.23072
245.22627
244.7263
244.8026
244.86104
244.91686
244.96642
244.97371
245.04769
245.12049
245.12515
245.25595
245.23014
245.22708
244.72706
244.80264
244.85969
244.91548
244.96536
244.97198
245.04834
245.12104
245.12526
245.25657
245.22947
245.22787
244.65065
244.72622
244.80224
244.85939
244.91405
244.96331
244.97106
245.04875
245.1211
245.12496
245.25712
245.2289
245.22867
244.64997
244.72704
244.80239
244.85794
244.91265
244.96228
244.96951
245.04956
245.12166
245.12508
245.25774
245.22827
245.22948
244.56128
244.64828
244.72667
244.80194
244.85767
244.91116
244.96023
244.96868
245.05004
245.12178
245.12481
245.25828
245.22772
244.56006
244.64841
244.72759
244.80221
244.85616
244.90975
244.95915
244.96733
245.05102
245.12227
245.12491
245.25889
245.22716
244.55732
244.64677
244.72753
244.80164
244.85581
244.90826
244.95719
244.96662
245.05154
245.1224
245.12468
245.25944
245.22663
244.47136
244.55656
244.64745
244.72857
244.80204
244.85435
244.90672
244.95595
244.96547
245.05266
245.12284
245.12477
245.26006
245.22613
244.46782
244.55439
244.64627
244.72885
244.80132
244.85373
244.90518
244.95417
244.96484
245.05324
245.12296
245.12455
245.26064
245.22565
244.37878
244.46672
244.55392
244.6473
244.72985
244.80171
244.8523
244.90352
244.95275
244.96384
245.05454
245.12332
245.1246
245.26129
245.22521
244.3743
244.46363
244.55236
244.64662
244.73044
244.80097
244.85148
244.90192
244.95115
244.96332
245.0552
245.12338
245.1244
245.26194
244.37235
244.46301
244.55237
244.64797
244.73142
244.80123
244.85012
244.90026
244.94956
244.96248
245.05661
245.1237
245.12445
245.26261
244.27874
244.36825
244.46042
244.5512
244.64759
244.73222
244.80045
244.84913
244.89858
244.94821
244.96208
245.05736
245.12374
245.12427
245.2633
244.27605
244.36678
244.46005
244.55155
244.64933
244.73329
244.80053
244.8478
244.89703
244.94653
244.96138
245.05886
245.12405
245.12432
245.26397
244.18283
244.27098
244.3632
244.45779
244.5507
244.64912
244.73417
244.7999
244.8467
244.89524
244.94539
244.9611
245.0597
245.12402
245.12418
245.26465
244.18026
244.26844
244.36217
244.45773
244.55136
244.65128
244.73535
244.79967
244.84532
244.89389
244.94372
244.96063
245.06123
245.12435
245.12426
245.26525
244.08534
244.17508
244.26363
244.35883
244.45585
244.55082
244.65109
244.73617
244.79927
244.84406
244.89198
244.94274
244.96047
245.06217
245.12429
245.12417
244.08384
244.17263
244.26153
244.358
244.45591
244.55187
244.65358
244.73746
244.79869
244.84256
244.89079
244.94111
244.96016
245.06374
245.12462
245.12426
243.9836
244.07965
244.16788
244.25723
244.35515
244.45429
244.55177
244.6535
244.73809
244.79838
244.84117
244.88878
244.94021
244.96004
245.06478
245.12452
245.12421
243.88994
243.98105
244.07817
244.16591
244.25581
244.35471
244.45458
244.55323
244.65641
244.7393
244.7974
244.83954
244.88773
244.93865
244.9599
245.06631
245.12484
245.12437
243.88489
243.97579
244.07377
244.16192
244.25228
244.35193
244.45316
244.55343
244.65654
244.7396
244.79708
244.83798
244.88566
244.93782
244.95984
245.06734
245.12474
245.12437
243.77253
243.88261
243.97341
244.07212
244.16047
244.25172
244.3521
244.45369
244.55503
244.65937
244.74088
244.79584
244.83619
244.88463
244.93636
244.95986
245.06882
245.12503
245.12456
243.67713
243.76869
243.87697
243.96833
244.06757
244.15714
244.24885
244.34966
244.45259
244.55549
244.65961
244.74079
244.79541
244.83449
244.8825
244.93556
244.95975
245.06986
245.12492
243.67571
243.76817
243.87409
243.96626
244.06585
244.1563
244.24901
244.35015
244.45351
244.55727
244.66191
244.74204
244.79403
244.83263
244.8815
244.9342
244.95995
245.07131
245.12514
243.53382
243.67
243.76442
243.8682
243.9612
244.06143
244.15356
244.24644
244.3482
244.45256
244.55785
244.66223
244.74168
244.79357
244.83085
244.8795
244.93355
244.95982
245.07234
245.125
243.42175
243.53109
243.6675
243.76393
243.86506
243.95921
244.05972
244.15317
244.24716
244.34896
244.45392
244.55986
244.66402
244.74264
244.79201
244.82898
244.87848
244.93239
244.96019
245.07375
245.12518
243.35763
243.41233
243.52574
243.66105
243.75999
243.85906
243.95451
244.05562
244.15063
244.2453
244.34743
244.45315
244.5604
244.6644
244.74203
244.79145
244.82722
244.87666
244.93188
244.96006
245.0748
245.12502
243.34281
243.40666
243.52395
243.65775
243.75922
243.85585
243.95282
244.05415
244.15068
244.24639
244.34849
244.45483
244.56268
244.66604
244.74264
244.78965
244.82533
244.87563
244.93086
244.96056
245.0762
243.22194
243.32509
243.39838
243.51955
243.65083
243.75516
243.84979
243.94866
244.05038
244.14831
244.24513
244.34743
244.45427
244.56314
244.66649
244.74185
244.78886
244.82354
244.87405
244.93054
244.96042
245.07726
243.07506
243.21725
243.31054
243.3943
243.51846
243.64722
243.75403
243.84668
243.94748
244.04908
244.14848
244.24648
244.34885
244.45615
244.56566
244.66789
244.74233
244.78689
244.82164
244.87299
244.92982
244.96104
245.07863
243.02498
243.07549
243.21152
243.29401
243.38792
243.51502
243.64024
243.7495
243.84071
243.94462
244.04575
244.14626
244.24552
244.34819
244.45589
244.56605
244.66821
244.74148
244.78589
244.81975
244.87168
244.9297
244.96101
245.07964
242.81738
243.00465
243.04307
243.07971
243.20813
243.28206
243.38571
243.51455
243.63653
243.74802
243.83788
243.94424
244.04498
244.14656
244.24695
244.35
244.45798
244.5687
244.66946
244.74179
244.78393
244.81784
244.87062
244.92913
244.96184
245.08097
242.69262
242.78765
242.99009
243.05853
243.08265
243.20255
243.26836
243.38174
243.51249
243.62946
243.74337
243.8322
243.94192
244.04234
244.14463
244.24612
244.34952
244.45795
244.56897
244.66946
244.74075
244.78271
244.81593
244.86956
244.92915
244.96193
245.08186
242.67061
242.68773
242.76255
242.96749
243.07015
243.0869
243.19951
243.25996
243.3815
243.51317
243.62554
243.74174
243.82989
243.94226
244.04231
244.14508
244.24752
244.35156
244.46022
244.57163
244.67059
244.74078
244.78081
244.81422
244.86848
244.92871
244.96284
242.49081
242.55875
242.66041
242.68433
242.74177
242.93685
243.07461
243.08878
243.19319
243.2496
243.37991
243.51222
243.6185
243.73692
243.82493
243.9403
244.03991
244.14344
244.24654
244.35112
244.46041
244.57184
244.67035
244.73959
244.77936
244.81238
244.86761
244.92885
244.96306
242.41171
242.47765
242.54536
242.65041
242.68251
242.72613
242.90509
243.07609
243.09171
243.19007
243.24426
243.38108
243.51416
243.61465
243.73519
243.82343
243.94081
244.04042
244.14417
244.24786
244.35331
244.46269
244.57431
244.6712
244.73911
244.77752
244.81095
244.86652
244.92863
244.96409
242.27821
242.33852
242.39702
242.46535
242.53116
242.63799
242.68119
242.71467
242.87122
243.07232
243.09234
243.18318
243.23696
243.38036
243.51467
243.60795
243.73038
243.81975
243.93877
244.03873
244.14268
244.24678
244.35292
244.4631
244.57447
244.67075
244.73799
244.77582
244.80903
244.86582
244.92885
244.96447
242.12424
242.16919
242.21384
242.26418
242.32382
242.38398
242.45422
242.51931
242.62476
242.68042
242.7085
242.83942
243.0637
243.09412
243.17992
243.23398
243.38166
243.5196
243.60429
243.72862
243.81928
243.93904
244.03971
244.14373
244.2482
244.35524
244.46544
244.57674
244.67135
244.73707
244.77398
244.80768
244.86477
244.92887
244.9655
241.98254
242.01648
242.05528
242.10438
242.15014
242.19745
242.24835
242.30897
242.36986
242.44356
242.50741
242.61028
242.67893
242.70579
242.80911
243.04065
243.09264
243.17234
243.22897
243.38126
243.52144
243.59811
243.72384
243.81654
243.93679
244.03863
244.14238
244.24723
244.35502
244.46603
244.57667
244.67073
244.73609
244.77218
244.80557
244.86424
244.9292
241.87022
241.89903
241.929
241.96105
241.99587
242.0356
242.08595
242.1304
242.17966
242.23523
242.29462
242.35661
242.43385
242.49737
242.59546
242.67755
242.70599
242.78414
243.01477
243.09244
243.16828
243.22756
243.38216
243.52391
243.59494
243.72214
243.81741
243.93677
244.04025
244.14371
244.24885
244.35756
244.4683
244.57877
244.67121
244.73473
244.77031
244.80442
244.86328
244.92948
241.71871
241.73914
241.75259
241.76028
241.78722
241.82036
241.84463
241.87521
241.90667
241.93956
241.9754
242.01641
242.06658
242.11198
242.16259
242.21922
242.2804
242.34231
242.42386
242.48783
242.58049
242.67326
242.70698
242.76272
242.97961
243.08523
243.15942
243.22512
243.38173
243.52271
243.58956
243.71732
243.81578
243.93436
244.03983
244.1426
244.24808
244.35749
244.46903
244.57846
244.67035
244.73376
244.76861
244.80236
244.86292
244.92983
241.58969
241.58665
241.60799
241.62131
241.6275
241.64113
241.65683
241.66305
241.67266
241.69344
241.7161
241.72894
241.737
241.76507
241.79813
241.82079
241.85314
241.88551
241.91847
241.95442
241.99801
242.04957
242.09295
242.14543
242.20581
242.26656
242.32899
242.41378
242.47901
242.5668
242.66859
242.71092
242.74889
242.94465
243.08006
243.15407
243.22518
243.38245
243.52286
243.58741
243.71549
243.8175
243.93402
244.04211
244.14414
244.24999
244.36011
244.47125
244.58043
244.67076
244.73196
244.76668
244.80151
244.86201
244.93038
245.28901
245.28907
245.28924
245.28958
245.29016
245.29106
245.29233
245.29397
245.29596
245.29825
245.30084
245.3037
245.30683
245.31024
245.31392
245.31788
245.32214
245.32671
245.33161
245.33684
245.34244
245.34843
245.35482
245.36167
245.36899
245.37682
245.38519
245.39416
245.40375
245.41401
245.42497
245.43668
245.44917
245.46247
245.47662
245.49164
245.50756
245.5244
245.54219
245.56098
245.5808
245.60171
245.62381
245.64719
245.672
245.69839
245.72653
245.75651
245.78828
245.82135
245.85417
245.88049
245.84549
245.65386
245.14859
244.22146
243.05583
242.10598
241.66385
241.54018
241.51859
241.52438
241.53506
241.5308
241.53103
241.54222
241.53909
241.53119
241.54019
241.56328
241.55944
241.55694
241.57786
241.5939
241.60061
241.61156
241.62616
241.63301
241.64336
241.66661
241.69192
241.70579
241.71471
241.74353
241.77501
241.79559
241.82935
241.86369
241.89753
241.93342
241.97838
242.03129
242.07594
242.12811
242.18958
242.25324
242.31493
242.40306
242.47036
242.55307
242.6599
242.71541
242.73964
242.90526
243.06721
243.1443
243.22434
243.38175
243.51867
243.58318
243.71033
243.81718
243.93186
244.0422
244.14322
244.24952
244.36013
244.47206
244.57997
244.66953
244.73093
244.7651
244.79978
244.86171
244.93077
245.25906
245.25899
245.25888
245.25879
245.25881
245.25905
245.25964
245.26064
245.26207
245.2639
245.26612
245.2687
245.27162
245.27487
245.27844
245.28234
245.28656
245.29111
245.296
245.30124
245.30686
245.31287
245.31929
245.32616
245.33351
245.34137
245.34977
245.35876
245.36838
245.37866
245.38964
245.40137
245.41387
245.42718
245.44134
245.45636
245.47229
245.48914
245.50693
245.52572
245.54554
245.56645
245.58853
245.6119
245.63669
245.66306
245.69118
245.72115
245.75296
245.78621
245.81957
245.84786
245.81897
245.63888
245.12392
244.20811
243.01817
242.06894
241.64051
241.50526
241.48039
241.48438
241.49258
241.48978
241.49398
241.50946
241.50982
241.50543
241.51428
241.53562
241.53192
241.5288
241.55196
241.56862
241.57596
241.58546
241.59557
241.60265
241.61663
241.64028
241.66295
241.67978
241.69266
241.72217
241.752
241.77212
241.8071
241.84236
241.87683
241.91265
241.95991
242.0144
242.05832
242.11197
242.17531
242.2402
242.30169
242.39114
242.46195
242.54129
242.64981
242.72445
242.7372
242.87046
243.05551
243.1377
243.22487
243.38187
243.51664
243.58215
243.70824
243.82011
243.93194
244.04397
244.14484
244.25175
244.36268
244.47424
244.58176
244.66993
244.72887
244.76315
244.79913
244.86095
245.21347
245.21338
245.21323
245.21308
245.21301
245.21311
245.21351
245.21428
245.21544
245.21699
245.21891
245.22118
245.22379
245.22672
245.22998
245.23357
245.23748
245.24174
245.24634
245.25131
245.25667
245.26243
245.26862
245.27527
245.28241
245.29007
245.2983
245.30712
245.31659
245.32673
245.33759
245.34921
245.36162
245.37485
245.38894
245.40391
245.41979
245.43661
245.45439
245.47316
245.49297
245.51387
245.53595
245.55932
245.58409
245.61043
245.63848
245.66834
245.69996
245.73287
245.76554
245.79207
245.76128
245.5732
245.0547
244.056
242.86047
241.96378
241.58592
241.49349
241.47343
241.47697
241.48355
241.47945
241.48152
241.49404
241.49288
241.48228
241.48779
241.50599
241.50182
241.50086
241.52581
241.54253
241.5511
241.56095
241.57011
241.57457
241.58726
241.61339
241.63814
241.65455
241.66877
241.70083
241.73024
241.7491
241.78421
241.81979
241.85584
241.89138
241.94046
241.99614
242.04147
242.09528
242.15879
242.22691
242.28891
242.37895
242.45226
242.52899
242.63731
242.7331
242.73599
242.83616
243.0354
243.1279
243.22404
243.37997
243.51065
243.57921
243.70322
243.8204
243.9303
244.04334
244.1441
244.2517
244.36283
244.47498
244.58115
244.66833
244.72766
244.76177
244.79763
244.86088
245.15624
245.15636
245.15666
245.15721
245.1581
245.15939
245.16113
245.16328
245.16577
245.16855
245.17159
245.17487
245.17839
245.18216
245.18617
245.19044
245.19499
245.19984
245.20499
245.21048
245.21632
245.22255
245.22919
245.23628
245.24385
245.25194
245.26058
245.26982
245.2797
245.29026
245.30154
245.31359
245.32643
245.34011
245.35464
245.37007
245.38642
245.40371
245.42197
245.44122
245.46153
245.48294
245.50552
245.5294
245.55469
245.58154
245.61008
245.6404
245.67237
245.70542
245.7377
245.76229
245.72549
245.51154
244.92976
243.93997
242.75535
241.88832
241.5281
241.43159
241.41395
241.42236
241.43417
241.43064
241.43222
241.44385
241.4411
241.43692
241.44875
241.47145
241.47071
241.46786
241.49123
241.51077
241.52161
241.5327
241.54251
241.548
241.56125
241.58669
241.60998
241.62718
241.64289
241.6763
241.70795
241.72763
241.76233
241.79869
241.8361
241.87215
241.92237
241.97898
242.02426
242.07982
242.14394
242.21385
242.27592
242.36585
242.44303
242.51804
242.62471
242.74125
242.73844
242.81026
243.01635
243.12076
243.22363
243.37907
243.50709
243.58015
243.70176
243.82277
243.93091
244.04431
244.14568
244.25435
244.36528
244.47711
244.58261
244.66869
244.72555
244.75996
244.79709
244.86013
245.13018
245.13012
245.13003
245.12997
245.13004
245.13034
245.13098
245.13201
245.13346
245.13528
245.13747
245.14
245.14287
245.14605
245.14956
245.15338
245.15754
245.16203
245.16687
245.17208
245.17767
245.18366
245.1901
245.19699
245.20437
245.21229
245.22077
245.22986
245.23959
245.25001
245.26116
245.27307
245.28577
245.29931
245.31371
245.329
245.3452
245.36234
245.38044
245.39953
245.41966
245.44089
245.46329
245.48696
245.51203
245.53865
245.56695
245.59704
245.62883
245.66185
245.69451
245.72103
245.69208
245.49573
244.92929
243.90972
242.7017
241.84955
241.50483
241.407
241.39339
241.40254
241.41462
241.41175
241.41495
241.42708
241.42486
241.41919
241.42862
241.44664
241.44426
241.44248
241.4671
241.48311
241.49262
241.50727
241.51682
241.52299
241.53842
241.56345
241.58314
241.59937
241.61831
241.65408
241.68438
241.70363
241.73861
241.77582
241.8162
241.85273
241.90386
241.96003
242.00708
242.06332
242.12735
242.20019
242.26401
242.35236
242.43174
242.5065
242.61111
242.7433
242.73928
242.78948
242.99157
243.11145
243.22139
243.37588
243.49893
243.57814
243.69858
243.82259
243.92968
244.04326
244.14512
244.25445
244.36542
244.47773
244.5818
244.66679
244.72413
244.75879
244.79576
244.86027
245.07598
245.07606
245.07627
245.07665
245.07726
245.07819
245.07947
245.08111
245.08308
245.08536
245.08792
245.09075
245.09385
245.09722
245.10087
245.10482
245.10906
245.11363
245.11853
245.12379
245.12943
245.13548
245.14196
245.1489
245.15635
245.16433
245.17288
245.18205
245.19187
245.20238
245.21363
245.22565
245.23848
245.25215
245.26668
245.28211
245.29846
245.31575
245.334
245.35326
245.37355
245.39494
245.41749
245.44131
245.46651
245.49322
245.52156
245.55158
245.58314
245.61558
245.64693
245.66993
245.63372
245.40863
244.79131
243.72896
242.54438
241.74363
241.445
241.38248
241.37553
241.38512
241.3949
241.39089
241.39316
241.40299
241.39785
241.38865
241.39835
241.41704
241.41508
241.41341
241.43699
241.45331
241.46297
241.47686
241.48993
241.4975
241.51136
241.53756
241.56046
241.57599
241.59258
241.62747
241.66081
241.68203
241.71697
241.75526
241.79721
241.8344
241.88633
241.94244
241.98952
242.04843
242.1125
242.18617
242.25111
242.3395
242.42111
242.49563
242.59826
242.7444
242.748
242.77892
242.96927
243.10399
243.21999
243.37424
243.49274
243.58055
243.69808
243.82445
243.93083
244.04387
244.14681
244.25727
244.36767
244.4798
244.58283
244.66698
244.72211
244.75719
244.79527
244.85964
245.03491
245.035
245.03524
245.03569
245.03644
245.03757
245.03914
245.04111
245.04344
245.04608
245.04901
245.0522
245.05566
245.05938
245.06337
245.06765
245.07221
245.07709
245.0823
245.08785
245.09378
245.1001
245.10686
245.11407
245.12177
245.13001
245.13882
245.14824
245.15831
245.16907
245.18057
245.19284
245.20591
245.21982
245.2346
245.25027
245.26686
245.28439
245.30289
245.32239
245.34292
245.36455
245.38734
245.41139
245.43681
245.46374
245.49228
245.52247
245.55413
245.58658
245.61774
245.64018
245.60221
245.36824
244.72131
243.66808
242.47834
241.69235
241.39962
241.3306
241.3246
241.33617
241.34256
241.33805
241.34254
241.35599
241.35294
241.3492
241.36351
241.38544
241.38618
241.38328
241.4058
241.42161
241.43043
241.44463
241.45948
241.47243
241.48817
241.51305
241.53305
241.55034
241.57008
241.60411
241.63511
241.65782
241.69399
241.73306
241.77749
241.81543
241.86773
241.92256
241.97202
242.0317
242.09663
242.17222
242.2386
242.32548
242.40923
242.48452
242.58363
242.73875
242.75807
242.77309
242.94343
243.09477
243.21762
243.37035
243.48206
243.58026
243.69581
243.82398
243.93014
244.04268
244.14657
244.25752
244.36786
244.48031
244.58184
244.66482
244.72054
244.75608
244.7943
245.00353
245.00342
245.00325
245.00308
245.00302
245.00319
245.00371
245.00465
245.00602
245.00779
245.00994
245.01243
245.01526
245.01842
245.02189
245.0257
245.02983
245.03432
245.03916
245.04437
245.04998
245.05601
245.06248
245.06943
245.07689
245.0849
245.09348
245.10269
245.11255
245.12311
245.13441
245.14648
245.15935
245.17307
245.18765
245.20313
245.21952
245.23685
245.25514
245.27443
245.29475
245.31615
245.3387
245.36249
245.38763
245.41425
245.44243
245.47222
245.50342
245.53537
245.56606
245.58839
245.55482
245.32853
244.69555
243.57785
242.37269
241.62816
241.37062
241.31965
241.31435
241.32557
241.33272
241.32875
241.33482
241.34884
241.34423
241.33591
241.34662
241.36556
241.36411
241.36342
241.38514
241.39737
241.40408
241.4171
241.43363
241.44665
241.46222
241.48731
241.5094
241.52751
241.54689
241.5788
241.61047
241.63667
241.67445
241.71312
241.75694
241.79582
241.84895
241.90448
241.95467
242.01695
242.08168
242.15773
242.22521
242.31274
242.39802
242.47422
242.57024
242.73178
242.77825
242.77246
242.92079
243.08639
243.21585
243.36835
243.47433
243.58358
243.69619
243.82558
243.93191
244.04329
244.1488
244.26034
244.37018
244.48233
244.58244
244.66487
244.71868
244.75476
244.79391
244.94606
244.94623
244.94662
244.94731
244.94836
244.94984
244.95175
244.95405
244.95665
244.95951
244.96261
244.96593
244.96949
244.97329
244.97733
244.98165
244.98625
244.99116
244.9964
245.00198
245.00794
245.01431
245.0211
245.02836
245.03612
245.04441
245.05328
245.06277
245.07291
245.08374
245.09531
245.10766
245.12081
245.13479
245.14965
245.1654
245.18207
245.19969
245.21826
245.23783
245.25843
245.2801
245.30292
245.32696
245.35232
245.37911
245.40739
245.43714
245.46811
245.49941
245.52859
245.54699
245.50311
245.24232
244.53505
243.41637
242.24724
241.54892
241.32578
241.2714
241.26453
241.27421
241.28338
241.28138
241.28849
241.30191
241.29547
241.29021
241.30527
241.32867
241.33244
241.33085
241.35141
241.36705
241.37277
241.38427
241.40336
241.41983
241.43389
241.45943
241.48199
241.50242
241.52385
241.55568
241.58635
241.6144
241.6536
241.69219
241.73641
241.77542
241.82882
241.8841
241.93688
241.99951
242.06659
242.14331
242.21144
242.29864
242.38652
242.46372
242.5549
242.71632
242.79518
242.77167
242.89862
243.07659
243.21312
243.36401
243.46283
243.58322
243.69445
243.82461
243.93169
244.04218
244.14905
244.26067
244.37046
244.4825
244.58125
244.66254
244.71706
244.75375
244.79325
244.92001
244.92
244.92004
244.92018
244.92051
244.92113
244.92213
244.92354
244.92535
244.92752
244.93003
244.93286
244.93601
244.93947
244.94324
244.94732
244.95173
244.95648
244.96159
244.96706
244.97292
244.9792
244.98591
244.9931
245.00079
245.00902
245.01783
245.02725
245.03732
245.04808
245.05958
245.07185
245.08492