/*--------------------------------*- C++ -*----------------------------------*\
| =========                 |                                                 |
| \\      /  F ield         | OpenFOAM: The Open Source CFD Toolbox           |
|  \\    /   O peration     | Version:  2506                                  |
|   \\  /    A nd           | Website:  www.openfoam.com                      |
|    \\/     M anipulation  |                                                 |
\*---------------------------------------------------------------------------*/
FoamFile
{
    version     2.0;
    format      ascii;
    arch        "LSB;label=32;scalar=64";
    class       volScalarField;
    location    "0.012";
    object      p;
}
// * * * * * * * * * * * * * * * * * * * * * * * * * * * * * * * * * * * * * //

dimensions      [1 -1 -2 0 0 0 0];

internalField   nonuniform List<scalar> 
13761
(
46970.737
46970.525
46971.302
46973.335
46977.806
46987.247
47000.106
47036.237
47004.06
47126.4
46899.254
46970.747
46970.527
46971.305
46973.34
46977.815
46987.268
47000.115
47036.244
47004.056
47126.386
46899.277
46970.758
46970.528
46971.307
46973.344
46977.822
46987.285
47000.117
47036.252
47004.044
47126.38
46899.295
46973.25
46970.769
46970.53
46971.309
46973.347
46977.827
46987.301
47000.118
47036.259
47004.03
47126.386
46899.322
46973.305
46970.781
46970.532
46971.31
46973.35
46977.832
46987.314
47000.121
47036.266
47004.01
47126.4
46899.375
46973.361
46970.793
46970.534
46971.312
46973.353
46977.837
46987.326
47000.123
47036.27
47003.979
47126.433
46899.454
46981.467
46973.417
46970.804
46970.535
46971.313
46973.356
46977.841
46987.338
47000.125
47036.273
47003.949
47126.47
46899.501
46981.643
46973.473
46970.816
46970.537
46971.315
46973.359
46977.846
46987.35
47000.124
47036.281
47003.945
47126.459
46899.471
46981.821
46973.529
46970.828
46970.539
46971.316
46973.362
46977.851
46987.365
47000.122
47036.296
47003.963
47126.449
46899.446
46999.096
46981.999
46973.586
46970.839
46970.54
46971.317
46973.365
46977.855
46987.38
47000.121
47036.319
47004.001
47126.351
46899.493
46999.507
46982.179
46973.642
46970.851
46970.542
46971.319
46973.368
46977.86
46987.392
47000.119
47036.346
47004.032
47126.157
46899.684
46999.919
46982.358
46973.699
46970.863
46970.544
46971.32
46973.371
46977.864
46987.402
47000.114
47036.362
47004.066
47125.842
46899.884
47000.333
46982.539
46973.756
46970.875
46970.546
46971.321
46973.374
46977.868
46987.412
47000.11
47036.364
47004.007
47125.467
46899.986
47016.203
47000.748
46982.719
46973.813
46970.887
46970.547
46971.323
46973.377
46977.874
46987.426
47000.108
47036.356
47003.927
47125.277
46899.972
47016.936
47001.164
46982.9
46973.87
46970.899
46970.549
46971.324
46973.381
46977.879
46987.441
47000.108
47036.351
47003.913
47125.2
46899.9
47017.676
47001.581
46983.082
46973.927
46970.911
46970.551
46971.325
46973.384
46977.884
46987.453
47000.109
47036.355
47003.932
47125.28
46899.898
46986.926
47018.423
47001.999
46983.264
46973.984
46970.923
46970.553
46971.327
46973.387
46977.889
46987.464
47000.11
47036.359
47003.902
47125.684
46900.12
46987.575
47019.176
47002.418
46983.446
46974.04
46970.935
46970.555
46971.328
46973.391
46977.895
46987.477
47000.113
47036.363
47003.873
47125.926
46900.368
46988.237
47019.936
47002.838
46983.629
46974.097
46970.946
46970.558
46971.329
46973.395
46977.901
46987.49
47000.117
47036.369
47003.917
47125.986
46900.486
46895.143
46988.913
47020.701
47003.259
46983.811
46974.154
46970.958
46970.56
46971.331
46973.398
46977.907
46987.504
47000.119
47036.375
47003.986
47125.956
46900.536
46894.994
46989.602
47021.473
47003.681
46983.994
46974.21
46970.97
46970.562
46971.332
46973.402
46977.913
46987.518
47000.121
47036.391
47004.021
47125.839
46900.575
46894.857
46990.304
47022.249
47004.104
46984.177
46974.267
46970.982
46970.564
46971.334
46973.406
46977.919
46987.534
47000.121
47036.419
47004.052
47125.64
46795.288
46894.728
46991.017
47023.032
47004.527
46984.36
46974.323
46970.994
46970.566
46971.336
46973.41
46977.925
46987.551
47000.122
47036.437
47004.008
47125.444
46794.262
46894.606
46991.742
47023.819
47004.952
46984.543
46974.379
46971.005
46970.568
46971.337
46973.413
46977.931
46987.563
47000.124
47036.445
47003.892
47125.376
46821.055
46793.234
46894.498
46992.479
47024.612
47005.379
46984.726
46974.436
46971.017
46970.57
46971.339
46973.417
46977.936
46987.573
47000.128
47036.456
47003.837
47125.364
46820.038
46792.204
46894.405
46993.227
47025.408
47005.806
46984.909
46974.492
46971.029
46970.572
46971.341
46973.421
46977.941
46987.583
47000.132
47036.473
47003.863
47125.413
46818.999
46791.168
46894.322
46993.987
47026.209
47006.235
46985.092
46974.547
46971.041
46970.574
46971.343
46973.425
46977.947
46987.594
47000.135
47036.485
47003.83
46994.186
46817.936
46790.131
46894.244
46994.758
47027.014
47006.666
46985.275
46974.603
46971.053
46970.576
46971.345
46973.429
46977.954
46987.608
47000.136
47036.498
47003.779
46994.034
46816.853
46789.093
46894.175
46995.54
47027.824
47007.098
46985.457
46974.658
46971.064
46970.578
46971.347
46973.433
46977.961
46987.622
47000.137
47036.524
47003.806
46993.868
46815.753
46788.051
46894.118
46996.332
47028.636
47007.531
46985.639
46974.714
46971.076
46970.58
46971.348
46973.438
46977.968
46987.635
47000.139
47036.552
47003.887
47047.463
46993.696
46814.632
46787.006
46894.072
46997.134
47029.453
47007.967
46985.822
46974.769
46971.088
46970.582
46971.35
46973.442
46977.975
46987.648
47000.142
47036.574
47003.949
47047.971
46993.531
46813.491
46785.958
46894.033
46997.946
47030.274
47008.403
46986.003
46974.823
46971.099
46970.584
46971.352
46973.446
46977.982
46987.662
47000.14
47036.621
46865.8
47048.451
46993.375
46812.328
46784.908
46894.003
46998.768
47031.098
47008.841
46986.185
46974.878
46971.111
46970.586
46971.354
46973.45
46977.989
46987.676
47000.143
47036.676
46865.198
47048.9
46993.222
46811.136
46783.855
46893.984
46999.6
47031.925
47009.28
46986.366
46974.932
46971.123
46970.588
46971.356
46973.455
46977.996
46987.691
47000.157
47036.703
46873.508
46864.645
47049.32
46993.056
46809.914
46782.798
46893.976
47000.444
47032.756
47009.72
46986.547
46974.986
46971.134
46970.59
46971.358
46973.459
46978.004
46987.706
47000.171
47036.703
46872.544
46864.137
47049.722
46992.854
46808.658
46781.741
46893.984
47001.3
47033.589
47010.162
46986.727
46975.04
46971.146
46970.591
46971.361
46973.463
46978.012
46987.721
47000.182
47036.7
46871.554
46863.651
47050.128
46992.638
46807.365
46780.682
46894.016
47002.166
47034.426
47010.604
46986.907
46975.094
46971.157
46970.593
46971.363
46973.468
46978.02
46987.736
47000.195
47036.72
47024.813
46870.544
46863.176
47050.559
46992.414
46806.038
46779.626
46894.077
47003.043
47035.266
47011.047
46987.086
46975.147
46971.169
46970.595
46971.365
46973.472
46978.028
46987.752
47000.208
47025.226
46869.521
46862.707
47051.035
46992.158
46804.675
46778.588
46894.17
47003.931
47036.109
47011.491
46987.264
46975.2
46971.18
46970.596
46971.367
46973.477
46978.036
46987.767
47000.219
46902.202
47025.631
46868.493
46862.246
47051.547
46991.937
46803.277
46777.578
46894.296
47004.832
47036.956
47011.936
46987.442
46975.252
46971.191
46970.598
46971.37
46973.481
46978.044
46987.783
47000.225
46902.235
47026.019
46867.443
46861.797
47052.061
46991.781
46801.854
46776.602
46894.443
47005.746
47037.805
47012.381
46987.62
46975.304
46971.203
46970.6
46971.372
46973.486
46978.052
46987.798
47000.233
46859.49
46902.318
47026.398
46866.376
46861.364
47052.564
46991.565
46800.423
46775.662
46894.596
47006.673
47038.657
47012.826
46987.796
46975.356
46971.214
46970.602
46971.374
46973.491
46978.06
46987.814
47000.241
46980.252
46857.86
46902.455
47026.773
46865.274
46860.957
47053.059
46991.2
46798.995
46774.725
46894.728
47007.611
47039.512
47013.272
46987.972
46975.408
46971.225
46970.604
46971.377
46973.495
46978.069
46987.83
47000.251
46980.344
46856.206
46902.635
47027.136
46864.119
46860.594
47053.542
46990.77
46797.563
46773.743
46894.847
47008.557
47040.37
47013.718
46988.147
46975.459
46971.235
46970.606
46971.379
46973.5
46978.077
46987.846
46881.99
46980.422
46854.523
46902.86
47027.488
46862.916
46860.298
47054.013
46990.36
46796.111
46772.687
46894.979
47009.513
47041.23
47014.164
46988.322
46975.51
46971.246
46970.608
46971.381
46973.505
46978.086
46987.862
46881.568
46980.487
46852.814
46903.125
47027.829
46861.663
46860.059
47054.482
46990.011
46794.644
46771.544
46895.13
47010.479
47042.092
47014.61
46988.495
46975.561
46971.257
46970.61
46971.384
46973.51
46978.094
46987.877
46896.204
46881.163
46980.527
46851.077
46903.411
47028.139
46860.374
46859.853
47054.956
46989.697
46793.168
46770.373
46895.302
47011.455
47042.957
47015.055
46988.668
46975.611
46971.267
46970.612
46971.386
46973.514
46978.103
46987.893
46942.764
46894.574
46880.791
46980.56
46849.318
46903.73
47028.4
46859.059
46859.677
47055.435
46989.367
46791.672
46769.233
46895.496
47012.441
47043.824
47015.501
46988.84
46975.66
46971.278
46970.613
46971.388
46973.519
46978.112
46987.909
46942.771
46892.91
46880.449
46980.573
46847.536
46904.082
47028.609
46857.731
46859.526
47055.926
46988.982
46790.166
46768.137
46895.714
47013.436
47044.692
47015.946
46989.011
46975.71
46971.288
46970.615
46971.391
46973.524
46978.12
46875.878
46942.763
46891.223
46880.136
46980.546
46845.73
46904.476
47028.769
46856.384
46859.403
47056.427
46988.547
46788.656
46767.06
46895.956
47014.442
47045.563
47016.391
46989.181
46975.759
46971.299
46970.617
46971.393
46973.529
46978.129
46913.628
46874.782
46942.722
46889.503
46879.869
46980.506
46843.893
46904.941
47028.886
46855.011
46859.31
47056.935
46988.107
46787.128
46765.984
46896.216
47015.457
47046.435
47016.836
46989.35
46975.807
46971.309
46970.619
46971.395
46973.533
46978.138
46896.285
46912.514
46873.695
46942.642
46887.764
46879.633
46980.474
46842.032
46905.492
47028.956
46853.614
46859.243
47057.451
46987.666
46785.592
46764.916
46896.496
47016.483
47047.308
47017.279
46989.518
46975.855
46971.319
46970.621
46971.398
46973.538
46978.147
46895.79
46895.319
46911.383
46872.61
46942.532
46886.01
46879.437
46980.441
46840.156
46906.109
47029.003
46852.189
46859.199
47057.977
46987.191
46784.044
46763.862
46896.797
47017.52
47048.182
47017.723
46989.685
46975.903
46971.329
46970.623
46971.4
46973.543
46978.156
46906.667
46894.494
46894.36
46910.232
46871.522
46942.39
46884.238
46879.283
46980.392
46838.279
46906.785
47028.989
46850.734
46859.179
47058.517
46986.656
46782.479
46762.825
46897.118
47018.567
47049.057
47018.165
46989.851
46975.95
46971.339
46970.625
46971.402
46973.548
46978.165
46901.109
46905.307
46893.176
46893.407
46909.041
46870.444
46942.213
46882.453
46879.156
46980.314
46836.407
46907.529
47028.915
46849.241
46859.183
47059.071
46986.067
46780.894
46761.794
46897.459
47019.626
47049.932
47018.606
46990.016
46975.997
46971.349
46970.627
46971.405
46973.553
46901.487
46899.355
46903.892
46891.857
46892.48
46907.859
46869.376
46942
46880.657
46879.068
46980.155
46834.54
46908.316
47028.814
46847.71
46859.22
47059.639
46985.447
46779.287
46760.774
46897.821
47020.696
47050.808
47019.047
46990.18
46976.043
46971.358
46970.629
46971.407
46973.557
46902.156
46899.434
46897.609
46902.472
46890.523
46891.568
46906.663
46868.315
46941.761
46878.858
46879.02
46979.917
46832.672
46909.149
47028.687
46846.14
46859.288
47060.219
46984.816
46777.657
46759.768
46898.197
47021.777
47051.683
47019.486
46990.342
46976.089
46971.368
46970.631
46971.409
46973.562
46902.883
46899.847
46897.321
46895.822
46901.017
46889.186
46890.677
46905.437
46867.271
46941.489
46877.048
46879.02
46979.626
46830.798
46910.041
47028.537
46844.535
46859.385
47060.81
46984.168
46776.004
46758.769
46898.585
47022.867
47052.559
47019.924
46990.504
46976.134
46971.377
46970.633
46971.412
46973.567
46908.038
46904.095
46900.392
46897.517
46895.223
46893.991
46899.523
46887.847
46889.794
46904.229
46866.249
46941.207
46875.218
46879.074
46979.315
46828.919
46910.963
47028.371
46842.906
46859.513
47061.409
46983.497
46774.339
46757.772
46898.978
47023.969
47053.434
47020.361
46990.664
46976.179
46971.387
46970.635
46971.414
46973.572
46909.822
46905.301
46901.509
46897.904
46895.143
46893.064
46892.149
46897.996
46886.499
46888.951
46903.001
46865.235
46940.918
46873.396
46879.167
46978.98
46827.044
46911.91
47028.193
46841.264
46859.657
47062.02
46982.803
46772.652
46756.783
46899.386
47025.083
47054.308
47020.797
46990.823
46976.223
46971.396
46970.637
46971.416
46917.063
46911.721
46906.906
46902.556
46898.907
46895.405
46892.765
46890.863
46890.263
46896.435
46885.145
46888.136
46901.742
46864.24
46940.602
46871.557
46879.299
46978.602
46825.184
46912.876
47028.009
46839.607
46859.819
47062.643
46982.077
46770.947
46755.799
46899.817
47026.211
47055.183
47021.231
46990.981
46976.267
46971.405
46970.639
46971.419
46932.348
46925.755
46919.558
46913.85
46908.664
46904.004
46899.811
46896.266
46892.868
46890.371
46888.66
46888.34
46894.843
46883.776
46887.289
46900.468
46863.254
46940.271
46869.705
46879.46
46978.15
46823.356
46913.837
47027.808
46837.931
46859.998
47063.281
46981.32
46769.227
46754.824
46900.278
47027.351
47056.056
47021.664
46991.138
46976.31
46971.413
46970.641
46971.421
46941.317
46935.04
46928.511
46922.146
46916.145
46910.627
46905.597
46901.109
46897.062
46893.66
46890.351
46887.951
46886.422
46886.395
46893.198
46882.402
46886.467
46899.156
46862.28
46939.913
46867.874
46879.646
46977.648
46821.557
46914.798
47027.597
46836.238
46860.196
47063.933
46980.532
46767.484
46753.856
46900.767
47028.503
47056.93
47022.096
46991.293
46976.353
46971.422
46970.644
46971.423
46958.22
46953.683
46948.492
46943.049
46937.065
46931.015
46924.679
46918.548
46912.754
46907.425
46902.536
46898.202
46894.321
46891.04
46887.814
46885.537
46884.14
46884.418
46891.535
46881.035
46885.634
46897.804
46861.321
46939.507
46866.028
46879.868
46977.118
46819.802
46915.764
47027.384
46834.529
46860.422
47064.602
46979.713
46765.726
46752.895
46901.277
47029.667
47057.802
47022.526
46991.448
46976.395
46971.429
46970.648
46971.425
46969.709
46966.992
46964.182
46960.79
46957.264
46953.109
46948.802
46943.815
46938.587
46932.816
46926.992
46920.869
46914.951
46909.365
46904.199
46899.473
46895.307
46891.588
46888.397
46885.252
46883.116
46881.863
46882.404
46889.843
46879.656
46884.79
46896.428
46860.366
46939.068
46864.18
46880.103
46976.526
46818.081
46916.722
47027.172
46832.807
46860.667
47065.284
46978.864
46763.952
46751.944
46901.804
47030.843
47058.675
47022.954
46991.6
46976.437
46971.437
46970.651
46971.427
46974.162
46973.443
46972.646
46971.578
46970.548
46969.03
46967.664
46965.619
46963.672
46961.091
46958.499
46955.282
46951.97
46948.007
46943.925
46939.143
46934.132
46928.576
46922.966
46917.065
46911.373
46905.979
46900.978
46896.405
46892.418
46888.847
46885.783
46882.716
46880.643
46879.576
46880.36
46888.081
46878.291
46883.969
46895.028
46859.436
46938.6
46862.351
46880.356
46975.855
46816.389
46917.688
47026.961
46831.085
46860.924
47065.982
46977.981
46762.161
46751.003
46902.347
47032.03
47059.548
47023.38
46991.752
46976.478
46971.444
46970.654
46968.537
46968.489
46968.462
46968.419
46968.343
46968.222
46968.099
46968.102
46968.12
46968.143
46968.193
46968.238
46968.323
46968.404
46968.495
46968.59
46968.684
46968.792
46968.91
46969.018
46969.119
46969.186
46969.212
46969.229
46969.183
46969.121
46969.023
46968.909
46968.692
46968.431
46968.076
46967.661
46967.191
46966.583
46965.877
46964.887
46963.977
46962.555
46961.353
46959.401
46957.665
46955.221
46952.842
46949.795
46946.695
46942.918
46939.045
46934.458
46929.66
46924.329
46918.931
46913.257
46907.796
46902.596
46897.776
46893.349
46889.531
46886.122
46883.159
46880.164
46878.215
46877.229
46878.296
46886.324
46876.946
46883.137
46893.595
46858.524
46938.106
46860.507
46880.623
46975.101
46814.749
46918.662
47026.734
46829.351
46861.199
47066.695
46977.068
46760.359
46750.071
46902.909
47033.229
47060.422
47023.805
46991.902
46976.518
46971.452
46970.656
46959.536
46959.446
46959.351
46959.258
46959.189
46959.226
46959.42
46959.523
46959.61
46959.691
46959.774
46959.922
46960.036
46960.205
46960.37
46960.542
46960.733
46960.926
46961.098
46961.252
46961.395
46961.548
46961.65
46961.702
46961.752
46961.765
46961.75
46961.696
46961.645
46961.505
46961.314
46961.041
46960.718
46960.32
46959.782
46959.147
46958.244
46957.472
46956.126
46955.076
46953.253
46951.69
46949.382
46947.209
46944.336
46941.444
46937.856
46934.186
46929.787
46925.203
46920.096
46914.919
46909.485
46904.232
46899.226
46894.549
46890.288
46886.642
46883.401
46880.514
46877.588
46875.759
46874.917
46876.202
46884.518
46875.559
46882.303
46892.15
46857.628
46937.588
46858.677
46880.909
46974.279
46813.151
46919.631
47026.5
46827.587
46861.488
47067.423
46976.125
46758.544
46749.147
46903.489
47034.439
47061.296
47024.228
46992.05
46976.558
46971.46
46970.657
46949.854
46949.719
46949.566
46949.397
46949.209
46949.032
46948.958
46949.176
46949.519
46949.715
46949.987
46950.375
46950.697
46951.161
46951.567
46951.986
46952.401
46952.722
46953.025
46953.307
46953.547
46953.736
46953.908
46954.075
46954.207
46954.309
46954.401
46954.495
46954.549
46954.533
46954.521
46954.459
46954.332
46954.103
46953.834
46953.493
46953.018
46952.467
46951.659
46950.977
46949.738
46948.839
46947.115
46945.748
46943.568
46941.588
46938.881
46936.187
46932.784
46929.307
46925.101
46920.738
46915.855
46910.903
46905.709
46900.673
46895.858
46891.34
46887.234
46883.767
46880.67
46877.907
46875.059
46873.3
46872.568
46874.094
46882.647
46874.193
46881.47
46890.685
46856.757
46937.045
46856.87
46881.22
46973.415
46811.611
46920.603
47026.232
46825.813
46861.791
47068.176
46975.151
46756.712
46748.231
46904.087
47035.661
47062.17
47024.649
46992.197
46976.598
46971.468
46970.659
46941.867
46941.778
46941.665
46941.525
46941.357
46941.156
46940.918
46940.682
46940.542
46940.565
46940.734
46941.003
46941.393
46942.319
46942.939
46943.59
46944.262
46944.854
46945.386
46945.774
46946.011
46946.193
46946.386
46946.585
46946.766
46946.923
46947.071
46947.224
46947.332
46947.435
46947.531
46947.533
46947.519
46947.485
46947.399
46947.201
46946.983
46946.697
46946.307
46945.848
46945.12
46944.571
46943.406
46942.658
46941.053
46939.845
46937.794
46935.998
46933.451
46930.946
46927.728
46924.433
46920.412
46916.27
46911.619
46906.899
46901.936
46897.119
46892.491
46888.16
46884.199
46880.893
46877.937
46875.261
46872.482
46870.844
46870.192
46871.957
46880.781
46872.811
46880.634
46889.196
46855.906
46936.471
46855.068
46881.546
46972.485
46810.132
46921.565
47025.9
46824.054
46862.104
47068.945
46974.138
46754.872
46747.323
46904.702
47036.893
47063.045
47025.068
46992.343
46976.637
46971.476
46970.661
46938.726
46938.707
46938.678
46938.637
46938.578
46938.501
46938.405
46938.293
46938.175
46938.088
46937.989
46937.767
46937.404
46937.086
46937.363
46937.763
46938.051
46938.385
46938.514
46938.656
46938.737
46938.863
46939.048
46939.218
46939.387
46939.542
46939.729
46939.927
46940.085
46940.227
46940.357
46940.428
46940.474
46940.543
46940.545
46940.529
46940.52
46940.489
46940.35
46940.199
46939.972
46939.657
46939.264
46938.615
46938.172
46937.131
46936.536
46935.033
46933.962
46932.043
46930.426
46928.031
46925.707
46922.67
46919.561
46915.725
46911.805
46907.385
46902.91
46898.179
46893.567
46889.123
46884.941
46881.164
46878.03
46875.234
46872.638
46869.927
46868.339
46867.843
46869.814
46878.862
46871.386
46879.788
46887.685
46855.068
46935.858
46853.288
46881.913
46971.475
46808.701
46922.521
47025.519
46822.318
46862.411
47069.737
46973.087
46753.015
46746.434
46905.335
47038.137
47063.921
47025.485
46992.487
46976.675
46971.484
46935.874
46935.866
46935.856
46935.844
46935.83
46935.814
46935.794
46935.772
46935.748
46935.726
46935.71
46935.702
46935.694
46935.691
46935.795
46935.917
46935.911
46935.738
46935.677
46935.452
46934.806
46934.473
46934.095
46933.811
46933.525
46933.249
46933.122
46933.119
46933.142
46933.157
46933.196
46933.276
46933.361
46933.446
46933.481
46933.484
46933.479
46933.506
46933.527
46933.56
46933.612
46933.655
46933.571
46933.485
46933.302
46933.042
46932.718
46932.166
46931.822
46930.907
46930.435
46929.032
46928.106
46926.32
46924.869
46922.616
46920.463
46917.603
46914.68
46911.035
46907.346
46903.153
46898.922
46894.418
46890.018
46885.77
46881.751
46878.13
46875.167
46872.491
46870.018
46867.389
46865.894
46865.459
46867.641
46876.916
46869.984
46878.937
46886.151
46854.257
46935.217
46851.522
46882.305
46970.385
46807.332
46923.486
47025.113
46820.6
46862.705
47070.551
46971.983
46751.149
46745.569
46905.986
47039.391
47064.797
47025.9
46992.63
46976.712
46971.493
46929.471
46929.463
46929.456
46929.45
46929.447
46929.447
46929.449
46929.456
46929.475
46929.511
46929.562
46929.624
46929.699
46929.786
46929.883
46929.976
46930.035
46930.055
46930.003
46929.999
46929.651
46929.237
46928.653
46928.252
46927.975
46927.688
46927.454
46927.225
46927.044
46926.868
46926.719
46926.619
46926.557
46926.513
46926.441
46926.409
46926.425
46926.444
46926.431
46926.426
46926.416
46926.479
46926.571
46926.683
46926.791
46926.872
46926.821
46926.782
46926.65
46926.458
46926.222
46925.784
46925.567
46924.734
46924.373
46923.065
46922.285
46920.631
46919.331
46917.21
46915.221
46912.529
46909.791
46906.343
46902.889
46898.926
46894.938
46890.645
46886.457
46882.395
46878.594
46875.142
46872.352
46869.799
46867.392
46864.817
46863.409
46863.076
46865.46
46874.948
46868.54
46878.074
46884.592
46853.476
46934.559
46849.774
46882.738
46969.214
46806.001
46924.463
47024.67
46818.919
46862.976
47071.378
46970.827
46749.274
46744.735
46906.66
47040.656
47065.674
47026.312
46992.771
46976.748
46971.501
46921.805
46921.793
46921.78
46921.766
46921.752
46921.737
46921.722
46921.707
46921.691
46921.675
46921.659
46921.643
46921.628
46921.614
46921.601
46921.59
46921.582
46921.571
46921.552
46921.53
46921.51
46921.491
46921.471
46921.453
46921.447
46921.475
46921.574
46921.591
46921.672
46921.606
46921.656
46921.117
46920.964
46920.753
46920.423
46920.184
46919.95
46919.755
46919.538
46919.397
46919.321
46919.283
46919.238
46919.169
46919.143
46919.177
46919.206
46919.234
46919.319
46919.382
46919.546
46919.73
46919.91
46920.03
46920.101
46920.068
46920.08
46920.036
46919.951
46919.82
46919.47
46919.35
46918.578
46918.32
46917.128
46916.485
46914.957
46913.803
46911.817
46909.99
46907.466
46904.912
46901.658
46898.443
46894.701
46890.954
46886.879
46882.902
46879.016
46875.36
46872.099
46869.491
46867.112
46864.798
46862.295
46860.937
46860.708
46863.265
46872.931
46867.073
46877.195
46882.995
46852.714
46933.865
46848.039
46883.222
46967.997
46804.718
46925.458
47024.193
46817.278
46863.229
47072.225
46969.616
46747.392
46743.952
46907.354
47041.931
47066.55
47026.722
46992.911
46976.785
46971.509
46912.363
46912.359
46912.357
46912.354
46912.351
46912.347
46912.344
46912.34
46912.336
46912.331
46912.327
46912.322
46912.317
46912.311
46912.305
46912.299
46912.292
46912.285
46912.278
46912.27
46912.261
46912.251
46912.241
46912.23
46912.219
46912.207
46912.194
46912.181
46912.167
46912.152
46912.136
46912.12
46912.102
46912.084
46912.064
46912.044
46912.022
46912
46911.978
46911.955
46911.933
46911.911
46911.89
46911.87
46911.848
46911.826
46911.803
46911.776
46911.743
46911.698
46911.64
46911.574
46911.498
46911.396
46911.345
46911.441
46911.697
46911.955
46911.926
46911.604
46911.541
46911.267
46911.198
46911.173
46911.158
46911.221
46911.331
46911.413
46911.451
46911.484
46911.585
46911.742
46911.892
46912.068
46912.286
46912.474
46912.738
46912.978
46913.166
46913.269
46913.325
46913.355
46913.464
46913.549
46913.535
46913.461
46913.184
46913.139
46912.457
46912.302
46911.212
46910.694
46909.286
46908.266
46906.416
46904.749
46902.394
46900.031
46896.988
46894.014
46890.486
46886.971
46883.108
46879.352
46875.681
46872.207
46869.112
46866.666
46864.399
46862.188
46859.755
46858.51
46858.328
46861.047
46870.882
46865.608
46876.317
46881.399
46852.001
46933.149
46846.324
46883.736
46966.714
46803.488
46926.464
47023.67
46815.681
46863.473
47073.083
46968.348
46745.512
46743.203
46908.065
47043.217
47067.427
47027.13
46993.049
46976.82
46971.518
46901.959
46901.956
46901.953
46901.949
46901.946
46901.942
46901.938
46901.934
46901.929
46901.924
46901.919
46901.913
46901.907
46901.9
46901.893
46901.885
46901.876
46901.867
46901.857
46901.846
46901.833
46901.82
46901.806
46901.79
46901.773
46901.755
46901.735
46901.713
46901.689
46901.663
46901.635
46901.604
46901.57
46901.533
46901.492
46901.447
46901.397
46901.341
46901.28
46901.211
46901.133
46901.045
46900.946
46900.837
46900.718
46900.589
46900.45
46900.303
46900.142
46899.992
46899.773
46899.738
46899.281
46899.294
46899.112
46899.16
46899.412
46899.772
46900.061
46900.463
46900.871
46901.26
46901.617
46901.995
46902.408
46902.786
46903.108
46903.346
46903.613
46903.895
46904.21
46904.522
46904.811
46905.106
46905.399
46905.711
46906.016
46906.238
46906.4
46906.524
46906.655
46906.821
46907.04
46907.168
46907.134
46907.126
46906.931
46906.942
46906.354
46906.313
46905.343
46904.933
46903.636
46902.742
46901.028
46899.511
46897.318
46895.137
46892.31
46889.57
46886.262
46882.972
46879.313
46875.772
46872.275
46869.023
46866.112
46863.867
46861.743
46859.605
46857.235
46856.062
46855.96
46858.835
46868.83
46864.117
46875.432
46879.791
46851.317
46932.397
46844.642
46884.278
46965.371
46802.301
46927.465
47023.107
46814.135
46863.721
47073.946
46967.037
46743.635
46742.464
46908.792
47044.513
47068.305
47027.535
46993.185
46976.855
46971.526
46891.067
46891.065
46891.063
46891.061
46891.058
46891.056
46891.053
46891.05
46891.047
46891.044
46891.041
46891.037
46891.033
46891.029
46891.025
46891.02
46891.015
46891.01
46891.004
46890.998
46890.991
46890.983
46890.975
46890.966
46890.956
46890.946
46890.934
46890.922
46890.908
46890.894
46890.878
46890.861
46890.843
46890.823
46890.801
46890.778
46890.754
46890.728
46890.7
46890.67
46890.637
46890.602
46890.561
46890.514
46890.456
46890.385
46890.295
46890.183
46890.043
46889.868
46889.655
46889.408
46889.078
46888.863
46888.861
46889.179
46889.792
46890.432
46890.827
46891.57
46892.256
46892.995
46893.68
46894.343
46894.94
46895.401
46895.816
46896.193
46896.594
46896.974
46897.34
46897.708
46898.071
46898.419
46898.74
46899.065
46899.336
46899.538
46899.716
46899.903
46900.148
46900.393
46900.646
46900.739
46900.753
46900.813
46900.742
46900.815
46900.305
46900.37
46899.474
46899.164
46897.983
46897.214
46895.65
46894.292
46892.271
46890.281
46887.67
46885.146
46882.05
46878.974
46875.535
46872.225
46868.919
46865.812
46863.084
46860.998
46859.054
46857.018
46854.731
46853.64
46853.619
46856.635
46866.736
46862.597
46874.543
46878.176
46850.655
46931.579
46842.969
46884.841
46963.967
46801.171
46928.455
47022.513
46812.633
46863.999
47074.806
46965.683
46741.769
46741.718
46909.536
47045.82
47069.182
47027.938
46993.32
46976.89
46886.79
46886.789
46886.788
46886.787
46886.786
46886.784
46886.783
46886.782
46886.78
46886.779
46886.778
46886.777
46886.775
46886.774
46886.773
46886.772
46886.77
46886.769
46886.768
46886.767
46886.766
46886.766
46886.765
46886.764
46886.763
46886.763
46886.762
46886.761
46886.761
46886.76
46886.759
46886.758
46886.757
46886.756
46886.754
46886.753
46886.751
46886.749
46886.746
46886.742
46886.738
46886.733
46886.727
46886.718
46886.705
46886.686
46886.656
46886.613
46886.551
46886.468
46886.364
46886.241
46886.169
46885.97
46885.567
46885.233
46884.575
46884.569
46885.411
46886.021
46886.633
46887.163
46887.684
46888.108
46888.477
46888.867
46889.277
46889.702
46890.128
46890.541
46890.902
46891.259
46891.584
46891.899
46892.188
46892.437
46892.664
46892.9
46893.15
46893.417
46893.733
46893.966
46894.217
46894.339
46894.442
46894.584
46894.592
46894.7
46894.276
46894.41
46893.634
46893.404
46892.331
46891.677
46890.257
46889.052
46887.198
46885.403
46883.018
46880.71
46877.825
46874.961
46871.733
46868.652
46865.572
46862.658
46860.118
46858.208
46856.364
46854.431
46852.228
46851.238
46851.256
46854.413
46864.631
46861.061
46873.662
46876.58
46850.03
46930.721
46841.336
46885.406
46962.504
46800.094
46929.431
47021.894
46811.165
46864.316
47075.651
46964.298
46739.916
46740.96
46910.298
47047.138
47070.059
47028.338
46993.453
46976.924
46883.186
46883.185
46883.184
46883.183
46883.182
46883.181
46883.179
46883.178
46883.176
46883.175
46883.174
46883.172
46883.171
46883.169
46883.168
46883.167
46883.166
46883.165
46883.164
46883.164
46883.164
46883.164
46883.164
46883.164
46883.165
46883.166
46883.167
46883.169
46883.171
46883.173
46883.175
46883.178
46883.182
46883.186
46883.192
46883.198
46883.205
46883.213
46883.223
46883.233
46883.244
46883.255
46883.265
46883.274
46883.279
46883.278
46883.268
46883.25
46883.227
46883.205
46883.187
46883.174
46883.2
46883.285
46883.39
46883.464
46883.551
46883.728
46883.693
46883.55
46883.48
46883.351
46883.26
46883.24
46883.381
46883.639
46883.92
46884.158
46884.339
46884.53
46884.732
46884.961
46885.174
46885.392
46885.601
46885.793
46886.066
46886.406
46886.731
46887.031
46887.329
46887.554
46887.767
46887.993
46888.182
46888.366
46888.404
46888.602
46888.277
46888.454
46887.797
46887.658
46886.707
46886.164
46884.892
46883.843
46882.158
46880.553
46878.383
46876.272
46873.595
46870.942
46867.92
46865.067
46862.163
46859.461
46857.089
46855.374
46853.701
46851.855
46849.745
46848.819
46848.946
46852.205
46862.523
46859.493
46872.761
46874.98
46849.42
46929.797
46839.723
46885.972
46961.005
46799.064
46930.4
47021.253
46809.724
46864.666
47076.482
46962.882
46738.07
46740.201
46911.08
47048.466
47070.936
47028.735
46993.584
46976.958
46879.166
46879.165
46879.164
46879.162
46879.16
46879.159
46879.157
46879.155
46879.153
46879.151
46879.149
46879.147
46879.145
46879.143
46879.141
46879.139
46879.136
46879.134
46879.132
46879.13
46879.128
46879.125
46879.123
46879.121
46879.119
46879.117