/*--------------------------------*- C++ -*----------------------------------*\
| =========                 |                                                 |
| \\      /  F ield         | OpenFOAM: The Open Source CFD Toolbox           |
|  \\    /   O peration     | Version:  2506                                  |
|   \\  /    A nd           | Website:  www.openfoam.com                      |
|    \\/     M anipulation  |                                                 |
\*---------------------------------------------------------------------------*/
FoamFile
{
    version     2.0;
    format      ascii;
    arch        "LSB;label=32;scalar=64";
    class       volScalarField;
    location    "2.1";
    object      Ma;
}
// * * * * * * * * * * * * * * * * * * * * * * * * * * * * * * * * * * * * * //

dimensions      [0 0 0 0 0 0 0];

internalField   nonuniform List<scalar> 
1376
(
0.20774338
0.27096734
0.27883368
0.28337984
0.28488473
0.28668856
0.28826148
0.28983367
0.29123371
0.29256643
0.29368073
0.29464965
0.29552134
0.29636653
0.2970569
0.29761174
0.29832444
0.29889485
0.29927498
0.29951963
0.29977272
0.3000131
0.3001654
0.30023301
0.3002876
0.30032347
0.30031718
0.24192746
0.28596113
0.28767379
0.28949192
0.28999384
0.29098537
0.29168963
0.29275205
0.29374399
0.29479431
0.29558061
0.2964086
0.29705135
0.29756302
0.29812625
0.29867371
0.29913397
0.29952216
0.29979507
0.30005285
0.30027394
0.30041376
0.30049583
0.30053446
0.30053574
0.30051773
0.30047861
0.30042415
0.30036342
0.25446998
0.29400601
0.29393407
0.29489278
0.29469871
0.29550226
0.29563657
0.29629038
0.29680548
0.29745061
0.29784082
0.29832678
0.2986256
0.29900698
0.29937361
0.29964975
0.29991029
0.30019449
0.30046859
0.30064755
0.30073091
0.30077785
0.3008039
0.30079401
0.30076016
0.30070644
0.30064425
0.30055143
0.30047854
0.30041982
0.26268786
0.3004038
0.29917789
0.30010194
0.29945709
0.29993175
0.29965764
0.29980144
0.29978701
0.30001553
0.2999971
0.3002788
0.3003635
0.30054164
0.30065114
0.30078381
0.30090903
0.30105357
0.3011719
0.30118659
0.30117556
0.30116768
0.30114243
0.30108133
0.30100108
0.30090492
0.30080959
0.30068598
0.30059854
0.300513
0.30040235
0.2704492
0.30637394
0.30365007
0.30497144
0.30387048
0.3041159
0.30353823
0.30321385
0.30268247
0.30259883
0.30219573
0.30219989
0.30217692
0.30213176
0.30192784
0.30197691
0.30190884
0.3018663
0.30182887
0.30176602
0.30167929
0.30158811
0.30148148
0.30137605
0.30124475
0.30109889
0.30097522
0.30083218
0.30071877
0.3006
0.30047805
0.30035278
0.30025543
0.27412306
0.31093931
0.30725146
0.3092744
0.3076428
0.30788332
0.30703957
0.30645992
0.3054788
0.30520722
0.30454876
0.30407667
0.30389263
0.30381859
0.30336476
0.30310261
0.30287975
0.30272556
0.30254015
0.30237893
0.30219
0.30201641
0.30182813
0.3016544
0.30148708
0.30129877
0.30113271
0.3009764
0.30083147
0.30067941
0.30054772
0.3003994
0.3002975
0.30021586
0.28079748
0.31520226
0.31104545
0.3130617
0.31084572
0.31115039
0.30981789
0.30930062
0.30793526
0.30760573
0.30684245
0.30606095
0.30555598
0.30539007
0.30493333
0.30428681
0.30384763
0.30359951
0.3032398
0.30296216
0.30270147
0.30244338
0.30218082
0.30192614
0.30171673
0.30150249
0.30128941
0.30111556
0.30093717
0.30075735
0.30061193
0.30044769
0.30033909
0.30024488
0.30015605
0.28519122
0.31846806
0.31503513
0.31622448
0.31384546
0.31399674
0.31221271
0.31185001
0.31016298
0.30965481
0.30882485
0.30806927
0.30704117
0.30663503
0.3063876
0.30557082
0.30479899
0.30440674
0.30396072
0.30355918
0.30319445
0.30285567
0.30254507
0.30220712
0.30193118
0.30169672
0.30145076
0.30124762
0.30103317
0.30083319
0.30066959
0.30049883
0.30037898
0.30027281
0.30017993
0.30010767
0.29118279
0.32221226
0.31822466
0.31888368
0.31657812
0.31649774
0.31436775
0.31415618
0.31235691
0.31170748
0.31056168
0.3099489
0.30843396
0.30752031
0.30732518
0.3068018
0.30589325
0.30518242
0.30467382
0.30418773
0.30367281
0.30323594
0.30288266
0.30249636
0.30215021
0.30186792
0.30159874
0.30137119
0.30112451
0.30090586
0.30072207
0.30055347
0.30041861
0.30029873
0.30020596
0.30012685
0.29209886
0.32446643
0.32070309
0.32169738
0.31897918
0.31893195
0.31642734
0.3161841
0.31456813
0.31408981
0.31245518
0.31170867
0.31011587
0.30867528
0.30785371
0.30757701
0.30699542
0.30603077
0.30531394
0.3047608
0.30415973
0.30361317
0.30317529
0.30276398
0.302382
0.30203476
0.30172963
0.30148164
0.30121912
0.30097959
0.30077342
0.30060824
0.30045868
0.30032378
0.3002314
0.30014708
0.30008069
0.29531728
0.32808987
0.3230532
0.32511212
0.3215036
0.32147215
0.31843624
0.318063
0.3164639
0.31607989
0.3142537
0.3132175
0.31169389
0.31050289
0.308823
0.30801112
0.30769792
0.30691504
0.30601536
0.30524441
0.30460939
0.3040134
0.30345803
0.30299488
0.30259706
0.30220768
0.30185683
0.3015765
0.3013115
0.30105625
0.30082829
0.30065893
0.30049655
0.30035022
0.30025558
0.30016646
0.3000893
0.30002358
0.29833168
0.33040208
0.32612133
0.32664277
0.32412562
0.32364539
0.32092598
0.32050026
0.31843276
0.31739533
0.31553746
0.314475
0.31292853
0.31188253
0.31050452
0.30892933
0.30809848
0.30750578
0.30677355
0.30573798
0.30497982
0.30437982
0.30375685
0.30321449
0.30277636
0.30236536
0.30198889
0.30166963
0.30139822
0.3011311
0.30088903
0.30070719
0.30052945
0.30037738
0.30028076
0.30018319
0.300098
0.30003543
0.29995885
0.30820483
0.33019155
0.32850072
0.32698845
0.32559276
0.32512396
0.32311272
0.32301055
0.3207514
0.31880882
0.31663262
0.31550255
0.31405222
0.31270845
0.3115243
0.31037271
0.30882652
0.30783443
0.30728023
0.30630426
0.30534798
0.30466168
0.30403743
0.30345034
0.30294109
0.30249849
0.30211226
0.3017704
0.30148562
0.3011974
0.3009468
0.30075699
0.3005592
0.30040193
0.3003063
0.3001987
0.30010733
0.3000463
0.29996307
0.29990698
0.30929721
0.33379565
0.32952197
0.32967555
0.32670149
0.32651199
0.32446205
0.32425461
0.32223117
0.32054779
0.31841752
0.31662932
0.31524077
0.31365474
0.31201397
0.31117726
0.30994231
0.30836824
0.30750433
0.30674051
0.30579412
0.30490998
0.30424868
0.3036778
0.30311404
0.30262387
0.30221833
0.30186629
0.30157443
0.30125901
0.30099272
0.30080462
0.30059416
0.30042485
0.30032653
0.30021664
0.30011734
0.30005508
0.2999672
0.29991177
0.2998691
0.30920803
0.33996056
0.33045765
0.33265831
0.32879426
0.32903666
0.32602304
0.32481795
0.32251335
0.32148582
0.32003614
0.31812133
0.31639918
0.31483588
0.31280162
0.31151622
0.3105666
0.30923504
0.3077585
0.30694865
0.30617763
0.30520989
0.30441878
0.30385411
0.30327955
0.30276028
0.30232214
0.3019461
0.3016475
0.30132578
0.30103074
0.3008389
0.30063835
0.30045217
0.30034042
0.30023571
0.30012806
0.30006176
0.29997241
0.29991853
0.29987727
0.29984619
0.31332398
0.34098526
0.33283275
0.33504977
0.33058256
0.33140416
0.32829613
0.3266571
0.32290092
0.32194491
0.32052186
0.31918572
0.31746241
0.3157124
0.3139543
0.31199103
0.31077901
0.30978846
0.30832423
0.30711519
0.3063725
0.30550475
0.30461983
0.30398458
0.30340884
0.30289587
0.30243358
0.30201399
0.30169336
0.30139011
0.30107445
0.30086022
0.30067827
0.30048818
0.30035433
0.30025048
0.30013957
0.30006715
0.29997992
0.29992713
0.29988721
0.29985562
0.29981671
0.31768038
0.34469033
0.3349762
0.33820188
0.33199385
0.33249129
0.32954758
0.32837069
0.32522252
0.32372027
0.32080807
0.31948637
0.31807153
0.31619725
0.31470996
0.31275262
0.31099634
0.30996522
0.30882708
0.30748054
0.30649178
0.30568721
0.30484525
0.30411232
0.30350157
0.30300482
0.30253687
0.30208123
0.30172238
0.30143105
0.30113132
0.30088354
0.30070518
0.30052453
0.30037356
0.30026259
0.30015134
0.30007211
0.29998964
0.29993476
0.29989617
0.29986194
0.29981957
0.29978278
0.32081242
0.3476473
0.3367989
0.33936855
0.33400763
0.33368373
0.33019549
0.32877253
0.32628146
0.32519801
0.32211147
0.3200084
0.31834955
0.31641404
0.31503648
0.31334167
0.3114494
0.31005779
0.30904095
0.30787442
0.30671504
0.30579952
0.30501208
0.30424327
0.3035817
0.30307953
0.30261521
0.30215067
0.30175298
0.30144992
0.30117837
0.30092182
0.3007314
0.3005524
0.30039245
0.30027688
0.30016248
0.30007679
0.3000001
0.29994165
0.29990496
0.29986654
0.29982327
0.29978911
0.29977325
0.32466863
0.34647771
0.3382725
0.33932903
0.33532959
0.33530581
0.33144939
0.32940726
0.32664772
0.32525198
0.32282216
0.32098155
0.31895001
0.31668545
0.31515285
0.31362663
0.31189554
0.31032915
0.30910164
0.30806585
0.30695771
0.30593111
0.30511032
0.30434063
0.30366167
0.30313205
0.30266613
0.30220803
0.30179773
0.3014674
0.30120025
0.30095792
0.30076979
0.30057815
0.30040716
0.30029149
0.30017199
0.30008101
0.30001093
0.29994987
0.29991267
0.29986931
0.29982868
0.29979174
0.29977315
0.29973095
0.32366475
0.34884608
0.3397349
0.34103832
0.33620479
0.33584457
0.33211063
0.33061649
0.32798786
0.32480784
0.32323925
0.32126926
0.31938718
0.31715227
0.3154161
0.31372111
0.31213255
0.3106207
0.30921525
0.3081062
0.30706801
0.30604353
0.30517653
0.30440607
0.30373263
0.30316941
0.30269107
0.30224584
0.30183978
0.30150414
0.30121513
0.30097609
0.3008004
0.30061112
0.30042417
0.30030407
0.30017858
0.30008456
0.3000213
0.29996058
0.29991898
0.29987038
0.29983209
0.29978937
0.29977537
0.29973603
0.29972232
0.32806174
0.35373716
0.341526
0.34246525
0.33724264
0.33563347
0.33207439
0.33106954
0.32916079
0.3255369
0.32401938
0.32113132
0.31929995
0.31729021
0.31586882
0.31387382
0.31219141
0.31073861
0.30935453
0.3081353
0.30707184
0.30609018
0.3052245
0.30445089
0.30377937
0.30319679
0.30270028
0.3022721
0.30186603
0.30154539
0.30125928
0.30098969
0.30080951
0.30063625
0.30044744
0.30031707
0.30018361
0.30008653
0.30002726
0.29997154
0.29992518
0.29987039
0.2998332
0.29978679
0.29978276
0.29973864
0.29972765
0.29973011
0.29985504
0.33353959
0.35238349
0.34283361
0.3437277
0.33836195
0.33559603
0.33245644
0.33113475
0.32947391
0.32618094
0.32480554
0.32108855
0.31923116
0.31727114
0.31605296
0.31396234
0.31221683
0.31068638
0.30937191
0.3081904
0.30705502
0.30610035
0.3052547
0.30447327
0.30380163
0.30322375
0.30271244
0.30229373
0.30188535
0.30157224
0.30130333
0.30102611
0.30081101
0.300642
0.30046351
0.3003285
0.3001899
0.30008705
0.3000285
0.29997789
0.29993129
0.29987054
0.29983432
0.29978662
0.29978674
0.29973924
0.29973219
0.29971931
0.29985149
0.33511837
0.35181017
0.34279588
0.34474449
0.33968762
0.33710864
0.33384531
0.33119684
0.32884133
0.32614554
0.32527527
0.32131939
0.31967813
0.31732961
0.31537154
0.31354605
0.31208756
0.31060856
0.30934012
0.30823327
0.3071107
0.30610752
0.30527669
0.30448702
0.30381587
0.30323512
0.30272826
0.3023075
0.30189535
0.30157943
0.3013182
0.30106021
0.30081333
0.30063052
0.30046841
0.30033512
0.30019521
0.30008795
0.30002886
0.29997873
0.29993769
0.29987249
0.29983976
0.29978475
0.29978594
0.29973888
0.29973348
0.2997021
0.29985023
0.33339752
0.3548313
0.34277265
0.34488325
0.34033232
0.3381211
0.33562301
0.33082325
0.32869341
0.32612418
0.32464999
0.32087134
0.31956475
0.31719829
0.31493503
0.31335057
0.31202874
0.31061992
0.30929805
0.30814046
0.30704602
0.30612857
0.30528276
0.30446095
0.30380809
0.3031762
0.30270092
0.30227545
0.30187558
0.30156153
0.30131843
0.30107457
0.30081373
0.30062396
0.30046871
0.30033922
0.30019858
0.30009766
0.3000289
0.29997728
0.29994413
0.29987381
0.29984482
0.29978107
0.29978142
0.29973827
0.29973233
0.29968596
0.29985007
0.3378329
0.35489847
0.34477846
0.34408809
0.34022047
0.33826293
0.3367229
0.330447
0.32892572
0.32525805
0.32351835
0.32016163
0.31897477
0.31691046
0.31507694
0.31348997
0.31194709
0.3102995
0.30904555
0.30795659
0.30694203
0.30606512
0.30507948
0.30437549
0.30372798
0.30312239
0.30265531
0.30224489
0.30186805
0.30155741
0.3013205
0.30107655
0.30081242
0.30062212
0.30047079
0.30034333
0.30019994
0.30010535
0.30002691
0.29997828
0.29994692
0.29987449
0.29984658
0.29978102
0.29978038
0.29973788
0.29973013
0.2996768
0.29985355
0.33805183
0.35524301
0.34599074
0.34395381
0.34042546
0.3365406
0.33631561
0.33022159
0.32959266
0.32440207
0.32325137
0.32016535
0.31850291
0.31646361
0.31493141
0.31306586
0.3113704
0.31007159
0.30894786
0.30787939
0.30686382
0.30579609
0.30496895
0.30436249
0.30367472
0.30311153
0.30264851
0.30224992
0.30187349
0.30156056
0.30131812
0.30106932
0.30081169
0.30062801
0.30047049
0.30033244
0.3001927
0.30010844
0.30003596
0.29997905
0.29994247
0.29987505
0.29984941
0.29978736
0.29978037
0.29972956
0.29971837
0.29967433
0.29985846
0.33772947
0.35695002
0.34632077
0.34437472
0.34165241
0.33464025
0.33540314
0.3299371
0.3302448
0.3241944
0.32289002
0.32046435
0.31800815
0.31600244
0.31414171
0.31247932
0.31112821
0.31004219
0.30882775
0.30763369
0.30658763
0.30563467
0.30496273
0.30428174
0.30360582
0.30311899
0.30263041
0.3021627
0.30178498
0.30147719
0.30126524
0.30106718
0.30081475
0.30063781
0.30045147
0.30030768
0.30019174
0.30010926
0.30004511
0.29997059
0.2999285
0.29987585
0.29985682
0.29979153
0.29976829
0.29971999
0.2997007
0.29967439
0.29986254
0.34138292
0.35730462
0.34657422
0.34377027
0.34254777
0.33409958
0.33556877
0.3282528
0.32904927
0.32396903
0.3225648
0.32036068
0.31752117
0.31541147
0.31360759
0.31212237
0.31078046
0.30940688
0.30823844
0.30723273
0.30632676
0.30554409
0.30477986
0.30406995
0.3035482
0.30300995
0.30245431
0.30205685
0.30172159
0.30142354
0.30123311
0.30105576
0.30080568
0.30064076
0.30044042
0.30029939
0.30020548
0.3001068
0.30004449
0.29996034
0.29991805
0.29987728
0.29986286
0.29979191
0.29975592
0.29971396
0.29969136
0.29966887
0.2998638
0.34604435
0.35575834
0.34755433
0.3430428
0.3428871
0.33456004
0.33321219
0.32638774
0.32666911
0.32289789
0.32128231
0.31864941
0.31636355
0.3145631
0.3128403
0.31139503
0.30999815
0.30881631
0.30785142
0.30692237
0.30605569
0.30525551
0.30450752
0.30390744
0.30339929
0.30284931
0.30236501
0.30202464
0.30171271
0.30142962
0.30121232
0.30094567
0.30077064
0.30060732
0.30043721
0.30029753
0.30020872
0.3001058
0.30002421
0.29995121
0.2999125
0.29987947
0.29986322
0.29978938
0.29975144
0.29970762
0.29968906
0.29965348
0.29985964
0.34510066
0.35468521
0.34887441
0.34289561
0.34173355
0.33425672
0.33089571
0.32582337
0.32531384
0.32133078
0.31938164
0.31727954
0.31541426
0.31365899
0.31209734
0.31068855
0.30943289
0.30845726
0.30751065
0.30656597
0.30569718
0.30492379
0.30429103
0.30371731
0.30318362
0.30271393
0.30231994
0.30200207
0.30169181
0.3014499
0.30117017
0.30086961
0.30071796
0.30055585
0.34348739
0.35422247
0.34912476
0.34068452
0.33950955
0.33110287
0.33028984
0.32594048
0.32375362
0.32042056
0.31838211
0.31621422
0.31443166
0.31264355
0.31123658
0.30997565
0.30884894
0.30784734
0.30695493
0.30611984
0.30534198
0.34822273
0.35392641
0.34608966
0.33742653
0.33745735
0.32899381
0.33079117
0.32497764
0.32203387
0.31943199
0.3168779
0.35153553
0.35192833
0.23783722
0.22576435
0.21651795
0.21580061
0.22753574
0.2368626
0.24426143
0.25106844
0.25554862
0.26867726
0.27237162
0.27694808
0.28053748
0.28399487
0.28489753
0.27582805
0.27877489
0.28341575
0.28746624
0.29047376
0.29175384
0.27918028
0.28137265
0.28534625
0.28912136
0.29200624
0.29317529
0.28143681
0.28315104
0.28644755
0.28978168
0.29250391
0.29330981
0.28373669
0.28494223
0.28750369
0.29037768
0.29283631
0.29338401
0.28589294
0.28674566
0.28871254
0.29119019
0.29321068
0.29337021
0.2878715
0.28847713
0.2899356
0.29201248
0.29350237
0.29340839
0.28958471
0.2900096
0.29105644
0.29266425
0.29374122
0.29105259
0.29133327
0.29207806
0.29318833
0.29402149
0.29233183
0.29250088
0.29302795
0.29377072
0.29430403
0.29341548
0.29360773
0.29405891
0.29448067
0.29461517
0.29455193
0.29462768
0.29481895
0.29512932
0.29506224
0.29566942
0.29525364
0.29532176
0.29567213
0.29562692
0.29642053
0.29601249
0.29601304
0.2960818
0.29688778
0.29688034
0.29677817
0.2965363
0.29740124
0.29725922
0.29730818
0.29717331
0.29801565
0.29760264
0.29774234
0.29768632
0.29870815
0.29807432
0.29807341
0.29920543
0.29882272
0.29837766
0.29950007
0.29926599
0.29880863
0.29968177
0.29946816
0.29983721
0.29962911
0.29995044
0.29979564
0.3000206
0.30010883
)
;

boundaryField
{
    Side
    {
        type            empty;
    }
    Inlet
    {
        type            calculated;
        value           nonuniform List<scalar> 9(0.29968715 0.29968517 0.29968446 0.29968441 0.29968622 0.29968874 0.29969085 0.2996915 0.29968941);
    }
    Airfoil
    {
        type            calculated;
        value           uniform 0;
    }
    Outlet
    {
        type            calculated;
        value           nonuniform List<scalar> 0();
    }
    procBoundary8to1
    {
        type            processor;
        value           nonuniform List<scalar> 8(0.20872681 0.25333968 0.25031212 0.24627847 0.24627847 0.27761606 0.27209736 0.26893896);
    }
    procBoundary8to7
    {
        type            processor;
        value           nonuniform List<scalar> 
53
(
0.30043408
0.30028468
0.30019847
0.30010596
0.30000541
0.2999479
0.29991087
0.29987966
0.29984228
0.2997777
0.29975198
0.29970266
0.29969147
0.29963928
0.29983293
0.30469032
0.30408789
0.30352254
0.30305165
0.30260153
0.30220768
0.30186755
0.3015534
0.30133642
0.30112363
0.30086082
0.30067203
0.30043408
0.30052101
0.31464548
0.31286512
0.31161038
0.31029565
0.30910435
0.30808284
0.30720427
0.30642084
0.3056539
0.30469032
0.3049617
0.34410012
0.33608814
0.33532128
0.32817291
0.32926621
0.32184131
0.31985514
0.31710357
0.31464548
0.31478896
0.34941533
0.34410012
0.3510372
)
;
    }
    procBoundary8to9
    {
        type            processor;
        value           nonuniform List<scalar> 
75
(
0.30029472
0.30016326
0.30029472
0.30024959
0.3003249
0.3003249
0.30032558
0.30032558
0.30030442
0.30030442
0.30021286
0.30018751
0.30018751
0.30013387
0.30013387
0.30008964
0.30008964
0.30005824
0.30007084
0.30007084
0.30001193
0.30001193
0.29995425
0.29995425
0.29990555
0.29990555
0.29986221
0.29986221
0.29983482
0.29983482
0.29981025
0.29981025
0.29977709
0.29977709
0.29977172
0.29977172
0.29972806
0.29972806
0.29971921
0.29971921
0.29973474
0.29973474
0.29986176
0.25746244
0.28449624
0.29157362
0.29312975
0.29325809
0.29343898
0.29359318
0.29373838
0.2936009
0.2936009
0.29396531
0.2943288
0.2946599
0.29509624
0.29567942
0.29611157
0.29611157
0.29655144
0.29703736
0.29743753
0.29804166
0.29804166
0.29833445
0.29859839
0.2991673
0.2991673
0.29939845
0.29961912
0.29986142
0.29986142
0.29995031
0.30016326
)
;
    }
}


// ************************************************************************* //
