/*--------------------------------*- C++ -*----------------------------------*\
| =========                 |                                                 |
| \\      /  F ield         | OpenFOAM: The Open Source CFD Toolbox           |
|  \\    /   O peration     | Version:  2506                                  |
|   \\  /    A nd           | Website:  www.openfoam.com                      |
|    \\/     M anipulation  |                                                 |
\*---------------------------------------------------------------------------*/
FoamFile
{
    version     2.0;
    format      ascii;
    arch        "LSB;label=32;scalar=64";
    class       volScalarField;
    location    "0.7";
    object      k;
}
// * * * * * * * * * * * * * * * * * * * * * * * * * * * * * * * * * * * * * //

dimensions      [0 2 -2 0 0 0 0];

internalField   nonuniform List<scalar> 
1375
(
8.2321735
8.8251554
7.8528421
8.1802053
8.7652396
7.596858
7.8096773
8.1307072
8.7084956
7.4127673
7.5598621
7.7684928
8.0836651
8.6551457
7.2747977
7.3803444
7.5244343
7.7291177
8.0388532
8.6045257
7.1696549
7.245916
7.3492147
7.4904865
7.6914605
7.9963086
8.5561949
7.0876558
7.1436886
7.2181214
7.319313
7.4579343
7.6554528
7.9556949
8.5100506
7.0229882
7.0640412
7.1185975
7.1913273
7.2905422
7.4266723
7.6209885
7.9168734
8.4661146
6.9712774
7.0012692
7.041108
7.0942997
7.1654451
7.2628113
7.3966081
7.5879456
7.8797706
8.4245972
6.9294073
6.9510905
6.9801107
7.0188282
7.0707626
7.1404341
7.2360705
7.3676885
7.5562518
7.8443568
8.3854706
6.8952093
6.9104762
6.9313684
6.9594929
6.9971787
7.0479553
7.1162584
7.2102779
7.3398647
7.5258411
7.810425
8.3483622
6.8670845
6.8772338
6.891878
6.9120404
6.939345
6.9760905
7.0258007
7.0928403
7.1853492
7.3130547
7.4966255
7.777969
8.3127551
6.8498101
6.8594663
6.873541
6.8930387
6.9195988
6.9554971
7.0042263
7.0701053
7.1612105
7.2871812
7.4685043
7.7468591
8.2791334
6.8268662
6.8326778
6.8418895
6.8554459
6.8743446
6.900234
6.9353745
6.983203
7.0480171
7.1378256
7.2622002
7.4414223
7.7170737
8.2469793
6.8074582
6.8102258
6.8156659
6.824476
6.8375667
6.8559318
6.8812235
6.9156896
6.9626938
7.0265327
7.1151451
7.2380589
7.4153327
7.6885007
8.2162938
6.7908245
6.7911139
6.793595
6.7987159
6.8071667
6.8198467
6.8377436
6.8625115
6.8963801
6.9426354
7.0055872
7.0931059
7.2146858
7.390168
7.6610633
8.1867947
6.7787156
6.7760542
6.7745829
6.7746756
6.7769039
6.7817589
6.7898959
6.8022227
6.8197173
6.8440341
6.8773774
6.9229623
6.9851148
7.0716446
7.1920188
7.365875
7.6346998
8.1588838
6.7668536
6.7626317
6.7597223
6.7581484
6.7580621
6.7600727
6.7647101
6.7725822
6.7846113
6.8017683
6.8257013
6.8585866
6.9035834
6.9650222
7.0506603
7.1699478
7.3423369
7.6092844
8.1314353
6.7559976
6.7505145
6.7461851
6.7430324
6.741408
6.7411765
6.7430164
6.7474867
6.7551574
6.7669536
6.7838499
6.8074717
6.8399804
6.8844888
6.9453214
7.0301887
7.1485374
7.3196569
7.5850167
8.1076347
6.7559022
6.7464327
6.7393256
6.7335803
6.7291643
6.72579
6.7241037
6.7237496
6.7254292
6.7297505
6.7372601
6.7488537
6.7655341
6.7888747
6.8210496
6.8651216
6.9253984
7.0095416
7.1270097
7.2969214
7.5606852
8.0778594
6.3039738
6.6161868
6.9083057
7.1639864
7.4064666
7.684874
8.0333119
8.4220743
8.8057901
9.1818086
9.5800103
10.029182
10.527237
11.064155
11.618587
12.143074
12.637626
13.19464
13.918006
14.766384
15.612721
16.473316
17.495129
6.9813645
7.3587322
7.728113
8.0616112
8.3742291
8.7176518
9.1375948
9.6173519
10.078583
10.495673
10.948519
11.519668
12.153065
12.703012
13.137674
13.567498
14.11229
14.710621
15.199559
15.588344
16.064218
16.701349
17.378414
6.9291123
7.1930168
7.4304455
7.6124087
7.7439128
7.8555908
7.9837128
8.1494995
8.3152759
8.4535406
8.6052485
8.8080676
9.0086054
9.1235649
9.1651016
9.1946356
9.2842134
9.4187206
9.5313938
9.6332659
9.7800488
9.9582379
10.133475
6.4614404
6.6372721
6.7955845
6.9062953
6.9707061
7.0140268
7.0687093
7.1656081
7.2989803
7.4453494
7.6039093
7.7721822
7.918103
8.0146938
8.0708954
8.1155195
8.1837348
8.3091893
8.4842542
8.6697268
8.8377225
8.986115
9.1247737
6.3320842
6.4991224
6.6630701
6.7910469
6.8768016
6.9425739
7.0217686
7.1401757
7.2933245
7.4617535
7.6375581
7.811968
7.9607481
8.0652582
8.1306314
8.1793692
8.2444856
8.364244
8.5384576
8.7239335
8.8858362
9.0219856
9.142964
6.4805128
6.6481777
6.8176195
6.9574947
7.0583818
7.1391758
7.2298548
7.3514485
7.4997828
7.6596582
7.8241933
7.9852953
8.1241938
8.2245555
8.2890912
8.3371681
8.3969037
8.4988332
8.6456074
8.8060127
8.9523971
9.0804713
9.195254
6.6877023
6.8457017
7.0060676
7.1422622
7.2443714
7.3272941
7.4159433
7.5272613
7.6579484
7.7969412
7.9398969
8.0803574
8.203111
8.2955966
8.3595912
8.4098155
8.466687
8.5494977
8.6612422
8.7855712
8.9055696
9.0156277
9.115112
6.8562043
6.9978579
7.1412162
7.265729
7.3622698
7.4417399
7.523602
7.6206291
7.7304169
7.846132
7.9661875
8.0850088
8.1898172
8.2725373
8.3359452
8.3903557
8.4479122
8.5174958
8.600166
8.6895584
8.7799864
8.8687372
8.9526636
6.961234
7.0846003
7.2085988
7.3187068
7.4074272
7.4820976
7.5567203
7.6400809
7.7305549
7.8248417
7.9234632
8.0221439
8.1102554
8.1826634
8.2432282
8.2993938
8.3566584
8.4167455
8.4787565
8.5413446
8.6062569
8.673385
8.7378596
8.7956236
7.0050563
7.111223
7.2166652
7.31225
7.3927404
7.4627302
7.5313566
7.6038768
7.6790375
7.7558409
7.8362137
7.9174522
7.9912113
8.0537026
8.1087858
8.1624632
8.216873
8.270365
8.3207415
8.367133
8.4136486
8.464003
8.5134112
8.5605502
6.9984767
7.0898225
7.1791131
7.2615011
7.3341216
7.3998487
7.4639518
7.5288063
7.5930361
7.6567062
7.7224963
7.7893354
7.8513198
7.9052583
7.9539049
8.0021219
8.0510861
8.0984368
8.141789
8.1800859
8.2166411
8.2574726
8.2988999
8.3382379
7.0332765
7.1095389
7.1808179
7.2462956
7.3079863
7.3684726
7.4280597
7.4849548
7.5393069
7.5940144
7.6496379
7.7026856
7.7505179
7.7943041
7.8373495
7.8805111
7.9222402
7.9611234
7.9964279
8.029798
8.0657336
8.1012693
8.1329988
6.9530478
7.0195282
7.0821531
7.1414892
7.1991789
7.2562108
7.3117243
7.3636655
7.4118885
7.4590356
7.5066891
7.5533971
7.5973371
7.6382596
7.6774852
7.715291
7.7510961
7.7861848
7.8209221
7.8545471
7.8873748
7.9197228
7.9502861
6.8585589
6.9182179
6.9746564
7.0290041
7.0826877
7.1359918
7.1877854
7.2362238
7.2809445
7.3239955
7.3669838
7.4093995
7.4502317
7.4887533
7.5250148
7.5591762
7.5913196
7.6231919
7.6566124
7.6910934
7.7233233
7.7485553
7.7668604
6.7569576
6.8121342
6.8644661
6.9150018
6.9649148
7.0143229
7.062483
7.1083009
7.151469
7.1931205
7.2338276
7.2728923
7.3102953
7.3465449
7.3815576
7.4146938
7.4449642
7.4733251
7.5024011
7.5326974
7.5627766
7.5903945
7.614279
6.6532531
6.7053955
6.7550373
6.8029001
6.8497872
6.8956994
6.9404268
6.9839148
7.0261888
7.0673714
7.1066408
7.1428515
7.1769763
7.2110293
7.2451539
7.27769
7.3069439
7.3335039
7.3598151
7.3881794
7.4182111
7.4456505
7.4676396
7.4878354
6.5507469
6.6004169
6.6479893
6.6940191
6.7389748
6.7825315
6.8245231
6.8655893
6.9063476
6.9466151
6.9847874
7.0192862
7.0512768
7.0833291
7.115852
7.1469174
7.17496
7.2008184
7.2269341
7.2545534
7.2832664
7.3100626
7.3305652
7.3472609
6.4516403
6.4989108
6.5444998
6.5890209
6.6327418
6.6750025
6.7152959
6.7543223
6.7930924
6.8318123
6.8689542
6.9025449
6.9330132
6.9626042
6.9925073
7.0219497
7.0501035
7.0769499
7.1033256
7.128994
7.1525339
7.1739747
7.1932912
7.2114506
6.3580228
6.4031983
6.4470155
6.4900974
6.5325875
6.5738409
6.6132321
6.6511158
6.6882155
6.7249874
6.7605781
6.7933773
6.8229695
6.8507688
6.8786374
6.9071475
6.9356937
6.9627111
6.9874696
7.0112414
7.0346961
7.0572764
7.0780822
7.0972249
7.1172978
6.2725698
6.31642
6.3592072
6.4012606
6.4424787
6.4825261
6.5212442
6.5588512
6.5953424
6.6305281
6.6638849
6.6950109
6.7241118
6.7521007
6.7802418
6.8087397
6.8368318
6.8637924
6.888898
6.9120231
6.9349202
6.9583877
6.9803084
6.9996993
7.0168287
6.1990452
6.2422802
6.2847445
6.3262973
6.3665258
6.4054225
6.4434804
6.4810063
6.5173393
6.5514671
6.5830612
6.6128268
6.6419824
6.6713415
6.7007695
6.7299535
6.758469
6.7855892
6.8107234
6.8329269
6.8523964
6.8713081
6.8904824
6.909415
6.9272651
6.1411333
6.1841458
6.2264054
6.2675406
6.3070608
6.3450884
6.3823466
6.4192776
6.4551652
6.4887792
6.5198439
6.549171
6.5781627
6.6076509
6.636966
6.6654584
6.6930284
6.7194636
6.7438277
6.7653674
6.7840287
6.8014684
6.8203393
6.8399434
6.8588139
6.8765466
6.0983645
6.141129
6.1829507
6.223581
6.2626152
6.3000882
6.3365759
6.372671
6.4080504
6.4416586
6.4728623
6.5019878
6.5302255
6.55864
6.5867292
6.6136396
6.6392766
6.6643436
6.6890495
6.7125993
6.7338009
6.7529579
6.7715211
6.7899216
6.8083129
6.8266306
6.0673417
6.1097726
6.1510471
6.1911536
6.2298753
6.2671497
6.3032185
6.3385236
6.3730995
6.4063523
6.4376842
6.4670858
6.4953497
6.523103
6.5502365
6.5762879
6.6007586
6.6243431
6.648183
6.6717099
6.6936918
6.7138556
6.7328379
6.7513579
6.7700826
6.7888266
6.0446928
6.0868457
6.1277426
6.167465
6.2059024
6.2429845
6.2787762
6.3135533
6.3474736
6.3802437
6.4114616
6.4410528
6.4694027
6.4968054
6.5234301
6.5490791
6.5735583
6.5970076
6.6197766
6.6421712
6.6642467
6.6852505
6.7045837
6.7227432
6.7406296
6.758126
6.7744848
6.0704112
6.111049
6.1504191
6.1884949
6.2252797
6.260794
6.2951348
6.3284504
6.3606619
6.3915308
6.4211573
6.4496946
6.4773347
6.504212
6.5299429
6.554505
6.5779178
6.6004146
6.6222754
6.6432426
6.6634693
6.6825772
6.700533
6.7181937
6.7352919
6.7515533
6.0584675
6.0987521
6.1377464
6.1754731
6.2119614
6.2472276
6.2812899
6.3142145
6.3460279
6.3766355
6.4062026
6.4347977
6.4624677
6.4891323
6.5146712
6.5389962
6.5622399
6.5845972
6.6061059
6.6268483
6.646931
6.6662598
6.6847027
6.7023518
6.7192155
6.7352574
6.7508007
6.0495261
6.0894607
6.1280887
6.1654675
6.2016145
6.2365943
6.2704551
6.3031859
6.3347578
6.3651872
6.394581
6.4230495
6.4506144
6.4771231
6.5024474
6.5266976
6.5500417
6.5726155
6.5943135
6.615001
6.6348653
6.6539505
6.6722986
6.6900761
6.7072194
6.7236323
6.7393917
6.043119
6.0826709
6.1209473
6.1580069
6.1938704
6.2285659
6.262168
6.2946945
6.3260935
6.3563858
6.3856149
6.4139128
6.4413383
6.4678264
6.493267
6.5176261
6.5409396
6.5633598
6.5849408
6.6056549
6.6255584
6.644678
6.6630216
6.6806763
6.6976822
6.7140466
6.7298482
6.0384996
6.0777643
6.1157988
6.152646
6.1883202
6.2228218
6.2561693
6.2884001
6.3195215
6.3495995
6.378683
6.4068163
6.433979
6.4601633
6.4852828
6.5093833
6.532538
6.5548963
6.5765042
6.59734
6.6174293
6.6367429
6.6552997
6.6731546
6.6903386
6.7068604
6.722761
6.0354165
6.074389
6.1121841
6.1488224
6.1842394
6.2184454
6.2514691
6.2833525
6.3141778
6.3440309
6.3729461
6.4009175
6.4278914
6.4538403
6.4787793
6.5027573
6.5258933
6.5482866
6.5699529
6.5908591
6.6110099
6.6303817
6.6490031
6.6669383
6.684211
6.7008535
6.7168877
6.0724697
6.1099045
6.1461808
6.1812813
6.2152026
6.2479608
6.2795927
6.3101909
6.3398469
6.3685842
6.3964016
6.4232435
6.4490882
6.4739593
6.497929
6.5210373
6.5433285
6.5648718
6.5857005
6.605849
6.6253223
6.6441014
6.6621931
6.6795974
6.6963407
6.7124461
6.0718094
6.1089205
6.1448479
6.1796641
6.2133653
6.2459509
6.2774009
6.3077609
6.3371234
6.3655751
6.3931463
6.4198028
6.4455049
6.470257
6.4941333
6.5172062
6.5395162
6.5610887
6.5819616
6.6021365
6.6216176
6.6404037
6.6584964
6.6759237
6.6927252
6.70894
6.0724892
6.1093289
6.1449516
6.1794317
6.2128397
6.2451958
6.2765028
6.3067197
6.3358814
6.3640911
6.3914115
6.4178778
6.4434638
6.4681703
6.4920124
6.5150365
6.5372946
6.558819
6.579643
6.5997929
6.6192821
6.6381302
6.6563356
6.6739084
6.6908563
6.7072035
6.110888
6.1461973
6.180408
6.213555
6.2456719
6.2767921
6.3069013
6.3359905
6.3640759
6.391204
6.417441
6.4428359
6.4674353
6.491236
6.5142598
6.5365187
6.5580509
6.5788826
6.5990431
6.6185529
6.6374231
6.6556622
6.6732854
6.6903091
6.7067648
6.1143033
6.1492879
6.1831938
6.2160338
6.2478405
6.278655
6.3085256
6.3374728
6.3654925
6.3925983
6.418809
6.4441406
6.4686211
6.4922929
6.5152086
6.5374058
6.5589143
6.5797551
6.5999379
6.6194884
6.6384221
6.6567598
6.6745151
6.6916994
6.7083266
6.1199902
6.1545974
6.1881709
6.2207368
6.2523037
6.282907
6.3125791
6.3413328
6.3691961
6.3961909
6.4223294
6.4476313
6.472116
6.4957996
6.5187167
6.5409074
6.5624114
6.5832658
6.6034941
6.623114
6.642139
6.6605816
6.6784539
6.6957693
6.7125439
6.1627295
6.1959969
6.2282772
6.2595882
6.2899557
6.3193996
6.3479586
6.3756656
6.4025386
6.4285972
6.453868
6.4783596
6.5020887
6.5250731
6.5473367
6.5689139
6.5898386
6.6101416
6.6298493
6.6489781
6.6675396
6.6855452
6.7030063
6.7199415
6.1744
6.2072971
6.2392637
6.2703267
6.3004829
6.3297592
6.3581793
6.385764
6.4125397
6.4385345
6.4637676
6.4882544
6.5120127
6.5350619
6.557421
6.5791176
6.6001737
6.6206099
6.6404469
6.6597059
6.6784086
6.6965759
6.714225
6.7313738
6.2231139
6.25479
6.2855886
6.315526
6.3446161
6.3728813
6.4003538
6.4270608
6.4530287
6.4782783
6.5028131
6.5266426
6.5497752
6.5722283
6.5940336
6.615219
6.6358126
6.6558349
6.6753001
6.6942226
6.7126166
6.7304968
6.7478827
6.2761887
6.3067382
6.3364653
6.3653928
6.3935526
6.4209699
6.4476614
6.4736363
6.4989011
6.5234611
6.5473355
6.5705498
6.5931301
6.6150994
6.6364755
6.6572749
6.6775169
6.6972188
6.7163991
6.7350743
6.7532598
6.7709717
6.3049543
6.3353355
6.3649373
6.3937854
6.421901
6.4493026
6.4760017
6.5020085
6.5273344
6.5519937
6.5760067
6.5993931
6.6221737
6.6443696
6.6659995
6.6870818
6.7076317
6.7276623
6.7471879
6.7662205
6.7847718
6.8028565
6.3741675
6.4037255
6.4325631
6.4607031
6.4881618
6.5149533
6.5410878
6.566574
6.5914208
6.6156444
6.6392681
6.6623132
6.6848039
6.7067622
6.7282012
6.7491341
6.7695708
6.7895205
6.8089913
6.8279943
6.8465459
6.4561649
6.4850994
6.5133688
6.540989
6.5679745
6.5943378
6.620089
6.6452412
6.669817
6.6938296
6.7172937
6.7402366
6.7626688
6.7846041
6.8060572
6.8270356
6.8475404
6.8675779
6.8871642
6.9063179
6.5576464
6.586259
6.6142641
6.6416718
6.6684969
6.6947524
6.7204521
6.745608
6.7702302
6.7943318
6.8179236
6.8410154
6.8636246
6.8857671
6.9074556
6.9286931
6.9494836
6.9698458
6.989787
6.7167203
6.7448349
6.7724004
6.7994279
6.8259298
6.8519098
6.87738
6.9023485
6.926829
6.9508346
6.9743771
6.9974678
7.0201143
7.0423267
7.0641114
7.0854694
7.1064115
6.8958314
6.9244265
6.9525231
6.9801144
7.0072052
7.0338049
7.0599264
7.08559
7.1108049
7.1355711
7.1598951
7.1837863
7.2072542
7.2303062
7.252951
7.2751915
7.1925685
7.2217814
7.2505495
7.2789069
7.306793
7.3341789
7.3611475
7.3875932
7.4136153
7.4391969
7.4643624
7.4891494
7.5135168
7.5375147
7.7576547
7.7866063
7.8152034
7.8435636
7.8711584
7.8984317
7.9254925
7.9521214
7.9784868
8.0044898
8.0301427
8.0549441
)
;

boundaryField
{
    Side
    {
        type            empty;
    }
    Inlet
    {
        type            turbulentIntensityKineticEnergyInlet;
        intensity       0.03;
        value           nonuniform List<scalar> 
32
(
12.005395
12.006292
12.007979
12.007663
12.00657
12.007485
12.010138
12.01229
12.01199
12.010023
12.008532
12.009155
12.010769
12.013081
12.014908
12.016763
12.018175
12.018958
12.019608
12.019766
12.023805
12.022978
12.021574
12.021372
12.021123
12.020993
12.02154
12.020912
12.018316
12.016928
12.017191
12.018721
)
;
    }
    Airfoil
    {
        type            kqRWallFunction;
        value           nonuniform List<scalar> 0();
    }
    Outlet
    {
        type            inletOutlet;
        inletValue      nonuniform List<scalar> 0();
        value           nonuniform List<scalar> 0();
    }
    procBoundary2to1
    {
        type            processor;
        value           nonuniform List<scalar> 
75
(
8.2867041
8.8885189
7.8981067
7.8981067
7.6355449
7.6355449
7.4465595
7.4465595
7.3048107
7.3048107
7.1965779
7.1965779
7.112031
7.112031
7.0452934
7.0452934
6.9919457
6.9919457
6.9487421
6.9487421
6.9134587
6.9134587
6.884512
6.884512
6.860395
6.8435799
6.8435799
6.8237759
6.8237759
6.8069519
6.8069519
6.7945504
6.7921287
6.7921287
6.7827554
6.7827554
6.772048
6.772048
6.7722104
6.7630019
6.7630019
6.7673973
6.7673973
18.883593
18.034415
10.316493
9.2681217
9.2589014
9.2994378
9.2020378
9.0266659
9.0266659
8.8417345
8.6037731
8.374038
8.1623235
7.97911
7.787502
7.6362222
7.6362222
7.5081853
7.3633786
7.2307524
7.2307524
7.1394498
7.0347235
6.944421
6.944421
6.8925688
6.8435515
6.8056979
6.8056979
6.7894751
6.767234
6.767234
)
;
    }
    procBoundary2to3
    {
        type            processor;
        value           nonuniform List<scalar> 
65
(
6.6384926
6.6797603
6.3013331
6.1854861
6.3308713
6.5430188
6.7230908
6.8421622
6.8998045
6.9056243
6.9538828
6.9538828
6.8829338
6.7953079
6.6986027
6.5984382
6.4987306
6.4020807
6.3105522
6.2266911
6.154294
6.0968882
6.0542884
6.0234324
6.0010425
6.0284147
6.0284147
6.0167759
6.0081999
6.002212
5.9979593
5.9952296
6.0338393
6.0338393
6.033499
6.0344587
6.0744411
6.0744411
6.0782277
6.0843388
6.1284806
6.1284806
6.1405633
6.1905622
6.1905622
6.2447946
6.2447946
6.2737762
6.3438703
6.3438703
6.4265575
6.4265575
6.5284166
6.5284166
6.6588064
6.6880425
6.6880425
6.8667255
6.8667255
7.1327736
7.1628876
7.1628876
7.6981225
7.7282446
7.7282446
)
;
    }
    procBoundary2to9
    {
        type            processor;
        value           nonuniform List<scalar> 
23
(
6.2900463
6.5905184
6.8654397
7.1275683
7.4082317
7.7256978
8.0683709
8.4111049
8.7339739
9.0559243
9.4367819
9.9108292
10.438328
10.95069
11.449376
12.009241
12.665557
13.341969
13.974662
14.64638
15.51241
16.592301
17.813839
)
;
    }
    procBoundary2to10
    {
        type            processor;
        value           uniform 6.0130867;
    }
}


// ************************************************************************* //
