/*--------------------------------*- C++ -*----------------------------------*\
| =========                 |                                                 |
| \\      /  F ield         | OpenFOAM: The Open Source CFD Toolbox           |
|  \\    /   O peration     | Version:  2506                                  |
|   \\  /    A nd           | Website:  www.openfoam.com                      |
|    \\/     M anipulation  |                                                 |
\*---------------------------------------------------------------------------*/
FoamFile
{
    version     2.0;
    format      ascii;
    arch        "LSB;label=32;scalar=64";
    class       volScalarField;
    location    "0.7";
    object      nut;
}
// * * * * * * * * * * * * * * * * * * * * * * * * * * * * * * * * * * * * * //

dimensions      [0 2 -1 0 0 0 0];

internalField   nonuniform List<scalar> 
1375
(
0.19280523
0.19376973
0.19203044
0.19270162
0.19364779
0.1914779
0.19193939
0.19260167
0.19352925
0.1910691
0.19139534
0.19185184
0.19250672
0.19341643
0.19077528
0.19099439
0.19131567
0.19176714
0.19241556
0.19330527
0.1905662
0.19070822
0.19092241
0.19123883
0.19168533
0.19233051
0.193197
0.19041963
0.19050661
0.19064366
0.19085299
0.19116458
0.1916066
0.19224856
0.19309195
0.19032207
0.1903665
0.19044918
0.19058141
0.19078592
0.19109265
0.1915308
0.19216924
0.19299016
0.19025885
0.19027436
0.19031507
0.19039372
0.19052125
0.19072102
0.19102289
0.19145752
0.19209297
0.19289672
0.19021709
0.19021541
0.19022803
0.19026529
0.19034018
0.1904631
0.19065819
0.19095525
0.1913866
0.19202036
0.19281323
0.19018939
0.19017716
0.19017304
0.19018303
0.19021712
0.19028845
0.1904069
0.19059738
0.19088969
0.19131796
0.19194938
0.19273154
0.19017129
0.19015202
0.19013801
0.19013157
0.19013921
0.19017043
0.19023835
0.19035253
0.19053844
0.19082617
0.19125152
0.19188107
0.19264755
0.19013563
0.19011518
0.19009943
0.19009089
0.19009643
0.19012513
0.1901897
0.19029984
0.19048122
0.19076459
0.19118691
0.19181469
0.19256906
0.19012404
0.19010033
0.19007873
0.19006133
0.19005096
0.19005466
0.19008115
0.19014246
0.19024874
0.19042575
0.19070491
0.191124
0.1917508
0.19249165
0.19011735
0.1900901
0.19006533
0.19004255
0.19002365
0.19001175
0.19001385
0.19003842
0.19009657
0.19019916
0.19037191
0.19064708
0.1910629
0.1916889
0.19241881
0.19011308
0.19008417
0.1900561
0.19003044
0.19000648
0.18998632
0.18997316
0.18997391
0.18999678
0.19005187
0.19015094
0.19031957
0.19059093
0.19100356
0.191629
0.19234917
0.19014047
0.1901101
0.19007941
0.19005073
0.19002183
0.18999547
0.18997039
0.1899492
0.18993506
0.18993469
0.18995601
0.1900082
0.1901039
0.1902686
0.19053634
0.190946
0.19157095
0.19228321
0.19014479
0.19010793
0.19007588
0.19004565
0.19001684
0.18998717
0.18996025
0.18993418
0.18991221
0.1898973
0.18989597
0.18991587
0.18996542
0.1900579
0.1902188
0.19048307
0.19089001
0.19151477
0.19221786
0.19015497
0.19011205
0.19007502
0.19004084
0.19001133
0.18998214
0.18995186
0.18992441
0.1898976
0.18987505
0.18985966
0.18985745
0.18987612
0.18992332
0.19001281
0.19017013
0.19043121
0.19083575
0.19146067
0.19215967
0.19026211
0.19018021
0.19012434
0.19007876
0.19004169
0.19000559
0.18997628
0.18994672
0.18991586
0.18988782
0.18986058
0.18983752
0.18982184
0.18981863
0.18983619
0.18988116
0.18996772
0.19012133
0.19037914
0.19078122
0.19140687
0.19208665
0.024717377
0.024466482
0.024099598
0.023591834
0.023019457
0.022498294
0.02209821
0.021754461
0.021390972
0.021009357
0.020642972
0.020312744
0.01999105
0.019657049
0.019296477
0.01886467
0.018368685
0.017898954
0.017547318
0.017254139
0.016890491
0.016468153
0.016077157
0.027537417
0.027372109
0.027110936
0.026663785
0.026089993
0.025534578
0.025116507
0.024829457
0.024567465
0.024275258
0.023992259
0.023760197
0.023504872
0.023125357
0.022635723
0.022107996
0.021628803
0.021198209
0.02075228
0.020285584
0.019825789
0.019398859
0.018997355
0.030929752
0.030629553
0.030234687
0.029594391
0.028730275
0.027781254
0.026924865
0.026313425
0.025946242
0.025690822
0.025421073
0.0250429
0.024530297
0.023984294
0.023461437
0.022861604
0.022252688
0.021913092
0.021888212
0.022042306
0.022150704
0.021969358
0.02177354
0.037578977
0.037555833
0.037536018
0.0372465
0.036621452
0.035831242
0.035186641
0.03497428
0.035251517
0.03579632
0.036384952
0.036722998
0.03662087
0.036365561
0.036065163
0.035620509
0.035311058
0.035614651
0.036494354
0.037962339
0.038928653
0.039423915
0.039391149
0.050293327
0.050910587
0.051643509
0.05204933
0.051858198
0.051273956
0.050946146
0.051295948
0.05225369
0.053498941
0.05484562
0.056033764
0.056523461
0.056243821
0.055449114
0.054410735
0.053954907
0.054513323
0.056111491
0.05874494
0.060496875
0.06144867
0.061390555
0.06722801
0.068378377
0.069704609
0.070640473
0.07066018
0.069912664
0.069507143
0.070053292
0.071327595
0.072987879
0.074845645
0.076459373
0.077558551
0.077326575
0.075790817
0.073812832
0.072825436
0.073306888
0.075013563
0.078396291
0.080987715
0.082399108
0.082792869
0.085511072
0.086960989
0.088613661
0.08985641
0.089949915
0.088864184
0.088091543
0.088512953
0.089838731
0.091617493
0.093822024
0.095742154
0.097202018
0.097503454
0.095860178
0.09333506
0.091868661
0.092114771
0.093509765
0.096916845
0.1001538
0.10200062
0.10304677
0.10357414
0.10515634
0.10694
0.10834538
0.10853945
0.10723909
0.10605659
0.1061614
0.10734456
0.10901391
0.11135004
0.11360575
0.11524503
0.11617221
0.11532553
0.11314523
0.11171334
0.11183423
0.11292632
0.11569654
0.11886244
0.1209289
0.12220477
0.12071194
0.12232574
0.12410538
0.12556706
0.12593059
0.12472372
0.12334176
0.1231084
0.12401113
0.12547969
0.12757985
0.13000854
0.13184008
0.13305123
0.1332851
0.13218704
0.13134664
0.13157968
0.13248428
0.13435467
0.13663832
0.13831441
0.13945622
0.13957472
0.1364957
0.13807294
0.13974229
0.14114932
0.14168223
0.14087549
0.13967903
0.13927243
0.13986884
0.14110438
0.14272551
0.14486668
0.14670331
0.14796976
0.14881592
0.14883892
0.14875178
0.14920887
0.15002498
0.15113126
0.15230772
0.15330095
0.15403883
0.15385952
0.1505561
0.15202844
0.15349215
0.15473209
0.15536136
0.15508871
0.15442019
0.15411779
0.15445903
0.1553553
0.15659838
0.15803759
0.15949972
0.16065015
0.16158781
0.1621677
0.16255661
0.16308164
0.16373499
0.16440595
0.16497525
0.1653245
0.16544491
0.16534346
0.16387021
0.16505875
0.16606187
0.16670322
0.16686393
0.16676858
0.16677437
0.16704891
0.16758968
0.16833074
0.16921921
0.170147
0.17097983
0.17170466
0.1723088
0.17277064
0.17319579
0.17367794
0.17418875
0.1746002
0.17480467
0.17480735
0.17469529
0.17341535
0.17432371
0.17509201
0.17568001
0.17605136
0.17629082
0.17652725
0.17682607
0.17719322
0.17760371
0.17806641
0.17857393
0.17907603
0.17954674
0.17993466
0.18018827
0.18039066
0.18070278
0.18114416
0.18157368
0.18185526
0.18196499
0.18190514
0.18068408
0.18135984
0.18194351
0.18243684
0.18282242
0.18313062
0.18341474
0.18370757
0.1840135
0.18430894
0.1845976
0.18489354
0.18518372
0.18544984
0.18564197
0.18573175
0.18579902
0.18598321
0.18633113
0.18674733
0.18709684
0.18730703
0.18733662
0.18584563
0.18635159
0.18680557
0.18719788
0.18750709
0.18774862
0.18796753
0.18820564
0.18847635
0.18874931
0.1889927
0.18919212
0.1893486
0.18948323
0.18959245
0.1896718
0.18975171
0.18988733
0.19011264
0.19038064
0.19062288
0.19081343
0.19091838
0.18916826
0.18955441
0.18991698
0.19022821
0.19046252
0.19063017
0.19077443
0.19094532
0.19116759
0.19141342
0.19163095
0.19178455
0.19188206
0.19197162
0.19208001
0.19219675
0.19230775
0.19242014
0.19255637
0.19272281
0.19289285
0.19301683
0.19306165
0.19307123
0.19100306
0.1913018
0.19159386
0.19184724
0.19203762
0.19216791
0.19226915
0.19238599
0.19254881
0.19274387
0.19292546
0.1930562
0.19314345
0.19323276
0.1933513
0.19348121
0.19359681
0.19369347
0.19378747
0.19388503
0.19398049
0.19404583
0.19403453
0.19398543
0.19174496
0.19197523
0.19220526
0.19241103
0.19257447
0.19269213
0.19277946
0.19286753
0.19298285
0.19312574
0.19326896
0.19338262
0.19346776
0.19355411
0.19366173
0.19377658
0.19387922
0.19395953
0.1940238
0.19407349
0.19409891
0.19410984
0.19410751
0.19409753
0.19175988
0.19193331
0.19210752
0.19226901
0.19240693
0.19251702
0.19260522
0.19268856
0.19278201
0.19288991
0.19300067
0.19309719
0.19317444
0.19324725
0.19333418
0.19343304
0.19352794
0.19359557
0.19362732
0.1936441
0.19365994
0.19367413
0.19367968
0.19367568
0.19369383
0.19134388
0.19147419
0.191607
0.19173481
0.1918501
0.19195159
0.19204477
0.19213785
0.19223211
0.19232387
0.19240714
0.19248069
0.19254789
0.1926167
0.19269764
0.19278602
0.19286822
0.19293878
0.19299119
0.19302037
0.19304628
0.19308316
0.19311027
0.19311854
0.19310956
0.19073371
0.19083981
0.19095216
0.19106396
0.19116667
0.19126128
0.19135741
0.19146096
0.19156338
0.1916503
0.19171649
0.19177009
0.19182503
0.19189151
0.19196922
0.19205755
0.19215373
0.19224881
0.19233291
0.19238633
0.1924041
0.19241418
0.19243292
0.19245955
0.19248411
0.19012187
0.19022164
0.19032852
0.1904354
0.19053338
0.19062392
0.19071831
0.19082339
0.19092851
0.19101499
0.19107801
0.19112716
0.19117993
0.19124864
0.19132698
0.191411
0.19150296
0.19159937
0.19168251
0.191736
0.19175356
0.19175589
0.19178484
0.19183483
0.19188623
0.1919325
0.18961342
0.1897144
0.18981945
0.18992402
0.19002076
0.1901096
0.19019953
0.19029972
0.19040458
0.19049678
0.19056602
0.19061683
0.19066645
0.19073124
0.1908048
0.19087598
0.19094425
0.19101927
0.19110194
0.19117772
0.19122704
0.19125455
0.19128327
0.19132033
0.19136783
0.19142408
0.18922505
0.189328
0.189431
0.18953332
0.18963074
0.18972181
0.18981043
0.18990364
0.19000148
0.19009343
0.19016924
0.19022875
0.19028453
0.19034647
0.19041296
0.19047663
0.19052922
0.19058082
0.19064862
0.19072299
0.19078415
0.19082789
0.19086406
0.19090319
0.19095511
0.19101682
0.18893691
0.18904204
0.18914492
0.18924655
0.18934468
0.18943783
0.18952681
0.18961581
0.18970699
0.18979504
0.18987294
0.18993933
0.19000031
0.19006039
0.19012209
0.19018183
0.19023605
0.1902865
0.19033832
0.19039595
0.19045974
0.1905175
0.19055978
0.19059402
0.19063374
0.19067675
0.19071112
0.18883935
0.18894343
0.18904466
0.18914216
0.18923549
0.18932445
0.1894102
0.18949494
0.18957717
0.18965273
0.18972297
0.18978993
0.18985632
0.18992401
0.18998655
0.19004333
0.19009427
0.19014268
0.19019272
0.19023992
0.19028633
0.19032565
0.19035697
0.19039333
0.19043024
0.19046305
0.18869587
0.18879951
0.18889971
0.18899629
0.18908913
0.18917794
0.18926264
0.18934416
0.18942283
0.18949689
0.18956881
0.18963925
0.18970849
0.18977482
0.18983596
0.18989025
0.18993956
0.18998668
0.19003188
0.19007603
0.1901204
0.19016317
0.19020188
0.19023774
0.19027063
0.19029958
0.19032932
0.18859125
0.18869413
0.18879296
0.18888811
0.18897925
0.18906699
0.1891518
0.18923332
0.18931097
0.18938482
0.18945634
0.18952693
0.18959649
0.18966209
0.1897213
0.18977559
0.18982729
0.18987834
0.18992685
0.18997037
0.19001154
0.19005062
0.19008777
0.1901253
0.19016198
0.190196
0.19022833
0.18851866
0.18861971
0.18871696
0.18881087
0.18890124
0.18898807
0.18907221
0.18915364
0.18923133
0.1893055
0.18937662
0.18944645
0.18951543
0.1895821
0.18964437
0.1897014
0.18975346
0.1898027
0.18984971
0.18989372
0.18993536
0.18997473
0.19001156
0.19004691
0.19008104
0.1901137
0.19014588
0.18846584
0.18856634
0.18866355
0.18875776
0.18884879
0.18893618
0.1890198
0.18909985
0.18917608
0.1892493
0.18932008
0.18938886
0.18945502
0.18951812
0.18957649
0.18963053
0.18968106
0.18973009
0.18977799
0.18982411
0.18986857
0.18991059
0.18995016
0.18998788
0.19002394
0.19005817
0.19009092
0.18842794
0.18852748
0.18862436
0.18871863
0.18880889
0.18889498
0.18897689
0.18905477
0.18912944
0.18920186
0.18927227
0.18934035
0.18940502
0.18946562
0.18952211
0.18957496
0.18962576
0.18967577
0.18972488
0.18977227
0.18981771
0.18986049
0.18990071
0.18993907
0.18997563
0.19001064
0.1900442
0.18850025
0.18859484
0.18868664
0.18877511
0.18885991
0.1889408
0.18901779
0.18909175
0.18916367
0.1892336
0.18930133
0.18936573
0.18942623
0.18948289
0.18953654
0.18958751
0.18963622
0.18968348
0.1897295
0.18977456
0.18981841
0.18986047
0.18990052
0.18993828
0.18997389
0.19000745
0.18847951
0.18857275
0.18866241
0.18874944
0.18883351
0.18891429
0.18899099
0.18906378
0.18913358
0.18920133
0.18926719
0.18933037
0.18939002
0.18944597
0.18949913
0.1895503
0.18959983
0.1896478
0.18969453
0.18973976
0.18978327
0.18982474
0.18986391
0.18990098
0.1899363
0.18997021
0.18846278
0.18855557
0.18864391
0.18872871
0.18881079
0.18889021
0.18896676
0.18903936
0.18910809
0.18917409
0.18923792
0.18929975
0.18935888
0.1894151
0.18946841
0.18951928
0.18956826
0.18961553
0.18966137
0.18970591
0.1897491
0.18979097
0.1898312
0.18986967
0.1899062
0.1899409
0.18853819
0.18862501
0.18870865
0.18878932
0.18886727
0.1889428
0.18901543
0.18908474
0.18915057
0.18921322
0.18927325
0.18933095
0.1893867
0.18944016
0.18949148
0.18954061
0.18958795
0.18963364
0.18967788
0.18972071
0.18976204
0.18980175
0.18983977
0.1898761
0.18991097
0.188522
0.18860686
0.18868855
0.18876698
0.18884233
0.18891499
0.18898551
0.18905394
0.1891199
0.18918329
0.189244
0.18930183
0.18935678
0.18940909
0.18945927
0.18950764
0.18955448
0.18959989
0.18964382
0.18968641
0.18972767
0.18976765
0.18980632
0.18984361
0.18987943
0.18850919
0.18859149
0.188671
0.18874792
0.18882199
0.18889345
0.18896252
0.18902911
0.18909339
0.18915547
0.18921526
0.18927275
0.1893279
0.18938056
0.18943088
0.18947913
0.18952564
0.18957073
0.18961455
0.18965716
0.18969854
0.18973866
0.18977747
0.18981494
0.18985105
0.18858056
0.18865817
0.18873297
0.18880507
0.18887461
0.18894159
0.18900635
0.18906912
0.18912988
0.18918866
0.18924556
0.1893004
0.18935312
0.18940368
0.18945214
0.18949873
0.18954371
0.1895873
0.18962969
0.18967092
0.18971097
0.1897498
0.18978734
0.18982363
0.18857324
0.18864835
0.18872095
0.18879139
0.1888594
0.18892514
0.18898869
0.18905013
0.18910962
0.18916733
0.1892233
0.18927744
0.18932971
0.18938011
0.18942864
0.18947547
0.18952068
0.18956437
0.18960663
0.18964757
0.18968731
0.18972597
0.18976361
0.18980023
0.1886448
0.18871578
0.18878432
0.18885058
0.18891463
0.18897654
0.18903664
0.18909509
0.18915201
0.18920747
0.18926125
0.18931323
0.18936327
0.18941139
0.18945784
0.18950281
0.18954652
0.18958907
0.18963046
0.18967069
0.18970977
0.18974769
0.18978451
0.18871834
0.18878511
0.1888497
0.18891235
0.18897332
0.18903281
0.18909085
0.18914733
0.18920208
0.18925493
0.18930593
0.18935525
0.18940308
0.18944957
0.18949476
0.18953871
0.18958148
0.18962317
0.18966386
0.18970361
0.18974244
0.18978036
0.18873058
0.18879633
0.18886007
0.18892206
0.18898242
0.18904128
0.18909867
0.18915456
0.1892089
0.18926167
0.1893129
0.18936265
0.18941102
0.18945812
0.18950407
0.18954895
0.1895928
0.18963564
0.18967749
0.18971836
0.18975823
0.18979711
0.18882213
0.18888529
0.18894674
0.18900672
0.18906533
0.18912266
0.18917871
0.18923343
0.18928675
0.18933864
0.18938921
0.18943855
0.18948681
0.18953415
0.18958058
0.18962616
0.18967087
0.18971467
0.18975751
0.18979935
0.18984022
0.18893611
0.18899787
0.18905822
0.1891173
0.18917518
0.18923192
0.18928751
0.189342
0.18939555
0.1894481
0.18949963
0.18955032
0.1896001
0.18964901
0.18969713
0.18974442
0.18979078
0.18983615
0.18988059
0.18992418
0.1890954
0.1891574
0.18921828
0.18927815
0.18933709
0.18939516
0.18945241
0.18950888
0.18956452
0.18961935
0.18967331
0.18972633
0.1897785
0.18982986
0.18988048
0.18993025
0.1899791
0.19002717
0.19007437
0.18940607
0.18947027
0.18953349
0.18959589
0.18965749
0.18971823
0.18977812
0.18983712
0.18989527
0.18995258
0.19000906
0.1900647
0.19011945
0.19017332
0.19022627
0.19027818
0.1903291
0.18980404
0.18987395
0.1899428
0.19001036
0.19007664
0.19014164
0.19020541
0.19026813
0.19032981
0.19039033
0.19044966
0.19050781
0.19056481
0.19062066
0.19067538
0.19072896
0.19053961
0.19061131
0.1906819
0.19075161
0.19081947
0.19088504
0.19094957
0.19101139
0.19107192
0.19113088
0.19118853
0.19124528
0.19130054
0.19135513
0.19127273
0.191352
0.19142758
0.1915027
0.19157298
0.19164093
0.1917103
0.19177702
0.19184427
0.19190928
0.19197403
0.19203307
)
;

boundaryField
{
    Side
    {
        type            empty;
    }
    Inlet
    {
        type            calculated;
        value           nonuniform List<scalar> 
32
(
0.19927271
0.19928758
0.19931558
0.19931035
0.1992922
0.1993074
0.19935142
0.19938715
0.19938217
0.19934952
0.19932476
0.19933512
0.1993619
0.19940028
0.19943061
0.19946139
0.19948483
0.19949782
0.19950862
0.19951124
0.19957827
0.19956455
0.19954125
0.19953789
0.19953375
0.19953161
0.19954069
0.19953025
0.19948717
0.19946413
0.1994685
0.19949389
)
;
    }
    Airfoil
    {
        type            nutkWallFunction;
        blending        stepwise;
        value           nonuniform List<scalar> 0();
    }
    Outlet
    {
        type            calculated;
        value           nonuniform List<scalar> 0();
    }
    procBoundary2to1
    {
        type            processor;
        value           nonuniform List<scalar> 
75
(
0.1929119
0.19389654
0.19212513
0.19212513
0.19156347
0.19156347
0.19114669
0.19114669
0.19084495
0.19084495
0.19062817
0.19062817
0.19047468
0.19047468
0.19037125
0.19037125
0.19030344
0.19030344
0.19025803
0.19025803
0.19022745
0.19022745
0.19020737
0.19020737
0.19019273
0.19015816
0.19015816
0.19015043
0.19015043
0.19014679
0.19014679
0.19017289
0.19014367
0.19014367
0.1901765
0.1901765
0.19018463
0.19018463
0.19028991
0.1902106
0.1902106
0.19036491
0.19036491
0.015807359
0.01861474
0.021758358
0.039526499
0.061103464
0.082074089
0.1024908
0.12221154
0.12221154
0.13853575
0.15340157
0.16522402
0.17463817
0.18179897
0.18723611
0.19093815
0.19093815
0.19308536
0.19395189
0.19410943
0.19410943
0.19374942
0.19312402
0.19251117
0.19251117
0.19196333
0.19146772
0.19105882
0.19105882
0.19073334
0.19049558
0.19049558
)
;
    }
    procBoundary2to3
    {
        type            processor;
        value           nonuniform List<scalar> 
65
(
0.027771893
0.031332217
0.037831081
0.050027468
0.066478998
0.084451479
0.10231907
0.11932215
0.13502305
0.14907981
0.16257364
0.16257364
0.1723618
0.17988949
0.18527795
0.18877048
0.19071832
0.1915315
0.19159487
0.19121461
0.19062726
0.19002222
0.18951036
0.18911696
0.18882579
0.18873108
0.18873108
0.18858711
0.18848333
0.18841292
0.18836173
0.18832551
0.18840252
0.18840252
0.18838279
0.18836641
0.18844797
0.18844797
0.18843412
0.18842412
0.1885004
0.1885004
0.18849571
0.18857173
0.18857173
0.18864935
0.18864935
0.18866289
0.18875728
0.18875728
0.18887311
0.18887311
0.18903234
0.18903234
0.18927444
0.18934077
0.18934077
0.18973281
0.18973281
0.19039185
0.19046623
0.19046623
0.19110275
0.19118925
0.19118925
)
;
    }
    procBoundary2to9
    {
        type            processor;
        value           nonuniform List<scalar> 
23
(
0.024650167
0.024354891
0.02394066
0.023463495
0.022994569
0.022562074
0.022142794
0.021703812
0.021220129
0.020729815
0.02033181
0.020062188
0.019828715
0.019505795
0.019083586
0.018665738
0.018319579
0.017980868
0.017578919
0.017160034
0.016825373
0.016563234
0.016303935
)
;
    }
    procBoundary2to10
    {
        type            processor;
        value           uniform 0.024982584;
    }
}


// ************************************************************************* //
