/*--------------------------------*- C++ -*----------------------------------*\
| =========                 |                                                 |
| \\      /  F ield         | OpenFOAM: The Open Source CFD Toolbox           |
|  \\    /   O peration     | Version:  2506                                  |
|   \\  /    A nd           | Website:  www.openfoam.com                      |
|    \\/     M anipulation  |                                                 |
\*---------------------------------------------------------------------------*/
FoamFile
{
    version     2.0;
    format      ascii;
    arch        "LSB;label=32;scalar=64";
    class       volScalarField;
    location    "2.997";
    object      p;
}
// * * * * * * * * * * * * * * * * * * * * * * * * * * * * * * * * * * * * * //

dimensions      [1 -1 -2 0 0 0 0];

internalField   nonuniform List<scalar> 
19257
(
47045.267
47040.837
47039.105
47038.705
47037.713
47037.018
47036.431
47035.841
47035.247
47034.626
47033.949
47033.194
47032.347
47031.395
47030.324
47029.124
47027.783
47026.293
47024.645
47022.834
47020.861
47018.73
47016.45
47014.039
47011.519
47008.924
47006.293
47003.675
47001.128
46998.71
46996.498
46994.545
46993.018
46991.996
46991.434
46991.232
46991.329
46991.523
46991.457
46990.44
46987.302
46981.257
46963.529
46954.47
46864.71
46895.063
46572.081
46695.247
46007.319
47046.099
47039.785
47039.119
47038.879
47037.967
47037.267
47036.721
47036.168
47035.613
47035.048
47034.441
47033.77
47033.022
47032.187
47031.254
47030.217
47029.067
47027.801
47026.414
47024.909
47023.292
47021.574
47019.773
47017.915
47016.034
47014.174
47012.39
47010.745
47009.316
47008.187
47007.462
47007.224
47007.683
47008.986
47011.166
47014.212
47018.185
47023.059
47028.699
47034.72
47040.472
47044.849
47043.991
47042.471
46998.878
47009.791
46774.898
46867.514
46132.05
47046.844
47039.107
47038.898
47039.064
47038.233
47037.526
47037.026
47036.523
47036.016
47035.511
47034.982
47034.403
47033.763
47033.054
47032.269
47031.404
47030.456
47029.424
47028.309
47027.119
47025.865
47024.566
47023.247
47021.942
47020.693
47019.556
47018.596
47017.89
47017.532
47017.624
47018.294
47019.653
47021.942
47025.368
47030.033
47036.003
47043.443
47052.481
47063.184
47075.455
47089.05
47103.21
47116.018
47127.522
47116.871
47130.205
46967.657
47039.761
46333.886
47047.568
47038.874
47038.59
47039.236
47038.526
47037.803
47037.349
47036.91
47036.459
47036.022
47035.578
47035.101
47034.579
47034.008
47033.383
47032.703
47031.969
47031.184
47030.354
47029.492
47028.614
47027.746
47026.918
47026.172
47025.559
47025.141
47024.995
47025.209
47025.89
47027.157
47029.158
47032.027
47036.028
47041.426
47048.379
47057.02
47067.601
47080.384
47095.615
47113.455
47134.021
47157.024
47181.663
47207.131
47222.093
47247.726
47151.551
47219.681
46571.558
47048.378
47038.868
47038.24
47039.385
47038.849
47038.106
47037.69
47037.327
47036.944
47036.582
47036.232
47035.866
47035.473
47035.05
47034.597
47034.114
47033.606
47033.081
47032.549
47032.027
47031.538
47031.111
47030.783
47030.603
47030.628
47030.929
47031.59
47032.71
47034.407
47036.813
47040.092
47044.403
47050.021
47057.267
47066.347
47077.452
47090.905
47107.084
47126.393
47149.217
47175.996
47206.892
47241.984
47280.704
47317.178
47360.759
47325.417
47397.605
46839.274
47049.313
47039.018
47037.9
47039.495
47039.185
47038.437
47038.052
47037.773
47037.472
47037.193
47036.943
47036.698
47036.445
47036.181
47035.91
47035.636
47035.366
47035.113
47034.891
47034.722
47034.632
47034.657
47034.839
47035.232
47035.899
47036.919
47038.382
47040.398
47043.091
47046.609
47051.126
47056.824
47063.985
47072.975
47084.051
47097.453
47113.56
47132.849
47155.863
47183.182
47215.53
47253.481
47297.862
47348.672
47403.813
47467.161
47484.677
47570.736
47127.977
47050.386
47039.29
47037.615
47039.566
47039.515
47038.795
47038.438
47038.248
47038.042
47037.854
47037.711
47037.595
47037.49
47037.396
47037.317
47037.261
47037.241
47037.27
47037.369
47037.562
47037.881
47038.366
47039.064
47040.034
47041.346
47043.083
47045.344
47048.243
47051.916
47056.519
47062.238
47069.275
47077.919
47088.565
47101.526
47117.084
47135.662
47157.822
47184.229
47215.633
47253.005
47297.286
47349.949
47411.648
47483.203
47566.076
47629.477
47738.127
47427.222
47051.629
47039.677
47037.349
47039.603
47039.851
47039.183
47038.848
47038.749
47038.649
47038.562
47038.532
47038.551
47038.603
47038.685
47038.806
47038.978
47039.214
47039.534
47039.96
47040.522
47041.256
47042.206
47043.423
47044.972
47046.926
47049.376
47052.424
47056.194
47060.826
47066.488
47073.374
47081.703
47091.772
47103.996
47118.743
47136.333
47157.224
47182.051
47211.585
47246.725
47288.653
47338.644
47398.713
47470.191
47556.23
47657.471
47760.945
47898.09
47725.899
47053.117
47040.351
47037.051
47039.559
47040.196
47039.606
47039.285
47039.271
47039.288
47039.311
47039.399
47039.557
47039.77
47040.035
47040.361
47040.765
47041.263
47041.877
47042.635
47043.568
47044.718
47046.132
47047.866
47049.989
47052.578
47055.729
47059.551
47064.171
47069.739
47076.428
47084.442
47094.015
47105.449
47119.176
47135.613
47155.119
47178.18
47205.491
47237.915
47276.485
47322.565
47377.722
47444.436
47524.695
47623.524
47741.663
47880.293
48048.441
48014.89
47054.789
47041.329
47036.872
47039.452
47040.499
47040.054
47039.747
47039.806
47039.944
47040.09
47040.3
47040.599
47040.974
47041.424
47041.958
47042.595
47043.355
47044.264
47045.351
47046.654
47048.215
47050.087
47052.329
47055.013
47058.224
47062.058
47066.63
47072.074
47078.544
47086.222
47095.318
47106.081
47118.815
47133.965
47151.998
47173.304
47198.396
47228.018
47263.115
47304.835
47354.702
47414.545
47487.229
47575.374
47685.487
47818.987
47988.238
48187.77
48287.733
47056.667
47042.447
47036.79
47039.346
47040.76
47040.498
47040.221
47040.344
47040.603
47040.878
47041.216
47041.655
47042.193
47042.827
47043.567
47044.434
47045.452
47046.649
47048.059
47049.722
47051.684
47053.999
47056.733
47059.96
47063.768
47068.258
47073.55
47079.781
47087.111
47095.729
47105.852
47117.74
47131.702
47148.191
47167.715
47190.702
47217.682
47249.445
47287.003
47331.61
47384.924
47449.008
47527.048
47622.266
47742.312
47889.664
48085.322
48315.466
48539.783
47058.733
47043.713
47036.794
47039.223
47040.977
47040.909
47040.685
47040.868
47041.243
47041.653
47042.122
47042.701
47043.397
47044.21
47045.151
47046.241
47047.508
47048.983
47050.702
47052.709
47055.053
47057.791
47060.992
47064.734
47069.107
47074.216
47080.186
47087.157
47095.295
47104.793
47115.876
47128.814
47143.918
47161.651
47182.555
47207.092
47235.812
47269.538
47309.345
47356.575
47413.008
47480.909
47563.735
47665.264
47794.016
47953.774
48171.97
48430.874
48766.169
47060.931
47045.1
47036.865
47039.087
47041.169
47041.288
47041.119
47041.355
47041.843
47042.388
47042.99
47043.705
47044.554
47045.538
47046.669
47047.97
47049.472
47051.208
47053.217
47055.546
47058.246
47061.378
47065.013
47069.232
47074.128
47079.811
47086.405
47094.059
47102.94
47113.248
47125.212
47139.112
47155.261
47174.132
47196.289
47222.233
47252.532
47288.035
47329.87
47379.457
47438.68
47509.981
47597.045
47704.156
47840.481
48011.253
48248.484
48533.552
48962.245
47063.184
47046.541
47036.983
47038.925
47041.326
47041.682
47041.533
47041.798
47042.387
47043.063
47043.794
47044.639
47045.629
47046.772
47048.08
47049.575
47051.291
47053.266
47055.539
47058.161
47061.184
47064.674
47068.701
47073.351
47078.72
47084.919
47092.077
47100.344
47109.893
47120.927
47133.682
47148.442
47165.527
47185.413
47208.687
47235.882
47267.586
47304.668
47348.298
47399.964
47461.642
47535.925
47626.685
47738.664
47881.494
48061.94
48315
48623.308
49127.838
47065.401
47047.954
47037.082
47038.738
47041.434
47042.05
47041.938
47042.209
47042.87
47043.661
47044.511
47045.473
47046.59
47047.875
47049.34
47051.008
47052.915
47055.099
47057.606
47060.485
47063.793
47067.595
47071.967
47076.994
47082.776
47089.426
47097.076
47105.878
47116.009
47127.675
47141.117
47156.623
47174.522
47195.288
47219.531
47247.808
47280.728
47319.176
47364.355
47417.811
47481.596
47558.432
47652.348
47768.481
47916.792
48105.591
48371.514
48700.332
49268.142
47067.49
47049.233
47037.114
47038.478
47041.474
47042.359
47042.298
47042.565
47043.279
47044.168
47045.122
47046.184
47047.408
47048.812
47050.41
47052.226
47054.294
47056.656
47059.359
47062.454
47066.001
47070.066
47074.727
47080.07
47086.198
47093.226
47101.288
47110.537
47121.155
47133.349
47147.365
47163.494
47182.074
47203.577
47228.625
47257.802
47291.736
47331.322
47377.79
47432.732
47498.264
47577.212
47673.729
47793.291
47946.082
48141.897
48417.944
48765.15
49383.065
47069.444
47050.295
47037.064
47038.073
47041.397
47042.588
47042.601
47042.86
47043.608
47044.574
47045.611
47046.753
47048.058
47049.555
47051.258
47053.19
47055.386
47057.889
47060.747
47064.014
47067.749
47072.022
47076.91
47082.504
47088.904
47096.23
47104.616
47114.218
47125.219
47137.83
47152.298
47168.919
47188.036
47210.121
47235.803
47265.687
47300.42
47340.904
47388.386
47444.496
47511.399
47592.003
47690.554
47812.798
47969.065
48170.501
48454.155
48817.738
49469.486
47071.158
47050.91
47036.795
47037.748
47041.349
47042.754
47042.813
47043.079
47043.852
47044.87
47045.967
47047.163
47048.522
47050.082
47051.858
47053.872
47056.158
47058.762
47061.731
47065.119
47068.989
47073.41
47078.461
47084.232
47090.827
47098.366
47106.983
47116.838
47128.113
47141.022
47155.815
47172.788
47192.29
47214.795
47240.931
47271.322
47306.628
47347.758
47395.97
47452.919
47520.806
47602.595
47702.597
47826.758
47985.477
48191.044
48479.917
48857.514
49528.087
47072.22
47051.283
47036.52
47037.308
47041.241
47042.89
47042.983
47043.219
47043.992
47045.041
47046.174
47047.398
47048.784
47050.374
47052.188
47054.248
47056.586
47059.247
47062.279
47065.738
47069.686
47074.192
47079.336
47085.211
47091.919
47099.581
47108.334
47118.337
47129.773
47142.857
47157.841
47175.022
47194.752
47217.506
47243.912
47274.604
47310.253
47351.769
47400.418
47457.869
47526.343
47608.84
47709.702
47835.001
47995.141
48203.235
48494.992
48882.861
49561.067
47072.4
47051.037
47036.291
47037.23
47041.184
47042.886
47043.02
47043.256
47044.023
47045.08
47046.223
47047.45
47048.833
47050.423
47052.241
47054.308
47056.656
47059.329
47062.376
47065.852
47069.818
47074.344
47079.513
47085.413
47092.151
47099.846
47108.636
47118.679
47130.16
47143.294
47158.333
47175.575
47195.373
47218.203
47244.692
47275.478
47311.235
47352.875
47401.665
47459.282
47527.949
47610.679
47711.824
47837.494
47998.082
48207.001
48499.588
48891.252
49570.893
47071.323
47051.407
47036.321
47036.752
47040.887
47042.782
47042.971
47043.201
47043.954
47044.996
47046.117
47047.315
47048.667
47050.226
47052.012
47054.048
47056.364
47059.004
47062.016
47065.453
47069.379
47073.862
47078.982
47084.832
47091.516
47099.152
47107.879
47117.855
47129.264
47142.322
47157.279
47174.435
47194.14
47216.87
47243.256
47273.928
47309.558
47351.059
47399.697
47457.143
47525.614
47608.111
47708.973
47834.264
47994.377
48202.391
48493.977
48881.367
49558.698
47069.942
47050.16
47036.247
47037.136
47040.977
47042.607
47042.736
47043.002
47043.767
47044.774
47045.84
47046.982
47048.28
47049.78
47051.502
47053.469
47055.713
47058.275
47061.204
47064.55
47068.376
47072.751
47077.754
47083.476
47090.021
47097.508
47106.074
47115.876
47127.098
47139.954
47154.694
47171.615
47191.066
47213.524
47239.618
47269.969
47305.239
47346.338
47394.528
47451.465
47519.347
47601.137
47701.138
47825.283
47983.945
48189.357
48477.872
48854.697
49523.246
47067.824
47049.829
47036.146
47036.942
47040.887
47042.392
47042.442
47042.725
47043.478
47044.419
47045.402
47046.465
47047.684
47049.097
47050.723
47052.586
47054.719
47057.162
47059.959
47063.163
47066.833
47071.037
47075.854
47081.374
47087.699
47094.948
47103.255
47112.779
47123.7
47136.231
47150.62
47167.162
47186.203
47208.217
47233.835
47263.658
47298.334
47338.772
47386.221
47442.313
47509.209
47589.816
47688.368
47810.591
47966.773
48167.99
48451.102
48813.751
49462.11
47065.88
47048.063
47036.101
47037.478
47040.907
47042.069
47042.08
47042.37
47043.083
47043.937
47044.818
47045.781
47046.897
47048.196
47049.697
47051.424
47053.41
47055.692
47058.314
47061.325
47064.784
47068.758
47073.324
47078.57
47084.598
47091.523
47099.481
47108.625
47119.136
47131.223
47145.133
47161.157
47179.634
47201.043
47226.002
47255.096
47288.953
47328.477
47374.9
47429.817
47495.342
47574.297
47670.82
47790.361
47943.045
48138.59
48413.908
48760.087
49373.086
47063.398
47046.988
47036.206
47037.632
47040.694
47041.611
47041.611
47041.916
47042.578
47043.33
47044.098
47044.947
47045.939
47047.101
47048.45
47050.012
47051.818
47053.903
47056.308
47059.082
47062.281
47065.969
47070.224
47075.13
47080.787
47087.309
47094.829
47103.5
47113.497
47125.029
47138.336
47153.709
47171.48
47192.126
47216.255
47244.424
47277.246
47315.614
47360.737
47414.162
47477.941
47554.79
47648.721
47764.84
47913.029
48101.52
48366.523
48694.258
49256.103
47061.122
47045.449
47036.085
47037.951
47040.592
47041.161
47041.117
47041.413
47041.994
47042.625
47043.265
47043.985
47044.837
47045.842
47047.018
47048.39
47049.987
47051.842
47053.995
47056.491
47059.384
47062.738
47066.625
47071.13
47076.35
47082.397
47089.4
47097.509
47106.897
47117.769
47130.361
47144.958
47161.887
47181.625
47204.76
47231.82
47263.403
47300.388
47343.949
47395.578
47457.251
47531.557
47622.347
47734.327
47877.028
48057.143
48309.092
48616.207
49114.138
47058.818
47043.96
47036.061
47038.229
47040.41
47040.691
47040.621
47040.887
47041.358
47041.846
47042.346
47042.924
47043.621
47044.453
47045.439
47046.6
47047.965
47049.564
47051.433
47053.616
47056.165
47059.141
47062.613
47066.664
47071.388
47076.894
47083.309
47090.777
47099.471
47109.588
47121.361
47135.068
47151.031
47169.725
47191.714
47217.494
47247.648
47283.034
47324.786
47374.329
47433.551
47504.888
47592.002
47699.14
47835.339
48005.772
48241.711
48525.478
48946.157
47056.585
47042.593
47036.046
47038.383
47040.154
47040.213
47040.088
47040.309
47040.667
47041.01
47041.365
47041.794
47042.325
47042.973
47043.755
47044.69
47045.805
47047.126
47048.687
47050.529
47052.702
47055.263
47058.28
47061.832
47066.01
47070.919
47076.683
47083.443
47091.366
47100.645
47111.507
47124.221
47139.108
47156.636
47177.338
47201.68
47230.227
47263.812
47303.52
47350.699
47407.135
47475.088
47557.993
47659.585
47788.23
47947.657
48164.388
48421.93
48747.573
47054.519
47041.318
47036.017
47038.438
47039.844
47039.701
47039.536
47039.703
47039.941
47040.139
47040.348
47040.622
47040.983
47041.44
47042.009
47042.709
47043.559
47044.587
47045.821
47047.301
47049.073
47051.192
47053.722
47056.739
47060.329
47064.596
47069.657
47075.651
47082.739
47091.109
47100.98
47112.612
47126.325
47142.576
47161.864
47184.621
47211.397
47242.993
47280.432
47324.978
47378.299
47442.456
47520.611
47615.942
47735.917
47882.968
48076.999
48305.807
48519.213
47052.599
47040.201
47036.055
47038.462
47039.504
47039.19
47038.995
47039.093
47039.202
47039.255
47039.319
47039.439
47039.627
47039.89
47040.243
47040.701
47041.28
47042.004
47042.9
47044.004
47045.358
47047.014
47049.034
47051.487
47054.459
47058.047
47062.365
47067.546
47073.746
47081.146
47089.96
47100.434
47112.885
47127.763
47145.521
47166.56
47191.411
47220.835
47255.789
47297.437
47347.313
47407.253
47480.095
47568.421
47678.523
47811.776
47979.28
48177.604
48265.791
47050.84
47039.281
47036.207
47038.469
47039.132
47038.697
47038.477
47038.488
47038.462
47038.377
47038.303
47038.271
47038.287
47038.358
47038.495
47038.709
47039.015
47039.431
47039.983
47040.702
47041.629
47042.81
47044.304
47046.176
47048.507
47051.389
47054.932
47059.265
47064.535
47070.918
47078.618
47087.868
47098.983
47112.399
47128.521
47147.716
47170.496
47197.573
47229.825
47268.304
47314.394
47369.674
47436.6
47517.124
47616.035
47734.01
47870.843
48037.979
47992.059
47049.27
47038.656
47036.446
47038.427
47038.747
47038.235
47037.985
47037.894
47037.735
47037.522
47037.317
47037.138
47036.987
47036.871
47036.796
47036.77
47036.803
47036.913
47037.12
47037.454
47037.95
47038.651
47039.61
47040.89
47042.566
47044.726
47047.473
47050.93
47055.238
47060.564
47067.104
47075.075
47084.787
47096.659
47111.045
47128.277
47148.842
47173.392
47202.716
47237.741
47279.675
47329.814
47390.157
47462.003
47548.269
47649.453
47751.193
47887.543
47702.728
47047.958
47038.281
47036.639
47038.317
47038.365
47037.801
47037.515
47037.317
47037.034
47036.704
47036.377
47036.058
47035.749
47035.452
47035.171
47034.911
47034.679
47034.487
47034.355
47034.306
47034.373
47034.594
47035.019
47035.703
47036.717
47038.144
47040.082
47042.644
47045.965
47050.203
47055.543
47062.186
47070.435
47080.684
47093.234
47108.383
47126.581
47148.411
47174.561
47205.817
47243.182
47287.635
47340.642
47402.834
47474.837
47557.765
47619.695
47727.887
47404.375
47046.836
47038.005
47036.817
47038.158
47037.974
47037.39
47037.066
47036.764
47036.369
47035.935
47035.493
47035.044
47034.585
47034.118
47033.641
47033.155
47032.665
47032.181
47031.717
47031.294
47030.939
47030.686
47030.579
47030.669
47031.021
47031.711
47032.83
47034.484
47036.8
47039.922
47044.027
47049.295
47056.023
47064.564
47075.175
47088.11
47103.776
47122.672
47145.369
47172.491
47204.81
47242.947
47287.753
47339.19
47395.137
47458.609
47475.227
47561.243
47106.348
47045.859
47037.841
47037.025
47037.969
47037.595
47037.012
47036.641
47036.24
47035.748
47035.221
47034.674
47034.104
47033.506
47032.878
47032.215
47031.515
47030.779
47030.013
47029.228
47028.442
47027.675
47026.957
47026.326
47025.828
47025.52
47025.473
47025.768
47026.503
47027.796
47029.777
47032.611
47036.454
47041.597
47048.339
47056.895
47067.469
47080.411
47096.12
47115.036
47137.595
47164.303
47195.386
47230.998
47270.464
47308.363
47351.925
47316.882
47389.131
46819.73
47045.03
47037.799
47037.234
47037.76
47037.248
47036.67
47036.242
47035.749
47035.176
47034.565
47033.923
47033.242
47032.516
47031.738
47030.9
47029.997
47029.027
47027.993
47026.901
47025.763
47024.596
47023.425
47022.279
47021.201
47020.238
47019.454
47018.921
47018.729
47018.98
47019.792
47021.311
47023.675
47027.152
47031.992
47038.357
47046.396
47056.382
47068.602
47083.343
47100.822
47121.25
47144.4
47169.69
47195.887
47213.494
47238.296
47145.622
47211.937
46555.347
47044.344
47037.929
47037.404
47037.544
47036.939
47036.357
47035.866
47035.296
47034.654
47033.97
47033.241
47032.458
47031.614
47030.698
47029.697
47028.603
47027.412
47026.122
47024.735
47023.26
47021.706
47020.092
47018.443
47016.791
47015.178
47013.656
47012.29
47011.155
47010.341
47009.947
47010.1
47010.916
47012.627
47015.438
47019.446
47024.732
47031.48
47039.842
47049.93
47061.707
47075.071
47089.268
47102.987
47114.751
47109.457
47118.62
46967.517
47033.919
46321.951
47043.725
47038.35
47037.495
47037.332
47036.663
47036.067
47035.517
47034.882
47034.181
47033.432
47032.625
47031.752
47030.8
47029.755
47028.602
47027.33
47025.93
47024.398
47022.731
47020.931
47019.003
47016.958
47014.815
47012.596
47010.334
47008.073
47005.863
47003.766
47001.856
47000.212
46998.933
46998.113
46997.942
46998.567
47000.011
47002.28
47005.444
47009.501
47014.361
47019.682
47025.073
47029.095
47029.891
47026.316
46994.908
46991.938
46784.493
46860.702
46127.252
47042.684
47039.28
47037.417
47037.136
47036.405
47035.793
47035.19
47034.503
47033.754
47032.945
47032.068
47031.111
47030.06
47028.895
47027.6
47026.16
47024.562
47022.799
47020.862
47018.747
47016.454
47013.986
47011.352
47008.566
47005.652
47002.639
46999.564
46996.472
46993.418
46990.456
46987.654
46985.08
46982.873
46981.106
46979.725
46978.649
46977.812
46977.032
46976.011
46974.023
46970.515
46963.23
46949.569
46931.655
46870.189
46865.363
46604.891
46689.226
46007.086
47429.434
47440.648
47408.543
47376.539
47339.967
47305.139
47271.037
47239.145
47209.526
47182.721
47158.409
47136.905
47117.699
47100.987
47086.205
47073.566
47062.68
47053.65
47046.094
47040.032
47035.174
47031.47
47028.706
47026.786
47025.554
47024.898
47024.697
47024.852
47025.273
47025.883
47026.616
47027.421
47028.253
47029.086
47029.881
47030.647
47031.332
47032.002
47032.553
47033.167
47033.624
47034.296
47034.767
47035.565
47036.027
47036.577
47036.72
47036.381
47036.364
47246.354
47261.988
47249.849
47245.52
47229.969
47214.482
47196.134
47177.444
47158.32
47140
47122.333
47106.262
47091.321
47078.269
47066.451
47056.413
47047.667
47040.588
47034.717
47030.192
47026.686
47024.209
47022.53
47021.572
47021.183
47021.258
47021.688
47022.381
47023.256
47024.247
47025.296
47026.363
47027.409
47028.416
47029.353
47030.233
47031.009
47031.75
47032.356
47033.007
47033.49
47034.172
47034.646
47035.446
47035.927
47036.52
47036.719
47036.409
47036.432
47093.716
47117.198
47116.346
47125.781
47123.368
47121.696
47115.614
47108.423
47099.263
47089.706
47079.374
47069.678
47059.973
47051.508
47043.471
47036.784
47030.785
47026.143
47022.338
47019.655
47017.729
47016.647
47016.174
47016.262
47016.772
47017.616
47018.698
47019.941
47021.275
47022.647
47024.01
47025.334
47026.589
47027.766
47028.841
47029.83
47030.695
47031.505
47032.164
47032.853
47033.361
47034.053
47034.528
47035.329
47035.822
47036.456
47036.71
47036.436
47036.613
46981.782
47006.862
47008.055
47025.343
47029.813
47036.681
47038.542
47039.799
47038.606
47036.739
47033.241
47029.884
47025.59
47022.069
47018.187
47015.281
47012.417
47010.56
47009.101
47008.494
47008.331
47008.783
47009.62
47010.831
47012.293
47013.942
47015.699
47017.504
47019.305
47021.061
47022.739
47024.319
47025.782
47027.127
47028.336
47029.434
47030.386
47031.263
47031.976
47032.703
47033.235
47033.939
47034.413
47035.213
47035.714
47036.384
47036.692
47036.489
47037.479
46889.247
46915.798
46918.519
46939.624
46946.584
46959.498
46966.991
46974.658
46979.66
46984.23
46986.661
46989.14
46989.966
46991.337
46991.64
46992.668
46993.11
46994.235
46995.286
46996.909
46998.632
47000.716
47002.936
47005.323
47007.775
47010.253
47012.701
47015.079
47017.35
47019.492
47021.484
47023.318
47024.987
47026.496
47027.839
47029.043
47030.08
47031.025
47031.79
47032.555
47033.113
47033.828
47034.302
47035.099
47035.602
47036.304
47036.663
47036.681
47038.938
46809.091
46837.158
46840.797
46864.893
46874.138
46890.794
46901.325
46914.028
46923.768
46933.691
46941.107
46948.817
46954.306
46960.323
46964.63
46969.568
46973.33
46977.518
46981.153
46985.086
46988.765
46992.539
46996.188
46999.783
47003.248
47006.571
47009.718
47012.671
47015.414
47017.94
47020.244
47022.33
47024.202
47025.875
47027.348
47028.657
47029.778
47030.79
47031.607
47032.41
47032.993
47033.721
47034.193
47034.986
47035.488
47036.216
47036.623
47036.859
47036.998
46737.619
46767.347
46771.121
46797.977
46808.338
46828.385
46841.822
46858.301
46871.347
46885.792
46897.259
46909.682
46919.364
46929.728
46937.766
46946.489
46953.481
46960.724
46966.943
46973.205
46978.862
46984.347
46989.443
46994.26
46998.745
47002.916
47006.763
47010.291
47013.503
47016.41
47019.022
47021.357
47023.428
47025.262
47026.864
47028.276
47029.48
47030.557
47031.426
47032.268
47032.877
47033.618
47034.089
47034.876
47035.373
47036.121
47036.572
47036.483
47034.907
46671.994
46703.617
46707.323
46737.001
46748.036
46771.271
46786.915
46806.639
46822.702
46840.898
46855.556
46872.267
46885.55
46900.006
46911.511
46923.852
46933.913
46944.136
46952.879
46961.438
46969.053
46976.238
46982.772
46988.803
46994.303
46999.314
47003.854
47007.95
47011.624
47014.906
47017.821
47020.4
47022.668
47024.658
47026.387
47027.9
47029.185
47030.327
47031.246
47032.127
47032.763
47033.519
47033.988
47034.769
47035.257
47036.022
47036.51
47036.448
47036.499
46610.75
46644.702
46648.266
46680.917
46692.442
46718.722
46735.877
46758.843
46777.363
46799.112
46817.033
46837.239
46853.356
46871.699
46886.376
46902.121
46915.026
46928.089
46939.235
46950.004
46959.512
46968.344
46976.277
46983.49
46989.978
46995.809
47001.023
47005.671
47009.795
47013.441
47016.65
47019.466
47021.924
47024.068
47025.919
47027.53
47028.895
47030.1
47031.07
47031.99
47032.653
47033.424
47033.892
47034.667
47035.141
47035.919
47036.435
47036.425
47036.842
46553.02
46589.466
46592.885
46628.727
46640.647
46670.015
46688.577
46714.652
46735.26
46760.356
46780.662
46804.427
46823.482
46845.199
46862.629
46881.531
46897.047
46912.773
46926.178
46939.036
46950.345
46960.748
46970.022
46978.367
46985.804
46992.423
46998.288
47003.467
47008.024
47012.021
47015.514
47018.559
47021.201
47023.492
47025.462
47027.168
47028.61
47029.877
47030.897
47031.855
47032.545
47033.332
47033.8
47034.57
47035.028
47035.813
47036.348
47036.4
47036.917
46497.597
46536.842
46539.998
46579.414
46591.689
46624.315
46644.151
46673.398
46695.858
46724.244
46746.777
46773.935
46795.428
46820.388
46840.304
46862.152
46880.053
46898.264
46913.777
46928.595
46941.601
46953.488
46964.032
46973.454
46981.796
46989.167
46995.652
47001.341
47006.313
47010.647
47014.413
47017.678
47020.497
47022.93
47025.015
47026.814
47028.33
47029.658
47030.727
47031.723
47032.441
47033.245
47033.715
47034.479
47034.918
47035.706
47036.25
47036.368
47036.96
46443.586
46486.451
46489.158
46532.587
46545.227
46581.347
46602.36
46634.942
46659.048
46690.765
46715.25
46745.708
46769.377
46797.432
46819.564
46844.161
46864.213
46884.717
46902.168
46918.797
46933.376
46946.64
46958.371
46968.8
46977.99
46986.068
46993.138
46999.308
47004.673
47009.328
47013.353
47016.827
47019.816
47022.385
47024.581
47026.469
47028.058
47029.443
47030.56
47031.594
47032.339
47033.162
47033.635
47034.395
47034.814
47035.6
47036.142
47036.328
47036.98
46390.975
46438.539
46440.585
46488.4
46501.375
46541.258
46563.299
46599.439
46624.976
46660.133
46686.314
46720.03
46745.564
46776.58
46800.65
46827.795
46849.749
46872.335
46891.529
46909.792
46925.795
46940.309
46953.12
46964.469
46974.437
46983.166
46990.777
46997.392
47003.123
47008.076
47012.344
47016.016
47019.164
47021.863
47024.163
47026.135
47027.793
47029.235
47030.399
47031.469
47032.242
47033.085
47033.562
47034.318
47034.717
47035.497
47036.028
47036.281
47036.973
46340.474
46392.771
46394.134
46446.663
46460.013
46503.881
46526.879
46566.792
46593.595
46632.276
46659.946
46696.864
46724.028
46757.849
46783.624
46813.097
46836.735
46861.182
46881.926
46901.637
46918.912
46934.538
46948.317
46960.491
46971.162
46980.48
46988.582
46995.605
47001.672
47006.9
47011.393
47015.247
47018.544
47021.364
47023.762
47025.815
47027.539
47029.034
47030.243
47031.349
47032.15
47033.012
47033.496
47034.251
47034.631
47035.399
47035.912
47036.228
47036.934
46291.113
46348.829
46349.459
46407.003
46420.808
46468.97
46492.87
46536.865
46564.708
46607.043
46635.985
46676.116
46704.679
46741.195
46768.447
46800.056
46825.169
46851.269
46873.376
46894.351
46912.744
46929.344
46943.975
46956.88
46968.174
46978.018
46986.561
46993.951
47000.322
47005.801
47010.5
47014.524
47017.959
47020.891
47023.382
47025.509
47027.296
47028.841
47030.093
47031.234
47032.062
47032.944
47033.437
47034.193
47034.555
47035.309
47035.797
47036.168
47036.862
46242.633
46306.933
46306.926
46369.56
46383.859
46436.764
46461.37
46509.787
46538.4
46584.546
46614.526
46657.92
46687.633
46726.749
46755.233
46788.788
46815.156
46842.688
46865.962
46888.009
46907.357
46924.784
46940.144
46953.674
46965.506
46975.806
46984.735
46992.449
46999.089
47004.792
47009.676
47013.852
47017.413
47020.448
47023.024
47025.22
47027.066
47028.658
47029.952
47031.125
47031.981
47032.883
47033.387
47034.145
47034.49
47035.228
47035.689
47036.103
47036.759
46196.947
46266.505
46266.386
46334.61
46349.249
46407.539
46432.242
46485.458
46514.736
46564.923
46595.704
46642.423
46673.013
46714.63
46744.093
46779.387
46806.787
46835.513
46859.756
46882.674
46902.805
46920.906
46936.865
46950.91
46963.188
46973.871
46983.125
46991.114
46997.986
47003.883
47008.93
47013.24
47016.913
47020.04
47022.693
47024.952
47026.851
47028.487
47029.819
47031.022
47031.906
47032.827
47033.344
47034.107
47034.439
47035.161
47035.592
47036.034
47036.635
46153.687
46226.538
46227.261
46302.18
46316.768
46381.051
46405.27
46463.696
46493.771
46548.237
46579.566
46629.656
46660.84
46704.832
46735.056
46771.848
46800.077
46829.746
46854.767
46878.356
46899.104
46917.724
46934.15
46948.601
46961.233
46972.222
46981.741
46989.956
46997.021
47003.082
47008.266
47012.692
47016.462
47019.67
47022.391
47024.707
47026.654
47028.329
47029.697
47030.929
47031.839
47032.779
47033.309
47034.078
47034.402
47035.109
47035.51
47035.967
47036.503
46109.015
46190.675
46189.935
46272.516
46285.997
46356.902
46381.4
46445.232
46475.667
46534.693
46566.164
46619.717
46651.173
46697.365
46728.158
46766.165
46795.046
46825.41
46851.011
46875.071
46896.265
46915.253
46932.015
46946.759
46959.655
46970.874
46980.593
46988.985
46996.202
47002.394
47007.691
47012.213
47016.065
47019.343
47022.122
47024.487
47026.477
47028.187
47029.588
47030.844
47031.78
47032.737
47033.284
47034.059
47034.379
47035.075
47035.448
47035.904
47036.376
46067.265
46156.98
46154.407
46246.15
46257.512
46335.537
46361.129
46430.501
46460.561
46524.571
46555.639
46612.663
46644.19
46692.266
46723.436
46762.367
46791.737
46822.552
46848.516
46872.842
46894.313
46913.516
46930.48
46945.406
46958.472
46969.842
46979.698
46988.213
46995.541
47001.831
47007.214
47011.812
47015.729
47019.062
47021.89
47024.296
47026.323
47028.063
47029.493
47030.771
47031.731
47032.704
47033.267
47034.052
47034.368
47035.061
47035.408
47035.852
47036.268
46027.042
46125.727
46121.285
46222.924
46232.402
46318.127
46343.889
46419.52
46448.607
46517.9
46548.228
46608.363
46639.999
46689.676
46720.764
46760.596
46790.117
46821.179
46847.292
46871.678
46893.258
46912.528
46929.563
46944.561
46957.693
46969.139
46979.067
46987.653
46995.049
47001.402
47006.844
47011.494
47015.459
47018.834
47021.7
47024.139
47026.195
47027.96
47029.414
47030.712
47031.691
47032.684
47033.254
47034.062
47034.365
47035.07
47035.39
47035.812
47036.19
45988.242
46098.024
46091.193