/*--------------------------------*- C++ -*----------------------------------*\
| =========                 |                                                 |
| \\      /  F ield         | OpenFOAM: The Open Source CFD Toolbox           |
|  \\    /   O peration     | Version:  2506                                  |
|   \\  /    A nd           | Website:  www.openfoam.com                      |
|    \\/     M anipulation  |                                                 |
\*---------------------------------------------------------------------------*/
FoamFile
{
    version     2.0;
    format      ascii;
    arch        "LSB;label=32;scalar=64";
    class       volScalarField;
    location    "0.0195";
    object      Ma;
}
// * * * * * * * * * * * * * * * * * * * * * * * * * * * * * * * * * * * * * //

dimensions      [0 0 0 0 0 0 0];

internalField   nonuniform List<scalar> 
13761
(
0.67079656
0.67365362
0.67632412
0.67882206
0.68115804
0.68333659
0.68536788
0.68726796
0.68904806
0.69072258
0.69229856
0.69375505
0.69504436
0.69616414
0.69725153
0.69852615
0.7001038
0.70185096
0.70308895
0.70222191
0.69740222
0.6875319
0.67318182
0.65539433
0.63533775
0.61384803
0.59129598
0.56766625
0.54248493
0.51498764
0.48417949
0.44856767
0.405894
0.35292757
0.28637854
0.20750833
0.12403463
0.041627905
0.62982323
0.63416027
0.63823032
0.64206211
0.64565882
0.64903624
0.65220084
0.65516387
0.65793852
0.6605323
0.66295141
0.66520656
0.66731484
0.66928676
0.67112503
0.67283581
0.67442308
0.67589777
0.67729687
0.67868155
0.68006665
0.6813282
0.68224137
0.68263032
0.68247055
0.68195863
0.68126992
0.67917943
0.67296273
0.66138684
0.64504931
0.62553656
0.60410944
0.58144191
0.55773999
0.53247764
0.50501335
0.47433675
0.43896337
0.39669745
0.3444337
0.27912126
0.20218746
0.12095572
0.040650688
0.61489947
0.61905312
0.62297476
0.62666119
0.63012922
0.63337986
0.6364259
0.63927882
0.64194608
0.64443839
0.6467692
0.64894977
0.65098443
0.65288124
0.65465435
0.65631495
0.65787671
0.65934677
0.66070625
0.6619125
0.66296724
0.66399832
0.66520733
0.66670142
0.66832988
0.66949274
0.66919318
0.66677142
0.66132539
0.65116753
0.63540813
0.6157588
0.59409017
0.57111974
0.54690516
0.52121093
0.4934439
0.46265323
0.42740357
0.38552589
0.33400569
0.27012788
0.195562
0.1171038
0.039416307
0.59981826
0.60384986
0.60762807
0.61118355
0.61451831
0.61764681
0.62057736
0.62332057
0.62588817
0.62828747
0.63052444
0.63260876
0.63455645
0.63637822
0.63807683
0.63965731
0.64112337
0.64248456
0.64377414
0.64504752
0.64631748
0.64747318
0.6483133
0.64868627
0.64862052
0.64834505
0.64793248
0.64646068
0.64203963
0.63366337
0.62120098
0.60409845
0.58351663
0.56094563
0.53692028
0.51116052
0.48323703
0.45228273
0.41692329
0.37509682
0.32401995
0.26136458
0.18902437
0.11325614
0.038167352
0.58478479
0.58860903
0.59222517
0.59562522
0.59882137
0.60181551
0.6046203
0.60724706
0.60970165
0.61199281
0.61413383
0.616137
0.61800651
0.6197481
0.62137393
0.62289519
0.62432533
0.6256724
0.62692049
0.62803095
0.62900443
0.62995497
0.63106597
0.63243381
0.63390561
0.6349947
0.63510113
0.63389759
0.63045553
0.62310898
0.61048908
0.59309661
0.57251903
0.54982349
0.52542342
0.49936151
0.47121308
0.44012756
0.40478234
0.36320407
0.31279647
0.25162813
0.18178785
0.10897287
0.036761486
0.56569666
0.56964671
0.57335968
0.5768358
0.58010298
0.5831635
0.58603196
0.58871877
0.59123294
0.5935843
0.59578035
0.59782755
0.59973431
0.60151476
0.60317946
0.60473154
0.60617529
0.6075141
0.60875547
0.609928
0.61108208
0.61223241
0.61328378
0.61405651
0.61441667
0.61440393
0.61419825
0.61381546
0.61272872
0.6100304
0.60436358
0.59469115
0.58020062
0.56092867
0.53869295
0.51421057
0.48778641
0.45921052
0.42776553
0.39221871
0.35068968
0.30081906
0.24117353
0.17402214
0.10438067
0.035253523
0.55095688
0.55467276
0.55816572
0.56147169
0.56458045
0.56750027
0.57023517
0.57279716
0.57519623
0.57743657
0.57952564
0.58147685
0.58330336
0.58500909
0.58659728
0.58807797
0.58946233
0.59076371
0.59199129
0.59313273
0.59415273
0.59504759
0.59591436
0.59691775
0.59814725
0.59946992
0.60049368
0.60075006
0.59988611
0.59715774
0.59139446
0.58144888
0.56721588
0.54877496
0.52711027
0.50301494
0.47670482
0.44798562
0.41623106
0.3803413
0.3386792
0.28926122
0.23110829
0.16655084
0.099942718
0.033787437
0.53229589
0.53602638
0.53961701
0.5430125
0.54619113
0.54917256
0.5519613
0.55457345
0.55702058
0.55930903
0.56144658
0.56344196
0.56530285
0.56703594
0.56865246
0.57016258
0.57157038
0.57288014
0.57409497
0.57521988
0.57627809
0.57731523
0.57835001
0.57930441
0.58001898
0.58036948
0.58038369
0.58019695
0.57982944
0.57894884
0.5769676
0.57286359
0.56533094
0.55330664
0.53623295
0.51533864
0.49130635
0.46463293
0.43542748
0.40325676
0.36714014
0.32554748
0.27678301
0.22037147
0.15864869
0.095259926
0.032238454
0.51773464
0.52142458
0.52482185
0.52799592
0.5309974
0.53381913
0.5364684
0.53895176
0.54127881
0.54345678
0.54548899
0.5473828
0.54915146
0.55080805
0.55235598
0.55379634
0.55513728
0.55638989
0.55756725
0.55867957
0.5597184
0.56065191
0.56147069
0.56225333
0.5631458
0.56423462
0.56541349
0.56636015
0.56666349
0.56597718
0.56368645
0.55887982
0.55075904
0.53893082
0.52279576
0.50262156
0.47929349
0.45312097
0.42406028
0.39170819
0.35527238
0.31357287
0.26538201
0.21061404
0.15148035
0.090998552
0.030823516
0.49976397
0.50335535
0.50671443
0.50994879
0.5130325
0.51592267
0.51862691
0.52115347
0.52351986
0.5257367
0.52780722
0.52973827
0.53154084
0.53322404
0.53479202
0.5362522
0.53761426
0.53888402
0.54006647
0.54116435
0.54217996
0.5431306
0.5440569
0.54498226
0.54584664
0.54651003
0.54685325
0.54688412
0.5466986
0.54631976
0.54551252
0.54381216
0.54039729
0.5340988
0.52395072
0.50909916
0.49001828
0.46714108
0.44088579
0.4115109
0.37886703
0.34231665
0.30083734
0.25351726
0.20063596
0.14421976
0.086690922
0.029390814
0.48180677
0.48543858
0.48895478
0.49231033
0.49540902
0.4982835
0.50098984
0.50353193
0.50592061
0.50816353
0.51026535
0.51223007
0.51406213
0.51576998
0.51736547
0.51885997
0.52025649
0.52155514
0.52276285
0.52389031
0.52494976
0.52595188
0.52689235
0.52774344
0.52849029
0.52919265
0.52997735
0.53092928
0.5319694
0.5328289
0.53313056
0.53254613
0.53054149
0.52634693
0.51931203
0.50897413
0.49477436
0.47636284
0.45429866
0.42879771
0.39989518
0.36737683
0.33079936
0.28951415
0.2430443
0.1918968
0.13786439
0.082904845
0.028125992
0.46439557
0.46809715
0.4716353
0.474898
0.47790829
0.48079641
0.48357228
0.48618135
0.48861941
0.49089728
0.49303073
0.49502708
0.49688791
0.49862134
0.50024088
0.50175598
0.50316747
0.50447875
0.50569938
0.50683763
0.50789952
0.50888722
0.50980029
0.51065011
0.51147186
0.51229311
0.51307139
0.51368583
0.51402061
0.51406139
0.51387054
0.51346709
0.5126641
0.51105667
0.50795708
0.50239728
0.49348597
0.48034221
0.46295333
0.44150577
0.41623427
0.38735468
0.35488257
0.31853112
0.27781098
0.23249205
0.18324651
0.13162336
0.079190538
0.026882608
0.45085662
0.45433341
0.45758402
0.46071012
0.46373257
0.46655172
0.46914763
0.47157086
0.47384388
0.47598443
0.47799808
0.47988309
0.48164212
0.48328309
0.48481558
0.4862477
0.48758733
0.48883799
0.49000092
0.4910825
0.49209217
0.49304028
0.49393728
0.49478304
0.49555504
0.49623426
0.49686223
0.49754593
0.49836795
0.49927396
0.50003821
0.5003115
0.49978178
0.49796616
0.49416235
0.48778774
0.47840796
0.46564388
0.44883799
0.42815471
0.40368932
0.37548555
0.34346451
0.3074952
0.26738929
0.22320408
0.17568402
0.12616098
0.07592499
0.025784498
0.43409373
0.43756918
0.44087913
0.44405974
0.44701019
0.44970382
0.45226044
0.45472713
0.4570585
0.459243
0.46128756
0.46320021
0.46498439
0.46664401
0.46819053
0.46963801
0.47099389
0.47225595
0.47342497
0.47451099
0.47552468
0.47647263
0.47735615
0.47817258
0.47892807
0.47965184
0.48037411
0.48106863
0.4816334
0.48195654
0.48200233
0.48180394
0.48137003
0.48053883
0.47894647
0.47599936
0.47088653
0.46281835
0.45089649
0.43491932
0.41488927
0.39088281
0.3630402
0.33144767
0.29607376
0.25685529
0.21400706
0.1682945
0.12085225
0.072752913
0.024716161
0.4175898
0.42104507
0.42433437
0.42745641
0.43034348
0.43308586
0.4357712
0.438316
0.44064753
0.44280112
0.44481767
0.44672038
0.44851048
0.45018284
0.45174274
0.45320218
0.45456928
0.45584584
0.45703586
0.4581452
0.45917833
0.46014116
0.46104041
0.46188336
0.46267971
0.46343362
0.46412881
0.46474406
0.46530407
0.46589523
0.46659581
0.4673719
0.46803375
0.46825937
0.46774727
0.46605655
0.46252847
0.45660919
0.4478691
0.43613367
0.42065321
0.40130404
0.37807848
0.35100648
0.32011544
0.2854819
0.24722626
0.20569975
0.16165635
0.11608042
0.06989452
0.02375136
0.4016111
0.40504048
0.40829586
0.41138965
0.41430998
0.41711952
0.41976705
0.42217567
0.42441382
0.42656225
0.42861142
0.43054809
0.43236503
0.43405784
0.43562974
0.43709152
0.43845718
0.43973694
0.44093443
0.44204694
0.44307556
0.44403088
0.44492416
0.44576133
0.44654282
0.44726505
0.4479302
0.44856118
0.44918846
0.44979968
0.45031135
0.45061744
0.4506634
0.4504552
0.44998432
0.4491045
0.44748026
0.44459421
0.43977318
0.43230101
0.42129445
0.40649258
0.38775353
0.36509681
0.33862278
0.3084503
0.27470581
0.23757784
0.19748482
0.15514679
0.11141884
0.067106167
0.022810993
0.38593169
0.38930934
0.39252212
0.3955816
0.39849392
0.40126372
0.40381143
0.40619384
0.40853478
0.41079115
0.41286373
0.41476387
0.41653513
0.41819988
0.41975911
0.42121304
0.42257276
0.42385047
0.42504892
0.42616364
0.42719702
0.42815929
0.42905878
0.42989997
0.43068547
0.43141911
0.43210992
0.43276619
0.4333785
0.4339254
0.43441678
0.43491802
0.43550022
0.43614487
0.43669291
0.43684746
0.43632007
0.4346917
0.43134137
0.42575
0.41751798
0.40658915
0.39215829
0.37399692
0.35205045
0.326354
0.2970092
0.26421103
0.22824171
0.18956609
0.14886667
0.10690184
0.064390256
0.021890132
0.37076519
0.37412413
0.3773219
0.38034907
0.38322709
0.38595886
0.38849901
0.39093721
0.39329038
0.39544117
0.39738223
0.3992176
0.40098826
0.40268185
0.40427146
0.40574308
0.40710509
0.40837472
0.40956309
0.41067256
0.41170436
0.41266027
0.41354467
0.41436696
0.41513581
0.41585532
0.41652621
0.41714622
0.41771534
0.41824967
0.41877723
0.41929664
0.41974246
0.42001664
0.42004956
0.41981891
0.41929545
0.41833553
0.41662578
0.41371531
0.40904448
0.40202992
0.3917225
0.37782908
0.36019496
0.33882189
0.31380191
0.28528493
0.2534928
0.21874382
0.18152356
0.14247682
0.10228432
0.061596964
0.020936021
0.35605007
0.35934158
0.36244902
0.36539376
0.36820495
0.37089539
0.37343387
0.37585392
0.3781037
0.38017208
0.38216911
0.38412255
0.38595215
0.38763306
0.38918271
0.39061834
0.39195297
0.39320111
0.39437653
0.3954841
0.39651951
0.39747676
0.39836046
0.39918449
0.39995851
0.40068401
0.40135967
0.40198712
0.40257523
0.40313552
0.40366492
0.40414364
0.4045696
0.40498789
0.40545846
0.40597389
0.40639857
0.40646077
0.40588833
0.40426139
0.40098141
0.39555398
0.38760938
0.37723938
0.36364785
0.34650083
0.32575502
0.30147223
0.27380988
0.2430313
0.20949804
0.17370435
0.13625872
0.097780291
0.058865299
0.020000542
0.34498617
0.34801671
0.35095923
0.35376792
0.35643915
0.35896699
0.36135226
0.36354917
0.36564419
0.36770401
0.36961239
0.37129886
0.37286041
0.37437269
0.37582994
0.37719864
0.37846594
0.37964409
0.38074686
0.38177592
0.3827274
0.38360564
0.38442073
0.38517993
0.38588778
0.38654739
0.38716129
0.38773259
0.38826243
0.38874982
0.38920375
0.38964684
0.39008459
0.3904687
0.39071154
0.3907326
0.39048476
0.38991487
0.38887167
0.38706607
0.38410336
0.37950082
0.37273398
0.36289218
0.34971884
0.33303139
0.31284633
0.2892657
0.26246869
0.2327332
0.20043362
0.16606168
0.13019042
0.093386646
0.056200421
0.01908777
0.33109377
0.33410947
0.33701779
0.33973245
0.34228785
0.34473587
0.34707227
0.34924457
0.35133231
0.35332536
0.35512774
0.35679836
0.3584501
0.36005774
0.36155304
0.36290687
0.36413396
0.36526913
0.36633975
0.36735377
0.3683054
0.36918901
0.37000465
0.37076015
0.3714676
0.37213332
0.37275613
0.37333386
0.37386853
0.3743688
0.37484686
0.37530398
0.37572359
0.37609584
0.37644882
0.37682826
0.37722993
0.37753771
0.37750275
0.37686772
0.3752094
0.37195416
0.36665323
0.35895788
0.34902169
0.3360974
0.31984498
0.30024218
0.27737862
0.25144599
0.22274352
0.19165789
0.15867136
0.12432326
0.089136355
0.053620834
0.018203686
0.31772441
0.32065314
0.32341886
0.32604268
0.32857568
0.33102898
0.33337805
0.33556356
0.33762585
0.33954711
0.3413452
0.34309923
0.34476828
0.34626084
0.34761221
0.34888945
0.35011079
0.35126829
0.35235886
0.35338489
0.35434329
0.35522699
0.35603482
0.35677878
0.35747459
0.35812793
0.35873641
0.35929845
0.35981747
0.36030053
0.36075221
0.36117072
0.36155819
0.36193034
0.36229586
0.36262208
0.36283121
0.36283883
0.36257637
0.36196581
0.36084529
0.3589461
0.35592005
0.35134808
0.34476612
0.33530264
0.32274243
0.30692108
0.28787092
0.26571075
0.24064576
0.21298002
0.18310017
0.15147561
0.11861442
0.085001059
0.051110588
0.017343146
0.30483038
0.30762699
0.31030328
0.31292758
0.31545424
0.31781857
0.32005623
0.32217079
0.32416428
0.3260141
0.3278047
0.32954753
0.33111303
0.33250916
0.33389028
0.33528238
0.33659694
0.33777471
0.33882986
0.33980573
0.34072699
0.34159299
0.34239686
0.34314186
0.34383662
0.3444869
0.34509584
0.3456645
0.34619287
0.34668263
0.34713774
0.34756485
0.3479734
0.34836668
0.34873275
0.34905905
0.34935992
0.34966542
0.34996924
0.35016779
0.35003192
0.34931782
0.34760148
0.34433733
0.33913312
0.33166043
0.32209603
0.30975695
0.29433488
0.27583479
0.25437265
0.23016184
0.20351354
0.17481254
0.1445123
0.11309129
0.080999968
0.048681518
0.016510376
0.29237505
0.29506453
0.2976877
0.30023216
0.30263228
0.30487555
0.30705646
0.30918666
0.31120333
0.31305252
0.31483608
0.31654023
0.31807743
0.31952739
0.32097157
0.32232477
0.32351919
0.32458426
0.32558263
0.32655228
0.32749374
0.32838627
0.32921002
0.32996026
0.33064559
0.33128106
0.33187851
0.33243856
0.33295598
0.3334299
0.33386665
0.33427551
0.33466175
0.3350223
0.33535435
0.33566743
0.33597164
0.33624449
0.33641957
0.3364114
0.33613433
0.33548739
0.33429731
0.33231213
0.32922151
0.32465732
0.31821044
0.30907163
0.29706127
0.2820489
0.26408894
0.24331728
0.21995412
0.19431149
0.16676839
0.13776081
0.10773937
0.077123998
0.046328742
0.015703864
0.28041753
0.28301194
0.28553365
0.28794371
0.29026462
0.2925164
0.29468976
0.29675983
0.29870782
0.30049582
0.30219914
0.30381397
0.30533392
0.30679808
0.30815485
0.30936327
0.31051785
0.31167474
0.31279085
0.3138174
0.31474984
0.31560465
0.31639191
0.31711602
0.3177853
0.31841398
0.31901084
0.31957246
0.32009261
0.32057148
0.32101498
0.32143007
0.32182076
0.32218893
0.32253925
0.32287611
0.32319358
0.32348071
0.32374061
0.32398869
0.32421099
0.32431028
0.32407385
0.32326739
0.32147347
0.31818027
0.31305775
0.30579629
0.29656856
0.28476602
0.2701301
0.25269626
0.23260078
0.21006752
0.18540805
0.15899294
0.13123959
0.10257225
0.07338288
0.044058372
0.014925836
0.26906148
0.27147946
0.27383252
0.27612864
0.27840367
0.28060709
0.28264341
0.28456024
0.28645343
0.28825938
0.28994501
0.29151327
0.29304661
0.29452374
0.29583058
0.29703494
0.29828121
0.29950068
0.30055873
0.30145388
0.30227722
0.30309147
0.30389301
0.30465067
0.30534667
0.30598557
0.30657777
0.30712841
0.30763928
0.30811082
0.30854408
0.30894335
0.30931521
0.30966576
0.30999769
0.31030785
0.31059252
0.31085785
0.31111244
0.31133983
0.31148282
0.31145641
0.31116254
0.31048097
0.30922831
0.30716634
0.30402165
0.29945687
0.2931166
0.28427055
0.27277467
0.2585345
0.24162588
0.22220023
0.20048565
0.17679081
0.15147644
0.12494131
0.097584905
0.069773482
0.041868685
0.014175726
0.26032773
0.26256636
0.26477808
0.26695726
0.26903922
0.27098252
0.27287693
0.27478165
0.27658172
0.2782112
0.27970504
0.2811987
0.28263509
0.28390028
0.2850938
0.28629009
0.28738081
0.28833448
0.28923988
0.29015677
0.29106297
0.2919056
0.29265474
0.29331606
0.29391584
0.29447843
0.29501596
0.2955276
0.29600433
0.29644071
0.29684165
0.29721723
0.29757443
0.29791368
0.29823225
0.29853205
0.2988196
0.29909501
0.29934964
0.29957884
0.29978345
0.29993857
0.29994862
0.29961472
0.29870693
0.29681781
0.29350043
0.28845037
0.28139701
0.27248735
0.26119469
0.2473162
0.23091502
0.21214274
0.19122756
0.16847305
0.14422821
0.11887281
0.092782648
0.066299937
0.039762478
0.013454625
0.24981895
0.25191399
0.25397293
0.25598049
0.25794298
0.2598671
0.26173012
0.26349524
0.26515614
0.26673469
0.26821066
0.26965508
0.27102681
0.2722857
0.27349
0.27462741
0.27567734
0.27671991
0.27775425
0.27869054
0.27949401
0.28020827
0.28088211
0.28153103
0.28215222
0.28274263
0.28330124
0.2838222
0.28429681
0.28472471
0.28511539
0.28547958
0.28582295
0.2861462
0.28644885
0.28673197
0.28699607
0.28724072
0.28746985
0.28768781
0.28787946
0.28799308
0.28794494
0.28762903
0.28691345
0.2856063
0.28348092
0.28028815
0.27572659
0.26948789
0.2609256
0.24992576
0.2364321
0.22054032
0.2024142
0.18228393
0.16044757
0.1372421
0.11302877
0.088161066
0.062958812
0.037737457
0.012761643
0.23965323
0.24158622
0.24352187
0.24539623
0.24725301
0.24912255
0.2508809
0.25248583
0.25409128
0.25572748
0.25722186
0.25858406
0.25987642
0.26115468
0.26237591
0.26345289
0.26446953
0.26552328
0.26649004
0.26727694
0.2679847
0.26873299
0.26951609
0.27025514
0.27090218
0.27146702
0.27198246
0.27246741
0.27292292
0.27334662
0.27373938
0.27410511
0.27444935
0.27477623
0.27508656
0.27537847
0.27565049
0.27590639
0.27615455
0.2763976
0.27662751
0.27683337
0.27700307
0.2771004
0.27702749
0.27660215
0.27558942
0.27360085
0.27026267
0.26528921
0.25844954
0.24985837
0.23906413
0.22592344
0.21052319
0.19302661
0.17366155
0.1527184
0.13052085
0.10741154
0.083722538
0.059752462
0.035795523
0.012097636
0.23021197
0.23189946
0.23368984
0.23543366
0.23711238
0.23883402
0.24050421
0.24205244
0.24362491
0.24520652
0.24660425
0.24785807
0.24908488
0.25035207
0.25153093
0.25253437
0.25351571
0.25453543
0.25545018
0.25626036
0.25708554
0.25793068
0.25869793
0.25933229
0.25986797
0.26037103
0.26088047
0.26139309
0.2618843
0.26233263
0.26273101
0.26308812
0.26341971
0.26373569
0.26403562
0.2643144
0.26457018
0.26480763
0.26503296
0.26524828
0.26545335
0.26564601
0.26580849
0.26589224
0.26581625
0.26547144
0.2647179
0.26336193
0.26118692
0.25796068
0.253415
0.24728589
0.23901883
0.2285152
0.21574978
0.20084261
0.18396725
0.16535137
0.1452779
0.12405734
0.10201438
0.07946087
0.056675605
0.033932886
0.011461034
0.22253725
0.2241435
0.22580135
0.22732962
0.22887954
0.23048541
0.23199988
0.23344092
0.23485339
0.23618921
0.23745817
0.23867553
0.23989712
0.24102506
0.24202661
0.24302531
0.24401051
0.24490242
0.24575748
0.24658145
0.24729904
0.24791394
0.24850572
0.24911807
0.24973024
0.25030604
0.25082703
0.25129134
0.25170244
0.25206857
0.2524061
0.25273122
0.25304884
0.25335337
0.2536376
0.25389963
0.2541432
0.25437396
0.25459788
0.25482027
0.2550408
0.25524967
0.25543161
0.25556577
0.25560713
0.25545487
0.25494206
0.25382725
0.25174727
0.24839836
0.24351302
0.23689645
0.22863666
0.21836978
0.20593992
0.1915064
0.17523616
0.15735051
0.13812238
0.11784816
0.096834775
0.075374693
0.053727932
0.032149909
0.010852227
0.21397533
0.21531436
0.21681732
0.21820627
0.21952947
0.22097559
0.22242025
0.22373589
0.2250218
0.22636212
0.22765401
0.22879203
0.22989069
0.23094647
0.23194511
0.23290997
0.23380126
0.23465051
0.23550872
0.23627319
0.23691962
0.23758115
0.23830931
0.23900077
0.23956077
0.24000847
0.24042078
0.2408437
0.24126982
0.24167301
0.24204177
0.24238056
0.24269696
0.24299412
0.24327025
0.24352252
0.24375152
0.24396301
0.24416598
0.24436661
0.24456342
0.24475028
0.24491852
0.24504821
0.24509437
0.24498056
0.2445982
0.24380123
0.24240072
0.24019383
0.23695345
0.23244214
0.22643656
0.21847396
0.20849885
0.19643868
0.18248884
0.16682023
0.14965135
0.13124647
0.11188876
0.091868454
0.071459933
0.050905758
0.030443759
0.010269955
0.20579399
0.2068464
0.20807219
0.20933592
0.21049828
0.21175504
0.21312527
0.21438718
0.21555654
0.21679845
0.21801311
0.21905659
0.2200654
0.22108035
0.22208207
0.2230137
0.22385558
0.22471183
0.225572
0.22629464
0.22694619
0.22765911
0.22836304
0.22892609
0.22936842
0.22981158
0.23031945
0.2308552
0.23134628
0.23175349
0.23208613
0.2323779
0.2326598
0.23294435
0.23322406
0.2334843
0.23371836
0.23393214
0.23413773
0.23434328
0.23454973
0.23475426
0.23495128
0.23513045
0.23527661
0.23536547
0.23534682
0.23511839
0.23452003
0.23330762
0.23116418
0.22781864
0.22303646
0.21665479
0.2087301
0.1989751
0.18727089
0.17379568
0.15871714
0.14224821
0.12464344
0.10617263
0.087109886
0.067712455
0.048206475
0.028813182
0.0097139582
0.1982628
0.1991313
0.20004407
0.20111868
0.20217418
0.20322401
0.20440163
0.20556782
0.20660749
0.20768931
0.20883492
0.20987646
0.21083792
0.2117827
0.21274782
0.21363246
0.21442848
0.21525693
0.21606144
0.21674152
0.21740892
0.21810269
0.21871481
0.21923641
0.21976498
0.22032936
0.22086264
0.22130676
0.22166632
0.22198111
0.22228478
0.2225927
0.222908
0.22322272
0.22351941
0.2237822
0.22400789
0.22420646
0.22439257
0.22457699
0.22476319
0.22494822
0.22512423
0.22528197
0.22541184
0.22549555
0.22549265
0.22533128
0.22490471
0.22406466
0.22262816
0.2203999
0.21716503
0.21271154
0.20685063
0.19920856
0.18974344
0.17841611
0.16542008
0.15092612
0.13514338
0.1183173
0.10070479
0.082564492
0.06413745
0.045634391
0.027261057
0.0091852844
0.19180657
0.19244204
0.19321448
0.19410447
0.19498924
0.19592548
0.19695341
0.19793428
0.19890107
0.19995112
0.20094562
0.20180614
0.20264162
0.20356346
0.20440958
0.20515317
0.20592176
0.20666706
0.20734421
0.20802773
0.20866414
0.20921585
0.20977757
0.21036724
0.21087937
0.21127199
0.21162785
0.21202984
0.21247137
0.2128915
0.21325012
0.21355301
0.21382481
0.21408036
0.21432028
0.21454018
0.21474023
0.21492797
0.21511406
0.21530504
0.21549884
0.21568715
0.21586189
0.21601784
0.21614923
0.21624478
0.21627946
0.21619909
0.2159002
0.21522253
0.21392644
0.21174282
0.20842144
0.20376091
0.19762705
0.19006145
0.18083575
0.16986745
0.15734006
0.14341883
0.12830599
0.11223672
0.095455032
0.078204653
0.0607113
0.043171231
0.025775654
0.0086797006
0.18505461
0.18552525
0.1860291
0.18666584
0.18740454
0.18815238
0.18897394
0.1898525
0.19070805
0.19158984
0.19245692
0.1932468
0.19404685
0.19493237
0.19569991
0.19635502
0.19705433
0.19777936
0.19849391
0.1991787
0.19975479
0.20029535
0.20089365
0.20145003
0.20187126
0.20224973
0.20270583
0.20321088
0.20364714
0.20395471
0.20417514
0.20438725
0.20463608
0.20491685
0.20519784
0.20544849
0.20565777
0.20583625
0.20600401
0.20617504
0.20634971
0.20651936
0.20667411
0.20680693
0.2069138
0.20698977
0.20701937
0.20696417
0.20675403
0.20628227
0.2054017
0.20393739
0.20169595
0.19847916
0.19410073
0.18840553
0.18110886
0.17217803
0.16159284
0.14954031
0.13618728
0.12173166
0.10639954
0.090422752
0.074030962
0.057435394
0.040818693
0.024358409
0.0081978406
0.17889681
0.17910675
0.17934518
0.17963721
0.1801074
0.18069329
0.18130422
0.18198036
0.18271839
0.18347274
0.18420091
0.18492794
0.18569546
0.18647484
0.18711231
0.18771531
0.18841094
0.18914459
0.18984589
0.19043642
0.19090808
0.19142687
0.19200226
0.19247947
0.19287134
0.1933144
0.19380711
0.19422919
0.19453447
0.19479364
0.19508893
0.1954348
0.19579098
0.1961123
0.19637544
0.1965806
0.19674548
0.19689584
0.19705289
0.19722473
0.19740641
0.19758635
0.19775276
0.19789784
0.19801974
0.19812042
0.19819941
0.1982466
0.19823338
0.19809967
0.19773893
0.19698776
0.19562587
0.19341193
0.19012331
0.18558615
0.17969124
0.1724953
0.16381356
0.15359648
0.14200771
0.12921002
0.11539476
0.10077826
0.085580347
0.070017238
0.054286547
0.038558203
0.022996981
0.0077350682
0.17307829
0.17315604
0.17324597
0.17344207
0.17385261
0.17432125
0.17475927
0.17530392
0.17595471
0.17654886
0.17714019
0.17782012
0.17849936
0.17905521
0.17963716
0.1802818
0.18090969
0.18148948
0.18197489
0.18243787
0.18302827
0.18362894
0.18409784
0.18453428
0.18501283
0.1854423
0.185778
0.18610623
0.18648705
0.18686918
0.1871756
0.18739558
0.18757578
0.18775804
0.18795126
0.18814616
0.18833496
0.18851723
0.18869552
0.18886966
0.18903463
0.18918214
0.18930572
0.18940428
0.18948092
0.18953832
0.18957266
0.18956542
0.18947423
0.18922648
0.18871475
0.18779641
0.18630243
0.18405007
0.18085934
0.1765673
0.17104534
0.16410341
0.15571151
0.14587285
0.13474699
0.1224964
0.10930709
0.095386164
0.080941936
0.066177709
0.051278129
0.03640108
0.021699272
0.0072945188
0.16792904
0.16763579
0.16748078
0.16735374
0.16742536
0.16767029
0.16787572
0.16814838
0.1686361
0.16913708
0.16958364
0.17011951
0.17071756
0.17122272
0.17172424
0.17224276
0.17278191
0.17334819
0.17386854
0.17438989
0.1749814
0.17549438
0.17588933
0.17628487
0.17666875
0.17698144
0.17729993
0.17769816
0.17809585
0.17837866
0.17855932
0.17874871
0.17901872
0.1793414
0.17964118
0.17987037
0.18003315
0.18016432
0.18029763
0.18044637
0.18060308
0.18075191
0.18088139
0.18098922
0.18107966
0.18115861
0.1812291
0.18128673
0.1813145
0.18127557
0.18110272
0.18068602
0.17986562
0.17844027
0.17619707
0.17294561
0.1685404
0.1628918
0.15605396
0.14790848
0.13843221
0.1277561
0.11603804
0.10345691
0.090209896
0.076493718
0.062499109
0.048398285
0.034337717
0.020458793
0.0068736746
0.16304874
0.16240704
0.1620335
0.16169138
0.16144006
0.16147179
0.16158015
0.16166397
0.16192341
0.16231377
0.16264577
0.16298507
0.16344833
0.16390277
0.16430901
0.16470147
0.1651891
0.16572549
0.16616816
0.16657921
0.16702993
0.16743947
0.16784045
0.16825414
0.16859807
0.16891876
0.1693353
0.16979464
0.17014963
0.17039081
0.17063562
0.17095035
0.17128291
0.17154528
0.17170637
0.17180232
0.17189238
0.17201788
0.17218666
0.17237844
0.17256273
0.172717
0.17283527
0.17292435
0.17299585
0.17305961
0.17312016
0.17317469
0.17321064
0.17320062
0.17309587
0.17282099
0.1722699
0.17130653
0.16977238
0.1675016
0.16433736
0.16014519
0.15482708
0.14824785
0.1403852
0.13126807
0.12103161
0.10983104
0.097838752
0.085242386
0.072227533
0.058972947
0.045639092
0.032361656
0.019271315
0.0064710372
0.15848077
0.15759487
0.15693243
0.15629649
0.15590525
0.15577353
0.15562975
0.15556032
0.15571647
0.15592916
0.15609444
0.15637325
0.15674348
0.15708132
0.15736096
0.15775153
0.15819807
0.15856927
0.1589623
0.15941158
0.1598425
0.16028651
0.16068092
0.16097492
0.16131575
0.16175786
0.16213646
0.16237223
0.16258334
0.16285508
0.16312391
0.1633104
0.16343629
0.1635795
0.16377861
0.16401198
0.16423995
0.16443883
0.16460326
0.16473604
0.16484268
0.16493022
0.16500768
0.16508465
0.16516829
0.1652606
0.16535799
0.16545198
0.16552808
0.16556149
0.16550926
0.16530017
0.16482467
0.16393197
0.16244175
0.16017058
0.15695972
0.15269167
0.14729839
0.14082502
0.1331976
0.12441918
0.11460479
0.10390366
0.092479942
0.08051087
0.068170417
0.055625201
0.043024009
0.030492012
0.018149679
0.0060914432
0.15470457
0.15316263
0.15213104
0.15137417
0.1506662
0.15025937
0.14997777
0.14969637
0.14962721
0.14973476
0.14981307
0.14991002
0.1501137
0.15036983
0.15055101
0.15079597
0.15112742
0.15146795
0.15183463
0.15217698
0.15248177
0.15282961
0.15314668
0.15342434
0.15378145
0.15415023
0.15438441
0.15455136
0.15479575
0.15509521
0.1553505
0.15556788
0.15582264
0.15612307
0.15639384
0.15657187
0.15666803
0.15673988
0.1568344
0.15696056
0.15709923
0.15722783
0.15733739
0.15743434
0.15753048
0.15763268
0.15773945
0.15784306
0.15793162
0.15798728
0.15798028
0.1578614
0.15755651
0.15696347
0.15595427
0.15438389
0.15210625
0.14898963
0.14492693
0.1398447
0.13364927
0.12629895
0.11785076
0.10844347
0.098222262
0.087343931
0.075975864
0.064281109
0.052414936
0.040515268
0.028697506
0.017072525
0.0057266597
0.1517009
0.14994119
0.14855858
0.14767837
0.14665616
0.1457161
0.14512188
0.1445886
0.14414281
0.1439233
0.14381839
0.14371603
0.14367777
0.14380799
0.14392
0.14402901
0.14423457
0.14453577
0.14484021
0.14506914
0.14533138
0.14569652
0.14601931
0.14630546
0.14662767
0.14689444
0.14709343
0.14736208
0.14771507
0.14803503
0.14829442
0.14855625
0.14881341
0.14897923
0.1490228
0.14902426
0.14909101
0.14925828
0.14948033
0.14968792
0.14983913
0.14993392
0.14999991
0.15006972
0.15016385
0.15028548
0.15042494
0.15056777
0.15070058
0.15081218
0.1508895
0.15090973
0.15083055
0.15058041
0.15005168
0.14910252
0.1475705
0.14529723
0.14215277
0.13804906
0.13294487
0.12684478
0.11972673
0.11159591
0.10257638
0.092815822
0.082461672
0.071670587
0.060594334
0.04937679
0.038145114
0.027005158
0.016058572
0.0053840447
0.14714243
0.14546934
0.14397442
0.14258778
0.14118014
0.14024451
0.13960631
0.13893659
0.13842472
0.13817363
0.13798425
0.13777566
0.13775426
0.13780771
0.13782175
0.13786995
0.13805765
0.13826655
0.13840183
0.13860954
0.1388863
0.13907482
0.13927664
0.13955495
0.13980073
0.14004797
0.14035727
0.14061914
0.14077517
0.14093626
0.14115096
0.14131619
0.14137352
0.14142322
0.14159557
0.14189228
0.14219859
0.14240506
0.14248895
0.14250295
0.14251837
0.14258172
0.14270238
0.14286414
0.14304262
0.14321671
0.14337227
0.14350189
0.14360262
0.14367173
0.14370002
0.14366374
0.1435174
0.14318903
0.14257877
0.14156288
0.14000401
0.13776759
0.13473712
0.13082423
0.12597725
0.12018669
0.11336792
0.10559324
0.096957443
0.087647639
0.077802158
0.067567413
0.057084607
0.046487075
0.035892151
0.025397077
0.015095216
0.0050584679
0.14464938
0.14328974
0.1412341
0.13942495
0.13797055
0.13669722
0.13576835
0.13481574
0.133878
0.13327142
0.1328555
0.13240085
0.13207062
0.13190917
0.13181639
0.13169749
0.13171239
0.13184111
0.13193607
0.13207498
0.13225031
0.13239699
0.13264167
0.13293686
0.13314533
0.1333449
0.13356945
0.1337239
0.13385582
0.13408049
0.13433216
0.13448294
0.13457668
0.1347505
0.13502045
0.13526852
0.13539921
0.13542789
0.13543322
0.13547749
0.13557735
0.13571892
0.13588064
0.13604554
0.13620334
0.13634773
0.13647433
0.13658081
0.13666742
0.13673587
0.13678609
0.13681086
0.1367888
0.13667626
0.1363998
0.13585247
0.1348987
0.1333894
0.13118485
0.12817465
0.12428672
0.1194901
0.11379371
0.10720309
0.099748326
0.0915052
0.082646676
0.073302976
0.063611684
0.053704869
0.043706652
0.033725661
0.023851393
0.014169589
0.00474578
0.14171062
0.13944439
0.13662784
0.13500128
0.13339361
0.13178547
0.13049159
0.12929902
0.12839098
0.12781621