/*--------------------------------*- C++ -*----------------------------------*\
| =========                 |                                                 |
| \\      /  F ield         | OpenFOAM: The Open Source CFD Toolbox           |
|  \\    /   O peration     | Version:  2506                                  |
|   \\  /    A nd           | Website:  www.openfoam.com                      |
|    \\/     M anipulation  |                                                 |
\*---------------------------------------------------------------------------*/
FoamFile
{
    version     2.0;
    format      ascii;
    arch        "LSB;label=32;scalar=64";
    class       volScalarField;
    location    "1.85";
    object      omega;
}
// * * * * * * * * * * * * * * * * * * * * * * * * * * * * * * * * * * * * * //

dimensions      [0 0 -1 0 0 0 0];

internalField   nonuniform List<scalar> 
1375
(
1562.8434
561.58562
249.08068
154.04176
1596.434
571.13754
232.56853
142.08586
100.69762
84.731759
63.554618
54.918345
48.402921
45.463165
42.414386
41.010274
1629.7685
551.48992
215.39718
144.75026
97.203179
92.008495
66.963376
57.655319
49.660633
45.685295
42.724314
41.310147
39.947281
39.117171
38.643452
38.240542
38.001244
37.818182
37.702034
37.618805
37.574782
37.544792
1664.3533
525.50467
212.38716
152.06929
96.354904
102.64673
68.550032
59.962361
49.558179
46.006024
43.429174
41.68548
40.314183
39.367286
38.737959
38.308459
38.013381
37.812778
37.680308
37.584224
37.528652
37.50236
37.480844
37.475623
37.479317
37.49432
37.518096
37.548952
37.588245
37.635891
37.691677
37.758866
37.838757
37.933151
1700.9488
507.57961
214.86588
155.78235
98.583845
105.90275
69.461658
59.473861
49.096483
47.998895
43.761781
42.19544
40.691054
39.360308
38.84971
38.322895
38.045789
37.817645
37.667758
37.560631
37.493006
37.449119
37.427381
37.416846
37.419391
37.429613
37.450849
37.474141
37.509301
37.550511
37.60018
37.660918
37.733895
37.821306
37.924252
38.047152
38.19395
38.369299
38.579957
38.834222
39.143372
39.521348
39.98813
40.572769
41.319062
42.298376
43.643482
45.635371
48.946199
1739.6583
531.88807
219.83726
158.25102
104.9962
104.44873
69.783059
59.248407
49.136509
48.037068
43.747227
42.45915
40.564353
39.388689
38.816843
38.320466
38.01615
37.783879
37.624297
37.518962
37.458838
37.409959
37.375685
37.355808
37.354769
37.362421
37.379436
37.399524
37.428953
37.466358
37.511276
37.565654
37.632248
37.712644
37.807823
37.922761
38.060202
38.225451
38.424746
38.666413
38.961246
39.322819
39.770675
40.333284
41.053175
41.99989
43.303249
45.236965
48.473975
1775.7577
531.21491
220.34443
158.01869
109.74935
101.3269
70.75807
59.781719
49.515483
48.223149
43.755644
42.694931
40.714286
39.815878
38.846356
38.365825
38.036006
37.774892
37.59693
37.474669
37.412824
37.37555
37.323688
37.302126
37.293939
37.297455
37.308991
37.325515
37.34998
37.383347
37.423651
37.472491
37.533359
37.606847
37.695128
37.802143
37.931078
38.086748
38.275351
38.505212
38.786552
39.132725
39.562913
40.104976
40.80021
41.716487
42.980918
44.860481
48.030468
1815.5168
554.05916
218.37384
157.78798
110.74973
99.926979
73.013693
60.479704
49.963836
48.831687
43.924732
42.926908
41.11693
39.816658
39.077791
38.421654
38.069001
37.80007
37.595805
37.468963
37.375759
37.318792
37.267924
37.248384
37.23753
37.234431
37.241745
37.2538
37.273457
37.302346
37.337846
37.381448
37.436527
37.503825
37.585565
37.685082
37.806118
37.952795
38.13147
38.350152
38.61881
38.950548
39.364269
39.887081
40.559246
41.4471
42.675235
44.504374
47.613805
1853.5695
550.00171
218.82661
159.55924
111.19932
99.86119
75.077046
61.760889
50.803872
49.225925
44.426553
43.10887
41.083451
39.806316
39.087963
38.398648
38.03688
37.77934
37.563809
37.447153
37.338572
37.264473
37.215545
37.189739
37.178249
37.169226
37.174648
37.182957
37.198556
37.223109
37.253781
37.29244
37.342023
37.403512
37.479098
37.571619
37.685158
37.823389
37.992755
38.200871
38.457619
38.775872
39.174272
39.679001
40.329562
41.190969
42.3852
44.167261
47.220722
1889.855
566.24525
225.68887
163.19284
112.21073
99.504864
75.511178
64.378913
51.982008
50.129739
44.781968
43.311341
41.10756
39.912875
39.076332
38.435241
38.062721
37.766219
37.53317
37.403215
37.288719
37.221542
37.166645
37.13528
37.117812
37.105532
37.108441
37.111708
37.124581
37.144659
37.171076
37.205171
37.249825
37.305743
37.37554
37.461599
37.567957
37.698265
37.858842
38.057051
38.302638
38.60832
38.992394
39.480147
40.110507
40.947234
42.109762
43.847902
46.849253
1929
559.65756
228.0759
166.645
114.90634
98.150854
75.811801
65.924068
53.324549
51.091182
45.07261
43.673569
41.178479
40.026314
39.181695
38.542372
38.113464
37.750349
37.52202
37.362407
37.250905
37.17958
37.115119
37.084158
37.057892
37.044038
37.041838
37.041926
37.051881
37.067583
37.089858
37.119762
37.159743
37.210401
37.274659
37.354731
37.454254
37.577122
37.729469
37.918384
38.153512
38.44749
38.818122
39.289941
39.901416
40.715078
41.847959
43.545155
46.498173
1972.313
565.75247
230.95882
169.55904
118.51442
97.048799
76.121126
66.638604
54.690421
51.041034
45.252212
43.850118
41.172198
40.082631
39.246667
38.522338
38.0841
37.723045
37.505753
37.333339
37.224928
37.137897
37.064341
37.030562
36.997672
36.982318
36.974796
36.97364
36.97984
36.991981
37.010095
37.036142
37.07163
37.11732
37.176437
37.250686
37.343834
37.459779
37.604385
37.78459
38.009999
38.293014
38.650986
39.107865
39.701689
40.493749
41.59893
43.257951
46.166514
2006.8537
562.73157
235.779
172.4402
124.27161
97.62035
76.900444
67.373316
54.804379
50.867231
45.44166
43.901575
41.218327
40.099163
39.195637
38.486344
38.053246
37.741017
37.493081
37.317483
37.185024
37.089526
37.014035
36.973821
36.939069
36.920825
36.909289
36.906285
36.907972
36.917221
36.931615
36.953997
36.985094
37.026255
37.080569
37.149301
37.23646
37.345914
37.483265
37.655326
37.871743
38.144466
38.490503
38.933365
39.510719
40.282547
41.361831
42.985275
45.853166
2050.483
621.69855
245.88092
177.02218
128.94612
99.833688
77.880368
67.537815
54.851604
50.913801
45.935225
43.998329
41.342317
40.1514
39.188919
38.483212
38.069708
37.738682
37.470017
37.289305
37.137975
37.03538
36.960452
36.915176
36.881355
36.859434
36.845103
36.838737
36.836682
36.843249
36.854246
36.87292
36.89995
36.936963
36.986682
37.050267
37.131882
37.235209
37.365787
37.530233
37.73833
38.001353
38.336169
38.765938
39.327892
40.080784
41.135874
2081.0056
615.68297
250.95739
179.0923
128.79132
102.05329
78.337459
67.666818
55.220794
50.90967
46.102435
44.128638
41.533517
40.216978
39.208234
38.525583
38.065957
37.704447
37.434269
37.252765
37.088001
36.978331
36.908076
36.85652
36.822259
36.797894
36.781187
36.770962
36.766233
36.769925
36.77777
36.792809
36.81639
36.849457
36.894709
36.953505
37.029944
37.127528
37.251793
37.409181
37.609458
37.863398
38.187661
38.605199
39.15274
39.887932
2114.8808
633.77704
254.20676
178.72558
128.03405
102.37202
78.731896
67.708374
55.561487
50.928366
46.176173
44.359762
41.67747
40.228032
39.288602
38.551031
38.025068
37.666574
37.411129
37.209267
37.035931
36.93085
36.856984
36.796827
36.76303
36.736299
36.716729
36.703483
36.696648
36.697156
36.702165
36.71394
36.734459
36.7637
36.804615
36.859001
36.930578
37.022794
37.141173
37.29205
37.484921
37.73033
38.044701
38.45082
38.984873
2157.2265
687.4249
261.24784
178.12684
125.95877
101.95876
78.895508
67.612414
55.859014
51.126762
46.288211
44.402862
41.761308
40.292394
39.328697
38.532401
38.017515
37.671909
37.38792
37.160865
36.997396
36.890155
36.800846
36.740559
36.705064
36.673776
36.651524
36.636682
36.627645
36.624743
36.627471
36.636341
36.653733
36.679376
36.716245
36.766533
36.833592
36.92081
37.033708
37.178498
37.364387
37.601795
37.906946
38.302415
2185.4574
680.04448
264.67153
175.95159
123.17787
101.04185
79.246658
67.75455
56.359833
51.601778
46.38577
44.43549
41.914829
40.458713
39.309733
38.545982
38.056605
37.663717
37.354899
37.135676
36.966037
36.842577
36.746272
36.690303
36.644921
36.610498
36.586147
36.57026
36.558544
36.55267
36.553577
36.559508
36.573784
36.596141
36.629266
36.675743
36.738637
36.821232
36.928994
37.068114
37.247445
37.477376
37.773949
2216.9458
691.60864
272.35452
173.66878
120.77793
100.10746
79.642944
67.870244
56.868554
51.870983
46.639752
44.576817
42.220015
40.495085
39.367266
38.622352
38.067706
37.631854
37.339268
37.118042
36.922916
36.793689
36.70015
36.635902
36.582635
36.548201
36.521062
36.50382
36.489072
36.481349
36.480264
36.483256
36.494648
36.513941
36.543641
36.586562
36.645632
36.723892
36.826861
36.960729
37.133897
37.356858
2274.58
828.41984
283.58485
173.68004
120.91564
100.02306
80.280976
67.844254
57.368645
52.008852
47.063655
44.608624
42.246362
40.539316
39.52524
38.635963
38.064073
37.621284
37.327582
37.08346
36.87999
36.750244
36.651419
36.576359
36.52307
36.486459
36.456716
36.437279
36.419622
36.410783
36.407353
36.407741
36.416485
36.432847
36.459481
36.499081
36.554591
36.628787
36.727313
36.856276
37.023672
2251.8539
786.41482
278.56993
171.96977
121.29402
99.679633
80.713273
67.709204
57.840016
52.056882
47.221846
44.525937
42.274323
40.627722
39.526876
38.636052
38.082108
37.616942
37.288587
37.04281
36.849429
36.704543
36.599336
36.518269
36.466612
36.424132
36.393069
36.370421
36.350658
36.340217
36.334571
36.33276
36.338996
36.35264
36.376538
36.413036
36.465189
36.535638
36.630052
36.754433
2289.2539
888.71856
287.09368
172.47351
122.43133
99.262511
80.965881
67.648093
58.395064
52.139575
47.248162
44.47644
42.33344
40.637086
39.500714
38.681523
38.092696
37.596579
37.245363
37.013216
36.812379
36.659183
36.548072
36.467434
36.406274
36.361861
36.32922
36.303309
36.282236
36.269346
36.261783
36.257965
36.261852
36.273084
36.294466
36.328094
36.377095
36.444134
36.534741
2305.0897
837.32978
285.96966
171.62115
122.40321
98.452232
80.934949
67.654317
59.075861
52.335473
47.382203
44.518793
42.437404
40.664031
39.531483
38.75116
38.075276
37.591887
37.230728
36.97652
36.763148
36.618468
36.497802
36.414332
36.344377
36.299907
36.264563
36.236423
36.214077
36.198502
36.189149
36.183312
36.185135
36.19421
36.213221
36.244214
36.290289
36.354239
2345.9053
897.51237
298.88303
172.35731
122.94228
97.517275
81.048726
67.89714
59.910707
52.734915
47.702389
44.639794
42.531073
40.787018
39.672616
38.758313
38.072179
37.598534
37.221236
36.926345
36.708714
36.571113
36.444596
36.357062
36.283922
36.236524
36.199097
36.169471
36.145826
36.12799
36.116681
36.10891
36.108975
36.116003
36.132815
36.161388
36.204781
2359.9412
878.7882
306.89171
173.18457
122.67053
96.646627
80.886524
68.123004
60.483016
53.139256
48.154282
44.836098
42.700346
41.049199
39.829155
38.759413
38.097188
37.60548
37.212887
36.888715
36.65673
36.510725
36.38895
36.297965
36.223503
36.171405
36.132653
36.101771
36.076787
36.057348
36.044023
36.034583
36.033033
36.038124
36.052948
36.079294
2401.8491
954.70243
329.07574
177.21976
123.52606
96.944123
81.023759
68.646003
60.858007
53.46037
48.433543
44.918716
42.84456
41.19573
39.89218
38.792944
38.145072
37.602653
37.205591
36.864762
36.61265
36.448501
36.331996
36.236685
36.161516
36.10547
36.065144
36.032862
36.006653
35.985933
35.970897
35.960061
35.956901
35.960264
35.973313
35.997631
2414.3752
940.65914
330.20636
180.11718
125.08052
97.894381
81.627321
69.29896
61.187212
53.590679
48.560362
44.977123
42.971459
41.216601
39.92392
38.855358
38.180292
37.609173
37.190844
36.839176
36.575359
36.394409
36.273711
36.17406
36.097269
36.039334
35.996903
35.96303
35.935351
35.913605
35.897315
35.885255
35.880516
35.882407
35.893855
2430.8358
996.69047
345.41524
187.0156
130.57964
100.91928
83.655108
70.542981
61.684218
53.755387
48.632286
45.005806
42.982775
41.218631
39.940101
38.897627
38.172607
37.60552
37.160746
36.808299
36.54399
36.346772
36.212288
36.110269
36.03138
35.972784
35.928099
35.892375
35.863248
35.840378
35.823196
35.809996
35.803799
35.804489
2435.3032
972.80069
342.49895
191.77297
136.31566
104.32076
86.087931
71.888563
62.296682
54.005661
48.814725
45.140322
43.035643
41.272349
39.984202
38.918254
38.168025
37.592248
37.115636
36.766554
36.504562
36.296152
36.150848
36.045739
35.963961
35.904925
35.85864
35.820909
35.790228
35.766157
35.748328
35.734014
35.726523
2443.6631
1038.4717
369.82538
204.59649
146.68911
109.4284
88.97961
73.883313
63.385448
54.629387
49.153309
45.361478
43.113999
41.320345
39.996388
38.936984
38.170893
37.565363
37.078977
36.722154
36.447745
36.23356
36.085475
35.979918
35.89553
35.835036
35.787477
35.74817
35.716095
35.690687
35.672389
2452.6075
1026.2986
377.96914
212.67639
150.67151
112.54454
91.094381
75.937718
65.011866
55.732184
49.786975
45.716423
43.279799
41.469155
40.074848
38.97033
38.178715
37.554988
37.059444
36.673784
36.37884
36.164043
36.017089
35.910925
35.825367
35.762633
35.714049
35.673325
35.640213
35.613704
2442.2136
1127.5179
426.28053
226.39749
156.30561
116.46424
93.633193
78.292137
67.011132
57.204402
50.563353
46.117839
43.499154
41.611263
40.169698
39.046696
38.205619
37.551795
37.017933
36.613256
36.304157
36.094563
35.946846
35.838879
35.752693
35.687137
35.637291
35.595705
35.561832
2452.9222
1363.4477
522.98533
262.09373
169.09437
124.87613
99.276762
82.659307
70.447621
59.826375
52.161403
47.101692
44.086958
41.978009
40.434211
39.200383
38.302043
37.597641
37.021245
36.572612
36.252151
36.035041
35.879261
35.767191
35.679356
35.610382
35.557965
1186.9386
1309.0869
1465.0066
955.89666
1034.9813
1101.7896
1138.2585
1212.3259
1288.9584
461.15572
484.87033
495.93807
488.03148
499.96819
514.89965
229.30398
236.36416
239.72884
237.69207
244.31631
252.81723
152.10702
154.93743
156.51628
156.2547
160.16808
164.63541
118.9198
120.8747
121.6955
121.15952
121.57889
123.33591
97.372016
99.034734
99.609688
98.886101
98.772769
99.080798
79.958465
81.436365
82.040974
81.897302
82.157853
82.555187
67.425869
68.260632
68.712365
69.488228
70.17415
57.326672
57.946403
58.409166
59.027935
59.570109
50.808859
51.171028
51.443593
51.739057
52.005883
46.529472
46.748245
46.887045
46.983033
47.059096
43.658172
43.815128
43.954511
44.067264
44.087092
41.645502
41.746103
41.855322
41.960939
41.998841
40.162342
40.201508
40.257889
40.320489
40.393494
38.997656
39.035804
39.089267
39.155571
38.02116
38.087629
38.173371
38.258678
37.267945
37.360951
37.462921
37.540084
36.780173
36.868384
36.949431
36.352801
36.423869
36.492287
36.043388
36.11327
36.178519
35.887494
35.958787
35.727205
35.801211
35.611295
35.688298
35.600858
35.531654
)
;

boundaryField
{
    Side
    {
        type            empty;
    }
    Inlet
    {
        type            fixedValue;
        value           uniform 60.24606;
    }
    Airfoil
    {
        type            omegaWallFunction;
        blending        binomial;
        n               2;
        value           nonuniform List<scalar> 
33
(
1562.8434
1596.434
1629.7685
1664.3533
1700.9488
1739.6583
1775.7577
1815.5168
1853.5695
1889.855
1929
1972.313
2006.8537
2050.483
2081.0056
2114.8808
2157.2265
2185.4574
2216.9458
2274.58
2251.8539
2289.2539
2305.0897
2345.9053
2359.9412
2401.8491
2414.3752
2430.8358
2435.3032
2443.6631
2452.6075
2442.2136
2452.9222
)
;
    }
    Outlet
    {
        type            inletOutlet;
        inletValue      nonuniform List<scalar> 0();
        value           nonuniform List<scalar> 0();
    }
    procBoundary1to0
    {
        type            processor;
        value           nonuniform List<scalar> 
53
(
1528.7636
527.99732
255.49852
175.81142
101.83795
101.83795
84.197441
61.942566
54.976388
47.653341
44.193127
42.184796
40.663247
39.895134
39.895134
39.119368
38.657342
38.248692
38.01584
37.85711
37.738448
37.662351
37.613809
37.593904
37.530397
37.530397
37.53127
37.540961
37.561804
37.59129
37.626769
37.670784
37.723623
37.786222
37.859866
37.946681
38.04842
38.044295
38.044295
38.175987
38.332509
38.518606
38.74134
39.009074
39.333447
39.728901
40.215898
40.824177
41.598695
42.612874
44.002874
46.057558
49.449488
)
;
    }
    procBoundary1to2
    {
        type            processor;
        value           nonuniform List<scalar> 
75
(
42.726151
45.556941
42.726151
40.920441
40.920441
39.703514
39.703514
38.823855
38.823855
38.159502
38.159502
37.64547
37.64547
37.240143
37.240143
36.916468
36.916468
36.654855
36.654855
36.441319
36.441319
36.265929
36.265929
36.120277
36.120277
36.036474
35.916392
35.916392
35.81448
35.81448
35.726234
35.656987
35.726234
35.648425
35.656987
35.594996
35.594996
35.53461
35.514942
35.53461
35.480445
35.514942
35.477903
1090.1442
896.80686
451.94157
226.97107
149.40546
115.92256
94.540829
77.778943
66.218638
66.218638
56.606212
50.398411
46.346339
43.585579
41.572179
40.101553
38.953392
38.953392
37.954585
37.180453
36.693375
36.693375
36.271437
35.962618
35.81383
35.81383
35.651705
35.532171
35.524072
35.524072
35.455747
35.477903
)
;
    }
    procBoundary1to8
    {
        type            processor;
        value           nonuniform List<scalar> 8(2159.6028 1199.7934 1326.0178 1650.2487 1470.0269 1650.2487 1881.4524 2159.6028);
    }
}


// ************************************************************************* //
