/*--------------------------------*- C++ -*----------------------------------*\
| =========                 |                                                 |
| \\      /  F ield         | OpenFOAM: The Open Source CFD Toolbox           |
|  \\    /   O peration     | Version:  2506                                  |
|   \\  /    A nd           | Website:  www.openfoam.com                      |
|    \\/     M anipulation  |                                                 |
\*---------------------------------------------------------------------------*/
FoamFile
{
    version     2.0;
    format      ascii;
    arch        "LSB;label=32;scalar=64";
    class       volScalarField;
    location    "0.006";
    object      Ma;
}
// * * * * * * * * * * * * * * * * * * * * * * * * * * * * * * * * * * * * * //

dimensions      [0 0 0 0 0 0 0];

internalField   nonuniform List<scalar> 
13761
(
0.29959231
0.29959231
0.29959231
0.29959231
0.29959216
0.29959225
0.29959018
0.29958895
0.29957866
0.29952945
0.29960061
0.29959231
0.29959231
0.29959231
0.29959231
0.29959215
0.29959223
0.29959009
0.2995888
0.29957782
0.29952963
0.29959885
0.29959231
0.29959231
0.29959231
0.29959231
0.29959215
0.29959222
0.29959013
0.29958871
0.2995782
0.29952975
0.29959903
0.29959231
0.29959231
0.29959231
0.29959231
0.29959231
0.29959216
0.29959221
0.29959016
0.29958861
0.29957848
0.29952988
0.2995991
0.29959231
0.29959231
0.29959231
0.29959231
0.29959231
0.29959216
0.2995922
0.29959018
0.29958852
0.29957874
0.29953001
0.29959917
0.29959231
0.29959231
0.29959231
0.29959231
0.29959231
0.29959216
0.29959219
0.2995902
0.29958843
0.29957898
0.29953014
0.29959923
0.29959231
0.29959231
0.29959231
0.29959231
0.29959231
0.29959231
0.29959216
0.29959217
0.29959022
0.29958835
0.29957921
0.29953028
0.29959929
0.29959231
0.29959231
0.29959231
0.29959231
0.29959231
0.29959231
0.29959216
0.29959216
0.29959025
0.29958827
0.29957942
0.29953041
0.29959935
0.29959231
0.29959231
0.29959231
0.29959231
0.29959231
0.29959231
0.29959216
0.29959215
0.29959026
0.29958819
0.29957962
0.29953055
0.2995994
0.2995923
0.29959231
0.29959231
0.29959231
0.29959231
0.29959231
0.2995923
0.29959216
0.29959214
0.29959028
0.29958811
0.29957981
0.29953069
0.29959946
0.2995923
0.29959231
0.29959231
0.29959231
0.29959231
0.29959231
0.2995923
0.29959216
0.29959213
0.2995903
0.29958803
0.29958
0.29953083
0.29959952
0.2995923
0.29959231
0.29959231
0.29959231
0.29959231
0.29959231
0.2995923
0.29959217
0.29959212
0.29959032
0.29958796
0.29958017
0.29953097
0.29959957
0.2995923
0.29959231
0.29959231
0.29959231
0.29959231
0.29959231
0.2995923
0.29959217
0.29959211
0.29959033
0.29958789
0.29958033
0.29953112
0.29959962
0.29959216
0.2995923
0.29959231
0.29959231
0.29959231
0.29959231
0.29959231
0.2995923
0.29959217
0.2995921
0.29959035
0.29958782
0.29958049
0.29953127
0.29959968
0.29959216
0.2995923
0.29959231
0.29959231
0.29959231
0.29959231
0.29959231
0.2995923
0.29959217
0.2995921
0.29959036
0.29958775
0.29958063
0.29953141
0.29959973
0.29959216
0.2995923
0.29959231
0.29959231
0.29959231
0.29959231
0.29959231
0.2995923
0.29959217
0.29959209
0.29959037
0.29958769
0.29958077
0.29953156
0.29959978
0.29959116
0.29959216
0.2995923
0.29959231
0.29959231
0.29959231
0.29959231
0.29959231
0.2995923
0.29959217
0.29959208
0.29959039
0.29958762
0.2995809
0.29953172
0.29959984
0.29959116
0.29959216
0.2995923
0.29959231
0.29959231
0.29959231
0.29959231
0.29959231
0.2995923
0.29959217
0.29959207
0.2995904
0.29958756
0.29958103
0.29953187
0.29959989
0.29959117
0.29959217
0.2995923
0.29959231
0.29959231
0.29959231
0.29959231
0.29959231
0.2995923
0.29959217
0.29959206
0.29959041
0.2995875
0.29958114
0.29953202
0.29959994
0.299585
0.29959117
0.29959217
0.2995923
0.29959231
0.29959231
0.29959231
0.29959231
0.29959231
0.2995923
0.29959217
0.29959206
0.29959042
0.29958745
0.29958125
0.29953218
0.29959999
0.29958504
0.29959118
0.29959217
0.2995923
0.29959231
0.29959231
0.29959231
0.29959231
0.29959231
0.2995923
0.29959217
0.29959205
0.29959043
0.29958739
0.29958136
0.29953233
0.29960005
0.29958507
0.29959118
0.29959217
0.2995923
0.29959231
0.29959231
0.29959231
0.29959231
0.29959231
0.2995923
0.29959217
0.29959204
0.29959044
0.29958734
0.29958146
0.29953249
0.29955499
0.29958511
0.29959119
0.29959217
0.2995923
0.29959231
0.29959231
0.29959231
0.29959231
0.29959231
0.2995923
0.29959217
0.29959203
0.29959045
0.29958728
0.29958155
0.29953264
0.2995552
0.29958515
0.29959119
0.29959217
0.2995923
0.29959231
0.29959231
0.29959231
0.29959231
0.29959231
0.2995923
0.29959217
0.29959203
0.29959046
0.29958723
0.29958163
0.2995328
0.29944446
0.29955543
0.29958519
0.2995912
0.29959217
0.2995923
0.29959231
0.29959231
0.29959231
0.29959231
0.29959231
0.2995923
0.29959218
0.29959202
0.29959046
0.29958719
0.29958171
0.29953296
0.29944556
0.29955568
0.29958524
0.29959121
0.29959217
0.2995923
0.29959231
0.29959231
0.29959231
0.29959231
0.29959231
0.2995923
0.29959218
0.29959201
0.29959047
0.29958714
0.29958179
0.29953312
0.29944673
0.29955593
0.29958528
0.29959121
0.29959217
0.2995923
0.29959231
0.29959231
0.29959231
0.29959231
0.29959231
0.2995923
0.29959218
0.29959201
0.29959048
0.29958709
0.29958186
0.29916037
0.29944795
0.2995562
0.29958533
0.29959122
0.29959217
0.2995923
0.29959231
0.29959231
0.29959231
0.29959231
0.29959231
0.2995923
0.29959218
0.299592
0.29959048
0.29958705
0.29958192
0.29916461
0.29944923
0.29955648
0.29958538
0.29959123
0.29959217
0.2995923
0.29959231
0.29959231
0.29959231
0.29959231
0.29959231
0.2995923
0.29959218
0.299592
0.29959049
0.29958701
0.29958198
0.29916904
0.29945055
0.29955678
0.29958544
0.29959124
0.29959217
0.2995923
0.29959231
0.29959231
0.29959231
0.29959231
0.29959231
0.2995923
0.29959218
0.29959199
0.29959049
0.29958696
0.29958203
0.29866378
0.29917364
0.29945193
0.29955708
0.29958549
0.29959124
0.29959218
0.2995923
0.29959231
0.29959231
0.29959231
0.29959231
0.29959231
0.2995923
0.29959218
0.29959199
0.2995905
0.29958693
0.29958208
0.29867646
0.29917839
0.29945335
0.2995574
0.29958555
0.29959125
0.29959218
0.2995923
0.29959231
0.29959231
0.29959231
0.29959231
0.29959231
0.2995923
0.29959218
0.29959198
0.2995905
0.29958689
0.29815027
0.29868946
0.29918329
0.29945482
0.29955773
0.29958561
0.29959126
0.29959218
0.2995923
0.29959231
0.29959231
0.29959231
0.29959231
0.29959231
0.2995923
0.29959218
0.29959198
0.2995905
0.29958685
0.29818151
0.29870271
0.29918834
0.29945633
0.29955806
0.29958567
0.29959127
0.29959218
0.2995923
0.29959231
0.29959231
0.29959231
0.29959231
0.29959231
0.2995923
0.29959218
0.29959197
0.29959051
0.29958682
0.29829008
0.29821311
0.29871621
0.29919352
0.29945788
0.29955841
0.29958573
0.29959128
0.29959218
0.2995923
0.29959231
0.29959231
0.29959231
0.29959231
0.29959231
0.2995923
0.29959218
0.29959197
0.29959051
0.29958678
0.29835323
0.29824503
0.29872998
0.29919883
0.29945947
0.29955877
0.29958579
0.29959129
0.29959218
0.2995923
0.29959231
0.29959231
0.29959231
0.29959231
0.29959231
0.2995923
0.29959218
0.29959196
0.29959051
0.29958675
0.29841664
0.29827727
0.29874401
0.29920428
0.29946111
0.29955913
0.29958586
0.2995913
0.29959218
0.2995923
0.29959231
0.29959231
0.29959231
0.29959231
0.29959231
0.2995923
0.29959218
0.29959196
0.29959052
0.29958672
0.29978794
0.2984802
0.2983098
0.29875829
0.29920986
0.29946279
0.29955951
0.29958593
0.29959131
0.29959218
0.2995923
0.29959231
0.29959231
0.29959231
0.29959231
0.29959231
0.29959229
0.29959218
0.29959196
0.29959052
0.29990087
0.29854391
0.29834262
0.29877282
0.29921555
0.2994645
0.29955989
0.299586
0.29959132
0.29959218
0.2995923
0.29959231
0.29959231
0.29959231
0.29959231
0.29959231
0.29959229
0.29959218
0.29959195
0.29959052
0.30146091
0.30001331
0.29860776
0.29837572
0.2987876
0.29922135
0.29946625
0.29956028
0.29958607
0.29959133
0.29959219
0.2995923
0.29959231
0.29959231
0.29959231
0.29959231
0.29959231
0.29959229
0.29959218
0.29959195
0.29959052
0.30164065
0.30012518
0.29867175
0.29840909
0.29880262
0.29922727
0.29946803
0.29956068
0.29958614
0.29959134
0.29959219
0.2995923
0.29959231
0.29959231
0.29959231
0.29959231
0.29959231
0.29959229
0.29959218
0.29959195
0.29959052
0.30085999
0.30181944
0.3002365
0.29873586
0.29844271
0.29881788
0.29923328
0.29946984
0.29956109
0.29958621
0.29959135
0.29959219
0.2995923
0.29959231
0.29959231
0.29959231
0.29959231
0.29959231
0.29959229
0.29959218
0.29959194
0.29959052
0.29665398
0.30110033
0.30199732
0.30034724
0.29880007
0.29847657
0.29883336
0.29923939
0.29947169
0.29956151
0.29958629
0.29959136
0.29959219
0.2995923
0.29959231
0.29959231
0.29959231
0.29959231
0.29959231
0.29959229
0.29959218
0.29959194
0.29959052
0.29680564
0.30134214
0.30217426
0.30045735
0.29886434
0.29851064
0.29884905
0.29924559
0.29947356
0.29956193
0.29958636
0.29959137
0.29959219
0.2995923
0.29959231
0.29959231
0.29959231
0.29959231
0.29959231
0.29959229
0.29959218
0.29959194
0.29144671
0.29696352
0.30158516
0.30235022
0.30056688
0.29892871
0.29854495
0.29886496
0.29925188
0.29947546
0.29956236
0.29958644
0.29959138
0.29959219
0.2995923
0.29959231
0.29959231
0.29959231
0.29959231
0.29959231
0.29959229
0.29959218
0.29959193
0.29155348
0.29712848
0.30182901
0.30252513
0.30067581
0.29899315
0.29857949
0.2988811
0.29925826
0.29947739
0.2995628
0.29958652
0.2995914
0.29959219
0.2995923
0.29959231
0.29959231
0.29959231
0.29959231
0.29959231
0.29959229
0.29959218
0.29959193
0.28919312
0.29166198
0.29730095
0.3020734
0.30269896
0.30078413
0.29905764
0.29861423
0.29889743
0.29926472
0.29947935
0.29956324
0.2995866
0.29959141
0.2995922
0.2995923
0.29959231
0.29959231
0.29959231
0.29959231
0.29959231
0.29959229
0.29959218
0.29959193
0.28923704
0.28929987
0.29177222
0.2974814
0.30231805
0.30287165
0.30089184
0.29912218
0.29864918
0.29891395
0.29927125
0.29948133
0.29956369
0.29958668
0.29959142
0.2995922
0.2995923
0.29959231
0.29959231
0.29959231
0.29959231
0.29959231
0.29959229
0.29959218
0.29959193
0.2893816
0.28940745
0.2918841
0.29767018
0.30256274
0.30304316
0.30099895
0.29918674
0.29868432
0.29893067
0.29927786
0.29948333
0.29956414
0.29958676
0.29959143
0.2995922
0.2995923
0.29959231
0.29959231
0.29959231
0.29959231
0.29959231
0.29959229
0.29959218
0.2882122
0.28952749
0.28951591
0.2919976
0.29786757
0.30280726
0.30321344
0.30110548
0.29925133
0.29871965
0.29894755
0.29928453
0.29948536
0.2995646
0.29958685
0.29959145
0.2995922
0.2995923
0.29959231
0.29959231
0.29959231
0.29959231
0.29959231
0.29959229
0.29959218
0.28396062
0.28838506
0.28967458
0.28962535
0.29211272
0.29807381
0.30305143
0.30338246
0.30121141
0.29931594
0.29875516
0.29896461
0.29929127
0.29948741
0.29956507
0.29958693
0.29959146
0.2995922
0.2995923
0.29959231
0.29959231
0.29959231
0.29959231
0.29959231
0.29959229
0.29959218
0.28207525
0.28415281
0.28855819
0.28982272
0.28973579
0.29222955
0.2982891
0.30329514
0.30355016
0.30131672
0.29938052
0.29879083
0.29898181
0.29929806
0.29948947
0.29956554
0.29958702
0.29959147
0.2995922
0.2995923
0.29959231
0.29959231
0.29959231
0.29959231
0.29959231
0.29959229
0.29959218
0.28044514
0.28226079
0.28434928
0.28873167
0.28997175
0.28984722
0.29234823
0.29851353
0.30353828
0.30371652
0.3014214
0.29944504
0.29882663
0.29899914
0.29930491
0.29949155
0.29956601
0.2995871
0.29959148
0.2995922
0.2995923
0.29959231
0.29959231
0.29959231
0.29959231
0.29959231
0.29959229
0.29959218
0.27770917
0.28065924
0.2824476
0.28454995
0.2889055
0.29012156
0.28995959
0.29246893
0.29874694
0.30378065
0.30388149
0.30152547
0.29950954
0.29886261
0.29901662
0.29931181
0.29949365
0.29956649
0.29958719
0.2995915
0.29959221
0.2995923
0.29959231
0.29959231
0.29959231
0.29959231
0.29959231
0.29959229
0.29959218
0.27544018
0.27795835
0.28087592
0.28263589
0.28475474
0.28907971
0.29027204
0.2900728
0.29259196
0.29898921
0.30402215
0.30404503
0.30162891
0.29957398
0.29889874
0.29903422
0.29931877
0.29949576
0.29956698
0.29958728
0.29959151
0.29959221
0.2995923
0.29959231
0.29959231
0.29959231
0.29959231
0.29959231
0.29959229
0.27354858
0.27570111
0.27821113
0.28109511
0.28282587
0.28496359
0.28925436
0.29042306
0.29018669
0.29271773
0.29924009
0.30426271
0.30420711
0.30173174
0.29963835
0.29893501
0.29905195
0.29932577
0.29949789
0.29956747
0.29958737
0.29959152
0.29959221
0.2995923
0.29959231
0.29959231
0.29959231
0.29959231
0.29959231
0.29959229
0.27165154
0.27382547
0.27596461
0.27846742
0.28131667
0.28301781
0.28517644
0.28942952
0.2905745
0.29030109
0.29284675
0.29949916
0.30450225
0.30436771
0.30183394
0.29970264
0.29897141
0.29906977
0.29933281
0.29950004
0.29956796
0.29958746
0.29959154
0.29959221
0.2995923
0.29959231
0.29959231
0.29959231
0.29959231
0.29959231
0.29959229
0.26995158
0.27194746
0.27410534
0.27623074
0.2787271
0.28154047
0.28321198
0.28539324
0.2896053
0.29072626
0.29041579
0.29297964
0.29976591
0.30474069
0.30452682
0.30193552
0.29976684
0.29900794
0.2990877
0.29933989
0.29950219
0.29956845
0.29958755
0.29959155
0.29959221
0.2995923
0.29959231
0.29959231
0.29959231
0.29959231
0.29959231
0.29959229
0.26668453
0.26844676
0.27026474
0.27224623
0.27438821
0.27649955
0.27899002
0.28176634
0.28340868
0.28561393
0.2897818
0.29087819
0.29053056
0.29311714
0.30003971
0.304978
0.30468441
0.30203647
0.29983093
0.29904459
0.29910571
0.29934701
0.29950436
0.29956895
0.29958764
0.29959156
0.29959221
0.2995923
0.29959231
0.29959231
0.29959231
0.29959231
0.29959231
0.29959229
0.26540582
0.26704196
0.26878094
0.2705804
0.27254785
0.27467404
0.27677107
0.27925602
0.28199411
0.28360816
0.28583847
0.28995916
0.2910302
0.29064517
0.2932601
0.30031985
0.30521414
0.30484047
0.30213681
0.29989492
0.29908135
0.2991238
0.29935416
0.29950654
0.29956945
0.29958773
0.29959158
0.29959222
0.2995923
0.29959231
0.29959231
0.29959231
0.29959231
0.29959231
0.26281874
0.26426036
0.26578634
0.26740159
0.26911742
0.27089858
0.27285229
0.27496283
0.27704536
0.27952498
0.28222362
0.28381067
0.28606687
0.29013748
0.29118218
0.29075937
0.29340948
0.30060561
0.30544909
0.30499499
0.30223652
0.29995877
0.2991182
0.29914196
0.29936134
0.29950872
0.29956995
0.29958782
0.29959159
0.29959222
0.2995923
0.29959231
0.29959231
0.29959231
0.29959231
0.29959231
0.25955754
0.26069122
0.2619143
0.26323898
0.26466163
0.26616891
0.26776342
0.26945623
0.27121926
0.27315953
0.27525455
0.2773225
0.27979675
0.28245473
0.28401637
0.28629916
0.29031688
0.29133406
0.29087291
0.29356633
0.30089629
0.30568291
0.30514797
0.30233555
0.30002244
0.29915511
0.29916016
0.29936853
0.29951091
0.29957046
0.29958792
0.2995916
0.29959222
0.2995923
0.29959231
0.29959231
0.29959231
0.29959231
0.29959231
0.25805248
0.25899912
0.26002945
0.26114824
0.26235503
0.26366144
0.26506502
0.26655355
0.26812744
0.26979737
0.27154246
0.27346957
0.2755492
0.27760254
0.28007122
0.28268731
0.28422528
0.28653545
0.29049739
0.29148578
0.29098558
0.29373163
0.30119106
0.3059155
0.30529939
0.30243392
0.30008597
0.29919211
0.29917841
0.29937575
0.29951311
0.29957097
0.29958801
0.29959162
0.29959222
0.2995923
0.29959231
0.29959231
0.29959231
0.29959231
0.29959231
0.25556834
0.25621011
0.25692075
0.25770376
0.25855725
0.25948867
0.26050343
0.26160737
0.26279797
0.26408611
0.26547054
0.26694021
0.26849362
0.27014088
0.27186818
0.27378239
0.27584674
0.27788553
0.28034826
0.28292126
0.28443732
0.28677587
0.29067906
0.29163736
0.29109716
0.29390642
0.30148924
0.30614684
0.30544927
0.30253162
0.30014934
0.29922919
0.29919672
0.29938298
0.29951532
0.29957148
0.2995881
0.29959163
0.29959222
0.2995923
0.29959231
0.29959231
0.29959231
0.29959231
0.29959231
0.25452899
0.25457267
0.25477361
0.25511675
0.25557855
0.25613074
0.25675947
0.25745628
0.25822491
0.25906378
0.25998017
0.26097948
0.26206857
0.26324308
0.26451295
0.26587813
0.26732887
0.26886194
0.27048677
0.27219643
0.27409797
0.27614715
0.2781715
0.28062776
0.2831565
0.28465228
0.28702057
0.29086191
0.29178882
0.29120746
0.29409166
0.30179021
0.30637688
0.3055976
0.30262864
0.30021252
0.29926631
0.29921506
0.29939024
0.29951753
0.29957199
0.2995882
0.29959165
0.29959222
0.2995923
0.29959231
0.29959231
0.29959231
0.29959231
0.29959231
0.25320624
0.25372958
0.25433413
0.25492794
0.25533267
0.25546203
0.25538503
0.25523452
0.25514208
0.255178
0.25537016
0.25570336
0.25615409
0.25669415
0.25731
0.25799317
0.2587476
0.25957205
0.26047363
0.26145758
0.2625318
0.26369031
0.2649419
0.26628778
0.2677195
0.26923238
0.27083507
0.27252725
0.2744163
0.27645042
0.27846047
0.28090961
0.28339297
0.28486995
0.28726962
0.29104595
0.2919402
0.29131635
0.29428825
0.30209344
0.30660556
0.30574441
0.30272496
0.30027552
0.29930347
0.29923343
0.2993975
0.29951974
0.2995725
0.29958829
0.29959166
0.29959223
0.2995923
0.29959231
0.29959231
0.29959231
0.29959231
0.25314249
0.25564807
0.25667892
0.25717777
0.25745064
0.25755314
0.25746742
0.25717221
0.25669003
0.25612938
0.25563907
0.25529453
0.2551067
0.25514805
0.25547785
0.25595873
0.25631217
0.2563044
0.25591241
0.25529479
0.25457478
0.25379962
0.25307643
0.25254861
0.25231598
0.2524223
0.25277936
0.25310698
0.25313713
0.25300611
0.25307084
0.25341562
0.25387749
0.2543943
0.25499172
0.25557768
0.25597427
0.25609571
0.25601153
0.25585425
0.25575495
0.25578334
0.25596696
0.25629045
0.25673034
0.25725849
0.25786166
0.25853139
0.2592718
0.26008205
0.26096903
0.26193771
0.26299701
0.26413956
0.26537292
0.26669942
0.26811207
0.26960494
0.27118583
0.2728607
0.2747374
0.27675651
0.27875245
0.28119371
0.28363065
0.28509023
0.28752283
0.29123124
0.29209156
0.29142372
0.29449694
0.30239848
0.30683279
0.30588971
0.30282059
0.30033833
0.29934066
0.29925181
0.29940477
0.29952196
0.29957302
0.29958839
0.29959168
0.29959223
0.2995923
0.29959231
0.29959231
0.29959231
0.29959231
0.24772156
0.25384599
0.25633967
0.25736318
0.2578578
0.25812805
0.25822891
0.25814241
0.25784733
0.25736615
0.25680726
0.25631921
0.25597681
0.2557903
0.25583197
0.25616115
0.25664046
0.25699168
0.25698193
0.2565893
0.25597304
0.25525589
0.25448409
0.25376417
0.25323894
0.25300761
0.25311346
0.25346852
0.25379322
0.25382014
0.25368631
0.25374869
0.25409007
0.25454686
0.25505724
0.25564764
0.2562259
0.25661457
0.25672838
0.25663726
0.25647346
0.25636754
0.25638864
0.25656397
0.25687799
0.25730724
0.25782366
0.25841436
0.25907087
0.2597975
0.26059375
0.26146633
0.26241984
0.26346414
0.26459078
0.26580592
0.26711301
0.26850654
0.26997961
0.27153912
0.27319684
0.2750613
0.2770654
0.27904746
0.28147994
0.28386953
0.28531319
0.28777977
0.29141787
0.29224294
0.29152954
0.29471835
0.30270496
0.30705847
0.30603352
0.3029155
0.30040094
0.29937786
0.29927021
0.29941205
0.29952418
0.29957354
0.29958848
0.29959169
0.29959223
0.2995923
0.29959231
0.29959231
0.29959231
0.29959231
0.21210663
0.23513705
0.24843105
0.25454265
0.25702524
0.25804179
0.25853236
0.25880015
0.25889953
0.25881245
0.25851771
0.25803774
0.25748079
0.25699512
0.256655
0.25646992
0.25651197
0.25684059
0.25731846
0.25766771
0.25765631
0.25726335
0.2566487
0.25593456
0.25516626
0.25444966
0.25392701
0.25369689
0.25380218
0.25415522
0.25447712
0.25450101
0.25436452
0.25442455
0.25476251
0.25521432
0.25571836
0.25630183
0.25687253
0.2572535
0.25735994
0.25726216
0.25709209
0.25697981
0.25699387
0.25716115
0.25746589
0.25788471
0.25838959
0.25896803
0.25961157
0.26032466
0.26110714
0.2619655
0.26290395
0.26393313
0.26504388
0.26624083
0.26752849
0.2689029
0.2703564
0.27189501
0.27353576
0.27538801
0.2773771
0.2793455
0.28176822
0.28410967
0.28553893
0.28803989
0.29160599
0.29239436
0.29163388
0.29495292
0.30301261
0.30728248
0.30617586
0.30300971
0.30046334
0.29941506
0.29928862
0.29941932
0.29952641
0.29957405
0.29958858
0.29959171
0.29959223
0.2995923
0.29959231
0.29959231
0.29959231
0.29959231
0.17025039
0.18592719
0.21278048
0.23583441
0.24912838
0.25523046
0.25770356
0.25871388
0.25920085
0.25946655
0.25956482
0.25947752
0.25918351
0.25870511
0.25815038
0.25766731
0.25732961
0.25714609
0.25718861
0.25751671
0.25799324
0.25834074
0.25832798
0.25793497
0.2573221
0.25661111
0.25584637
0.2551331
0.25461298
0.25438396
0.25448859
0.25483954
0.25515871
0.25517977
0.25504076
0.25509842
0.25543293
0.25587977
0.25637754
0.25695417
0.25751745
0.25789096
0.25799033
0.25788619
0.25771014
0.25759175
0.257599
0.25775843
0.25805409
0.25846265
0.25895619
0.2595226
0.26015344
0.26085327
0.26162219
0.26246652
0.26338998
0.26440394
0.26549878
0.26667757
0.26794579
0.26930111
0.27073534
0.27225357
0.27387758
0.2757176
0.27769156
0.27964654
0.28205843
0.28435112
0.28576745
0.28830262
0.2917958
0.2925458
0.29173686
0.29520091
0.30332122
0.30750471
0.30631675
0.30310319
0.30052553
0.29945225
0.29930702
0.2994266
0.29952863
0.29957457
0.29958868
0.29959172
0.29959223
0.2995923
0.29959231
0.29959231
0.29959231
0.29959231
0.15520762
0.15855988
0.16310857
0.17066116
0.18648296
0.21342928
0.2365112
0.24981276
0.25591013
0.25837609
0.25938128
0.25986523
0.26012924
0.26022675
0.26013958
0.2598466
0.25937003
0.25881769
0.25833726
0.25800198
0.25781998
0.25786285
0.2581903
0.25866545
0.25901129
0.25899739
0.25860452
0.25799355
0.25728575
0.25652459
0.25581461
0.2552969
0.25506885
0.25517266
0.25552144
0.25583796
0.25585637
0.25571495
0.25577022
0.25610123
0.25654314
0.25703474
0.2576046
0.25816063
0.25852693
0.25861954
0.25850935
0.2583276
0.25820335
0.25820401
0.25835577
0.25864251
0.259041
0.25952342
0.26007804
0.26069647
0.2613833
0.26213888
0.26296932
0.2638779
0.2648765
0.26595537
0.26711605
0.26836486
0.26970116
0.27111645
0.27261491
0.27422241
0.27605012
0.2780088
0.2799506
0.28235048
0.28459403
0.28599875
0.28856744
0.29198753
0.29269714
0.29183877
0.29546241
0.30363069
0.30772507
0.30645618
0.30319594
0.30058749
0.2994894
0.29932541
0.29943387
0.29953085
0.29957509
0.29958877
0.29959173
0.29959224
0.2995923
0.29959231
0.29959231
0.29959231
0.14603513
0.14811347
0.15032942
0.15275748
0.15552646
0.15889273
0.163467
0.17107741
0.18703731
0.21406605
0.23717817
0.25049231
0.25658815
0.25904835
0.26004882
0.26052976
0.26079197
0.26088859
0.26080142
0.26050936
0.26003448
0.25948435
0.25900634
0.25867323
0.25849252
0.25853551
0.25886207
0.25933567
0.25967984
0.25966484
0.25927218
0.2586631
0.25795847
0.25720086
0.2564941
0.2559787
0.2557515
0.25585436
0.25620092
0.25651483
0.25653075
0.25638701
0.25643988
0.25676737
0.2572044
0.25768991
0.25825313
0.25880208
0.25916143
0.25924758
0.25913165
0.25894448
0.25881459
0.25880885
0.2589531
0.25923108
0.2596197
0.26009121
0.26063431
0.26124063
0.26191474
0.26265717
0.26347388
0.26436765
0.26535076
0.26641358
0.2675562
0.26878564
0.27010306
0.27149978
0.27297913
0.27457039
0.27638565
0.27832879
0.28025767
0.2826443
0.28483859
0.28623279
0.2888339
0.2921814
0.29284821
0.29194
0.29573731
0.30394097
0.30794348
0.30659417
0.3032879
0.30064918
0.29952648
0.29934377
0.29944113
0.29953307
0.29957561
0.29958887
0.29959175
0.29959224
0.2995923
0.29959231
0.29959231
0.29959231
0.13864003
0.14052345
0.1424227
0.14435554
0.14634587
0.1484269
0.15064684
0.15308083
0.15585889
0.15923989
0.16384035
0.17150913
0.18760756
0.21471879
0.23785861
0.25118057
0.25727107
0.25972337
0.26071807
0.26119543
0.26145542
0.26155078
0.26146328
0.26117182
0.26069837
0.26015022
0.25967444
0.25934334
0.25916375
0.2592067
0.25953222
0.26000415
0.26034651
0.26033033
0.25993781
0.25933058
0.25862906
0.25787497
0.25717139
0.25665823
0.25643179
0.25653363
0.25687793
0.25718928
0.25720282
0.25705684
0.25710732
0.25743133
0.25786355
0.25834309
0.25889978
0.25944184
0.25979449
0.2598745
0.2597531
0.25956076
0.25942544
0.25941346
0.25955036
0.25981974
0.26019868
0.26065953
0.26119138
0.26178589
0.26244757
0.26317704
0.26398013
0.26485918
0.26582665
0.26687332
0.26799791
0.26920809
0.2705068
0.27188538
0.27334634
0.27492165
0.27672424
0.27865151
0.28056773
0.28293979
0.28508506
0.28646951
0.28910165
0.29237753
0.29299877
0.2920411
0.29602521
0.30425191
0.30815979
0.30673071
0.30337911
0.30071065
0.29956351
0.29936211
0.29944838
0.29953528
0.29957613
0.29958897
0.29959176
0.29959224
0.29959231
0.29959231
0.29959231
0.29959231
0.12119948
0.12331561
0.12538432
0.12741056
0.12939891
0.13135397
0.13328053
0.13518412
0.13707164
0.13895146
0.14083418
0.14273351
0.14466734
0.14665973
0.14874404
0.15096881
0.15340975
0.156198
0.15959486
0.16422247
0.17195021
0.1881865
0.21538121
0.23854801
0.25187402
0.25795585
0.26039849
0.26138673
0.26186025
0.26211791
0.26221193
0.26212401
0.26183307
0.26136097
0.26081472
0.26034109
0.26001188
0.2598333
0.25987607
0.26020042
0.26067054
0.26101104
0.26099367
0.26060129
0.2599959
0.25929748
0.25854688
0.25784643
0.25733543
0.25710966
0.2572104
0.2575524
0.25786124
0.25787254
0.25772443
0.25777254
0.25809307
0.25852057
0.25899426
0.25954457
0.26007994
0.26042616
0.26050032
0.26037374
0.26017645
0.26003588
0.26001781
0.2601475
0.26040843
0.26077789
0.26122835
0.26174922
0.26233222
0.26298175
0.26369842
0.26448799
0.26535239
0.26630409
0.26733447
0.2684411
0.26963216
0.27091239
0.2722733
0.27371661
0.2752763
0.27706594
0.27897693
0.28088077
0.2832369
0.28533373
0.28670886
0.2893705
0.29257599
0.29314852
0.29214277
0.29632558
0.30456354
0.30837393
0.30686582
0.30346955
0.30077187
0.29960047
0.29938042
0.29945562
0.2995375
0.29957665
0.29958906
0.29959178
0.29959224
0.29959231
0.29959231
0.29959231
0.29959231
0.0026067861
0.0080476381
0.013960183
0.02038135
0.027326863
0.03475948
0.04250862
0.050244574
0.057594972
0.064313869
0.070337044
0.075713304
0.080530043
0.084878685
0.088840639
0.092483282
0.095861237
0.099018071
0.10198782
0.10479839
0.1074735
0.11003215
0.11248981
0.11485973
0.1171527
0.11937787
0.12154302
0.12365467
0.12571865
0.12774013
0.12972391
0.13167477
0.13359764
0.13549821
0.13738348
0.13926194
0.14114425
0.14304418
0.14497971
0.14697496
0.14906348
0.15129408
0.15374304
0.15654258
0.15995629
0.16461171
0.17239797
0.18876826
0.2160464
0.23924132
0.2525697
0.25864083
0.26107267
0.26205396
0.26252346
0.2627787
0.26287132
0.26278291
0.26249245
0.26202166
0.26147726
0.26100571
0.26067833
0.26050067
0.26054318
0.26086624
0.26133448
0.26167309
0.26165455
0.26126236
0.26065883
0.25996353
0.25921642
0.25851909
0.2580102
0.25778503
0.25788458
0.25822426
0.25853067
0.25853988
0.25838978
0.25843555
0.25875265
0.25917551
0.25964349
0.26018756
0.26071644
0.26105648
0.26112507
0.26099356
0.26079154
0.26064587
0.26062184
0.26074446
0.26099711
0.26135731
0.26179764
0.26230782
0.26287961
0.26351722
0.26422125
0.2649974
0.26584721
0.26678301
0.26779694
0.2688857
0.27005783
0.27131985
0.27266358
0.27409002
0.27563443
0.2774108
0.27930502
0.28119677
0.28353558
0.28558495
0.28695077
0.28964039
0.29277675
0.29329707
0.29224586
0.29663771
0.30487582
0.30858582
0.30699949
0.30355921
0.30083282
0.29963733
0.2993987
0.29946285
0.29953971
0.29957717
0.29958916
0.29959179
0.29959224
0.29959231
0.29959231
0.29959231
0.29959231
0.0026230457
0.0080977154
0.014046849
0.02050747
0.027495019
0.034970643
0.042759992
0.050528802
0.057902625
0.064637056
0.070670652
0.076054351
0.080876731
0.085229824
0.089195307
0.092840663
0.09622056
0.099378574
0.10234875
0.10515898
0.10783301
0.11038984
0.11284496
0.1152117
0.11750091
0.11972183
0.12188234
0.12398914
0.12604817
0.12806481
0.13004402
0.13199075
0.13391011
0.13580792
0.13769133
0.1395689
0.14145138
0.14335259
0.14529058
0.14728956
0.14938323
0.15162069
0.15407874
0.15689064
0.16032218
0.16500592
0.17284969
0.18934798
0.21670905
0.23993429
0.25326478
0.25932424
0.26174465
0.26271874
0.26318415
0.26343693
0.26352813
0.26343924
0.26314925
0.26267977
0.26213722
0.26166773
0.26134214
0.26116535
0.26120751
0.2615292
0.26199553
0.26233227
0.26231266
0.26192076
0.26131916
0.26062702
0.25988345
0.25918925
0.25868246
0.25845783
0.25855616
0.2588935
0.25919758
0.25920489
0.25905293
0.2590964
0.25941009
0.25982843
0.26029082
0.26082879
0.26135136
0.26168547
0.26174876
0.26161256
0.26140601
0.26125538
0.26122552
0.2613412
0.26158575
0.26193692
0.26236739
0.26286717
0.26342801
0.26405395
0.26474546
0.26550826
0.26634353
0.26726332
0.26826064
0.26933164
0.27048507
0.27172919
0.27305626
0.2744666
0.27599612
0.27775884
0.27963575
0.28151572
0.28383581
0.28583903
0.2871952
0.28991139
0.2929797
0.29344405
0.2923514
0.29696074
0.30518876
0.30879539
0.30713173
0.30364809
0.30089349
0.2996741
0.29941693
0.29947006
0.29954191
0.29957768
0.29958926
0.29959181
0.29959225
0.29959231
0.29959231
0.29959231
0.29959231
0.0026394685
0.0081483041
0.014134403
0.020634842
0.027664728
0.035183587
0.043013299
0.050814975
0.058212073
0.06496182
0.071005654
0.076396559
0.081224315
0.085581555
0.089550186
0.09319783
0.096579187
0.099737849
0.10270787
0.10551715
0.10818944
0.11074377
0.1131957
0.11555861
0.11784343
0.12005952
0.12221492
0.12431645
0.12637026
0.12838188
0.13035648
0.13229918
0.13421526
0.13611069
0.13799272
0.13987001
0.14175337
0.14365667
0.145598
0.14760166
0.14970148
0.15194684
0.15441506
0.15724039
0.16069065
0.16540313
0.17330288
0.18992126
0.21736444
0.24062312
0.25395672
0.26000443
0.26241328
0.26338013
0.26384144
0.26409179
0.26418159
0.26409225
0.2638028
0.26333467
0.26279399
0.26232656
0.26200273
0.26182678
0.26186855
0.26218883
0.26265323
0.26298821
0.26296767
0.26257622
0.26197668
0.26128781
0.26054788
0.25985686
0.25935216
0.25912807
0.25922513
0.25956014
0.25986199
0.2598676
0.25971393
0.25975516
0.26006547
0.26047937
0.2609363
0.26146831
0.26198473
0.26231314
0.26237139
0.26223074
0.26201982
0.26186437
0.26182882
0.26193771
0.26217435
0.26251671
0.26293761
0.26342726
0.26397741
0.26459188
0.26527098
0.26602049
0.26684127
0.26774495
0.26872549
0.26977887
0.2709139
0.27214045
0.27345137
0.27484638
0.27636141
0.27811007
0.27996909
0.28183761
0.28413765
0.28609623
0.28744213
0.29018362
0.29318465
0.29358909
0.29246054
0.29729371
0.30550234
0.3090026
0.30726254
0.30373617
0.30095389
0.29971074
0.2994351
0.29947725
0.29954411
0.2995782
0.29958935
0.29959182
0.29959225
0.29959231
0.29959231
0.29959231
0.0026559902
0.0081991107
0.014222244
0.020762596
0.027834871
0.03539691
0.043266802
0.051101009
0.058521039
0.065285753
0.071339414
0.076737145
0.081569872
0.085930778
0.089902031
0.093551382
0.096933575
0.10009222
0.10306138
0.10586897
0.10853878
0.11108989
0.11353791
0.11589632
0.11817616
0.12038693
0.12253681
0.1246328