/*--------------------------------*- C++ -*----------------------------------*\
| =========                 |                                                 |
| \\      /  F ield         | OpenFOAM: The Open Source CFD Toolbox           |
|  \\    /   O peration     | Version:  2506                                  |
|   \\  /    A nd           | Website:  www.openfoam.com                      |
|    \\/     M anipulation  |                                                 |
\*---------------------------------------------------------------------------*/
FoamFile
{
    version     2.0;
    format      ascii;
    arch        "LSB;label=32;scalar=64";
    class       volScalarField;
    location    "0.006";
    object      nut;
}
// * * * * * * * * * * * * * * * * * * * * * * * * * * * * * * * * * * * * * //

dimensions      [0 2 -1 0 0 0 0];

internalField   nonuniform List<scalar> 
13761
(
3.6444516e-06
3.6444508e-06
3.6444508e-06
3.6444508e-06
3.6444508e-06
3.6444509e-06
3.644451e-06
3.6444565e-06
3.6444593e-06
3.6447065e-06
3.6909524e-06
3.6444514e-06
3.6444508e-06
3.6444508e-06
3.6444508e-06
3.6444508e-06
3.6444509e-06
3.644451e-06
3.6444569e-06
3.644463e-06
3.6447185e-06
3.6908936e-06
3.6444511e-06
3.6444508e-06
3.6444508e-06
3.6444508e-06
3.6444508e-06
3.6444509e-06
3.644451e-06
3.6444575e-06
3.6444679e-06
3.6447338e-06
3.6908978e-06
3.644452e-06
3.6444508e-06
3.6444508e-06
3.6444508e-06
3.6444508e-06
3.6444508e-06
3.6444509e-06
3.6444511e-06
3.6444586e-06
3.6444749e-06
3.6447524e-06
3.6908974e-06
3.6444516e-06
3.6444508e-06
3.6444508e-06
3.6444508e-06
3.6444508e-06
3.6444508e-06
3.644451e-06
3.6444513e-06
3.6444603e-06
3.6444845e-06
3.6447739e-06
3.6909029e-06
3.6444513e-06
3.6444508e-06
3.6444508e-06
3.6444508e-06
3.6444508e-06
3.6444508e-06
3.644451e-06
3.6444515e-06
3.6444628e-06
3.6444969e-06
3.6447973e-06
3.6909065e-06
3.6444523e-06
3.6444508e-06
3.6444508e-06
3.6444508e-06
3.6444508e-06
3.6444508e-06
3.6444508e-06
3.6444511e-06
3.644452e-06
3.6444665e-06
3.6445125e-06
3.6448216e-06
3.6908995e-06
3.6444519e-06
3.6444508e-06
3.6444508e-06
3.6444508e-06
3.6444508e-06
3.6444508e-06
3.6444508e-06
3.6444512e-06
3.6444527e-06
3.6444718e-06
3.6445312e-06
3.6448449e-06
3.6908945e-06
3.6444514e-06
3.6444508e-06
3.6444508e-06
3.6444508e-06
3.6444508e-06
3.6444508e-06
3.6444508e-06
3.6444513e-06
3.6444539e-06
3.6444792e-06
3.6445524e-06
3.6448658e-06
3.6908779e-06
3.6444532e-06
3.6444508e-06
3.6444508e-06
3.6444508e-06
3.6444508e-06
3.6444508e-06
3.6444508e-06
3.6444508e-06
3.6444516e-06
3.6444556e-06
3.6444891e-06
3.6445754e-06
3.6448829e-06
3.6908627e-06
3.6444527e-06
3.6444508e-06
3.6444508e-06
3.6444508e-06
3.6444508e-06
3.6444508e-06
3.6444508e-06
3.6444509e-06
3.6444521e-06
3.6444583e-06
3.6445018e-06
3.644599e-06
3.6448952e-06
3.6908355e-06
3.6444522e-06
3.6444508e-06
3.6444508e-06
3.6444508e-06
3.6444508e-06
3.6444508e-06
3.6444508e-06
3.6444509e-06
3.6444529e-06
3.6444622e-06
3.6445176e-06
3.6446216e-06
3.6449024e-06
3.6908095e-06
3.6444516e-06
3.6444508e-06
3.6444508e-06
3.6444508e-06
3.6444508e-06
3.6444508e-06
3.6444508e-06
3.6444511e-06
3.6444542e-06
3.6444678e-06
3.6445362e-06
3.6446417e-06
3.6449043e-06
3.6907795e-06
3.6444532e-06
3.6444508e-06
3.6444508e-06
3.6444508e-06
3.6444508e-06
3.6444508e-06
3.6444508e-06
3.6444508e-06
3.6444512e-06
3.6444561e-06
3.6444754e-06
3.6445572e-06
3.6446582e-06
3.6449011e-06
3.6907414e-06
3.6444525e-06
3.6444508e-06
3.6444508e-06
3.6444508e-06
3.6444508e-06
3.6444508e-06
3.6444508e-06
3.6444509e-06
3.6444516e-06
3.6444589e-06
3.6444854e-06
3.6445798e-06
3.6446703e-06
3.6448928e-06
3.6907136e-06
3.6444518e-06
3.6444508e-06
3.6444508e-06
3.6444508e-06
3.6444508e-06
3.6444508e-06
3.6444508e-06
3.644451e-06
3.6444521e-06
3.644463e-06
3.6444981e-06
3.6446029e-06
3.6446775e-06
3.644879e-06
3.6906888e-06
3.6444536e-06
3.6444508e-06
3.6444508e-06
3.6444508e-06
3.6444508e-06
3.6444508e-06
3.6444508e-06
3.6444508e-06
3.6444511e-06
3.6444529e-06
3.6444686e-06
3.6445138e-06
3.644625e-06
3.6446801e-06
3.64486e-06
3.6906826e-06
3.6444528e-06
3.6444508e-06
3.6444508e-06
3.6444508e-06
3.6444508e-06
3.6444508e-06
3.6444508e-06
3.6444508e-06
3.6444513e-06
3.6444542e-06
3.6444763e-06
3.6445322e-06
3.6446449e-06
3.6446781e-06
3.6448374e-06
3.6906858e-06
3.644452e-06
3.6444508e-06
3.6444508e-06
3.6444508e-06
3.6444508e-06
3.6444508e-06
3.6444508e-06
3.6444508e-06
3.6444516e-06
3.6444561e-06
3.6444864e-06
3.6445529e-06
3.6446612e-06
3.6446715e-06
3.644815e-06
3.6906851e-06
3.644454e-06
3.6444508e-06
3.6444508e-06
3.6444508e-06
3.6444508e-06
3.6444508e-06
3.6444508e-06
3.6444508e-06
3.6444509e-06
3.6444521e-06
3.6444589e-06
3.6444991e-06
3.6445751e-06
3.6446734e-06
3.6446602e-06
3.6447982e-06
3.6906941e-06
3.6444531e-06
3.6444508e-06
3.6444508e-06
3.6444508e-06
3.6444508e-06
3.6444508e-06
3.6444508e-06
3.6444508e-06
3.644451e-06
3.644453e-06
3.644463e-06
3.6445146e-06
3.6445978e-06
3.6446811e-06
3.6446439e-06
3.6447918e-06
3.69071e-06
3.6444521e-06
3.6444508e-06
3.6444508e-06
3.6444508e-06
3.6444508e-06
3.6444508e-06
3.6444508e-06
3.6444508e-06
3.6444511e-06
3.6444543e-06
3.6444686e-06
3.6445327e-06
3.6446196e-06
3.6446844e-06
3.6446232e-06
3.6447966e-06
3.6444531e-06
3.6444508e-06
3.6444508e-06
3.6444508e-06
3.6444508e-06
3.6444508e-06
3.6444508e-06
3.6444508e-06
3.6444508e-06
3.6444513e-06
3.6444562e-06
3.6444762e-06
3.644553e-06
3.6446393e-06
3.6446835e-06
3.6446003e-06
3.6448081e-06
3.6444519e-06
3.6444508e-06
3.6444508e-06
3.6444508e-06
3.6444508e-06
3.6444508e-06
3.6444508e-06
3.6444508e-06
3.6444509e-06
3.6444516e-06
3.644459e-06
3.644486e-06
3.6445748e-06
3.6446558e-06
3.6446787e-06
3.6445795e-06
3.6448215e-06
3.6444528e-06
3.6444503e-06
3.6444508e-06
3.6444508e-06
3.6444508e-06
3.6444508e-06
3.6444508e-06
3.6444508e-06
3.6444508e-06
3.644451e-06
3.6444521e-06
3.644463e-06
3.6444984e-06
3.644597e-06
3.6446682e-06
3.6446698e-06
3.6445662e-06
3.6448398e-06
3.6444515e-06
3.6444503e-06
3.6444508e-06
3.6444508e-06
3.6444508e-06
3.6444508e-06
3.6444508e-06
3.6444508e-06
3.6444508e-06
3.6444511e-06
3.6444529e-06
3.6444685e-06
3.6445135e-06
3.6446186e-06
3.6446764e-06
3.6446562e-06
3.644564e-06
3.6448751e-06
3.6444501e-06
3.6444503e-06
3.6444508e-06
3.6444508e-06
3.6444508e-06
3.6444508e-06
3.6444508e-06
3.6444508e-06
3.6444508e-06
3.6444513e-06
3.6444541e-06
3.6444759e-06
3.6445312e-06
3.6446381e-06
3.6446805e-06
3.6446381e-06
3.6445716e-06
3.6444462e-06
3.6444484e-06
3.6444503e-06
3.6444508e-06
3.6444508e-06
3.6444508e-06
3.6444508e-06
3.6444508e-06
3.6444508e-06
3.6444508e-06
3.6444516e-06
3.644456e-06
3.6444854e-06
3.644551e-06
3.6446547e-06
3.6446807e-06
3.6446163e-06
3.6445838e-06
3.6444448e-06
3.6444484e-06
3.6444503e-06
3.6444508e-06
3.6444508e-06
3.6444508e-06
3.6444508e-06
3.6444508e-06
3.6444508e-06
3.6444509e-06
3.6444521e-06
3.6444587e-06
3.6444975e-06
3.6445724e-06
3.6446675e-06
3.6446773e-06
3.6445938e-06
3.6445967e-06
3.6444432e-06
3.6444483e-06
3.6444503e-06
3.6444507e-06
3.6444508e-06
3.6444508e-06
3.6444508e-06
3.6444508e-06
3.6444508e-06
3.6444509e-06
3.6444528e-06
3.6444624e-06
3.6445121e-06
3.6445944e-06
3.6446763e-06
3.6446703e-06
3.6445753e-06
3.6446147e-06
3.6444239e-06
3.6444412e-06
3.6444483e-06
3.6444503e-06
3.6444507e-06
3.6444508e-06
3.6444508e-06
3.6444508e-06
3.6444508e-06
3.6444508e-06
3.6444511e-06
3.644454e-06
3.6444676e-06
3.6445292e-06
3.6446158e-06
3.6446812e-06
3.6446593e-06
3.6445656e-06
3.6446499e-06
3.6444221e-06
3.6444412e-06
3.6444483e-06
3.6444503e-06
3.6444507e-06
3.6444508e-06
3.6444508e-06
3.6444508e-06
3.6444508e-06
3.6444509e-06
3.6444512e-06
3.6444557e-06
3.6444746e-06
3.6445485e-06
3.6446356e-06
3.6446824e-06
3.6446439e-06
3.644567e-06
3.6443693e-06
3.6444198e-06
3.6444412e-06
3.6444483e-06
3.6444503e-06
3.6444507e-06
3.6444508e-06
3.6444508e-06
3.6444508e-06
3.6444508e-06
3.6444509e-06
3.6444515e-06
3.6444583e-06
3.6444837e-06
3.6445694e-06
3.6446526e-06
3.6446803e-06
3.6446242e-06
3.6445767e-06
3.6443672e-06
3.6444198e-06
3.6444412e-06
3.6444483e-06
3.6444503e-06
3.6444507e-06
3.6444508e-06
3.6444508e-06
3.6444508e-06
3.6444508e-06
3.6444509e-06
3.6444519e-06
3.6444618e-06
3.6444951e-06
3.6445909e-06
3.6446661e-06
3.6446751e-06
3.6446019e-06
3.6445892e-06
3.6442323e-06
3.6443647e-06
3.6444198e-06
3.6444412e-06
3.6444483e-06
3.6444503e-06
3.6444507e-06
3.6444508e-06
3.6444508e-06
3.6444508e-06
3.6444508e-06
3.644451e-06
3.6444526e-06
3.6444667e-06
3.6445091e-06
3.6446122e-06
3.6446757e-06
3.6446665e-06
3.6445803e-06
3.6446014e-06
3.6442303e-06
3.6443647e-06
3.6444198e-06
3.6444412e-06
3.6444483e-06
3.6444503e-06
3.6444507e-06
3.6444508e-06
3.6444508e-06
3.6444508e-06
3.6444509e-06
3.6444512e-06
3.6444537e-06
3.6444733e-06
3.6445255e-06
3.6446321e-06
3.6446815e-06
3.6446539e-06
3.6445644e-06
3.6446193e-06
3.6442279e-06
3.6443647e-06
3.6444198e-06
3.6444412e-06
3.6444483e-06
3.6444503e-06
3.6444507e-06
3.6444508e-06
3.6444508e-06
3.6444508e-06
3.6444509e-06
3.6444514e-06
3.6444552e-06
3.6444818e-06
3.6445442e-06
3.6446495e-06
3.6446837e-06
3.644637e-06
3.6445582e-06
3.6446544e-06
3.6438734e-06
3.644225e-06
3.6443647e-06
3.6444198e-06
3.6444412e-06
3.6444483e-06
3.6444503e-06
3.6444507e-06
3.6444508e-06
3.6444508e-06
3.6444508e-06
3.6444509e-06
3.6444518e-06
3.6444575e-06
3.6444926e-06
3.6445645e-06
3.6446636e-06
3.6446827e-06
3.6446163e-06
3.6445626e-06
3.6438705e-06
3.644225e-06
3.6443648e-06
3.6444199e-06
3.6444412e-06
3.6444483e-06
3.6444503e-06
3.6444507e-06
3.6444508e-06
3.6444508e-06
3.6444509e-06
3.644451e-06
3.6444525e-06
3.6444607e-06
3.6445058e-06
3.6445858e-06
3.6446742e-06
3.6446789e-06
3.6445939e-06
3.6445738e-06
3.6430719e-06
3.6438671e-06
3.644225e-06
3.6443648e-06
3.6444199e-06
3.6444412e-06
3.6444483e-06
3.6444503e-06
3.6444507e-06
3.6444508e-06
3.6444508e-06
3.6444509e-06
3.6444511e-06
3.6444534e-06
3.6444652e-06
3.6445214e-06
3.6446071e-06
3.6446809e-06
3.6446722e-06
3.6445739e-06
3.644586e-06
3.6430683e-06
3.6438666e-06
3.644225e-06
3.6443649e-06
3.6444199e-06
3.6444412e-06
3.6444483e-06
3.6444503e-06
3.6444507e-06
3.6444508e-06
3.6444508e-06
3.6444509e-06
3.6444514e-06
3.6444548e-06
3.6444712e-06
3.6445393e-06
3.6446273e-06
3.6446843e-06
3.6446621e-06
3.6445608e-06
3.6445977e-06
3.6415912e-06
3.6430641e-06
3.6438663e-06
3.644225e-06
3.6443649e-06
3.6444199e-06
3.6444412e-06
3.6444483e-06
3.6444503e-06
3.6444507e-06
3.6444508e-06
3.6444508e-06
3.644451e-06
3.6444517e-06
3.6444568e-06
3.644479e-06
3.644559e-06
3.6446454e-06
3.6446846e-06
3.644648e-06
3.6445579e-06
3.6446156e-06
3.6393537e-06
3.6415871e-06
3.6430631e-06
3.643866e-06
3.6442251e-06
3.644365e-06
3.6444199e-06
3.6444412e-06
3.6444483e-06
3.6444503e-06
3.6444507e-06
3.6444508e-06
3.6444509e-06
3.6444511e-06
3.6444522e-06
3.6444597e-06
3.644489e-06
3.6445798e-06
3.6446606e-06
3.6446822e-06
3.6446297e-06
3.6445648e-06
3.6446507e-06
3.6393506e-06
3.6415856e-06
3.6430622e-06
3.6438657e-06
3.6442251e-06
3.6443651e-06
3.64442e-06
3.6444412e-06
3.6444483e-06
3.6444503e-06
3.6444507e-06
3.6444508e-06
3.6444509e-06
3.6444513e-06
3.6444531e-06
3.6444638e-06
3.6445013e-06
3.6446008e-06
3.6446722e-06
3.6446773e-06
3.6446083e-06
3.6445769e-06
3.636741e-06
3.6393467e-06
3.6415844e-06
3.6430614e-06
3.6438655e-06
3.6442252e-06
3.6443651e-06
3.64442e-06
3.6444412e-06
3.6444483e-06
3.6444503e-06
3.6444507e-06
3.6444508e-06
3.6444509e-06
3.6444516e-06
3.6444543e-06
3.6444692e-06
3.644516e-06
3.6446212e-06
3.6446802e-06
3.6446695e-06
3.6445863e-06
3.6445886e-06
3.6367421e-06
3.639346e-06
3.6415832e-06
3.6430607e-06
3.6438653e-06
3.6442253e-06
3.6443652e-06
3.64442e-06
3.6444412e-06
3.6444483e-06
3.6444503e-06
3.6444508e-06
3.6444508e-06
3.644451e-06
3.6444521e-06
3.6444561e-06
3.6444764e-06
3.644533e-06
3.6446398e-06
3.6446847e-06
3.6446582e-06
3.6445679e-06
3.6445996e-06
3.6350476e-06
3.6367425e-06
3.6393456e-06
3.6415822e-06
3.6430601e-06
3.6438652e-06
3.6442254e-06
3.6443653e-06
3.6444201e-06
3.6444412e-06
3.6444483e-06
3.6444503e-06
3.6444508e-06
3.6444509e-06
3.6444511e-06
3.6444528e-06
3.6444587e-06
3.6444855e-06
3.644552e-06
3.6446558e-06
3.6446861e-06
3.6446429e-06
3.6445575e-06
3.6446175e-06
3.6365196e-06
3.6350566e-06
3.636746e-06
3.6393454e-06
3.6415813e-06
3.6430596e-06
3.6438651e-06
3.6442255e-06
3.6443654e-06
3.6444201e-06
3.6444412e-06
3.6444483e-06
3.6444503e-06
3.6444508e-06
3.6444509e-06
3.6444512e-06
3.6444539e-06
3.6444623e-06
3.6444969e-06
3.6445724e-06
3.6446686e-06
3.6446849e-06
3.6446236e-06
3.6445575e-06
3.6446526e-06
3.6365286e-06
3.6350669e-06
3.63675e-06
3.6393454e-06
3.6415806e-06
3.6430591e-06
3.643865e-06
3.6442256e-06
3.6443655e-06
3.6444201e-06
3.6444412e-06
3.6444483e-06
3.6444503e-06
3.6444508e-06
3.6444509e-06
3.6444515e-06
3.6444554e-06
3.6444672e-06
3.6445107e-06
3.6445933e-06
3.6446779e-06
3.6446813e-06
3.6446018e-06
3.6445663e-06
3.6437061e-06
3.6365394e-06
3.6350781e-06
3.6367544e-06
3.6393456e-06
3.6415799e-06
3.6430587e-06
3.643865e-06
3.6442257e-06
3.6443656e-06
3.6444202e-06
3.6444413e-06
3.6444483e-06
3.6444503e-06
3.6444508e-06
3.644451e-06
3.6444519e-06
3.6444577e-06
3.6444736e-06
3.6445268e-06
3.644614e-06
3.6446838e-06
3.6446752e-06
3.6445806e-06
3.6445787e-06
3.6557898e-06
3.6436741e-06
3.6365543e-06
3.63509e-06
3.6367593e-06
3.6393461e-06
3.6415795e-06
3.6430584e-06
3.643865e-06
3.6442259e-06
3.6443657e-06
3.6444202e-06
3.6444413e-06
3.6444483e-06
3.6444503e-06
3.6444508e-06
3.6444511e-06
3.6444525e-06
3.6444609e-06
3.644482e-06
3.6445449e-06
3.6446333e-06
3.6446866e-06
3.6446663e-06
3.6445642e-06
3.6445899e-06
3.6638941e-06
3.6556733e-06
3.6436468e-06
3.6365715e-06
3.6351028e-06
3.6367646e-06
3.6393469e-06
3.6415792e-06
3.6430582e-06
3.6438651e-06
3.6442261e-06
3.6443658e-06
3.6444203e-06
3.6444413e-06
3.6444483e-06
3.6444503e-06
3.6444508e-06
3.6444513e-06
3.6444534e-06
3.6444652e-06
3.6444925e-06
3.6445646e-06
3.6446505e-06
3.6446868e-06
3.6446537e-06
3.6445565e-06
3.6446005e-06
3.6568036e-06
3.6637561e-06
3.6555606e-06
3.6436211e-06
3.6365908e-06
3.6351165e-06
3.6367704e-06
3.639348e-06
3.641579e-06
3.6430582e-06
3.6438652e-06
3.6442262e-06
3.6443659e-06
3.6444203e-06
3.6444413e-06
3.6444484e-06
3.6444503e-06
3.6444509e-06
3.6444517e-06
3.6444547e-06
3.644471e-06
3.6445053e-06
3.6445853e-06
3.6446646e-06
3.6446846e-06
3.6446372e-06
3.6445591e-06
3.6446186e-06
3.6413705e-06
3.6568654e-06
3.6636105e-06
3.6554445e-06
3.643597e-06
3.6366122e-06
3.6351313e-06
3.6367765e-06
3.6393493e-06
3.6415791e-06
3.6430582e-06
3.6438653e-06
3.6442264e-06
3.644366e-06
3.6444203e-06
3.6444413e-06
3.6444484e-06
3.6444504e-06
3.644451e-06
3.6444522e-06
3.6444566e-06
3.6444785e-06
3.6445204e-06
3.644606e-06
3.6446755e-06
3.6446803e-06
3.644617e-06
3.6445694e-06
3.6446537e-06
3.6286453e-06
3.6415298e-06
3.6569234e-06
3.6634482e-06
3.6553255e-06
3.6435748e-06
3.6366355e-06
3.6351471e-06
3.6367831e-06
3.6393509e-06
3.6415793e-06
3.6430583e-06
3.6438655e-06
3.6442266e-06
3.6443661e-06
3.6444204e-06
3.6444413e-06
3.6444484e-06
3.6444504e-06
3.6444512e-06
3.6444529e-06
3.6444593e-06
3.644488e-06
3.6445377e-06
3.6446258e-06
3.6446828e-06
3.6446736e-06
3.6445951e-06
3.6445819e-06
3.6070509e-06
3.6286602e-06
3.6417062e-06
3.6569695e-06
3.663271e-06
3.6552034e-06
3.6435544e-06
3.6366605e-06
3.6351639e-06
3.63679e-06
3.6393528e-06
3.6415797e-06
3.6430585e-06
3.6438658e-06
3.6442269e-06
3.6443662e-06
3.6444204e-06
3.6444413e-06
3.6444484e-06
3.6444504e-06
3.6444514e-06
3.6444541e-06
3.6444631e-06
3.6444997e-06
3.6445568e-06
3.6446439e-06
3.644687e-06
3.6446639e-06
3.6445747e-06
3.6445922e-06
3.5662986e-06
3.6069075e-06
3.6286974e-06
3.6418943e-06
3.6570028e-06
3.6630796e-06
3.6550783e-06
3.643536e-06
3.636687e-06
3.635182e-06
3.6367974e-06
3.639355e-06
3.6415802e-06
3.6430587e-06
3.643866e-06
3.6442271e-06
3.6443664e-06
3.6444205e-06
3.6444414e-06
3.6444484e-06
3.6444505e-06
3.6444518e-06
3.6444557e-06
3.6444682e-06
3.6445137e-06
3.6445771e-06
3.6446593e-06
3.6446883e-06
3.6446505e-06
3.6445602e-06
3.6446023e-06
3.5148598e-06
3.5662948e-06
3.6067711e-06
3.6287517e-06
3.6420933e-06
3.657022e-06
3.662875e-06
3.6549501e-06
3.6435194e-06
3.636715e-06
3.6352011e-06
3.6368052e-06
3.6393575e-06
3.641581e-06
3.6430591e-06
3.6438664e-06
3.6442274e-06
3.6443665e-06
3.6444206e-06
3.6444414e-06
3.6444484e-06
3.6444506e-06
3.6444525e-06
3.644458e-06
3.6444748e-06
3.6445298e-06
3.6445979e-06
3.6446716e-06
3.6446872e-06
3.644633e-06
3.644555e-06
3.6446204e-06
3.4168705e-06
3.4600008e-06
3.5149593e-06
3.5662937e-06
3.606635e-06
3.6288238e-06
3.6423024e-06
3.6570258e-06
3.6626581e-06
3.6548189e-06
3.6435048e-06
3.6367443e-06
3.6352214e-06
3.6368135e-06
3.6393603e-06
3.6415819e-06
3.6430596e-06
3.6438667e-06
3.6442276e-06
3.6443667e-06
3.6444206e-06
3.6444414e-06
3.6444485e-06
3.6444508e-06
3.6444534e-06
3.6444613e-06
3.6444833e-06
3.6445479e-06
3.6446182e-06
3.6446806e-06
3.6446841e-06
3.6446123e-06
3.6445596e-06
3.6446554e-06
3.407103e-06
3.4169591e-06
3.4600511e-06
3.5150725e-06
3.566288e-06
3.6065001e-06
3.6289145e-06
3.6425209e-06
3.6570133e-06
3.6624298e-06
3.6546847e-06
3.6434922e-06
3.6367748e-06
3.6352428e-06
3.6368222e-06
3.6393634e-06
3.6415831e-06
3.6430602e-06
3.6438671e-06
3.6442279e-06
3.6443668e-06
3.6444207e-06
3.6444414e-06
3.6444485e-06
3.6444512e-06
3.6444547e-06
3.6444657e-06
3.644494e-06
3.6445675e-06
3.6446371e-06
3.6446862e-06
3.6446789e-06
3.6445905e-06
3.6445709e-06
3.4573422e-06
3.4326592e-06
3.4073433e-06
3.4170612e-06
3.4601115e-06
3.5151918e-06
3.566277e-06
3.6063669e-06
3.6290245e-06
3.6427478e-06
3.6569834e-06
3.6621908e-06
3.6545476e-06
3.6434816e-06
3.6368064e-06
3.6352653e-06
3.6368314e-06
3.6393668e-06
3.6415844e-06
3.6430609e-06
3.6438675e-06
3.6442282e-06
3.644367e-06
3.6444207e-06
3.6444415e-06
3.6444486e-06
3.6444517e-06
3.6444567e-06
3.6444715e-06
3.6445068e-06
3.6445878e-06
3.6446538e-06
3.6446889e-06
3.6446713e-06
3.6445713e-06
3.6445833e-06
3.4377359e-06
3.4224396e-06
3.443264e-06
3.4570192e-06
3.4328134e-06
3.4076085e-06
3.417169e-06
3.4601814e-06
3.5153166e-06
3.56626e-06
3.6062366e-06
3.6291542e-06
3.6429819e-06
3.6569355e-06
3.6619417e-06
3.6544076e-06
3.6434729e-06
3.6368389e-06
3.6352888e-06
3.6368412e-06
3.6393705e-06
3.6415859e-06
3.6430617e-06
3.643868e-06
3.6442285e-06
3.6443671e-06
3.6444208e-06
3.6444415e-06
3.6444488e-06
3.6444524e-06
3.6444594e-06
3.6444791e-06
3.6445219e-06
3.6446081e-06
3.6446675e-06
3.6446891e-06
3.6446606e-06
3.6445589e-06
3.644593e-06
3.487926e-06
3.465551e-06
3.4330613e-06
3.41991e-06
3.4421973e-06
3.4568077e-06
3.4330107e-06
3.4078874e-06
3.4172821e-06
3.4602616e-06
3.5154469e-06
3.5662371e-06
3.6061107e-06
3.6293041e-06
3.6432224e-06
3.6568692e-06
3.6616829e-06
3.6542649e-06
3.6434659e-06
3.6368725e-06
3.6353134e-06
3.6368515e-06
3.6393745e-06
3.6415876e-06
3.6430625e-06
3.6438685e-06
3.6442289e-06
3.6443673e-06
3.6444209e-06
3.6444416e-06
3.6444491e-06
3.6444535e-06
3.6444632e-06
3.6444886e-06
3.6445391e-06
3.6446276e-06
3.644678e-06
3.6446873e-06
3.644646e-06
3.644556e-06
3.6446029e-06
3.5809317e-06
3.545431e-06
3.5295711e-06
3.5077432e-06
3.4812414e-06
3.4589223e-06
3.4288643e-06
3.4177494e-06
3.4413356e-06
3.4566861e-06
3.4332446e-06
3.4081777e-06
3.4174003e-06
3.4603522e-06
3.5155822e-06
3.566208e-06
3.6059903e-06
3.6294745e-06
3.643468e-06
3.6567844e-06
3.661415e-06
3.6541197e-06
3.6434608e-06
3.6369069e-06
3.635339e-06
3.6368625e-06
3.6393789e-06
3.6415896e-06
3.6430635e-06
3.6438691e-06
3.6442292e-06
3.6443675e-06
3.644421e-06
3.6444417e-06
3.6444495e-06
3.6444551e-06
3.6444682e-06
3.6445002e-06
3.644558e-06
3.6446453e-06
3.6446851e-06
3.6446835e-06
3.6446276e-06
3.6445625e-06
3.6446214e-06
3.8815745e-06
3.7922302e-06
3.7259983e-06
3.6688373e-06
3.6223207e-06
3.5793662e-06
3.5449428e-06
3.5290878e-06
3.5034069e-06
3.4740094e-06
3.4526222e-06
3.425162e-06
3.4159391e-06
3.4406573e-06
3.4566425e-06
3.4335099e-06
3.4084772e-06
3.4175233e-06
3.4604533e-06
3.5157218e-06
3.5661721e-06
3.6058767e-06
3.6296654e-06
3.6437175e-06
3.6566812e-06
3.6611382e-06
3.6539723e-06
3.6434573e-06
3.6369422e-06
3.6353654e-06
3.636874e-06
3.6393836e-06
3.6415918e-06
3.6430646e-06
3.6438697e-06
3.6442296e-06
3.6443677e-06
3.6444211e-06
3.6444418e-06
3.6444501e-06
3.6444574e-06
3.6444748e-06
3.6445141e-06
3.644578e-06
3.6446605e-06
3.6446891e-06
3.6446777e-06
3.6446064e-06
3.6445744e-06
3.6446565e-06
4.0516579e-06
4.2199572e-06
4.3509768e-06
4.2870842e-06
4.1587171e-06
4.1199781e-06
4.0900905e-06
3.9941025e-06
3.8787911e-06
3.7897078e-06
3.7239259e-06
3.6669931e-06
3.6205301e-06
3.5781059e-06
3.5445867e-06
3.5277278e-06
3.4977548e-06
3.4665015e-06
3.4467915e-06
3.421962e-06
3.4144548e-06
3.4401411e-06
3.4566657e-06
3.4338019e-06
3.4087842e-06
3.4176514e-06
3.4605648e-06
3.5158649e-06
3.5661292e-06
3.605771e-06
3.6298768e-06
3.6439696e-06
3.6565598e-06
3.6608528e-06
3.6538227e-06
3.6434554e-06
3.6369785e-06
3.6353927e-06
3.6368862e-06
3.6393886e-06
3.6415941e-06
3.6430658e-06
3.6438703e-06
3.6442299e-06
3.6443679e-06
3.6444212e-06
3.644442e-06
3.6444509e-06
3.6444606e-06
3.6444832e-06
3.6445301e-06
3.6445985e-06
3.6446727e-06
3.6446904e-06
3.6446694e-06
3.6445849e-06
3.6445863e-06
4.0219205e-06
4.0457338e-06
4.071669e-06
4.0873896e-06
4.0836573e-06
4.0634572e-06
4.0262293e-06
3.9471852e-06
3.873245e-06
3.892371e-06
3.9297334e-06
3.8763538e-06
3.8332399e-06
3.9437394e-06
4.1717421e-06
4.3515613e-06
4.3909896e-06
4.3204672e-06
4.2138529e-06
4.0722591e-06
3.9079711e-06
3.7849208e-06
3.7368441e-06
3.7458528e-06
3.7861545e-06
3.872139e-06
3.9096792e-06
3.8212527e-06
3.7478784e-06
3.8073852e-06
3.912074e-06
3.9728353e-06
4.0488084e-06
4.2171389e-06
4.348208e-06
4.283786e-06
4.1551206e-06
4.1168171e-06
4.0872552e-06
3.9913057e-06
3.8761342e-06
3.7873046e-06
3.7219677e-06
3.6652001e-06
3.6188598e-06
3.5771345e-06
3.5440853e-06
3.5251115e-06
3.4909676e-06
3.4590126e-06
3.4415357e-06
3.4192542e-06
3.4132672e-06
3.4397656e-06
3.4567454e-06
3.4341163e-06
3.4090968e-06
3.4177846e-06
3.460687e-06
3.5160104e-06
3.5660791e-06
3.6056745e-06
3.6301084e-06
3.644223e-06
3.6564207e-06
3.6605591e-06
3.6536712e-06
3.6434549e-06
3.6370157e-06
3.6354207e-06
3.636899e-06
3.639394e-06
3.6415967e-06
3.6430671e-06
3.643871e-06
3.6442303e-06
3.6443681e-06
3.6444214e-06
3.6444424e-06
3.6444522e-06
3.6444648e-06
3.6444937e-06
3.6445481e-06
3.6446186e-06
3.6446817e-06
3.6446894e-06
3.6446578e-06
3.6445669e-06
3.6445952e-06
4.0510022e-06
4.0190276e-06
4.0429733e-06
4.068898e-06
4.0845857e-06
4.0807747e-06
4.0605162e-06
4.0233339e-06
3.9442629e-06
3.8702265e-06
3.8896177e-06
3.9272778e-06
3.8736524e-06
3.8302949e-06
3.9410197e-06
4.1692745e-06
4.3488961e-06
4.3878872e-06
4.3169639e-06
4.2103338e-06
4.0689042e-06
3.9047251e-06
3.7818869e-06
3.7341845e-06
3.7433966e-06
3.7836655e-06
3.8697324e-06
3.9073436e-06
3.8186083e-06
3.7450327e-06
3.8048959e-06
3.9097566e-06
3.9702381e-06
4.0459352e-06
4.2142901e-06
4.3454284e-06
4.2805417e-06
4.1516033e-06
4.1137324e-06
4.0845191e-06
3.988622e-06
3.8735978e-06
3.7850253e-06
3.7201153e-06
3.6634705e-06
3.6173704e-06
3.5763512e-06
3.543059e-06
3.5209675e-06
3.4833606e-06
3.4518162e-06
3.4369188e-06
3.4170142e-06
3.4123441e-06
3.4395103e-06
3.4568725e-06
3.4344494e-06
3.4094138e-06
3.4179234e-06
3.4608199e-06
3.5161574e-06
3.5660216e-06
3.6055885e-06
3.6303601e-06
3.644476e-06
3.6562645e-06
3.6602575e-06
3.6535179e-06
3.6434557e-06
3.6370538e-06
3.6354495e-06
3.6369125e-06
3.6393997e-06
3.6415995e-06
3.6430685e-06
3.6438718e-06
3.6442308e-06
3.6443683e-06
3.6444216e-06
3.6444429e-06
3.6444541e-06
3.6444705e-06
3.6445062e-06
3.6445675e-06
3.6446373e-06
3.6446876e-06
3.6446866e-06
3.6446423e-06
3.6445563e-06
3.6446046e-06
8.7425858e-06
4.6045117e-06
4.0465748e-06
4.0160448e-06
4.0400918e-06
4.0660049e-06
4.0816633e-06
4.0777801e-06
4.0574693e-06
4.0203401e-06
3.9412588e-06
3.8671273e-06
3.8867558e-06
3.9247066e-06
3.8708632e-06
3.8272656e-06
3.9381731e-06
4.1666423e-06
4.3460726e-06
4.3846653e-06
4.313375e-06
4.2067465e-06
4.0654966e-06
3.9014368e-06
3.7788079e-06
3.7314657e-06
3.7408728e-06
3.7811049e-06
3.8672485e-06
3.9049501e-06
3.8159442e-06
3.7421804e-06
3.8023796e-06
3.9074168e-06
3.9676345e-06
4.0430623e-06
4.2114509e-06
4.3426785e-06
4.2773859e-06
4.1481961e-06
4.1107458e-06
4.0818967e-06
3.9860604e-06
3.8711887e-06
3.7828744e-06
3.7183655e-06
3.6618302e-06
3.6160809e-06
3.5755288e-06
3.5410685e-06
3.515227e-06
3.4753266e-06
3.4451402e-06
3.4329646e-06
3.4152071e-06
3.4116523e-06
3.4393558e-06
3.4570386e-06
3.4347982e-06
3.4097337e-06
3.4180681e-06
3.4609637e-06
3.5163049e-06
3.5659565e-06
3.6055147e-06
3.630631e-06
3.644727e-06
3.6560921e-06
3.6599483e-06
3.6533631e-06
3.6434576e-06
3.6370929e-06
3.635479e-06
3.6369266e-06
3.6394058e-06
3.6416025e-06
3.64307e-06
3.6438726e-06
3.6442312e-06
3.6443686e-06
3.6444219e-06
3.6444436e-06
3.6444567e-06
3.6444778e-06
3.644521e-06
3.6445877e-06
3.644654e-06
3.6446907e-06
3.644682e-06
3.6446232e-06
3.6445553e-06
3.6446232e-06
0.00012131254
2.7750292e-05
8.6659325e-06
4.5878829e-06
4.0422691e-06
4.0129939e-06
4.0371163e-06
4.0630176e-06
4.0786523e-06
4.0747065e-06
4.0543522e-06
4.0172856e-06
3.9382148e-06
3.8639877e-06
3.8838168e-06
3.9220511e-06
3.8680256e-06
3.8241895e-06
3.935226e-06
4.1638668e-06
4.3431207e-06
4.3813639e-06
4.3097478e-06
4.2031381e-06
4.0620846e-06
3.898154e-06
3.7757287e-06
3.7287304e-06
3.7383223e-06
3.7785154e-06
3.8647273e-06
3.9025415e-06
3.813304e-06
3.739364e-06
3.7998752e-06
3.9050903e-06
3.9650631e-06
4.0402246e-06
4.2086555e-06
4.3399913e-06
4.2743446e-06
4.1449213e-06
4.1078729e-06
4.079397e-06
3.9836291e-06
3.8689151e-06
3.7808569e-06
3.7167185e-06
3.6602965e-06
3.6149196e-06
3.5743057e-06
3.5377007e-06
3.5080703e-06
3.4672737e-06
3.4391502e-06
3.4296619e-06
3.4137907e-06
3.4111597e-06
3.439285e-06
3.4572367e-06
3.4351601e-06
3.4100558e-06
3.4182191e-06
3.4611184e-06
3.5164517e-06
3.5658839e-06
3.6054546e-06
3.6309204e-06
3.6449739e-06
3.6559043e-06
3.6596317e-06
3.6532068e-06
3.6434603e-06
3.6371331e-06
3.635509e-06
3.6369413e-06
3.6394123e-06
3.6416057e-06
3.6430716e-06
3.6438734e-06
3.6442317e-06
3.6443689e-06
3.6444224e-06
3.6444447e-06
3.6444603e-06
3.644487e-06
3.6445378e-06
3.644608e-06
3.6446678e-06
3.6446914e-06
3.6446755e-06
3.6446017e-06
3.6445631e-06
3.6446582e-06
0.00069927375
0.00052391136
0.00031693028
0.00012015
2.7453798e-05
8.6028307e-06
4.5747357e-06
4.0383044e-06
4.0099189e-06
4.0340843e-06
4.0599742e-06
4.0755933e-06
4.0715984e-06
4.0512125e-06
4.0142214e-06
3.9351863e-06
3.8608596e-06
3.8808412e-06
3.9193528e-06
3.8651899e-06
3.8211122e-06
3.9322112e-06
4.1609764e-06
4.3400793e-06
4.3780323e-06
4.3061369e-06
4.1995629e-06
4.0587225e-06
3.8949287e-06
3.7726979e-06
3.7260239e-06
3.735788e-06
3.7759404e-06
3.862209e-06
3.9001595e-06
3.8107284e-06
3.7366209e-06
3.7974176e-06
3.9028082e-06
3.9625569e-06
4.0374509e-06
4.2059288e-06
4.3373909e-06
4.2714354e-06
4.1417941e-06
4.1051261e-06
4.0770284e-06
3.9813386e-06
3.8667872e-06
3.7789753e-06
3.7151677e-06
3.6588397e-06
3.6136818e-06
3.5722183e-06
3.532687e-06
3.4999014e-06
3.4595753e-06
3.4339439e-06
3.4269727e-06
3.4127187e-06
3.4108361e-06
3.4392824e-06
3.4574604e-06
3.4355329e-06
3.4103792e-06
3.4183771e-06
3.461284e-06
3.5165966e-06
3.5658041e-06
3.6054099e-06
3.6312273e-06
3.6452149e-06
3.6557021e-06
3.6593082e-06
3.6530493e-06
3.6434638e-06
3.6371743e-06
3.6355398e-06
3.6369567e-06
3.6394192e-06
3.6416091e-06
3.6430733e-06
3.6438743e-06
3.6442321e-06
3.6443693e-06
3.644423e-06
3.6444462e-06
3.644465e-06
3.6444982e-06
3.6445564e-06
3.6446275e-06
3.6446786e-06
3.6446901e-06
3.6446663e-06
3.6445807e-06
3.6445755e-06
0.0010095009
0.00098479757
0.00092861918
0.00083555061
0.00070113119
0.00052412842
0.00031603559
0.00011895889
2.7201019e-05
8.5597182e-06
4.5655935e-06
4.0347197e-06
4.0068601e-06
4.0310411e-06
4.0569214e-06
4.0725328e-06
4.0685016e-06
4.048096e-06
4.0111927e-06
3.9322139e-06
3.8577809e-06
3.877875e-06
3.916662e-06
3.8623975e-06
3.8180714e-06
3.9291794e-06
4.1580353e-06
4.3370141e-06
4.374725e-06
4.3025867e-06
4.1960605e-06
4.0554467e-06
3.8917937e-06
3.7697485e-06
3.7233828e-06
3.7333082e-06
3.7734197e-06
3.8597329e-06
3.8978406e-06
3.8082454e-06
3.7339752e-06
3.7950362e-06
3.9005991e-06
3.9601436e-06
4.0347668e-06
4.203295e-06
4.334899e-06
4.2686705e-06
4.1388236e-06
4.1025185e-06
4.0748018e-06
3.9791995e-06
3.8648087e-06
3.7772153e-06
3.7136711e-06
3.6573335e-06
3.6120121e-06
3.5687903e-06
3.5260159e-06
3.4912613e-06
3.4525307e-06
3.4295542e-06
3.4248411e-06
3.4119437e-06
3.4106534e-06
3.439335e-06
3.4577044e-06
3.4359147e-06
3.4107035e-06
3.4185425e-06
3.4614607e-06
3.5167386e-06
3.5657176e-06
3.6053822e-06
3.6315506e-06
3.6454481e-06
3.6554863e-06
3.6589781e-06
3.6528906e-06
3.6434677e-06
3.6372165e-06
3.6355711e-06
3.6369728e-06
3.6394265e-06
3.6416128e-06
3.6430751e-06
3.6438752e-06
3.6442327e-06
3.6443698e-06
3.6444239e-06
3.6444484e-06
3.6444713e-06
3.6445117e-06
3.6445761e-06
3.6446453e-06
3.6446861e-06
3.6446871e-06
3.6446538e-06
3.644564e-06
3.6445871e-06
0.00091080047
0.00095734898
0.00099347225
0.0010145326
0.0010152496
0.00098993486
0.00093282512
0.00083850012
0.00070255955
0.00052401198
0.00031492371
0.0001176424
2.6912439e-05
8.5110317e-06
4.5562811e-06
4.0311712e-06
4.0038494e-06
4.0280516e-06
4.0539237e-06
4.0695263e-06
4.0654561e-06
4.0450313e-06
4.008218e-06
3.9292889e-06
3.8547456e-06
3.8749696e-06
3.9140414e-06
3.8596611e-06
3.8150815e-06
3.9262148e-06
4.1551771e-06
4.3340371e-06
4.3714987e-06
4.2991151e-06
4.192638e-06
4.0522547e-06
3.8887413e-06
3.7668829e-06
3.7208275e-06
3.7309135e-06
3.7709891e-06
3.857341e-06
3.8956159e-06
3.805865e-06
3.7314347e-06
3.7927585e-06
3.898495e-06
3.9578495e-06
4.0322001e-06
4.2007867e-06
4.3325444e-06
4.2660591e-06
4.1360131e-06
4.1000636e-06
4.0727278e-06
3.9772116e-06
3.8629578e-06
3.7755179e-06
3.7121104e-06
3.6555145e-06
3.609437e-06
3.5636746e-06
3.5179859e-06
3.4827127e-06
3.4463417e-06
3.4259601e-06
3.4232013e-06
3.411419e-06
3.4105863e-06
3.4394317e-06
3.4579649e-06
3.4363037e-06
3.4110279e-06
3.4187162e-06
3.4616485e-06
3.5168772e-06
3.5656257e-06
3.6053734e-06
3.6318898e-06
3.6456716e-06
3.6552577e-06
3.658642e-06
3.6527308e-06
3.6434719e-06
3.6372598e-06
3.6356031e-06
3.6369895e-06