0 	36159.231
0.0023115 	43825.58
0.009234 	48264.685
0.0207225 	49837.124
0.036708 	50148.462
0.05709 	50019.657
0.0817455 	49722.169
0.11052 	49436.99
0.143238 	49150.811
0.1796955 	48884.625
0.2196705 	48646.879
0.262914 	48437.281
0.3091605 	48254.262
0.3581265 	48096.434
0.4095075 	47961.922
0.462987 	47848.002
0.518238 	47750.925
0.5749155 	47667.907
0.6326745 	47595.576
0.691155 	47531.631
0.75 	47474.119
0.808845 	47422.627
0.8673255 	47379.55
0.9250845 	47349.685
0.981762 	47335.737
1.037013 	47332.799
1.0904925 	47332.41
1.1418735 	47329.24
1.1908395 	47328.356
1.237086 	47331.126
1.2803295 	47336.224
1.3203045 	47342.123
1.356762 	47349.91
1.38948 	47367.028
1.4182545 	47391.994
1.44291 	47419.672
1.463292 	47450.998
1.4792775 	47477.445
1.4976885 	47518.372
1.5 	47541.325
