0 	50032.251
0.0023115 	49215.995
0.009234 	47837.294
0.0207225 	46868.56
0.036708 	46318.883
0.05709 	45976.697
0.0817455 	45656.899
0.11052 	45736.219
0.143238 	45725.02
0.1796955 	45715.337
0.2196705 	45724.845
0.262914 	45749.478
0.3091605 	45787.2
0.3581265 	45835.563
0.4095075 	45892.869
0.462987 	45955.159
0.518238 	46020.081
0.5749155 	46084.867
0.6326745 	46151.086
0.691155 	46219.151
0.75 	46286.615
0.808845 	46361.292
0.8673255 	46450.613
0.9250845 	46519.43
0.981762 	46573.149
1.037013 	46592.273
1.0904925 	46603.863
1.1418735 	46615.601
1.1908395 	46670.731
1.237086 	46870.614
1.2803295 	47274.803
1.3203045 	46830.47
1.356762 	47435.334
1.38948 	47401.431
1.4182545 	47516.683
1.44291 	46791.257
1.463292 	47064.22
1.4792775 	47190.895
1.4976885 	47717.27
1.5 	47721.376
