/*--------------------------------*- C++ -*----------------------------------*\
| =========                 |                                                 |
| \\      /  F ield         | OpenFOAM: The Open Source CFD Toolbox           |
|  \\    /   O peration     | Version:  2506                                  |
|   \\  /    A nd           | Website:  www.openfoam.com                      |
|    \\/     M anipulation  |                                                 |
\*---------------------------------------------------------------------------*/
FoamFile
{
    version     2.0;
    format      ascii;
    arch        "LSB;label=32;scalar=64";
    class       volScalarField;
    location    "0.00049";
    object      alphat;
}
// * * * * * * * * * * * * * * * * * * * * * * * * * * * * * * * * * * * * * //

dimensions      [1 -1 -1 0 0 0 0];

internalField   nonuniform List<scalar> 
3439
(
1.6647081e-09
1.718028e-09
1.7605223e-09
1.8068961e-09
1.9285926e-09
1.6120778e-09
1.6626774e-09
1.7153428e-09
1.7595724e-09
1.8216704e-09
1.9403351e-09
2.0422946e-09
2.1304242e-09
2.1973101e-09
2.2447755e-09
2.2667649e-09
2.252116e-09
1.3874057e-09
1.4005856e-09
1.4108419e-09
1.5048104e-09
1.5325546e-09
1.5698762e-09
1.6108008e-09
1.6612408e-09
1.7149191e-09
1.7641311e-09
1.8344511e-09
1.9464018e-09
2.0498241e-09
2.1421736e-09
2.2148652e-09
2.2676158e-09
2.2937797e-09
2.2776276e-09
2.3304671e-09
2.5372152e-09
2.8247922e-09
3.0084545e-09
1.3500868e-09
1.4630767e-09
1.5155777e-09
1.6103472e-09
1.4916092e-09
1.4570404e-09
1.4789685e-09
1.4573608e-09
1.4978657e-09
1.5326024e-09
1.5659637e-09
1.6091739e-09
1.6592343e-09
1.7139274e-09
1.7690566e-09
1.8425766e-09
1.9467425e-09
2.0492011e-09
2.1417628e-09
2.2195224e-09
2.2892487e-09
2.321734e-09
2.3068698e-09
2.3581448e-09
2.5582376e-09
2.8694772e-09
3.0317735e-09
3.0707981e-09
3.1793671e-09
1.3200302e-09
1.4440453e-09
1.5006096e-09
1.5904245e-09
1.5130691e-09
1.4987545e-09
1.5156926e-09
1.5361418e-09
1.4674846e-09
1.5323504e-09
1.5630672e-09
1.6052994e-09
1.6562526e-09
1.7110288e-09
1.7706791e-09
1.8434079e-09
1.943018e-09
2.0462925e-09
2.1393865e-09
2.2257751e-09
2.3083509e-09
2.3479213e-09
2.3258888e-09
2.3718465e-09
2.5765243e-09
2.8955519e-09
3.0781894e-09
3.1092882e-09
3.2224517e-09
3.398927e-09
3.5939695e-09
1.3046551e-09
1.4305913e-09
1.4870488e-09
1.5742255e-09
1.5179606e-09
1.5066437e-09
1.5234535e-09
1.5444735e-09
1.5207343e-09
1.5318154e-09
1.5630636e-09
1.6038246e-09
1.6530636e-09
1.7101035e-09
1.772409e-09
1.8434143e-09
1.9418105e-09
2.0402802e-09
2.1385853e-09
2.2340075e-09
2.3295441e-09
2.3764165e-09
2.3425482e-09
2.3731389e-09
2.5914037e-09
2.9147508e-09
3.1442057e-09
3.1529013e-09
3.2791754e-09
3.4564619e-09
3.6504041e-09
1.2787123e-09
1.4069257e-09
1.4775989e-09
1.5820444e-09
1.5195048e-09
1.4883261e-09
1.5089401e-09
1.5548175e-09
1.5773503e-09
1.5295889e-09
1.566367e-09
1.6033348e-09
1.6548328e-09
1.713125e-09
1.7767581e-09
1.848295e-09
1.9435001e-09
2.0429309e-09
2.145243e-09
2.2502164e-09
2.3550419e-09
2.3997415e-09
2.3548563e-09
2.3786612e-09
2.60803e-09
2.9517336e-09
3.1857099e-09
3.196924e-09
3.2964971e-09
3.4912517e-09
3.6722759e-09
3.8981052e-09
4.1288271e-09
1.2777661e-09
1.3928786e-09
1.4777601e-09
1.5705782e-09
1.5368868e-09
1.4770035e-09
1.4940197e-09
1.5435291e-09
1.6039431e-09
1.5438734e-09
1.5778393e-09
1.6151487e-09
1.6694993e-09
1.7325106e-09
1.7995513e-09
1.8743785e-09
1.9667302e-09
2.0685087e-09
2.1730667e-09
2.2826445e-09
2.3892747e-09
2.4303984e-09
2.3722064e-09
2.3925961e-09
2.6495959e-09
3.0226174e-09
3.1808365e-09
3.2492126e-09
3.3059802e-09
3.4864778e-09
3.6745688e-09
3.88739e-09
4.1174339e-09
1.3948398e-09
1.2859638e-09
1.3708079e-09
1.4705881e-09
1.5530256e-09
1.5628132e-09
1.4966479e-09
1.5079682e-09
1.5457975e-09
1.6049946e-09
1.6048345e-09
1.6004026e-09
1.6405022e-09
1.6936149e-09
1.7591451e-09
1.8297389e-09
1.9058678e-09
1.9970778e-09
2.1033232e-09
2.2114249e-09
2.3247343e-09
2.43065e-09
2.4571569e-09
2.3933357e-09
2.4336848e-09
2.7184462e-09
3.0915903e-09
3.2628756e-09
3.1700453e-09
3.3588748e-09
3.4958658e-09
3.6845846e-09
3.8982568e-09
4.1288517e-09
4.3830364e-09
4.6705882e-09
4.9855322e-09
5.3381963e-09
5.6895113e-09
6.0352073e-09
6.300298e-09
1.4044729e-09
1.3031119e-09
1.3441906e-09
1.4646652e-09
1.5429913e-09
1.5894037e-09
1.5283864e-09
1.532728e-09
1.5714938e-09
1.6132224e-09
1.6602937e-09
1.6233448e-09
1.6660914e-09
1.713771e-09
1.7745659e-09
1.8452287e-09
1.9205379e-09
2.0093264e-09
2.119241e-09
2.232125e-09
2.348301e-09
2.4547135e-09
2.4764221e-09
2.4409217e-09
2.5385771e-09
2.8318852e-09
3.1836017e-09
3.3166149e-09
3.2549265e-09
3.3787335e-09
3.5834005e-09
3.7376321e-09
3.960511e-09
4.2026293e-09
4.4714845e-09
4.7456226e-09
5.0911432e-09
5.4645245e-09
5.8080256e-09
6.1507581e-09
6.454647e-09
6.6797246e-09
6.8110648e-09
6.9625843e-09
1.4146479e-09
1.327338e-09
1.3332692e-09
1.472424e-09
1.5348842e-09
1.602421e-09
1.5424971e-09
1.5348628e-09
1.5705089e-09
1.6171615e-09
1.6759943e-09
1.6728701e-09
1.6871885e-09
1.7389674e-09
1.8049665e-09
1.8833864e-09
1.9706313e-09
2.0697905e-09
2.1969569e-09
2.3290466e-09
2.4616199e-09
2.5809796e-09
2.6271214e-09
2.6522438e-09
2.7515925e-09
3.0435537e-09
3.4072853e-09
3.5150398e-09
3.4481319e-09
3.5774856e-09
3.7871997e-09
3.9463302e-09
4.1527624e-09
4.4017043e-09
4.6929017e-09
5.0108642e-09
5.3489647e-09
5.7272495e-09
6.0812601e-09
6.4325092e-09
6.7645056e-09
7.009916e-09
7.1630689e-09
7.3309992e-09
7.3424698e-09
8.2420047e-09
2.2933607e-07
0.00012184963
0.0025479989
1.4168474e-09
1.3483529e-09
1.3045117e-09
1.4504705e-09
1.5189928e-09
1.6125226e-09
1.5515327e-09
1.5457675e-09
1.5957256e-09
1.671277e-09
1.7676053e-09
1.857049e-09
1.9192493e-09
2.0290073e-09
2.1612292e-09
2.3052145e-09
2.4486577e-09
2.5987002e-09
2.7691022e-09
2.9330104e-09
3.0855178e-09
3.2105666e-09
3.2569767e-09
3.2908826e-09
3.3704582e-09
3.6737311e-09
4.0367408e-09
4.1485838e-09
4.0017389e-09
4.0782193e-09
4.2167039e-09
4.4685322e-09
4.6275358e-09
4.8456108e-09
5.1102109e-09
5.4610298e-09
5.7982492e-09
6.1370758e-09
6.5269859e-09
6.916042e-09
7.2503595e-09
7.4959401e-09
7.6363019e-09
7.789541e-09
7.8070989e-09
8.4701728e-09
1.5030752e-07
8.9401485e-05
0.0023896663
0.0074293026
0.012483814
0.017151627
0.021286754
0.024862946
1.4273338e-09
1.3813789e-09
1.3156182e-09
1.4710112e-09
1.5806104e-09
1.7414943e-09
1.7229313e-09
1.7634101e-09
1.8718692e-09
2.0195429e-09
2.1844461e-09
2.3154665e-09
2.4220881e-09
2.5667065e-09
2.7254852e-09
2.88192e-09
3.0265122e-09
3.1741482e-09
3.3487804e-09
3.5193761e-09
3.6858427e-09
3.8281342e-09
3.8912926e-09
3.9004556e-09
3.9454046e-09
4.2478305e-09
4.6102369e-09
4.6939943e-09
4.4919257e-09
4.4869954e-09
4.6278282e-09
4.7203353e-09
5.0367308e-09
5.1688562e-09
5.4296206e-09
5.7716666e-09
6.1550942e-09
6.4950632e-09
6.9172059e-09
7.3492565e-09
7.6601471e-09
7.894214e-09
8.0844005e-09
8.2287176e-09
8.2761921e-09
8.7832138e-09
8.5655457e-08
5.8854547e-05
0.0021840866
0.0073941395
0.012655874
0.017536834
0.021869744
0.025575273
1.5459976e-09
1.532978e-09
1.453982e-09
1.6483088e-09
1.802141e-09
2.0169888e-09
2.0408793e-09
2.0724986e-09
2.1545263e-09
2.2260336e-09
2.280364e-09
2.2948196e-09
2.2308911e-09
2.2022686e-09
2.2104133e-09
2.2466091e-09
2.2957013e-09
2.3666356e-09
2.4814304e-09
2.6121342e-09
2.76167e-09
2.9249218e-09
3.0477706e-09
3.1333074e-09
3.2692325e-09
3.648407e-09
4.0892381e-09
4.2679838e-09
4.1481177e-09
4.2216545e-09
4.4065711e-09
4.6326861e-09
4.8174074e-09
5.1961187e-09
5.4444961e-09
5.7821181e-09
6.1631211e-09
6.5683551e-09
6.9917305e-09
7.4086815e-09
7.7093012e-09
7.951342e-09
8.2332237e-09
8.3799954e-09
8.4225252e-09
8.7099196e-09
3.1001302e-08
2.04877e-05
0.0015901087
0.0067862347
0.012142194
0.017132804
0.021569189
0.025305032
1.6746363e-09
1.5731625e-09
1.7137405e-09
1.8357256e-09
1.9402625e-09
1.8812437e-09
1.7936111e-09
1.7590674e-09
1.7593941e-09
1.7763988e-09
1.7996519e-09
1.7883109e-09
1.7835508e-09
1.8144674e-09
1.8697128e-09
1.9340902e-09
2.0133975e-09
2.1253037e-09
2.2502524e-09
2.3902814e-09
2.5480053e-09
2.6625171e-09
2.719644e-09
2.8450312e-09
3.1964648e-09
3.5987133e-09
3.7474555e-09
3.6357025e-09
3.6980099e-09
3.9234283e-09
4.1176248e-09
4.3505626e-09
4.574251e-09
4.9568012e-09
5.2682036e-09
5.6551685e-09
6.0708962e-09
6.5570368e-09
7.0096676e-09
7.370162e-09
7.6797588e-09
8.0253133e-09
8.2464347e-09
8.3647818e-09
8.4585444e-09
1.2652508e-08
2.7619572e-06
0.00074785161
0.0054177632
0.010817834
0.015915054
0.020484524
0.024309727
0.027480502
0.030214858
0.032691127
0.035124532
1.5288268e-09
1.4126181e-09
1.4700943e-09
1.5762686e-09
1.6493448e-09
1.6542425e-09
1.5899675e-09
1.5793927e-09
1.6045055e-09
1.6356797e-09
1.6752307e-09
1.6988934e-09
1.7069306e-09
1.7450658e-09
1.8044547e-09
1.8731909e-09
1.9548296e-09
2.0689606e-09
2.1924153e-09
2.3330122e-09
2.4961807e-09
2.617378e-09
2.642206e-09
2.7739164e-09
3.1274917e-09
3.5235319e-09
3.6525888e-09
3.511704e-09
3.5863942e-09
3.7929573e-09
3.938901e-09
4.1638096e-09
4.4196499e-09
4.7041974e-09
5.0696951e-09
5.3987514e-09
5.7969113e-09
6.2561411e-09
6.7295717e-09
7.1012269e-09
7.4261624e-09
7.7853113e-09
8.0412054e-09
8.2237371e-09
8.2720102e-09
9.2014642e-09
2.7889384e-07
0.00024355373
0.0038384454
0.0092847372
0.014460629
0.019043971
0.022864328
0.026043171
0.028824891
0.031369648
0.033903897
0.036398634
1.4404697e-09
1.3429241e-09
1.3738188e-09
1.4978341e-09
1.5578366e-09
1.6189477e-09
1.5470701e-09
1.5438589e-09
1.5708567e-09
1.6144874e-09
1.6615159e-09
1.6922938e-09
1.7005576e-09
1.7372399e-09
1.7962744e-09
1.8659767e-09
1.9490384e-09
2.06283e-09
2.1863856e-09
2.3295012e-09
2.4963794e-09
2.6281357e-09
2.6334322e-09
2.7718002e-09
3.1549055e-09
3.5750417e-09
3.6895758e-09
3.523663e-09
3.5985693e-09
3.7686743e-09
3.9087144e-09
4.1449655e-09
4.4136805e-09
4.6922887e-09
5.0003492e-09
5.375559e-09
5.7253197e-09
6.1803162e-09
6.6363719e-09
7.0133384e-09
7.3887687e-09
7.726813e-09
7.9957241e-09
8.2221373e-09
8.246734e-09
8.4681426e-09
4.3181192e-08
5.4661118e-05
0.0023899308
0.007794863
0.013037822
0.017665987
0.02156844
0.024848032
0.027765077
0.030459929
0.033148144
0.035787879
0.038185123
1.4244453e-09
1.3468499e-09
1.3395839e-09
1.4634194e-09
1.5287208e-09
1.6234451e-09
1.549768e-09
1.542395e-09
1.5673976e-09
1.605721e-09
1.6603328e-09
1.6882293e-09
1.7005048e-09
1.736245e-09
1.7948172e-09
1.8656398e-09
1.9495092e-09
2.0625546e-09
2.1856923e-09
2.3336991e-09
2.5021928e-09
2.6411904e-09
2.6371919e-09
2.7686601e-09
3.1893701e-09
3.6436622e-09
3.7616861e-09
3.5796422e-09
3.6156551e-09
3.7787794e-09
3.9409938e-09
4.1920295e-09
4.4454988e-09
4.7506444e-09
5.0471047e-09
5.3819056e-09
5.7928738e-09
6.1931274e-09
6.6492009e-09
7.0272512e-09
7.4153217e-09
7.8341548e-09
8.1118322e-09
8.4171904e-09
8.4517613e-09
8.5069214e-09
1.6865772e-08
1.1427645e-05
0.001399086
0.0066373406
0.011971141
0.016690327
0.020671894
0.024057623
0.027084118
0.029895884
0.032703116
0.035498852
0.038068919
0.040487498
1.4243726e-09
1.3614858e-09
1.3174317e-09
1.4462222e-09
1.515815e-09
1.6289964e-09
1.5531574e-09
1.541613e-09
1.5605297e-09
1.6005563e-09
1.6565653e-09
1.7010787e-09
1.704361e-09
1.7384531e-09
1.7964144e-09
1.8693264e-09
1.9518465e-09
2.0631219e-09
2.1872129e-09
2.3371572e-09
2.5118721e-09
2.6529733e-09
2.6419665e-09
2.7655514e-09
3.2298079e-09
3.7188928e-09
3.8321143e-09
3.6447721e-09
3.6403613e-09
3.8058097e-09
3.9817582e-09
4.2321111e-09
4.4895045e-09
4.7896909e-09
5.1408273e-09
5.4292149e-09
5.8090708e-09
6.327311e-09
6.722481e-09
7.090036e-09
7.4870865e-09
7.9201263e-09
8.2710006e-09
8.5874786e-09
8.6513366e-09
8.6593143e-09
1.1227269e-08
2.0634431e-06
0.00075766199
0.0056694785
0.011240826
0.016171396
0.020264846
0.023727777
0.026806323
0.029670658
0.032558226
0.035454058
0.038156995
0.040685951
0.043370101
1.4252057e-09
1.379028e-09
1.3191342e-09
1.4254726e-09
1.5059394e-09
1.6258226e-09
1.5603546e-09
1.5509102e-09
1.562155e-09
1.5951038e-09
1.6474282e-09
1.7021991e-09
1.7094676e-09
1.7414326e-09
1.7992353e-09
1.8730037e-09
1.9546878e-09
2.0655216e-09
2.1912523e-09
2.3427213e-09
2.5191531e-09
2.660752e-09
2.6424306e-09
2.7836096e-09
3.2621147e-09
3.7859105e-09
3.9163489e-09
3.7113192e-09
3.6905713e-09
3.8513159e-09
4.0310493e-09
4.2580699e-09
4.5491768e-09
4.8779544e-09
5.1574239e-09
5.5110582e-09
5.9131352e-09
6.3142303e-09
6.9103225e-09
7.2201127e-09
7.5857731e-09
8.0353559e-09
8.4293365e-09
8.8002865e-09
8.8792134e-09
8.8805019e-09
9.7090454e-09
3.3912162e-07
0.00036487025
0.0047090256
0.010543893
0.015722263
0.020013632
0.023636408
0.026866137
0.029868246
0.032907258
0.035959165
0.038787895
0.041403196
0.044179508
1.4251675e-09
1.3913232e-09
1.3103857e-09
1.4072521e-09
1.5022894e-09
1.6080049e-09
1.5864421e-09
1.5526639e-09
1.5559056e-09
1.597107e-09
1.648305e-09
1.7012924e-09
1.7211023e-09
1.7457051e-09
1.8033895e-09
1.8781564e-09
1.9599188e-09
2.070115e-09
2.1972322e-09
2.3491542e-09
2.5256691e-09
2.6727019e-09
2.6518026e-09
2.8053473e-09
3.2990772e-09
3.8554166e-09
4.0163285e-09
3.78328e-09
3.7660804e-09
3.9034727e-09
4.0776854e-09
4.3239151e-09
4.6154705e-09
4.9132616e-09
5.2030934e-09
5.5965022e-09
6.002812e-09
6.4823073e-09
6.8510537e-09
7.4716231e-09
7.7945837e-09
8.1881463e-09
8.5679101e-09
8.9663005e-09
9.1247066e-09
9.1618288e-09
9.4807906e-09
7.1596079e-08
0.0001505341
0.0037586217
0.0098293537
0.015245229
0.019724616
0.023508623
0.026874298
0.030013573
0.033190774
0.036421831
0.03945629
0.042231409
0.04512641
1.4282673e-09
1.4013212e-09
1.328137e-09
1.3903117e-09
1.4953555e-09
1.5820539e-09
1.6126694e-09
1.5626287e-09
1.566787e-09
1.5984629e-09
1.6465409e-09
1.7011827e-09
1.7255729e-09
1.7526325e-09
1.808776e-09
1.8834893e-09
1.9676043e-09
2.0755332e-09
2.2031589e-09
2.3555974e-09
2.5363064e-09
2.6873827e-09
2.6650331e-09
2.8266007e-09
3.3429264e-09
3.9415174e-09
4.1286844e-09
3.8696103e-09
3.8466835e-09
3.955014e-09
4.1359062e-09
4.3982795e-09
4.652629e-09
4.9382847e-09
5.2803055e-09
5.6739281e-09
6.1210753e-09
6.589132e-09
7.0756514e-09
7.4383813e-09
7.9989832e-09
8.4638239e-09
8.8181991e-09
9.1659142e-09
9.3452264e-09
9.389481e-09
9.5447557e-09
2.44794e-08
5.2094574e-05
0.002882944
0.0092469177
0.014982226
0.019698035
0.023666896
0.027198928
0.030502679
0.033852559
0.037264821
0.04050309
0.043434268
0.046423681
1.4313547e-09
1.4062277e-09
1.3387429e-09
1.3693321e-09
1.4897708e-09
1.5594474e-09
1.6321073e-09
1.5703025e-09
1.5713041e-09
1.5989511e-09
1.6489486e-09
1.7088717e-09
1.7304182e-09
1.7612104e-09
1.8177908e-09
1.89113e-09
1.9755623e-09
2.0813081e-09
2.2106844e-09
2.3636968e-09
2.5485441e-09
2.7058008e-09
2.6810444e-09
2.8457588e-09
3.387418e-09
4.030671e-09
4.2414433e-09
3.9625906e-09
3.9075723e-09
4.0351307e-09
4.1917378e-09
4.4385829e-09
4.7060687e-09
5.0093759e-09
5.319517e-09
5.779208e-09
6.2467765e-09
6.7111543e-09
7.1940714e-09
7.6642088e-09
8.097148e-09
8.5978753e-09
9.1819632e-09
9.4362699e-09
9.649215e-09
9.662645e-09
9.6727621e-09
1.4164088e-08
1.3884636e-05
0.002020804
0.0085659265
0.014645602
0.019660367
0.023867552
0.027623103
0.031136284
0.034693827
0.038332347
0.041819946
0.044899208
1.4343991e-09
1.4338377e-09
1.4150158e-09
1.3604594e-09
1.3510919e-09
1.4717129e-09
1.5429575e-09
1.6479409e-09
1.5797767e-09
1.5815684e-09
1.6042616e-09
1.6481023e-09
1.7077121e-09
1.7386885e-09
1.7706284e-09
1.826978e-09
1.8988983e-09
1.9830144e-09
2.0890659e-09
2.2175912e-09
2.3714948e-09
2.5610801e-09
2.7247078e-09
2.6980021e-09
2.8642075e-09
3.4296613e-09
4.1183326e-09
4.3634347e-09
4.0557488e-09
3.9929193e-09
4.0986636e-09
4.2581379e-09
4.4841787e-09
4.7829286e-09
5.0877459e-09
5.3923718e-09
5.873237e-09
6.357891e-09
6.8135193e-09
7.3294158e-09
7.8349311e-09
8.2771813e-09
8.8334539e-09
9.2462438e-09
9.6707895e-09
9.9927012e-09
1.0009232e-08
9.9726004e-09
1.1424005e-08
2.7266858e-06
0.0012418626
0.0076054243
0.013858386
0.019025966
0.02335181
0.027233397
0.030851303
0.034506892
0.038250225
0.041848381
0.044957597
1.4361615e-09
1.4363726e-09
1.4231498e-09
1.370915e-09
1.3401167e-09
1.4605433e-09
1.5375898e-09
1.6657527e-09
1.5889025e-09
1.5850441e-09
1.6026567e-09
1.6487973e-09
1.7067277e-09
1.7449363e-09
1.7768471e-09
1.8334e-09
1.9064245e-09
1.9913576e-09
2.0960539e-09
2.2238952e-09
2.3786733e-09
2.5741168e-09
2.7447709e-09
2.7152665e-09
2.879141e-09
3.4684173e-09
4.1990843e-09
4.4863154e-09
4.1440172e-09
4.059141e-09
4.1603827e-09
4.2825825e-09
4.535431e-09
4.8646122e-09
5.1673473e-09
5.4761705e-09
5.9611526e-09
6.4531883e-09
6.9122791e-09
7.4525091e-09
7.9926646e-09
8.4850803e-09
8.9381297e-09
9.569474e-09
9.8627345e-09
9.9338858e-09
1.030052e-08
1.0343819e-08
1.0834315e-08
4.3332416e-07
0.00066869464
0.0065283054
0.012972541
0.018310786
0.022759826
0.026789344
0.030533927
0.034342812
0.038235843
0.041901872
1.4379983e-09
1.4386554e-09
1.4280764e-09
1.3911247e-09
1.3397882e-09
1.4465553e-09
1.531884e-09
1.6494852e-09
1.6114124e-09
1.5945237e-09
1.6087654e-09
1.6508877e-09
1.7068762e-09
1.7549526e-09
1.7832104e-09
1.8367506e-09
1.9110087e-09
1.9974716e-09
2.0989529e-09
2.2277582e-09
2.3845332e-09
2.5871153e-09
2.7622747e-09
2.7277418e-09
2.8856057e-09
3.5020618e-09
4.2723441e-09
4.5909914e-09
4.2352486e-09
4.1214885e-09
4.2159269e-09
4.3469796e-09
4.5596673e-09
4.8601671e-09
5.2396365e-09
5.5471391e-09
5.9868949e-09
6.5345418e-09
7.0285313e-09
7.5775862e-09
8.1336058e-09
8.5903674e-09
9.1991432e-09
9.7841928e-09
1.0230107e-08
1.0340057e-08
1.0314623e-08
1.0324415e-08
1.0725105e-08
7.4713508e-08
0.00031195755
0.0054229216
0.012104984
0.017699695
0.022357094
0.02662131
0.030619223
0.034696352
0.038851641
0.042641081
1.4396984e-09
1.440885e-09
1.4324295e-09
1.4056366e-09
1.3464163e-09
1.431274e-09
1.5267237e-09
1.626893e-09
1.641164e-09
1.5964008e-09
1.6072074e-09
1.6462805e-09
1.703064e-09
1.7551658e-09
1.7756835e-09
1.8246956e-09
1.9046433e-09
2.0013689e-09
2.1008016e-09
2.2317498e-09
2.3903282e-09
2.5974998e-09
2.7736147e-09
2.7316707e-09
2.8844796e-09
3.5322298e-09
4.3420086e-09
4.6794933e-09
4.3295305e-09
4.1957559e-09
4.2727043e-09
4.3992565e-09
4.6158117e-09
4.8877477e-09
5.2062111e-09
5.573598e-09
6.0561798e-09
6.6076966e-09
7.1275751e-09
7.638143e-09
8.204222e-09
8.7542499e-09
9.3735149e-09
1.0001246e-08
1.0533975e-08
1.069826e-08
1.0699969e-08
1.0725982e-08
1.0921301e-08
2.2985551e-08
0.00011865643
0.0043383708
0.011399191
0.01722018
0.022130638
0.026646184
0.030932149
0.035330021
0.03982601
0.043657621
1.4410651e-09
1.442623e-09
1.4354261e-09
1.4164205e-09
1.3629954e-09
1.4073134e-09
1.5195199e-09
1.6002553e-09
1.6678063e-09
1.606683e-09
1.6129111e-09
1.6491173e-09
1.7016659e-09
1.7519585e-09
1.7667555e-09
1.820876e-09
1.8947625e-09
1.994393e-09
2.1031402e-09
2.2361452e-09
2.395034e-09
2.6052666e-09
2.7832334e-09
2.7318267e-09
2.8854855e-09
3.5646963e-09
4.4149234e-09
4.7712609e-09
4.4153954e-09
4.2692182e-09
4.3375572e-09
4.4555897e-09
4.6694851e-09
4.9311596e-09
5.2524685e-09
5.6222953e-09
6.0787077e-09
6.6303394e-09
7.1816491e-09
7.6901806e-09
8.2410213e-09
8.8862192e-09
9.5466671e-09
1.0192775e-08
1.0794907e-08
1.1043606e-08
1.1077915e-08
1.1083303e-08
1.1299012e-08
1.4804431e-08
3.6105631e-05
0.0032170062
0.010281622
0.016281443
0.021488277
0.026275593
0.03078372
0.035432109
0.040050151
1.4392411e-09
1.4420952e-09
1.4440493e-09
1.4380844e-09
1.4235239e-09
1.3792476e-09
1.3893662e-09
1.5133528e-09
1.578364e-09
1.6816088e-09
1.6106664e-09
1.6156488e-09
1.6469105e-09
1.700433e-09
1.7492478e-09
1.7693464e-09
1.8094184e-09
1.8676977e-09
1.9600923e-09
2.1013567e-09
2.2406626e-09
2.399117e-09
2.6112322e-09
2.7945965e-09
2.7330757e-09
2.8906466e-09
3.598612e-09
4.4889357e-09
4.8641661e-09
4.5006233e-09
4.3414865e-09
4.4069752e-09
4.5195815e-09
4.7296868e-09
4.9817477e-09
5.3015856e-09
5.6894414e-09
6.1622591e-09
6.652121e-09
7.183947e-09
7.7951496e-09
8.3039626e-09
8.9542919e-09
9.6368173e-09
1.0328432e-08
1.0987013e-08
1.1316397e-08
1.1393011e-08
1.1442689e-08
1.1730223e-08
1.308615e-08
8.4108424e-06
0.0020799505
0.0089950039
0.014926355
0.020136013
0.024871445
0.029442446
0.034094087
1.4446657e-09
1.4403123e-09
1.4429143e-09
1.4451127e-09
1.4399424e-09
1.4306313e-09
1.3993813e-09
1.3707898e-09
1.4944095e-09
1.56502e-09
1.6970569e-09
1.620332e-09
1.6199205e-09
1.6468392e-09
1.6960355e-09
1.7480762e-09
1.7671476e-09
1.7921336e-09
1.8435648e-09
1.9456402e-09
2.0612929e-09
2.2389271e-09
2.4021049e-09
2.6183587e-09
2.8084219e-09
2.7351951e-09
2.8960109e-09
3.6327023e-09
4.5621912e-09
4.9554658e-09
4.5909507e-09
4.4198271e-09
4.4819474e-09
4.5874304e-09
4.7925181e-09
5.0442827e-09
5.3597509e-09
5.7576827e-09
6.2366888e-09
6.7526915e-09
7.2789971e-09
7.8127198e-09
8.358043e-09
9.0031143e-09
9.6726367e-09
1.0437207e-08
1.1014841e-08
1.1407174e-08
1.157616e-08
1.1729294e-08
1.2024628e-08
1.2531258e-08
1.55848e-06
0.0012644079
0.0080213082
0.014389494
0.019956034
0.025083957
0.030442534
0.035913021
1.4466309e-09
1.4414369e-09
1.4436798e-09
1.4460852e-09
1.4421754e-09
1.4364985e-09
1.4172083e-09
1.3642842e-09
1.4851185e-09
1.5581394e-09
1.6852187e-09
1.6387406e-09
1.6280395e-09
1.6514835e-09
1.6980357e-09
1.7524762e-09
1.7657145e-09
1.786466e-09
1.8456407e-09
1.9166658e-09
2.0332601e-09
2.2104623e-09
2.4129279e-09
2.6377925e-09
2.8342249e-09
2.7484648e-09
2.919391e-09
3.6966882e-09
4.6741403e-09
5.0909508e-09
4.7128233e-09
4.5224958e-09
4.5821785e-09
4.6874786e-09
4.893497e-09
5.1417247e-09
5.4523927e-09
5.8537197e-09
6.3390306e-09
6.8779334e-09
7.4363453e-09
7.9762134e-09
8.4990635e-09
9.0829251e-09
9.8342509e-09
1.0520227e-08
1.1129659e-08
1.151627e-08
1.1720621e-08
1.1882936e-08
1.2225131e-08
1.2579135e-08
2.1677962e-07
0.0006748403
0.0068785671
0.013593704
0.019456629
0.024992997
0.030837411
1.4618331e-09
1.4487673e-09
1.4427498e-09
1.4445353e-09
1.4469207e-09
1.4452404e-09
1.4533312e-09
1.4425415e-09
1.3577929e-09
1.4713218e-09
1.5500976e-09
1.6640272e-09
1.6682141e-09
1.6308806e-09
1.6494784e-09
1.6951286e-09
1.7519406e-09
1.7721235e-09
1.8023284e-09
1.864795e-09
1.9470693e-09
2.0967313e-09
2.2311517e-09
2.4811406e-09
2.7894581e-09
3.0015129e-09
2.9092025e-09
3.1285112e-09
4.0001542e-09
5.0952626e-09
5.5573968e-09
5.1217008e-09
4.8779625e-09
4.9448619e-09
5.0742724e-09
5.3097475e-09
5.5719371e-09
5.8976578e-09
6.3279363e-09
6.8399148e-09
7.3990655e-09
7.9582984e-09
8.4509044e-09
8.9410181e-09
9.5796913e-09
1.0307374e-08
1.0970847e-08
1.1633045e-08
1.1996278e-08
1.2214291e-08
1.2413861e-08
1.2749909e-08
1.3045337e-08
4.134448e-08
0.00031987306
0.0058695566
0.013043747
0.01922416
0.024807594
0.030517445
1.4647474e-09
1.4510985e-09
1.4443037e-09
1.4455556e-09
1.447674e-09
1.4442858e-09
1.4560145e-09
1.4465022e-09
1.3756069e-09
1.4560988e-09
1.5444274e-09
1.632785e-09
1.693934e-09
1.6384763e-09
1.6560371e-09
1.6976649e-09
1.7520981e-09
1.7897488e-09
1.8106494e-09
1.8488927e-09
1.8911874e-09
1.9840779e-09
2.1592222e-09
2.3220613e-09
2.6371259e-09
2.9973051e-09
2.9138593e-09
3.1396861e-09
4.0463161e-09
5.1732361e-09
5.6271546e-09
5.2110118e-09
4.9717814e-09
5.0348846e-09
5.1779576e-09
5.4114286e-09
5.6530068e-09
5.9669746e-09
6.4007801e-09
6.9110404e-09
7.4691724e-09
8.058155e-09
8.6080497e-09
9.1187442e-09
9.7788389e-09
1.0588412e-08
1.126413e-08
1.1917057e-08
1.2338119e-08
1.2532029e-08
1.2725614e-08
1.3090692e-08
1.3429458e-08
1.9353532e-08
0.00012776501
0.0045562706
0.011829501
0.018012476
0.023532542
0.029031916
1.5016636e-09
1.4984365e-09
1.4863193e-09
1.4677851e-09
1.453579e-09
1.4460747e-09
1.4467307e-09
1.448784e-09
1.4435829e-09
1.4444845e-09
1.4417896e-09
1.3880729e-09
1.4288929e-09
1.5416934e-09
1.6128518e-09
1.7133037e-09
1.6443113e-09
1.6608957e-09
1.698782e-09
1.7530676e-09
1.796698e-09
1.8171272e-09
1.8181942e-09
1.8440625e-09
1.9278884e-09
2.0365145e-09
2.1638195e-09
2.3931469e-09
2.6701053e-09
2.7275011e-09
2.950705e-09
3.8171267e-09
4.9003703e-09
5.3453193e-09
4.9625805e-09
4.7460741e-09
4.8160733e-09
4.9526106e-09
5.1497308e-09
5.3538946e-09
5.6419031e-09
6.064274e-09
6.5625781e-09
7.1202009e-09
7.7273084e-09
8.3225346e-09
8.8829213e-09
9.5385238e-09
1.0379667e-08
1.1138384e-08
1.1794939e-08
1.2250601e-08
1.255327e-08
1.2767802e-08
1.3140261e-08
1.3641879e-08
1.5884646e-08
4.4370399e-05
0.0035831709
0.011370491
0.018094399
0.024223974
1.5027976e-09
1.5001858e-09
1.4891159e-09
1.4708694e-09
1.4561392e-09
1.4479961e-09
1.4480073e-09
1.4499334e-09
1.4452837e-09
1.4479444e-09
1.4508221e-09
1.4078613e-09
1.422197e-09
1.5266943e-09
1.5970844e-09
1.7241651e-09
1.6519494e-09
1.6642855e-09
1.7004778e-09
1.754227e-09
1.8101274e-09
1.8219149e-09
1.8326351e-09
1.8622197e-09
1.9430747e-09
1.9953891e-09
2.1078354e-09
2.3373185e-09
2.5323897e-09
2.547672e-09
2.8718416e-09
3.7681988e-09
4.8480986e-09
5.2936861e-09
4.9311175e-09
4.7348009e-09
4.8447556e-09
5.0034832e-09
5.1937512e-09
5.3917598e-09
5.6700034e-09
6.1114115e-09
6.6150365e-09
7.1820092e-09
7.8102401e-09
8.4126417e-09
8.9388342e-09
9.5494637e-09
1.0367972e-08
1.1231327e-08
1.2010903e-08
1.2501794e-08
1.2736945e-08
1.2937528e-08
1.3206113e-08
1.3533249e-08
1.4904247e-08
1.0461639e-05
0.0024765779
0.010002656
0.016655626
0.022760952
1.5039771e-09
1.5018557e-09
1.4917894e-09
1.4739607e-09
1.4587397e-09
1.4500091e-09
1.4493228e-09
1.4509691e-09
1.4466871e-09
1.4509838e-09
1.4581983e-09
1.4264953e-09
1.4013878e-09
1.5135282e-09
1.5909864e-09
1.7351811e-09
1.6643264e-09
1.6711106e-09
1.7029432e-09
1.7552584e-09
1.816561e-09
1.8414165e-09
1.849989e-09
1.8901827e-09
1.9242604e-09
1.9211086e-09
1.8891575e-09
1.8446553e-09
2.3607483e-09
2.3551471e-09
2.6883159e-09
3.7226451e-09
4.8223243e-09
5.2777925e-09
4.9110106e-09
4.6962832e-09
4.7988597e-09
4.9943244e-09
5.2394233e-09
5.4635109e-09
5.7339755e-09
6.1812463e-09
6.6900599e-09
7.2359744e-09
7.8650181e-09
8.5648269e-09
9.2504151e-09
9.896508e-09
1.0667097e-08
1.169484e-08
1.2420471e-08
1.2882412e-08
1.3091969e-08
1.343656e-08
1.3606554e-08
1.4302542e-08
1.5077178e-08
1.7225323e-06
0.001653689
0.0089145294
0.015845542
0.022097418
1.5031385e-09
1.5051828e-09
1.5034714e-09
1.4943589e-09
1.4770639e-09
1.4613788e-09
1.4520694e-09
1.450669e-09
1.4518918e-09
1.4483497e-09
1.4534544e-09
1.4631433e-09
1.4426195e-09
1.403192e-09
1.4986435e-09
1.5846834e-09
1.7168735e-09
1.6877788e-09
1.675638e-09
1.70581e-09
1.7570799e-09
1.8200205e-09
1.8564216e-09
1.8689378e-09
1.9205398e-09
1.9106887e-09
1.7768107e-09
1.3255404e-09
1.1403043e-09
1.4427567e-09
2.1433903e-09
2.4606722e-09
3.3316771e-09
4.7769162e-09
5.4126699e-09
5.0339086e-09
4.7527522e-09
4.8343281e-09
5.0258992e-09
5.2239156e-09
5.4149556e-09
5.7655774e-09
6.2345459e-09
6.7562724e-09
7.3356565e-09
8.0324992e-09
8.8405885e-09
9.426771e-09
1.0049032e-08
1.0751903e-08
1.1819411e-08
1.2653609e-08
1.3186878e-08
1.3556006e-08
1.3809948e-08
1.405925e-08
1.4533712e-08
1.5296494e-08
2.2138695e-07
0.00098311371
0.0077193296
0.015012735
1.4992955e-09
1.498805e-09
1.5004135e-09
1.5037996e-09
1.5063724e-09
1.50504e-09
1.4968537e-09
1.4802003e-09
1.464086e-09
1.4541838e-09
1.4520516e-09
1.4525216e-09
1.4485182e-09
1.4569454e-09
1.4679977e-09
1.4556959e-09
1.4046741e-09
1.4811539e-09
1.5794428e-09
1.6893099e-09
1.7221139e-09
1.6760789e-09
1.7100278e-09
1.7594114e-09
1.8221735e-09
1.8697509e-09
1.8945517e-09
1.9085296e-09
1.9093119e-09
1.4614646e-09
8.4886859e-10
1.1865752e-09
1.6992173e-09
1.4065988e-09
2.0248805e-09
2.5751477e-09
3.8082759e-09
5.1014527e-09
5.0387418e-09
4.7553905e-09
4.8400077e-09
5.0291927e-09
5.2354172e-09
5.435092e-09
5.7416433e-09
6.2080244e-09
6.9011107e-09
7.5147137e-09
8.2614601e-09
8.8917689e-09
9.7586819e-09
1.0458948e-08
1.1222057e-08
1.2187102e-08
1.3006167e-08
1.3746724e-08
1.4314479e-08
1.4626549e-08
1.5017373e-08
1.5084671e-08
1.5436148e-08
4.1291282e-08
0.00048560566
0.0067733955
0.014556704
1.5005821e-09
1.4997291e-09
1.5012131e-09
1.5044976e-09
1.5075138e-09
1.5065478e-09
1.4992788e-09
1.4833726e-09
1.4668923e-09
1.456377e-09
1.4534958e-09
1.453463e-09
1.4482698e-09
1.4582134e-09
1.4718009e-09
1.4652681e-09
1.4173763e-09
1.4649271e-09
1.5750981e-09
1.6632696e-09
1.7490212e-09
1.6828977e-09
1.7119572e-09
1.7609626e-09
1.8228151e-09
1.8784231e-09
1.91462e-09
1.947336e-09
1.9136744e-09
1.3511703e-09
1.025665e-09
1.9965907e-09
2.1639523e-09
1.8023432e-09
1.1849213e-09
1.4889959e-09
2.1994455e-09
3.1391242e-09
4.4842233e-09
4.669507e-09
4.775626e-09
4.9743142e-09
5.1622916e-09
5.3471758e-09
5.7405949e-09
6.3282453e-09
6.6892401e-09
7.66079e-09
8.3261573e-09
9.0486724e-09
9.9707278e-09
1.0912225e-08
1.1678396e-08
1.256646e-08
1.3115051e-08
1.4048821e-08
1.4709834e-08
1.516756e-08
1.5142501e-08
1.5107375e-08
1.5333218e-08
1.9714947e-08
0.00017999175
0.0055015553
1.5019074e-09
1.5007001e-09
1.5020497e-09
1.505234e-09
1.5086035e-09
1.5079877e-09
1.5016242e-09
1.4865656e-09
1.4698164e-09
1.4586762e-09
1.4550311e-09
1.4544918e-09
1.4481776e-09
1.4593103e-09
1.4749385e-09
1.4727401e-09
1.4324347e-09
1.4483225e-09
1.5595178e-09
1.6468876e-09
1.7655472e-09
1.6911242e-09
1.7154255e-09
1.7634102e-09
1.8253614e-09
1.8802917e-09
1.9307585e-09
1.9643467e-09
1.9654666e-09
1.495576e-09
1.4392463e-09
2.2581074e-09
2.4338106e-09
2.2661913e-09
2.009126e-09
1.5976995e-09
1.5849771e-09
1.9850326e-09
2.3905324e-09
4.1140456e-09
4.6651582e-09
4.8489138e-09
5.0656546e-09
5.2691439e-09
5.6869316e-09
6.0819301e-09
6.741181e-09
7.5648891e-09
8.2307486e-09
9.2920544e-09
1.0196639e-08
1.099762e-08
1.2225487e-08
1.3033134e-08
1.3477245e-08
1.4273887e-08
1.4939909e-08
1.5470669e-08
1.5613488e-08
1.5848157e-08
1.573397e-08
1.6842119e-08
5.1942869e-05
0.0043502804
1.5032599e-09
1.5017243e-09
1.5029237e-09
1.5059966e-09
1.5096517e-09
1.50936e-09
1.503876e-09
1.48975e-09
1.4728543e-09
1.4610893e-09
1.4566596e-09
1.4558193e-09
1.4496408e-09
1.4602669e-09
1.4770129e-09
1.4783914e-09
1.4491112e-09
1.4368877e-09
1.5449222e-09
1.6329431e-09
1.7820978e-09
1.6987364e-09
1.7186562e-09
1.763176e-09
1.8270876e-09
1.8795902e-09
1.945706e-09
1.9915464e-09
2.0134316e-09
1.7923512e-09
1.699558e-09
2.262919e-09
2.6374892e-09
2.7739901e-09
3.2840974e-09
3.8205769e-09
4.2224257e-09
4.1026747e-09
4.3283539e-09
1.9528935e-09
3.9110356e-09
4.8459141e-09
5.1182408e-09
5.3767742e-09
5.6192573e-09
6.1362897e-09
6.5937772e-09
7.2027584e-09
8.2693688e-09
8.6153165e-09
9.653749e-09
1.070856e-08