/*--------------------------------*- C++ -*----------------------------------*\
| =========                 |                                                 |
| \\      /  F ield         | OpenFOAM: The Open Source CFD Toolbox           |
|  \\    /   O peration     | Version:  2506                                  |
|   \\  /    A nd           | Website:  www.openfoam.com                      |
|    \\/     M anipulation  |                                                 |
\*---------------------------------------------------------------------------*/
FoamFile
{
    version     2.0;
    format      ascii;
    arch        "LSB;label=32;scalar=64";
    class       volScalarField;
    location    "0.0265";
    object      k;
}
// * * * * * * * * * * * * * * * * * * * * * * * * * * * * * * * * * * * * * //

dimensions      [0 2 -2 0 0 0 0];

internalField   nonuniform List<scalar> 
192657
(
0.05713063
0.050044658
0.050035026
0.050035448
0.050034821
0.05003499
0.050034711
0.050034443
0.05003349
0.050032158
0.05003115
0.050032427
0.05003695
0.050043681
0.050044747
0.050036656
0.050026843
0.050031964
0.05003714
0.050032164
0.050025456
0.050014054
0.049995356
0.049990219
0.050003669
0.050016175
0.050015916
0.050016945
0.050030576
0.050025421
0.049967536
0.049894053
0.049872145
0.049916382
0.049951687
0.049926144
0.04993142
0.050024417
0.050170716
0.050395636
0.050605914
0.050501377
0.050111934
0.049892745
0.050058233
0.05021026
0.05002928
0.049956988
0.050084868
0.049990891
0.049854808
0.049849488
0.049734238
0.049552841
0.049353613
0.049153085
0.049016576
0.048735514
0.048190734
0.04770153
0.04748116
0.046984969
0.045993457
0.045379982
0.045650453
0.046105557
0.046163537
0.046232341
0.046724287
0.047494625
0.048207945
0.048805994
0.049459095
0.050239764
0.05109797
0.051882039
0.052643713
0.053557143
0.054582285
0.055595583
0.05657412
0.057528133
0.058548459
0.059801292
0.061292647
0.062943409
0.064768441
0.066785977
0.068957115
0.071254121
0.07366103
0.076161469
0.078736759
0.08135093
0.083952002
0.086489317
0.088936353
0.091334962
0.09418128
0.10116506
0.13948349
0.46458723
3.8657147
20.09574
47.485881
76.345042
103.32776
127.26056
147.79894
164.97204
178.99308
190.15763
198.78645
205.19528
209.67847
212.50292
213.90599
214.09755
213.26104
211.5577
209.12759
206.09268
202.55836
198.61524
194.34154
189.80301
185.05578
180.14544
175.10892
169.97404
164.76019
159.47485
154.11711
148.67122
143.10106
137.34122
131.28585
124.765
117.51236
109.11155
98.922238
86.029884
69.403874
48.805368
27.10048
10.687361
2.7313537
0.45593962
0.80869955
0.057933764
0.050045645
0.05003503
0.050035449
0.050034822
0.050034991
0.050034715
0.050034454
0.050033512
0.05003219
0.050031176
0.050032414
0.050036871
0.050043584
0.050044718
0.050036783
0.050026932
0.050031884
0.050037152
0.0500323
0.050025605
0.050014262
0.049995491
0.049990188
0.050003567
0.050016151
0.050016022
0.050017038
0.050030752
0.050026063
0.049968552
0.04989453
0.04987184
0.049915824
0.049951724
0.049926527
0.04993106
0.050023591
0.050169983
0.05039587
0.050608464
0.050509097
0.050120027
0.04989752
0.050060389
0.050214572
0.050037705
0.04996267
0.050089282
0.049999356
0.049862391
0.049855917
0.049743239
0.049562412
0.049363676
0.049162656
0.049025745
0.04874869
0.048208929
0.047720585
0.047500473
0.047014988
0.046036475
0.045416049
0.045666829
0.046112987
0.046173565
0.046235245
0.046709206
0.047468127
0.048184254
0.048786236
0.049434631
0.050207108
0.051060282
0.051849538
0.052620172
0.053536342
0.054565406
0.055595708
0.056603549
0.05759467
0.058648058
0.059914176
0.061405501
0.063060757
0.064896387
0.066928407
0.069122015
0.07145142
0.073899044
0.076446227
0.079073195
0.081744465
0.084409196
0.087015671
0.089534408
0.092013056
0.09502097
0.10282119
0.14686039
0.50925769
4.0228928
20.52946
48.739855
78.343439
105.93472
130.36261
151.30987
168.82505
183.1376
194.55574
203.41028
210.02359
214.69487
217.69279
219.25594
219.59362
218.88937
217.30375
214.97705
212.03145
208.57298
204.69347
200.47199
195.97622
191.26289
186.37962
181.36328
176.24278
171.03599
165.74927
160.37722
154.89865
149.26735
143.40473
137.18509
130.41268
122.78697
113.85096
102.92007
89.047717
71.22679
49.407275
26.917919
10.427108
2.632586
0.40428248
0.52850117
0.058764396
0.050046768
0.050035033
0.050035449
0.050034822
0.050034992
0.050034716
0.050034459
0.05003352
0.050032196
0.050031166
0.050032375
0.050036805
0.050043558
0.050044768
0.050036926
0.050026954
0.050031781
0.050037177
0.050032415
0.050025726
0.050014452
0.049995586
0.049990116
0.050003437
0.050016103
0.050016103
0.050017105
0.0500309
0.050026683
0.049969566
0.049895011
0.049871511
0.049915219
0.049951719
0.049926889
0.04993067
0.050022697
0.050169148
0.05039603
0.050610882
0.050516803
0.050128275
0.049902358
0.050037106
0.050218449
0.050045989
0.049968501
0.050093705
0.050007863
0.049870066
0.049862379
0.049752328
0.049572164
0.049373916
0.049172438
0.049035208
0.048762377
0.048227667
0.047740019
0.047520306
0.047046041
0.046080707
0.045452742
0.045683457
0.046121071
0.046184795
0.04623939
0.046694859
0.047441741
0.04816042
0.048766694
0.049410861
0.050175279
0.051023317
0.051817294
0.052596044
0.05351429
0.054546841
0.055593546
0.056630292
0.057657904
0.058744934
0.060024431
0.061516986
0.063176545
0.065020752
0.067064108
0.069276837
0.071634675
0.074118919
0.076709194
0.079384843
0.082111078
0.084838249
0.0875142
0.09010634
0.092668678
0.095846602
0.10450243
0.15449696
0.55185459
4.0818546
20.371071
48.910146
79.005358
107.02978
131.79445
152.98635
170.66027
185.05684
196.49787
205.32752
211.88133
216.46946
219.36921
220.82482
221.04971
220.22972
218.527
216.08247
213.01851
209.44093
205.44083
201.09656
196.47442
191.63005
186.60913
181.44701
176.17013
170.79446
165.32342
159.74943
154.04866
148.17329
142.04362
135.53522
128.45677
120.5181
111.28182
100.09806
86.081054
68.329254
46.948962
25.327476
9.7474322
2.456126
0.38244885
0.53324627
0.059623512
0.050048039
0.050035037
0.050035449
0.050034822
0.050034992
0.050034718
0.050034466
0.050033532
0.050032209
0.050031164
0.050032341
0.050036734
0.050043513
0.050044804
0.050037065
0.050026995
0.050031681
0.050037198
0.050032539
0.050025858
0.050014654
0.0499957
0.049990054
0.050003308
0.050016058
0.050016191
0.05001718
0.050031057
0.050027314
0.049970613
0.049895528
0.049871192
0.0499146
0.049951706
0.049927269
0.049930291
0.050021782
0.050168257
0.050396147
0.050613235
0.050524549
0.050136737
0.04990737
0.050037988
0.050222004
0.050054124
0.049974527
0.050098228
0.050016481
0.049877893
0.049868927
0.049761545
0.049582133
0.049384363
0.049182447
0.049044957
0.048776534
0.048246908
0.047759784
0.047540543
0.04707794
0.046126005
0.045490019
0.045700268
0.046129625
0.046197019
0.046244668
0.046681192
0.047415327
0.048136198
0.048747108
0.04938758
0.050144122
0.05098689
0.051785102
0.052571197
0.053490915
0.054526427
0.055588414
0.056652681
0.057715729
0.05883597
0.060131943
0.061628123
0.06329237
0.0651438
0.067194407
0.069421857
0.071803905
0.074320341
0.076949627
0.079670421
0.082448796
0.085236337
0.087981004
0.09064755
0.09329655
0.096651953
0.10619689
0.16231215
0.59232787
4.0648716
19.716634
48.106157
78.526274
106.9479
132.08444
153.61015
171.57177
186.21129
197.85541
206.85414
213.54998
218.26038
221.26734
222.81794
223.127
222.381
220.7422
218.35146
215.33098
211.78641
207.80875
203.47615
198.85493
194.00051
188.95855
183.76406
178.4432
173.01117
167.47056
161.81232
156.0109
150.01601
143.74495
137.06951
129.79413
121.6242
112.11874
100.62746
86.273746
68.190965
46.575717
24.946481
9.5461197
2.3979241
0.36687698
0.47425414
0.060512014
0.050049471
0.050035041
0.05003545
0.050034822
0.050034993
0.05003472
0.050034472
0.050033543
0.050032221
0.050031161
0.050032305
0.050036661
0.050043467
0.050044848
0.050037203
0.050027034
0.050031579
0.050037218
0.050032664
0.050025991
0.050014858
0.049995819
0.049989989
0.050003173
0.050016011
0.050016277
0.050017255
0.050031213
0.050027947
0.049971684
0.049896077
0.049870876
0.049913959
0.049951675
0.049927658
0.049929914
0.050020833
0.050167305
0.050396193
0.050615528
0.050532313
0.050145399
0.049912499
0.050038842
0.050225509
0.050062041
0.049980693
0.050102862
0.050025212
0.049885874
0.049875559
0.04977088
0.049592321
0.049395024
0.049192696
0.049054997
0.048791151
0.048266664
0.047779907
0.047561172
0.047110625
0.046172368
0.045528006
0.045717388
0.046138683
0.046210267
0.046251228
0.046668438
0.047389069
0.048111683
0.048727559
0.049364934
0.050113842
0.050951211
0.051753163
0.052545911
0.053466563
0.054504446
0.055580462
0.056670691
0.057767945
0.058920964
0.060234667
0.061736355
0.063405434
0.065262553
0.06732001
0.069559844
0.071962134
0.07450642
0.077170528
0.079932673
0.082759869
0.085604233
0.088414812
0.091155573
0.093893271
0.09743232
0.10789693
0.17027669
0.63109439
3.9995786
18.726547
46.562631
77.166297
105.94521
131.44383
153.30732
171.56326
186.45123
198.30205
207.47062
214.30633
219.13672
222.24978
223.89606
224.29235
223.62584
222.05878
219.7316
216.76599
213.26688
209.32448
205.01613
200.40728
195.55263
190.49705
185.27483
179.91134
174.42102
168.80548
163.05474
157.14234
151.01714
144.59584
137.75033
130.28616
121.91179
112.19238
100.48862
85.943349
67.724788
46.086057
24.587757
9.3832986
2.3543693
0.35961084
0.46178449
0.061430889
0.050051078
0.050035045
0.05003545
0.050034822
0.050034994
0.050034722
0.050034478
0.050033555
0.050032233
0.050031158
0.050032268
0.050036588
0.050043416
0.050044895
0.050037341
0.050027077
0.050031475
0.050037237
0.050032794
0.050026129
0.050015067
0.049995948
0.049989923
0.050003032
0.050015961
0.050016363
0.05001733
0.05003137
0.050028585
0.04997278
0.04989666
0.049870565
0.049913297
0.049951629
0.049928056
0.049929543
0.050019854
0.050166302
0.050396155
0.050617774
0.050540095
0.05015426
0.049917749
0.050039675
0.050229625
0.050069696
0.049986931
0.050107625
0.050034072
0.049894015
0.049882274
0.049780323
0.049602719
0.049405893
0.049203179
0.049065308
0.048806189
0.048286913
0.047800373
0.047582131
0.047143986
0.046219729
0.045566751
0.045734862
0.046148199
0.046224473
0.046259112
0.046656725
0.047363055
0.048086868
0.048708002
0.049342926
0.050084508
0.050916362
0.051721563
0.052520337
0.053441453
0.054481076
0.055569778
0.056684274
0.057814331
0.05899962
0.060332283
0.061841352
0.063515669
0.065377365
0.067439635
0.069688758
0.072107267
0.074675032
0.077369719
0.080169428
0.08304228
0.085942058
0.088817778
0.091631725
0.094452968
0.098131161
0.10917391
0.17506382
0.64495972
3.8367144
17.520854
44.532107
75.180107
104.23727
130.14289
152.41115
171.03867
186.25598
198.39556
207.81392
214.86182
219.87988
223.1613
224.96048
225.49683
224.95898
223.50947
221.28872
218.41853
215.00366
211.13384
206.88573
202.32418
197.50328
192.46745
187.25057
181.87763
176.36258
170.70648
164.89862
158.91173
152.69365
146.16001
139.18156
131.56295
123.01227
113.09535
101.17546
86.402049
67.959224
46.135834
24.547418
9.3479154
2.3426979
0.35525795
0.44115274
0.062380944
0.050052873
0.05003505
0.050035451
0.050034822
0.050034995
0.050034724
0.050034485
0.050033567
0.050032246
0.050031156
0.050032231
0.050036512
0.050043363
0.050044943
0.05003748
0.050027124
0.050031368
0.050037256
0.050032927
0.050026269
0.050015279
0.049996085
0.049989856
0.050002886
0.050015909
0.05001645
0.050017407
0.050031528
0.050029227
0.049973901
0.049897277
0.049870259
0.049912613
0.049951564
0.049928463
0.049929176
0.050018844
0.050165248
0.050396026
0.050619982
0.050547888
0.050163322
0.04992312
0.050040501
0.050234702
0.050077057
0.04999316
0.050112516
0.050043077
0.049902326
0.049889075
0.049789862
0.049613322
0.049416966
0.049213891
0.049075878
0.048821616
0.048307642
0.047821177
0.047603377
0.047177927
0.046268036
0.045606314
0.045752753
0.046158144
0.046239585
0.046268367
0.046646196
0.047337404
0.048061776
0.048688411
0.049321567
0.050056193
0.050882442
0.051690411
0.052494647
0.053415821
0.05445654
0.055556521
0.056693471
0.057854757
0.059071698
0.060424466
0.06194277
0.063622995
0.06548859
0.06755401
0.06980963
0.072240585
0.074827603
0.077548636
0.080381966
0.083296972
0.08624922
0.089187983
0.092073525
0.09497059
0.098720991
0.10981273
0.17513179
0.62640077
3.5466361
16.065022
42.079655
72.723446
102.09109
128.39946
151.08108
170.09505
185.65565
198.09298
207.77448
215.06211
220.29064
223.75803
225.72435
226.4135
226.01682
224.69716
222.5951
219.83361
216.51739
212.73529
208.56292
204.06412
199.29207
194.29047
189.0928
183.72365
178.19655
172.51205
166.65882
160.60895
154.30965
147.67591
140.57805
132.82068
124.11257
114.02136
101.91361
86.944513
68.308304
46.31321
24.60775
9.3606636
2.3443955
0.3541902
0.43205902
0.063363297
0.050054874
0.050035056
0.050035451
0.050034822
0.050034996
0.050034726
0.050034492
0.050033579
0.05003226
0.050031154
0.050032192
0.050036435
0.050043304
0.050044992
0.050037621
0.050027174
0.050031259
0.050037273
0.050033062
0.050026413
0.050015495
0.049996231
0.049989789
0.050002735
0.050015855
0.050016537
0.050017484
0.050031687
0.050029874
0.049975046
0.049897931
0.04986996
0.049911908
0.049951482
0.049928878
0.049928814
0.050017802
0.050164142
0.050395799
0.050622165
0.050555687
0.050172583
0.049928617
0.050041327
0.050214398
0.050084169
0.049999299
0.050117514
0.050052238
0.049910822
0.049895967
0.049799489
0.049624122
0.049428241
0.049224831
0.049086692
0.048837401
0.048328836
0.047842317
0.047624864
0.047212356
0.046317235
0.04564675
0.04577112
0.046168487
0.046255542
0.046279023
0.046636983
0.047312238
0.048036436
0.048668748
0.04930084
0.050028944
0.050849538
0.05165981
0.052469004
0.053389896
0.05443107
0.055540893
0.056698396
0.057889179
0.059137005
0.06051088
0.062040232
0.063727279
0.065596531
0.067663868
0.069923586
0.07236356
0.074965838
0.077709064
0.080571989
0.083525388
0.086526767
0.08952599
0.09248112
0.095446864
0.099210472
0.10989394
0.171391
0.58545897
3.1828473
14.459537
39.297586
69.854276
99.53231
126.27316
149.41183
168.86165
184.81576
197.59774
207.57689
215.12125
220.57305
224.23754
226.38103
227.2323
226.9865
225.81009
223.84483
221.21164
218.01353
214.33835
210.26092
205.84425
201.14024
196.19185
191.0329
185.68772
180.16929
174.47753
168.60041
162.50931
156.15065
149.43861
142.2427
134.3669
125.51962
115.26862
102.98094
87.812485
68.958818
46.734664
24.819552
9.4361753
2.3621756
0.35531492
0.42412509
0.064379059
0.050057097
0.050035062
0.050035452
0.050034823
0.050034997
0.050034729
0.050034499
0.050033592
0.050032274
0.050031152
0.050032153
0.050036356
0.050043242
0.05004504
0.050037766
0.05002723
0.050031147
0.05003729
0.050033202
0.050026561
0.050015714
0.049996388
0.049989721
0.050002577
0.050015796
0.050016625
0.050017563
0.050031847
0.050030526
0.049976217
0.049898622
0.049869668
0.049911181
0.049951381
0.049929301
0.049928459
0.05001673
0.050162986
0.050395464
0.050624332
0.050563487
0.050182044
0.049934244
0.050042259
0.050218188
0.05009132
0.05000528
0.050122572
0.050061561
0.04991952
0.049902958
0.049809195
0.049635112
0.049439711
0.049235994
0.049097739
0.048853513
0.048350482
0.047863792
0.047646556
0.047247185
0.046367267
0.045688107
0.045790022
0.046179204
0.04627228
0.046291096
0.04662921
0.047287689
0.048010892
0.048648974
0.049280717
0.050002792
0.050817726
0.051629866
0.052443563
0.0533639
0.054404919
0.055523147
0.056699243
0.05791765
0.059195428
0.06059123
0.062133362
0.063828354
0.065701436
0.067769917
0.070031793
0.07247777
0.07509162
0.077853043
0.080741519
0.083729366
0.086776196
0.089832838
0.092855203
0.09588396
0.099617549
0.10956419
0.16507066
0.53151205
2.7876284
12.791803
36.275803
66.639504
96.616505
123.8093
147.43785
167.36061
183.74414
196.90236
207.20505
215.02612
220.71588
224.5879
226.91586
227.93449
227.84322
226.81132
224.98209
222.47699
219.3989
215.83509
211.85958
207.53466
202.91197
198.03367
192.9315
187.62845
182.13657
176.45503
170.57113
164.45561
158.05423
151.28032
144.00252
136.02414
127.05345
116.65811
104.20468
88.847404
69.777444
47.304781
25.131178
9.5551762
2.3914248
0.35850681
0.42068465
0.065429168
0.05005956
0.050035069
0.050035452
0.050034823
0.050034997
0.050034731
0.050034506
0.050033605
0.050032289
0.050031151
0.050032114
0.050036276
0.050043175
0.050045088
0.050037915
0.050027292
0.050031031
0.050037304
0.050033344
0.050026712
0.050015937
0.049996555
0.049989652
0.050002414
0.050015734
0.050016713
0.050017643
0.050032007
0.050031183
0.049977411
0.049899351
0.049869385
0.049910433
0.049951259
0.049929732
0.04992811
0.050015628
0.050161783
0.050395011
0.050626493
0.050571285
0.050191705
0.049940006
0.050043227
0.050221914
0.050099165
0.050011052
0.050127624
0.050071032
0.049928441
0.049910061
0.049818972
0.049646283
0.049451374
0.049247377
0.049109005
0.04886992
0.048372568
0.047885604
0.047668418
0.047282329
0.046418074
0.045730433
0.045809521
0.046190273
0.046289728
0.04630459
0.046622994
0.047263897
0.047985196
0.048629055
0.049261155
0.049977751
0.050787077
0.051600679
0.052418481
0.053338058
0.054378356
0.05550358
0.056696285
0.057940329
0.059246948
0.060665278
0.062221807
0.063926033
0.0658035
0.067872816
0.070135403
0.07258484
0.075206937
0.07798278
0.080892826
0.083911061
0.08699938
0.090109977
0.093196917
0.096284813
0.099963362
0.10898358
0.15733156
0.47183331
2.3901271
11.127706
33.088323
63.128211
93.384161
121.04488
145.19554
165.62968
182.48114
196.0504
206.70572
214.82619
220.77048
224.86125
227.38069
228.5707
228.63624
227.75049
226.05922
223.68514
220.73146
217.2851
213.41931
209.19535
204.66366
199.86525
194.83072
189.58196
184.13003
178.47315
172.59772
166.47359
160.04571
153.22673
145.88464
137.82189
128.7455
118.22171
105.61502
90.07527
70.783722
48.035344
25.547531
9.7188756
2.4322694
0.36348474
0.41957693
0.066514831
0.050062283
0.050035077
0.050035453
0.050034823
0.050034998
0.050034733
0.050034513
0.050033619
0.050032305
0.05003115
0.050032073
0.050036194
0.050043102
0.050045135
0.050038069
0.050027361
0.050030911
0.050037317
0.05003349
0.050026867
0.050016164
0.049996733
0.049989583
0.050002246
0.050015668
0.050016801
0.050017724
0.050032166
0.050031846
0.049978631
0.049900119
0.049869113
0.049909663
0.049951116
0.04993017
0.049927767
0.050014495
0.050160532
0.05039443
0.050628656
0.050579077
0.050201568
0.049945909
0.050044244
0.050225561
0.050108041
0.050016571
0.050132589
0.05008062
0.049937603
0.049917293
0.049828815
0.049657626
0.049463224
0.049258978
0.049120479
0.048886594
0.04839508
0.047907756
0.04769042
0.047317705
0.046469595
0.045773769
0.045829683
0.046201675
0.046307816
0.046319495
0.046618441
0.047241005
0.04795942
0.048608959
0.049242103
0.04995382
0.05075765
0.051572352
0.052393909
0.053312591
0.054351664
0.055482533
0.056689871
0.057957479
0.059291656
0.060732875
0.062305263
0.064020117
0.06590286
0.067973153
0.070235518
0.072686377
0.075313817
0.07810059
0.081028349
0.084072875
0.08719851
0.090359213
0.093507745
0.096652479
0.10026774
0.10829651
0.14914356
0.41186246
2.0109151
9.5211493
29.806559
59.364302
89.867109
118.00471
142.70502
163.6859
181.04186
195.05584
206.09219
214.53421
220.74879
225.06826
227.78428
229.14712
229.3685
228.62672
227.07107
224.82639
221.99689
218.66961
214.91725
210.80013
206.36751
201.65903
196.70396
191.52285
186.1255
180.50889
174.65826
168.54232
162.10491
155.25753
147.86704
139.73464
130.56598
119.92558
107.17492
91.457452
71.940391
48.895838
26.050587
9.9205924
2.4832055
0.37012696
0.42125105
0.067637053
0.050065287
0.050035086
0.050035453
0.050034823
0.050034999
0.050034736
0.05003452
0.050033633
0.050032321
0.05003115
0.050032032
0.05003611
0.050043025
0.050045182
0.050038229
0.050027435
0.050030788
0.050037328
0.050033639
0.050027025
0.050016394
0.049996923
0.049989515
0.050002072
0.050015597
0.05001689
0.050017807
0.050032325
0.050032515
0.049979876
0.049900927
0.049868853
0.049908871
0.049950952
0.049930615
0.049927431
0.050013333
0.050159234
0.050393716
0.050630826
0.050586861
0.05021163
0.04995196
0.050045318
0.050229117
0.05009184
0.050021809
0.050137389
0.050090269
0.049947023
0.049924676
0.049838721
0.049669135
0.049475256
0.049270792
0.049132148
0.048903504
0.048418004
0.047930255
0.047712536
0.047353234
0.046521766
0.045818154
0.045850573
0.046213401
0.046326471
0.046335789
0.046615646
0.047219164
0.047933647
0.048588662
0.049223502
0.049930985
0.050729496
0.051544981
0.052369997
0.053287719
0.05432514
0.055460384
0.056680421
0.057969469
0.059329759
0.060793974
0.062383494
0.06411042
0.065999605
0.068071439
0.07033316
0.072783934
0.075414278
0.078208833
0.081150652
0.084217416
0.087376058
0.090582697
0.093789484
0.09698983
0.10054663
0.10761555
0.14122498
0.3552961
1.6630726
8.0129266
26.497908
55.387769
86.091981
114.70904
139.98321
161.54498
179.44238
193.93617
205.38406
214.17203
220.67475
225.23448
228.15307
229.69018
230.06555
229.46379
228.03892
225.91896
223.20997
219.99977
216.36098
212.35322
208.02464
203.41351
198.5476
193.44589
188.11662
182.5553
176.74565
170.65493
164.22558
157.36765
149.94647
141.76161
132.5168
121.774
108.89039
93.000721
73.253616
49.890266
26.641487
10.159987
2.543933
0.37830324
0.42508598
0.068797037
0.050068593
0.050035096
0.050035454
0.050034824
0.050035
0.050034738
0.050034528
0.050033647
0.050032338
0.05003115
0.05003199
0.050036025
0.050042941
0.050045229
0.050038394
0.050027516
0.05003066
0.050037335
0.050033792
0.050027187
0.050016627
0.049997126
0.049989446
0.050001891
0.050015521
0.050016978
0.050017892
0.050032481
0.050033191
0.049981146
0.049901776
0.049868607
0.049908057
0.049950764
0.049931065
0.049927103
0.050012142
0.050157891
0.05039286
0.050633007
0.050594634
0.050221892
0.049958168
0.05004646
0.05023269
0.050099604
0.05002682
0.050141959
0.050099904
0.049956708
0.049932235
0.049848691
0.0496808
0.049487467
0.049282817
0.049144002
0.04892062
0.048441325
0.047953106
0.047734746
0.047388839
0.04657452
0.045863621
0.045872261
0.046225445
0.046345619
0.046353435
0.046614692
0.047198528
0.047907978
0.048568155
0.049205294
0.049909222
0.050702657
0.051518664
0.052346893
0.05326366
0.05429909
0.055437542
0.056668416
0.057976763
0.059361583
0.060848646
0.062456354
0.064196786
0.066093789
0.068168104
0.070429256
0.072878979
0.075510286
0.078309881
0.081262382
0.084347457
0.087534755
0.090782909
0.094044244
0.097299459
0.10081121
0.10701748
0.13405288
0.30443208
1.3541247
6.6327526
23.227913
51.23901
82.082903
111.17439
137.04218
159.21663
177.69164
192.70085
204.59211
213.75229
220.563
225.37628
228.50464
230.21796
230.74502
230.27801
228.97685
226.9739
224.37812
221.27895
217.7496
213.84947
209.62584
205.11572
200.34534
195.33195
190.082
184.5892
178.83544
172.78618
166.38206
159.53131
152.09736
143.87765
134.57342
123.7433
110.73901
94.684507
74.70583
51.005868
27.313496
10.434671
2.6138849
0.38794286
0.4310961
0.069995869
0.050072227
0.050035107
0.050035454
0.050034824
0.050035001
0.05003474
0.050034535
0.050033662
0.050032355
0.050031151
0.050031948
0.050035938
0.050042852
0.050045277
0.050038563
0.050027605
0.05003053
0.050037339
0.050033948
0.050027353
0.050016866
0.049997341
0.049989378
0.050001705
0.050015441
0.050017066
0.05001798
0.050032634
0.050033876
0.049982442
0.049902666
0.049868376
0.049907223
0.049950552
0.04993152
0.049926782
0.050010922
0.050156507
0.050391855
0.050635195
0.050602399
0.050232352
0.04996454
0.050047679
0.050236166
0.050107417
0.050031898
0.050146249
0.050109442
0.049966646
0.049939994
0.04985873
0.049692615
0.049499851
0.049295051
0.04915603
0.048937913
0.048465025
0.047976319
0.047757032
0.047424445
0.046627787
0.045910197
0.045894819
0.046237811
0.046365187
0.046372389
0.046615652
0.047179251
0.047882528
0.048547439
0.049187418
0.049888496
0.050677167
0.051493493
0.052324744
0.05324063
0.054273826
0.05541444
0.056654392
0.05797992
0.059387573
0.060897094
0.062523805
0.064279114
0.066185456
0.068263513
0.070524634
0.072972877
0.075603735
0.078406081
0.08136623
0.084465906
0.087677562
0.090962653
0.094274475
0.097583758
0.10106818
0.10654575
0.12789472
0.26045831
1.0872775
5.3996285
20.05887
46.960617
77.863103
107.41588
133.89233
156.70879
175.79686
191.35775
203.72596
213.2871
220.42847
225.51145
228.85928
230.75259
231.43006
231.09248
229.90688
228.01116
225.51833
222.52049
219.09231
215.29364
211.17143
206.76172
202.08931
197.16971
192.00745
186.59417
180.90961
174.91706
168.55494
161.72922
154.30092
146.06482
136.719
125.81792
112.7066
96.496228
76.286559
52.235254
28.062928
10.743418
2.6927643
0.39898884
0.43914067
0.071234983
0.050076214
0.050035119
0.050035455
0.050034825
0.050035002
0.050034743
0.050034543
0.050033677
0.050032374
0.050031152
0.050031905
0.050035849
0.050042755
0.050045327
0.050038735
0.050027703
0.050030396
0.050037339
0.050034107
0.050027522
0.050017109
0.04999757
0.04998931
0.050001512
0.050015356
0.050017153
0.05001807
0.050032785
0.050034568
0.049983763
0.049903598
0.049868162
0.049906368
0.049950316
0.04993198
0.049926469
0.050009672
0.05015508
0.050390701
0.050637387
0.050610156
0.050243008
0.049971086
0.050048984
0.050239535
0.050115276
0.050037703
0.050150216
0.050118802
0.049976806
0.049947974
0.049868849
0.049704578
0.049512406
0.049307491
0.049168221
0.048955353
0.048489085
0.047999901
0.047779381
0.047459981
0.046681491
0.045957904
0.045918323
0.046250509
0.046385104
0.046392591
0.046618581
0.04716149
0.047857428
0.048526534
0.049169821
0.049868767
0.050653051
0.051469558
0.052303692
0.053218841
0.054249665
0.055391533
0.056638932
0.057979579
0.059408294
0.060939654
0.062585936
0.06435738
0.066274658
0.068357982
0.070620033
0.07306689
0.075696429
0.078499732
0.08146491
0.084575782
0.087807652
0.091125055
0.094482997
0.097845095
0.10132073
0.1062168
0.12285291
0.22374097
0.86261287
4.3230059
17.048522
42.599574
73.456459
103.44844
130.54316
154.02777
173.76291
189.91174
202.79174
212.78477
220.28236
225.65438
229.23451
231.31433
232.14296
231.93061
230.85245
229.05308
226.65071
223.74127
220.40196
216.694
212.66475
208.34981
203.77295
198.9481
193.87787
188.55172
182.947
177.02442
170.71981
163.93636
156.53214
148.29865
138.93009
127.97581
114.77295
98.418021
77.981094
53.568155
28.884682
11.084534
2.7801834
0.4113934
0.44921874
0.072515424
0.05008058
0.050035134
0.050035456
0.050034825
0.050035003
0.050034746
0.050034551
0.050033693
0.050032393
0.050031154
0.050031861
0.050035759
0.050042653
0.050045381
0.050038909
0.05002781
0.050030258
0.050037333
0.050034269
0.050027695
0.050017359
0.049997812
0.049989242
0.050001312
0.050015268
0.050017238
0.050018162
0.050032931
0.050035269
0.049985109
0.049904574
0.049867966
0.049905494
0.049950053
0.049932443
0.049926164
0.050008395
0.050153603
0.050389407
0.050639571
0.05061791
0.050253858
0.049977812
0.050050383
0.050242789
0.050123181
0.050044591
0.050153833
0.050127917
0.049987132
0.049956184
0.049879064
0.049716686
0.04952513
0.049320137
0.049180565
0.048972912
0.048513484
0.048023862
0.047801786
0.047495378
0.046735553
0.046006757
0.045942847
0.04626356
0.046405303
0.046413975
0.046623524
0.047145395
0.047832823
0.048505477
0.049152455
0.049849992
0.050630327
0.051446944
0.052283878
0.053198504
0.054226924
0.055369288
0.056622655
0.057976451
0.059424419
0.060976803
0.062642975
0.064431664
0.066361494
0.068451804
0.070716118
0.073162182
0.075790077
0.07859308
0.081561142
0.08468019
0.087928394
0.09127355
0.094673027
0.098086014
0.10156974
0.10602744
0.11890974
0.19406528
0.67802229
3.4039753
14.247695
38.208443
68.888678
99.288072
127.00466
151.17979
171.59397
188.36649
201.79389
212.25171
220.13388
225.81771
229.64671
231.92321
232.90696
232.81812
231.84075
230.1271
227.80174
224.96556
221.69946
218.06714
214.11734
209.88607
205.39671
200.66206
195.68306
190.44708
184.92896
179.08663
172.85289
166.12771
158.76559
150.55408
141.18265
130.19458
116.91779
100.43227
79.775179
54.994775
29.773984
11.456511
2.8758032
0.42511326
0.46132428
0.073838593
0.050085357
0.05003515
0.050035456
0.050034825
0.050035003
0.050034748
0.050034559
0.050033709
0.050032413
0.050031157
0.050031817
0.050035667
0.050042543
0.050045438
0.050039083
0.050027928
0.050030117
0.050037323
0.050034435
0.050027873
0.050017615
0.049998068
0.049989174
0.050001106
0.050015175
0.050017322
0.050018258
0.050033074
0.050035978
0.049986481
0.049905594
0.04986779
0.0499046
0.049949764
0.049932908
0.049925869
0.05000709
0.050152076
0.050387982
0.050641729
0.050625667
0.050264898
0.049984728
0.050051885
0.050245922
0.05013113
0.050026465
0.050157153
0.050136736
0.049997553
0.049964617
0.049889391
0.049728942
0.049538022
0.049332986
0.049193054
0.048990561
0.048538197
0.04804821
0.047824242
0.047530569
0.046789889
0.04605676
0.04596847
0.046276991
0.04642572
0.046436466
0.046630507
0.047131116
0.047808872
0.048484327
0.049135285
0.049832126
0.050609008
0.051425734
0.052265443
0.053179822
0.054205918
0.05534818
0.056606208
0.05797131
0.059436726
0.06100916
0.062695305
0.064502175
0.066446132
0.068545285
0.070813512
0.073259836
0.075886306
0.078688307
0.081657635
0.084782305
0.088043324
0.09141187
0.094848203
0.098309421
0.10181497
0.10596219
0.11596857
0.17083713
0.52998411
2.6368264
11.697943
33.845975
64.18855
94.953001
123.2883
148.17184
169.29426
186.72487
200.73534
211.69208
219.98957
226.01122
230.10951
232.59706
233.74402
233.78064
232.90036
231.2637
229.00251
226.22365
223.01296
219.43768
215.54922
211.38497
206.96892
202.31348
197.41853
192.2697
186.83949
181.08301
174.9298
168.27623
160.97265
152.80195
143.44797
132.44684
119.11589
102.51673
81.650573
56.502286
30.72428
11.857138
2.9791104
0.44009033
0.47549974
0.075205682
0.050090574
0.050035168
0.050035457
0.050034826
0.050035004
0.050034751
0.050034567
0.050033725
0.050032433
0.05003116
0.050031772
0.050035574
0.050042425
0.050045499
0.050039257
0.050028056
0.050029973
0.050037305
0.050034603
0.050028055
0.050017878
0.04999834
0.049989105
0.050000892
0.050015077
0.050017403
0.050018356
0.050033213
0.050036696
0.049987879
0.049906658
0.049867634
0.04990369
0.049949446
0.049933376
0.049925583
0.050005756
0.050150495
0.050386443
0.050643833
0.050633439
0.050276125
0.049991837
0.050053498
0.050248929
0.050139258
0.050032352
0.050160471
0.050145212
0.050007985