/*--------------------------------*- C++ -*----------------------------------*\
| =========                 |                                                 |
| \\      /  F ield         | OpenFOAM: The Open Source CFD Toolbox           |
|  \\    /   O peration     | Version:  2506                                  |
|   \\  /    A nd           | Website:  www.openfoam.com                      |
|    \\/     M anipulation  |                                                 |
\*---------------------------------------------------------------------------*/
FoamFile
{
    version     2.0;
    format      ascii;
    arch        "LSB;label=32;scalar=64";
    class       volScalarField;
    location    "2.15";
    object      omega;
}
// * * * * * * * * * * * * * * * * * * * * * * * * * * * * * * * * * * * * * //

dimensions      [0 0 -1 0 0 0 0];

internalField   nonuniform List<scalar> 
1375
(
42.725384
45.552174
40.919576
42.478918
45.27155
39.70325
40.714133
42.2444
45.006167
38.82389
39.526811
40.518043
42.021153
44.755198
38.159805
38.669251
39.357739
40.330639
41.808406
44.517185
37.645394
38.022175
38.520606
39.195654
40.151467
41.605605
44.291578
37.239982
37.521387
37.889536
38.377715
39.040255
39.980143
41.412235
44.077684
36.916321
37.126901
37.401392
37.761505
38.240168
38.891086
39.816154
41.227692
43.874531
36.654697
36.811867
37.016942
37.285034
37.637696
38.107564
38.7477
39.658987
41.051376
43.681128
36.441405
36.557326
36.709988
36.909982
37.172172
37.517942
37.979698
38.609828
39.508314
40.882868
43.497199
36.26596
36.349839
36.462109
36.610599
36.805914
37.062677
37.402086
37.85636
38.477211
39.363812
40.721763
43.322413
36.12069
36.178829
36.259794
36.368711
36.513368
36.704395
36.956194
37.289771
37.737154
38.349428
39.22503
40.567545
43.155929
36.036877
36.092625
36.170949
36.276809
36.417978
36.605091
36.852378
37.180654
37.621708
38.226092
39.091547
40.419748
42.997109
35.916963
35.953675
36.007286
36.083226
36.186314
36.32433
36.507886
36.751095
37.074566
37.509825
38.106976
38.9631
40.278066
42.845946
35.815318
35.835972
35.870982
35.92271
35.9965
36.097099
36.232284
36.412628
36.652182
36.971306
37.40128
37.991821
38.839388
40.142149
42.702083
35.727169
35.735751
35.755056
35.788536
35.838621
35.91049
36.008885
36.141554
36.319031
36.555348
36.870574
37.295748
37.880296
38.720055
40.011608
42.564738
35.656934
35.648408
35.648369
35.655746
35.673893
35.706033
35.754702
35.82488
35.921365
36.051838
36.226795
36.460293
36.772063
37.192923
37.772099
38.604795
39.886156
42.434976
35.593112
35.578339
35.569144
35.568527
35.574896
35.592078
35.623078
35.670534
35.739253
35.834113
35.962704
36.135491
36.366573
36.675292
37.092317
37.666717
38.493039
39.765113
42.307526
35.536677
35.513263
35.49794
35.488271
35.487126
35.492757
35.509213
35.539329
35.585814
35.653359
35.746931
35.874016
36.04506
36.274182
36.580337
36.994123
37.564471
38.38531
39.649471
42.197456
35.515533
35.484134
35.454622
35.430564
35.414726
35.404574
35.402772
35.407848
35.423672
35.453019
35.498632
35.56514
35.657594
35.783379
35.952913
36.180292
36.484135
36.894982
37.461591
38.277212
39.533271
42.059281
255.07926
270.07533
286.38136
304.31125
323.6379
343.93072
365.1817
387.75907
411.89716
437.57192
464.90776
494.46988
527.02704
562.87593
601.5365
642.48621
686.374
735.90094
794.005
860.00378
931.33524
1008.2744
1095.374
253.45237
268.54233
285.03201
303.33538
323.11689
343.6296
364.60146
386.23941
408.48145
431.27589
455.99747
485.01091
518.18902
550.93465
580.04009
608.04557
642.15829
687.89952
737.40555
780.46684
821.04591
866.58921
916.76869
223.91954
234.65929
246.11884
258.48853
271.32194
283.8017
295.49463
306.45994
316.71123
326.57263
337.8219
352.69297
369.47057
382.08118
389.02048
393.83171
402.53718
419.97055
435.35462
442.33983
446.67935
453.76446
462.82123
172.08339
177.24134
182.45387
187.58261
192.33873
196.38799
199.61142
202.17712
204.31116
206.29489
208.88165
213.04553
217.82803
220.44876
220.95204
220.67042
220.67746
223.77203
226.85728
227.39304
227.35533
228.42558
230.41148
126.39181
129.00851
131.58079
133.76759
135.43417
136.61653
137.40365
137.93192
138.33974
138.73947
139.41138
140.81029
142.66577
143.75764
143.98165
143.84708
143.67994
144.58309
146.58201
147.66569
148.28877
148.84797
149.37099
97.070222
99.073494
101.12149
102.70257
103.67293
104.20494
104.48835
104.654
104.78989
104.97621
105.42867
106.29554
107.24273
107.75033
107.84667
107.8244
107.83657
109.03363
111.4041
112.9864
113.75787
114.10234
114.29303
78.909432
80.702581
82.663159
84.160909
84.971523
85.314904
85.446409
85.511905
85.592518
85.820832
86.406444
87.063819
87.396035
87.427608
87.12815
86.909951
86.936032
88.146048
90.446196
92.06436
92.897414
93.326014
93.642142
66.817779
68.380847
70.217834
71.669697
72.423322
72.693063
72.766717
72.797423
72.877147
73.225981
73.892982
74.345016
74.440965
74.068563
73.22973
72.808971
72.761567
73.487599
75.121184
76.412337
77.307444
78.103197
79.013442
58.161288
59.426949
61.014117
62.335372
63.027389
63.258533
63.309025
63.326602
63.417941
63.840231
64.476066
64.800178
64.818195
64.195135
63.193363
62.701935
62.610364
62.899022
63.755065
64.522103
65.272905
66.297223
67.646489
69.304434
51.685317
52.63128
53.8747
54.971667
55.57002
55.771933
55.814208
55.828307
55.921802
56.318396
56.829461
57.052069
57.04362
56.479614
55.692184
55.331005
55.267077
55.429578
55.850314
56.210921
56.669255
57.506909
58.666586
59.959541
46.749069
47.410107
48.294747
49.124459
49.610772
49.790737
49.836811
49.858189
49.951049
50.255874
50.605051
50.749648
50.744597
50.417847
50.020645
49.889645
49.911532
50.178484
50.461593
50.651966
50.89738
51.388301
52.05542
52.741915
43.419978
44.004477
44.587032
44.968059
45.138247
45.202894
45.247546
45.35005
45.567849
45.79464
45.903326
45.918444
45.836013
45.756894
45.767957
46.024048
46.412807
46.696968
46.865033
47.010198
47.216339
47.456325
47.683445
40.403285
40.78658
41.183838
41.481727
41.653526
41.751412
41.834754
41.953532
42.122143
42.294913
42.416504
42.480793
42.515729
42.569396
42.764582
43.142345
43.559013
43.87422
44.05923
44.16344
44.231026
44.270264
44.292715
38.146337
38.424706
38.712661
38.955211
39.131187
39.263295
39.3863
39.527356
39.689209
39.85377
39.997475
40.11245
40.214756
40.345964
40.572912
40.911531
41.287522
41.614599
41.850311
41.998758
42.079473
42.108036
42.109335
36.470411
36.709461
36.949696
37.163772
37.342384
37.498499
37.651331
37.81407
37.986691
38.162438
38.330449
38.482817
38.624856
38.779233
38.980742
39.24063
39.528245
39.795521
40.008195
40.164798
40.279199
40.363579
40.416209
35.233539
35.462331
35.688218
35.893634
36.076086
36.246706
36.417834
36.594876
36.774616
36.953537
37.128639
37.296588
37.456798
37.614786
37.782575
37.96582
38.160491
38.355215
38.532505
38.681357
38.798048
38.892784
38.975578
39.046067
34.326698
34.550437
34.77156
34.976399
35.163723
35.343108
35.524247
35.709062
35.890658
36.063697
36.229317
36.392182
36.554517
36.713039
36.865292
37.010941
37.154367
37.300564
37.444537
37.57728
37.693198
37.792831
37.885299
37.975833
33.664945
33.881527
34.096
34.298867
34.488859
34.672953
34.858525
35.046172
35.227919
35.396504
35.552212
35.702007
35.853184
36.006074
36.155713
36.296287
36.427147
36.554244
36.679832
36.799674
36.910141
37.009077
37.100272
37.189095
33.179417
33.388857
33.594276
33.791603
33.980954
34.166688
34.352621
34.538018
34.716603
34.882335
35.034302
35.177122
35.318128
35.461185
35.605012
35.743527
35.871726
35.992862
36.112446
36.229095
36.338723
36.438445
36.526962
36.611636
36.69507
32.815663
33.021906
33.221063
33.413338
33.600796
33.785948
33.969224
34.148696
34.321169
34.484549
34.638366
34.783665
34.923384
35.060593
35.196788
35.330726
35.458921
35.578493
35.692688
35.805323
35.913186
36.011798
36.100232
36.183383
36.26412
32.537675
32.744654
32.943266
33.135111
33.32256
33.506842
33.686873
33.860631
34.026885
34.186218
34.339771
34.487614
34.629134
34.765185
34.898049
35.027985
35.152517
35.269051
35.377952
35.483639
35.588324
35.687531
35.779019
35.864084
35.94603
32.330116
32.538846
32.739747
32.933517
33.121565
33.304768
33.482269
33.652695
33.815465
33.972052
34.124022
34.271713
34.414037
34.550182
34.681219
34.808158
34.929497
35.04422
35.15309
35.25799
35.360527
35.458214
35.551683
35.640121
35.72417
35.809065
32.183267
32.391913
32.59345
32.787776
32.975407
33.156986
33.332357
33.501046
33.662804
33.818543
33.969579
34.11595
34.257033
34.392554
34.52267
34.647916
34.767908
34.88253
34.992226
35.097761
35.199588
35.29656
35.389453
35.478785
35.564945
35.650046
32.082046
32.289132
32.48942
32.682636
32.869063
33.049291
33.223554
33.391786
33.553641
33.709209
33.859104
34.003616
34.142782
34.277168
34.40678
34.531122
34.65011
34.764112
34.873991
34.980618
35.083091
35.180561
35.273897
35.363022
35.448781
35.532808
32.010939
32.216314
32.415081
32.607117
32.792707
32.972409
33.146379
33.314367
33.47581
33.630435
33.778617
33.92113
34.058498
34.191211
34.319552
34.443316
34.562539
34.677088
34.787474
34.893748
34.995264
35.091909
35.184974
35.274129
35.359972
35.443536
35.523762
32.162831
32.360342
32.551315
32.735835
32.914149
33.086557
33.253016
33.41315
33.5668
33.714282
33.855939
33.992691
34.124848
34.252795
34.376427
34.495195
34.609008
34.718783
34.824434
34.926227
35.024227
35.118003
35.207596
35.293447
35.375909
35.454521
32.122969
32.319035
32.508563
32.691521
32.86825
33.039175
33.204334
33.363457
33.516394
33.663371
33.804724
33.941237
34.073105
34.200589
34.32332
34.441632
34.555822
34.665905
34.771761
34.873097
34.970112
35.062853
35.15181
35.237685
35.320675
35.40012
35.47628
32.093541
32.287846
32.475954
32.657863
32.833632
33.00329
33.167078
33.325001
33.477354
33.623904
33.764959
33.900775
34.032024
34.158991
34.281631
34.399894
34.513788
34.623312
34.728439
34.829222
34.926104
35.019213
35.10888
35.195435
35.27868
35.358531
35.435176
32.072247
32.264892
32.451394
32.631897
32.806288
32.974622
33.137
33.293731
33.445091
33.591274
33.732345
33.868119
33.999045
34.125688
34.248299
34.366523
34.480446
34.590103
34.695264
34.796161
34.893167
34.986255
35.075742
35.162106
35.245425
35.325808
35.403229
32.056656
32.247676
32.432555
32.611392
32.784262
32.951355
33.11268
33.268573
33.419182
33.564608
33.704956
33.840386
33.971072
34.097275
34.219217
34.336731
34.449913
34.558971
34.663889
34.764737
34.861879
34.955421
35.04548
35.13224
35.21575
35.296149
35.373624
32.046626
32.236032
32.419295
32.596546
32.767918
32.933575
33.093707
33.248662
33.39863
33.543661
33.683622
33.818497
33.948661
34.074318
34.195679
34.312792
34.425555
34.534071
34.638534
34.73918
34.836305
34.930061
35.020396
35.107415
35.191157
35.271756
35.349459
32.22943
32.411068
32.586816
32.756975
32.921766
33.081303
33.235535
33.384532
33.528546
33.667695
33.802078
33.931912
34.057234
34.178089
34.294551
34.406774
34.514918
34.619248
34.720026
34.817433
34.91155
35.00238
35.089938
35.174225
35.255328
35.333456
32.228648
32.408996
32.583644
32.752774
32.916508
33.074909
33.227996
33.375963
33.51899
33.657255
33.790929
33.920164
34.04508
34.165835
34.282437
34.394871
34.503158
34.607461
34.708064
34.805264
34.899288
34.990235
35.078084
35.162784
35.244376
35.323006
32.235104
32.414019
32.587246
32.754909
32.917223
33.074382
33.226476
33.373607
33.515876
33.653359
33.786256
33.914742
34.039027
34.159313
34.275697
34.388236
34.496882
34.601649
34.702701
34.800236
34.894463
34.985558
35.073646
35.158798
35.241087
35.320561
32.426256
32.597919
32.764154
32.925158
33.081141
33.232241
33.378504
33.519968
33.656778
33.789134
33.917139
34.040998
34.160892
34.276951
34.389303
34.498005
34.6031
34.704644
34.802734
34.897478
34.989005
35.077433
35.162886
35.245492
35.325365
32.448194
32.618193
32.78298
32.942697
33.097516
33.247589
33.393023
33.533848
33.670146
33.802055
33.9297
34.053281
34.17298
34.288922
34.401195
34.509851
34.614961
34.71664
34.814984
34.910098
35.002085
35.091035
35.177057
35.260266
35.340784
32.482104
32.650539
32.813844
32.972186
33.125762
33.274747
33.419268
33.55936
33.6951
33.826587
33.953955
34.077332
34.196866
34.312683
34.424895
34.533612
34.638924
34.740929
34.839707
34.935341
35.027915
35.117519
35.204253
35.288224
35.369558
32.697509
32.859448
33.016533
33.168951
33.316878
33.460468
33.599814
33.735007
33.866138
33.993305
34.116593
34.236095
34.351909
34.46415
34.572952
34.678441
34.780732
34.879919
34.976084
35.069305
35.159663
35.247242
35.33214
35.41446
32.762298
32.923118
33.079197
33.230689
33.377773
33.520582
33.659236
33.793843
33.924511
34.051339
34.174441
34.293914
34.409852
34.522352
34.631515
34.737445
34.84025
34.940031
35.03688
35.130885
35.22213
35.310694
35.396658
35.480116
33.009592
33.164638
33.315261
33.461605
33.603803
33.741996
33.876284
34.006765
34.133518
34.256631
34.376203
34.49234
34.605148
34.714736
34.821209
34.924662
35.025193
35.12289
35.217834
35.310104
35.399774
35.486921
35.571632
33.279641
33.429397
33.574977
33.716572
33.85434
33.988399
34.118843
34.245743
34.369185
34.489231
34.605941
34.719394
34.829694
34.936934
35.041218
35.142649
35.24132
35.337327
35.430754
35.521676
35.610168
35.696314
33.432386
33.581469
33.726641
33.867972
34.005569
34.139555
34.270041
34.397165
34.521013
34.641641
34.759126
34.873534
34.984923
35.093358
35.198921
35.301691
35.401758
35.499212
35.594134
35.686605
35.776713
35.864543
33.784173
33.929073
34.070384
34.208178
34.342531
34.473533
34.601289
34.725882
34.847392
34.965899
35.081468
35.19417
35.304073
35.411235
35.515721
35.617604
35.716958
35.813833
35.908302
36.000435
36.090327
34.199415
34.340861
34.479033
34.614002
34.745831
34.874591
35.000356
35.123186
35.243147
35.360313
35.474755
35.586532
35.695706
35.802339
35.906496
36.008231
36.107594
36.204635
36.299412
36.391998
34.707434
34.846613
34.982786
35.116017
35.246363
35.373882
35.498628
35.620661
35.740038
35.856815
35.971047
36.082793
36.19211
36.299058
36.403689
36.506055
36.606207
36.704198
36.800091
35.490499
35.626075
35.758946
35.88917
36.016797
36.141877
36.264465
36.384609
36.502352
36.617736
36.730806
36.841608
36.950186
37.056585
37.160851
37.263025
37.363152
36.359395
36.496376
36.630908
36.763034
36.892792
37.020225
37.145365
37.268246
37.388901
37.507362
37.623661
37.737831
37.849902
37.959904
38.067868
38.173813
37.775695
37.914936
38.051996
38.186911
38.3197
38.450385
38.578987
38.70553
38.830042
38.952535
39.073023
39.19152
39.308034
39.422525
40.550149
40.68671
40.821928
40.955596
41.087432
41.217269
41.34504
41.470763
41.594476
41.716162
41.835657
41.952121
)
;

boundaryField
{
    Side
    {
        type            empty;
    }
    Inlet
    {
        type            fixedValue;
        value           uniform 60.24606;
    }
    Airfoil
    {
        type            omegaWallFunction;
        blending        binomial;
        n               2;
        value           nonuniform List<scalar> 0();
    }
    Outlet
    {
        type            inletOutlet;
        inletValue      nonuniform List<scalar> 0();
        value           nonuniform List<scalar> 0();
    }
    procBoundary2to1
    {
        type            processor;
        value           nonuniform List<scalar> 
75
(
42.984535
45.849055
41.134972
41.134972
39.887627
39.887627
38.984845
38.984845
38.30261
38.30261
37.773775
37.773775
37.356549
37.356549
37.023454
37.023454
36.754288
36.754288
36.53482
36.53482
36.354337
36.354337
36.20517
36.20517
36.080053
35.998298
35.998298
35.894766
35.894766
35.805365
35.805365
35.7342
35.726544
35.726544
35.670841
35.670841
35.615774
35.615774
35.596028
35.565513
35.565513
35.556071
35.556071
1199.5601
967.12449
471.01202
232.56923
150.28794
114.83315
94.357463
80.402577
80.402577
71.244096
61.291178
53.402409
47.898366
44.313139
42.072572
40.43336
40.43336
39.097517
38.058188
37.277582
37.277582
36.777159
36.348765
36.03131
36.03131
35.897729
35.735344
35.614511
35.614511
35.599356
35.529652
35.529652
)
;
    }
    procBoundary2to3
    {
        type            processor;
        value           nonuniform List<scalar> 
65
(
239.26303
213.61907
167.0424
123.99958
95.445418
77.575588
65.720071
57.298103
51.034208
46.266603
42.971249
42.971249
40.088402
37.897734
36.245846
35.015653
34.112346
33.453398
32.968059
32.601653
32.321142
32.113223
31.967717
31.868435
31.799034
31.959021
31.959021
31.920574
31.89291
31.873258
31.859324
31.85091
32.041661
32.041661
32.042415
32.050438
32.249021
32.249021
32.272867
32.308399
32.530489
32.530489
32.596619
32.849979
32.849979
33.12563
33.12563
33.279311
33.635665
33.635665
34.05463
34.05463
34.565184
34.565184
35.211026
35.352168
35.352168
36.219921
36.219921
37.490575
37.634253
37.634253
40.27334
40.412338
40.412338
)
;
    }
    procBoundary2to9
    {
        type            processor;
        value           nonuniform List<scalar> 
23
(
255.32843
270.15223
286.12377
303.5893
322.62895
343.00924
364.40543
386.72917
410.26057
435.54479
463.18205
493.55685
526.49562
561.44933
598.63168
639.76154
686.81467
739.52744
795.82666
856.37959
925.21796
1004.6945
1094.9756
)
;
    }
    procBoundary2to10
    {
        type            processor;
        value           uniform 240.93872;
    }
}


// ************************************************************************* //
