/*--------------------------------*- C++ -*----------------------------------*\
| =========                 |                                                 |
| \\      /  F ield         | OpenFOAM: The Open Source CFD Toolbox           |
|  \\    /   O peration     | Version:  2506                                  |
|   \\  /    A nd           | Website:  www.openfoam.com                      |
|    \\/     M anipulation  |                                                 |
\*---------------------------------------------------------------------------*/
FoamFile
{
    version     2.0;
    format      ascii;
    arch        "LSB;label=32;scalar=64";
    class       volScalarField;
    location    "2.5";
    object      T;
}
// * * * * * * * * * * * * * * * * * * * * * * * * * * * * * * * * * * * * * //

dimensions      [0 0 0 1 0 0 0];

internalField   nonuniform List<scalar> 
19257
(
245.58902
245.59091
245.58842
245.58713
245.58541
245.58311
245.58351
245.58368
245.58319
245.58106
245.58215
245.58127
245.57967
245.57649
245.57617
245.57491
245.5719
245.57006
245.56831
245.56628
245.5634
245.56106
245.55876
245.55251
245.54368
245.54304
245.5383
245.52997
245.52889
245.52882
245.52553
245.52192
245.51566
245.51484
245.51742
245.51628
245.51986
245.52386
245.51652
245.49611
245.50774
245.45175
245.38048
245.42033
245.42566
245.3185
244.87382
244.72143
244.22662
245.5898
245.58932
245.58783
245.58697
245.58619
245.58398
245.58435
245.58375
245.58344
245.58193
245.58188
245.58175
245.58072
245.57784
245.57768
245.57645
245.57266
245.5705
245.57226
245.56973
245.56727
245.56455
245.56413
245.55982
245.55082
245.54974
245.54805
245.53981
245.5396
245.54199
245.54309
245.54201
245.53874
245.54046
245.54764
245.55017
245.55493
245.56954
245.58037
245.57442
245.54667
245.52527
245.58041
245.60337
245.52253
245.43975
245.31206
245.11661
244.3022
245.59079
245.58948
245.58757
245.58718
245.58731
245.58521
245.58529
245.58432
245.58449
245.58251
245.58257
245.58349
245.58156
245.57955
245.57915
245.57855
245.57564
245.57484
245.57678
245.57333
245.57115
245.56962
245.56963
245.5673
245.55844
245.55651
245.55731
245.55187
245.55038
245.55559
245.55942
245.56092
245.56212
245.56558
245.57547
245.58285
245.59899
245.61844
245.6342
245.64126
245.6246
245.65375
245.69095
245.72835
245.75097
245.69191
245.54573
245.43809
244.52693
245.59187
245.59009
245.58768
245.58743
245.58795
245.58626
245.58585
245.58519
245.58554
245.58411
245.5838
245.58439
245.58365
245.58179
245.58089
245.5807
245.5796
245.57898
245.58026
245.57707
245.57534
245.57471
245.57452
245.57343
245.56651
245.56382
245.56554
245.56308
245.56276
245.56898
245.5742
245.58003
245.58578
245.58996
245.60095
245.61447
245.62993
245.65624
245.68238
245.70111
245.7225
245.73923
245.75452
245.82307
245.88522
245.86209
245.78445
245.71961
244.88783
245.59154
245.59093
245.58794
245.58767
245.58835
245.58721
245.58643
245.5864
245.58641
245.58582
245.58516
245.58518
245.58558
245.58333
245.5831
245.58355
245.58257
245.58129
245.58198
245.58084
245.57981
245.57966
245.57953
245.57898
245.57523
245.57144
245.57325
245.57497
245.57668
245.58205
245.58963
245.59837
245.60841
245.6158
245.62827
245.64405
245.66615
245.69543
245.72778
245.75962
245.78094
245.79115
245.8668
245.95815
246.02531
246.03957
246.05656
245.99898
245.22677
245.5927
245.59155
245.58759
245.5878
245.58898
245.58843
245.58757
245.58841
245.58768
245.58701
245.58615
245.58694
245.58655
245.5852
245.58496
245.58558
245.58466
245.58389
245.5838
245.58477
245.58468
245.58455
245.58509
245.58502
245.58378
245.58138
245.58203
245.5867
245.59009
245.59578
245.60521
245.61639
245.63017
245.64141
245.6555
245.67373
245.69823
245.72945
245.77131
245.81271
245.84753
245.8866
245.94898
246.03932
246.15372
246.20522
246.26603
246.27211
245.64134
245.59389
245.5919
245.58699
245.58792
245.58964
245.59002
245.58928
245.58979
245.58827
245.58809
245.58755
245.58797
245.58796
245.58816
245.58664
245.5871
245.58772
245.58732
245.58725
245.58893
245.59022
245.58983
245.59143
245.59239
245.59372
245.59239
245.59201
245.59774
245.60296
245.61047
245.62121
245.63381
245.6503
245.66626
245.68327
245.7042
245.73071
245.7664
245.80898
245.85875
245.90932
245.93883
246.02116
246.14099
246.25349
246.34491
246.43318
246.5333
246.04823
245.59531
245.59312
245.58739
245.58879
245.59054
245.59181
245.591
245.59087
245.58955
245.58947
245.58917
245.5891
245.58986
245.59007
245.5889
245.58971
245.59147
245.59121
245.59143
245.59353
245.59578
245.59584
245.59855
245.60058
245.60318
245.60352
245.60356
245.60833
245.61534
245.62523
245.63736
245.6508
245.66923
245.68959
245.71131
245.73536
245.7629
245.80175
245.8481
245.90685
245.95742
246.01432
246.10744
246.22702
246.34087
246.51064
246.67236
246.78842
246.45136
245.59723
245.59477
245.58798
245.5894
245.5914
245.593
245.59232
245.59141
245.59082
245.59081
245.59073
245.59068
245.59163
245.59259
245.592
245.59261
245.59438
245.59515
245.59535
245.59821
245.60076
245.60176
245.6049
245.60801
245.61224
245.61474
245.61513
245.61963
245.62805
245.64005
245.65375
245.66785
245.68766
245.71107
245.73773
245.76539
245.79667
245.83646
245.88744
245.94777
246.01413
246.0858
246.16755
246.28738
246.47142
246.63392
246.80728
246.99995
246.85323
245.59784
245.59555
245.58833
245.58898
245.59109
245.59326
245.59318
245.59161
245.59198
245.59186
245.59223
245.59232
245.59309
245.5951
245.59509
245.59494
245.59683
245.5986
245.59903
245.60199
245.60499
245.60731
245.61105
245.61566
245.62076
245.62488
245.62705
245.63221
245.64132
245.65469
245.67034
245.68523
245.7057
245.73129
245.76151
245.7944
245.82835
245.8705
245.92362
245.98991
246.06376
246.13404
246.23396
246.37422
246.55767
246.72343
246.97602
247.23764
247.20749
245.59676
245.59593
245.58789
245.58992
245.59251
245.59386
245.59304
245.59189
245.59252
245.59326
245.59384
245.59401
245.59468
245.59665
245.59745
245.59719
245.59942
245.602
245.60305
245.60594
245.60951
245.61299
245.61755
245.62347
245.62922
245.63492
245.63866
245.64457
245.65438
245.66876
245.68653
245.70291
245.72363
245.75059
245.78283
245.82087
245.8584
245.90304
245.96039
246.02863
246.10861
246.19837
246.29938
246.44946
246.61824
246.86739
247.10939
247.42428
247.54177
245.59881
245.5978
245.58691
245.59184
245.59318
245.59359
245.59306
245.59291
245.5933
245.59441
245.59544
245.59584
245.59609
245.59808
245.59967
245.59977
245.60213
245.60502
245.60701
245.61023
245.61445
245.61869
245.62384
245.63074
245.63718
245.64437
245.64944
245.65587
245.66661
245.68215
245.70196
245.72033
245.7412
245.76898
245.80275
245.84382
245.88596
245.9337
245.99284
246.06629
246.15357
246.24498
246.3509
246.5089
246.70023
246.95926
247.21072
247.63865
247.83956
245.60045
245.59795
245.58601
245.59052
245.59296
245.59367
245.59322
245.59427
245.59481
245.59564
245.59681
245.59795
245.59797
245.5999
245.6018
245.60259
245.60496
245.60816
245.61106
245.6146
245.61883
245.62349
245.6292
245.63718
245.6446
245.65304
245.65988
245.66672
245.67811
245.69465
245.7161
245.73683
245.75817
245.78648
245.8215
245.86435
245.91071
245.96033
246.02286
246.10115
246.1903
246.29075
246.41046
246.56642
246.78014
247.02322
247.37325
247.80732
248.09298
245.60354
245.6003
245.58779
245.59094
245.59332
245.59434
245.59465
245.59559
245.59605
245.59694
245.59817
245.59978
245.60007
245.60201
245.60409
245.6054
245.60772
245.61108
245.6146
245.6187
245.62318
245.62819
245.63424
245.6429
245.65137
245.66067
245.66961
245.67719
245.68875
245.70584
245.72854
245.75168
245.77405
245.80268
245.83878
245.88309
245.93226
245.98432
246.04962
246.13004
246.22701
246.3325
246.45628
246.61252
246.83794
247.11331
247.46087
247.94845
248.32607
245.60635
245.60259
245.58936
245.592
245.59279
245.59398
245.596
245.59656
245.59704
245.59798
245.59933
245.6011
245.60171
245.60349
245.60582
245.60767
245.61013
245.61371
245.61791
245.62267
245.62745
245.6327
245.63906
245.64811
245.6576
245.66734
245.67797
245.68679
245.69832
245.71555
245.73907
245.76429
245.78841
245.81731
245.8544
245.90004
245.95085
246.00512
246.07133
246.15694
246.25708
246.36784
246.49763
246.66444
246.88776
247.18887
247.53949
248.10004
248.51312
245.60813
245.60434
245.59097
245.59346
245.59377
245.59494
245.597
245.59715
245.59701
245.59847
245.60028
245.60197
245.60288
245.60454
245.60707
245.60927
245.61202
245.61569
245.62022
245.62559
245.63085
245.63636
245.64302
245.65244
245.66295
245.67308
245.68469
245.69499
245.70669
245.72384
245.74766
245.77444
245.80064
245.83016
245.86793
245.91462
245.9667
246.02233
246.08921
246.17761
246.28237
246.39835
246.53038
246.70556
246.92791
247.23773
247.63884
248.18945
248.67192
245.60857
245.60545
245.59171
245.594
245.59532
245.59687
245.59848
245.5983
245.598
245.59956
245.60105
245.60267
245.60415
245.60584
245.6084
245.61077
245.61366
245.6173
245.62184
245.62763
245.63333
245.6391
245.64603
245.65568
245.6669
245.67745
245.68951
245.70121
245.71346
245.73052
245.75424
245.78188
245.80986
245.84053
245.87885
245.9262
245.97924
246.03553
246.10271
246.19218
246.3012
246.42063
246.55724
246.73361
246.96825
247.27823
247.6929
248.27511
248.79842
245.60878
245.60557
245.59139
245.59405
245.59597
245.59776
245.59937
245.60004
245.59927
245.60016
245.60154
245.60348
245.60556
245.6076
245.61015
245.61245
245.61541
245.61901
245.62339
245.62934
245.63522
245.64115
245.64814
245.65777
245.66933
245.68019
245.69231
245.70506
245.71823
245.73536
245.75873
245.7865
245.81578
245.84795
245.88717
245.93483
245.98803
246.04463
246.11196
246.20247
246.31357
246.43639
246.57724
246.75468
246.9932
247.30962
247.728
248.33969
248.88
245.6091
245.60556
245.59089
245.59361
245.59541
245.59746
245.60072
245.60207
245.60051
245.60006
245.60226
245.60397
245.60598
245.60855
245.61124
245.61343
245.61647
245.62011
245.62441
245.63064
245.63683
245.64287
245.6498
245.65943
245.67121
245.68228
245.69422
245.70763
245.7218
245.73914
245.76211
245.78956
245.81968
245.85358
245.89393
245.94173
245.99474
246.05141
246.11955
246.21072
246.32304
246.44807
246.59189
246.77314
247.01201
247.33325
247.76111
248.37753
248.93226
245.6092
245.60545
245.59075
245.59295
245.59454
245.59752
245.60049
245.60239
245.60201
245.60304
245.60449
245.60427
245.60589
245.60898
245.61173
245.61373
245.61684
245.62043
245.62452
245.6309
245.63731
245.64358
245.6506
245.66034
245.67223
245.68342
245.69518
245.70888
245.72376
245.74145
245.76403
245.79067
245.82088
245.85613
245.89756
245.94522
245.99747
246.05356
246.12254
246.21441
246.32629
246.45153
246.59715
246.77992
247.01985
247.34178
247.77334
248.39961
248.96372
245.60886
245.60515
245.59084
245.59239
245.59361
245.59739
245.60038
245.60197
245.60352
245.60364
245.60282
245.60335
245.60569
245.609
245.61163
245.61356
245.61678
245.62029
245.62419
245.63046
245.63671
245.64295
245.6499
245.65946
245.67094
245.68192
245.69342
245.70719
245.72244
245.74042
245.7625
245.78798
245.81793
245.85429
245.89649
245.94335
245.99413
246.04905
246.1187
246.21122
246.32136
246.44482
246.59048
246.7735
247.01198
247.33064
247.75759
248.37783
248.93593
245.60807
245.60456
245.5906
245.59212
245.59322
245.59664
245.59959
245.60127
245.60286
245.60149
245.60091
245.60287
245.60583
245.6087
245.61092
245.61298
245.6163
245.61961
245.62348
245.62958
245.63546
245.64144
245.64833
245.65773
245.66845
245.67893
245.69014
245.70396
245.71936
245.73754
245.75892
245.78308
245.81281
245.85009
245.89231
245.93745
245.98619
246.03989
246.11034
246.2034
246.3107
246.43063
246.57497
246.75728
246.99269
247.30485
247.72807
248.33874
248.87872
245.6067
245.60352
245.59009
245.5919
245.59334
245.59665
245.59769
245.5995
245.60115
245.60072
245.60132
245.60322
245.60561
245.60811
245.61005
245.61222
245.61547
245.61853
245.6224
245.62821
245.63356
245.63919
245.64598
245.65509
245.66493
245.67479
245.68578
245.69959
245.71495
245.73335
245.75398
245.77693
245.80666
245.84457
245.88608
245.92918
245.97593
246.02855
246.09996
246.19311
246.29698
246.41281
246.55467
246.73595
246.9657
247.277
247.67985
248.28879
248.78975
245.60491
245.60225
245.58981
245.59193
245.59263
245.59615
245.59634
245.59669
245.59904
245.59995
245.60092
245.60286
245.60501
245.60717
245.60874
245.61074
245.61369
245.61653
245.62029
245.62566
245.63046
245.63588
245.64267
245.65137
245.66029
245.66951
245.68034
245.69384
245.70887
245.72716
245.74663
245.76854
245.79839
245.83624
245.8762
245.91705
245.9618
246.01367
246.08574
246.17813
246.27838
246.38908
246.52827
246.70463
246.93342
247.22529
247.62586
248.19295
248.67266
245.60326
245.60081
245.58948
245.59168
245.59264
245.59426
245.59615
245.59628
245.5971
245.59822
245.59892
245.60089
245.60332
245.60556
245.60681
245.60867
245.61154
245.61436
245.61779
245.62248
245.62673
245.63198
245.63877
245.6468
245.65475
245.66327
245.67387
245.68672
245.70137
245.71927
245.73711
245.75812
245.78796
245.82503
245.86255
245.90078
245.94341
245.99515
246.06776
246.15776
246.25288
246.35913
246.49412
246.66609
246.88723
247.16426
247.54556
248.09363
248.50657
245.60116
245.5988
245.58902
245.59212
245.59377
245.59434
245.5955
245.59656
245.59775
245.59865
245.59853
245.59982
245.60191
245.60425
245.6051
245.60685
245.60938
245.6118
245.61459
245.61864
245.62248
245.62763
245.63431
245.64133
245.64831
245.65608
245.66633
245.6784
245.69271
245.70972
245.72556
245.74601
245.77553
245.81108
245.84589
245.88134
245.92172
245.97364
246.04609
246.13237
246.22193
246.32341
246.45126
246.62285
246.82483
247.10508
247.42785
247.93887
248.32159
245.5988
245.59757
245.58915
245.58991
245.59146
245.59354
245.59362
245.59523
245.59666
245.59746
245.59752
245.59899
245.60064
245.60255
245.60281
245.60457
245.60692
245.60909
245.61154
245.61499
245.61814
245.62302
245.62922
245.63507
245.64127
245.64828
245.65803
245.66931
245.68316
245.69861
245.7124
245.73255
245.76121
245.79472
245.82676
245.8592
245.89743
245.95005
246.0213
246.10222
246.18606
246.28152
246.40678
246.56919
246.76846
247.01839
247.3585
247.67465
248.08117
245.59621
245.59556
245.5897
245.59012
245.59171
245.59297
245.59235
245.59284
245.59494
245.59541
245.59544
245.59713
245.59887
245.60042
245.60017
245.60212
245.60454
245.60602
245.60825
245.61096
245.61338
245.61791
245.62332
245.62795
245.63348
245.6399
245.64911
245.65964
245.67284
245.68608
245.69832
245.71802
245.74533
245.77649
245.8055
245.83455
245.87121
245.92457
245.99324
246.06774
246.14444
246.23544
246.35802
246.50686
246.69766
246.93352
247.23079
247.59968
247.80534
245.59567
245.59391
245.58903
245.59141
245.59206
245.59211
245.59283
245.59242
245.59323
245.59424
245.59432
245.59574
245.59709
245.59728
245.59713
245.59948
245.60171
245.60232
245.60451
245.60604
245.6079
245.61187
245.61637
245.62002
245.62483
245.63078
245.63926
245.64914
245.66155
245.67232
245.68376
245.70255
245.72836
245.75679
245.78218
245.80768
245.84382
245.89751
245.96192
246.02818
246.09914
246.18825
246.30205
246.44316
246.61883
246.84653
247.09335
247.40838
247.51925
245.59522
245.59256
245.58748
245.59071
245.5911
245.59092
245.59139
245.59216
245.59224
245.59273
245.59323
245.59435
245.59506
245.5945
245.59462
245.59701
245.59808
245.59807
245.60032
245.6016
245.60311
245.60603
245.60918
245.6119
245.61557
245.62121
245.62865
245.63771
245.64912
245.65773
245.66875
245.68636
245.71029
245.73563
245.75679
245.77947
245.81535
245.86832
245.92646
245.98374
246.05185
246.13656
246.24055
246.37308
246.53281
246.72188
247.00314
247.21462
247.17588
245.59378
245.5917
245.58696
245.5898
245.5902
245.58893
245.58975
245.59098
245.59072
245.59109
245.59222
245.59327
245.59321
245.59235
245.59269
245.59446
245.59439
245.59383
245.59589
245.59683
245.59839
245.60065
245.60185
245.60401
245.6063
245.61187
245.61839
245.62628
245.63605
245.6428
245.65316
245.66954
245.69124
245.71305
245.72964
245.75075
245.78683
245.83784
245.88858
245.93677
246.00167
246.07916
246.17553
246.29699
246.43595
246.60548
246.79173
247.05137
246.83004
245.5925
245.59155
245.58679
245.58902
245.58964
245.58826
245.58911
245.58933
245.58986
245.59009
245.591
245.59174
245.59135
245.59032
245.59092
245.59154
245.59206
245.59034
245.59125
245.59226
245.5933
245.59482
245.59473
245.59625
245.59761
245.60295
245.60836
245.61512
245.62285
245.62782
245.63702
245.65198
245.67134
245.68897
245.70198
245.72156
245.75852
245.80449
245.84623
245.89138
245.95153
246.02417
246.10906
246.21276
246.33421
246.48415
246.6185
246.75571
246.4473
245.59235
245.591
245.58677
245.58891
245.58863
245.58759
245.5886
245.58875
245.58886
245.58903
245.58936
245.59044
245.58912
245.58837
245.58996
245.5891
245.58911
245.58784
245.5866
245.58754
245.58857
245.5889
245.58775
245.58847
245.58989
245.59438
245.59856
245.60419
245.60935
245.61269
245.62025
245.63379
245.65089
245.66396
245.67465
245.69307
245.72886
245.76927
245.80087
245.84116
245.8988
245.96464
246.03845
246.12295
246.2251
246.33152
246.47113
246.51602
246.00446
245.5916
245.59045
245.58695
245.58866
245.58787
245.58762
245.58796
245.58786
245.58769
245.58752
245.58776
245.58894
245.58677
245.58691
245.58784
245.58652
245.58583
245.58525
245.58294
245.58255
245.58349
245.58314
245.58131
245.58029
245.58166
245.58598
245.58924
245.59331
245.59562
245.5975
245.60326
245.61531
245.62962
245.63912
245.6473
245.66507
245.69787
245.73154
245.75469
245.79182
245.84537
245.89893
245.96025
246.03143
246.10646
246.19087
246.24254
246.29047
245.6162
245.58756
245.58903
245.58769
245.58828
245.58723
245.5873
245.58706
245.58661
245.58616
245.58547
245.58648
245.5869
245.5843
245.58546
245.585
245.58322
245.58288
245.58194
245.5795
245.57839
245.57828
245.57734
245.57498
245.57289
245.57399
245.5773
245.57984
245.58215
245.58188
245.58227
245.58668
245.59707
245.60798
245.61407
245.62036
245.63644
245.66396
245.69037
245.70915
245.74474
245.79031
245.83404
245.87372
245.92653
245.97623
246.02549
246.0317
246.03189
245.24694
245.58971
245.5876
245.58737
245.58749
245.58656
245.58681
245.58646
245.585
245.58493
245.5842
245.58585
245.58381
245.58169
245.58465
245.58332
245.58064
245.57936
245.57834
245.57527
245.57454
245.57376
245.57224
245.56885
245.56595
245.5674
245.56943
245.57119
245.5703
245.56783
245.5676
245.57069
245.57879
245.58659
245.58943
245.59332
245.60572
245.62868
245.64533
245.66005
245.69009
245.73215
245.76056
245.78084
245.82068
245.85289
245.84173
245.77235
245.70883
244.8467
245.59201
245.58754
245.58756
245.58661
245.58586
245.58659
245.58561
245.58375
245.58412
245.58411
245.58519
245.58172
245.57931
245.58195
245.58047
245.57915
245.57685
245.57521
245.57158
245.57043
245.56904
245.56769
245.56349
245.55989
245.56159
245.56188
245.56216
245.55816
245.55445
245.55303
245.55525
245.5606
245.56416
245.56442
245.56615
245.57501
245.59137
245.60077
245.61519
245.64004
245.66605
245.67695
245.68586
245.69843
245.68501
245.67259
245.48408
245.41435
244.56249
245.59294
245.59162
245.58872
245.58617
245.58521
245.5861
245.58491
245.58378
245.58342
245.58415
245.58456
245.58104
245.57963
245.58183
245.57801
245.57596
245.57521
245.57264
245.56853
245.56642
245.56511
245.56245
245.55836
245.55456
245.55567
245.55484
245.55312
245.54536
245.54143
245.53937
245.53875
245.54223
245.54195
245.53818
245.53552
245.54108
245.54957
245.55441
245.56437
245.58461
245.59864
245.59518
245.56713
245.56106
245.55387
245.48081
245.22392
245.15237
244.23199
245.59347
245.59575
245.59068
245.58687
245.58502
245.58564
245.58426
245.58399
245.58309
245.58361
245.5837
245.58107
245.57923
245.58064
245.57687
245.57429
245.5728
245.57015
245.56649
245.56308
245.56262
245.55802
245.55372
245.54975
245.54933
245.54797
245.54403
245.53404
245.52907
245.52679
245.5237
245.52261
245.51949
245.51159
245.50548
245.50711
245.509
245.50644
245.50941
245.50976
245.51258
245.49105
245.46869
245.43685
245.34898
245.30607
244.93868
244.76817
244.16449
247.13566
246.64912
246.27051
246.11205
246.01434
245.95423
245.90359
245.8624
245.82519
245.78978
245.75983
245.73365
245.71226
245.6927
245.67072
245.64598
245.62635
245.61086
245.59925
245.58999
245.58291
245.57778
245.57531
245.57317
245.57052
245.56877
245.56808
245.5681
245.56925
245.57116
245.5733
245.57219
245.57325
245.57612
245.5781
245.58029
245.58139
245.58295
245.58288
245.58156
245.58144
245.58247
245.58227
245.58273
245.58229
245.5831
245.58401
245.58219
245.5761
246.7516
246.21847
245.99078
245.87661
245.84331
245.81833
245.79577
245.77402
245.75125
245.72661
245.70777
245.68533
245.66322
245.64686
245.63343
245.62075
245.60939
245.59829
245.59007
245.58343
245.57315
245.56605
245.56298
245.56309
245.56265
245.56313
245.56393
245.56473
245.56661
245.56879
245.57131
245.57057
245.57178
245.57496
245.57729
245.57976
245.58094
245.58262
245.58243
245.58115
245.58119
245.58222
245.58211
245.58252
245.58219
245.58294
245.58399
245.58206
245.57589
246.46943
245.97702
245.78159
245.74583
245.71745
245.70788
245.69865
245.68281
245.66861
245.65329
245.63896
245.62408
245.61825
245.61173
245.60646
245.59468
245.58438
245.57444
245.5676
245.56255
245.55636
245.55427
245.55365
245.55544
245.55676
245.55739
245.55894
245.56097
245.56319
245.56609
245.56923
245.56914
245.57054
245.57391
245.57653
245.57922
245.58052
245.58226
245.58199
245.5808
245.58097
245.58197
245.58195
245.58233
245.58212
245.58281
245.58401
245.58192
245.57572
246.34462
245.81421
245.65939
245.57925
245.59028
245.58205
245.5854
245.57849
245.57861
245.57353
245.57057
245.56754
245.56993
245.56475
245.56105
245.55659
245.55275
245.54917
245.54712
245.54655
245.54554
245.54622
245.54552
245.54713
245.54954
245.55079
245.55377
245.55717
245.56018
245.56358
245.56709
245.56771
245.56938
245.57284
245.57583
245.57867
245.58011
245.58187
245.58157
245.58052
245.58077
245.58174
245.58182
245.58215
245.58205
245.58271
245.58403
245.58182
245.57567
246.15603
245.6259
245.4668
245.43518
245.46158
245.47042
245.48685
245.48815
245.50123
245.50264
245.51318
245.51589
245.5216
245.52277
245.52562
245.52491
245.52612
245.52793
245.52826
245.53029
245.53284
245.53434
245.53537
245.53858
245.54215
245.5452
245.54937
245.55349
245.55709
245.56099
245.56483
245.56621
245.56832
245.57189
245.57522
245.57808
245.57968
245.58142
245.58116
245.58028
245.58058
245.58154
245.58172
245.58194
245.58197
245.5826
245.58404
245.58178
245.57571
246.09958
245.46968
245.36885
245.30954
245.35566
245.3573
245.38051
245.39401
245.41948
245.43032
245.44962
245.46358
245.47739
245.47368
245.48188
245.49111
245.4957
245.49969
245.5025
245.5079
245.51741
245.5222
245.52558
245.53098
245.53546
245.53953
245.54523
245.54976
245.55374
245.55847
245.56274
245.56465
245.56733
245.571
245.57462
245.57743
245.57917
245.58094
245.58075
245.58006
245.5804
245.58135
245.58161
245.58173
245.58192
245.58242
245.58408
245.58178
245.57572
245.92099
245.32698
245.23862
245.21186
245.25612
245.25505
245.2872
245.30606
245.34368
245.36024
245.39079
245.40811
245.42734
245.42971
245.43811
245.4528
245.46542
245.4753
245.48321
245.49031
245.50208
245.51131
245.51591
245.52222
245.52916
245.53414
245.54078
245.54667
245.5506
245.55571
245.56076
245.56307
245.5662
245.57021
245.57401
245.57672
245.57861
245.58045
245.58034
245.57985
245.58023
245.58116
245.5815
245.58154
245.58187
245.58236
245.58415
245.58184
245.57569
245.87956
245.18191
245.16348
245.12565
245.17114
245.16496
245.20298
245.22354
245.26484
245.28956
245.3286
245.34348
245.37295
245.39199
245.40555
245.41851
245.43441
245.44983
245.46428
245.47425
245.4851
245.49769
245.50638
245.51313
245.52299
245.52996
245.53631
245.5434
245.54785
245.55303
245.55864
245.56164
245.5651
245.56949
245.5734
245.57602
245.57802
245.57996
245.57994
245.57964
245.58003
245.58096
245.58143
245.5814
245.58181
245.58239
245.58415
245.58193
245.57553
245.70571
245.08762
245.05057
245.04598
245.08297
245.08978
245.14034
245.15866
245.19753
245.22322
245.27308
245.28863
245.316
245.3495
245.37673
245.39062
245.4059
245.42253
245.4415
245.45938
245.47189
245.48427
245.49755
245.50556
245.51593
245.52594
245.5327
245.53939
245.54524
245.5508
245.5565
245.56026
245.56407
245.56882
245.57278
245.57538
245.57748
245.57944
245.57956
245.57942
245.57982
245.58078
245.58138
245.58134
245.58172
245.58237
245.58421
245.58205
245.57538
245.6955
244.89584
244.96577
244.95741
245.00227
245.02691
245.08107
245.09859
245.13846
245.16397
245.2144
245.24094
245.27077
245.29702
245.3354
245.36421
245.38553
245.40334
245.42093
245.44279
245.46116
245.4737
245.48755
245.49899
245.50929
245.52057
245.52966
245.53591
245.54225
245.54884
245.55464
245.55877
245.56311
245.56818
245.57217
245.57486
245.57703
245.5789
245.57916
245.57918
245.5796
245.58065
245.58132
245.58127
245.58156
245.58237
245.5843
245.58215
245.57535
245.41871
244.81283
244.892
244.8898
244.92694
244.96749
245.01162
245.02852
245.08739
245.11706
245.15929
245.1943
245.24331
245.26418
245.29325
245.32866
245.36025
245.38719
245.40571
245.42598
245.44785
245.46462
245.47809
245.49178
245.50395
245.51483
245.52598
245.53314
245.53936
245.54675
245.55306
245.55731
245.56209
245.56755
245.57161
245.57446
245.57657
245.57835
245.57875
245.5789
245.57939
245.58055
245.58124
245.58117
245.5814
245.5824
245.58442
245.58225
245.57547
245.50296
244.67817
244.83515
244.82364
244.84273
244.89847
244.93884
244.95508
245.02755
245.06314
245.10793
245.13941
245.20074
245.24121
245.2712
245.30216
245.33021
245.36353
245.39222
245.41419
245.43445
245.45572
245.47063
245.4836
245.49911
245.51056
245.52099
245.53052
245.53735
245.54439
245.55144
245.55602
245.56092
245.56685
245.57112
245.57414
245.57598
245.57787
245.57834
245.57861
245.5792
245.5804
245.58114
245.58107
245.58128
245.58244
245.5845
245.58234
245.57559
245.18209
244.82169
244.60203
244.71233
244.79879
244.81963
244.88692
244.91332
244.97807
245.00564
245.06327
245.10115
245.1517
245.2013
245.24609
245.2881
245.31328
245.33986
245.37252
245.40216
245.42414
245.44625
245.46369
245.47671
245.49332
245.5069
245.51706
245.5272
245.53568
245.54244
245.54952
245.55477
245.55983
245.56596
245.57067
245.57386
245.57544
245.57747
245.57792
245.57833
245.57898
245.58024
245.58105
245.58093
245.5812
245.58236
245.58452
245.58261
245.57572
245.24009
244.49316
244.64459
244.5983
244.73642
244.73979
244.81993
244.87684
244.93896
244.96841
245.02618
245.07236
245.1182
245.16644
245.2108
245.26
245.30132
245.3274
245.35465
245.38691
245.41459
245.43756
245.45675
245.47146
245.48732
245.50236
245.51431
245.52405
245.53353
245.54085
245.54756
245.55346
245.55886
245.56501
245.57028
245.57359
245.57513
245.5771
245.57756
245.57804
245.57881
245.58016
245.58101
245.58077
245.58109
245.58228
245.58458
245.58298
245.57531
244.99906
244.62927
244.57401
244.59343
244.65707
244.69539
244.76749
244.81352
244.88703
244.93632
244.99922
245.04318
245.0935
245.14796
245.19196
245.23079
245.27521
245.31545
245.34406
245.37379
245.40544
245.42976
245.44885
245.4666
245.48269
245.497
245.51186
245.52209
245.53107
245.53919
245.54605
245.55224
245.55803
245.56428
245.56992
245.57324
245.57491
245.5768
245.57727
245.57773
245.57874
245.5801
245.58101
245.58068
245.581
245.58222
245.5845
245.58325
245.57501
245.10174
244.39522
244.55684
244.49016
244.61872
244.64784
244.74202
244.76491
244.8512
244.897
244.9643
245.01244
245.06896
245.12225
245.18295
245.22198
245.25463
245.2954
245.33245
245.36444
245.39766
245.4229
245.44162
245.461
245.47895
245.49326
245.50871
245.52032
245.52936
245.5371
245.54487
245.55129
245.55737
245.56378
245.56941
245.57286
245.57472
245.57654
245.57706
245.57739
245.57869
245.58006
245.58108
245.58062
245.58089
245.58218
245.58443
245.58346
245.5749
244.77829
244.44268
244.52382
244.46383
244.60959
244.59194
244.71635
244.72849
244.84266
244.88572
244.93802
244.9859
245.05366
245.09795
245.15625
245.21478
245.24904
245.28267
245.3188
245.35602
245.39017
245.4165
245.4366
245.45637
245.47502
245.49037
245.50541
245.51843
245.52784
245.53527
245.54372
245.55047
245.55686
245.56347
245.56885
245.5725
245.57449
245.57628
245.57684
245.5771
245.5787
245.58012
245.58109
245.58072
245.58077
245.58214
245.58439
245.58357
245.57544
245.0267
244.09951
244.44456
244.3876
244.56358
244.54905
244.68688
244.68359
244.81049
244.87102
244.92858
244.96959
245.03254
245.08527
245.14057
245.191
245.23956
245.27829
245.31222
245.34996
245.38291
245.40992
245.43354
245.45363
245.47132
245.48734
245.50303
245.51676
245.52591
245.53386
245.54266
245.54977
245.55642
245.56327
245.56836
245.57199
245.57421
245.57606
245.57658
245.57693
245.57881
245.58017
245.58105
245.581
245.58063
245.58198
245.58438
245.58327
245.57597
244.67942
244.29096
244.39991
244.36761
244.521
244.52761
244.67118
244.68022
244.79141
244.81488
244.90135
244.95947
245.00999
245.07384
245.13737
245.18119
245.2266
245.27128
245.30971
245.34716
245.37821
245.40661
245.43056
245.45102
245.4687
245.48492
245.50135
245.51555
245.5236
245.53232
245.54192
245.54935
245.55618
245.56301
245.56794
245.57149
245.57391
245.57585
245.57648
245.57688
245.57888
245.58023
245.58121
245.58123
245.58057
245.58182
245.58435
245.58294
245.57658
244.78549
244.1618
244.37344
244.29275
244.48425
244.45899
244.63008
244.65902
244.78479
244.79875
244.88428
244.94404
245.00145
245.06324
245.12597
245.17715
245.22467
245.26662
245.30594
245.34404
245.37505
245.40593
245.42801
245.4473
245.46634
245.48413
245.50064
245.51437
245.52161
245.53086
245.5413
245.54912
245.55632
245.56284
245.56753
245.57111
245.5735
245.57565
245.57652
245.57684
245.57888
245.58043
245.58125
245.58129
245.58059
245.58159
245.58432
245.58278
245.57636
244.80108
243.98206
244.33095
244.23225
244.47082
244.43571
244.60441
244.61312
244.74748
244.79455
244.87442
244.93505
245.00322
245.06069
245.10937
245.1704
245.22652
245.26653
245.30407
245.34007
245.37281
245.4032
245.42696
245.44567
245.46532
245.48357
245.50046
245.51332
245.52066
245.52991
245.54065
245.54874
245.55646
245.56285
245.56738
245.57067
245.57293
245.57539
245.57637
245.57683
245.57903
245.58052
245.58121
245.58169
245.58071
245.58135
245.58429
245.58284
245.57538
244.58507
243.94014