/*--------------------------------*- C++ -*----------------------------------*\
| =========                 |                                                 |
| \\      /  F ield         | OpenFOAM: The Open Source CFD Toolbox           |
|  \\    /   O peration     | Version:  2506                                  |
|   \\  /    A nd           | Website:  www.openfoam.com                      |
|    \\/     M anipulation  |                                                 |
\*---------------------------------------------------------------------------*/
FoamFile
{
    version     2.0;
    format      ascii;
    arch        "LSB;label=32;scalar=64";
    class       volScalarField;
    location    "0.0035";
    object      omega;
}
// * * * * * * * * * * * * * * * * * * * * * * * * * * * * * * * * * * * * * //

dimensions      [0 0 -1 0 0 0 0];

internalField   nonuniform List<scalar> 
13761
(
17474.123
17474.103
17474.169
17474.098
17474.029
17474.021
17475.17
17476.412
17474.107
17474.035
17474.025
17475.052
17476.256
17477.888
17479.976
17474.116
17474.032
17474.024
17475.058
17476.254
17477.746
17479.752
17482.155
17484.566
17474.134
17474.037
17474.03
17475.048
17476.246
17477.748
17479.743
17481.978
17484.336
17486.82
17489.281
17474.145
17474.041
17474.034
17475.045
17476.242
17477.729
17479.718
17481.968
17484.317
17486.616
17489.037
17492.846
17499.078
17474.16
17474.052
17474.041
17475.041
17476.237
17477.721
17479.703
17481.944
17484.289
17486.598
17489.014
17492.638
17498.836
17509.762
17522.436
17474.173
17474.057
17474.046
17475.037
17476.231
17477.711
17479.686
17481.927
17484.266
17486.567
17488.985
17492.627
17498.88
17509.597
17522.188
17529.83
17531.358
17528.086
17474.186
17474.065
17474.05
17475.032
17476.221
17477.697
17479.669
17481.907
17484.24
17486.542
17488.96
17492.608
17498.916
17509.764
17522.389
17529.647
17531.159
17527.801
17517.279
17508.162
17474.199
17474.071
17474.051
17475.028
17476.209
17477.682
17479.649
17481.885
17484.212
17486.514
17488.932
17492.593
17498.961
17509.877
17522.54
17529.86
17531.356
17527.896
17516.989
17507.721
17505.746
17515.437
17474.211
17474.076
17474.049
17475.02
17476.193
17477.663
17479.627
17481.861
17484.182
17486.484
17488.901
17492.576
17499.006
17510.012
17522.717
17530.012
17531.494
17527.974
17516.951
17507.54
17505.306
17514.701
17536.89
17546.716
17474.22
17474.076
17474.042
17475.006
17476.174
17477.641
17479.602
17481.834
17484.15
17486.45
17488.868
17492.557
17499.052
17510.15
17522.901
17530.193
17531.659
17528.072
17516.9
17507.332
17505.009
17514.035
17536.292
17546.132
17552.445
17590.224
17474.225
17474.069
17474.034
17474.988
17476.152
17477.616
17479.575
17481.805
17484.114
17486.414
17488.832
17492.535
17499.099
17510.295
17523.097
17530.383
17531.832
17528.174
17516.856
17507.121
17504.659
17513.299
17535.697
17545.724
17551.591
17585.685
17735.966
18026.06
18429.823
17474.225
17474.062
17474.023
17474.967
17476.126
17477.587
17479.544
17481.771
17484.074
17486.374
17488.793
17492.509
17499.148
17510.448
17523.304
17530.585
17532.017
17528.286
17516.809
17506.897
17504.301
17512.524
17535.022
17545.269
17550.757
17582.102
17721.831
18020.771
18419.702
19011.145
20089.154
17474.216
17474.053
17474.008
17474.942
17476.097
17477.555
17479.51
17481.735
17484.031
17486.331
17488.751
17492.48
17499.197
17510.608
17523.523
17530.8
17532.216
17528.407
17516.761
17506.66
17503.922
17511.698
17534.299
17544.797
17549.904
17578.422
17712.296
18010.541
18408.09
18987.002
20029.457
22484.123
28605.773
42761.001
17474.209
17474.041
17473.989
17474.913
17476.064
17477.519
17479.472
17481.694
17483.984
17486.283
17488.705
17492.447
17499.247
17510.776
17523.756
17531.029
17532.429
17528.539
17516.711
17506.411
17503.521
17510.818
17533.507
17544.296
17549.059
17574.686
17702.218
17997.601
18394.729
18961.642
19966.417
22308.785
28027.886
40644.011
58022.76
96678.287
197436.64
17474.201
17474.027
17473.966
17474.881
17476.027
17477.479
17479.431
17481.65
17483.933
17486.231
17488.654
17492.41
17499.297
17510.952
17524.001
17531.274
17532.657
17528.682
17516.66
17506.148
17503.097
17509.885
17532.641
17543.766
17548.234
17570.884
17691.662
17982.596
18379.506
18934.834
19900.331
22124.606
27470.695
38850.943
56599.271
93106.811
184326.21
17474.191
17474.009
17473.94
17474.847
17475.988
17477.436
17479.386
17481.602
17483.877
17486.174
17488.6
17492.367
17499.346
17511.136
17524.261
17531.534
17532.901
17528.838
17516.609
17505.871
17502.647
17508.901
17531.69
17543.207
17547.425
17567.046
17680.67
17965.647
18362.301
18906.424
19831.608
21932.793
26928.465
37315.066
55016.197
89420.943
171832.6
17474.179
17473.989
17473.912
17474.81
17475.947
17477.391
17479.338
17481.551
17483.816
17486.112
17488.54
17492.319
17499.395
17511.329
17524.536
17531.811
17533.163
17529.008
17516.559
17505.58
17502.171
17507.865
17530.641
17542.62
17546.635
17563.209
17669.303
17946.79
18343.012
18876.21
19760.598
21735.097
26397.179
35999.34
53313.385
85650.134
159981.01
17474.166
17473.968
17473.882
17474.772
17475.904
17477.343
17479.288
17481.496
17483.751
17486.044
17488.475
17492.265
17499.442
17511.528
17524.825
17532.107
17533.443
17529.191
17516.512
17505.275
17501.664
17506.777
17529.482
17542.007
17545.863
17559.403
17657.629
17926.072
18321.523
18844.042
19687.686
21533.068
25872.954
34817.96
51491.19
81817.92
148764.26
17474.152
17473.948
17473.852
17474.735
17475.861
17477.294
17479.235
17481.438
17483.683
17485.971
17488.404
17492.205
17499.488
17511.735
17525.13
17532.422
17533.743
17529.391
17516.467
17504.957
17501.126
17505.639
17528.199
17541.369
17545.09
17555.696
17645.719
17903.569
18297.688
18809.799
19613.262
21328.518
25353.273
33711.426
49586.162
77943.185
138160.98
17474.139
17473.927
17473.823
17474.697
17475.818
17477.245
17479.181
17481.378
17483.61
17485.893
17488.328
17492.138
17499.53
17511.948
17525.45
17532.758
17534.064
17529.607
17516.428
17504.626
17500.553
17504.45
17526.78
17540.705
17544.336
17552.102
17633.653
17879.379
18271.338
18773.364
19537.682
21123.184
24836.447
32628.467
47616.051
74041.718
128139.99
17474.126
17473.907
17473.794
17474.661
17475.775
17477.195
17479.126
17481.316
17483.534
17485.81
17488.246
17492.064
17499.569
17512.17
17525.785
17533.116
17534.408
17529.842
17516.396
17504.284
17499.943
17503.216
17525.21
17540.017
17543.575
17548.685
17621.509
17853.638
18242.295
18734.631
19461.286
20918.919
24322.857
31549.992
45599.753
70130.337
118669.94
17474.114
17473.889
17473.767
17474.626
17475.734
17477.146
17479.071
17481.252
17483.455
17485.721
17488.159
17491.983
17499.602
17512.398
17526.136
17533.495
17534.777
17530.096
17516.373
17503.935
17499.292
17501.941
17523.475
17539.29
17542.79
17545.499
17609.369
17826.565
18210.374
18693.492
19384.382
20717.545
23814.374
30470.566
43551.607
66227.057
109718.24
17474.104
17473.872
17473.742
17474.593
17475.694
17477.097
17479.015
17481.187
17483.373
17485.628
17488.066
17491.894
17499.628
17512.632
17526.503
17533.895
17535.172
17530.372
17516.36
17503.58
17498.598
17500.632
17521.57
17538.473
17542.044
17542.541
17597.332
17798.424
18175.365
18649.825
19307.202
20520.804
23314.145
29393.212
41486.056
62349.391
101252.51
17474.095
17473.858
17473.719
17474.563
17475.656
17477.05
17478.959
17481.121
17483.289
17485.529
17487.967
17491.797
17499.646
17512.868
17526.886
17534.317
17535.591
17530.674
17516.355
17503.223
17497.857
17499.296
17519.492
17537.536
17541.317
17539.88
17585.526
17769.531
18137.074
18603.489
19229.902
20330.353
22826.295
28327.117
39418.685
58514.25
93247.842
17474.088
17473.845
17473.698
17474.534
17475.619
17477.003
17478.903
17481.054
17483.202
17485.427
17487.862
17491.692
17499.657
17513.108
17527.284
17534.762
17536.035
17531.007
17516.355
17502.864
17497.069
17497.939
17517.224
17536.445
17540.604
17537.574
17574.097
17740.22
18095.43
18554.294
19152.535
20147.619
22355.395
27279.621
37366.133
54739.107
85681.409
17474.081
17473.835
17473.678
17474.508
17475.585
17476.958
17478.848
17480.987
17483.113
17485.32
17487.75
17491.579
17499.661
17513.351
17527.697
17535.229
17536.504
17531.374
17516.408
17502.517
17496.229
17496.568
17514.763
17535.171
17539.863
17535.683
17563.214
17710.812
18050.656
18501.944
19075.018
19973.728
21906.28
26262.343
35346.082
51043.458
78530.112
17474.077
17473.826
17473.661
17474.484
17475.552
17476.913
17478.791
17480.918
17483.022
17485.209
17487.631
17491.458
17499.644
17513.589
17528.123
17535.719
17536.998
17531.772
17516.464
17502.185
17495.338
17495.191
17512.099
17533.688
17539.083
17534.217
17553.08
17681.619
18002.298
18446.309
18997.122
19809.419
21483.616
25285.169
33377.401
47449.072
71776.214
17474.073
17473.82
17473.646
17474.461
17475.52
17476.869
17478.735
17480.849
17482.928
17485.093
17487.506
17491.328
17499.619
17513.824
17528.561
17536.231
17537.518
17532.204
17516.554
17501.861
17494.425
17493.794
17509.221
17531.97
17538.246
17533.17
17543.886
17653.131
17950.154
18387.315
18918.447
19655.009
21091.478
24359.195
31479.048
43979.42
65409.353
17474.071
17473.815
17473.632
17474.44
17475.49
17476.825
17478.677
17480.778
17482.831
17484.971
17487.374
17491.189
17499.577
17514.053
17529.008
17536.765
17538.064
17532.671
17516.68
17501.548
17493.508
17492.38
17506.146
17529.965
17537.333
17532.483
17535.903
17625.903
17895.663
18324.315
18838.431
19510.366
20733.031
23495.011
29670.471
40659.857
59427.98
17474.07
17473.811
17473.619
17474.42
17475.46
17476.781
17478.619
17480.705
17482.731
17484.842
17487.235
17491.038
17499.517
17514.271
17529.46
17537.318
17538.634
17533.175
17516.848
17501.256
17492.582
17490.948
17502.902
17527.618
17536.315
17532.123
17529.279
17600.392
17839.915
18256.499
18756.324
19374.812
20410.185
22702.055
27970.828
37516.291
53833.957
17474.07
17473.809
17473.607
17474.401
17475.431
17476.737
17478.559
17480.63
17482.628
17484.707
17487.09
17490.874
17499.438
17514.474
17529.914
17537.887
17539.226
17533.713
17517.063
17500.994
17491.652
17489.494
17499.515
17524.883
17535.142
17532.091
17524.072
17577.009
17783.901
18183.491
18671.135
19247.056
20123.393
21988.409
26398.649
34573.995
48629.254
17474.07
17473.808
17473.596
17474.382
17475.401
17476.692
17478.498
17480.551
17482.521
17484.565
17486.936
17490.696
17499.339
17514.656
17530.365
17538.469
17539.84
17534.288
17517.332
17500.776
17490.721
17488.014
17496.034
17521.705
17533.832
17532.302
17520.408
17556.155
17729.22
18105.838
18581.476
19125.255
19871.404
21359.708
24970.969
31857.919
43820.32
17474.07
17473.807
17473.586
17474.363
17475.372
17476.646
17478.434
17480.469
17482.41
17484.415
17486.772
17490.504
17499.214
17514.813
17530.809
17539.057
17540.474
17534.901
17517.657
17500.615
17489.8
17486.5
17492.518
17517.987
17532.429
17532.441
17518.393
17538.271
17677.327
18022.744
18486.476
19007.004
19651.188
20818.247
23701.765
29391.64
39422.16
17474.073
17473.807
17473.577
17474.344
17475.341
17476.599
17478.367
17480.383
17482.294
17484.257
17486.599
17490.298
17499.059
17514.94
17531.239
17539.648
17541.119
17535.553
17518.043
17500.522
17488.904
17484.943
17489.045
17513.616
17530.944
17532.398
17517.832
17523.852
17629.913
17932.625
18386.544
18889.403
19458.199
20362.673
22600.367
27194.137
35453.813
17474.075
17473.807
17473.567
17474.325
17475.31
17476.549
17478.298
17480.293
17482.171
17484.091
17486.413
17490.079
17498.869
17515.031
17531.652
17540.237
17541.767
17536.24
17518.499
17500.493
17488.056
17483.325
17485.713
17508.668
17528.874
17532.155
17518.543
17513.308
17588.659
17841.756
18279.52
18769.326
19286.746
19987.305
21670.509
25277.82
31934.071
17474.079
17473.808
17473.558
17474.305
17475.278
17476.498
17478.225
17480.198
17482.043
17483.918
17486.214
17489.848
17498.641
17515.081
17532.041
17540.817
17542.416
17536.957
17519.031
17500.59
17487.289
17481.616
17482.58
17503.188
17526.156
17531.47
17520.42
17506.47
17554.054
17755.572
18163.273
18643.439
19130.36
19682.556
20909.816
23648.217
28879.142
17474.082
17473.808
17473.548
17474.284
17475.243
17476.445
17478.148
17480.096
17481.907
17483.736
17485.999
17489.599
17498.374
17515.093
17532.401
17541.382
17543.058
17537.699
17519.637
17500.793
17486.653
17479.826
17479.676
17497.226
17522.623
17530.355
17522.899
17503.212
17526.608
17676.735
18042.021
18507.806
18981.978
19435.313
20308.747
22304.745
26296.355
17474.083
17473.809
17473.539
17474.261
17475.208
17476.389
17478.068
17479.988
17481.765
17483.545
17485.771
17489.332
17498.072
17515.022
17532.721
17541.926
17543.688
17538.466
17520.327
17501.135
17486.164
17478.057
17476.952
17490.914
17518.083
17528.766
17525.221
17503.354
17506.95
17608.523
17912.267
18364.328
18833.931
19230.215
19849.359
21239.05
24178.59
17474.097
17473.813
17473.529
17474.238
17475.17
17476.329
17477.983
17479.874
17481.615
17483.344
17485.527
17489.044
17497.733
17514.906
17532.999
17542.442
17544.296
17539.255
17521.098
17501.619
17485.835
17476.416
17474.369
17484.496
17512.247
17526.736
17526.802
17506.286
17495.354
17554.979
17785.42
18216.042
18677.346
19051.206
19505.707
20430.725
22503.246
17474.109
17473.816
17473.519
17474.212
17475.13
17476.266
17477.893
17479.754
17481.457
17483.131
17485.268
17488.738
17497.351
17514.71
17533.228
17542.925
17544.877
17540.063
17521.954
17502.255
17485.696
17474.915
17471.899
17478.29
17504.979
17524.266
17527.221
17511.314
17490.473
17516.098
17674.029
18059.856
18505.844
18882.344
19246.363
19845.301
21233.443
17474.122
17473.82
17473.508
17474.185
17475.089
17476.2
17477.798
17479.625
17481.288
17482.908
17484.991
17488.409
17496.925
17514.441
17533.396
17543.371
17545.427
17540.878
17522.887
17503.039
17485.788
17473.607
17469.487
17472.644
17496.614
17520.13
17526.104
17516.834
17491.362
17492.309
17582.354
17883.01
18329.25
18708.24
19039.042
19435.929
20317.812
17474.136
17473.824
17473.497
17474.157
17475.044
17476.13
17477.696
17479.488
17481.11
17482.675
17484.697
17488.056
17496.45
17514.086
17533.493
17543.776
17545.942
17541.698
17523.893
17503.96
17486.21
17472.595
17467.035
17467.768
17487.297
17514.304
17524.214
17520.991
17496.775
17482.148
17522.39
17717.331
18135.594
18519.558
18855.135
19148.301
19690.107
17474.151
17473.829
17473.486
17474.126
17474.997
17476.056
17477.588
17479.343
17480.923
17482.431
17484.383
17487.677
17495.923
17513.625
17533.521
17544.134
17546.419
17542.518
17524.974
17505.012
17486.93
17471.993
17464.504
17463.744
17477.619
17506.282
17521.523
17522.699
17505.067
17480.892
17487.248
17595.063
17920.568
18315.024
18671.306
18927.757
19272.513
17474.168
17473.835
17473.475
17474.093
17474.946
17475.978
17477.473
17479.188
17480.725
17482.177
17484.048
17487.267
17495.338
17513.034
17533.407
17544.436
17546.855
17543.334
17526.14
17506.172
17487.926
17471.761
17462.305
17460.211
17468.43
17496.014
17517.192
17522.011
17513.32
17486.872
17473.621
17512.813
17718.703
18099.023
18471.858
18730.704
18983.792
17474.187
17473.843
17473.462
17474.059
17474.893
17475.895
17477.352
17479.022
17480.516
17481.912
17483.693
17486.825
17494.679
17512.305
17533.18
17544.672
17547.245
17544.149
17527.393
17507.411
17489.183
17472.107
17460.539
17456.995
17460.405
17483.828
17510.517
17520.157
17518.47
17497.361
17474.665
17476.143
17559.063
17857.529
18264.646
18531.689
18752.257
17474.207
17473.851
17473.45
17474.022
17474.837
17475.808
17477.222
17478.846
17480.292
17481.636
17483.319
17486.346
17493.936
17511.384
17532.745
17544.822
17547.585
17544.958
17528.755
17508.715
17490.575
17472.917
17459.361
17453.927
17454.089
17470.497
17500.117
17517.359
17520.071
17508.219
17483.149
17468.739
17483.691
17618.231
18032.024
18328.645
18533.286
17474.229
17473.861
17473.437
17473.984
17474.778
17475.717
17477.086
17478.659
17480.056
17481.345
17482.931
17485.825
17493.089
17510.213
17532.049
17544.876
17547.864
17545.749
17530.251
17510.108
17492.135
17474.341
17458.929
17450.939
17449.465
17458.087
17485.801
17510.362
17518.301
17515.601
17496.158
17474.023
17465.669
17492.416
17715.562
18120.036
18327.61
17474.254
17473.872
17473.423
17473.943
17474.715
17475.62
17476.94
17478.462
17479.803
17481.039
17482.532
17485.263
17492.128
17508.719
17530.951
17544.727
17548.064
17546.504
17531.915
17511.604
17493.75
17476.276
17459.572
17448.903
17445.547
17448.214
17469.131
17498.969
17515.36
17518.059
17508.516
17486.587
17468.103
17463.531
17511.122
17784.256
18138.045
17474.281
17473.884
17473.409
17473.901
17474.649
17475.519
17476.786
17478.252
17479.535
17480.717
17482.121
17484.663
17491.045
17506.83
17529.272
17544.245
17548.164
17547.185
17533.787
17513.266
17495.368
17478.454
17461.15
17447.981
17442.069
17441.463
17452.898
17481.702
17507.094
17516.099
17516.087
17501.067
17480.258
17464.922
17465.263
17519.644
17793.003
17474.311
17473.898
17473.395
17473.857
17474.58
17475.413
17476.623
17478.03
17479.252
17480.381
17481.699
17484.032
17489.846
17504.508
17526.819
17543.234
17548.173
17547.725
17535.889
17515.21
17497.003
17480.734
17463.571
17448.189
17439.457
17436.855
17440.311
17461.245
17492.244
17512.375
17517.604
17512.285
17496.693
17477.012
17464.068
17464.629
17507.392
17474.344
17473.914
17473.38
17473.811
17474.507
17475.302
17476.453
17477.794
17478.952
17480.025
17481.263
17483.379
17488.56
17501.788
17523.435
17541.336
17547.853
17548.015
17538.208
17517.608
17498.72
17482.924
17466.604
17450.101
17438.337
17433.161
17432.489
17442.247
17469.513
17498.138
17513.506
17516.683
17510.376
17494.985
17476.745
17464.289
17461.114
17474.38
17473.934
17473.366
17473.763
17474.432
17475.186
17476.273
17477.546
17478.637
17479.652
17480.813
17482.713
17487.234
17498.78
17519.109
17538.259
17546.89
17548.053
17540.602
17520.646
17500.706
17484.976
17469.792
17453.209
17438.771
17430.646
17427.844
17429.498
17446.195
17475.725
17502.331
17514.52
17516.195
17510.767
17496.475
17478.256
17464.762
17474.42
17473.955
17473.352
17473.714
17474.353
17475.065
17476.086
17477.286
17478.307
17479.262
17480.347
17482.046
17485.915
17495.648
17513.989
17533.812
17544.728
17546.98
17542.665
17524.399
17503.273
17486.952
17472.781
17457.26
17441.391
17429.835
17424.448
17422.992
17428.187
17448.293
17478.766
17504.722
17516.032
17517.353
17513.638
17500.425
17482.092
17474.465
17473.979
17473.338
17473.663
17474.271
17474.939
17475.89
17477.014
17477.966
17478.853
17479.862
17481.384
17484.643
17492.579
17508.35
17527.911
17541.256
17545.226
17543.716
17528.676
17506.812
17489.155
17475.405
17461.469
17445.916
17431.889
17423.144
17419.476
17418.863
17426.199
17447.417
17478.076
17505.066
17517.848
17519.725
17517.811
17506.768
17474.514
17474.008
17473.325
17473.611
17474.185
17474.807
17475.687
17476.731
17477.613
17478.425
17479.357
17480.723
17483.444
17489.734
17502.618
17520.805
17536.233
17542.797
17543.253
17532.925
17511.603
17492.099
17477.798
17465.142
17451.02
17436.075
17424.258
17417.841
17415.225
17415.039
17422.89
17442.982
17472.749
17501.878
17518.782
17522.857
17523.049
17474.568
17474.041
17473.312
17473.559
17474.095
17474.67
17475.478
17476.439
17477.247
17477.982
17478.834
17480.059
17482.324
17487.202
17497.21
17513.006
17529.432
17539.144
17541.372
17536.336
17517.562
17496.399
17480.443
17468.233
17456.007
17442.001
17428.187
17418.331
17413.507
17411.516
17411.415
17418.168
17434.988
17462.218
17493.255
17516.514
17526.438
17474.63
17474.08
17473.298
17473.508
17474.003
17474.529
17475.262
17476.137
17476.872
17477.526
17478.297
17479.39
17481.28
17485.006
17492.432
17505.18
17521.169
17533.784
17538.411
17538.032
17524.023
17502.52
17484.117
17471.07
17460.143
17448.389
17434.965
17422.416
17413.971
17410.06
17408.443
17408.186
17412.616
17424.533
17446.779
17476.403
17506.018
17474.7
17474.125
17473.283
17473.456
17473.909
17474.385
17475.041
17475.828
17476.487
17477.061
17477.741
17478.708
17480.293
17483.109
17488.421
17497.971
17511.945
17526.258
17534.51
17536.153
17529.58
17510.268
17489.777
17474.508
17463.511
17453.784
17442.787
17430.23
17418.696
17411.06
17407.563
17406.207
17405.73
17407.492
17414.262
17428.583
17451.852
17474.778
17474.179
17473.272
17473.404
17473.815
17474.238
17474.816
17475.514
17476.092
17476.585
17477.168
17478.015
17479.342
17481.451
17485.147
17491.827
17502.761
17516.834
17528.396
17532.777
17532.305
17518.435
17498.064
17479.827
17466.971
17457.84
17449.394
17439.443
17427.845
17416.973
17409.544
17406.003
17404.812
17404.386
17404.328
17406.347
17412.112
17474.862
17474.237
17473.264
17473.353
17473.721
17474.091
17474.588
17475.196
17475.688
17476.1
17476.583
17477.304
17478.396
17479.968
17482.484
17486.892
17494.518
17506.26
17519.474
17528.103
17530.34
17524.829
17508.283
17488.374
17472.182
17461.457
17454.005
17446.965
17438.391
17428.008
17417.673
17409.971
17405.849
17404.307
17403.833
17403.369
17402.549
17474.95
17474.3
17473.259
17473.305
17473.629
17473.943
17474.358
17474.876
17475.278
17475.607
17475.987
17476.567
17477.442
17478.614
17480.28
17483.04
17487.812
17496.106
17508.283
17520.233
17526.453
17527.35
17517.672
17500.102
17481.249
17466.726
17457.659
17451.696
17446.258
17439.54
17430.719
17420.759
17412.266
17407.261
17405.445
17405.169
17406.243
17475.043
17474.367
17473.259
17473.261
17473.539
17473.796
17474.125
17474.554
17474.864
17475.11
17475.388
17475.818
17476.483
17477.328
17478.4
17480.021
17482.69
17487.6
17496.437
17508.523
17518.7
17522.741
17522.712
17511.801
17494.606
17476.828
17463.176
17455.074
17450.425
17446.764
17442.534
17436.095
17426.969
17416.599
17408.122
17403.952
17403.154
17475.141
17474.439
17473.261
17473.224
17473.454
17473.649
17473.889
17474.23
17474.448
17474.612
17474.79
17475.06
17475.509
17476.076
17476.725
17477.577
17478.848
17481.211
17486.224
17495.41
17507.123
17516.056
17519.135
17518.334
17507.969
17492.333
17475.474
17461.482
17453.369
17449.607
17447.458
17445.767
17443.061
17438.16
17429.518
17417.154
17404.084
17475.25
17474.519
17473.275
17473.192
17473.374
17473.502
17473.647
17473.9
17474.033
17474.117
17474.199
17474.31
17474.539
17474.851
17475.17
17475.495
17475.895
17476.66
17478.71
17483.696
17492.798
17504.174
17512.742
17515.724
17515.051
17506.448
17493.795
17478.012
17462.554
17452.648
17448.484
17447.22
17446.831
17447.361
17447.751
17447.683
17443.643
17475.366
17474.603
17473.305
17473.165
17473.301
17473.352
17473.398
17473.562
17473.619
17473.628
17473.617
17473.583
17473.591
17473.657
17473.68
17473.631
17473.494
17473.385
17473.71
17475.302
17479.732
17488.116
17499.235
17508.464
17512.443
17512.73
17506.784
17498.695
17485.491
17469.241
17455.202
17447.179
17444.601
17444.089
17445.267
17450.223
17454.591
17475.468
17474.682
17473.36
17473.143
17473.236
17473.196
17473.148
17473.213
17473.213
17473.153
17473.048
17472.874
17472.687
17472.507
17472.269
17471.916
17471.402
17470.838
17470.364
17470.138
17471.05
17474.231
17481.485
17491.959
17502.457
17508.814
17510.568
17507.922
17504.971
17496.731
17484.07
17468.16
17453.289
17443.103
17438.508
17437.024
17436.935
17475.517
17474.731
17473.449
17473.129
17473.181
17473.032
17472.893
17472.864
17472.83
17472.701
17472.5
17472.195
17471.819
17471.416
17470.947
17470.361
17469.618
17468.756
17467.797
17466.814
17466.08
17465.877
17468.045
17473.255
17482.545
17493.711
17503.471
17508.67
17509.621
17508.42
17507.054
17501.498
17492.123
17478.331
17462.167
17447.242
17435.71
17475.508
17474.739
17473.583
17473.126
17473.13
17472.887
17472.629
17472.529
17472.462
17472.272
17471.978
17471.555
17470.999
17470.375
17469.704
17468.961
17468.087
17467.077
17465.894
17464.417
17462.805
17461.538
17461.004
17461.618
17465.15
17471.602
17480.985
17491.984
17502.042
17508.527
17510.952
17511.576
17511.604
17511.027
17506.12
17498.85
17487.989
17475.449
17474.613
17473.752
17473.14
17473.082
17472.763
17472.378
17472.211
17472.098
17471.864
17471.495
17470.964
17470.245
17469.416
17468.564
17467.704
17466.762
17465.684
17464.388
17462.751
17460.784
17458.819
17457.297
17456.47
17456.27
17457.805
17461.129
17467.042
17475.532
17486.128
17497.054
17506.219
17512.333
17515.607
17517.373
17518.163
17518.542
17474.423
17473.929
17473.164
17473.038
17472.666
17472.165
17471.91
17471.739
17471.47
17471.047
17470.419
17469.559
17468.562
17467.555
17466.599
17465.619
17464.516
17463.17
17461.464
17459.435
17457.323
17455.41
17453.843
17452.704
17452.091
17451.972
17453.309
17455.97
17460.675
17467.242
17475.491
17485.012
17495.081
17504.766
17513.123
17519.53
17474.91
17474.086
17473.195
17473
17472.6
17471.997
17471.642
17471.404
17471.09
17470.633
17469.93
17468.954
17467.832
17466.702
17465.659
17464.645
17463.533
17462.178
17460.484
17458.498
17456.437
17454.506
17452.748
17451.142
17449.764
17448.796
17448.354
17448.312
17449.398
17451.335
17454.332
17458.315
17463.356
17469.482
17476.468
17483.976
17475.2
17474.328
17473.237
17472.976
17472.57
17471.88
17471.414
17471.1
17470.734
17470.254
17469.509
17468.452
17467.25
17466.025
17464.896
17463.831
17462.705
17461.381
17459.772
17457.915
17455.977
17454.111
17452.342
17450.648
17449.078
17447.751
17446.776
17446.181
17445.928
17445.905
17446.552
17447.601
17449.233
17451.623
17454.643
17458.301
17475.551
17474.6
17473.295
17472.973
17472.578
17471.817
17471.234
17470.84
17470.413
17469.905
17469.146
17468.056
17466.828
17465.543
17464.316
17463.162
17462.001
17460.729
17459.267
17457.596
17455.814
17454.016
17452.252
17450.548
17448.964
17447.608
17446.553
17445.776
17445.212
17444.819
17444.576
17444.491
17444.607
17445.178
17445.993
17447.144
17475.944
17474.918
17473.376
17472.987
17472.619
17471.807
17471.113
17470.649
17470.157
17469.599
17468.834
17467.753
17466.546
17465.25
17463.937
17462.672
17461.453
17460.225
17458.907
17457.432
17455.809
17454.117
17452.44
17450.799
17449.28
17447.981
17446.923
17446.074
17445.378
17444.823
17444.423
17444.162
17444.053
17444.044
17444.297
17444.672
17476.384
17475.297
17473.488
17473.027
17472.687
17471.867
17471.063
17470.556
17470.006
17469.362
17468.554
17467.495
17466.338
17465.077
17463.731
17462.399
17461.138
17459.925
17458.683
17457.352
17455.933
17454.475
17453.023
17451.621
17450.342
17449.225
17448.256
17447.402
17446.642
17445.972
17445.43
17445.052
17444.837
17444.754
17444.744
17444.94
17476.886
17475.771
17473.663
17473.102
17472.778
17472.004
17471.099
17470.539
17469.961
17469.23
17468.339
17467.277
17466.143
17464.938
17463.639
17462.318
17461.048
17459.834
17458.61
17457.333
17456.034
17454.768
17453.547
17452.401
17451.347
17450.379
17449.482
17448.661
17447.942
17447.347
17446.889
17446.574
17446.385
17446.299
17446.282
17446.351
17477.462
17476.384
17473.957
17473.212
17472.889
17472.224
17471.261
17470.651
17470.036
17469.187
17468.241
17467.142
17465.971
17464.81
17463.615
17462.396
17461.185
17459.986
17458.798
17457.603
17456.426
17455.326
17454.323
17453.376
17452.452
17451.549
17450.683
17449.896
17449.236
17448.724
17448.351
17448.093
17447.929
17447.833
17447.795
17447.785
17478.118
17477.159
17474.431
17473.399
17473.047
17472.541
17471.559
17470.837
17470.206
17469.316
17468.273
17467.099
17465.894
17464.751
17463.635
17462.564
17461.486
17460.382
17459.252
17458.114
17457.043
17456.098
17455.263
17454.455
17453.612
17452.754
17451.946
17451.244
17450.678
17450.247
17449.923
17449.683
17449.52
17449.428
17449.386
17449.379
17478.824
17478.05
17475.132
17473.707
17473.297
17472.945
17471.997
17471.067
17470.368
17469.493
17468.497
17467.361
17466.117
17464.951
17463.893
17462.896
17461.914
17460.912
17459.878
17458.834
17457.855
17457.009
17456.279
17455.566
17454.809
17454.04
17453.342
17452.757
17452.289
17451.919
17451.622
17451.379
17451.201
17451.094
17451.059
17451.079
17479.532
17478.977
17476.103
17474.174
17473.622
17473.375
17472.561
17471.39
17470.58
17469.745
17468.809
17467.788
17466.646
17465.513
17464.47
17463.49
17462.547
17461.615
17460.674
17459.722
17458.819
17458.043
17457.393
17456.785
17456.154
17455.519
17454.938
17454.435
17454.002
17453.638
17453.344
17453.116
17452.958
17452.883
17452.868
17452.955
17480.22
17479.888
17477.402
17474.862
17473.976
17473.746
17473.211
17471.963
17470.986
17470.137
17469.163
17468.199
17467.228
17466.261
17465.324
17464.383
17463.446
17462.544
17461.678
17460.821
17460.001
17459.307
17458.748
17458.255
17457.749
17457.217
17456.7
17456.225
17455.797
17455.425
17455.134
17454.936
17454.827
17454.79
17454.833
17454.966
17480.885
17480.717
17478.992
17475.955
17474.404
17474.056
17473.804
17472.808
17471.639
17470.709
17469.667
17468.696
17467.884
17467.099
17466.276
17465.397
17464.514
17463.689
17462.927
17462.191
17461.483
17460.879
17460.402
17459.987
17459.544
17459.047
17458.542
17458.082
17457.681
17457.343
17457.079
17456.905
17456.812
17456.783
17456.855
17456.997
17481.544
17481.434
17480.596
17477.729
17475.153
17474.4
17474.224
17473.719
17472.507
17471.497
17470.539
17469.605
17468.815
17468.053
17467.249
17466.443
17465.694
17465.017
17464.387
17463.758
17463.133
17462.596
17462.187
17461.846
17461.478
17461.036
17460.571
17460.15
17459.792
17459.494
17459.261
17459.102
17459.017
17458.991
17459.061
17459.219
17482.22
17482.054
17481.795
17480.086
17476.703
17474.946
17474.573
17474.377
17473.557
17472.538
17471.731
17470.918
17470.099
17469.285
17468.493
17467.779
17467.148
17466.558
17465.969
17465.365
17464.775
17464.297
17463.981
17463.764
17463.548
17463.27
17462.967
17462.705
17462.482
17462.28
17462.095
17461.943
17461.856
17461.832
17461.917
17462.082
17483.055
17482.659
17482.52
17482.213
17479.561
17476.379
17475.088
17474.815
17474.58
17473.782
17472.998
17472.293
17471.546
17470.82
17470.145
17469.514
17468.9
17468.286
17467.686
17467.109
17466.577
17466.155
17465.9
17465.767
17465.668
17465.546
17465.434
17465.391
17465.388
17465.429
17465.447
17465.418
17465.363
17465.356
17465.457
17465.546
17484.442
17483.387
17483.133
17483.247
17482.725
17479.734
17476.839
17475.693
17475.377
17475.062
17474.364
17473.747
17473.121
17472.522
17471.949
17471.371
17470.768
17470.187
17469.685
17469.263
17468.863
17468.472
17468.151