/*--------------------------------*- C++ -*----------------------------------*\
| =========                 |                                                 |
| \\      /  F ield         | OpenFOAM: The Open Source CFD Toolbox           |
|  \\    /   O peration     | Version:  2506                                  |
|   \\  /    A nd           | Website:  www.openfoam.com                      |
|    \\/     M anipulation  |                                                 |
\*---------------------------------------------------------------------------*/
FoamFile
{
    version     2.0;
    format      ascii;
    arch        "LSB;label=32;scalar=64";
    class       volScalarField;
    location    "1.4";
    object      alphat;
}
// * * * * * * * * * * * * * * * * * * * * * * * * * * * * * * * * * * * * * //

dimensions      [1 -1 -1 0 0 0 0];

internalField   nonuniform List<scalar> 
1376
(
0.01669615
0.01668532
0.017016134
0.017382792
0.017748479
0.018083766
0.018399068
0.018758244
0.019195152
0.019688939
0.020104354
0.018575724
0.018848785
0.019165012
0.019517839
0.019887357
0.020254597
0.020633089
0.021027908
0.0214607
0.021711747
0.021062416
0.021389638
0.02174941
0.02218498
0.022684705
0.023189178
0.02365626
0.024059464
0.02448774
0.024585584
0.025473242
0.025642154
0.02587683
0.02627658
0.02683002
0.027416056
0.027917054
0.028267489
0.028675272
0.028542233
0.033601901
0.033350996
0.033204736
0.033320822
0.033693197
0.034132415
0.034446216
0.034524729
0.034801513
0.034150035
0.044490191
0.043841177
0.043316894
0.043127121
0.043269756
0.043474233
0.043478922
0.043149193
0.043247321
0.041839794
0.056270399
0.055369095
0.054622239
0.05427691
0.054317136
0.054370621
0.054105938
0.053416111
0.053192109
0.051245997
0.067823921
0.066793082
0.065972446
0.065626053
0.065701569
0.065708945
0.065260631
0.064308211
0.063845187
0.06153886
0.078685231
0.077606633
0.076817032
0.07657622
0.076771051
0.076791519
0.076224457
0.075101573
0.074496956
0.072017782
0.088674314
0.087599864
0.086901423
0.086819823
0.087161724
0.087212519
0.086573665
0.085362197
0.084696081
0.082199574
0.097698451
0.096663596
0.096078368
0.096155687
0.096618853
0.096690744
0.096025716
0.094804729
0.094150605
0.091756005
0.10680363
0.1056672
0.10470542
0.10423262
0.10442171
0.10493196
0.10499808
0.10435424
0.10319954
0.10262804
0.10042637
0.11351253
0.11247123
0.11162385
0.11125433
0.11147739
0.111932
0.11195637
0.11137372
0.11035052
0.10991277
0.10796639
0.11887321
0.11800279
0.11731356
0.11703162
0.11720715
0.11751561
0.11746875
0.11696822
0.11612391
0.11579242
0.11416039
0.12283037
0.12218779
0.12168028
0.1214641
0.12154051
0.1216677
0.12154549
0.12113065
0.1204849
0.12015437
0.11897255
0.12546423
0.12504325
0.12470064
0.12452762
0.12450384
0.12448191
0.12430973
0.12397623
0.1235082
0.12321994
0.12239251
0.12697416
0.126712
0.12648711
0.12634318
0.12625813
0.12615606
0.12597274
0.12571206
0.12538217
0.12514636
0.12459307
0.12762205
0.12744838
0.12729324
0.12717385
0.1270724
0.12695139
0.12678687
0.12658708
0.12635507
0.12616395
0.12581598
0.12768399
0.12755523
0.12743921
0.12734118
0.12724746
0.12713763
0.12700281
0.12685028
0.12668382
0.1265269
0.12632187
0.12741732
0.12731394
0.12722005
0.12713567
0.1270514
0.12695616
0.12684717
0.12672853
0.12660376
0.1264708
0.12635334
0.12702458
0.12693573
0.12685241
0.12677262
0.12669131
0.12660396
0.12651106
0.12641349
0.12631237
0.12619397
0.12611849
0.12663255
0.12654979
0.12646904
0.12638856
0.12630657
0.12622174
0.12613584
0.12604791
0.12595681
0.12584576
0.12578088
0.12629971
0.12621797
0.12613613
0.12605415
0.12597171
0.12588744
0.12580281
0.12571643
0.12562656
0.12551855
0.12544858
0.12603768
0.12595727
0.12587529
0.1257932
0.12571107
0.12562673
0.1255409
0.12545226
0.12535956
0.12525269
0.12517356
0.12584324
0.12576507
0.125684
0.12560234
0.12552029
0.12543563
0.12534866
0.12525767
0.12516185
0.12505574
0.12496837
0.12577983
0.12570655
0.12562984
0.12554991
0.12546856
0.12538576
0.12530038
0.12521314
0.12512137
0.12502391
0.1249198
0.1248265
0.12568634
0.12561278
0.12553634
0.12545716
0.12537605
0.12529255
0.12520712
0.1251205
0.1250287
0.12493159
0.12482993
0.12473334
0.12562098
0.12554814
0.12547224
0.12539386
0.12531293
0.12522941
0.12514499
0.12505873
0.12496699
0.12487109
0.12477014
0.12467041
0.1255743
0.12550256
0.12542797
0.12535096
0.12527082
0.12518767
0.12510337
0.12501654
0.12492494
0.1248298
0.12472966
0.12462881
0.12554429
0.12547312
0.12539937
0.12532292
0.12524344
0.12516154
0.12507783
0.12499088
0.12489907
0.12480437
0.12470547
0.12460401
0.12552312
0.12545312
0.12538072
0.12530476
0.12522617
0.12514583
0.12506219
0.12497522
0.1248847
0.12479037
0.12469151
0.12459074
0.12557696
0.12551052
0.12544154
0.12536973
0.12529487
0.12521748
0.12513704
0.12505328
0.12496719
0.1248783
0.12478445
0.12468697
0.1245874
0.12556865
0.12550305
0.12543468
0.12536346
0.12528987
0.12521315
0.12513297
0.12505047
0.12496433
0.1248749
0.12478248
0.12468846
0.12458955
0.12556542
0.12549978
0.12543218
0.12536195
0.12528898
0.12521274
0.12513369
0.12505217
0.12496572
0.12487742
0.1247874
0.12469415
0.12459618
0.12562802
0.12556634
0.12550148
0.12543446
0.12536493
0.12529303
0.12521819
0.12514039
0.1250585
0.12497347
0.12488596
0.12479639
0.12470284
0.12460592
0.1256316
0.12557016
0.12550611
0.12543959
0.12537071
0.12529919
0.12522509
0.12514782
0.12506686
0.12498389
0.12489801
0.12480857
0.12471641
0.1246209
0.12563732
0.12557699
0.12551412
0.12544884
0.12538097
0.12530981
0.12523601
0.12515938
0.12508044
0.12499922
0.12491469
0.12482667
0.12473625
0.12464209
0.12570801
0.12564974
0.12558969
0.12552767
0.12546308
0.12539591
0.12532636
0.1252536
0.12517813
0.12510039
0.12502007
0.12493683
0.12485085
0.12476251
0.12467021
0.12572481
0.12566772
0.12560841
0.12554669
0.12548279
0.12541642
0.12534789
0.12527718
0.12520342
0.12512712
0.12504827
0.12496666
0.12488207
0.12479552
0.12470479
0.12580408
0.12574936
0.12569302
0.12563467
0.12557365
0.12551085
0.12544601
0.12537868
0.12530911
0.12523716
0.12516239
0.12508505
0.12500503
0.12492252
0.12483785
0.12474809
0.12588839
0.12583656
0.12578275
0.12572706
0.12566975
0.12561047
0.12554911
0.12548535
0.12541961
0.1253516
0.12528102
0.12520788
0.1251321
0.12505388
0.1249734
0.12489039
0.12480237
0.12593498
0.12588364
0.12583062
0.12577565
0.12571901
0.12566059
0.12560001
0.12553772
0.12547334
0.12540657
0.1253375
0.12526599
0.12519209
0.12511584
0.1250372
0.12495646
0.12487082
0.12604573
0.12599644
0.12594535
0.12589273
0.12583859
0.12578276
0.12572538
0.12566622
0.12560499
0.12554176
0.12547674
0.12540951
0.12533992
0.12526817
0.1251942
0.12511788
0.12503962
0.12495684
0.12617643
0.1261288
0.12607973
0.12602923
0.12597731
0.12592398
0.12586897
0.12581235
0.12575416
0.12569423
0.12563249
0.12556898
0.12550355
0.12543599
0.12536636
0.12529476
0.12522083
0.12514514
0.12506524
0.1263339
0.12628782
0.12624062
0.12619201
0.12614207
0.12609083
0.12603813
0.12598395
0.12592833
0.12587127
0.12581267
0.12575236
0.12569049
0.12562696
0.12556144
0.12549403
0.12542472
0.12535333
0.12528074
0.12520376
0.12658029
0.12653634
0.1264914
0.12644537
0.12639823
0.12634987
0.12630023
0.1262494
0.1261973
0.12614384
0.12608898
0.12603276
0.12597522
0.1259162
0.12585559
0.12579349
0.12572985
0.12566439
0.12559736
0.12552863
0.1254588
0.12538471
0.12684591
0.12680288
0.12675888
0.12671382
0.12666776
0.12662063
0.12657238
0.12652292
0.12647233
0.12642065
0.12636776
0.12631363
0.12625822
0.12620156
0.12614359
0.12608423
0.12602353
0.1259615
0.12589803
0.1258332
0.12576693
0.12569986
0.12562865
0.12726587
0.12722371
0.12718074
0.12713694
0.12709224
0.12704658
0.12699994
0.12695233
0.12690374
0.12685411
0.12680345
0.1267518
0.1266991
0.12664534
0.12659052
0.12653454
0.12647739
0.12641897
0.12635917
0.12629806
0.1262358
0.12617233
0.12610771
0.12604173
0.1259744
0.12758103
0.12752596
0.12747001
0.12741313
0.12735524
0.12729631
0.1272363
0.12717515
0.12711277
0.12704901
0.12698375
0.12691689
0.12684837
0.12677817
0.12670638
0.12663301
0.126558
0.12648097
0.1264016
0.12631965
0.12623494
0.12614745
0.12605705
0.12596426
0.12586719
0.12577464
0.12564413
0.020564133
0.022294051
0.025403544
0.029713262
0.035726295
0.043753633
0.053418132
0.06383908
0.074323901
0.084412336
0.093784546
0.10217647
0.10938318
0.11527994
0.11973765
0.12283337
0.12477663
0.12582015
0.12621517
0.1261883
0.12593234
0.12559736
0.12527988
0.1250235
0.12483564
0.1247065
0.12461975
0.1245665
0.1245268
0.12450514
0.12449504
0.12449327
0.12449717
0.12450556
0.12451728
0.12453425
0.1245573
0.1245869
0.12462312
0.12466784
0.12472437
0.12479528
0.12488389
0.12499495
0.12513616
0.12531955
0.1255665
0.12590922
0.12554142
0.021045876
0.02296142
0.026380838
0.031127063
0.037637546
0.046095358
0.056033804
0.066580113
0.077055568
0.087013324
0.096138921
0.10418515
0.11100889
0.11650852
0.12055056
0.12329402
0.12496753
0.12582547
0.1261067
0.12602194
0.12574816
0.12541991
0.12512033
0.12488404
0.12471324
0.12459478
0.12451617
0.12447172
0.12443209
0.12441484
0.12440769
0.12440763
0.12441316
0.12442317
0.12443648
0.12445538
0.12448013
0.12451069
0.12454825
0.12459498
0.12465311
0.12472554
0.1248163
0.12492942
0.1250729
0.12525818
0.12550729
0.12584611
0.12543848
0.021614124
0.023747716
0.027518559
0.032729986
0.039742666
0.048616548
0.058794448
0.069424503
0.079844912
0.089619121
0.098444697
0.10610673
0.11252374
0.11758844
0.12124059
0.12366915
0.12510578
0.12580013
0.12598122
0.12584789
0.1255631
0.12524586
0.12496588
0.12474933
0.12459336
0.12448334
0.12441766
0.12437514
0.12433813
0.12432493
0.12432067
0.12432266
0.12432963
0.12434133
0.12435682
0.12437725
0.12440327
0.12443508
0.12447399
0.12452238
0.12458196
0.12465585
0.12474852
0.12486377
0.12500939
0.12519664
0.12544776
0.12578284
0.12533365
0.022234944
0.024594282
0.028730001
0.034402327
0.041887671
0.051129006
0.06149449
0.072150979
0.082458541
0.091997992
0.10049012
0.10775932
0.11377881
0.11843383
0.1217522
0.12392468
0.12517247
0.12573584
0.12583726
0.12566799
0.12537955
0.12507683
0.12481726
0.12461885
0.1244746
0.12437583
0.12432231
0.12427733
0.12424556
0.12423574
0.12423408
0.12423801
0.12424616
0.12425941
0.12427708
0.12429927
0.12432679
0.1243599
0.12440015
0.12444996
0.12451114
0.12458644
0.12468071
0.12479792
0.12494545
0.12513475
0.12538801
0.12571894
0.1252269
0.022827326
0.025398312
0.029887485
0.035997368
0.043917771
0.053478414
0.063983798
0.074617835
0.084770299
0.094049379
0.10220724
0.10910738
0.11476785
0.11907078
0.12211323
0.1240803
0.1251791
0.12563959
0.12567975
0.12548558
0.12519896
0.12491236
0.12467233
0.12448944
0.12435564
0.12427402
0.12422493
0.12418089
0.12415476
0.12414789
0.12414852
0.12415416
0.12416373
0.12417839
0.12419774
0.12422152
0.12425041
0.12428492
0.12432675
0.12437787
0.12444033
0.12451741
0.12461297
0.12473173
0.12488113
0.12507251
0.12532796
0.12565441
0.12511791
0.023343314
0.02610081
0.030914369
0.037425233
0.045739379
0.055578657
0.066192187
0.076781052
0.08676957
0.095798559
0.10365289
0.11022969
0.11558087
0.11958851
0.12239528
0.12418379
0.12515322
0.12552627
0.12551675
0.1253049
0.12502306
0.12475246
0.12452956
0.12435915
0.12423953
0.12417566
0.12412425
0.12408549
0.12406462
0.12406051
0.1240636
0.1240712
0.12408214
0.1240982
0.12411902
0.12414414
0.12417413
0.12421013
0.12425344
0.12430614
0.12436991
0.12444853
0.1245454
0.12466542
0.12481654
0.12500998
0.12526736
0.12558934
0.1250063
0.023805772
0.026737716
0.031851728
0.038729026
0.047396533
0.057479207
0.068182067
0.078724026
0.088563424
0.0973725
0.10496438
0.11126196
0.1163418
0.12008492
0.12266823
0.12427919
0.1251193
0.1254082
0.12535409
0.12512854
0.12485294
0.12459729
0.12438875
0.12422992
0.12413038
0.12407446
0.12402353
0.12399134
0.1239754
0.12397398
0.1239793
0.12398856
0.12400097
0.12401848
0.12404069
0.12406717
0.12409833
0.12413578
0.12418072
0.12423476
0.12429989
0.12437972
0.12447767
0.12459905
0.12475164
0.1249472
0.12520633
0.12552383
0.12489126
0.024279079
0.02740581
0.032824455
0.040055749
0.049048737
0.059344346
0.070118793
0.08061217
0.090314544
0.098925308
0.10627942
0.11231833
0.11713911
0.12061567
0.1229646
0.1243844
0.12508659
0.12528989
0.12519387
0.12495758
0.12468923
0.12444704
0.12425033
0.12410562
0.12402771
0.12397081
0.12392451
0.12389861
0.12388723
0.12388819
0.12389539
0.12390613
0.12392002
0.123939
0.12396249
0.12399034
0.12402311
0.12406213
0.1241085
0.12416361
0.12422987
0.12431092
0.12441002
0.12453262
0.12468657
0.12488386
0.125145
0.12545778
0.1247719
0.024805808
0.028173669
0.033928083
0.041524864
0.050832402
0.061318286
0.072144671
0.082577649
0.092137541
0.1005474
0.10765988
0.11343169
0.11798258
0.12117195
0.1232705
0.1244886
0.1250493
0.12516909
0.1250355
0.12479201
0.12453196
0.12430176
0.12411636
0.12399165
0.12392674
0.12386763
0.1238279
0.12380735
0.12379992
0.12380283
0.1238115
0.12382361
0.1238389
0.12385952
0.12388467
0.12391434
0.12394877
0.123989
0.12403668
0.12409304
0.1241604
0.12424234
0.12434232
0.12446591
0.12462139
0.12482025
0.1250833
0.12539105
0.12464754
0.025376285
0.029033656
0.035160787
0.043141344
0.052760376
0.063421033
0.074281053
0.084634741
0.094031682
0.10221757
0.10906257
0.11454165
0.11880828
0.12169575
0.12354286
0.12456604
0.12499507
0.12504099
0.12487744
0.12463131
0.12438092
0.12416194
0.12398912
0.12388767
0.12382552
0.12376767
0.1237341
0.12371785
0.12371337
0.12371769
0.12372759
0.12374171
0.1237594
0.12378138
0.12380787
0.12383887
0.12387471
0.12391642
0.12396522
0.1240228
0.12409125
0.12417385
0.1242745
0.12439908
0.12455581
0.1247564
0.12502111
0.12532353
0.12451817
0.025944554
0.02991809
0.036439296
0.044811899
0.054736497
0.065558149
0.07643438
0.086687505
0.09589548
0.10382845
0.11038002
0.11555674
0.11952168
0.1221248
0.12374312
0.12459687
0.12491595
0.1249034
0.12471921
0.12447471
0.12423414
0.1240258
0.12387106
0.12378975
0.12372397
0.12367091
0.12364274
0.12362991
0.12362777
0.12363375
0.12364512
0.12366087
0.12368019
0.12370368
0.12373142
0.12376366
0.12380075
0.12384365
0.1238938
0.12395289
0.12402221
0.12410542
0.12420663
0.12433219
0.12448986
0.12469206
0.1249584
0.12525554
0.12438432
0.026461167
0.03074231
0.037652155
0.046407247
0.056623649
0.067591528
0.078468812
0.088604789
0.097606998
0.10527217
0.11152393
0.11641055
0.12007654
0.12243413
0.12386064
0.12457856
0.12481285
0.12475763
0.12456093
0.12432083
0.12409006
0.12389406
0.12376279
0.12369199
0.12362291
0.12357663
0.12355321
0.1235436
0.12354352
0.12355068
0.12356334
0.12358055
0.12360132
0.12362599
0.12365503
0.1236883
0.12372678
0.12377158
0.123823
0.12388296
0.1239532
0.124037
0.12413905
0.12426522
0.12442361
0.12462722
0.12489526
0.12518696
0.12424679
0.09029691
0.099098165
0.1065066
0.11247806
0.11709972
0.12049434
0.12264526
0.12391424
0.12452429
0.12469366
0.12460761
0.1244038
0.12416911
0.12394774
0.12376658
0.12366117
0.12359105
0.12352345
0.12348398
0.12346444
0.12345763
0.1234596
0.12346797
0.12348203
0.12350078
0.12352302
0.12354877
0.12357881
0.12361371
0.12365393
0.12369972
0.12375215
0.123813
0.12388421
0.12396881
0.12407166
0.12419809
0.12435716
0.12456204
0.12483147
0.12511775
0.12410636
0.12401886
0.12380682
0.12364704
0.12356197
0.12348712
0.12342536
0.12339204
0.1233765
0.1233723
0.12337594
0.12338573
0.12340138
0.12342174
0.12344556
0.12347271
0.12350367
0.12353967
0.123581
0.12362755
0.12368104
0.12374296
0.12381533
0.12390099
0.12400433
0.12413106
0.12429058
0.1244966
0.12476709
0.12504777
0.12395519
0.12328689
0.12329295
0.12330483
0.12332181
0.12334329
0.12336823
0.1233967
0.12342907
0.12346592
0.12350793
0.12355532
0.12360989
0.12367316
0.12374663
0.12383341
0.12393713
0.1240642
0.12422394
0.12443061
0.12470214
0.12497692
0.12378187
0.12335444
0.12339228
0.1234352
0.12348395
0.12353938
0.12360348
0.12367807
0.12376581
0.12387003
0.12399751
0.12415731
0.12436447
0.12463671
0.12490489
0.1236093
0.12346944
0.12353433
0.1236096
0.1236981
0.12380305
0.12393098
0.12409062
0.12429819
0.12457052
0.1248319
0.12345383
0.12373623
0.12386441
0.1240239
0.1242315
0.12450387
0.12475815
0.12329156
0.12395715
0.12416463
0.12443719
0.12468346
0.12312414
0.12437028
0.12460769
0.12295368
0.12278142
)
;

boundaryField
{
    Side
    {
        type            empty;
    }
    Inlet
    {
        type            calculated;
        value           nonuniform List<scalar> 
48
(
0.13281243
0.13281276
0.13281265
0.13281218
0.1328113
0.13280996
0.13280813
0.13280589
0.13280341
0.13280091
0.13279851
0.13279626
0.1327943
0.13279267
0.13279128
0.13278984
0.13278823
0.13278698
0.13278697
0.13278735
0.13278795
0.13278826
0.13278831
0.13278831
0.13278878
0.13278886
0.13278843
0.1327879
0.13278767
0.13278733
0.13278731
0.1327871
0.13278685
0.13278688
0.13278719
0.13278756
0.13278799
0.13278865
0.13278947
0.1327905
0.13279168
0.13279284
0.13279412
0.13279571
0.13279732
0.1327987
0.13280009
0.13280184
)
;
    }
    Airfoil
    {
        type            compressible::alphatWallFunction;
        value           nonuniform List<scalar> 0();
    }
    Outlet
    {
        type            calculated;
        value           nonuniform List<scalar> 0();
    }
    procBoundary10to2
    {
        type            processor;
        value           uniform 0.016380165;
    }
    procBoundary10to3
    {
        type            processor;
        value           nonuniform List<scalar> 
23
(
0.020149436
0.019671785
0.019120148
0.018665691
0.018340452
0.018088079
0.017802493
0.017451606
0.01706749
0.01706749
0.018537477
0.020648056
0.021127327
0.021672154
0.022279909
0.022888892
0.023447395
0.023952071
0.024434522
0.024920703
0.025407194
0.025872828
0.02630418
)
;
    }
    procBoundary10to9
    {
        type            processor;
        value           nonuniform List<scalar> 
66
(
0.016413189
0.018341012
0.020705408
0.025243699
0.033778268
0.045038507
0.057063203
0.068779037
0.079755572
0.089818195
0.098866838
0.098866838
0.1078733
0.11450709
0.11970202
0.12343045
0.12584736
0.12720971
0.12778151
0.12780822
0.12752236
0.1271172
0.12671814
0.12638192
0.1261167
0.12591841
0.12591841
0.12585045
0.12575745
0.12569172
0.12564326
0.12561193
0.12559056
0.12559056
0.12564072
0.12563188
0.1256285
0.1256285
0.12568774
0.12568995
0.12569523
0.12569523
0.12576421
0.12578014
0.12578014
0.12585663
0.12585663
0.12593869
0.12598484
0.12598484
0.12609362
0.12609362
0.12622254
0.12622254
0.12642274
0.12637888
0.12637888
0.12662315
0.12662315
0.12692921
0.12688805
0.12688805
0.12734776
0.12730722
0.12730722
0.12763527
)
;
    }
    procBoundary10to11
    {
        type            processor;
        value           nonuniform List<scalar> 
58
(
0.026892393
0.031438117
0.038705746
0.047816752
0.058304082
0.069405306
0.080277841
0.080277841
0.09175709
0.1003817
0.10756402
0.11328863
0.11767461
0.12083039
0.12280102
0.12393364
0.12445178
0.12456738
0.12445718
0.12424879
0.12424879
0.12387035
0.12366992
0.12353616
0.12346062
0.12338204
0.12332839
0.12330027
0.12328823
0.12328823
0.12320136
0.12320979
0.12322374
0.12324254
0.12326561
0.12329181
0.12332112
0.12332112
0.12328031
0.12331918
0.12336312
0.12341292
0.12341292
0.12339997
0.12346578
0.12354163
0.12363066
0.12363066
0.12366953
0.12379776
0.12379776
0.12389038
0.12409798
0.12409798
0.12430258
0.1245312
0.1245312
0.12260701
)
;
    }
}


// ************************************************************************* //
