/*--------------------------------*- C++ -*----------------------------------*\
| =========                 |                                                 |
| \\      /  F ield         | OpenFOAM: The Open Source CFD Toolbox           |
|  \\    /   O peration     | Version:  2506                                  |
|   \\  /    A nd           | Website:  www.openfoam.com                      |
|    \\/     M anipulation  |                                                 |
\*---------------------------------------------------------------------------*/
FoamFile
{
    version     2.0;
    format      ascii;
    arch        "LSB;label=32;scalar=64";
    class       volScalarField;
    location    "0.00031";
    object      Co;
}
// * * * * * * * * * * * * * * * * * * * * * * * * * * * * * * * * * * * * * //

dimensions      [0 0 0 0 0 0 0];

internalField   nonuniform List<scalar> 
3465
(
4.6490435e-06
4.3325783e-06
4.9838895e-06
4.6495941e-06
4.3336669e-06
8.8859978e-06
8.371724e-06
7.8771498e-06
7.4027021e-06
6.9486464e-06
6.5150997e-06
6.1020419e-06
5.7093251e-06
5.336689e-06
4.9837742e-06
4.6501401e-06
4.3347529e-06
1.1692692e-05
1.109674e-05
1.0515407e-05
9.9499852e-06
9.4015999e-06
8.8712074e-06
8.3595923e-06
7.8673683e-06
7.3949829e-06
6.9427259e-06
6.5107366e-06
6.0990159e-06
5.7074379e-06
5.335763e-06
4.983651e-06
4.6506798e-06
4.3358349e-06
1.165939e-05
1.1067895e-05
1.0490629e-05
9.9288952e-06
9.3838344e-06
8.8564202e-06
8.3474562e-06
7.8575771e-06
7.3872521e-06
6.9367921e-06
6.5063598e-06
6.0959769e-06
5.7055392e-06
5.3348278e-06
4.9835208e-06
4.651214e-06
4.3369136e-06
1.2835868e-05
1.2225639e-05
1.1626191e-05
1.1039123e-05
1.04659e-05
9.9078356e-06
9.3660848e-06
8.8416384e-06
8.335318e-06
7.8477779e-06
7.3795097e-06
6.9308462e-06
6.50197e-06
6.092926e-06
5.7036301e-06
5.3338831e-06
4.983383e-06
4.6517439e-06
4.3379898e-06
1.5911151e-05
1.5281382e-05
1.4652733e-05
1.4027147e-05
1.3406547e-05
1.2792814e-05
1.2187758e-05
1.1593095e-05
1.1010426e-05
1.0441222e-05
9.8868078e-06
9.3483525e-06
8.8268625e-06
8.3231777e-06
7.8379726e-06
7.3717577e-06
6.9248876e-06
6.4975679e-06
6.0898634e-06
5.7017102e-06
5.3329294e-06
4.9832382e-06
4.6522678e-06
4.3390621e-06
1.5837157e-05
1.5214307e-05
1.4592249e-05
1.3972906e-05
1.3358189e-05
1.2749965e-05
1.2150037e-05
1.1560119e-05
1.0981817e-05
1.0416607e-05
9.865823e-06
9.3306471e-06
8.8121011e-06
8.3110426e-06
7.8281652e-06
7.364e-06
6.9189223e-06
6.4931573e-06
6.0867907e-06
5.699781e-06
5.3319677e-06
4.9830864e-06
4.6527868e-06
4.3401312e-06
1.6989711e-05
1.6378349e-05
1.5763737e-05
1.5147715e-05
1.4532169e-05
1.3919e-05
1.3310102e-05
1.2707331e-05
1.2112485e-05
1.1527276e-05
1.0953308e-05
1.0392064e-05
9.8448881e-06
9.3129748e-06
8.7973597e-06
8.2989179e-06
7.818361e-06
7.3562402e-06
6.9129505e-06
6.4887386e-06
6.083711e-06
5.6978445e-06
5.3309993e-06
4.9829293e-06
4.6533019e-06
4.3411979e-06
1.6902572e-05
1.6298488e-05
1.5690899e-05
1.5081617e-05
1.4472501e-05
1.3865435e-05
1.3262293e-05
1.2664923e-05
1.2075112e-05
1.149457e-05
1.0924903e-05
1.0367598e-05
9.8240088e-06
9.2953397e-06
8.782642e-06
8.2868062e-06
7.8085624e-06
7.3484807e-06
6.9069758e-06
6.4843143e-06
6.0806238e-06
5.6959008e-06
5.3300239e-06
4.9827663e-06
4.6538118e-06
4.3422608e-06
1.6816211e-05
1.6219299e-05
1.5618636e-05
1.5016005e-05
1.4413241e-05
1.3812206e-05
1.321476e-05
1.2622736e-05
1.2037915e-05
1.1462001e-05
1.0896602e-05
1.034321e-05
9.8031847e-06
9.2777425e-06
8.7679478e-06
8.2747074e-06
7.7987681e-06
7.3407196e-06
6.9009964e-06
6.4798841e-06
6.0775295e-06
5.6939496e-06
5.3290424e-06
4.9825981e-06
4.6543181e-06
4.343321e-06
1.6730631e-05
1.6140786e-05
1.5546952e-05
1.4950884e-05
1.4354394e-05
1.3759321e-05
1.3167509e-05
1.2580777e-05
1.2000898e-05
1.1429573e-05
1.0868409e-05
1.0318901e-05
9.7824176e-06
9.2601844e-06
8.7532791e-06
8.2626233e-06
7.7889818e-06
7.3329612e-06
6.8950146e-06
6.475449e-06
6.0744298e-06
5.6919929e-06
5.3280548e-06
4.982424e-06
4.6548196e-06
4.3443784e-06
1.7222841e-05
1.6645823e-05
1.6062941e-05
1.5475842e-05
1.4886253e-05
1.4295958e-05
1.3706777e-05
1.3120538e-05
1.2539044e-05
1.1964062e-05
1.1397287e-05
1.0840325e-05
1.0294675e-05
9.7617099e-06
9.2426676e-06
8.7386371e-06
8.2505552e-06
7.7792023e-06
7.3252034e-06
6.8890311e-06
6.4710093e-06
6.0713235e-06
5.6900289e-06
5.3270606e-06
4.9822451e-06
4.6553177e-06
4.3454329e-06
1.7131758e-05
1.6561791e-05
1.598577e-05
1.540531e-05
1.4822112e-05
1.4237936e-05
1.3654579e-05
1.307385e-05
1.2497543e-05
1.1927411e-05
1.1365146e-05
1.0812352e-05
1.0270531e-05
9.7410633e-06
9.2251935e-06
8.7240237e-06
8.2385044e-06
7.7694321e-06
7.317449e-06
6.8830452e-06
6.4665647e-06
6.0682118e-06
5.6880598e-06
5.3260611e-06
4.9820607e-06
4.6558107e-06
4.3464841e-06
1.7596863e-05
1.704155e-05
1.6478525e-05
1.5909265e-05
1.5335353e-05
1.4758463e-05
1.4180327e-05
1.3602726e-05
1.3027447e-05
1.2456273e-05
1.1890946e-05
1.1333151e-05
1.0784493e-05
1.0246474e-05
9.7204793e-06
9.2077636e-06
8.7094398e-06
8.2264717e-06
7.7596716e-06
7.3096983e-06
6.8770598e-06
6.4621181e-06
6.0650957e-06
5.6860847e-06
5.3250564e-06
4.981872e-06
4.6563003e-06
4.3475326e-06
1.750055e-05
1.6952216e-05
1.6396026e-05
1.5833426e-05
1.5265969e-05
1.4695301e-05
1.4123133e-05
1.3551218e-05
1.2981331e-05
1.2415236e-05
1.1854667e-05
1.1301305e-05
1.0756748e-05
1.0222503e-05
9.6999593e-06
9.1903795e-06
8.6948867e-06
8.2144587e-06
7.7499218e-06
7.301952e-06
6.8710741e-06
6.4576678e-06
6.0619748e-06
5.6841046e-06
5.324046e-06
4.9816779e-06
4.6567855e-06
4.348578e-06
1.7405218e-05
1.6863748e-05
1.6314288e-05
1.575825e-05
1.5197159e-05
1.4632631e-05
1.4066353e-05
1.3500059e-05
1.2935502e-05
1.2374434e-05
1.1818579e-05
1.1269608e-05
1.0729121e-05
1.0198622e-05
9.6795056e-06
9.1730425e-06
8.680366e-06
8.202466e-06
7.7401839e-06
7.2942104e-06
6.8650886e-06
6.4532157e-06
6.0588496e-06
5.682119e-06
5.3230303e-06
4.9814792e-06
4.6572671e-06
4.3496204e-06
1.7310857e-05
1.6776142e-05
1.6233306e-05
1.5683733e-05
1.5128917e-05
1.4570448e-05
1.4009987e-05
1.3449246e-05
1.2889961e-05
1.2333868e-05
1.1782681e-05
1.1238063e-05
1.0701611e-05
1.017483e-05
9.6591183e-06
9.1557535e-06
8.6658784e-06
8.190495e-06
7.7304584e-06
7.2864752e-06
6.8591043e-06
6.4487607e-06
6.0557209e-06
5.6801295e-06
5.3220104e-06
4.9812761e-06
4.6577445e-06
4.3506603e-06
1.7217463e-05
1.6689394e-05
1.6153081e-05
1.5609876e-05
1.5061247e-05
1.4508756e-05
1.3954038e-05
1.3398784e-05
1.2844711e-05
1.2293541e-05
1.1746975e-05
1.1206672e-05
1.0674222e-05
1.0151131e-05
9.638801e-06
9.1385153e-06
8.6514261e-06
8.1785471e-06
7.7207469e-06
7.278747e-06
6.8531229e-06
6.4443053e-06
6.0525883e-06
5.6781346e-06
5.3209854e-06
4.981069e-06
4.6582189e-06
4.3516973e-06
1.7125026e-05
1.6603493e-05
1.6073601e-05
1.5536673e-05
1.4994143e-05
1.4447549e-05
1.3898502e-05
1.3348669e-05
1.2799751e-05
1.2253452e-05
1.1711463e-05
1.1175435e-05
1.0646954e-05
1.0127525e-05
9.6185531e-06
9.1213276e-06
8.6370093e-06
8.1666226e-06
7.7110495e-06
7.2710259e-06
6.8471429e-06
6.4398485e-06
6.0494528e-06
5.6761361e-06
5.3199558e-06
4.9808568e-06
4.6586889e-06
4.3527313e-06
1.703354e-05
1.651844e-05
1.599487e-05
1.5464123e-05
1.4927607e-05
1.4386831e-05
1.3843382e-05
1.3298905e-05
1.2755082e-05
1.2213604e-05
1.1676147e-05
1.1144355e-05
1.0619809e-05
1.0104015e-05
9.5983776e-06
9.1041928e-06
8.6226298e-06
8.1547232e-06
7.7013678e-06
7.2633139e-06
6.8411672e-06
6.4353919e-06
6.0463155e-06
5.6741341e-06
5.318922e-06
4.9806411e-06
4.6591559e-06
4.3537627e-06
1.6942998e-05
1.6434226e-05
1.591688e-05
1.5392223e-05
1.4861635e-05
1.4326598e-05
1.3788676e-05
1.3249492e-05
1.2710707e-05
1.2173997e-05
1.1641028e-05
1.1113433e-05
1.059279e-05
1.0080601e-05
9.5782752e-06
9.0871121e-06
8.6082887e-06
8.1428501e-06
7.6917026e-06
7.2556102e-06
6.8351945e-06
6.4309352e-06
6.0431755e-06
5.6721286e-06
5.3178846e-06
4.9804212e-06
4.6596188e-06
4.3547909e-06
1.6853387e-05
1.635084e-05
1.5839622e-05
1.5320966e-05
1.4796222e-05
1.4266848e-05
1.3734382e-05
1.3200426e-05
1.2666623e-05
1.2134631e-05
1.1606105e-05
1.1082669e-05
1.0565894e-05
1.0057284e-05
9.5582459e-06
9.0700855e-06
8.5939862e-06
8.1310031e-06
7.6820541e-06
7.2479169e-06
6.8292263e-06
6.426479e-06
6.0400339e-06
5.6701195e-06
5.3168432e-06
4.9801977e-06
4.6600789e-06
4.3558169e-06
1.6764707e-05
1.6268286e-05
1.57631e-05
1.5250354e-05
1.4731372e-05
1.4207584e-05
1.3680505e-05
1.3151713e-05
1.2622834e-05
1.209551e-05
1.1571382e-05
1.1052066e-05
1.0539128e-05
1.0034067e-05
9.5382936e-06
9.0531159e-06
8.5797249e-06
8.1191845e-06
7.6724241e-06
7.2402336e-06
6.823264e-06
6.4220246e-06
6.0368904e-06
5.6681074e-06
5.3157977e-06
4.97997e-06
4.6605351e-06
4.3568397e-06
1.6676945e-05
1.6186551e-05
1.5687304e-05
1.5180381e-05
1.4667079e-05
1.4148801e-05
1.3627039e-05
1.310335e-05
1.2579338e-05
1.2056632e-05
1.1536859e-05
1.1021624e-05
1.051249e-05
1.001095e-05
9.5184173e-06
9.0362031e-06
8.5655045e-06
8.1073943e-06
7.6628126e-06
7.2325623e-06
6.8173063e-06
6.4175707e-06
6.0337463e-06
5.6660929e-06
5.3147489e-06
4.9797389e-06
4.6609881e-06
4.3578601e-06
1.6590131e-05
1.6105663e-05
1.561226e-05
1.511107e-05
1.4603365e-05
1.4090521e-05
1.3574005e-05
1.3055354e-05
1.2536152e-05
1.2018013e-05
1.1502548e-05
1.0991356e-05
1.048599e-05
9.9879429e-06
9.4986267e-06
9.0193551e-06
8.551332e-06
8.0956383e-06
7.6532245e-06
7.224905e-06
6.8113574e-06
6.4131217e-06
6.0306031e-06
5.6640776e-06
5.3136983e-06
4.9795052e-06
4.661438e-06
4.3588775e-06
1.6504278e-05
1.6025637e-05
1.5537983e-05
1.5042438e-05
1.4540245e-05
1.4032758e-05
1.3521419e-05
1.300774e-05
1.2493291e-05
1.1979665e-05
1.1468463e-05
1.0961272e-05
1.045964e-05
9.9650549e-06
9.4789286e-06
9.0025784e-06
8.5372135e-06
8.0839217e-06
7.643664e-06
7.2172668e-06
6.8054211e-06
6.4086797e-06
6.0274624e-06
5.6620617e-06
5.3126459e-06
4.9792686e-06
4.6618854e-06
4.3598926e-06
1.6419381e-05
1.5946469e-05
1.5464472e-05
1.4974483e-05
1.4477722e-05
1.3975515e-05
1.346928e-05
1.2960512e-05
1.2450756e-05
1.1941591e-05
1.1434606e-05
1.0931376e-05
1.0433442e-05
9.942288e-06
9.4593263e-06
8.985876e-06
8.5231505e-06
8.0722461e-06
7.6341329e-06
7.2096488e-06
6.7994964e-06
6.4042439e-06
6.0243257e-06
5.6600471e-06
5.3115922e-06
4.9790303e-06
4.6623305e-06
4.3609053e-06
1.6335426e-05
1.5868147e-05
1.5391715e-05
1.4907198e-05
1.4415788e-05
1.3918785e-05
1.3417587e-05
1.2913663e-05
1.2408544e-05
1.190379e-05
1.1400975e-05
1.0901666e-05
1.0407395e-05
9.9196425e-06
9.4398195e-06
8.9692472e-06
8.5091434e-06
8.0606118e-06
7.6246311e-06
7.2020505e-06
6.793585e-06
6.3998157e-06
6.0211917e-06
5.6580331e-06
5.3105382e-06
4.9787902e-06
4.6627731e-06
4.3619155e-06
1.6252403e-05
1.5790663e-05
1.5319706e-05
1.4840575e-05
1.4354435e-05
1.3862564e-05
1.3366333e-05
1.2867194e-05
1.2366654e-05
1.1866259e-05
1.136757e-05
1.0872142e-05
1.0381499e-05
9.897118e-06
9.4204083e-06
8.9526923e-06
8.4951924e-06
8.0490189e-06
7.6151592e-06
7.1944729e-06
6.7876872e-06
6.3953961e-06
6.0180622e-06
5.6560199e-06
5.3094824e-06
4.9785476e-06
4.6632129e-06
4.3629226e-06
1.6170296e-05
1.5714003e-05
1.5248434e-05
1.4774606e-05
1.4293659e-05
1.3806846e-05
1.3315516e-05
1.2821099e-05
1.2325083e-05
1.1828997e-05
1.133439e-05
1.0842802e-05
1.0355753e-05
9.8747142e-06
9.4010922e-06
8.9362115e-06
8.481298e-06
8.0374677e-06
7.6057172e-06
7.1869159e-06
6.7818026e-06
6.3909839e-06
6.014936e-06
5.6540079e-06
5.3084266e-06
4.9783038e-06
4.6636508e-06
4.3639281e-06
1.6529858e-05
1.6089109e-05
1.5638172e-05
1.5177904e-05
1.4709297e-05
1.4233465e-05
1.3751638e-05
1.3265143e-05
1.2775385e-05
1.2283837e-05
1.1792011e-05
1.1301438e-05
1.0813653e-05
1.0330163e-05
9.8524355e-06
9.3818759e-06
8.9198083e-06
8.4674628e-06
8.0259611e-06
7.5963073e-06
7.1793811e-06
6.7759325e-06
6.3865807e-06
6.0118149e-06
5.6519976e-06
5.3073701e-06
4.9780579e-06
4.6640866e-06
4.3649313e-06
1.6444272e-05
1.6008816e-05
1.5563147e-05
1.5108096e-05
1.4644628e-05
1.4173837e-05
1.3696925e-05
1.3215198e-05
1.2730042e-05
1.2242908e-05
1.1755291e-05
1.1268711e-05
1.0784687e-05
1.0304723e-05
9.8302781e-06
9.3627553e-06
8.90348e-06
8.4536846e-06
8.0144969e-06
7.5869284e-06
7.171868e-06
6.7700767e-06
6.382186e-06
6.0086983e-06
5.6499892e-06
5.3063135e-06
4.9778107e-06
4.6645196e-06
4.3659315e-06
1.6359667e-05
1.5929415e-05
1.5488926e-05
1.5039007e-05
1.4580601e-05
1.4114775e-05
1.3642709e-05
1.3165686e-05
1.2685071e-05
1.2202296e-05
1.1718841e-05
1.1236209e-05
1.0755909e-05
1.0279436e-05
9.808244e-06
9.3437333e-06
8.8872287e-06
8.4399656e-06
8.0030768e-06
7.5775813e-06
7.1643771e-06
6.7642359e-06
6.3778008e-06
6.0055866e-06
5.6479825e-06
5.3052563e-06
4.9775618e-06
4.6649509e-06
4.3669295e-06
1.6276033e-05
1.5850895e-05
1.54155e-05
1.4970633e-05
1.451721e-05
1.4056275e-05
1.3588987e-05
1.3116604e-05
1.2640472e-05
1.2162003e-05
1.168266e-05
1.1203932e-05
1.0727319e-05
1.0254303e-05
9.7863348e-06
9.3248103e-06
8.8710549e-06
8.4263061e-06
7.9917017e-06
7.5682674e-06
7.1569097e-06
6.7584108e-06
6.3734252e-06
6.0024801e-06
5.6459777e-06
5.3041994e-06
4.9773118e-06
4.66538e-06
4.3679252e-06
1.7000383e-05
1.6602552e-05
1.6193341e-05
1.5773231e-05
1.5342848e-05
1.4902951e-05
1.4454436e-05
1.3998322e-05
1.3535744e-05
1.3067939e-05
1.2596232e-05
1.2122017e-05
1.1646739e-05
1.1171875e-05
1.0698909e-05
1.0229318e-05
9.7645445e-06
9.3059824e-06
8.8549554e-06
8.4127038e-06
7.9803692e-06
7.5589841e-06
7.1494639e-06
6.7526e-06
6.3690583e-06
5.9993782e-06
5.6439749e-06
5.3031424e-06
4.9770601e-06
4.6658067e-06
4.3689185e-06
1.6908816e-05
1.651589e-05
1.6111613e-05
1.5696446e-05
1.527099e-05
1.4835984e-05
1.43923e-05
1.3940934e-05
1.3482999e-05
1.3019709e-05
1.255237e-05
1.2082355e-05
1.1611095e-05
1.1140049e-05
1.0670693e-05
1.0204493e-05
9.7428845e-06
9.2872589e-06
8.8389385e-06
8.3991653e-06
7.9690853e-06
7.5497371e-06
7.1420437e-06
6.7468066e-06
6.3647028e-06
5.9962832e-06
5.6419751e-06
5.3020856e-06
4.9768077e-06
4.6662322e-06
4.3699096e-06
1.6818333e-05
1.6430225e-05
1.6030797e-05
1.5620489e-05
1.5199881e-05
1.4769691e-05
1.4330765e-05
1.3884079e-05
1.3430721e-05
1.2971887e-05
1.2508859e-05
1.2042995e-05
1.1575706e-05
1.1108439e-05
1.0642656e-05
1.0179814e-05
9.7213432e-06
9.2686297e-06
8.8229954e-06
8.3856838e-06
7.9578441e-06
7.540521e-06
7.1346454e-06
6.7410282e-06
6.3603563e-06
5.9931927e-06
5.639977e-06
5.301029e-06
4.9765537e-06
4.6666546e-06
4.3708981e-06
1.6728956e-05
1.634558e-05
1.5950916e-05
1.5545384e-05
1.5129545e-05
1.4704092e-05
1.4269852e-05
1.3827775e-05
1.3378931e-05
1.2924491e-05
1.2465718e-05
1.2003953e-05
1.1540588e-05
1.1077057e-05
1.0614809e-05
1.0155292e-05
9.6999299e-06
9.2501037e-06
8.8071343e-06
8.372266e-06
7.9466515e-06
7.531341e-06
7.1272731e-06
6.7352675e-06
6.3560219e-06
5.9901097e-06
5.6379826e-06
5.2999731e-06
4.9762989e-06
4.6670759e-06
4.3718845e-06
1.6640651e-05
1.6261922e-05
1.587194e-05
1.5471106e-05
1.5059957e-05
1.4639167e-05
1.4209541e-05
1.3772007e-05
1.3327612e-05
1.2877507e-05
1.2422936e-05
1.1965218e-05
1.1505732e-05
1.1045896e-05
1.0587147e-05
1.0130923e-05
9.678641e-06
9.2316773e-06
8.7913518e-06
8.358909e-06
7.9355049e-06
7.5221953e-06
7.1199253e-06
6.7295235e-06
6.3516975e-06
5.9870325e-06
5.6359914e-06
5.2989182e-06
4.9760434e-06
4.6674957e-06
4.3728689e-06
1.6553407e-05
1.6179244e-05
1.5793863e-05
1.5397646e-05
1.4991112e-05
1.4574912e-05
1.4149829e-05
1.3716771e-05
1.3276763e-05
1.2830934e-05
1.238051e-05
1.1926791e-05
1.1471139e-05
1.1014957e-05
1.055967e-05
1.0106707e-05
9.6574762e-06
9.2133513e-06
8.7756487e-06
8.3456135e-06
7.9244055e-06
7.5130844e-06
7.1126025e-06
6.723797e-06
6.3473848e-06
5.9839618e-06
5.6340026e-06
5.2978636e-06
4.9757868e-06
4.6679125e-06
4.3738501e-06
1.7507481e-05
1.7172233e-05
1.6825487e-05
1.6467222e-05
1.6097543e-05
1.5716683e-05
1.5325006e-05
1.492301e-05
1.4511327e-05
1.4090718e-05
1.366207e-05
1.3226386e-05
1.2784776e-05
1.2338445e-05
1.1888675e-05
1.1436811e-05
1.0984242e-05
1.0532381e-05
1.0082646e-05
9.6364393e-06
9.1951279e-06
8.760027e-06
8.3323822e-06
7.913355e-06
7.50401e-06
7.1053062e-06
6.7180886e-06
6.3430842e-06
5.9808986e-06
5.6320181e-06
5.2968104e-06
4.9755298e-06
4.668329e-06
4.3748302e-06
1.7409574e-05
1.7078518e-05
1.6736049e-05
1.6382131e-05
1.6016854e-05
1.5640434e-05
1.5253218e-05
1.4855683e-05
1.4448443e-05
1.4032237e-05
1.3607931e-05
1.3176508e-05
1.2739057e-05
1.2296762e-05
1.185089e-05
1.1402768e-05
1.0953769e-05
1.0505296e-05
1.0058756e-05
9.6155426e-06
9.177019e-06
8.7444975e-06
8.3192234e-06
7.9023606e-06
7.4949783e-06
7.0980416e-06
6.7124032e-06
6.3387989e-06
5.9778453e-06
5.6300389e-06
5.2957596e-06
4.9752731e-06
4.6687436e-06
4.3758076e-06
1.7312983e-05
1.6986039e-05
1.6647764e-05
1.6298112e-05
1.5937157e-05
1.5565098e-05
1.5182265e-05
1.4789118e-05
1.4386248e-05
1.3974376e-05
1.3554346e-05
1.312712e-05
1.269377e-05
1.2255458e-05
1.1813433e-05
1.1369006e-05
1.0923537e-05
1.0478414e-05
1.0035035e-05
9.5947852e-06
9.1590235e-06
8.729059e-06
8.3061369e-06
7.8914226e-06
7.4859897e-06
7.0908089e-06
6.7067407e-06
6.3345295e-06
5.9748022e-06
5.6280662e-06
5.2947117e-06
4.9750169e-06
4.6691575e-06
4.3767835e-06
1.7217701e-05
1.6894789e-05
1.656063e-05
1.6215164e-05
1.5858451e-05
1.5490676e-05
1.511215e-05
1.4723316e-05
1.4324744e-05
1.3917137e-05
1.3501317e-05
1.3078228e-05
1.2648919e-05
1.2214536e-05
1.1776308e-05
1.1335531e-05
1.0893549e-05
1.0451738e-05
1.0011486e-05
9.5741708e-06
9.1411448e-06
8.7137149e-06
8.2931253e-06
7.8805432e-06
7.4770459e-06
7.0836098e-06
6.7011023e-06
6.3302771e-06
5.9717702e-06
5.6260999e-06
5.2936674e-06
4.9747615e-06
4.6695698e-06
4.3777569e-06
1.7123696e-05
1.6804739e-05
1.6474617e-05
1.6133259e-05
1.5780713e-05
1.5417145e-05
1.5042853e-05
1.4658259e-05
1.4263916e-05
1.3860507e-05
1.3448834e-05
1.302982e-05
1.2604496e-05
1.2173988e-05
1.1739508e-05
1.1302335e-05
1.0863799e-05
1.0425264e-05
9.9881063e-06
9.5536962e-06
9.1233807e-06
8.6984633e-06
8.2801871e-06
7.869721e-06
7.4681458e-06
7.0764432e-06
6.6954877e-06
6.3260416e-06
5.9687493e-06
5.6241396e-06
5.2926256e-06
4.9745069e-06
4.6699821e-06
4.3787284e-06
1.7912121e-05
1.7628736e-05
1.7335142e-05
1.7030953e-05
1.6715874e-05
1.6389714e-05
1.6052389e-05
1.5703933e-05
1.5344499e-05
1.4974367e-05
1.4593943e-05
1.4203761e-05
1.3804483e-05
1.3396894e-05
1.2981895e-05
1.2560499e-05
1.2133814e-05
1.1703034e-05
1.126942e-05
1.083429e-05
1.0398993e-05
9.9648966e-06
9.5333627e-06
9.1057321e-06
8.6833047e-06
8.2673232e-06
7.8589571e-06
7.4592905e-06
7.0693102e-06
6.6898976e-06
6.3218223e-06
5.9657392e-06
5.6221866e-06
5.2915874e-06
4.9742531e-06
4.670393e-06
4.3796979e-06
1.7809771e-05
1.7529892e-05
1.7239911e-05
1.6939435e-05
1.6628161e-05
1.6305888e-05
1.5972522e-05
1.5628084e-05
1.5272712e-05
1.490667e-05
1.4530346e-05
1.4144257e-05
1.3749047e-05
1.334548e-05
1.2934439e-05
1.2516917e-05
1.2094003e-05
1.1666874e-05
1.1236777e-05
1.0805013e-05
1.0372919e-05
9.9418522e-06
9.5131662e-06
9.0881956e-06
8.6682369e-06
8.2545312e-06
7.8482494e-06
7.4504782e-06
7.0622093e-06
6.6843305e-06
6.3176193e-06
5.9627397e-06
5.6202395e-06
5.2905525e-06
4.9740003e-06
4.6708033e-06
4.3806655e-06
1.7708858e-05
1.7432415e-05
1.7145976e-05
1.6849141e-05
1.65416e-05
1.6223142e-05
1.5893663e-05
1.555317e-05
1.5201789e-05
1.4839766e-05
1.4467475e-05
1.4085413e-05
1.3694206e-05
1.32946e-05
1.2887459e-05
1.2473756e-05
1.2054563e-05
1.1631038e-05
1.1204413e-05
1.0775975e-05
1.0347048e-05
9.9189782e-06
9.4931111e-06
9.0707752e-06
8.6532631e-06
8.2418143e-06
7.8376008e-06
7.4417116e-06
7.0551429e-06
6.6787887e-06
6.3134345e-06
5.9597522e-06
5.6182996e-06
5.2895206e-06
4.9737478e-06
4.6712127e-06
4.3816315e-06
1.7609343e-05
1.733627e-05
1.7053304e-05
1.676004e-05
1.6456161e-05
1.6141448e-05
1.5815785e-05
1.5479168e-05
1.5131708e-05
1.4773637e-05
1.4405311e-05
1.4027212e-05
1.3639947e-05
1.3244242e-05
1.2840944e-05
1.2431006e-05
1.2015483e-05
1.1595516e-05
1.1172321e-05
1.074717e-05
1.0321375e-05
9.8962702e-06
9.4731941e-06
9.0534681e-06
8.6383813e-06
8.2291713e-06
7.82701e-06
7.4329893e-06
7.0481097e-06
6.6732713e-06
6.3092662e-06
5.9567755e-06
5.6163665e-06
5.2884928e-06
4.9734972e-06
4.6716214e-06
4.3825949e-06
1.7511203e-05
1.7241433e-05
1.6961874e-05
1.6672113e-05
1.6371828e-05
1.6060791e-05
1.5738875e-05
1.5406064e-05
1.5062457e-05
1.4708271e-05
1.4343846e-05
1.3969647e-05
1.3586262e-05
1.31944e-05
1.2794889e-05
1.2388664e-05
1.1976762e-05
1.1560308e-05
1.11405e-05
1.0718597e-05
1.0295899e-05
9.8737285e-06
9.4534151e-06
9.0362747e-06
8.6235918e-06
8.2166019e-06
7.816477e-06
7.4243117e-06
7.0411103e-06
6.6677783e-06
6.3051154e-06
5.9538108e-06
5.6144405e-06
5.2874682e-06
4.9732469e-06
4.6720295e-06
4.3835572e-06
1.8394621e-05
1.8161193e-05
1.7920469e-05
1.7671754e-05
1.7414416e-05
1.7147885e-05
1.6871666e-05
1.6585343e-05
1.6288585e-05
1.5981155e-05
1.5662919e-05
1.5333848e-05
1.4994028e-05
1.4643661e-05
1.4283073e-05
1.3912711e-05
1.3533145e-05
1.3145069e-05
1.274929e-05
1.2346727e-05
1.1938398e-05
1.152541e-05
1.1108949e-05
1.0690256e-05
1.0270619e-05
9.8513521e-06
9.4337743e-06
9.019195e-06
8.6088944e-06
8.2041063e-06
7.8060026e-06
7.4156792e-06
7.0341448e-06
6.6623103e-06
6.3009824e-06
5.9508577e-06
5.6125215e-06
5.2864476e-06
4.9729984e-06
4.6724364e-06
4.3845166e-06
1.8287496e-05
1.8056824e-05
1.7818961e-05
1.7573215e-05
1.731895e-05
1.7055596e-05
1.6782654e-05
1.6499704e-05
1.6206407e-05
1.590252e-05
1.5587898e-05
1.5262501e-05
1.4926403e-05
1.4579792e-05
1.4222978e-05
1.3856392e-05
1.3480588e-05
1.3096241e-05
1.2704141e-05
1.2305188e-05
1.1900384e-05
1.1490819e-05
1.1077662e-05
1.0662143e-05
1.0245534e-05
9.8291392e-06
9.4142696e-06
9.0022274e-06
8.5942883e-06
8.1916836e-06
7.7955853e-06
7.407091e-06
7.0272128e-06
6.656867e-06
6.2968665e-06
5.9479159e-06
5.6106099e-06
5.2854305e-06
4.9727505e-06
4.6728433e-06
4.385475e-06
1.8181903e-05
1.7953933e-05
1.7718875e-05
1.7476039e-05
1.7224788e-05
1.6964551e-05
1.6694824e-05
1.6415182e-05
1.6125283e-05
1.5824875e-05
1.5513802e-05
1.5192016e-05
1.4859576e-05
1.4516658e-05
1.4163556e-05
1.3800687e-05
1.3428587e-05
1.3047913e-05
1.2659438e-05
1.2264046e-05
1.1862719e-05
1.1456534e-05
1.1046642e-05
1.0634257e-05
1.0220643e-05
9.8070902e-06
9.3949016e-06
8.9853727e-06
8.579774e-06
8.1793349e-06
7.7852263e-06
7.398548e-06
7.0203152e-06
6.6514488e-06
6.2927685e-06
5.9449866e-06
5.6087055e-06
5.2844171e-06
4.9725043e-06
4.6732494e-06
4.3864314e-06
1.8077822e-05
1.78525e-05
1.7620194e-05
1.7380211e-05
1.7131915e-05
1.6874734e-05
1.6608162e-05
1.6331768e-05
1.6045204e-05
1.574821e-05
1.5440624e-05
1.5122385e-05
1.479354e-05
1.4454253e-05
1.4104804e-05
1.3745592e-05
1.3377139e-05
1.3000084e-05
1.2615183e-05
1.2223301e-05
1.1825406e-05
1.1422555e-05
1.1015887e-05
1.0606601e-05
1.0195948e-05
9.7852068e-06
9.3756719e-06
8.968632e-06
8.565353e-06
8.1670611e-06
7.774927e-06
7.3900513e-06
7.0134524e-06
6.6460565e-06
6.2886889e-06
5.9420695e-06
5.6068091e-06
5.2834081e-06
4.9722591e-06
4.6736547e-06
4.3873859e-06
1.7975197e-05
1.7752474e-05
1.7522865e-05
1.7285681e-05
1.7040286e-05
1.6786104e-05
1.6522627e-05
1.6249421e-05
1.5966132e-05
1.5672492e-05
1.5368331e-05
1.5053578e-05
1.4728269e-05
1.4392554e-05
1.4046698e-05
1.3691087e-05
1.3326225e-05
1.2952735e-05
1.2571356e-05
1.2182938e-05
1.1788429e-05
1.1388872e-05
1.0985388e-05
1.0579166e-05
1.017144e-05
9.7634819e-06
9.3565751e-06
8.9520009e-06
8.5510212e-06
8.154859e-06
7.7646839e-06
7.3815983e-06
7.006623e-06
6.6406885e-06
6.2846265e-06
5.9391638e-06
5.6049193e-06
5.2824029e-06
4.9720154e-06
4.6740596e-06
4.3883383e-06
1.7874024e-05
1.7653849e-05
1.7426888e-05
1.7192449e-05
1.6949898e-05
1.6698659e-05
1.643822e-05
1.6168143e-05
1.5888068e-05
1.5597723e-05
1.5296927e-05
1.4985599e-05
1.4663766e-05
1.4331563e-05
1.3989243e-05
1.3637176e-05
1.327585e-05
1.2905874e-05
1.2527967e-05
1.2142963e-05
1.1751795e-05
1.1355489e-05
1.0955152e-05
1.0551956e-05
1.0147126e-05
9.7419202e-06
9.3376144e-06
8.9354829e-06
8.5367817e-06
8.1427312e-06
7.7545003e-06
7.3731913e-06
6.9998284e-06
6.6353465e-06
6.2805827e-06
5.936271e-06
5.6030377e-06
5.2814014e-06
4.971773e-06
4.674464e-06
4.3892892e-06
1.7774336e-05
1.755666e-05
1.7332292e-05
1.7100546e-05
1.6860785e-05
1.6612431e-05
1.6354972e-05
1.6087965e-05
1.5811045e-05
1.5523934e-05
1.5226442e-05
1.4918479e-05
1.460006e-05
1.427131e-05
1.3932466e-05
1.3583886e-05
1.3226041e-05
1.2859523e-05
1.2485037e-05
1.2103399e-05
1.1715525e-05
1.1322427e-05
1.0925194e-05
1.0524988e-05
1.0123019e-05
9.7205357e-06
9.3188029e-06
8.919089e-06
8.5226448e-06
8.1306868e-06
7.7443829e-06
7.3648368e-06
6.9930744e-06
6.6300349e-06
6.276561e-06
5.9333933e-06
5.6011663e-06
5.2804065e-06
4.9715337e-06
4.674869e-06
4.3902384e-06
1.7676115e-05
1.7460886e-05
1.7239063e-05
1.7009955e-05
1.6772929e-05
1.6527405e-05
1.6272868e-05
1.6008873e-05
1.5735049e-05
1.5451112e-05
1.5156863e-05
1.4852205e-05
1.4537142e-05
1.4211785e-05
1.3876361e-05
1.3531209e-05
1.317679e-05
1.2813678e-05
1.2442561e-05
1.206424e-05
1.1679615e-05
1.1289681e-05
1.0895514e-05
1.0498261e-05
1.0099119e-05
9.6993262e-06
9.3001395e-06
8.9028187e-06
8.5086092e-06
8.1187251e-06
7.7343322e-06
7.3565345e-06
6.9863608e-06
6.6247538e-06
6.2725616e-06
5.9305311e-06
5.5993045e-06
5.2794169e-06
4.9712963e-06
4.6752734e-06
4.391186e-06
1.7579337e-05
1.7366509e-05
1.7147178e-05
1.6920657e-05
1.6686312e-05
1.6443563e-05
1.6191893e-05
1.5930852e-05
1.5660067e-05
1.5379244e-05
1.5088181e-05
1.4786769e-05
1.4475003e-05
1.4152981e-05
1.3820919e-05
1.3479141e-05
1.3128093e-05
1.2768334e-05
1.2400537e-05
1.2025485e-05
1.1644063e-05
1.1257251e-05
1.086611e-05
1.0471772e-05
1.0075425e-05
9.6782927e-06
9.2816241e-06
8.886672e-06
8.494676e-06
8.1068465e-06
7.7243482e-06
7.348285e-06
6.979688e-06
6.6195034e-06
6.2685846e-06
5.9276849e-06
5.5974537e-06
5.2784338e-06
4.9710623e-06
4.6756787e-06
4.3921321e-06
1.7688768e-05
1.7483975e-05
1.7273499e-05
1.7056612e-05
1.6832628e-05
1.6600912e-05
1.6360885e-05
1.6112026e-05
1.5853884e-05
1.558608e-05
1.5308316e-05
1.502038e-05
1.4722157e-05
1.441363e-05
1.4094887e-05
1.376613e-05
1.3427672e-05
1.3079942e-05
1.2723485e-05
1.2358958e-05
1.1987128e-05
1.1608865e-05
1.1225133e-05
1.083698e-05
1.0445522e-05
1.0051935e-05
9.6574337e-06
9.2632565e-06
8.8706485e-06
8.4808446e-06
8.095051e-06
7.7144306e-06
7.3400881e-06
6.9730559e-06
6.6142839e-06
6.2646303e-06
5.9248544e-06
5.5956127e-06
5.2774565e-06
4.9708307e-06
4.6760838e-06
4.3930764e-06
1.7592573e-05
1.7389999e-05
1.7181831e-05
1.696734e-05
1.6745843e-05
1.6516706e-05
1.6279348e-05
1.6033248e-05
1.5777951e-05
1.5513073e-05
1.5238311e-05
1.4953448e-05
1.4658357e-05
1.4353013e-05
1.4037494e-05
1.3711988e-05
1.3376796e-05
1.3032332e-05
1.2679125e-05
1.231782e-05
1.1949166e-05
1.1574018e-05
1.1193325e-05
1.080812e-05
1.0419507e-05
1.0028648e-05
9.6367476e-06
9.2450348e-06
8.8547473e-06
8.4671143e-06
8.083338e-06
7.7045797e-06
7.3319439e-06
6.9664647e-06
6.6090953e-06
6.2606986e-06
5.9220399e-06
5.5937825e-06
5.2764853e-06
4.9706021e-06
4.6764896e-06
4.3940192e-06
1.7497783e-05
1.7297385e-05
1.7091479e-05
1.6879338e-05
1.666028e-05
1.6433673e-05
1.6198934e-05
1.595554e-05
1.5703034e-05
1.5441029e-05
1.5169215e-05
1.4887368e-05
1.4595355e-05
1.4293139e-05
1.398079e-05
1.3658482e-05
1.3326503e-05
1.2985253e-05
1.2635249e-05
1.2277117e-05
1.1911594e-05
1.1539518e-05
1.1161824e-05
1.0779529e-05
1.0393725e-05
1.0005562e-05
9.6162336e-06
9.2269587e-06
8.8389682e-06
8.4534849e-06
8.0717074e-06
7.6947951e-06
7.323852e-06
6.9599141e-06
6.6039375e-06
6.2567894e-06
5.9192412e-06
5.5919627e-06
5.2755204e-06
4.9703762e-06
4.6768953e-06
4.3949603e-06
1.7404369e-05
1.7206107e-05
1.7002419e-05
1.6792583e-05
1.6575918e-05
1.6351791e-05
1.6119621e-05
1.5878883e-05
1.5629118e-05
1.5369933e-05
1.5101014e-05
1.482213e-05
1.453314e-05
1.4234e-05
1.3924766e-05
1.3605603e-05
1.3276785e-05
1.2938701e-05
1.259185e-05
1.2236845e-05
1.1874408e-05
1.1505361e-05
1.1130626e-05
1.0751204e-05
1.0368176e-05
9.9826771e-06
9.5958908e-06
9.2090279e-06
8.8233107e-06
8.439956e-06
8.0601592e-06
7.6850769e-06
7.3158129e-06
6.9534044e-06
6.5988107e-06
6.2529032e-06
5.9164586e-06
5.5901537e-06
5.2745618e-06
4.9701534e-06
4.677302e-06
4.3959005e-06
1.7312302e-05
1.7116133e-05
1.6914621e-05
1.6707046e-05
1.6492728e-05
1.6271036e-05
1.6041387e-05
1.5803256e-05
1.5556179e-05
1.5299763e-05
1.5033687e-05
1.4757714e-05
1.4471696e-05
1.4175579e-05
1.3869409e-05
1.355334e-05
1.3227634e-05
1.2892665e-05
1.254892e-05
1.2196996e-05
1.1837601e-05
1.1471543e-05
1.1099727e-05
1.0723142e-05
1.0342854e-05
9.9599885e-06
9.5757164e-06
9.1912395e-06
8.8077722e-06
8.4265261e-06
8.0486917e-06
7.6754239e-06
7.3078255e-06
6.9469349e-06
6.5937144e-06
6.2490393e-06
5.9136919e-06
5.5883551e-06
5.2736098e-06
4.9699334e-06
4.6777084e-06
4.3968387e-06
1.7221535e-05
1.7027422e-05
1.6828046e-05
1.6622689e-05
1.6410675e-05
1.6191371e-05
1.5964197e-05
1.5728625e-05
1.5484189e-05
1.5230492e-05
1.496721e-05
1.4694097e-05
1.4410999e-05
1.4117854e-05
1.3814699e-05
1.3501674e-05
1.317903e-05
1.284713e-05
1.2506444e-05
1.2157558e-05
1.1801162e-05
1.1438052e-05
1.1069117e-05
1.0695334e-05
1.0317754e-05
9.937491e-06
9.5557054e-06
9.1735895e-06
8.7923499e-06
8.4131923e-06
8.0373029e-06
7.665834e-06
7.299888e-06
6.9405043e-06
6.5886475e-06
6.2451971e-06
5.9109402e-06
5.5865662e-06
5.272663e-06
4.969716e-06
4.6781156e-06
4.3977756e-06
1.7132093e-05
1.6939995e-05
1.6742713e-05
1.6539533e-05
1.6329779e-05
1.6112819e-05
1.5888073e-05
1.5655012e-05
1.5413169e-05
1.5162142e-05
1.4901602e-05
1.46313e-05
1.4351071e-05
1.4060847e-05
1.3760654e-05
1.3450624e-05
1.3130994e-05
1.2802114e-05
1.2464441e-05
1.2118546e-05
1.1765107e-05
1.1404903e-05
1.1038811e-05
1.0667793e-05
1.0292887e-05
9.9151954e-06
9.5358679e-06
9.1560867e-06
8.7770517e-06
8.3999616e-06
8.0259989e-06
7.6563129e-06
7.2920055e-06
6.9341166e-06
6.5836134e-06
6.2413791e-06
5.9082059e-06
5.5847891e-06
5.2717233e-06
4.9695021e-06
4.6785229e-06
4.3987107e-06
1.7043927e-05
1.6853808e-05
1.6658582e-05
1.6457537e-05
1.625e-05
1.6035341e-05
1.5812978e-05
1.5582383e-05
1.5343085e-05
1.509468e-05
1.4836833e-05
1.4569292e-05
1.4291885e-05
1.4004533e-05
1.3707254e-05
1.3400169e-05
1.3083505e-05
1.2757598e-05
1.2422893e-05
1.2079947e-05
1.1729423e-05
1.1372086e-05
1.1008798e-05