/*--------------------------------*- C++ -*----------------------------------*\
| =========                 |                                                 |
| \\      /  F ield         | OpenFOAM: The Open Source CFD Toolbox           |
|  \\    /   O peration     | Version:  2506                                  |
|   \\  /    A nd           | Website:  www.openfoam.com                      |
|    \\/     M anipulation  |                                                 |
\*---------------------------------------------------------------------------*/
FoamFile
{
    version     2.0;
    format      ascii;
    arch        "LSB;label=32;scalar=64";
    class       volScalarField;
    location    "0.15";
    object      k;
}
// * * * * * * * * * * * * * * * * * * * * * * * * * * * * * * * * * * * * * //

dimensions      [0 2 -2 0 0 0 0];

internalField   nonuniform List<scalar> 
1376
(
6.5496245
6.5492217
6.5488443
6.5486132
6.5494955
6.5490811
6.548709
6.5484819
6.5483461
6.5482356
6.5482165
6.5482219
6.5482405
6.54827
6.5493161
6.548888
6.5485234
6.5483089
6.5482159
6.548117
6.5480965
6.5481019
6.5481206
6.5481425
6.548127
6.5481009
6.5481217
6.5481462
6.5481737
6.5490993
6.5486626
6.548308
6.5481129
6.5480333
6.5479511
6.5479312
6.5479381
6.5479577
6.5479797
6.5480041
6.5479827
6.5480021
6.5480245
6.5480413
6.5480075
6.5479909
6.5480171
6.5480492
6.5488452
6.5484067
6.5480633
6.5478871
6.5478167
6.5477533
6.5477381
6.5477497
6.547774
6.5478046
6.5478332
6.5478196
6.5478399
6.5478605
6.547874
6.5478871
6.5478739
6.5479002
6.5479217
6.5478949
6.5478964
6.5479343
6.5479743
6.5485659
6.5481302
6.5477959
6.5476336
6.5475684
6.5475237
6.547517
6.5475365
6.5475677
6.5476069
6.5476349
6.5476311
6.547656
6.5476791
6.5476979
6.5477163
6.5477077
6.5477337
6.5477532
6.5477745
6.5477785
6.5478142
6.5478416
6.5478131
6.5478285
6.5478712
6.5479155
6.5482772
6.5478443
6.5475139
6.5473598
6.5472983
6.5472693
6.5472725
6.5473005
6.5473385
6.5473809
6.5474084
6.5474165
6.5474474
6.5474751
6.547499
6.547515
6.5475117
6.5475389
6.5475633
6.5475932
6.5476006
6.5476312
6.547654
6.5476783
6.5476959
6.5477385
6.5477726
6.5477455
6.5477816
6.5478334
6.5479882
6.5475583
6.5472266
6.5470757
6.5470174
6.546998
6.5470091
6.5470426
6.5470849
6.5471278
6.5471565
6.5471766
6.5472134
6.5472453
6.5472705
6.5472839
6.5472866
6.5473126
6.5473394
6.5473687
6.5473817
6.5474084
6.5474318
6.5474664
6.5474851
6.5475248
6.5475585
6.5475971
6.5476384
6.5476823
6.5476612
6.5477078
6.5477614
6.5476955
6.547273
6.5469388
6.5467873
6.5467303
6.5467159
6.5467305
6.5467647
6.5468065
6.5468479
6.5468784
6.5469065
6.5469472
6.5469829
6.5470088
6.5470225
6.5470316
6.5470542
6.547079
6.547106
6.5471242
6.5471467
6.5471687
6.5472005
6.5472213
6.547258
6.5472962
6.5473563
6.5474024
6.54745
6.5475017
6.5475558
6.5476046
6.5475821
6.5476209
6.5473804
6.5469735
6.5466397
6.5464894
6.5464336
6.5464224
6.5464384
6.5464702
6.5465069
6.5465422
6.5465701
6.5465988
6.5466386
6.5466762
6.5467045
6.5467207
6.5467336
6.5467546
6.5467791
6.5468059
6.5468275
6.5468467
6.5468651
6.5468908
6.5469137
6.5469461
6.5469851
6.5470507
6.5471022
6.5471571
6.5472337
6.5472952
6.5473517
6.5474075
6.5474432
6.5473961
6.5474049
6.5473883
6.5470154
6.546632
6.5463047
6.5461616
6.5461112
6.5461052
6.5461238
6.5461541
6.5461854
6.5462118
6.5462319
6.546254
6.5462868
6.5463208
6.546348
6.5463649
6.546379
6.5464
6.546426
6.5464534
6.5464771
6.5464978
6.5465172
6.5465403
6.5465637
6.5465917
6.546629
6.5466918
6.5467467
6.5468051
6.5468874
6.5469565
6.5470246
6.5471112
6.5471629
6.5472049
6.5472274
6.5472111
6.5471012
6.5470389
6.5465813
6.5462285
6.545912
6.5457831
6.5457439
6.5457463
6.5457712
6.5458035
6.545832
6.5458515
6.5458638
6.5458773
6.5458995
6.5459238
6.5459432
6.5459554
6.5459666
6.5459847
6.5460076
6.5460317
6.5460557
6.5460814
6.5461062
6.5461298
6.5461526
6.5461805
6.5462211
6.5462811
6.5463378
6.5463984
6.5464797
6.5465556
6.546632
6.54673
6.5468052
6.5468869
6.5469326
6.5469308
6.5468992
6.546832
6.5466988
6.5466729
6.5460754
6.5457596
6.5454552
6.5453445
6.5453202
6.5453344
6.5453692
6.5454074
6.5454379
6.5454558
6.5454649
6.545473
6.5454849
6.5454974
6.545506
6.54551
6.5455137
6.5455216
6.5455326
6.5455462
6.545565
6.5455911
6.5456174
6.5456394
6.5456613
6.5456939
6.5457425
6.5458027
6.5458622
6.5459303
6.5460122
6.5460927
6.5461771
6.5462807
6.5463751
6.5464765
6.5465489
6.5465718
6.5465709
6.5465223
6.5464676
6.5464283
6.5463948
6.5455056
6.5452293
6.5449379
6.5448471
6.5448399
6.5448694
6.5449174
6.5449652
6.5450023
6.5450251
6.5450379
6.5450463
6.5450524
6.5450555
6.545055
6.5450511
6.545045
6.5450385
6.5450331
6.5450311
6.5450362
6.5450509
6.5450679
6.545083
6.545102
6.5451373
6.5451891
6.5452477
6.5453098
6.5453875
6.545471
6.5455532
6.5456484
6.545761
6.5458703
6.5459854
6.5460791
6.5461283
6.5461561
6.5461516
6.5461347
6.5461171
6.54616
6.5462899
6.5466955
6.5448856
6.544647
6.5443667
6.5442964
6.5443076
6.5443563
6.544421
6.5444825
6.5445313
6.5445657
6.5445892
6.5446045
6.5446118
6.5446124
6.5446082
6.5445996
6.5445857
6.5445673
6.5445477
6.5445301
6.5445172
6.5445122
6.5445127
6.5445163
6.5445276
6.5445547
6.5445959
6.5446445
6.5447027
6.5447799
6.5448585
6.5449372
6.5450394
6.5451596
6.5452811
6.5454104
6.5455179
6.5455986
6.5456728
6.5457324
6.5457862
6.5458412
6.5459245
6.546178
6.5466029
6.5470424
6.5442421
6.5440301
6.5437583
6.5437068
6.5437364
6.5438063
6.5438905
6.5439697
6.5440354
6.5440879
6.5441299
6.5441606
6.5441782
6.5441856
6.544186
6.544179
6.5441634
6.5441406
6.5441143
6.5440862
6.5440589
6.5440367
6.5440215
6.5440125
6.5440108
6.5440197
6.5440392
6.544068
6.5441103
6.5441695
6.5442314
6.5442975
6.5443903
6.5445028
6.5446266
6.5447644
6.5448842
6.5450072
6.5451492
6.5452917
6.545451
6.5456026
6.5457775
6.5460935
6.5465486
6.5470281
6.5481523
6.5605564
6.5436303
6.5434193
6.5431483
6.5431102
6.543157
6.5432477
6.5433529
6.5434538
6.5435414
6.5436171
6.5436837
6.5437386
6.5437778
6.5438036
6.5438189
6.543824
6.5438165
6.5437993
6.5437757
6.5437466
6.5437146
6.5436853
6.5436619
6.5436429
6.5436265
6.5436153
6.5436113
6.5436159
6.5436332
6.5436631
6.5436987
6.5437413
6.5438053
6.5438891
6.543995
6.5441264
6.5442578
6.5444226
6.5446305
6.5448571
6.5451187
6.5453628
6.5456547
6.5460532
6.5465248
6.5470141
6.5481351
6.5614821
6.9681385
6.5431603
6.5429046
6.5426114
6.5425639
6.5426154
6.5427208
6.5428482
6.5429771
6.543095
6.5432007
6.543297
6.543382
6.5434513
6.5435056
6.5435471
6.543575
6.5435879
6.5435882
6.5435772
6.5435568
6.5435305
6.543504
6.5434798
6.5434554
6.5434278
6.5434003
6.5433763
6.5433576
6.5433479
6.5433482
6.5433547
6.5433675
6.5433935
6.5434381
6.5435114
6.5436218
6.543757
6.5439407
6.5441783
6.5444533
6.5447751
6.5450997
6.5454999
6.5459679
6.5464056
6.546869
6.5480119
6.5608677
6.9622786
6.5430036
6.5426761
6.5423307
6.5422257
6.5422268
6.5422991
6.542416
6.542559
6.5427087
6.5428544
6.5429928
6.5431191
6.5432276
6.5433171
6.5433901
6.5434475
6.5434893
6.5435158
6.5435267
6.5435246
6.5435119
6.5434933
6.5434704
6.5434413
6.5434051
6.5433649
6.5433235
6.5432833
6.5432491
6.5432234
6.5432037
6.5431885
6.5431843
6.5431974
6.5432427
6.5433332
6.5434673
6.5436528
6.5438908
6.544175
6.5445149
6.5448956
6.545339
6.5458005
6.5461946
6.5466691
6.5479757
6.5619843
6.9858906
6.5431184
6.5427486
6.542378
6.5422339
6.5421776
6.542179
6.5422187
6.5422896
6.5423955
6.5425331
6.5426937
6.5428613
6.5430188
6.5431562
6.5432712
6.5433637
6.5434346
6.543487
6.5435233
6.5435439
6.543549
6.5435404
6.5435191
6.5434883
6.5434502
6.543408
6.5433636
6.5433191
6.5432804
6.5432492
6.5432219
6.5431969
6.5431808
6.5431869
6.5432336
6.5433389
6.5435035
6.5437205
6.5439697
6.544235
6.5445239
6.544854
6.5452528
6.5456982
6.5460702
6.5465458
6.547909
6.5615109
6.977655
6.5432825
6.5429179
6.5425499
6.5423969
6.5423078
6.5422551
6.5422281
6.5422299
6.5422658
6.5423212
6.5424182
6.5425583
6.5427239
6.5428937
6.5430522
6.5431909
6.5433044
6.5433921
6.5434574
6.5435034
6.5435317
6.5435442
6.5435442
6.5435313
6.5435089
6.5434795
6.543445
6.5434081
6.5433736
6.5433435
6.5433166
6.5432968
6.5432946
6.5433256
6.5434106
6.5435667
6.5437897
6.5440479
6.5442906
6.5445038
6.5447079
6.5449607
6.5452877
6.5456582
6.5459613
6.546404
6.5477616
6.562673
6.9971347
6.5434825
6.543122
6.5427788
6.5426228
6.5425232
6.5424518
6.5423909
6.5423375
6.5422803
6.5422555
6.5422729
6.5423305
6.5424382
6.5425884
6.5427628
6.5429369
6.5430954
6.5432314
6.5433427
6.5434291
6.5434936
6.5435393
6.5435708
6.5435898
6.5435936
6.5435862
6.5435696
6.5435486
6.5435265
6.5435049
6.543488
6.5434859
6.5435137
6.5435924
6.5437412
6.5439582
6.5442034
6.5444242
6.5446043
6.5447405
6.5448672
6.5450398
6.5452766
6.5456177
6.545893
6.5462919
6.5476382
6.5631043
7.0108727
6.543692
6.5433306
6.5430091
6.5428642
6.5427754
6.5427122
6.5426457
6.5425688
6.5424921
6.5424248
6.5423642
6.5423331
6.5423371
6.5423789
6.5424839
6.5426441
6.5428263
6.5430018
6.5431582
6.5432886
6.543391
6.5434717
6.5435354
6.5435855
6.5436268
6.5436483
6.5436524
6.5436463
6.5436355
6.5436276
6.5436312
6.543658
6.5437281
6.5438522
6.5440251
6.5442223
6.5444153
6.5445949
6.5447438
6.544861
6.545001
6.5451795
6.5454045
6.5457048
6.545938
6.5462612
6.5474098
6.5627818
6.9990242
6.5439025
6.5435312
6.5432327
6.5431026
6.5430293
6.5429829
6.5429335
6.5428721
6.5427957
6.5427056
6.5426094
6.542517
6.5424353
6.5423936
6.5423831
6.5424305
6.5425455
6.5427097
6.5428908
6.5430645
6.5432142
6.5433306
6.5434194
6.5434851
6.5435314
6.5435612
6.543574
6.5435786
6.5435835
6.5435992
6.5436391
6.5437197
6.543838
6.5439788
6.5441368
6.5443072
6.5444858
6.5446657
6.5448341
6.5450125
6.5452259
6.5454515
6.5456432
6.5458676
6.5460635
6.5463272
6.5472758
6.564428
7.0302595
6.5440521
6.5436804
6.5434049
6.5432964
6.5432479
6.5432298
6.5432052
6.5431642
6.5431048
6.5430251
6.5429206
6.5427943
6.5426643
6.5425474
6.542451
6.5423857
6.5423723
6.5424398
6.5425742
6.5427453
6.542923
6.5430825
6.543205
6.5432902
6.543347
6.5433883
6.5434225
6.543456
6.5434956
6.5435517
6.5436322
6.5437362
6.543865
6.5440159
6.5441779
6.5443463
6.5445311
6.5447398
6.5449728
6.5452212
6.5454696
6.545691
6.5458643
6.5460647
6.5462069
6.5464109
6.5474024
6.5642125
7.0267051
6.5441544
6.5437918
6.5435391
6.5434491
6.5434146
6.5434123
6.5434102
6.5433882
6.5433453
6.5432799
6.5431892
6.5430675
6.5429259
6.5427679
6.5426173
6.5424812
6.5423722
6.5422981
6.5423108
6.5424076
6.542561
6.5427364
6.5429029
6.5430364
6.5431304
6.5432019
6.5432692
6.5433392
6.5434146
6.543498
6.5435987
6.5437149
6.5438441
6.5439963
6.5441769
6.5443905
6.5446324
6.5448853
6.5451324
6.5453575
6.5455684
6.5457909
6.5460379
6.5462704
6.5463893
6.5465677
6.54761
6.5664137
7.0574041
6.5441349
6.5437904
6.5435622
6.5434906
6.5434705
6.5435023
6.5435107
6.5434987
6.5434643
6.543411
6.5433423
6.5432579
6.5431392
6.542991
6.5428294
6.5426556
6.5424811
6.5423401
6.5422264
6.5421849
6.5422455
6.5423852
6.5425696
6.5427654
6.5429385
6.5430718
6.5431908
6.5433018
6.5433978
6.5434839
6.5435638
6.5436571
6.5437867
6.5439674
6.5441973
6.5444627
6.5447304
6.544967
6.5451643
6.5453464
6.5455675
6.5458363
6.5461366
6.546421
6.5465827
6.5467859
6.5477232
6.5663144
7.0510305
6.5441401
6.5438174
6.5436124
6.5435462
6.5435088
6.5434606
6.5434656
6.5434682
6.5434594
6.54344
6.5434138
6.5433683
6.5432964
6.5432084
6.5430747
6.5429064
6.5427186
6.5425213
6.542347
6.5422233
6.5421577
6.5421939
6.542341
6.5425616
6.5428076
6.5430304
6.543193
6.5432987
6.543372
6.5434257
6.5434805
6.5435692
6.5437222
6.5439552
6.5442456
6.5445387
6.5447868
6.5449802
6.5451499
6.5453384
6.5455729
6.5458433
6.5461325
6.5464489
6.5466672
6.5469149
6.5478965
6.5678494
7.0681502
6.5440168
6.5437022
6.5434911
6.5434125
6.5433735
6.5434234
6.5434412
6.5434564
6.5434685
6.543479
6.5434739
6.5434273
6.5434012
6.5433454
6.5432651
6.5431568
6.5430197
6.5428534
6.5426726
6.5424837
6.5423552
6.5423058
6.5423293
6.5424467
6.5426511
6.542886
6.5430857
6.5432135
6.5432856
6.5433336
6.5433963
6.5435153
6.5437255
6.544016
6.5443401
6.5446312
6.5448504
6.5450127
6.5451636
6.5453431
6.5455515
6.54578
6.5460463
6.5463604
6.5465616
6.5468653
6.5480775
6.5697652
7.1018863
6.5432544
6.5432388
6.5432548
6.5432846
6.5433217
6.5433696
6.5434851
6.5435281
6.5435353
6.5435145
6.5434773
6.5433948
6.5432814
6.5431305
6.5429655
6.5427683
6.5425683
6.5424478
6.5424251
6.5424887
6.5426492
6.5428597
6.5430505
6.5431805
6.5432755
6.543387
6.5435678
6.5438271
6.5441486
6.5444723
6.5447322
6.5449106
6.5450403
6.5451625
6.5453
6.5454681
6.5456673
6.5459263
6.5462426
6.5463955
6.5466864
6.5480395
6.5691962
7.0907235
6.5434459
6.5435361
6.5436109
6.5436634
6.5436874
6.5438032
6.5437457
6.5436139
6.5434203
6.5431578
6.5429224
6.5426927
6.5425116
6.5424325
6.5424654
6.5426122
6.5428255
6.5430363
6.5432237
6.5434138
6.5436479
6.5439429
6.5442707
6.5445679
6.5447868
6.5449253
6.5450175
6.545116
6.5452391
6.5453878
6.5455694
6.545809
6.5461146
6.5462593
6.5465057
6.5478762
6.5713798
7.1321126
6.5439076
6.5438648
6.5437689
6.5436152
6.5435686
6.5432753
6.5429861
6.5427408
6.5425583
6.5424497
6.5424637
6.5426137
6.542854
6.5431228
6.5433917
6.5436825
6.5439973
6.5443035
6.5445563
6.5447272
6.5448367
6.5449373
6.5450612
6.5452225
6.545407
6.5455952
6.545796
6.5460383
6.5461531
6.5463771
6.5477658
6.5733844
7.1300621
6.5436634
6.5434225
6.5431438
6.5428625
6.5426425
6.5425772
6.5424921
6.5425138
6.5426719
6.5429387
6.5432677
6.5435896
6.5438934
6.544163
6.5443769
6.5445387
6.544687
6.5448647
6.5450899
6.5453281
6.5455382
6.5457084
6.5458508
6.546012
6.546071
6.5463049
6.5477024
6.5733362
7.1774308
6.5426195
6.5424045
6.5423095
6.5423832
6.5427104
6.5429963
6.5433143
6.5436057
6.5438507
6.5440787
6.544318
6.5446036
6.5449413
6.5452468
6.5454716
6.5456344
6.5457872
6.5459405
6.5460669
6.5460616
6.5462623
6.5476628
6.5769638
7.1801747
6.5422381
6.5424198
6.5426978
6.5430337
6.5434769
6.5438139
6.5442015
6.5446233
6.5450276
6.5453241
6.54551
6.5456394
6.54579
6.545945
6.5460953
6.5461075
6.5462959
6.5476559
6.5767858
7.1872337
6.54289
6.5433831
6.5439293
6.5445167
6.5448868
6.5451583
6.5453679
6.5455551
6.5457188
6.5458755
6.5460431
6.5460893
6.5463282
6.5477306
6.5805292
7.2390962
6.5440225
6.544403
6.5447177
6.5451106
6.5453965
6.5456341
6.5458079
6.545973
6.546035
6.5463031
6.5477608
6.5801674
7.229625
6.5446298
6.5450467
6.5454132
6.5457645
6.5459481
6.5459904
6.5462526
6.5478689
6.5839434
7.2664485
6.5455054
6.5457604
6.545848
6.5461977
6.5479069
6.5834165
7.2567292
6.5459343
6.5477325
6.5878748
7.3038849
6.5872605
7.2977079
6.5494671
)
;

boundaryField
{
    Side
    {
        type            empty;
    }
    Inlet
    {
        type            turbulentIntensityKineticEnergyInlet;
        intensity       0.03;
        value           nonuniform List<scalar> 
25
(
11.986997
11.986846
11.988866
11.991474
11.991731
11.995243
12.000156
11.999614
11.998458
12.000718
12.003329
12.004665
12.006871
12.011087
12.012282
12.012856
12.014471
12.017583
12.020711
12.02362
12.025092
12.025925
12.027278
12.029304
12.032595
)
;
    }
    Airfoil
    {
        type            kqRWallFunction;
        value           nonuniform List<scalar> 0();
    }
    Outlet
    {
        type            inletOutlet;
        inletValue      nonuniform List<scalar> 0();
        value           nonuniform List<scalar> 0();
    }
    procBoundary12to4
    {
        type            processor;
        value           uniform 6.5493586;
    }
    procBoundary12to5
    {
        type            processor;
        value           nonuniform List<scalar> 
30
(
6.5496327
6.5494705
6.5492353
6.5489585
6.548656
6.5483475
6.5480447
6.5477423
6.5474193
6.5470481
6.5466096
6.5461008
6.5455292
6.5449073
6.5442633
6.5436529
6.5431839
6.5430191
6.5431165
6.5432616
6.5434501
6.5436689
6.5438898
6.544049
6.5441529
6.544127
6.5441284
6.5440168
6.5492645
6.5496327
)
;
    }
    procBoundary12to6
    {
        type            processor;
        value           uniform 6.5440697;
    }
    procBoundary12to11
    {
        type            processor;
        value           nonuniform List<scalar> 
65
(
6.5493566
6.5488778
6.5484849
6.5482507
6.5479806
6.5479806
6.5478558
6.5478394
6.5478441
6.5478599
6.5478893
6.5477511
6.5477511
6.5477201
6.5477441
6.5477685
6.5478021
6.5476309
6.5476309
6.5476094
6.5476319
6.5476699
6.5475074
6.5475074
6.5475053
6.5475415
6.5475917
6.5474325
6.5474325
6.5474445
6.5474839
6.5475368
6.5473751
6.5473751
6.5474032
6.5474634
6.5472978
6.5472978
6.5473333
6.5473894
6.5472211
6.5472211
6.5472601
6.5470609
6.5470609
6.5470535
6.5470318
6.546757
6.546757
6.5466984
6.5463901
6.5463901
6.5463757
6.5461435
6.5461435
6.5459691
6.5459691
6.5463223
6.5467025
6.5467025
6.5477128
6.5477128
6.5601374
6.9428092
6.9428092
)
;
    }
    procBoundary12to13
    {
        type            processor;
        value           nonuniform List<scalar> 
60
(
6.543996
6.5437651
6.5436826
6.5436643
6.5436643
6.543502
6.5435037
6.5435321
6.5435785
6.5436547
6.5437742
6.5437742
6.5438971
6.5440116
6.5441283
6.544242
6.5443394
6.5443394
6.5444381
6.54442
6.5443462
6.5441926
6.5441926
6.5442053
6.5441124
6.5439203
6.5436651
6.5433854
6.5433854
6.5433458
6.5430832
6.5429076
6.5428175
6.5428175
6.542608
6.5426281
6.5428076
6.5431021
6.5431021
6.543025
6.5435948
6.5441396
6.5441396
6.5440551
6.5444772
6.5448373
6.5448373
6.5448938
6.5454006
6.5457808
6.5457808
6.5458224
6.5460857
6.5461836
6.5461836
6.5461532
6.5482271
6.5482271
6.5927864
7.3450026
)
;
    }
}


// ************************************************************************* //
