/*--------------------------------*- C++ -*----------------------------------*\
| =========                 |                                                 |
| \\      /  F ield         | OpenFOAM: The Open Source CFD Toolbox           |
|  \\    /   O peration     | Version:  2506                                  |
|   \\  /    A nd           | Website:  www.openfoam.com                      |
|    \\/     M anipulation  |                                                 |
\*---------------------------------------------------------------------------*/
FoamFile
{
    version     2.0;
    format      ascii;
    arch        "LSB;label=32;scalar=64";
    class       volScalarField;
    location    "0.021";
    object      p;
}
// * * * * * * * * * * * * * * * * * * * * * * * * * * * * * * * * * * * * * //

dimensions      [1 -1 -2 0 0 0 0];

internalField   nonuniform List<scalar> 
13761
(
46884.041
46490.18
46394.314
46560.022
46741.763
46962.658
46971.884
47102.962
46983.102
47109.592
46972.998
46883.337
46489.772
46394
46560.044
46741.892
46962.891
46971.897
47103.032
46983.078
47109.635
46972.985
46882.535
46489.31
46393.689
46560.097
46742.057
46963.137
46971.921
47103.102
46983.055
47109.678
46972.972
47322.877
46881.69
46488.823
46393.376
46560.164
46742.235
46963.387
46971.95
47103.171
46983.032
47109.721
46972.959
47322.634
46880.81
46488.315
46393.062
46560.243
46742.425
46963.64
46971.983
47103.24
46983.009
47109.764
46972.945
47322.372
46879.898
46487.789
46392.746
46560.333
46742.626
46963.894
46972.019
47103.308
46982.987
47109.807
46972.931
47174.202
47322.092
46878.957
46487.245
46392.43
46560.432
46742.836
46964.15
46972.059
47103.376
46982.965
47109.85
46972.916
47175.012
47321.794
46877.989
46486.684
46392.113
46560.542
46743.056
46964.408
46972.102
47103.444
46982.944
47109.893
46972.901
47175.846
47321.481
46876.995
46486.107
46391.796
46560.661
46743.286
46964.668
46972.147
47103.511
46982.922
47109.936
46972.886
46779.805
47176.702
47321.153
46875.976
46485.514
46391.479
46560.789
46743.524
46964.929
46972.196
47103.578
46982.901
47109.98
46972.871
46779.863
47177.578
47320.81
46874.933
46484.904
46391.163
46560.926
46743.77
46965.192
46972.247
47103.645
46982.88
47110.023
46972.855
46779.94
47178.474
47320.454
46873.868
46484.279
46390.848
46561.072
46744.025
46965.456
46972.301
47103.711
46982.86
47110.066
46972.84
46780.037
47179.388
47320.083
46872.78
46483.639
46390.534
46561.227
46744.288
46965.722
46972.358
47103.777
46982.839
47110.11
46972.824
46751.815
46780.153
47180.32
47319.7
46871.67
46482.982
46390.222
46561.391
46744.559
46965.989
46972.417
47103.843
46982.819
47110.153
46972.807
46751.201
46780.29
47181.269
47319.302
46870.538
46482.31
46389.912
46561.563
46744.838
46966.258
46972.479
47103.909
46982.799
47110.197
46972.791
46750.574
46780.446
47182.236
47318.89
46869.386
46481.623
46389.605
46561.744
46745.125
46966.528
46972.543
47103.974
46982.778
47110.241
46972.774
46894.516
46749.933
46780.622
47183.219
47318.465
46868.213
46480.92
46389.299
46561.933
46745.419
46966.799
46972.61
47104.04
46982.759
47110.285
46972.757
46894.216
46749.278
46780.818
47184.218
47318.025
46867.021
46480.202
46388.997
46562.13
46745.721
46967.072
46972.679
47104.105
46982.739
47110.329
46972.74
46893.912
46748.61
46781.034
47185.233
47317.571
46865.809
46479.468
46388.698
46562.336
46746.03
46967.346
46972.75
47104.17
46982.719
47110.373
46972.723
46773.758
46893.604
46747.928
46781.269
47186.264
47317.102
46864.578
46478.72
46388.401
46562.55
46746.346
46967.621
46972.824
47104.235
46982.699
47110.417
46972.705
46773.788
46893.293
46747.233
46781.526
47187.31
47316.62
46863.328
46477.956
46388.108
46562.772
46746.67
46967.897
46972.9
47104.299
46982.68
47110.461
46972.687
46773.828
46892.98
46746.525
46781.802
47188.371
47316.123
46862.06
46477.176
46387.819
46563.003
46747
46968.174
46972.978
47104.364
46982.66
47110.506
46663.072
46773.878
46892.664
46745.804
46782.099
47189.447
47315.611
46860.773
46476.382
46387.533
46563.241
46747.338
46968.453
46973.059
47104.428
46982.641
47110.55
46662.592
46773.937
46892.345
46745.071
46782.417
47190.536
47315.085
46859.468
46475.572
46387.252
46563.487
46747.683
46968.733
46973.141
47104.492
46982.622
47110.595
46708.331
46662.111
46774.005
46892.025
46744.326
46782.754
47191.639
47314.545
46858.145
46474.747
46386.974
46563.741
46748.034
46969.014
46973.226
47104.556
46982.603
47110.639
46707.828
46661.629
46774.08
46891.703
46743.569
46783.113
47192.755
47313.99
46856.806
46473.908
46386.7
46564.003
46748.393
46969.296
46973.312
47104.62
46982.584
47110.684
46707.317
46661.147
46774.164
46891.379
46742.8
46783.492
47193.885
47313.421
46855.449
46473.054
46386.431
46564.273
46748.758
46969.58
46973.401
47104.684
46982.566
46678.302
46706.799
46660.665
46774.255
46891.054
46742.021
46783.893
47195.026
47312.838
46854.075
46472.184
46386.166
46564.551
46749.129
46969.865
46973.491
47104.747
46982.547
46677.904
46706.274
46660.184
46774.353
46890.728
46741.231
46784.315
47196.181
47312.239
46852.684
46471.301
46385.905
46564.836
46749.508
46970.151
46973.582
47104.81
46982.529
46677.508
46705.741
46659.703
46774.458
46890.4
46740.431
46784.758
47197.347
47311.626
46851.276
46470.402
46385.649
46565.129
46749.893
46970.44
46973.676
47104.874
46982.511
46637.053
46677.112
46705.201
46659.222
46774.569
46890.069
46739.621
46785.223
47198.525
47310.998
46849.851
46469.49
46385.397
46565.43
46750.284
46970.73
46973.771
47104.937
46982.492
46636.344
46676.717
46704.654
46658.742
46774.686
46889.737
46738.803
46785.709
47199.714
47310.355
46848.411
46468.564
46385.15
46565.738
46750.682
46971.021
46973.867
47105
46640.097
46635.631
46676.323
46704.1
46658.263
46774.809
46889.403
46737.976
46786.216
47200.915
47309.696
46846.955
46467.624
46384.907
46566.054
46751.086
46971.314
46973.965
47105.063
46639.333
46634.915
46675.929
46703.539
46657.785
46774.938
46889.065
46737.142
46786.745
47202.126
47309.022
46845.482
46466.671
46384.669
46566.378
46751.496
46971.609
46974.064
47105.125
46620.113
46638.561
46634.195
46675.536
46702.972
46657.308
46775.072
46888.724
46736.3
46787.297
47203.348
47308.332
46843.994
46465.704
46384.436
46566.709
46751.913
46971.905
46974.165
47105.188
46619.274
46637.783
46633.472
46675.144
46702.398
46656.833
46775.212
46888.379
46735.452
46787.87
47204.582
47307.626
46842.49
46464.723
46384.207
46567.048
46752.336
46972.203
46974.267
47105.251
46618.43
46636.999
46632.747
46674.753
46701.818
46656.359
46775.358
46888.03
46734.598
46788.465
47205.825
47306.904
46840.971
46463.73
46383.983
46567.394
46752.765
46972.503
46974.37
47105.313
46603.393
46617.582
46636.207
46632.018
46674.363
46701.231
46655.887
46775.509
46887.675
46733.738
46789.083
47207.08
47306.166
46839.436
46462.723
46383.764
46567.748
46753.2
46972.804
46974.475
46602.383
46616.728
46635.41
46631.287
46673.975
46700.639
46655.416
46775.665
46887.315
46732.874
46789.723
47208.344
47305.411
46837.886
46461.703
46383.55
46568.109
46753.641
46973.107
46974.581
46592.818
46601.365
46615.87
46634.606
46630.553
46673.587
46700.041
46654.948
46775.827
46886.948
46732.005
46790.385
47209.618
47304.639
46836.32
46460.671
46383.341
46568.478
46754.088
46973.412
46974.689
46591.693
46600.341
46615.007
46633.796
46629.817
46673.2
46699.437
46654.481
46775.994
46886.576
46731.133
46791.07
47210.902
47303.85
46834.74
46459.626
46383.137
46568.854
46754.541
46973.718
46974.798
46576.917
46590.561
46599.31
46614.139
46632.98
46629.078
46672.815
46698.827
46654.016
46776.167
46886.196
46730.256
46791.777
47212.195
47303.045
46833.144
46458.569
46382.938
46569.237
46754.999
46974.026
46974.908
46567.816
46575.568
46589.424
46598.272
46613.266
46632.159
46628.338
46672.431
46698.211
46653.554
46776.345
46885.808
46729.377
46792.506
47213.497
47302.223
46831.534
46457.499
46382.745
46569.628
46755.464
46974.336
46975.019
46566.185
46574.215
46588.28
46597.227
46612.389
46631.331
46627.595
46672.048
46697.59
46653.094
46776.529
46885.413
46728.496
46793.258
47214.809
47301.384
46829.908
46456.418
46382.556
46570.026
46755.934
46974.647
46559.243
46564.549
46572.858
46587.131
46596.177
46611.507
46630.498
46626.851
46671.666
46696.964
46652.637
46776.718
46885.009
46727.613
46794.033
47216.129
47300.527
46828.268
46455.325
46382.373
46570.432
46756.41
46974.959
46557.302
46562.907
46571.496
46585.976
46595.119
46610.621
46629.659
46626.105
46671.287
46696.331
46652.183
46776.914
46884.596
46726.728
46794.83
47217.458
47299.653
46826.612
46454.221
46382.195
46570.845
46756.892
46975.274
46552.586
46555.354
46561.261
46570.13
46584.814
46594.056
46609.73
46628.815
46625.358
46670.908
46695.694
46651.732
46777.115
46884.173
46725.842
46795.65
47218.796
47298.761
46824.94
46453.106
46382.023
46571.265
46757.38
46975.59
46550.38
46550.341
46553.397
46559.611
46568.76
46583.647
46592.985
46608.835
46627.966
46624.609
46670.531
46695.051
46651.284
46777.321
46883.741
46724.956
46796.493
47220.141
47297.852
46823.254
46451.98
46381.856
46571.693
46757.873
46975.907
46547.89
46548.082
46551.433
46557.957
46567.386
46582.473
46591.909
46607.936
46627.111
46623.859
46670.155
46694.402
46650.84
46777.534
46883.297
46724.071
46797.359
47221.495
47296.925
46821.552
46450.844
46381.694
46572.128
46758.371
46547.079
46545.377
46545.81
46549.463
46556.298
46566.009
46581.294
46590.826
46607.033
46626.252
46623.109
46669.781
46693.749
46650.4
46777.752
46882.843
46723.186
46798.247
47222.856
47295.98
46819.836
46449.698
46381.538
46572.57
46758.875
46549.54
46544.319
46542.842
46543.525
46547.488
46554.637
46564.627
46580.108
46589.736
46606.125
46625.387
46622.357
46669.408
46693.09
46649.964
46777.977
46882.377
46722.302
46799.158
47224.224
47295.018
46818.104
46448.543
46381.387
46573.019
46759.385
46555.661
46546.509
46541.529
46540.287
46541.228
46545.506
46552.972
46563.241
46578.916
46588.641
46605.213
46624.518
46621.605
46669.036
46692.426
46649.533
46778.208
46881.898
46721.42
46800.091
47225.599
47294.038
46816.356
46447.379
46381.242
46573.476
46759.9
46563.881
46552.371
46543.441
46538.71
46537.712
46538.921
46543.521
46551.304
46561.851
46577.718
46587.539
46604.297
46623.645
46620.852
46668.666
46691.757
46649.106
46778.445
46881.407
46720.541
46801.047
47226.982
47293.04
46814.592
46446.206
46381.102
46573.94
46760.42
46570.004
46560.454
46549.033
46540.336
46535.863
46535.118
46536.604
46541.531
46549.633
46560.458
46576.514
46586.431
46603.377
46622.766
46620.1
46668.296
46691.083
46648.684
46778.688
46880.902
46719.664
46802.026
47228.371
47292.024
46812.812
46445.025
46380.968
46574.411
46760.946
46570.57
46566.633
46556.967
46545.648
46537.194
46532.989
46532.507
46534.278
46539.538
46547.96
46559.061
46575.304
46585.317
46602.454
46621.884
46619.347
46667.928
46690.404
46648.268
46778.939
46880.383
46718.79
46803.028
47229.766
47290.989
46811.015
46443.837
46380.84
46574.889
46566.891
46567.325
46563.196
46553.422
46542.216
46534.017
46530.09
46529.88
46531.944
46537.541
46546.285
46557.66
46574.087
46584.197
46601.526
46620.998
46618.594
46667.562
46689.72
46647.856
46779.195
46879.85
46717.92
46804.052
47231.168
47289.937
46809.201
46442.642
46380.718
46575.374
46563.294
46563.606
46564.02
46559.693
46549.817
46538.739
46530.806
46527.166
46527.238
46529.603
46535.542
46544.607
46556.255
46572.865
46583.071
46600.595
46620.107
46617.842
46667.196
46689.031
46647.451
46779.459
46879.303
46717.054
46805.099
47232.576
47288.867
46807.37
46441.44
46380.602
46575.867
46562.632
46559.721
46560.275
46560.654
46556.123
46546.154
46535.217
46527.562
46524.218
46524.581
46527.255
46533.54
46542.926
46554.845
46571.635
46581.939
46599.66
46619.213
46617.09
46666.831
46688.338
46647.051
46779.729
46878.74
46716.193
46806.168
47233.99
47287.779
46805.521
46440.233
46380.491
46576.367
46574.049
46564.984
46558.625
46556.113
46556.896
46557.224
46552.484
46542.433
46531.651
46524.286
46521.249
46521.911
46524.902
46531.537
46541.244
46553.432
46570.4
46580.801
46598.722
46618.315
46616.339
46666.468
46687.64
46646.657
46780.005
46878.162
46715.335
46807.258
47235.41
47286.674
46803.654
46439.021
46380.387
46576.874
46579.563
46569.239
46560.53
46554.587
46552.47
46553.469
46553.73
46548.777
46538.654
46528.042
46520.979
46518.259
46519.23
46522.543
46529.532
46539.559
46552.015
46569.158
46579.657
46597.78
46617.414
46615.588
46666.105
46686.938
46646.27
46780.289
46877.568
46714.483
46808.369
47236.835
47285.55
46801.769
46437.804
46380.289
46596.173
46585.165
46574.403
46564.385
46556.041
46550.517
46548.79
46549.992
46550.169
46545.002
46534.818
46524.391
46517.642
46515.249
46516.537
46520.181
46527.525
46537.872
46550.593
46567.909
46578.508
46596.834
46616.509
46614.838
46665.743
46686.232
46645.888
46780.579
46876.959
46713.635
46809.501
47238.268
47284.409
46799.864
46436.583
46380.196
46624.167
46612.737
46601.454
46590.445
46579.687
46569.192
46559.488
46551.517
46546.416
46545.073
46546.462
46546.542
46541.157
46530.926
46520.7
46514.278
46512.22
46513.835
46517.814
46525.518
46536.183
46549.167
46566.654
46577.353
46595.885
46615.601
46614.09
46665.382
46685.521
46645.513
46780.875
46876.334
46712.792
46810.654
47239.706
47283.251
46797.941
46435.358
46380.11
46639.768
46628.63
46617.462
46606.367
46595.401
46584.666
46574.156
46563.931
46554.548
46546.958
46542.283
46541.319
46542.879
46542.845
46537.244
46526.978
46516.97
46510.887
46509.175
46511.123
46515.445
46523.51
46534.492
46547.737
46565.392
46576.192
46594.933
46614.69
46613.343
46665.022
46684.806
46645.145
46781.179
46875.693
46711.955
46811.826
47241.152
47282.075
46795.997
46434.129
46380.031
46671.716
46662.799
46653.209
46643.012
46632.388
46621.563
46610.721
46599.954
46589.302
46578.835
46568.57
46558.619
46549.566
46542.365
46538.119
46537.526
46539.241
46539.078
46533.261
46522.977
46513.202
46507.47
46506.114
46508.404
46513.074
46521.501
46532.798
46546.302
46564.124
46575.026
46593.978
46613.776
46612.597
46664.663
46684.087
46644.784
46781.49
46875.036
46711.123
46813.017
47242.604
47280.882
46794.033
46432.898
46379.957
46698.119
46692.265
46685.897
46679.001
46671.531
46663.436
46654.683
46645.283
46635.318
46624.975
46614.464
46603.944
46593.5
46583.154
46572.952
46562.931
46553.258
46544.544
46537.739
46533.923
46533.693
46535.547
46535.24
46529.209
46518.922
46509.398
46504.03
46503.039
46505.678
46510.701
46519.492
46531.103
46544.863
46562.85
46573.855
46593.02
46612.86
46611.854
46664.305
46683.364
46644.429
46781.808
46874.363
46710.297
46814.227
47244.064
47279.671
46792.048
46431.664
46379.89
46719.458
46717.267
46714.568
46711.405
46707.804
46703.797
46699.366
46694.502
46689.196
46683.419
46677.158
46670.388
46663.055
46655.104
46646.515
46637.31
46627.588
46617.533
46607.336
46597.132
46587.003
46576.958
46567.016
46557.238
46547.849
46539.482
46533.081
46529.696
46529.82
46531.795
46531.33
46525.088
46514.815
46505.559
46500.567
46499.95
46502.946
46508.327
46517.482
46529.405
46543.418
46561.569
46572.678
46592.058
46611.941
46611.112
46663.947
46682.637
46644.082
46782.133
46873.673
46709.477
46815.453
47245.531
47278.444
46790.043
46430.428
46618.521
46617.113
46615.756
46614.504
46613.425
46612.599
46612.121
46612.094
46612.63
46613.837
46615.8
46618.584
46622.22
46626.724
46632.055
46638.113
46644.726
46651.84
46659.36
46666.963
46674.439
46681.716
46688.508
46694.662
46700.062
46704.575
46708.167
46710.805
46712.495
46713.253
46713.139
46712.254
46710.668
46708.45
46705.696
46702.474
46698.824
46694.781
46690.342
46685.5
46680.243
46674.543
46668.385
46661.736
46654.53
46646.719
46638.296
46629.296
46619.826
46610.064
46600.179
46590.285
46580.463
46570.711
46561.025
46551.492
46542.393
46534.381
46528.391
46525.437
46525.904
46527.982
46527.346
46520.899
46510.658
46501.687
46497.083
46496.849
46500.209
46505.951
46515.473
46527.704
46541.97
46560.281
46571.496
46591.094
46611.019
46610.372
46663.59
46681.906
46643.742
46782.465
46872.967
46708.664
46816.697
47247.007
47277.199
46788.018
46429.19
46540.998
46539.687
46538.501
46537.518
46536.831
46536.554
46536.811
46537.731
46539.476
46542.197
46546.035
46551.12
46557.538
46565.288
46574.281
46584.42
46595.381
46607.097
46619.195
46631.367
46643.279
46654.629
46665.171
46674.584
46682.793
46689.731
46695.337
46699.634
46702.674
46704.526
46705.282
46705.062
46704.007
46702.224
46699.818
46696.907
46693.565
46689.831
46685.734
46681.281
46676.461
46671.253
46665.63
46659.574
46653.04
46645.957
46638.284
46630.03
46621.243
46612.035
46602.57
46592.993
46583.402
46573.879
46564.413
46554.98
46545.694
46536.89
46529.243
46523.67
46521.146
46521.946
46524.108
46523.289
46516.642
46506.451
46497.784
46493.579
46493.738
46497.468
46503.576
46513.463
46526.001
46540.516
46558.987
46570.309
46590.127
46610.095
46609.634
46663.233
46681.172
46643.409
46782.805
46872.245
46707.858
46817.955
47248.49
47275.938
46785.971
46427.95
46487.179
46485.847
46484.686
46483.748
46483.124
46482.925
46483.274
46484.336
46486.207
46488.989
46493.032
46498.414
46505.26
46513.709
46523.854
46535.596
46548.695
46562.918
46577.956
46593.325
46608.63
46623.491
46637.434
46650.187
46661.516
46671.289
46679.503
46686.135
46691.247
46694.93
46697.303
46698.478
46698.6
46697.809
46696.248
46694.043
46691.306
46688.15
46684.638
46680.794
46676.635
46672.17
46667.374
46662.218
46656.676
46650.721
46644.298
46637.333
46629.799
46621.72
46613.157
46604.22
46595.054
46585.78
46576.483
46567.25
46558.061
46548.88
46539.843
46531.343
46524.068
46518.919
46516.824
46517.944
46520.171
46519.156
46512.318
46502.197
46493.851
46490.058
46490.617
46494.723
46501.2
46511.453
46524.296
46539.057
46557.686
46569.117
46589.157
46609.169
46608.899
46662.877
46680.434
46643.083
46783.152
46871.507
46707.059
46819.229
47249.98
47274.659
46783.903
46426.709
46488.192
46486.758
46485.422
46484.304
46483.494
46483.105
46483.25
46484.043
46485.599
46488.036
46491.47
46496.035
46501.88
46509.142
46517.925
46528.262
46540.087
46553.219
46567.384
46582.206
46597.238
46612.068
46626.295
46639.507
46651.435
46661.915
46670.817
46678.163
46684.001
46688.385
46691.436
46693.274
46694.029
46693.822
46692.793
46691.063
46688.745
46685.961
46682.799
46679.346
46675.635
46671.673
46667.462
46662.993
46658.229
46653.134
46647.677
46641.823
46635.509
46628.661
46621.268
46613.373
46605.044
46596.383
46587.515
46578.538
46569.528
46560.574
46551.655
46542.724
46533.942
46525.753
46518.859
46514.137
46512.469
46513.897
46516.17
46514.947
46507.927
46497.898
46489.891
46486.52
46487.487
46491.975
46498.825
46509.442
46522.587
46537.593
46556.378
46567.92
46588.184
46608.24
46608.166
46662.522
46679.693
46642.765
46783.507
46870.751
46706.268
46820.517
47251.479
47273.364
46781.814
46425.467
46579.824
46578.874
46577.775
46576.63
46575.594
46574.706
46573.934
46573.323
46572.956
46572.934
46573.379
46574.415
46576.15
46578.674
46582.075
46586.43
46591.801
46598.201
46605.578
46613.816
46622.713
46632.009
46641.398
46650.566
46659.225
46667.131
46674.109
46680.051
46684.892
46688.648
46691.362
46693.076
46693.891
46693.877
46693.108
46691.682
46689.692
46687.23
46684.373
46681.187
46677.766
46674.155
46670.397
46666.493
46662.432
46658.192
46653.737
46649.019
46643.995
46638.631
46632.879
46626.67
46619.94
46612.694
46604.992
46596.907
46588.528
46579.954
46571.267
46562.536
46553.852
46545.194
46536.511
46527.99
46520.121
46513.616
46509.327
46508.081
46509.804
46512.102
46510.662
46503.472
46493.554
46485.904
46482.966
46484.35
46489.226
46496.45
46507.432
46520.876
46536.123
46555.064
46566.718
46587.209
46607.31
46607.436
46662.166
46678.949
46642.455
46783.869
46869.979
46705.486
46821.82
47252.984
47272.052
46779.704
46727.025
46727.243
46727.371
46727.394
46727.301
46727.111
46726.849
46726.581
46726.365
46726.195
46726.011
46725.755
46725.455
46725.142
46724.81
46724.416
46723.927
46723.338
46722.655
46721.905
46721.129
46720.383
46719.711
46719.112
46718.566
46718.024
46717.415
46716.702
46715.831
46714.747
46713.401
46711.773
46709.85
46707.635
46705.129
46702.35
46699.333
46696.069
46692.581
46688.917
46685.115
46681.219
46677.255
46673.243
46669.234
46665.225
46661.209
46657.158
46653.042
46648.809
46644.394
46639.74
46634.801
46629.535
46623.886
46617.783
46611.173
46604.083
46596.586
46588.752
46580.655
46572.37
46563.965
46555.506
46547.081
46538.677
46530.243
46521.99
46514.45
46508.34
46504.487
46503.66
46505.662
46507.965
46506.3
46498.952
46489.169
46481.893
46479.399
46481.207
46486.475
46494.076
46505.421
46519.161
46534.649
46553.744
46565.512
46586.231
46606.378
46606.708
46661.812
46678.202
46642.152
46784.24
46869.19
46704.711
46823.136
47254.498
47270.723
46777.572
46815.457
46815.846
46816.243
46816.646
46817.049
46817.449
46817.842
46818.228
46818.613
46819.023
46819.508
46820.129
46820.924
46821.87
46822.878
46823.854
46824.706
46825.321
46825.553
46825.261
46824.31
46822.586
46820.014
46816.569
46812.268
46807.172
46801.361
46794.937
46788.003
46780.687
46773.127
46765.438
46757.718
46750.054
46742.515
46735.154
46728.008
46721.109
46714.452
46708.033
46701.844
46695.872
46690.105
46684.561
46679.242
46674.155
46669.288
46664.627
46660.174
46655.885
46651.708
46647.591
46643.486
46639.304
46634.961
46630.392
46625.551
46620.389
46614.845
46608.849
46602.366
46595.441
46588.159
46580.583
46572.764
46564.762
46556.631
46548.437
46540.262
46532.103
46523.919
46515.942
46508.74
46503.034
46499.62
46499.206
46501.471
46503.76
46501.861
46494.369
46484.743
46477.859
46475.82
46478.059
46483.723
46491.703
46503.41
46517.443
46533.169
46552.417
46564.301
46585.251
46605.445
46605.984
46661.457
46677.451
46641.857
46784.62
46868.384
46703.946
46824.465
47256.018
47269.378
46775.419
46840.078
46840.163
46840.259
46840.367
46840.489
46840.624
46840.776
46840.945
46841.134
46841.345
46841.579
46841.84
46842.131
46842.454
46842.815
46843.217
46843.667
46844.173
46844.748
46845.411
46846.179
46847.062
46848.035
46849.041
46850.031
46850.951
46851.714
46852.201
46852.28
46851.807
46850.637
46848.638
46845.699
46841.737
46836.709
46830.615
46823.5
46815.445
46806.565
46797.003
46786.947
46776.583
46766.097
46755.646
46745.376
46735.407
46725.818
46716.656
46707.949
46699.694
46691.927
46684.629
46677.814
46671.477
46665.608
46660.172
46655.132
46650.453
46646.054
46641.852
46637.778
46633.758
46629.677
46625.439
46620.978
46616.247
46611.196
46605.757
46599.871
46593.523
46586.776
46579.718
46572.401
46564.856
46557.126
46549.265
46541.328
46533.394
46525.472
46517.539
46509.848
46502.994
46497.698
46494.726
46494.718
46497.23
46499.483
46497.345
46489.725
46480.279
46473.805
46472.23
46474.906
46480.971
46489.331
46501.398
46515.722
46531.684
46551.084
46563.086
46584.269
46604.51
46605.262
46661.103
46676.699
46641.571
46785.008
46867.56
46703.19
46825.808
47257.544
47268.015
46773.243
46842.835
46842.833
46842.83
46842.828
46842.825
46842.822
46842.818
46842.814
46842.809
46842.804
46842.797
46842.789
46842.78
46842.769
46842.758
46842.746
46842.733
46842.719
46842.705
46842.69
46842.675
46842.66
46842.645
46842.63
46842.615
46842.6
46842.586
46842.572
46842.56
46842.549
46842.54
46842.533
46842.531
46842.534
46842.543
46842.56
46842.587
46842.626
46842.68
46842.753
46842.848
46842.968
46843.117
46843.298
46843.509
46843.743
46843.99
46844.244
46844.497
46844.734
46844.932
46845.059
46845.102
46844.984
46844.628
46843.943
46842.811
46841.099
46838.684
46835.451
46831.299
46826.159
46819.996
46812.811
46804.654
46795.617
46785.834
46775.456
46764.679
46753.699
46742.704
46731.861
46721.308
46711.154
46701.451
46692.256
46683.669
46675.674
46668.287
46661.52
46655.358
46649.755
46644.663
46640.016
46635.708
46631.643
46627.727
46623.868
46619.938
46615.837
46611.503
46606.894
46601.957
46596.625
46590.854
46584.652
46578.095
46571.268
46564.208
46556.927
46549.462
46541.865
46534.178
46526.475
46518.785
46511.105
46503.71
46497.214
46492.335
46489.804
46490.196
46492.936
46495.133
46492.752
46485.021
46475.779
46469.733
46468.63
46471.751
46478.219
46486.961
46499.385
46513.997
46530.193
46549.744
46561.867
46583.285
46603.573
46604.544
46660.749
46675.943
46641.292
46785.405
46866.719
46702.443
46827.164
47259.077
47266.637
46771.046
46825.905
46825.898
46825.891
46825.884
46825.876
46825.868
46825.859
46825.848
46825.837
46825.824
46825.809
46825.792
46825.772
46825.749
46825.723
46825.695
46825.665
46825.631
46825.595
46825.556
46825.514
46825.468
46825.419
46825.366
46825.309
46825.248
46825.183
46825.113
46825.039
46824.96
46824.877
46824.79
46824.699
46824.604
46824.507
46824.408
46824.309
46824.211
46824.117
46824.028
46823.948
46823.879
46823.822
46823.776
46823.731
46823.674
46823.592
46823.485
46823.36
46823.212
46823.03
46822.793
46822.469
46822.025
46821.401
46820.532
46819.365
46817.771
46815.65
46812.896
46809.404
46805.095
46799.903
46793.766
46786.677
46778.683
46769.89
46760.416
46750.405
46740.038
46729.498
46718.953
46708.572
46698.497
46688.835
46679.676
46671.135
46663.216
46655.941
46649.339
46643.392
46638.042
46633.24
46628.894
46624.89
46621.118
46617.47
46613.84
46610.105
46606.168
46601.979
46597.498
46592.676
46587.454
46581.806
46575.761
46569.405
46562.813
46556.002
46548.975
46541.768
46534.428
46526.986
46519.506
46512.041
46504.619
46497.529
46491.401
46486.944
46484.856
46485.638
46488.589
46490.71
46488.083
46480.259
46471.246
46465.643
46465.023
46468.593
46475.468
46484.591
46497.372
46512.269
46528.697
46548.398
46560.643
46582.299
46602.636
46603.83
46660.395
46675.186
46641.022
46785.811
46865.862
46701.706
46828.534
47260.615
47265.241
46768.826
46799.214
46799.203
46799.194
46799.185
46799.174
46799.163
46799.15
46799.136
46799.121
46799.104
46799.084
46799.061
46799.035
46799.006
46798.973
46798.937
46798.897
46798.854
46798.806
46798.754
46798.698
46798.637
46798.571
46798.499
46798.421
46798.337
46798.246
46798.148
46798.043
46797.93
46797.809
46797.68
46797.543
46797.398
46797.246
46797.086
46796.92
46796.749
46796.575
46796.398
46796.221
46796.046
46795.872
46795.696
46795.508
46795.293
46795.042
46794.757
46794.446
46794.107
46793.731
46793.3
46792.789
46792.161
46791.367
46790.349
46789.048
46787.404
46785.327
46782.706
46779.437
46775.519
46770.889
46765.389
46759.065
46751.988
46744.18
46735.734
46726.768
46717.453
46707.926
46698.346
46688.886
46679.694
46670.861
46662.499
46654.728
46647.557
46641.017
46635.135
46629.882
46625.187
46620.994
46617.201
46613.693
46610.351
46607.058
46603.713
46600.204
46596.452
46592.416
46588.067
46583.361
46578.251
46572.734
46566.859
46560.711
46554.352
46547.782
46540.997
46534.04
46526.953
46519.75
46512.487
46505.243
46498.081
46491.308
46485.559
46481.529
46479.882
46481.044
46484.186
46486.211
46483.336
46475.441
46466.68
46461.539
46461.408
46465.433
46472.718
46482.223
46495.358
46510.536
46527.195
46547.045
46559.415
46581.311
46601.697
46603.118
46660.04
46674.426
46640.76
46786.227
46864.986
46700.98
46829.917
47262.159
47263.829
46765.438
46765.425
46765.415
46765.403
46765.39
46765.377
46765.362
46765.345
46765.327
46765.307
46765.284
46765.258
46765.228
46765.195
46765.158
46765.117
46765.071
46765.022
46764.968
46764.909
46764.845
46764.776
46764.7
46764.617
46764.528
46764.431
46764.327
46764.214
46764.092
46763.961
46763.821
46763.671
46763.511
46763.34
46763.16
46762.97
46762.771
46762.563
46762.348
46762.127
46761.9
46761.669
46761.433
46761.188
46760.926
46760.631
46760.294
46759.912
46759.49
46759.026
46758.512
46757.933
46757.267
46756.483
46755.541
46754.392
46752.979
46751.236
46749.095
46746.485
46743.34
46739.603
46735.229
46730.195
46724.502
46718.163
46711.239
46703.812
46695.999
46687.947
46679.65
46671.488
46663.496
46655.78
46648.394
46641.459
46635.081
46629.243
46623.984
46619.305
46615.163
46611.466
46608.155
46605.123
46602.257
46599.442
46596.564
46593.535
46590.27
46586.71
46582.829
46578.611
46574.018
46569.024
46563.647
46557.951
46552.017
46545.886
46539.543
46532.991
46526.277
46519.438
46512.469
46505.416
46498.391
46491.494
46485.048
46479.688
46476.09
46474.881
46476.413
46479.726
46481.635
46478.514
46470.569
46462.086
46457.42
46457.788
46462.272
46469.969
46479.856
46493.343
46508.8
46525.687
46545.687
46558.184
46580.321
46600.758
46602.41
46659.686
46673.664
46640.506
46786.653
46864.094
46700.263
46831.313
47263.707
47262.4
46725.06
46725.045
46725.033
46725.019
46725.004
46724.987
46724.969
46724.95
46724.928
46724.904
46724.877
46724.847
46724.813
46724.774
46724.731
46724.684
46724.633
46724.576
46724.515
46724.448
46724.375
46724.295
46724.209
46724.115
46724.014
46723.904
46723.785
46723.657
46723.519
46723.371
46723.212
46723.042
46722.86
46722.666
46722.461
46722.243
46722.014
46721.774
46721.523
46721.263
46720.995
46720.718
46720.433
46720.136
46719.818
46719.466
46719.063
46718.599
46718.071
46717.479
46716.817
46716.074
46715.228
46714.255
46713.123
46711.792
46710.216
46708.343
46706.117
46703.487
46700.407
46696.846
46692.782
46688.212
46683.149
46677.631
46671.722
46665.509
46659.085
46652.557
46646.045
46639.689
46633.569
46627.799
46622.415
46617.472
46613.016
46609.019
46605.496
46602.411
46599.699
46597.263
46595.028
46592.891
46590.754
46588.512
46586.068
46583.362
46580.339
46576.965
46573.234
46569.139
46564.657
46559.783
46554.555
46549.044
46543.324
46537.41
46531.282
46524.954
46518.478
46511.881
46505.14
46498.295
46491.487
46484.86
46478.753
46473.79
46470.628
46469.855
46471.743
46475.206
46476.981
46473.616
46465.644
46457.464
46453.29
46454.163
46459.112
46467.222
46477.49
46491.326
46507.059
46524.173
46544.322
46556.949
46579.329
46599.817
46601.706
46659.332
46672.901
46640.261
46787.089
46863.184
46699.558
46832.723
47265.259
47260.955
46676.592
46676.574
46676.559
46676.542
46676.524
46676.505
46676.484
46676.461
46676.435
46676.407
46676.375
46676.339
46676.299
46676.255
46676.205
46676.15
46676.091
46676.025
46675.953
46675.875
46675.79
46675.697
46675.596
46675.487
46675.368
46675.239
46675.1
46674.951
46674.79
46674.617