/*--------------------------------*- C++ -*----------------------------------*\
| =========                 |                                                 |
| \\      /  F ield         | OpenFOAM: The Open Source CFD Toolbox           |
|  \\    /   O peration     | Version:  2506                                  |
|   \\  /    A nd           | Website:  www.openfoam.com                      |
|    \\/     M anipulation  |                                                 |
\*---------------------------------------------------------------------------*/
FoamFile
{
    version     2.0;
    format      ascii;
    arch        "LSB;label=32;scalar=64";
    class       volScalarField;
    location    "1.55";
    object      k;
}
// * * * * * * * * * * * * * * * * * * * * * * * * * * * * * * * * * * * * * //

dimensions      [0 2 -2 0 0 0 0];

internalField   nonuniform List<scalar> 
1376
(
2.3750356
2.7170014
3.0710099
3.3528677
2.3583614
2.7000962
3.0523228
3.3319941
3.5485129
3.707576
3.81426
3.876891
3.9062232
3.9144545
2.3412232
2.6837666
3.0350159
3.312814
3.5265003
3.6821727
3.7854918
3.8452454
3.8725557
3.8798558
3.8758519
3.862657
3.849956
3.8401575
3.8342773
2.322978
2.6669118
3.0178028
3.294052
3.5050463
3.65736
3.7572925
3.8141484
3.8394457
3.845816
3.8408691
3.8279772
3.815968
3.8070648
3.8020209
3.8001859
3.7999998
3.8021344
3.8068099
2.3037857
2.6493623
3.0001707
3.2750555
3.4835088
3.6325892
3.7292374
3.7832983
3.8066807
3.8121669
3.8063474
3.7938075
3.7825056
3.7744772
3.7702202
3.7688751
3.7689619
3.7717453
3.7767564
3.7830993
3.7904955
3.7987784
3.8078383
2.2843848
2.6317336
2.9823951
3.2559007
3.4618666
3.6077997
3.7012638
3.7526475
3.7742231
3.7788802
3.7722994
3.7601662
3.7495888
3.7424109
3.738875
3.7379029
3.7383846
3.7417664
3.7470809
3.75362
3.7611494
3.7695214
3.7786396
3.7884504
3.7989385
3.8101204
3.8220376
2.2656778
2.6150081
2.9652575
3.2371997
3.4405843
3.5833286
3.6736093
3.7223583
3.7421801
3.7460398
3.7387909
3.7271096
3.7172653
3.7108988
3.707998
3.7073157
3.7082969
3.7121984
3.7177874
3.7245116
3.7321649
3.7406158
3.7497829
3.7596243
3.770129
3.7813135
3.7932206
3.8059127
3.8194683
3.8339797
2.2482235
2.5998651
2.9494504
3.2196061
3.420224
3.5596223
3.6466064
3.6926623
3.7107051
3.7137634
3.7058958
3.6946918
3.6855769
3.6799673
3.6776145
3.6771735
3.6787097
3.6830432
3.6888745
3.6957686
3.7035365
3.7120588
3.7212658
3.7311249
3.7416325
3.7528125
3.7647082
3.7773789
3.7909014
3.8053681
3.8208884
3.8375884
3.8556193
2.2319403
2.5861845
2.9350384
3.2033039
3.4010128
3.5369028
3.6204461
3.6637029
3.6798955
3.6821278
3.6736589
3.6629361
3.6545336
3.6496189
3.6477439
3.6475215
3.6496257
3.6543058
3.6603404
3.6673801
3.6752472
3.6838307
3.6930702
3.702942
3.7134496
3.724619
3.7364937
3.7491352
3.7626209
3.7770422
3.7925043
3.8091313
3.827074
3.8465152
3.8676681
2.2162197
2.5730982
2.9213545
3.1878119
3.3826272
3.514977
3.5950304
3.6354374
3.6497351
3.6511307
3.6420836
3.6318293
3.6241102
3.6198336
3.6183903
3.6183655
3.6210339
3.6259864
3.6321847
3.6393412
3.6472885
3.6559217
3.6651865
3.6750649
3.685566
3.6967194
3.7085717
3.7211832
3.7346287
3.7489966
3.7643924
3.7809427
3.7987947
3.8181244
3.8391456
3.862109
3.8873074
3.9150912
2.2003176
2.5595062
2.9074047
3.1722751
3.3643752
3.4933323
3.5700139
3.6076501
3.6200903
3.6206954
3.6111308
3.6013303
3.5942673
3.5905833
3.5894757
3.5897258
3.5929068
3.5980753
3.6044042
3.6116508
3.6196584
3.6283286
3.6376113
3.6474922
3.6579835
3.6691171
3.6809414
3.6935165
3.7069168
3.7212293
3.7365574
3.7530234
3.7707754
3.7899887
3.8108712
3.8336687
3.8586739
3.8862388
3.916788
3.9508517
2.1836571
2.5444359
2.8921965
3.1557673
3.3454554
3.4713351
3.5449386
3.5800369
3.5908006
3.5906829
3.5807374
3.5713889
3.564957
3.56181
3.5609628
3.561584
3.5652086
3.570555
3.5769902
3.5843054
3.5923559
3.601051
3.6103442
3.6202231
3.6307011
3.6418109
3.6536014
3.6661344
3.6794837
3.6937355
3.7089913
3.7253709
3.7430189
3.7621082
3.7828441
3.8054686
3.8302682
3.8575942
3.8878702
3.9216193
3.959514
4.0024193
2.1660581
2.5273812
2.8750788
3.1376094
3.3252401
3.4484595
3.5193946
3.5522982
3.5617842
3.5609305
3.5508429
3.541965
3.5361386
3.5334694
3.5328378
3.5339056
3.5379055
3.5434062
3.549933
3.557302
3.5653822
3.5740911
3.5833861
3.5932558
3.6037142
3.614795
3.6265468
3.6390315
3.6523229
3.6665081
3.681687
3.6979767
3.7155179
3.7344769
3.755057
3.7774986
3.8020862
3.8291623
3.8591462
3.8925654
3.9300795
3.9725401
4.0210044
2.1478
2.508495
2.8559621
3.1175805
3.3034645
3.424447
3.493164
3.5242976
3.5328732
3.5314028
3.5214035
3.5130312
3.5077834
3.5055392
3.5051008
3.5066601
3.5109729
3.5166121
3.5232209
3.5306336
3.538732
3.5474435
3.5567311
3.5665851
3.5770182
3.5880627
3.5997673
3.6121956
3.625423
3.6395357
3.6546314
3.6708252
3.6882546
3.7070808
3.7275005
3.7497536
3.7741209
3.8009398
3.8306274
3.8636982
3.9008121
3.9428063
3.9907057
4.0456322
4.1085646
2.129421
2.4884571
2.8353086
3.0959632
3.2802848
3.3993656
3.4662666
3.4960368
3.5039868
3.5021174
3.4923965
3.4845698
3.4798733
3.4780125
3.4777593
3.4798233
3.4843926
3.4901564
3.4968397
3.504289
3.5123973
3.521101
3.5303692
3.5401952
3.5505932
3.5615953
3.5732485
3.5856144
3.5987685
3.6127986
3.6278043
3.6438984
3.6612128
3.6799038
3.7001629
3.7222225
3.7463662
3.7729252
3.8023059
3.8350176
3.8717124
3.9132183
3.9605306
4.0147038
4.0766307
4.1477105
2.1114605
2.4681456
2.8138892
3.0733764
3.2561681
3.373543
3.4389179
3.4676381
3.47516
3.4731212
3.4638182
3.4565681
3.452397
3.4508968
3.4508182
3.4533804
3.4581562
3.4640284
3.4707752
3.4782514
3.4863598
3.4950456
3.5042848
3.5140749
3.5244304
3.5353813
3.5469742
3.5592713
3.5723485
3.5862913
3.6011981
3.6171819
3.634374
3.6529283
3.6730289
3.6949004
3.7188163
3.7451076
3.7741778
3.8065215
3.8427832
3.8837791
3.9304736
3.983861
4.0447526
4.1145308
4.201483
4.3639174
2.0943103
2.4483775
2.7925572
3.0505911
3.2317477
3.3474579
3.4114515
3.439306
3.4465152
3.444479
3.4356792
3.4290218
3.4253559
3.4241659
3.4242975
3.4273199
3.4322594
3.438222
3.4450188
3.4525112
3.4606102
3.469268
3.4784671
3.4882097
3.4985129
3.5094076
3.5209383
3.5331643
3.5461585
3.5600069
3.574809
3.5906778
3.6077418
3.6261521
3.6460886
3.66777
3.6914611
3.7174849
3.746234
3.7782032
3.8140238
3.8544884
3.9005384
3.9531082
4.0129356
4.0814129
4.1671429
4.3299698
5.25541
2.0782031
2.42978
2.7720851
3.0283737
3.2076934
3.3216402
3.3842458
3.4112818
3.4182168
3.4162613
3.4079976
3.4019292
3.398738
3.397793
3.3982102
3.401628
3.4066981
3.4127339
3.4195664
3.4270637
3.4351436
3.4437646
3.4529147
3.4626013
3.472845
3.4836766
3.4951376
3.5072847
3.5201915
3.5339455
3.5486422
3.564391
3.5813199
3.599579
3.6193452
3.6408302
3.6642908
3.6900405
3.7184656
3.7500546
3.7854233
3.8253489
3.8707319
3.9224528
3.9811931
4.0483686
4.1329203
4.2963013
5.2408844
2.0633193
2.4128863
2.7531869
3.0074631
3.1846656
3.2966184
3.3576778
3.3838059
3.3904331
3.3885288
3.3807865
3.3752801
3.3725194
3.3717732
3.3725431
3.3762871
3.3814625
3.3875556
3.3944107
3.4019035
3.4099579
3.4185371
3.4276325
3.4372546
3.4474277
3.4581855
3.4695708
3.4816374
3.4944557
3.5081097
3.5226917
3.5383138
3.5551037
3.5732067
3.5927949
3.6140743
3.637296
3.6627671
3.6908648
3.7220642
3.7569739
3.7963516
3.8410544
3.8919071
3.9495437
4.0154134
4.0987959
4.2628096
5.2275889
2.0498208
2.3981234
2.7364358
2.9884577
3.1632045
3.2728286
3.3320591
3.3570808
3.363309
3.3613226
3.3540516
3.3490579
3.3466765
3.346101
3.3472692
3.3512778
3.3565411
3.3626788
3.3695447
3.3770228
3.3850437
3.393575
3.4026107
3.4121639
3.422261
3.4329385
3.4442407
3.4562222
3.4689485
3.4824952
3.4969627
3.5124561
3.5290959
3.547029
3.5664274
3.5874942
3.6104726
3.6356585
3.6634231
3.6942343
3.7286819
3.7675001
3.811514
3.8614886
3.9180105
3.9825661
4.0647588
4.2294205
5.2155465
2.0377979
2.3857116
2.7221495
2.9716971
3.1436206
3.2505214
3.3075687
3.3312277
3.3369334
3.3346584
3.327794
3.3232486
3.3211957
3.3207753
3.3223623
3.3265834
3.3319211
3.3380931
3.3449604
3.3524163
3.3603982
3.3688771
3.3778487
3.3873274
3.3973421
3.407932
3.4191438
3.4310324
3.4436586
3.4571003
3.4714463
3.4868011
3.50329
3.5210531
3.5402577
3.5611013
3.5838228
3.6087156
3.6361435
3.6665609
3.7005432
3.7388026
3.7821216
3.8312115
3.8866088
3.9498376
4.0308104
4.1960983
5.204506
2.0272144
2.3755726
2.7102876
2.9571744
3.1259261
3.2297099
3.2842157
3.3062551
3.3113076
3.3085211
3.3019989
3.2978357
3.2960682
3.2957945
3.2978005
3.3021915
3.3075928
3.3137899
3.3206501
3.3280762
3.3360134
3.344436
3.3533411
3.3627434
3.3726724
3.3831688
3.3942818
3.4060669
3.4185858
3.4319127
3.4461342
3.4613535
3.477689
3.4952774
3.5142823
3.5348987
3.5573605
3.5819531
3.6090318
3.6390479
3.6725632
3.7102578
3.7528769
3.8010784
3.8553426
3.9172365
3.9969722
4.1628523
5.1939822
2.0179004
2.3673528
2.7004743
2.9445538
3.1098437
3.2101768
3.2618444
3.2820565
3.2863423
3.2828701
3.2766348
3.2727969
3.2712842
3.2711547
3.2735667
3.278094
3.2835494
3.2897637
3.2966093
3.3039986
3.3118839
3.3202444
3.3290789
3.3384029
3.3482453
3.3586467
3.3696566
3.3813317
3.3937352
3.4069405
3.4210332
3.4361115
3.4522894
3.4697003
3.4885031
3.5088877
3.5310825
3.5553689
3.5820971
3.6117043
3.6447406
3.6818649
3.7237772
3.7710783
3.8242069
3.8847653
3.9632709
4.1297708
5.1843514
2.0095081
2.3603748
2.6919943
2.9331826
3.0948271
3.1915003
3.2401588
3.2584329
3.2618868
3.2576545
3.251665
3.2481137
3.2468436
3.2468466
3.2496482
3.2542835
3.2597841
3.266009
3.2728351
3.2801825
3.2880106
3.2963028
3.3050609
3.3143013
3.3240533
3.3343569
3.3452613
3.356823
3.3691057
3.3821821
3.3961366
3.4110659
3.427081
3.4443111
3.4629092
3.4830596
3.5049854
3.5289614
3.55533
3.5845233
3.6170773
3.6536205
3.6948136
3.7412025
3.7931881
3.8524148
3.9297288
4.0970162
5.176466
2.0016499
2.35388
2.6840347
2.9222981
3.0802289
3.1731811
3.218811
3.2351516
3.2377741
3.2328199
3.2270606
3.2237826
3.2227072
3.2228911
3.226038
3.2307571
3.2362931
3.2425205
3.2493211
3.2566221
3.2643885
3.2726085
3.2812863
3.2904394
3.3000975
3.3103
3.3210947
3.3325373
3.3446917
3.3576301
3.3714365
3.386207
3.4020505
3.4190923
3.4374805
3.4573933
3.479048
3.5027137
3.5287263
3.5575037
3.5895649
3.625521
3.6659883
3.7114483
3.7622715
3.8201735
3.8963526
4.0647258
5.1702904
1.994097
2.3473477
2.6759761
2.9112884
3.065516
3.1548058
3.1975123
3.2120211
3.2138736
3.2083227
3.202802
3.1997911
3.1988729
3.199293
3.2027314
3.2075129
3.2130727
3.2192933
3.2260615
3.2333105
3.2410099
3.2491522
3.2577449
3.2668069
3.2763675
3.2864651
3.2971465
3.3084662
3.3204871
3.3332812
3.3469312
3.3615325
3.3771931
3.3940364
3.4122071
3.431877
3.4532584
3.4766144
3.5022681
3.5306265
3.5621989
3.5975636
3.637283
3.6817937
3.7314422
3.788034
3.8631441
4.0329236
5.1650803
1.9866749
2.3404392
2.6674005
2.899748
3.0503443
3.1361197
3.1760944
3.1889384
3.1901234
3.184144
3.178883
3.1761336
3.1753501
3.1760538
3.1797268
3.1845512
3.1901216
3.1963244
3.2030515
3.2102417
3.2178682
3.2259269
3.2344284
3.2433934
3.2528514
3.2628402
3.2734045
3.2845974
3.2964804
3.3091244
3.3226113
3.3370355
3.3525038
3.3691389
3.3870838
3.4065065
3.4276104
3.4506484
3.4759403
3.5038865
3.5349728
3.5697359
3.6086974
3.6522449
3.7007075
3.7559913
3.8300964
4.0015746
5.1608826
1.9791594
2.3329022
2.6580585
2.8874791
3.034583
3.1170541
3.1545307
3.1659022
3.1665313
3.1602897
3.1553076
3.1528102
3.1521495
3.1531681
3.1570203
3.1618699
3.1674371
3.1736098
3.1802862
3.1874099
3.1949575
3.2029275
3.2113329
3.2201965
3.2295477
3.239423
3.2498663
3.260928
3.272668
3.2851559
3.2984733
3.3127136
3.327982
3.3443987
3.3621052
3.3812678
3.4020886
3.4248148
3.4497528
3.4772847
3.5078722
3.5420279
3.5802314
3.6228034
3.6700742
3.7240548
3.7972114
3.9706178
5.1559949
1.9713822
2.3247245
2.6479843
2.8745554
3.0183323
3.0977187
3.132916
3.1429773
3.1431619
3.1367806
3.132083
3.1298234
3.1292785
3.1306233
3.1346048
3.1394645
3.1450146
3.151145
3.1577603
3.1648093
3.1722717
3.1801479
3.1884526
3.1972095
3.206449
3.2162072
3.2265258
3.2374539
3.249049
3.2613788
3.2745225
3.2885718
3.3036319
3.3198222
3.3372818
3.3561754
3.3767012
3.3991012
3.4236753
3.4507911
3.4808878
3.5144477
3.5518929
3.5934874
3.6395529
3.6922432
3.7645108
3.9400048
5.139286
3.0782835
3.1113671
3.1202947
3.1200572
3.1136329
3.1092105
3.1071709
3.1067376
3.1084041
3.1124741
3.117331
3.1228524
3.1289296
3.1354744
3.1424409
3.1498118
3.1575889
3.1657875
3.1744319
3.183553
3.1931867
3.2033742
3.214163
3.2256089
3.2377776
3.2507461
3.2646044
3.2794552
3.2954163
3.3126248
3.3312427
3.3514663
3.3735329
3.397734
3.4244248
3.4540244
3.4869805
3.5236676
3.56429
3.6091534
3.6605766
3.732006
3.9099899
5.1535113
3.0848411
3.0845159
3.086488
3.090614
3.0954591
3.100944
3.1069611
3.1134293
3.1203079
3.1275826
3.1352564
3.1433447
3.1518717
3.1608682
3.1703703
3.1804187
3.1910604
3.2023507
3.2143534
3.2271434
3.2408077
3.2554473
3.2711777
3.2881331
3.3064735
3.3263916
3.3481189
3.3719393
3.3982005
3.4272974
3.4596341
3.4955465
3.5352031
3.578888
3.6290791
3.6997482
3.8807319
5.1703861
3.0792786
3.0852306
3.0916177
3.0984044
3.1055789
3.1131453
3.121119
3.1295241
3.1383913
3.1477567
3.1576612
3.1681514
3.1792814
3.191114
3.2037228
3.217192
3.2316186
3.247116
3.2638157
3.2818743
3.3014811
3.3228635
3.3462986
3.3721198
3.4007028
3.432423
3.4675645
3.5062484
3.5487684
3.5977694
3.6678202
3.8521948
5.1642015
3.0837995
3.0912545
3.0991093
3.1073874
3.116119
3.1253403
3.1350931
3.1454248
3.1563896
3.1680495
3.1804757
3.1937497
3.207965
3.2232293
3.239673
3.2574507
3.2767463
3.2977795
3.3208187
3.3461887
3.3742538
3.4053552
3.4397158
3.4774231
3.5188066
3.5666719
3.6362585
3.8245879
5.1452739
3.1031315
3.1127271
3.1228928
3.133683
3.1451593
3.1573919
3.1704612
3.1844608
3.1994971
3.2156915
3.2331903
3.2521719
3.2728536
3.2955003
3.3204228
3.34796
3.3784204
3.411989
3.4487188
3.4889774
3.5357705
3.6050325
3.7986163
5.2015166
3.1224565
3.1344871
3.1473458
3.1611228
3.1759193
3.1918534
3.2090679
3.2277365
3.2480698
3.2703242
3.294798
3.3218062
3.3516234
3.3843926
3.4201382
3.4592642
3.5050288
3.5741727
3.773988
5.2487978
3.1524888
3.168159
3.1850903
3.2034403
3.2234166
3.2452706
3.2692901
3.2957666
3.3249338
3.3568936
3.391654
3.4296792
3.4744711
3.5437188
3.7500549
5.2330629
3.1792642
3.1988903
3.2203497
3.2439095
3.2698413
3.2983419
3.3294846
3.3632663
3.4002262
3.4441135
3.513581
3.7272765
5.2595238
3.2186413
3.2440309
3.2718718
3.3021932
3.3349911
3.370887
3.4139225
3.4836857
3.7061517
5.3568124
3.2749895
3.3068095
3.3416665
3.3839207
3.4541627
3.6862293
5.3888546
3.3541002
3.4250251
3.6672893
5.3969172
3.6496492
5.4476663
2.3918228
)
;

boundaryField
{
    Side
    {
        type            empty;
    }
    Inlet
    {
        type            turbulentIntensityKineticEnergyInlet;
        intensity       0.03;
        value           nonuniform List<scalar> 
25
(
12.003204
12.003343
12.003575
12.00386
12.004119
12.004364
12.00462
12.004877
12.005136
12.005425
12.005772
12.006182
12.006605
12.007007
12.007524
12.008259
12.009021
12.009832
12.010826
12.01141
12.011586
12.011442
12.011194
12.011121
12.010946
)
;
    }
    Airfoil
    {
        type            kqRWallFunction;
        value           nonuniform List<scalar> 0();
    }
    Outlet
    {
        type            inletOutlet;
        inletValue      nonuniform List<scalar> 0();
        value           nonuniform List<scalar> 0();
    }
    procBoundary12to4
    {
        type            processor;
        value           uniform 2.4092438;
    }
    procBoundary12to5
    {
        type            processor;
        value           nonuniform List<scalar> 
30
(
2.3743894
2.3563004
2.3372877
2.3172673
2.2963336
2.2747607
2.2529923
2.2316115
2.2112208
2.1922744
2.1749941
2.1593489
2.1450472
2.1317051
2.1189197
2.1063518
2.0937715
2.0810677
2.0682173
2.0553177
2.0425324
2.0300306
2.0180692
2.0070067
1.9970518
1.9881837
1.9802034
1.972612
2.7462478
2.3743894
)
;
    }
    procBoundary12to6
    {
        type            processor;
        value           uniform 1.9632101;
    }
    procBoundary12to11
    {
        type            processor;
        value           nonuniform List<scalar> 
65
(
2.3925894
2.736148
3.0926192
3.3767429
3.5721951
3.5721951
3.7344473
3.844247
3.9095406
3.9407672
3.9498702
3.9113658
3.9113658
3.8978957
3.8845068
3.8737932
3.8670218
3.831873
3.831873
3.8314423
3.8329544
3.8372544
3.8129491
3.8129491
3.8202068
3.828394
3.837387
3.8176123
3.8176123
3.8280787
3.8392509
3.8511692
3.8347497
3.8347497
3.8483333
3.86288
3.8495544
3.8495544
3.8663188
3.8844235
3.8751611
3.8751611
3.8964291
3.8907837
3.8907837
3.9161571
3.9441444
3.9458941
3.9458941
3.9802516
3.9891079
3.9891079
4.0324419
4.0514249
4.0514249
4.076653
4.076653
4.1405636
4.180946
4.180946
4.2359538
4.2359538
4.398259
5.2708681
5.2708681
)
;
    }
    procBoundary12to13
    {
        type            processor;
        value           nonuniform List<scalar> 
60
(
2.3160123
2.6373652
2.8611899
3.0018014
3.0018014
3.0589024
3.0899951
3.0979577
3.0972416
3.0908493
3.0866804
3.0866804
3.062818
3.0625972
3.0648533
3.0690102
3.0738364
3.0738364
3.0578489
3.0637329
3.0700368
3.0767287
3.0767287
3.0622412
3.0695834
3.0773172
3.0854656
3.0940583
3.0940583
3.0811316
3.0905675
3.100563
3.1111722
3.1111722
3.0999482
3.1117758
3.1244115
3.1379468
3.1379468
3.1292276
3.1446115
3.1612351
3.1612351
3.1552101
3.1744736
3.1955329
3.1955329
3.1934627
3.218311
3.2454891
3.2454891
3.2478599
3.2787055
3.312553
3.312553
3.3244556
3.3962088
3.3962088
3.6337964
5.575237
)
;
    }
}


// ************************************************************************* //
