/*--------------------------------*- C++ -*----------------------------------*\
| =========                 |                                                 |
| \\      /  F ield         | OpenFOAM: The Open Source CFD Toolbox           |
|  \\    /   O peration     | Version:  2506                                  |
|   \\  /    A nd           | Website:  www.openfoam.com                      |
|    \\/     M anipulation  |                                                 |
\*---------------------------------------------------------------------------*/
FoamFile
{
    version     2.0;
    format      ascii;
    arch        "LSB;label=32;scalar=64";
    class       volScalarField;
    location    "2.2";
    object      k;
}
// * * * * * * * * * * * * * * * * * * * * * * * * * * * * * * * * * * * * * //

dimensions      [0 2 -2 0 0 0 0];

internalField   nonuniform List<scalar> 
1376
(
34.565529
20.487928
11.324019
9.7176488
9.6119148
9.5071778
9.3496377
9.1000423
8.8643617
8.6243611
8.4080723
8.2066737
8.0268255
7.8437462
7.695056
7.5508081
7.4186966
7.2898554
7.1650266
7.0570663
6.97307
6.9099941
6.8632272
6.8271854
6.8000762
6.7798779
6.7647386
34.211811
17.284352
10.74527
9.5346579
9.588556
9.4358287
9.2770954
9.0165211
8.786592
8.549167
8.3526923
8.15044
7.9858819
7.8139459
7.6698179
7.5302656
7.4031798
7.2818627
7.1624124
7.0594585
6.98198
6.9208521
6.8752359
6.8398398
6.8140517
6.794999
6.7808382
6.7701723
6.7621787
34.290946
15.70179
10.401842
9.5436815
9.5591253
9.3960538
9.252021
8.9748689
8.7521811
8.5088712
8.3306059
8.1254326
7.9542081
7.8015735
7.6631612
7.5140642
7.395663
7.2830855
7.170074
7.0736624
6.9947591
6.9322985
6.8873333
6.8530705
6.8285292
6.8100996
6.7966721
6.7863239
6.7786083
6.7721621
33.561487
15.671205
10.477093
9.5099773
9.5818873
9.3366666
9.2082748
8.9351799
8.7133745
8.468328
8.2869859
8.0838866
7.9252147
7.7649493
7.6475431
7.5142176
7.3898092
7.2799103
7.1722288
7.0815195
7.0032267
6.9423165
6.89899
6.8664048
6.8427985
6.8248315
6.8119886
6.8020615
6.794501
6.7881451
6.7828554
32.925452
14.664749
10.294845
9.5908647
9.5574781
9.3118882
9.1795257
8.9016874
8.6924523
8.4429446
8.2679751
8.0698578
7.9123847
7.7550559
7.6369514
7.5059404
7.3874221
7.274787
7.1712647
7.0878589
7.0119049
6.9520197
6.9105406
6.8797309
6.856882
6.8393278
6.8268566
6.817462
6.8099621
6.8037444
6.798656
6.7959188
6.7941129
32.396735
14.855172
10.397634
9.6058361
9.6007589
9.2858054
9.1446991
8.8580993
8.6555541
8.4139101
8.2350123
8.0388317
7.8940483
7.7384966
7.6211451
7.5090769
7.3937412
7.2760679
7.1706726
7.0900702
7.018317
6.9613579
6.9220831
6.8928075
6.8706507
6.8534994
6.8413305
6.8324864
6.8250733
6.8190705
6.8142768
6.8117204
6.8101206
6.8102927
32.016817
14.32675
10.356885
9.6117153
9.6022084
9.2566734
9.1225619
8.8087416
8.6242935
8.3893173
8.21439
8.0205111
7.8775287
7.732792
7.6115992
7.4934614
7.3948304
7.2798089
7.1685083
7.0896527
7.024124
6.9707729
6.934051
6.9056342
6.8839357
6.8672968
6.8554423
6.8471323
6.8399013
6.8341876
6.8297945
6.8273739
6.8260196
6.8265641
6.8288017
32.226281
14.548342
10.380937
9.5961951
9.5930215
9.2353348
9.0868953
8.761074
8.5802996
8.3485405
8.1819552
7.9908554
7.8458834
7.7077699
7.598582
7.4829274
7.3915629
7.2847738
7.1726293
7.0914458
7.0309011
6.9808162
6.9457006
6.9177468
6.8966223
6.8807328
6.8693773
6.8615261
6.8545703
6.8491839
6.845217
6.8429463
6.8418781
6.842799
6.8454184
6.8498721
31.461374
13.087606
10.192175
9.6020972
9.517755
9.2130303
9.0319115
8.7255444
8.5484046
8.3139615
8.1571642
7.9744299
7.83479
7.6869048
7.5823361
7.4706826
7.3827068
7.286354
7.183834
7.1002237
7.0378587
6.9903842
6.9561165
6.9291907
6.9089835
6.8940402
6.8832807
6.8757329
6.869156
6.8640286
6.8604696
6.8584433
6.8576898
6.8589863
6.861968
6.8669073
30.856831
13.061213
10.217822
9.607235
9.4861222
9.1711709
8.9931031
8.7071527
8.5362385
8.2919501
8.1276842
7.9491081
7.82561
7.6701559
7.564848
7.4603104
7.3763414
7.2828449
7.1892426
7.1097043
7.0451539
7.0000286
6.9661764
6.9407314
6.9212777
6.9073728
6.8971509
6.8898316
6.8837147
6.8787432
6.8755504
6.8739003
6.8734927
6.8751591
6.8784973
6.8840253
6.8924003
29.513949
12.44611
10.154046
9.5930426
9.4791005
9.1360466
8.9741434
8.6955794
8.5361138
8.2871658
8.1108122
7.921099
7.8081253
7.663256
7.5530071
7.4500729
7.3694311
7.2798553
7.1921625
7.1175075
7.0531618
7.0098497
6.9763145
6.9525725
6.9337558
6.9208123
6.9109949
6.903885
6.8983414
6.8934273
6.8905577
6.8893881
6.8893862
6.8914042
6.895132
6.9013054
6.9101959
6.9231047
28.894904
12.359902
10.26016
9.6097482
9.515304
9.127207
8.9516837
8.6850521
8.5126947
8.2876105
8.1004978
7.9002451
7.7724077
7.6536474
7.5460482
7.4465107
7.3616514
7.2783631
7.1942907
7.1223468
7.0604174
7.0195267
6.9869846
6.9647824
6.9465499
6.9341613
6.9247402
6.9178148
6.9129454
6.908132
6.9055694
6.9048902
6.9053972
6.9077508
6.9119301
6.9187609
6.9282661
6.9417794
6.960184
28.47365
11.640478
10.288259
9.6282545
9.5024271
9.1001334
8.9026032
8.6609404
8.4624019
8.2685613
8.084798
7.8941351
7.7570213
7.6398613
7.5385359
7.446222
7.3580399
7.2740068
7.1961423
7.128297
7.0678828
7.0291246
6.9982338
6.9771043
6.9593811
6.9471622
6.9382526
6.9315213
6.927301
6.922812
6.9206348
6.9203419
6.9214821
6.9241883
6.9288849
6.9363562
6.9465742
6.9607739
6.9799433
7.0053396
28.188341
11.433886
10.295888
9.6142988
9.5019141
9.0816456
8.8740109
8.6409344
8.4330603
8.2347127
8.0514573
7.8789496
7.7551907
7.6295392
7.5326511
7.4438252
7.3582824
7.2737632
7.1971641
7.1357537
7.0767615
7.0378666
7.0087001
6.9893697
6.971796
6.9597525
6.9515057
6.9451208
6.9414011
6.9374655
6.9358435
6.9358146
6.9376569
6.9407897
6.9460476
6.9541367
6.9651529
6.9801259
7.0001112
7.0264603
7.0608192
26.678235
10.877695
10.272862
9.5872661
9.5074778
9.0762218
8.8515042
8.6147115
8.4053245
8.2173823
8.0271388
7.8588829
7.7476811
7.6181591
7.5300883
7.4368527
7.3522073
7.2740132
7.1981595
7.1413341
7.0859575
7.0465055
7.0177087
7.0012724
6.9837639
6.9721477
6.9645131
6.9587036
6.9554804
6.9521406
6.9512095
6.9514859
6.9540045
6.9576504
6.9635197
6.9722126
6.9840857
6.9999138
7.020784
7.0481541
7.0836917
7.1296084
25.802516
10.936816
10.281176
9.5900523
9.4390597
9.0790751
8.8390158
8.589636
8.3560135
8.1990178
8.0088502
7.8545024
7.7191853
7.6040598
7.5152571
7.431694
7.3465872
7.2694486
7.1995884
7.1450438
7.0926911
7.0552159
7.0263209
7.0122691
6.9954715
6.9845485
6.9773191
6.9722038
6.9696547
6.9668506
6.9666149
6.9673779
6.9705312
6.9747474
6.98131
6.9906118
7.0033764
7.0201428
7.0419801
7.0704484
7.1072413
7.154601
7.2157386
24.81903
11.039896
10.222397
9.5973003
9.3833066
9.0545528
8.8129016
8.5715014
8.3162386
8.1733385
7.9771361
7.8561934
7.7039118
7.6008039
7.4998646
7.4219916
7.3445297
7.2680932
7.2013454
7.1488533
7.0970076
7.0627966
7.0358376
7.0224371
7.0070702
6.9969096
6.9902169
6.9855858
6.9838309
6.9816486
6.9819935
6.9833956
6.9872439
6.992038
6.9993944
7.0093567
7.0230228
7.0408056
7.0637073
7.093351
7.1314857
7.180397
7.2433314
7.3250203
23.794436
10.661514
10.23127
9.6073212
9.3465997
9.0327073
8.7460308
8.5358391
8.2967049
8.1467864
7.9547777
7.8421098
7.6917754
7.6037694
7.4959625
7.4182094
7.3406071
7.2700204
7.2061802
7.1540282
7.1018894
7.0699461
7.0459439
7.0325217
7.0187921
7.0091845
7.0033713
6.9991291
6.9979634
6.9965363
6.9974802
6.999486
7.0041653
7.0095601
7.0177899
7.0285153
7.0430741
7.0619512
7.0860208
7.1169304
7.1565043
7.2070741
7.2719256
7.3558533
7.4665044
23.144797
10.746263
10.20573
9.6022988
9.3142547
9.0278093
8.6916605
8.4995437
8.2602857
8.1171182
7.9356283
7.809027
7.6722374
7.5868625
7.4940618
7.4197496
7.3382736
7.270805
7.2118753
7.1592083
7.1078072
7.0786406
7.0559915
7.0428756
7.0307485
7.0215759
7.0166106
7.0131331
7.0121752
7.0114939
7.0132303
7.0156821
7.0212432
7.0273772
7.0365233
7.0481238
7.0636164
7.0836586
7.1089877
7.1412761
7.1823794
7.234707
7.3016146
7.3879473
7.501433
7.6543921
22.047801
10.475022
10.235294
9.6012714
9.292599
9.0407796
8.6448678
8.4928209
8.2083908
8.1023648
7.8959554
7.7861394
7.6545936
7.5682366
7.4764879
7.4172771
7.3378881
7.2705507
7.2156957
7.1647414
7.1138441
7.0880347
7.0660478
7.0535944
7.0426589
7.0344936
7.029847
7.0273337
7.0267442
7.0265428
7.0291648
7.0321765
7.0383894
7.045463
7.0555785
7.0681685
7.0846912
7.1059566
7.1326332
7.1664022
7.2091615
7.263359
7.3324618
7.4213704
7.5378955
7.6946043
7.9149677
21.262287
10.514176
10.250641
9.6623451
9.2784588
9.0747763
8.6015086
8.4942543
8.175198
8.1052116
7.870844
7.7710032
7.6395665
7.5611649
7.468235
7.4019793
7.3374633
7.271234
7.2175247
7.1709237
7.1226572
7.0963464
7.0760838
7.0645793
7.0540617
7.0478622
7.0433745
7.0415265
7.0416181
7.041759
7.0450891
7.0490599
7.0557441
7.063785
7.0749328
7.0886407
7.1063028
7.128858
7.156975
7.1923416
7.2368839
7.2930597
7.3645123
7.4561907
7.5759741
7.7367025
7.9622034
8.3025396
8.8975696
20.495463
10.598425
10.269899
9.6741022
9.2912593
9.0995875
8.5883394
8.4945922
8.1589252
8.1001554
7.8597923
7.7702376
7.6279819
7.5517963
7.4657252
7.3939212
7.3316099
7.2712985
7.2178322
7.1736708
7.1329386
7.1047556
7.0865292
7.07615
7.0650757
7.0605667
7.0570822
7.0559153
7.0566091
7.0572998
7.0609166
7.0662296
7.0735329
7.0824622
7.0946694
7.1096097
7.1285017
7.1524158
7.1820759
7.2191492
7.2655839
7.3238978
7.3978656
7.4925025
7.6157772
7.7808015
8.0118102
8.359861
8.9643479
19.610689
10.470719
10.289059
9.6224795
9.280321
9.0814499
8.5853096
8.4784583
8.1494206
8.0802844
7.8444578
7.7776575
7.6215876
7.5431825
7.4583933
7.3898539
7.3264645
7.2684151
7.2166093
7.1760879
7.1417551
7.1151819
7.0961718
7.0876562
7.076281
7.0721977
7.07011
7.0700963
7.0717862
7.072982
7.0770211
7.0835887
7.0917123
7.1016362
7.1148462
7.1311212
7.1513631
7.1767036
7.2080179
7.2469133
7.2953666
7.3559882
7.4326316
7.5304205
7.6574405
7.8270543
8.0639587
8.4202751
9.0350653
18.852503
10.574503
10.191265
9.5879983
9.1834617
8.9802808
8.5518537
8.459035
8.142646
8.0658302
7.8248916
7.7719698
7.6194892
7.5433348
7.4557328
7.3892102
7.327491
7.2714861
7.2220239
7.1807025
7.145549
7.1249261
7.1060812
7.0986399
7.088119
7.0841888
7.0827149
7.0836561
7.08684
7.0887333
7.0936744
7.1011041
7.1101849
7.1213013
7.1355612
7.1532359
7.174931
7.2017711
7.2348447
7.2756873
7.3262885
7.3893897
7.4688926
7.5700396
7.701076
7.8756154
8.1188331
8.4839836
9.1099778
18.051258
10.592931
10.042841
9.5615187
9.1104955
8.8975671
8.4882939
8.4237235
8.1234861
8.0268527
7.8063865
7.7502196
7.602528
7.5456248
7.4556789
7.3879957
7.3287476
7.270872
7.2225486
7.1809341
7.1489768
7.1348552
7.1170925
7.1095294
7.1005973
7.097132
7.0958421
7.0974168
7.1016767
7.1047645
7.1106961
7.1190389
7.1291043
7.1414595
7.1568753
7.1759734
7.1992199
7.2276726
7.2626128
7.3055305
7.3584198
7.4241686
7.5067371
7.6114722
7.7468159
7.9266534
8.1766209
8.5512193
9.189365
17.267527
10.636024
9.9835067
9.5569909
9.0785284
8.8724062
8.4233942
8.3575086
8.0612537
7.9899567
7.8016897
7.7311664
7.5942146
7.5145318
7.4446003
7.3723884
7.317841
7.2638752
7.2204537
7.1877351
7.1581326
7.1426295
7.1262935
7.1178303
7.1116293
7.1099104
7.1095928
7.111686
7.1165528
7.1210218
7.128157
7.1374242
7.1486787
7.1621017
7.1788342
7.1993882
7.2242388
7.2544516
7.2913741
7.3365085
7.3918383
7.4604106
7.5462651
7.6548321
7.7947839
7.9802984
8.2375047
8.6222223
9.2735277
16.549755
10.673682
9.9419162
9.6104397
9.0714204
8.8779539
8.4048344
8.3032754
8.0120445
7.9464903
7.8051596
7.6997337
7.5969967
7.5008989
7.4412766
7.3719408
7.3169723
7.267919
7.2268655
7.1956892
7.1657614
7.1439653
7.1340739
7.1280828
7.1231344
7.1227916
7.1241338
7.1266658
7.1320328
7.137671
7.1460182
7.1562328
7.1688349
7.1833438
7.2014799
7.223571
7.2500657
7.2821549
7.3211637
7.3686876
7.4266363
7.4982255
7.5875808
7.7002448
7.8451231
8.0367165
8.3016981
8.6972618
9.3628532
15.90404
10.73854
9.8559892
9.618637
9.069277
8.8892504
8.4157609
8.2695595
7.9993551
7.8868558
7.7717594
7.6881595
7.579526
7.5027582
7.4424632
7.3755573
7.3192312
7.2704092
7.2269924
7.1934673
7.1711449
7.1563318
7.1450985
7.1412329
7.1365372
7.1364451
7.1388607
7.1421643
7.1482245
7.1546732
7.1640869
7.1754791
7.1894896
7.2053039
7.2248448
7.2485557
7.276814
7.3108948
7.3521017
7.4021482
7.4629186
7.5377214
7.6308064
7.7478468
7.8979981
8.0960982
8.3694461
8.7766519
9.457808
15.251122
10.769564
9.7514547
9.5051686
8.9605553
8.8462322
8.4389283
8.2407955
7.9955888
7.8712864
7.7397911
7.6894854
7.558957
7.4937113
7.4213389
7.3625098
7.3107712
7.2660059
7.2265618
7.1976699
7.1771305
7.165468
7.1554176
7.1517703
7.14819
7.1494497
7.1524928
7.1572415
7.1643132
7.1718024
7.1822953
7.1950608
7.2105782
7.227899
7.2489243
7.27435
7.3045325
7.3407248
7.3842888
7.4369866
7.5007719
7.5790037
7.6760649
7.7978011
7.9535924
8.1586599
8.4410023
8.8607499
9.5588812
14.657865
10.883672
9.6672742
9.4704857
8.8120959
8.7499294
8.4306994
8.232048
7.9937079
7.8886941
7.7338016
7.6397066
7.5481977
7.4696169
7.4142434
7.3556948
7.3102885
7.2680165
7.2334815
7.2068701
7.1835272
7.1689668
7.1624106
7.1602125
7.1593549
7.1614757
7.1657397
7.1720763
7.1802609
7.1892941
7.2009479
7.2150365
7.231782
7.2510907
14.114509
10.967506
9.6291219
9.4564162
8.7709069
8.6134368
8.3121591
8.1823232
7.9932522
7.8554274
7.7287283
7.6200791
7.529752
7.4666319
7.409064
7.356805
7.3106698
7.2716469
7.2362753
7.2076482
7.1902273
13.590806
10.944105
9.6278649
9.4250802
8.7886308
8.5560075
8.2143701
8.0945853
7.9277637
7.8011869
7.6813769
13.121111
10.968429
24.839718
27.698996
30.996436
30.984506
27.697244
24.777637
22.437015
20.807412
19.332715
20.641391
20.451044
20.253668
19.342435
18.439465
17.992408
11.253582
11.091628
10.960466
10.669023
10.383144
10.225993
9.7828321
9.7484981
9.652277
9.4989161
9.3418267
9.1990592
9.6596847
9.6375674
9.5617904
9.4367966
9.3040193
9.1816253
9.5857546
9.5778162
9.5301849
9.4343367
9.3268432
9.223077
9.3977897
9.3947775
9.3634446
9.289572
9.2065938
9.1237145
9.1490336
9.1497679
9.1318702
9.0809755
9.0216243
8.958751
8.900963
8.8977788
8.8786442
8.8398308
8.7982889
8.6487257
8.6426143
8.6238467
8.5972612
8.5724678
8.4185152
8.4133786
8.3991238
8.3764565
8.354724
8.1992104
8.1860418
8.1793044
8.1705361
8.1553794
8.0164462
8.0027638
7.9934709
7.9797614
7.9622909
7.8376221
7.8356029
7.8253711
7.8095605
7.7904003
7.6856524
7.678988
7.6722041
7.657646
7.546673
7.5397876
7.5279518
7.5106035
7.4136405
7.4009224
7.378739
7.354978
7.2803426
7.2654615
7.2435182
7.2218172
7.1534504
7.1403281
7.1212056
7.0456948
7.0340499
7.0185178
6.9587508
6.947383
6.9349194
6.8938995
6.8805123
6.8467432
6.831354
6.8113304
6.7957075
6.7844146
6.7639793
)
;

boundaryField
{
    Side
    {
        type            empty;
    }
    Inlet
    {
        type            turbulentIntensityKineticEnergyInlet;
        intensity       0.03;
        value           nonuniform List<scalar> 9(12.003257 12.003129 12.002894 12.002677 12.002626 12.002726 12.002751 12.002545 12.002339);
    }
    Airfoil
    {
        type            kqRWallFunction;
        value           nonuniform List<scalar> 
33
(
34.565529
34.211811
34.290946
33.561487
32.925452
32.396735
32.016817
32.226281
31.461374
30.856831
29.513949
28.894904
28.47365
28.188341
26.678235
25.802516
24.81903
23.794436
23.144797
22.047801
21.262287
20.495463
19.610689
18.852503
18.051258
17.267527
16.549755
15.90404
15.251122
14.657865
14.114509
13.590806
13.121111
)
;
    }
    Outlet
    {
        type            inletOutlet;
        inletValue      nonuniform List<scalar> 0();
        value           nonuniform List<scalar> 0();
    }
    procBoundary8to1
    {
        type            processor;
        value           nonuniform List<scalar> 8(34.177473 18.823621 20.417927 22.499154 22.499154 19.370737 20.275956 20.567454);
    }
    procBoundary8to7
    {
        type            processor;
        value           nonuniform List<scalar> 
53
(
7.2737469
7.3009769
7.3332246
7.3716959
7.4177782
7.4732689
7.5402969
7.6221964
7.7234915
7.8502693
8.0121059
8.2246399
8.5166389
8.9499299
9.6666087
7.179758
7.1748558
7.1730922
7.1731181
7.1762152
7.1812231
7.1880128
7.197123
7.2074477
7.220296
7.2356143
7.2535106
7.2737469
7.2748221
7.6089057
7.5185409
7.4634999
7.3961418
7.3502674
7.3070864
7.270856
7.2376336
7.2122971
7.179758
7.197822
9.65559
9.4565419
8.8269679
8.5715703
8.1912412
8.0658236
7.887499
7.7791462
7.6089057
7.6617192
12.679835
9.65559
10.980213
)
;
    }
    procBoundary8to9
    {
        type            processor;
        value           nonuniform List<scalar> 
75
(
6.7537399
6.7484424
6.7537399
6.7451956
6.7556187
6.7556187
6.7667678
6.7667678
6.7798975
6.7798975
6.7779046
6.7939154
6.7939154
6.8121423
6.8121423
6.8328953
6.8328953
6.8574783
6.8748621
6.8748621
6.9047615
6.9047615
6.9407921
6.9407921
6.9846955
6.9846955
7.0386006
7.0386006
7.1053915
7.1053915
7.1890756
7.1890756
7.2953508
7.2953508
7.4330207
7.4330207
7.6159657
7.6159657
7.8699583
7.8699583
8.2481015
8.2481015
8.8343887
17.800583
17.664233
10.159485
9.0813375
9.0794605
9.1308636
9.0473708
8.8958843
8.7511263
8.7511263
8.5379812
8.3236727
8.1282835
7.939051
7.7634951
7.6363557
7.6363557
7.4861402
7.333027
7.2038197
7.1012475
7.1012475
7.0008801
6.9188932
6.8671398
6.8671398
6.8162334
6.7797568
6.7690666
6.7690666
6.7486732
6.7484424
)
;
    }
}


// ************************************************************************* //
