/*--------------------------------*- C++ -*----------------------------------*\
| =========                 |                                                 |
| \\      /  F ield         | OpenFOAM: The Open Source CFD Toolbox           |
|  \\    /   O peration     | Version:  2506                                  |
|   \\  /    A nd           | Website:  www.openfoam.com                      |
|    \\/     M anipulation  |                                                 |
\*---------------------------------------------------------------------------*/
FoamFile
{
    version     2.0;
    format      ascii;
    arch        "LSB;label=32;scalar=64";
    class       volScalarField;
    location    "2.2";
    object      p;
}
// * * * * * * * * * * * * * * * * * * * * * * * * * * * * * * * * * * * * * //

dimensions      [1 -1 -2 0 0 0 0];

internalField   nonuniform List<scalar> 
1376
(
47569.237
47486.819
47432.566
47313.04
47335.622
47280.794
47257.79
47233.35
47206.298
47179.843
47155.624
47135.444
47116.153
47098.098
47084.326
47075.48
47065.812
47053.552
47042.814
47037.546
47033.938
47030.216
47027.065
47024.739
47023.626
47023.522
47024.439
47257.692
47263.798
47237.212
47248.521
47226.652
47210.879
47190.777
47172.994
47154.636
47136.126
47118.788
47104.07
47089.519
47078.657
47068.636
47057.814
47048.107
47040.184
47034.026
47029.182
47024.242
47022.083
47020.587
47019.7
47019.762
47020.114
47021.028
47022.633
47023.149
47133.706
47130.106
47140.179
47126.322
47127.219
47117.916
47110.07
47102.308
47094.274
47086.171
47076.728
47066.011
47058.794
47052.675
47043.125
47035.59
47030.615
47026.649
47022.522
47018.398
47015.208
47013.744
47013.191
47013.422
47014.636
47015.887
47017.32
47019.718
47021.21
47022.189
46976.933
47015.038
47007.316
47029.572
47029.296
47037.686
47039.42
47040.907
47039.203
47037.168
47033.393
47030.053
47024.534
47019.496
47016.404
47014.769
47012.357
47009.698
47007.973
47007.28
47006.211
47005.962
47006.615
47007.926
47010.096
47012.11
47013.96
47017.057
47019.32
47020.571
47021.589
46907.447
46916.469
46929.857
46941.322
46949.188
46960.533
46967.121
46975.44
46979.289
46983.561
46985.891
46985.565
46986.081
46990.916
46991.338
46990.266
46991.241
46993.432
46994.844
46996.758
46997.788
46998.736
47000.75
47003.373
47006.158
47008.401
47010.665
47014.496
47017.413
47019.09
47020.236
47022.799
47024.565
46802.482
46837.456
46841.43
46866.434
46875.068
46892.878
46902.848
46914.66
46923.715
46932.992
46939.973
46947.864
46952.668
46956.776
46962.045
46967.489
46972.061
46976.592
46980.478
46984.554
46988.373
46991.251
46994.602
46998.46
47001.963
47004.606
47007.64
47012.194
47015.574
47017.654
47018.936
47021.76
47023.705
47025.079
46757.721
46747.48
46771.877
46795.005
46806.417
46829.457
46841.078
46858.724
46871.199
46883.362
46894.379
46906.088
46916.843
46927.851
46935.965
46944.123
46951.558
46958.747
46965.708
46972.245
46978.353
46983.125
46988.204
46993.308
46997.818
47001.279
47004.886
47009.974
47013.678
47016.159
47017.699
47020.717
47022.833
47024.41
47026.335
46658.482
46712.37
46699.003
46730.455
46739.298
46770.782
46782.597
46807.09
46824.857
46843.228
46856.992
46871.129
46885.025
46898.528
46909.949
46921.44
46932.526
46941.539
46950.939
46959.934
46968.129
46974.975
46981.788
46987.827
46993.381
46998.08
47002.232
47007.684
47011.772
47014.616
47016.507
47019.677
47021.955
47023.742
47025.845
47027.183
46623.879
46618.146
46653.652
46682.943
46685.214
46720.4
46730.273
46759.054
46779.665
46802.805
46821.832
46838.233
46853.292
46871.021
46886.069
46899.261
46913.807
46925.916
46936.47
46947.771
46957.913
46966.759
46975.396
46982.401
46988.775
46994.83
46999.642
47005.321
47009.832
47012.982
47015.316
47018.649
47021.084
47023.086
47025.364
47026.738
46516.494
46603.841
46610.751
46648.054
46640.948
46679.644
46688.598
46715.625
46734.345
46756.093
46780.42
46806.405
46825.57
46844.547
46862.955
46877.814
46893.848
46910.79
46923.85
46936.617
46948.485
46958.839
46969.078
46977.34
46984.427
46991.582
46997.032
47002.843
47007.875
47011.403
47014.155
47017.657
47020.256
47022.447
47024.894
47026.309
47028.52
46586.776
46471.485
46528.098
46589.211
46567.166
46630.735
46640.587
46673.459
46694.233
46716.678
46738.425
46768.507
46795.482
46820.077
46842.011
46860.37
46875.362
46894.575
46911.983
46926.477
46939.747
46951.592
46962.888
46972.521
46980.376
46988.328
46994.469
47000.4
47005.921
47009.936
47013.092
47016.746
47019.502
47021.84
47024.431
47025.905
47028.286
47030.445
46344.883
46587.427
46348.816
46535.137
46510.569
46570.724
46596.709
46632.772
46665.62
46701.256
46715.77
46735.229
46762.072
46793.971
46821.053
46844.962
46861.724
46879.402
46899.568
46916.875
46931.668
46945.09
46957.183
46967.969
46976.69
46985.21
46991.992
46998.177
47004.032
47008.54
47012.198
47015.943
47018.817
47021.293
47023.971
47025.544
47028.086
47030.172
47030.493
46334.101
46432.841
46464.723
46490.112
46501.235
46532.047
46559.673
46591.593
46621.094
46663.624
46696.758
46721.504
46738.472
46767.377
46796.77
46827.245
46851.377
46869.239
46888.237
46907.717
46924.134
46939.116
46952.284
46963.864
46973.298
46982.262
46989.612
46996.283
47002.43
47007.218
47011.402
47015.262
47018.201
47020.819
47023.527
47025.248
47027.905
47029.918
47030.295
47031.032
46341.988
46386.788
46388.637
46449.409
46451.847
46496.956
46524.921
46563.297
46586.143
46617.341
46651.955
46699.315
46730.326
46753.285
46776.379
46807.433
46836.747
46861.379
46879.924
46899.249
46917.042
46933.367
46947.853
46960.412
46970.212
46979.455
46987.351
46994.6
47001.162
47006.121
47010.588
47014.542
47017.64
47020.388
47023.116
47025.019
47027.71
47029.652
47030.101
47030.883
47032.014
46286.92
46346.026
46346.318
46403.203
46429.173
46465.992
46492.739
46542.109
46564.889
46598.503
46622.009
46663.612
46705.771
46745.97
46767.938
46793.15
46820.17
46849.981
46873.3
46892.162
46910.436
46927.939
46943.517
46957.255
46967.536
46976.82
46985.227
46992.972
47000.052
47005.343
47009.767
47013.639
47017.1
47019.978
47022.749
47024.841
47027.525
47029.359
47029.921
47030.762
47031.956
47033.422
46257.044
46320.79
46317.949
46367.276
46378.687
46448.651
46462.51
46507.581
46538.632
46584.857
46611.668
46647.884
46678.731
46724.871
46763.386
46785.901
46810.645
46838.519
46865.472
46886.547
46904.609
46922.983
46939.415
46953.802
46964.969
46974.573
46983.283
46991.485
46998.874
47004.594
47009.067
47012.639
47016.547
47019.614
47022.377
47024.689
47027.371
47029.079
47029.737
47030.657
47031.89
47033.38
47034.76
46199.583
46280.157
46291.552
46349.048
46335.629
46409.35
46436.414
46479.088
46504.037
46555.009
46594.847
46642.394
46671.146
46705.813
46737.966
46780.676
46812.26
46831.977
46858.312
46881.851
46900.183
46918.551
46935.857
46950.343
46962.041
46972.597
46981.661
46990.234
46997.681
47003.587
47008.348
47011.797
47016.03
47019.273
47021.977
47024.554
47027.207
47028.873
47029.515
47030.548
47031.828
47033.363
47034.758
47035.961
46142.998
46191.041
46215.606
46316.034
46329.648
46372.023
46409.821
46468.543
46477.616
46533.895
46571.394
46624.567
46665.049
46702.962
46731.151
46766.577
46801.594
46831.833
46854.253
46877.538
46896.702
46914.958
46932.817
46947.603
46959.306
46970.561
46980.338
46989.177
46996.721
47002.468
47007.477
47011.209
47015.67
47018.864
47021.634
47024.473
47027.143
47028.729
47029.289
47030.43
47031.804
47033.374
47034.744
47035.926
47036.494
46076.287
46182.776
46169.155
46265.601
46289.893
46359.369
46375.277
46462.166
46467.206
46515.847
46558.272
46613.413
46650.607
46696.797
46730.963
46761.636
46793.686
46826.092
46853.891
46874.22
46893.523
46912.142
46930.058
46945.61
46957.964
46968.994
46979.129
46988.178
46995.91
47001.678
47006.523
47010.703
47015.474
47018.449
47021.384
47024.494
47027.141
47028.461
47029.094
47030.34
47031.813
47033.416
47034.712
47035.897
47036.481
47037.049
46083.955
46179.77
46139.746
46235.406
46246.843
46324.552
46341.152
46434.108
46468.292
46515.155
46547.333
46613.026
46644.063
46690.136
46726.166
46758.633
46790.169
46824.146
46850.778
46871.731
46891.625
46910.451
46927.842
46943.854
46957.789
46968.549
46978.128
46987.205
46995.131
47001.104
47005.685
47010.374
47015.143
47018.152
47021.294
47024.481
47027.05
47028.263
47028.94
47030.273
47031.822
47033.457
47034.636
47035.893
47036.463
47037.167
47036.559
46031.608
46113.112
46131.75
46211.605
46220.455
46312.459
46339.449
46397.356
46448.981
46545.154
46548.058
46606.732
46636.274
46691.142
46721.485
46754.86
46791.452
46823.353
46847.798
46869.979
46890.588
46910.001
46927.728
46942.35
46957.015
46968.402
46977.429
46986.632
46994.434
47000.47
47005.152
47010.22
47014.874
47017.966
47021.38
47024.524
47026.992
47028.047
47028.777
47030.182
47031.854
47033.496
47034.532
47035.94
47036.482
47037.307
47036.621
47036.793
47036.694
45994.782
46107.52
46089.975
46196.048
46195.448
46314.882
46332.059
46412.303
46422.69
46521.711
46556.898
46611.967
46634.388
46688.11
46719.094
46754.834
46789.269
46820.592
46845.712
46869.633
46890.944
46910.107
46927.197
46941.669
46956.253
46967.526
46977.584
46986.425
46993.925
46999.939
47004.868
47010.257
47014.69
47017.834
47021.431
47024.491
47026.866
47027.874
47028.651
47030.125
47031.9
47033.545
47034.455
47036.007
47036.549
47037.452
47036.749
47037.148
47036.76
45944.159
46053.288
46066.83
46194.052
46183.171
46303.682
46301.888
46420.713
46428.112
46517.098
46550.981
46609.674
46635.729
46679.106
46723.355
46760.475
46793.658
46824.451
46849.507
46871.483
46891.207
46911.06
46926.936
46942.029
46956.011
46968.167
46978.22
46986.093
46993.307
46999.375
47004.698
47010.384
47014.421
47017.805
47021.356
47024.644
47026.908
47027.686
47028.604
47030.188
47031.953
47033.552
47034.468
47036.087
47036.632
47037.565
47036.895
47037.506
47036.874
45909.813
46073.631
46026.207
46187.224
46174.312
46311.979
46284.749
46421.948
46416.877
46514.297
46561.371
46619.626
46649.433
46689.752
46730.26
46762.541
46793.12
46821.198
46847.779
46871.282
46892.221
46911.694
46928.677
46943.97
46957.371
46968.012
46977.235
46985.715
46992.506
46998.933
47004.646
47010.607
47014.19
47017.844
47021.607
47025.012
47026.768
47027.554
47028.62
47030.377
47031.993
47033.435
47034.497
47036.241
47036.747
47037.64
47036.931
47037.768
47037.054
45886.499
46047.486
46010.91
46174.744
46155.616
46316.11
46289.406
46440.231
46433.322
46522.722
46539.984
46616.021
46662.756
46698.506
46726.564
46765.173
46792.848
46821.818
46847.275
46872.05
46896.432
46915.384
46928.638
46943.371
46957.103
46967.445
46977.752
46986.191
46993.126
46999.483
47005.186
47010.952
47014.06
47017.943
47021.967
47025.26
47026.652
47027.454
47028.735
47030.432
47031.924
47033.384
47034.545
47036.422
47036.886
47037.715
47036.831
47037.845
47037.361
45862.857
46012.931
46012.04
46177.675
46138.195
46320.416
46273.526
46442.034
46443.481
46534.815
46529.796
46610.762
46662.873
46699.878
46743.893
46778.44
46804.862
46831.297
46856.123
46878.771
46899.113
46915.29
46928.96
46945.024
46957.493
46969.882
46979.749
46986.382
46993.173
46999.68
47005.523
47010.831
47014.038
47018.359
47022.286
47025.331
47026.579
47027.35
47028.71
47030.434
47032.27
47033.607
47034.72
47036.542
47036.938
47037.824
47036.698
47037.629
47037.788
45856.149
46021.568
45976.56
46181.884
46147.101
46333.194
46288.327
46441.838
46467.569
46548.237
46555.471
46625.683
46662.906
46711.099
46762.24
46783.51
46809.258
46837.25
46861.252
46881.567
46900.878
46919.343
46935.675
46949.669
46961.212
46970.958
46978.491
46985.981
46993.27
46999.726
47006.211
47010.919
47014.422
47018.85
47022.321
47025.38
47026.485
47027.338
47029.048
47030.69
47032.31
47033.592
47034.971
47036.549
47036.923
47037.794
47036.637
47037.256
47038.11
45803.237
46016.127
45964.596
46207.278
46152.116
46365.783
46348.065
46467.915
46480.473
46559.434
46583.091
46635.852
46677.714
46727.09
46759.636
46787.911
46815.64
46842.434
46866.615
46889.663
46910.165
46925.197
46938.744
46951.171
46962.795
46971.173
46979.276
46987.198
46993.723
47000.806
47007.986
47011.819
47014.769
47018.845
47022.369
47025.403
47026.346
47027.309
47029.264
47030.922
47032.284
47033.796
47035.147
47036.648
47036.951
47037.645
47036.541
47036.838
47038.218
45792.475
46028.455
45962.442
46224.419
46165.631
46413.638
46341.311
46481.258
46472.995
46566.94
46600.478
46662.643
46710.088
46748.474
46776.221
46800.711
46827.949
46854.253
46878.521
46898.481
46914.611
46927.599
46940.146
46952.958
46964.888
46973.53
46982.01
46988.689
46995.318
47002.562
47008.41
47012.025
47015.197
47019.49
47023.002
47025.473
47026.34
47027.179
47029.09
47031.215
47032.81
47034.165
47035.377
47036.761
47036.883
47037.478
47036.38
47036.749
47038.141
45767.351
46048.157
45996.017
46247.423
46172.012
46413.233
46318.897
46512.424
46488.172
46600.373
46635.266
46689.818
46735.534
46762.7
46786.641
46812.686
46838.798
46863.896
46885.867
46903.423
46920.046
46933.03
46945.912
46958.022
46967.6
46975.705
46983.581
46989.811
46996.876
47003.358
47007.954
47011.386
47016.298
47020.805
45813.034
46054.539
45967.003
46247.286
46163.764
46410.623
46382.306
46545.413
46524.255
46612.881
46666.648
46712.91
46749.553
46778.843
46803.208
46827.925
46852.762
46874.343
46893.791
46911.361
46927.706
45795.739
46037.326
45954.72
46291.549
46210.809
46467.197
46432.24
46561.726
46571.918
46637.415
46697.573
45724.786
46103.322
47349.616
47493.054
47614.026
47619.339
47497.431
47348.5
47252.225
47204.533
47172.67
47541.202
47459.974
47331.097
47240.963
47196.349
47170.747
47508.005
47437.752
47320.428
47234.362
47196.976
47169.951
47482.049
47423.369
47308.333
47226.65
47188.787
47165.685
47419.291
47373.014
47282.315
47215.175
47184.95
47164.697
47361.617
47335.69
47265.241
47210.406
47181.318
47162.79
47314.382
47299.06
47244.771
47200.719
47176.023
47160.209
47273.03
47263.509
47224.363
47190.276
47170.531
47156.031
47237.73
47231.888
47203.833
47178.624
47163.058
47208.426
47204.62
47184.113
47166.503
47154.336
47182.239
47179.297
47165.241
47154.73
47144.627
47159.25
47154.241
47148.176
47142.126
47134.528
47132.882
47135.443
47134.006
47128.07
47121.491
47116.98
47121.523
47120.574
47115.456
47109.256
47100.18
47107.91
47105.88
47104.833
47082.075
47095.577
47093.901
47094.975
47073.612
47080.33
47084.92
47083.843
47067.679
47069.255
47073.055
47078.362
47056.659
47065.086
47063.953
47046.77
47056.278
47060.373
47042.469
47046.984
47051.8
47037.744
47042.899
47033.947
47038.933
47030.666
47036.11
47027.503
47026.492
)
;

boundaryField
{
    Side
    {
        type            empty;
    }
    Inlet
    {
        type            totalPressure;
        rho             rho;
        psi             none;
        gamma           1;
        p0              uniform 50000;
        value           nonuniform List<scalar> 9(47036.83 47036.842 47036.859 47036.884 47036.891 47036.87 47036.823 47036.811 47036.897);
    }
    Airfoil
    {
        type            zeroGradient;
    }
    Outlet
    {
        type            fixedValue;
        value           nonuniform List<scalar> 0();
    }
    procBoundary8to1
    {
        type            processor;
        value           nonuniform List<scalar> 8(47504.383 47171.289 47204.281 47251.545 47251.545 47331.723 47457.948 47553.754);
    }
    procBoundary8to7
    {
        type            processor;
        value           nonuniform List<scalar> 
53
(
47024.012
47025.681
47026.286
47027.379
47029.346
47031.474
47033.322
47034.477
47035.625
47036.827
47036.854
47037.445
47036.318
47037.001
47037.941
46939.339
46951.06
46961.611
46970.322
46979.026
46985.762
46991.418
46998.447
47004.592
47007.821
47012.738
47018.163
47024.012
47021.529
46741.809
46774.247
46800.47
46824.213
46847.492
46869.306
46888.903
46906.441
46920.8
46939.339
46933.978
45997.303
46300.564
46354.767
46509.971
46438.905
46606.648
46645.969
46694.012
46741.809
46733.302
45767.964
45997.303
46170.902
)
;
    }
    procBoundary8to9
    {
        type            processor;
        value           nonuniform List<scalar> 
75
(
47025.403
47027.18
47025.403
47025.265
47023.806
47023.806
47023.025
47023.025
47023.877
47023.877
47025.414
47025.738
47025.738
47026.828
47026.828
47027.624
47027.624
47029.036
47028.765
47028.765
47030.7
47030.7
47030.696
47030.696
47031.188
47031.188
47032.098
47032.098
47033.509
47033.509
47034.763
47034.763
47035.98
47035.98
47036.496
47036.496
47036.96
47036.96
47036.495
47036.495
47036.519
47036.519
47036.632
47159.897
47159.048
47157.247
47155.673
47153.587
47150.52
47146.407
47141.578
47149.525
47149.525
47143.023
47134.404
47123.834
47115.568
47110.005
47101.796
47101.796
47093.75
47084.331
47076.568
47068.334
47068.334
47060.62
47056.587
47043.934
47043.934
47039.458
47037.296
47032.368
47032.368
47030.509
47027.18
)
;
    }
}


// ************************************************************************* //
