/*--------------------------------*- C++ -*----------------------------------*\
| =========                 |                                                 |
| \\      /  F ield         | OpenFOAM: The Open Source CFD Toolbox           |
|  \\    /   O peration     | Version:  2506                                  |
|   \\  /    A nd           | Website:  www.openfoam.com                      |
|    \\/     M anipulation  |                                                 |
\*---------------------------------------------------------------------------*/
FoamFile
{
    version     2.0;
    format      ascii;
    arch        "LSB;label=32;scalar=64";
    class       volScalarField;
    location    "2.4";
    object      T;
}
// * * * * * * * * * * * * * * * * * * * * * * * * * * * * * * * * * * * * * //

dimensions      [0 0 0 1 0 0 0];

internalField   nonuniform List<scalar> 
1375
(
245.69289
245.69756
245.70247
245.70709
245.713
245.72036
245.72876
245.73684
245.74369
245.71304
245.72051
245.72737
245.73471
245.74362
245.75415
245.76564
245.77698
245.78765
245.79869
245.73464
245.74298
245.75073
245.75866
245.76774
245.77785
245.78841
245.79853
245.8076
245.81584
245.73717
245.74118
245.7467
245.75089
245.75535
245.75954
245.76301
245.76541
245.76671
245.76698
245.71673
245.71466
245.71605
245.71562
245.71499
245.71331
245.71089
245.70765
245.70411
245.70028
245.68491
245.67908
245.67798
245.67506
245.6721
245.66823
245.66399
245.6597
245.65587
245.65222
245.65429
245.64765
245.64588
245.64275
245.63973
245.63607
245.63234
245.62912
245.62674
245.6246
245.63053
245.62498
245.62355
245.62111
245.61892
245.61631
245.61381
245.612
245.61101
245.61025
245.61442
245.61059
245.60981
245.60821
245.60691
245.60535
245.60396
245.60328
245.60324
245.60349
245.60455
245.60242
245.6023
245.60139
245.60066
245.59982
245.59937
245.59939
245.59987
245.60092
245.59916
245.5983
245.59874
245.59828
245.59785
245.59753
245.59764
245.59816
245.59898
245.60048
245.59666
245.59666
245.59744
245.59728
245.59707
245.59694
245.59747
245.59837
245.59933
245.60094
245.60308
245.59577
245.59651
245.59736
245.59737
245.59731
245.59728
245.59803
245.59914
245.60012
245.60171
245.60411
245.59582
245.59689
245.59776
245.59793
245.59799
245.59799
245.59878
245.59998
245.60091
245.60246
245.60501
245.59621
245.59735
245.59824
245.59853
245.59869
245.59873
245.59943
245.60061
245.60147
245.60295
245.60558
245.59657
245.59766
245.59855
245.59892
245.59918
245.59924
245.59981
245.60093
245.6017
245.60304
245.60563
245.59675
245.59772
245.59856
245.59896
245.59934
245.59944
245.5999
245.60091
245.60155
245.60264
245.60505
245.59667
245.59749
245.59828
245.59864
245.59912
245.59931
245.59971
245.60057
245.60107
245.60178
245.60398
245.5963
245.59698
245.59769
245.59805
245.59849
245.5988
245.59923
245.60001
245.60047
245.60079
245.6026
245.59565
245.59618
245.59686
245.59731
245.59766
245.59801
245.59842
245.59921
245.59979
245.59994
245.60128
245.59482
245.59515
245.59594
245.59654
245.59679
245.59715
245.59748
245.5982
245.5989
245.59912
245.60017
245.59403
245.59416
245.59521
245.59588
245.59598
245.59631
245.59649
245.59741
245.59839
245.59864
245.5993
245.59346
245.59353
245.59467
245.5953
245.59537
245.59578
245.59574
245.59667
245.59808
245.59841
245.59893
245.59315
245.59322
245.59422
245.59492
245.59497
245.59548
245.59551
245.59574
245.59761
245.59817
245.59866
245.59301
245.59311
245.5939
245.59469
245.59469
245.5952
245.59536
245.59512
245.5972
245.59792
245.59796
245.59295
245.593
245.59365
245.59436
245.59437
245.59471
245.59523
245.59508
245.59658
245.59769
245.59761
245.59852
245.5928
245.59282
245.59351
245.59418
245.59421
245.59414
245.59478
245.5952
245.5955
245.59729
245.59742
245.59782
245.59269
245.59276
245.59337
245.59389
245.59402
245.59378
245.59438
245.59517
245.5948
245.5966
245.59725
245.59665
245.59258
245.59274
245.59315
245.59343
245.59362
245.59377
245.59409
245.59501
245.59463
245.59515
245.59642
245.59607
245.59236
245.59257
245.59281
245.59314
245.59351
245.59402
245.59369
245.59424
245.5945
245.59437
245.59509
245.59564
245.59233
245.59242
245.59254
245.59291
245.59319
245.59358
245.59378
245.59354
245.59405
245.59404
245.59432
245.59483
245.59211
245.59236
245.59231
245.59268
245.59305
245.59293
245.59323
245.5933
245.59344
245.59352
245.59391
245.59433
245.59471
245.59161
245.592
245.59166
245.59221
245.5927
245.59274
245.59275
245.59306
245.59339
245.59325
245.59348
245.59374
245.59376
245.59126
245.59159
245.59146
245.59181
245.5918
245.59228
245.59244
245.59283
245.59301
245.5933
245.59321
245.59313
245.59306
245.59045
245.59103
245.59118
245.59112
245.59134
245.59186
245.59243
245.59272
245.59262
245.5932
245.59287
245.59276
245.59259
245.59239
245.58966
245.59054
245.59087
245.59079
245.59113
245.59129
245.59205
245.59211
245.59213
245.59259
245.59242
245.59235
245.59192
245.59163
245.58948
245.5898
245.59047
245.59061
245.5906
245.59075
245.59122
245.59106
245.59144
245.59158
245.59163
245.59144
245.59128
245.59105
245.58936
245.58931
245.58977
245.59006
245.59024
245.59047
245.59033
245.59048
245.59081
245.59051
245.59072
245.59089
245.59051
245.59022
245.58986
245.58884
245.5886
245.58867
245.58873
245.58904
245.58924
245.5897
245.59007
245.59015
245.5902
245.59042
245.5905
245.59017
245.58997
245.58965
245.5884
245.58829
245.5882
245.58818
245.58826
245.58839
245.58863
245.5887
245.58862
245.589
245.58951
245.58948
245.58955
245.58982
245.58973
245.58936
245.5882
245.5879
245.58765
245.58761
245.58768
245.58776
245.58781
245.58788
245.58793
245.58815
245.58809
245.58816
245.58846
245.58835
245.58807
245.58806
245.58796
245.58769
245.58765
245.58759
245.58756
245.58754
245.58754
245.58746
245.58732
245.5874
245.58711
245.58711
245.58707
245.58666
245.58679
245.58705
245.5872
245.58727
245.58731
245.58735
245.58737
245.58736
245.58727
245.58715
245.58697
245.58676
245.58659
245.58645
245.58657
245.58606
245.58618
245.58656
245.58625
245.58634
245.58643
245.58616
245.58692
245.5871
245.58722
245.58723
245.58708
245.58671
245.58633
245.58604
245.58585
245.58579
245.5857
245.58577
245.58601
245.58599
245.58589
245.586
245.58589
245.58582
245.58583
245.58732
245.58704
245.58666
245.5863
245.58593
245.58551
245.58511
245.58477
245.58455
245.58461
245.58467
245.58472
245.5848
245.58493
245.58502
245.58507
245.58507
245.58497
245.58482
245.58468
245.58632
245.58624
245.58591
245.58549
245.58496
245.58452
245.58421
245.58399
245.58394
245.58395
245.58403
245.58413
245.58428
245.58438
245.5845
245.5846
245.58457
245.58448
245.58439
245.58423
245.58403
245.58386
245.58718
245.58687
245.58658
245.58631
245.5859
245.58537
245.58492
245.58465
245.58445
245.58437
245.5844
245.58439
245.58441
245.5845
245.58459
245.58464
245.58464
245.58459
245.58453
245.58443
245.5843
245.58416
245.58398
245.58628
245.58635
245.58599
245.58562
245.58546
245.58533
245.58489
245.58429
245.58377
245.58345
245.58327
245.58321
245.58336
245.58366
245.58397
245.58426
245.5845
245.58467
245.58476
245.58479
245.58476
245.58464
245.58448
245.58432
245.58412
245.57901
245.57931
245.57966
245.57913
245.57884
245.57875
245.57871
245.5785
245.57805
245.57744
245.57699
245.57673
245.57659
245.57654
245.57652
245.57654
245.57659
245.57669
245.57682
245.57693
245.57701
245.57705
245.57704
245.57698
245.57687
245.57674
245.5766
245.68778
245.70749
245.72733
245.72982
245.71002
245.67988
245.65096
245.62848
245.61312
245.60366
245.59847
245.59603
245.59518
245.59514
245.59546
245.59578
245.59592
245.59584
245.5955
245.59494
245.59427
245.59361
245.59308
245.59274
245.59251
245.59237
245.59216
245.59194
245.59179
245.59161
245.5914
245.59114
245.59095
245.5907
245.59004
245.58963
245.58952
245.58924
245.58901
245.58865
245.58823
245.58757
245.58729
245.58687
245.58735
245.58628
245.5874
245.58596
245.57872
245.68219
245.70172
245.72067
245.72292
245.70361
245.67494
245.64761
245.62636
245.6118
245.6028
245.59785
245.59551
245.59465
245.59453
245.5948
245.59506
245.59516
245.59503
245.59464
245.59407
245.5934
245.59271
245.5921
245.59163
245.59135
245.59122
245.59114
245.59105
245.59103
245.59103
245.5909
245.59083
245.59074
245.5902
245.58992
245.58988
245.58951
245.58921
245.5891
245.58867
245.58821
245.58744
245.5873
245.58693
245.58731
245.58621
245.5875
245.58576
245.57849
245.67678
245.69627
245.71461
245.71638
245.69729
245.66981
245.64391
245.62389
245.61019
245.60172
245.59705
245.59486
245.59407
245.59396
245.59416
245.59431
245.59432
245.5941
245.59362
245.59298
245.59229
245.59167
245.59121
245.59093
245.59079
245.59083
245.59097
245.59103
245.59106
245.59101
245.5908
245.59068
245.5904
245.59018
245.59027
245.58973
245.58929
245.58919
245.58917
245.58849
245.58819
245.58742
245.58734
245.58709
245.58724
245.58611
245.58751
245.5857
245.57844
245.67295
245.69243
245.70988
245.71081
245.69151
245.66488
245.64028
245.62146
245.60869
245.60088
245.59667
245.59472
245.59398
245.59384
245.59397
245.59403
245.59397
245.5937
245.59321
245.59262
245.59204
245.59158
245.59126
245.59107
245.59096
245.59099
245.59105
245.59102
245.591
245.59092
245.59072
245.59061
245.59055
245.59044
245.59015
245.58981
245.58941
245.58913
245.58896
245.58847
245.58803
245.5872
245.58735
245.58739
245.58715
245.58603
245.58751
245.58531
245.57827
245.67046
245.6899
245.7062
245.70601
245.68625
245.66026
245.63676
245.61903
245.60715
245.60007
245.59637
245.59474
245.59425
245.59423
245.5944
245.59447
245.59439
245.59406
245.59352
245.59288
245.59227
245.59176
245.59143
245.59121
245.59106
245.59096
245.59095
245.59103
245.59107
245.59098
245.59077
245.59062
245.59046
245.5903
245.59018
245.58971
245.58927
245.58896
245.58846
245.58832
245.58782
245.58719
245.58745
245.58747
245.58706
245.58598
245.58743
245.58502
245.57835
245.66849
245.6879
245.70322
245.70183
245.68175
245.65637
245.63384
245.61707
245.60603
245.59953
245.59616
245.59469
245.59425
245.59427
245.59447
245.59456
245.5945
245.59416
245.59362
245.59298
245.59237
245.59191
245.59163
245.59143
245.59126
245.59114
245.59111
245.59113
245.5911
245.59096
245.59066
245.59029
245.5901
245.59001
245.58991
245.58954
245.58905
245.58861
245.58824
245.58784
245.58755
245.58732
245.58747
245.58743
245.58692
245.58599
245.58744
245.58502
245.57876
245.6663
245.68573
245.70035
245.69801
245.67791
245.65318
245.63153
245.61557
245.60514
245.59903
245.5959
245.59455
245.59416
245.59417
245.59431
245.59437
245.59426
245.59387
245.59331
245.59267
245.59207
245.59164
245.59141
245.5913
245.59121
245.59112
245.59105
245.59101
245.59091
245.59073
245.59041
245.59009
245.58991
245.5896
245.5893
245.58905
245.58874
245.5884
245.58791
245.58761
245.58764
245.58745
245.5873
245.58725
245.58679
245.58606
245.58749
245.585
245.57875
245.66357
245.68307
245.69724
245.69426
245.67435
245.65035
245.62952
245.61424
245.6043
245.5985
245.59555
245.59428
245.59389
245.59385
245.59388
245.59387
245.59371
245.59333
245.59281
245.59222
245.59169
245.59128
245.59104
245.59092
245.59085
245.59077
245.59067
245.59057
245.5904
245.59025
245.59003
245.58977
245.58963
245.58938
245.58907
245.58875
245.58843
245.58809
245.58774
245.58768
245.58766
245.58732
245.58715
245.58703
245.5867
245.5862
245.58745
245.58496
245.57873
245.6603
245.67994
245.69376
245.69028
245.67064
245.64739
245.62737
245.61276
245.60327
245.59774
245.59492
245.59369
245.59329
245.59319
245.59316
245.59311
245.59291
245.59257
245.59213
245.59166
245.59123
245.59091
245.5907
245.59057
245.59049
245.59039
245.59019
245.58988
245.58954
245.58928
245.58938
245.58936
245.58912
245.58895
245.58869
245.58845
245.58821
245.58789
245.58774
245.5878
245.5876
245.58722
245.58708
245.58683
245.5866
245.58608
245.58727
245.58495
245.57923
245.65699
245.67678
245.69018
245.6861
245.66666
245.64412
245.62492
245.61099
245.602
245.59678
245.59412
245.59295
245.59256
245.59247
245.59243
245.59233
245.59207
245.59167
245.59121
245.59076
245.59041
245.59015
245.58998
245.58986
245.58979
245.58972
245.58966
245.58948
245.58947
245.5894
245.58906
245.58891
245.58883
245.58849
245.58818
245.58797
245.58792
245.58782
245.58784
245.5879
245.58765
245.58722
245.58696
245.58671
245.58658
245.58588
245.58704
245.5847
245.57987
245.65435
245.6742
245.68701
245.68222
245.66294
245.64107
245.62267
245.60942
245.60093
245.59605
245.59358
245.59249
245.5921
245.59197
245.59192
245.59177
245.59144
245.59098
245.59051
245.59008
245.58976
245.58956
245.58946
245.58943
245.58941
245.58937
245.58933
245.58926
245.58904
245.58894
245.58889
245.58879
245.58864
245.5884
245.58807
245.58784
245.5877
245.58772
245.58781
245.58788
245.58763
245.5872
245.58694
245.5867
245.5865
245.5858
245.58678
245.58405
245.58
245.65243
245.67227
245.68443
245.67892
245.65982
245.63862
245.62098
245.6084
245.60037
245.59578
245.59346
245.59242
245.59202
245.59186
245.59177
245.59158
245.59123
245.59077
245.5903
245.5899
245.58963
245.58946
245.58935
245.58927
245.58924
245.58922
245.58902
245.58881
245.58866
245.58857
245.58868
245.58866
245.58843
245.58812
245.58789
245.5877
245.58764
245.58768
245.58769
245.58781
245.58761
245.58718
245.58701
245.5867
245.58641
245.5858
245.5865
245.5837
245.57988
245.60758
245.59994
245.59557
245.59336
245.59239
245.59201
245.59184
245.59169
245.59146
245.59107
245.5906
245.59012
245.5897
245.58936
245.58911
245.58895
245.58887
245.58874
245.5885
245.58831
245.58832
245.58843
245.58861
245.58853
245.58844
245.58831
245.58809
245.58778
245.58757
245.58743
245.58744
245.58763
245.5878
245.58758
245.58721
245.58708
245.5867
245.58633
245.58582
245.58629
245.5836
245.57949
245.58924
245.58888
245.58865
245.58847
245.58829
245.58813
245.5881
245.58826
245.58843
245.58853
245.58862
245.58854
245.58847
245.58836
245.58815
245.58781
245.58746
245.58725
245.58732
245.58757
245.58769
245.5875
245.58728
245.5871
245.58668
245.58622
245.5858
245.58618
245.58354
245.57919
245.58842
245.58842
245.58848
245.58845
245.58841
245.58825
245.58812
245.58782
245.58743
245.58725
245.58726
245.58743
245.58753
245.58748
245.58724
245.58697
245.58664
245.58612
245.58576
245.58612
245.58352
245.57907
245.58777
245.58742
245.58725
245.58726
245.58738
245.58741
245.58737
245.58713
245.58679
245.58646
245.58594
245.5857
245.58604
245.58355
245.579
245.58734
245.58735
245.58728
245.58694
245.5866
245.58615
245.5857
245.58565
245.58598
245.58371
245.57897
245.58665
245.58632
245.58576
245.58546
245.5856
245.58597
245.58382
245.57892
245.58528
245.58554
245.58605
245.58379
245.5788
245.58626
245.5837
245.57866
245.5786
)
;

boundaryField
{
    Side
    {
        type            empty;
    }
    Inlet
    {
        type            totalTemperature;
        gamma           1.4;
        T0              uniform 250;
        value           nonuniform List<scalar> 
48
(
245.58617
245.58614
245.58609
245.58602
245.58599
245.58599
245.58604
245.58609
245.5861
245.58606
245.58599
245.58591
245.58581
245.58573
245.58566
245.58561
245.58555
245.5855
245.58546
245.58542
245.58538
245.58535
245.58531
245.58528
245.58526
245.58523
245.58521
245.58617
245.58615
245.58613
245.58609
245.586
245.58599
245.58607
245.5861
245.58605
245.586
245.586
245.58602
245.58604
245.58606
245.58605
245.58602
245.58599
245.58597
245.58595
245.58594
245.58594
)
;
    }
    Airfoil
    {
        type            zeroGradient;
    }
    Outlet
    {
        type            inletOutlet;
        inletValue      nonuniform List<scalar> 0();
        value           nonuniform List<scalar> 0();
    }
    procBoundary3to2
    {
        type            processor;
        value           nonuniform List<scalar> 
65
(
245.81154
245.82454
245.76627
245.69614
245.64872
245.62256
245.60957
245.60391
245.60212
245.60222
245.60222
245.60463
245.60597
245.60709
245.60778
245.60777
245.607
245.60584
245.60434
245.6028
245.60148
245.60023
245.59954
245.59922
245.59895
245.59895
245.59893
245.59833
245.59759
245.59627
245.59563
245.59546
245.59546
245.59503
245.59409
245.59324
245.59324
245.59231
245.59153
245.59057
245.59057
245.58948
245.58928
245.58928
245.58911
245.58911
245.58775
245.58724
245.58724
245.58608
245.58608
245.58568
245.58568
245.58455
245.58455
245.5843
245.58369
245.58369
245.58381
245.58381
245.58372
245.58387
245.58387
245.58368
245.57643
)
;
    }
    procBoundary3to4
    {
        type            processor;
        value           nonuniform List<scalar> 
57
(
245.67061
245.68212
245.67598
245.65711
245.63654
245.61959
245.61959
245.60673
245.59948
245.59536
245.5932
245.59219
245.5918
245.59165
245.59153
245.59125
245.5908
245.59023
245.58969
245.58969
245.58915
245.58891
245.58869
245.58848
245.5883
245.58821
245.58826
245.58841
245.58841
245.58818
245.58825
245.58828
245.58832
245.58823
245.58814
245.58808
245.58808
245.58773
245.58747
245.58729
245.58727
245.58727
245.58728
245.58723
245.58708
245.58708
245.58637
245.58589
245.58535
245.58535
245.58513
245.58547
245.58547
245.58637
245.58381
245.58381
245.57882
)
;
    }
    procBoundary3to10
    {
        type            processor;
        value           nonuniform List<scalar> 
23
(
245.69195
245.69676
245.70181
245.7062
245.71158
245.71853
245.72698
245.73561
245.75016
245.74319
245.75016
245.68702
245.68191
245.67681
245.67288
245.67014
245.66803
245.66591
245.66338
245.66026
245.65686
245.65388
245.65157
)
;
    }
    procBoundary3to11
    {
        type            processor;
        value           uniform 245.65084;
    }
}


// ************************************************************************* //
