/*--------------------------------*- C++ -*----------------------------------*\
| =========                 |                                                 |
| \\      /  F ield         | OpenFOAM: The Open Source CFD Toolbox           |
|  \\    /   O peration     | Version:  2506                                  |
|   \\  /    A nd           | Website:  www.openfoam.com                      |
|    \\/     M anipulation  |                                                 |
\*---------------------------------------------------------------------------*/
FoamFile
{
    version     2.0;
    format      ascii;
    arch        "LSB;label=32;scalar=64";
    class       volScalarField;
    location    "2.75";
    object      p;
}
// * * * * * * * * * * * * * * * * * * * * * * * * * * * * * * * * * * * * * //

dimensions      [1 -1 -2 0 0 0 0];

internalField   nonuniform List<scalar> 
1375
(
47043.797
47044.509
47044.995
47045.379
47045.759
47046.375
47046.813
47047.087
47047.638
47043.782
47044.499
47044.983
47045.369
47045.744
47046.361
47046.8
47047.072
47047.618
47048.542
47043.77
47044.49
47044.967
47045.355
47045.736
47046.352
47046.787
47047.065
47047.606
47048.514
47043.761
47044.471
47044.955
47045.342
47045.728
47046.342
47046.772
47047.056
47047.589
47048.483
47043.754
47044.446
47044.947
47045.331
47045.712
47046.329
47046.756
47047.044
47047.567
47048.463
47043.749
47044.424
47044.927
47045.317
47045.695
47046.312
47046.735
47047.037
47047.535
47048.432
47043.745
47044.4
47044.904
47045.303
47045.674
47046.289
47046.708
47047.039
47047.49
47048.399
47043.742
47044.37
47044.88
47045.277
47045.649
47046.26
47046.674
47047.035
47047.448
47048.361
47043.742
47044.32
47044.857
47045.268
47045.618
47046.224
47046.633
47047.026
47047.414
47048.315
47043.735
47044.293
47044.823
47045.246
47045.58
47046.181
47046.58
47047.031
47047.371
47048.261
47043.715
47044.297
47044.797
47045.197
47045.536
47046.124
47046.562
47047.002
47047.319
47048.198
47043.693
47044.272
47044.773
47045.145
47045.497
47046.058
47046.582
47046.938
47047.257
47048.123
47049.036
47043.669
47044.243
47044.742
47045.079
47045.466
47045.983
47046.593
47046.886
47047.182
47048.035
47048.96
47043.641
47044.21
47044.707
47045.019
47045.415
47045.892
47046.627
47046.819
47047.104
47047.929
47048.871
47043.61
47044.176
47044.667
47044.954
47045.348
47045.833
47046.597
47046.762
47047.029
47047.8
47048.766
47043.574
47044.138
47044.624
47044.885
47045.275
47045.811
47046.485
47046.743
47046.94
47047.652
47048.647
47043.533
47044.088
47044.576
47044.815
47045.206
47045.752
47046.375
47046.735
47046.847
47047.489
47048.51
47043.485
47044.025
47044.517
47044.746
47045.137
47045.67
47046.257
47046.71
47046.782
47047.29
47048.348
47043.431
47043.949
47044.447
47044.678
47045.063
47045.577
47046.109
47046.649
47046.79
47047.085
47048.15
47043.379
47043.861
47044.364
47044.607
47044.985
47045.477
47045.942
47046.53
47046.837
47046.907
47047.942
47043.34
47043.762
47044.265
47044.53
47044.907
47045.373
47045.791
47046.374
47046.848
47046.856
47047.508
47043.309
47043.667
47044.154
47044.441
47044.818
47045.271
47045.646
47046.16
47046.706
47046.875
47047.207
47043.285
47043.581
47044.035
47044.341
47044.737
47045.154
47045.487
47045.931
47046.492
47046.806
47047.077
47043.251
47043.491
47043.927
47044.277
47044.629
47045.05
47045.362
47045.695
47046.274
47046.705
47046.831
47043.194
47043.438
47043.839
47044.191
47044.487
47044.926
47045.261
47045.485
47046.011
47046.485
47046.601
47043.148
47043.405
47043.75
47044.098
47044.384
47044.743
47045.117
47045.347
47045.657
47046.23
47046.414
47046.662
47043.096
47043.338
47043.731
47044.01
47044.231
47044.588
47044.894
47045.224
47045.469
47045.774
47046.137
47046.404
47043.077
47043.281
47043.629
47043.925
47044.096
47044.47
47044.613
47044.89
47045.358
47045.428
47045.62
47046.073
47043.049
47043.202
47043.511
47043.845
47043.969
47044.274
47044.448
47044.529
47044.817
47045.251
47045.206
47045.396
47043.056
47043.141
47043.514
47043.716
47043.852
47044.072
47044.311
47044.46
47044.426
47044.774
47044.686
47044.72
47042.988
47043.123
47043.383
47043.561
47043.745
47043.919
47044
47044.259
47044.324
47044.151
47044.375
47044.412
47042.829
47043.094
47043.271
47043.459
47043.616
47043.779
47043.866
47043.928
47043.884
47043.788
47044.107
47044.309
47044.053
47042.976
47043.069
47043.199
47043.341
47043.428
47043.564
47043.732
47043.635
47043.613
47043.561
47043.659
47043.636
47043.446
47042.974
47043.057
47043.085
47043.226
47043.238
47043.258
47043.359
47043.383
47043.445
47043.647
47043.431
47043.039
47043.124
47042.95
47043.004
47042.971
47043.107
47043.129
47043.024
47042.972
47043.025
47043.19
47043.33
47043.127
47043.132
47042.917
47042.503
47042.915
47042.906
47042.871
47042.93
47042.999
47042.891
47042.762
47042.764
47042.887
47042.843
47042.965
47042.774
47042.492
47042.365
47042.74
47042.822
47042.813
47042.757
47042.745
47042.722
47042.668
47042.618
47042.614
47042.478
47042.413
47042.185
47042.086
47042.212
47042.534
47042.626
47042.729
47042.702
47042.613
47042.553
47042.526
47042.453
47042.324
47042.173
47041.951
47041.813
47041.806
47041.679
47041.509
47042.372
47042.381
47042.475
47042.484
47042.362
47042.277
47042.232
47042.177
47042.06
47041.969
47041.871
47041.687
47041.462
47041.16
47041.089
47042.278
47042.276
47042.279
47042.273
47042.194
47042.094
47041.963
47041.844
47041.772
47041.718
47041.666
47041.508
47041.434
47041.322
47041.163
47040.879
47042.046
47042.034
47041.931
47041.867
47041.802
47041.699
47041.582
47041.477
47041.417
47041.335
47041.188
47041.118
47041.063
47041.034
47040.876
47040.717
47040.663
47041.983
47041.928
47041.853
47041.736
47041.579
47041.438
47041.325
47041.238
47041.166
47041.11
47041.015
47040.954
47040.954
47040.902
47040.761
47040.701
47040.529
47041.771
47041.641
47041.526
47041.362
47041.181
47041.017
47040.896
47040.794
47040.687
47040.622
47040.633
47040.636
47040.526
47040.434
47040.459
47040.327
47040.186
47040.067
47041.371
47041.316
47041.199
47041.086
47040.977
47040.867
47040.778
47040.649
47040.561
47040.525
47040.507
47040.415
47040.358
47040.469
47040.414
47040.331
47040.319
47040.271
47040.182
47040.888
47040.81
47040.699
47040.561
47040.433
47040.334
47040.219
47040.108
47040.063
47040.012
47039.952
47039.936
47039.9
47039.83
47039.773
47039.787
47039.734
47039.697
47039.617
47039.522
47040.592
47040.57
47040.527
47040.429
47040.31
47040.19
47040.052
47039.977
47039.916
47039.869
47039.857
47039.855
47039.853
47039.858
47039.85
47039.807
47039.781
47039.727
47039.649
47039.593
47039.558
47039.528
47040.396
47040.364
47040.263
47040.15
47040.043
47039.962
47039.89
47039.818
47039.751
47039.709
47039.683
47039.659
47039.641
47039.646
47039.647
47039.618
47039.583
47039.556
47039.478
47039.379
47039.305
47039.231
47039.149
47040.448
47040.368
47040.27
47040.185
47040.133
47040.052
47039.972
47039.946
47039.952
47039.919
47039.904
47039.932
47039.971
47040.007
47040.028
47040.043
47040.034
47040.017
47039.987
47039.974
47039.95
47039.924
47039.918
47039.92
47039.914
47040.202
47040.118
47040.038
47039.976
47039.92
47039.792
47039.698
47039.672
47039.597
47039.507
47039.483
47039.448
47039.4
47039.388
47039.375
47039.33
47039.291
47039.278
47039.263
47039.23
47039.191
47039.159
47039.131
47039.097
47039.054
47039.022
47039.001
47043.822
47043.813
47043.804
47043.796
47043.784
47043.766
47043.742
47043.712
47043.678
47043.638
47043.593
47043.548
47043.499
47043.449
47043.4
47043.356
47043.318
47043.288
47043.27
47043.258
47043.251
47043.24
47043.21
47043.171
47043.138
47043.115
47043.076
47042.99
47042.831
47042.795
47042.769
47042.84
47042.867
47042.889
47042.901
47042.826
47042.689
47042.522
47042.4
47042.182
47041.995
47042.035
47041.868
47041.405
47040.938
47040.645
47040.459
47040.504
47040.247
47043.482
47043.475
47043.468
47043.462
47043.455
47043.448
47043.441
47043.433
47043.423
47043.41
47043.397
47043.386
47043.374
47043.362
47043.348
47043.33
47043.305
47043.278
47043.258
47043.239
47043.208
47043.173
47043.14
47043.105
47043.042
47042.813
47042.613
47042.725
47042.833
47042.803
47042.82
47042.842
47042.809
47042.824
47042.771
47042.705
47042.615
47042.485
47042.323
47042.089
47042.034
47042.095
47041.924
47041.457
47040.984
47040.733
47040.511
47040.518
47040.298
47043.074
47043.067
47043.063
47043.062
47043.065
47043.071
47043.082
47043.1
47043.11
47043.105
47043.1
47043.103
47043.118
47043.135
47043.137
47043.154
47043.171
47043.161
47043.121
47043.057
47042.986
47042.882
47042.778
47042.72
47042.687
47042.768
47042.899
47042.867
47042.806
47042.812
47042.788
47042.711
47042.676
47042.584
47042.496
47042.564
47042.49
47042.445
47042.197
47042.117
47042.165
47042.258
47041.939
47041.412
47041.024
47040.836
47040.531
47040.356
47040.319
47042.638
47042.644
47042.65
47042.653
47042.652
47042.646
47042.631
47042.604
47042.597
47042.637
47042.692
47042.742
47042.779
47042.817
47042.866
47042.864
47042.824
47042.791
47042.752
47042.719
47042.681
47042.682
47042.728
47042.771
47042.809
47042.869
47042.881
47042.837
47042.803
47042.693
47042.513
47042.36
47042.245
47042.252
47042.346
47042.421
47042.392
47042.27
47042.124
47042.218
47042.31
47042.328
47041.868
47041.448
47041.134
47040.929
47040.567
47040.448
47040.349
47042.246
47042.261
47042.277
47042.295
47042.315
47042.336
47042.361
47042.385
47042.406
47042.408
47042.399
47042.388
47042.374
47042.36
47042.359
47042.405
47042.441
47042.448
47042.473
47042.511
47042.56
47042.615
47042.652
47042.646
47042.601
47042.545
47042.451
47042.357
47042.247
47042.124
47042.121
47042.142
47042.139
47042.227
47042.298
47042.294
47042.192
47042.058
47042.192
47042.376
47042.345
47042.282
47041.794
47041.44
47041.232
47041.13
47040.627
47040.434
47040.375
47041.915
47041.934
47041.953
47041.973
47041.993
47042.013
47042.035
47042.055
47042.065
47042.068
47042.071
47042.076
47042.086
47042.101
47042.098
47042.081
47042.102
47042.15
47042.201
47042.249
47042.282
47042.278
47042.276
47042.237
47042.146
47042.042
47042.015
47042.047
47042.084
47042.174
47042.322
47042.388
47042.31
47042.192
47042.064
47041.944
47041.92
47042.131
47042.439
47042.417
47042.253
47042.146
47041.8
47041.503
47041.313
47041.238
47040.667
47040.471
47040.428
47041.701
47041.709
47041.719
47041.729
47041.741
47041.755
47041.769
47041.777
47041.792
47041.817
47041.843
47041.866
47041.883
47041.904
47041.899
47041.903
47041.949
47041.985
47042.019
47042.047
47042.077
47042.101
47042.091
47042.097
47042.114
47042.111
47042.09
47042.085
47042.175
47042.242
47042.271
47042.255
47042.254
47042.122
47041.967
47041.919
47042.069
47042.344
47042.398
47042.334
47042.119
47041.978
47041.794
47041.591
47041.398
47041.241
47040.694
47040.564
47040.495
47041.55
47041.567
47041.587
47041.61
47041.633
47041.655
47041.676
47041.705
47041.719
47041.715
47041.716
47041.722
47041.732
47041.727
47041.749
47041.79
47041.812
47041.853
47041.898
47041.946
47042.006
47042.087
47042.161
47042.205
47042.235
47042.28
47042.29
47042.238
47042.156
47042.121
47042.095
47042.199
47042.26
47042.204
47042.114
47042.093
47042.17
47042.209
47042.158
47042.082
47041.973
47041.873
47041.682
47041.618
47041.543
47041.235
47040.705
47040.677
47040.567
47041.338
47041.357
47041.377
47041.399
47041.422
47041.446
47041.47
47041.498
47041.534
47041.574
47041.609
47041.642
47041.677
47041.721
47041.769
47041.81
47041.844
47041.875
47041.9
47041.922
47041.941
47041.97
47042.052
47042.179
47042.295
47042.353
47042.381
47042.414
47042.373
47042.329
47042.307
47042.237
47042.172
47042.153
47042.133
47042.15
47042.087
47042
47041.91
47041.902
47041.878
47041.725
47041.635
47041.657
47041.509
47041.182
47040.683
47040.733
47040.622
47041.164
47041.183
47041.204
47041.226
47041.252
47041.281
47041.314
47041.351
47041.392
47041.437
47041.484
47041.534
47041.587
47041.641
47041.697
47041.753
47041.809
47041.868
47041.929
47041.997
47042.072
47042.135
47042.152
47042.138
47042.172
47042.251
47042.354
47042.346
47042.266
47042.295
47042.321
47042.315
47042.253
47042.204
47042.18
47042.083
47041.938
47041.845
47041.752
47041.731
47041.732
47041.568
47041.632
47041.652
47041.429
47041.084
47040.665
47040.756
47040.645
47041.099
47041.115
47041.133
47041.152
47041.172
47041.195
47041.22
47041.25
47041.284
47041.321
47041.361
47041.406
47041.456
47041.511
47041.567
47041.625
47041.685
47041.749
47041.814
47041.871
47041.919
47041.973
47042.038
47042.1
47042.165
47042.201
47042.113
47042.123
47042.239
47042.183
47042.178
47042.172
47042.175
47042.116
47042.051
47041.98
47041.899
47041.828
47041.731
47041.653
47041.663
47041.6
47041.649
47041.535
47041.311
47040.941
47040.602
47040.722
47040.677
47041.073
47041.095
47041.115
47041.134
47041.151
47041.165
47041.176
47041.185
47041.197
47041.217
47041.244
47041.276
47041.314
47041.356
47041.403
47041.454
47041.508
47041.564
47041.613
47041.654
47041.675
47041.673
47041.663
47041.713
47041.797
47041.841
47041.931
47041.942
47041.955
47042.02
47042.03
47042.023
47042.06
47042.047
47042.019
47041.944
47041.884
47041.809
47041.779
47041.705
47041.691
47041.62
47041.603
47041.375
47041.16
47040.764
47040.466
47040.642
47040.708
47041.134
47041.138
47041.139
47041.141
47041.145
47041.155
47041.174
47041.195
47041.224
47041.255
47041.295
47041.346
47041.393
47041.447
47041.503
47041.569
47041.598
47041.588
47041.637
47041.684
47041.763
47041.833
47041.895
47041.94
47041.976
47042.004
47042.011
47042.002
47041.98
47041.987
47041.967
47041.829
47041.783
47041.779
47041.632
47041.531
47041.213
47040.982
47040.614
47040.356
47040.561
47040.66
47041.368
47041.42
47041.471
47041.513
47041.53
47041.538
47041.558
47041.589
47041.659
47041.72
47041.775
47041.841
47041.922
47041.999
47042.089
47042.147
47042.15
47042.082
47042.048
47041.965
47041.885
47041.79
47041.66
47041.377
47041.046
47040.852
47040.519
47040.251
47040.478
47040.582
47041.58
47041.644
47041.684
47041.744
47041.864
47042.001
47042.12
47042.206
47042.212
47042.166
47042.148
47042.053
47041.982
47041.809
47041.562
47041.198
47040.934
47040.79
47040.462
47040.159
47040.393
47040.485
47042.263
47042.299
47042.292
47042.186
47042.041
47041.919
47041.699
47041.497
47041.157
47040.906
47040.772
47040.42
47040.092
47040.301
47040.389
47042.013
47041.827
47041.596
47041.412
47041.157
47040.947
47040.764
47040.418
47040.053
47040.262
47040.306
47041.362
47041.209
47041.009
47040.753
47040.448
47040.057
47040.263
47040.251
47040.735
47040.48
47040.154
47040.269
47040.242
47040.292
47040.296
47040.281
47040.328
)
;

boundaryField
{
    Side
    {
        type            empty;
    }
    Inlet
    {
        type            totalPressure;
        rho             rho;
        psi             none;
        gamma           1;
        p0              uniform 50000;
        value           nonuniform List<scalar> 
48
(
47040.879
47040.88
47040.865
47040.859
47040.855
47040.772
47040.667
47040.604
47040.557
47040.509
47040.488
47040.497
47040.55
47040.578
47040.588
47040.594
47040.597
47040.598
47040.599
47040.582
47040.549
47040.528
47040.515
47040.505
47040.497
47040.492
47040.493
47040.878
47040.878
47040.884
47040.887
47040.881
47040.868
47040.848
47040.833
47040.826
47040.838
47040.877
47040.907
47040.913
47040.919
47040.918
47040.915
47040.908
47040.897
47040.881
47040.858
47040.828
)
;
    }
    Airfoil
    {
        type            zeroGradient;
    }
    Outlet
    {
        type            fixedValue;
        value           nonuniform List<scalar> 0();
    }
    procBoundary3to2
    {
        type            processor;
        value           nonuniform List<scalar> 
65
(
47049.452
47049.437
47049.418
47049.387
47049.362
47049.327
47049.27
47049.22
47049.165
47049.104
47049.104
47050.057
47049.958
47049.835
47049.69
47049.529
47049.354
47049.175
47048.973
47048.704
47048.465
47048.199
47047.8
47047.422
47047.061
47047.061
47047.184
47046.571
47046.326
47045.816
47045.092
47044.509
47044.509
47044.004
47043.658
47042.962
47042.962
47042.526
47042.12
47041.853
47041.853
47041.593
47041.057
47041.057
47040.713
47040.713
47040.498
47040.374
47040.374
47040.043
47040.043
47040.082
47040.082
47039.482
47039.482
47039.448
47039.5
47039.5
47039.094
47039.094
47039.069
47039.893
47039.893
47039.866
47038.971
)
;
    }
    procBoundary3to4
    {
        type            processor;
        value           nonuniform List<scalar> 
57
(
47041.028
47041.049
47041.069
47041.09
47041.11
47041.125
47041.125
47041.077
47041.113
47041.153
47041.196
47041.233
47041.25
47041.246
47041.236
47041.245
47041.264
47041.29
47041.324
47041.324
47041.332
47041.336
47041.352
47041.384
47041.415
47041.448
47041.487
47041.526
47041.526
47041.504
47041.548
47041.628
47041.736
47041.864
47042.013
47042.165
47042.165
47042.197
47042.236
47042.198
47042.097
47042.097
47041.903
47041.714
47041.486
47041.486
47041.37
47041.258
47041.051
47041.051
47040.756
47040.549
47040.549
47040.428
47040.359
47040.359
47040.344
)
;
    }
    procBoundary3to10
    {
        type            processor;
        value           nonuniform List<scalar> 
23
(
47043.808
47044.516
47045.007
47045.384
47045.766
47046.38
47046.818
47047.092
47048.566
47047.646
47048.566
47043.831
47043.49
47043.085
47042.638
47042.24
47041.905
47041.697
47041.541
47041.329
47041.152
47041.089
47041.056
)
;
    }
    procBoundary3to11
    {
        type            processor;
        value           uniform 47041.007;
    }
}


// ************************************************************************* //
