/*--------------------------------*- C++ -*----------------------------------*\
| =========                 |                                                 |
| \\      /  F ield         | OpenFOAM: The Open Source CFD Toolbox           |
|  \\    /   O peration     | Version:  2506                                  |
|   \\  /    A nd           | Website:  www.openfoam.com                      |
|    \\/     M anipulation  |                                                 |
\*---------------------------------------------------------------------------*/
FoamFile
{
    version     2.0;
    format      ascii;
    arch        "LSB;label=32;scalar=64";
    class       volScalarField;
    location    "2.45";
    object      omega;
}
// * * * * * * * * * * * * * * * * * * * * * * * * * * * * * * * * * * * * * //

dimensions      [0 0 -1 0 0 0 0];

internalField   nonuniform List<scalar> 
1375
(
1565.5532
603.89736
211.76237
206.26261
1599.1137
593.03426
210.75333
206.38388
116.89243
94.4525
60.392714
56.363048
47.461038
44.466285
42.09009
40.959993
1634.3025
601.60977
219.44571
197.27424
112.58329
92.521579
61.020038
57.841043
49.350928
44.877292
42.500906
41.076983
40.106689
39.246414
38.708178
38.256392
38.039075
37.85577
37.716714
37.633174
37.583321
37.556045
1671.585
613.43894
234.74554
181.98181
109.14688
93.865761
63.032253
59.158304
50.790211
45.601869
43.133366
41.209149
40.128749
39.590556
38.754115
38.313374
38.005922
37.813345
37.670861
37.583419
37.532377
37.502111
37.490299
37.488445
37.4883
37.503836
37.528709
37.558673
37.599819
37.645646
37.701948
37.768754
37.848093
37.941749
1708.3624
650.4709
240.97208
179.16182
110.85457
96.619078
66.65499
60.355795
51.098208
46.696989
43.371307
41.224309
40.319819
39.566629
38.818326
38.307196
38.071222
37.846909
37.667339
37.558607
37.496771
37.456329
37.434865
37.430223
37.428295
37.438202
37.456608
37.48305
37.518357
37.559694
37.610373
37.671175
37.74342
37.829882
37.933056
38.056147
38.202634
38.378185
38.589044
38.843454
39.152267
39.530008
39.996538
40.58109
41.327211
42.306865
43.652192
45.643846
48.958063
1745.032
675.8341
247.94162
183.79119
112.64347
102.87138
71.303476
63.372242
51.033995
46.996208
43.704309
41.963377
40.760289
39.599687
39.04812
38.324844
38.048704
37.811344
37.655906
37.541791
37.466053
37.418108
37.387183
37.3728
37.366766
37.373622
37.389946
37.409636
37.43829
37.475622
37.521096
37.575819
37.641448
37.72125
37.816752
37.931447
38.068945
38.234455
38.434019
38.675725
38.970155
39.331478
39.779278
40.341676
41.061412
42.008572
43.311997
45.245361
48.484602
1777.5871
658.60899
252.7326
193.99088
113.60193
103.34272
71.436488
62.805625
51.131723
46.955133
43.891523
42.321611
40.791495
40.204196
39.100804
38.35275
38.034027
37.812544
37.610739
37.489896
37.413319
37.366268
37.340458
37.322953
37.306855
37.307292
37.321668
37.336147
37.361434
37.393604
37.433486
37.482192
37.542128
37.615723
37.70408
37.810846
37.939858
38.095792
38.284721
38.514579
38.795542
39.141515
39.571835
40.113446
40.808507
41.72524
42.989539
44.868647
48.038914
1817.3976
657.85436
250.35927
195.46496
112.72548
102.42584
71.048769
62.946794
51.313945
46.997411
44.113423
42.193252
40.925098
40.080237
39.067203
38.376975
38.149469
37.823801
37.597432
37.4573
37.374349
37.314959
37.287368
37.269355
37.247618
37.242304
37.252323
37.262645
37.285295
37.313003
37.347135
37.39064
37.445299
37.513088
37.594659
37.694013
37.815057
37.961926
38.140845
38.359612
38.627926
38.959514
39.373427
39.895651
40.56763
41.455889
42.683643
44.512179
47.618859
1847.7714
646.91178
248.56575
192.74466
111.89612
100.38064
70.462074
64.408163
51.820574
47.651576
44.148727
42.788631
41.217891
40.056849
39.038972
38.400044
38.071453
37.808334
37.591644
37.454205
37.35206
37.27967
37.238259
37.214013
37.184431
37.179031
37.183414
37.190883
37.210279
37.2332
37.262605
37.301653
37.350976
37.413153
37.488246
37.580738
37.694202
37.832547
38.002064
38.210469
38.466916
38.785142
39.183561
39.687634
40.338023
41.199666
42.39327
44.174662
47.22206
1894.9192
713.65448
254.66794
186.31205
112.65925
97.625403
70.468969
64.783903
52.639058
48.616718
44.159373
43.407246
41.239001
40.288385
39.095864
38.489821
38.069555
37.783129
37.558712
37.42006
37.311207
37.241678
37.18616
37.158091
37.123837
37.116017
37.115374
37.121194
37.136413
37.154781
37.180369
37.215029
37.258859
37.316034
37.384739
37.470862
37.577081
37.70741
37.868149
38.066796
38.312155
38.617882
39.001715
39.488786
40.118981
40.955766
42.11749
43.854902
46.847246
1913.9035
699.47617
259.74277
179.22408
114.09653
94.859204
70.612685
64.615883
53.745772
49.420811
44.41889
43.436833
41.222489
40.260046
39.192943
38.470016
38.100223
37.772667
37.535476
37.380122
37.26514
37.196234
37.127572
37.101118
37.068703
37.054321
37.049343
37.052526
37.063126
37.078341
37.10003
37.130013
37.168835
37.221094
37.283997
37.364049
37.463442
37.586308
37.738879
37.928239
38.163218
38.45724
38.827399
39.29855
39.909905
40.723459
41.855411
43.551791
46.493827
1949.2807
755.64593
266.15552
175.71655
115.8924
94.318601
70.264401
64.805215
54.737495
50.433467
44.990289
43.383908
41.315646
40.276161
39.226336
38.461214
38.099381
37.7541
37.52122
37.344443
37.226441
37.148983
37.074944
37.047236
37.012133
36.992277
36.984906
36.983997
36.99083
37.003406
37.020741
37.046445
37.081151
37.12799
37.185763
37.260097
37.353075
37.469066
37.613923
37.794552
38.019826
38.302806
38.660157
39.116428
39.710202
40.502031
41.606158
43.264287
46.160949
1986.7566
724.76654
263.85913
174.36416
116.23713
94.552117
70.150943
65.306485
55.178592
51.723386
45.581531
43.362574
41.437338
40.404199
39.23329
38.514049
38.088346
37.751252
37.490214
37.300571
37.182597
37.097301
37.028136
36.994824
36.955036
36.930438
36.920888
36.915217
36.919378
36.929005
36.94211
36.964449
36.995053
37.036593
37.089814
37.15874
37.245779
37.355362
37.492889
37.665326
37.881629
38.154253
38.499532
38.941915
39.519259
40.290773
41.368911
42.991386
45.847374
2036.4202
702.273
267.24223
173.20398
115.75402
94.35859
70.365229
65.30946
55.612573
53.09327
46.34142
43.435646
41.554556
40.367874
39.231659
38.586165
38.070687
37.757147
37.456617
37.267392
37.138172
37.052111
36.983524
36.941361
36.896184
36.869136
36.856037
36.847001
36.847978
36.854853
36.864418
36.883599
36.910002
36.946952
36.995936
37.059742
37.141253
37.244806
37.375469
37.540289
37.748194
38.011068
38.345075
38.774505
39.336485
40.088989
41.142873
2082.3904
674.61509
263.01562
169.06953
114.64824
93.78535
70.983167
65.142665
56.38985
54.332869
46.984494
43.648895
41.675659
40.357663
39.259849
38.650504
38.073248
37.74001
37.427257
37.237373
37.095559
37.013449
36.936501
36.885592
36.836664
36.807396
36.790665
36.77963
36.776785
36.781393
36.787924
36.803627
36.826257
36.85919
36.903996
36.963023
37.03934
37.137248
37.261551
37.419227
37.619272
37.873005
38.196491
38.613827
39.161412
39.896135
2132.32
692.25881
272.60773
168.13075
114.93732
93.13896
71.985479
64.807858
57.383365
55.192806
47.729025
44.221286
41.752533
40.377782
39.341556
38.653624
38.075025
37.686697
37.409289
37.197726
37.055894
36.971621
36.880313
36.829337
36.777468
36.745136
36.72588
36.712618
36.706479
36.709083
36.712436
36.724848
36.744005
36.773188
36.813926
36.868553
36.940009
37.032645
37.150992
37.301982
37.494658
37.739831
38.053517
38.45954
38.99361
2152.8811
680.8361
270.60697
166.8886
115.04409
92.428539
72.695103
64.504873
58.290121
55.923713
48.699129
44.676768
41.813616
40.438066
39.383057
38.633093
38.07338
37.670922
37.387256
37.150838
37.017553
36.921222
36.816829
36.779216
36.717991
36.683378
36.661798
36.645583
36.637414
36.637547
36.63769
36.647281
36.663053
36.688614
36.725601
36.776156
36.843083
36.930762
37.04352
37.188315
37.374057
37.611222
37.915797
38.311238
2201.8845
791.22839
282.86623
168.81453
115.02444
92.477874
73.205709
64.672432
59.020952
56.578671
49.062432
44.827496
41.958777
40.449201
39.376262
38.621899
38.103643
37.668047
37.354548
37.115141
36.973413
36.865545
36.766702
36.730187
36.659619
36.622643
36.597665
36.5785
36.569089
36.566136
36.563384
36.570537
36.582969
36.605166
36.638776
36.685483
36.748209
36.831179
36.938759
37.07784
37.25705
37.486747
37.782866
2189.1809
765.64233
279.02111
167.97915
115.85664
93.155502
74.038648
65.047699
59.087995
56.552547
49.324344
45.044883
42.143537
40.415109
39.401588
38.648606
38.138267
37.647472
37.324685
37.088717
36.922935
36.816779
36.724683
36.673243
36.603749
36.561755
36.533443
36.511637
36.500757
36.494744
36.489616
36.494314
36.503717
36.522898
36.553391
36.596428
36.655247
36.733782
36.836592
36.970372
37.143448
37.366201
2224.6778
918.51318
291.39703
169.81249
118.42562
94.541915
75.105675
65.286404
59.059605
56.497708
49.835344
45.276716
42.221307
40.419493
39.463779
38.694649
38.111496
37.636073
37.307943
37.05692
36.875438
36.776683
36.67196
36.611989
36.548257
36.499575
36.469662
36.445115
36.432217
36.423625
36.416508
36.418637
36.425482
36.441967
36.469448
36.509032
36.564216
36.638606
36.737013
36.865831
37.033182
2217.2765
879.13368
288.10698
169.63561
118.6951
94.791535
75.624823
65.404899
59.23452
56.456092
50.415151
45.339271
42.349229
40.496225
39.460801
38.681033
38.099468
37.641673
37.279766
37.020005
36.836224
36.72787
36.617009
36.553214
36.48814
36.437013
36.405982
36.378715
36.363248
36.352672
36.343706
36.343366
36.348059
36.362038
36.386605
36.423022
36.474825
36.545384
36.639706
36.763899
2249.7472
973.29488
295.8783
170.25042
118.88365
95.237784
76.246286
65.700665
59.782091
56.332302
50.654152
45.458022
42.519644
40.568539
39.445516
38.69679
38.114341
37.633312
37.241511
36.986048
36.796217
36.676997
36.564844
36.497613
36.423866
36.375136
36.341342
36.312433
36.293729
36.28168
36.270921
36.26835
36.271102
36.282714
36.304513
36.338092
36.386748
36.453807
36.544334
2270.9048
915.07882
291.16297
169.09079
119.23878
95.152268
77.195628
66.04582
60.398279
56.163432
50.834307
45.780505
42.714118
40.630601
39.483161
38.757889
38.120216
37.593552
37.216828
36.953236
36.755367
36.628597
36.515899
36.438717
36.360649
36.313955
36.275608
36.246268
36.223949
36.210782
36.198173
36.193711
36.194529
36.203963
36.223163
36.254214
36.299963
36.363836
2319.0702
955.86179
298.21388
169.51063
121.07309
95.505523
78.722823
66.574338
60.72759
56.191794
51.14638
46.348739
42.980349
40.758304
39.632333
38.840633
38.115194
37.570999
37.209028
36.918403
36.714403
36.580614
36.463266
36.380464
36.300792
36.252254
36.209631
36.179761
36.154273
36.140172
36.125497
36.1195
36.118354
36.125827
36.142599
36.171381
36.214471
2342.8561
914.25649
297.65013
170.10927
122.56224
96.138308
79.575891
67.055862
60.767993
56.35562
51.540765
47.076569
43.506296
41.033944
39.819826
38.865835
38.124372
37.57844
37.195045
36.883076
36.671296
36.528578
36.407235
36.323785
36.241444
36.189104
36.143627
36.112165
36.084622
36.069515
36.052618
36.045326
36.042291
36.048012
36.062552
36.089273
2385.5267
958.89464
310.41888
174.09082
125.30796
97.634802
80.253394
67.797036
60.857477
56.377044
51.812628
47.783304
44.221
41.429895
39.940424
38.879138
38.156411
37.593899
37.171064
36.847991
36.623191
36.472434
36.348796
36.2649
36.18016
36.123535
36.076954
36.043154
36.01456
35.998324
35.979318
35.970774
35.966067
35.970198
35.982751
36.007583
2405.1329
939.99468
316.7476
177.61044
127.09516
98.591917
80.510194
68.162538
60.819297
56.255266
51.980227
48.557037
45.051162
41.764563
39.978046
38.881413
38.170987
37.596981
37.143501
36.812546
36.572264
36.413867
36.287598
36.201936
36.116506
36.055491
36.009168
35.97331
35.943824
35.926357
35.90568
35.895775
35.889706
35.89235
35.903194
2427.3079
999.3115
343.18258
185.92397
130.86724
100.32684
81.283431
68.625023
60.772427
55.980059
52.188236
49.177836
45.620901
41.982632
40.002001
38.888679
38.166015
37.58404
37.114695
36.77739
36.519872
36.352058
36.224098
36.13403
36.049363
35.985311
35.939648
35.902812
35.872262
35.853375
35.831628
35.820298
35.813126
35.81439
2430.9217
983.25968
344.61469
187.08865
131.51385
101.05662
81.863269
68.882458
60.78443
55.927282
52.58461
49.812763
46.070566
42.197097
40.077751
38.895393
38.139807
37.561926
37.082822
36.735967
36.468154
36.291377
36.159328
36.062296
35.978579
35.914082
35.868248
35.831197
35.799513
35.778978
35.756767
35.744143
35.736034
2432.1237
1052.7264
377.26926
194.3772
135.03183
102.93912
83.213358
69.589517
61.043448
56.049206
52.794175
50.008735
46.399389
42.476388
40.202208
38.947425
38.136241
37.511834
37.041878
36.692671
36.415036
36.231429
36.094948
35.988612
35.905644
35.842808
35.795461
35.758084
35.725416
35.702919
35.680694
2442.5814
1032.6719
374.418
195.3808
136.46416
104.81721
84.79635
70.672705
61.736996
56.430188
53.126122
50.224495
46.717499
42.90521
40.390583
38.987165
38.127235
37.48517
37.007234
36.649034
36.364789
36.174945
36.027952
35.914374
35.832224
35.770955
35.721397
35.682832
35.649539
35.625128
2435.1151
1136.1836
423.59768
207.41338
142.78872
108.32402
87.448161
72.377699
62.666206
56.925519
53.220402
50.329254
47.059812
43.227694
40.595064
39.071949
38.141181
37.472121
36.959004
36.593648
36.314259
36.112914
35.956814
35.840543
35.7577
35.696613
35.64515
35.604764
35.571067
2448.6686
1345.8545
487.41068
243.11259
154.70047
117.8369
93.146013
76.430463
65.162219
58.328144
54.098452
50.926837
47.608778
43.790755
40.953671
39.253816
38.2114
37.496038
36.968836
36.568321
36.271269
36.055212
35.890761
35.770327
35.684551
35.620547
35.566745
1195.0598
1323.2836
1474.6781
971.85397
1027.5901
1077.3055
1151.4897
1221.5574
1256.4973
473.41141
477.6292
475.85242
484.80243
494.20644
489.2158
231.19022
230.03601
227.17499
227.99064
231.24381
231.50944
148.19374
146.51211
145.40789
146.67363
151.12928
153.42153
111.50493
110.8099
110.4902
112.02947
115.28542
117.03377
90.121744
89.78155
89.631889
90.607982
92.323514
93.015162
76.408425
75.725078
75.375496
75.398399
76.099394
76.391777
66.8993
65.836995
65.338477
65.236044
65.238042
61.409757
59.873557
58.977772
58.581665
58.435128
56.704943
55.313571
54.560262
54.263171
54.165677
51.751695
50.961229
50.611799
50.54313
50.671796
46.831331
46.753059
46.752335
46.945229
47.29457
42.861513
42.981643
43.124128
43.303279
43.572315
40.337244
40.463275
40.59532
40.707626
40.837055
38.915915
39.011139
39.111632
39.196508
37.924935
38.023958
38.115299
38.160056
37.248421
37.319936
37.390512
37.454421
36.785179
36.852793
36.91377
36.373043
36.446444
36.50684
36.054701
36.130567
36.19987
35.90352
35.978195
35.742574
35.814556
35.624585
35.696391
35.608451
35.541742
)
;

boundaryField
{
    Side
    {
        type            empty;
    }
    Inlet
    {
        type            fixedValue;
        value           uniform 60.24606;
    }
    Airfoil
    {
        type            omegaWallFunction;
        blending        binomial;
        n               2;
        value           nonuniform List<scalar> 
33
(
1565.5532
1599.1137
1634.3025
1671.585
1708.3624
1745.032
1777.5871
1817.3976
1847.7714
1894.9192
1913.9035
1949.2807
1986.7566
2036.4202
2082.3904
2132.32
2152.8811
2201.8845
2189.1809
2224.6778
2217.2765
2249.7472
2270.9048
2319.0702
2342.8561
2385.5267
2405.1329
2427.3079
2430.9217
2432.1237
2442.5814
2435.1151
2448.6686
)
;
    }
    Outlet
    {
        type            inletOutlet;
        inletValue      nonuniform List<scalar> 0();
        value           nonuniform List<scalar> 0();
    }
    procBoundary1to0
    {
        type            processor;
        value           nonuniform List<scalar> 
53
(
1532.3747
614.78606
210.42256
176.21232
117.17663
117.17663
101.24431
63.083251
57.455419
47.629876
44.09216
41.776206
40.571521
39.84718
39.84718
39.127192
38.635898
38.248981
38.022
37.861915
37.743433
37.667613
37.625376
37.603004
37.54202
37.54202
37.540801
37.551705
37.572714
37.602571
37.636475
37.680245
37.733324
37.795899
37.869276
37.955654
38.057054
38.052972
38.052972
38.184989
38.341147
38.527321
38.750173
39.018151
39.342419
39.737718
40.22434
40.83248
41.606821
42.621237
44.011505
46.065875
49.461434
)
;
    }
    procBoundary1to2
    {
        type            processor;
        value           nonuniform List<scalar> 
75
(
42.732119
45.551668
42.732119
40.927394
40.927394
39.711702
39.711702
38.832637
38.832637
38.16842
38.16842
37.654471
37.654471
37.249477
37.249477
36.925923
36.925923
36.664243
36.664243
36.450837
36.450837
36.275449
36.275449
36.129969
36.129969
36.046144
35.926289
35.926289
35.823812
35.823812
35.736057
35.667001
35.736057
35.658064
35.667001
35.602958
35.602958
35.545182
35.524097
35.545182
35.489714
35.524097
35.48712
1088.9959
910.37847
462.72279
230.97504
149.69357
112.46723
90.65092
77.105425
68.367497
68.367497
63.32854
58.448151
52.700871
46.95051
42.757403
40.240153
38.828554
38.828554
37.843671
37.16838
36.712715
36.712715
36.288919
35.974055
35.828711
35.828711
35.668103
35.547902
35.534282
35.534282
35.46514
35.48712
)
;
    }
    procBoundary1to8
    {
        type            processor;
        value           nonuniform List<scalar> 8(2158.8056 1203.5632 1323.1661 1663.2895 1467.4593 1663.2895 1898.6017 2158.8056);
    }
}


// ************************************************************************* //
