/*--------------------------------*- C++ -*----------------------------------*\
| =========                 |                                                 |
| \\      /  F ield         | OpenFOAM: The Open Source CFD Toolbox           |
|  \\    /   O peration     | Version:  2506                                  |
|   \\  /    A nd           | Website:  www.openfoam.com                      |
|    \\/     M anipulation  |                                                 |
\*---------------------------------------------------------------------------*/
FoamFile
{
    version     2.0;
    format      ascii;
    arch        "LSB;label=32;scalar=64";
    class       volScalarField;
    location    "1.15";
    object      k;
}
// * * * * * * * * * * * * * * * * * * * * * * * * * * * * * * * * * * * * * //

dimensions      [0 2 -2 0 0 0 0];

internalField   nonuniform List<scalar> 
1376
(
6.765162
6.7554983
6.7487125
6.7432089
6.7390843
6.7367445
6.735856
6.7364875
6.739436
6.7454353
6.7544467
6.7677022
6.7864584
6.8122052
6.8468895
6.8932557
6.9554973
7.0401834
7.1571232
7.3261269
7.5876466
8.0971821
6.7658051
6.7604849
6.7565652
6.7543704
6.7536556
6.7543634
6.7573991
6.7635335
6.7727206
6.7861754
6.8051551
6.8311507
6.8661391
6.9128982
6.9756212
7.0609218
7.1786543
7.3487908
7.6120596
8.1275092
6.7771119
6.7733969
6.7713031
6.7707641
6.7716515
6.7747819
6.7810478
6.7904356
6.8041269
6.8233698
6.8496538
6.8849912
6.932189
6.9954478
7.0814244
7.2000144
7.3713311
7.6363068
8.1510407
6.7898097
6.7878271
6.7874887
6.7886577
6.7919439
6.7983724
6.8080114
6.8220046
6.841581
6.8682356
6.9040083
6.9517358
7.0156373
7.1024187
7.2220279
7.3947171
7.6616965
8.1784934
6.8039625
6.8054633
6.80897
6.8155894
6.8255208
6.8398655
6.8598341
6.8869288
6.9232082
6.9715405
7.0361755
7.1238671
7.2446271
7.4188378
7.6880161
8.2063016
6.8221323
6.8259343
6.832788
6.8430577
6.8578001
6.8782192
6.9058236
6.9426848
6.9917051
7.0571635
7.1458722
7.2679199
7.4438162
7.7154047
8.2357159
6.8428935
6.8500368
6.8606927
6.8758761
6.8968012
6.9249845
6.9625021
7.0122972
7.0786659
7.1684968
7.2919697
7.4697187
7.7439221
8.2665245
6.8673868
6.8784797
6.8941503
6.9156374
6.9444667
6.982718
7.0333728
7.1007448
7.1918067
7.3168433
7.496619
7.7736597
8.2989381
6.8848249
6.8964102
6.9126249
6.9347332
6.9642753
7.0033427
7.0549475
7.1234262
7.2158353
7.3425795
7.5245689
7.8046918
8.3330457
6.9145268
6.9313486
6.9541352
6.9844579
7.0244245
7.0770717
7.1467626
7.2406375
7.3692338
7.5536255
7.837081
8.3687967
6.9504179
6.9739414
7.0051105
7.0460593
7.0998419
7.1708537
7.2663164
7.3969125
7.5839038
7.8709631
8.4066031
6.9941898
7.0262726
7.0682885
7.1233007
7.1957478
7.2929244
7.4256742
7.6154691
7.9064051
8.4464487
7.0479461
7.0911157
7.1474603
7.2214672
7.3204977
7.4555657
7.6483839
7.9434873
8.4885118
7.11459
7.1723736
7.2480671
7.3490989
7.4866558
7.6827217
7.9822898
8.5326983
7.1981418
7.2756524
7.3788395
7.5190639
7.7186121
8.02297
8.5792829
7.3042685
7.4097748
7.5528558
7.7561321
8.0656299
8.628114
7.4419594
7.5881059
7.7953745
8.1103824
8.6793341
7.6249197
7.8364534
8.1573471
8.7331064
7.879513
8.2066918
8.7897091
8.258578
8.8492224
18.02703
16.933461
15.7304
14.580306
13.700813
13.06463
12.522964
12.005812
11.493828
10.977571
10.446865
9.9363048
9.4797346
9.0651903
8.6786022
8.3289663
8.0187886
7.7263247
7.4284364
7.1237027
6.8227028
6.5339932
6.2683005
17.261424
16.995379
16.679266
16.076682
15.125572
14.239452
13.748893
13.453262
13.112803
12.649548
12.123036
11.588282
11.041441
10.486567
9.9722255
9.5333134
9.1488812
8.7809014
8.4064831
8.0241612
7.6416828
7.2717737
6.9365881
10.131403
10.036103
9.9831405
9.884651
9.6830345
9.4276374
9.2560793
9.1711395
9.0990637
9.0067889
8.9079194
8.7975627
8.6462012
8.4535479
8.2716308
8.1373854
8.0291582
7.9135278
7.7669369
7.5767479
7.3440807
7.092032
6.8632765
9.1858865
9.0612477
8.9365747
8.8095371
8.6724759
8.5203987
8.363801
8.215538
8.0769949
7.9416504
7.8072047
7.6749323
7.5405806
7.4013818
7.2706881
7.1702664
7.0993968
7.0362754
6.9574747
6.8413566
6.6799555
6.5030132
6.3678518
9.181995
9.0688831
8.9553468
8.8416318
8.7288844
8.6112855
8.4799082
8.3337904
8.180065
8.0257214
7.8720643
7.7191564
7.5664307
7.4140135
7.2690221
7.1433862
7.0399233
6.9466578
6.8442059
6.7135979
6.5470734
6.3716496
6.2404192
9.2224057
9.1217362
9.0218058
8.9207786
8.820953
8.7199456
8.609912
8.4854737
8.3486596
8.2063248
8.0622124
7.9162593
7.7677233
7.6192852
7.4792802
7.3545487
7.2435631
7.1368763
7.0213819
6.8844416
6.7209771
6.5496783
6.4094676
9.1145251
9.037242
8.9644382
8.8863431
8.8022845
8.7147681
8.6226187
8.5222568
8.4112877
8.291506
8.1660855
8.0358141
7.9014151
7.7679065
7.6436829
7.5317903
7.4269004
7.3211773
7.2078001
7.079667
6.9325996
6.7772471
6.6396182
8.9417457
8.8851443
8.8287558
8.7632392
8.6893878
8.6138254
8.5395688
8.4628444
8.3769269
8.2792412
8.1724532
8.059785
7.9438746
7.8297722
7.7238268
7.6265094
7.5313038
7.4325161
7.3281762
7.215124
7.0889182
6.9540052
6.8270042
8.7746761
8.7299012
8.6867192
8.641794
8.5871303
8.5239768
8.4604714
8.4013921
8.3426208
8.275532
8.1956186
8.1055313
8.0102348
7.9133535
7.8185427
7.7295854
7.6456816
7.5609306
7.4715647
7.3783712
7.2804846
7.17353
7.0581423
6.9447187
8.5486079
8.5141885
8.4785904
8.4391343
8.3902465
8.3353659
8.2829214
8.2363868
8.1904467
8.1363692
8.0697184
7.9934298
7.9132311
7.8327967
7.7541939
7.6793744
7.6073379
7.5332082
7.45419
7.3717737
7.2861614
7.1939344
7.0944988
6.9945661
8.3272833
8.2988814
8.2696621
8.2331624
8.1887452
8.1420446
8.0995409
8.0618686
8.0237089
7.9780593
7.9216895
7.8573037
7.7898777
7.7224455
7.6561522
7.5922555
7.5301361
7.4657874
7.3964567
7.3229974
7.2460464
7.1637882
7.0761979
6.9882921
8.1322243
8.1041966
8.0737201
8.0376928
7.9970231
7.9574786
7.9223294
7.889251
7.8541692
7.813034
7.7645012
7.710614
7.6543769
7.5974582
7.5403651
7.4842759
7.429284
7.3723736
7.3107614
7.2442365
7.1734301
7.0979689
7.0189649
7.9545248
7.9288085
7.8970435
7.860117
7.8234062
7.7898563
7.7575102
7.7237863
7.6878263
7.6488408
7.6063856
7.5611935
7.5143823
7.4663017
7.4165924
7.3660065
7.3153983
7.2631264
7.2068079
7.1457803
7.0804062
7.0107869
6.9386852
7.7842638
7.7588471
7.729692
7.6979114
7.6663525
7.6358232
7.6029356
7.5668932
7.5298173
7.4927915
7.4549325
7.4157173
7.3753729
7.3336788
7.2895715
7.2431852
7.1955138
7.1459847
7.0933936
7.0373627
6.9776613
6.9141082
6.8482213
7.6393647
7.6236953
7.6035468
7.5784627
7.5497414
7.520306
7.4889997
7.4540078
7.417058
7.3816569
7.3480621
7.3140385
7.2784484
7.2416188
7.2034189
7.1626919
7.1194041
7.0744464
7.0276991
6.9786124
6.9268962
6.8723456
6.8146297
6.754354
7.4947429
7.4714371
7.4484964
7.427768
7.4064071
7.3813829
7.3493932
7.3122963
7.2759658
7.2437941
7.2138461
7.1828759
7.1495529
7.1144025
7.0774921
7.0383043
6.9974478
6.9556318
6.9122259
6.8662914
6.8176952
6.7668762
6.713683
6.6579628
7.3542177
7.3265256
7.304538
7.2876588
7.2699073
7.2462397
7.2147405
7.1793735
7.1457274
7.1157929
7.0877275
7.0585641
7.0267124
6.9923781
6.9560346
6.9182256
6.8797897
6.8406381
6.7994172
6.755248
6.7086535
6.6605197
6.6107478
6.5587695
7.2191229
7.1940769
7.1747193
7.1575924
7.1388901
7.1153355
7.08661
7.055618
7.0251839
6.9966954
6.9690936
6.9402713
6.9089371
6.8751037
6.8397935
6.8040311
6.7678444
6.7299891
6.6892016
6.645645
6.600538
6.5546998
6.5077991
6.4590462
7.1222682
7.101489
7.0816608
7.0621771
7.0411725
7.0189066
6.9947638
6.9690645
6.941979
6.9138958
6.886057
6.8584194
6.8296199
6.7985903
6.765512
6.7317857
6.6980396
6.6632315
6.6255991
6.5846237
6.5415922
6.4980268
6.4543325
6.409852
6.3637184
7.0133516
6.9995603
6.983056
6.962712
6.9388422
6.9143272
6.8906143
6.8673467
6.8427574
6.8165656
6.7893416
6.7611698
6.7318353
6.700931
6.6687244
6.6362349
6.6033527
6.5687128
6.5310282
6.490536
6.4488222
6.4070792
6.3653093
6.3227439
6.2785651
6.9254232
6.9114519
6.8941836
6.8744143
6.8527458
6.8300902
6.8077074
6.7852648
6.7618965
6.7370944
6.7102279
6.6813616
6.6510979
6.6199818
6.5886169
6.5570333
6.5243347
6.4893865
6.451813
6.4123736
6.3723117
6.3322034
6.2918353
6.2505816
6.2077303
6.8759601
6.8595548
6.8421989
6.8238388
6.8051127
6.7857909
6.7653291
6.7435312
6.7206644
6.6969781
6.6724235
6.6462801
6.6180248
6.5879156
6.5569643
6.5259862
6.4946229
6.4618631
6.4270551
6.3903325
6.3523528
6.3137164
6.2745928
6.2348688
6.1942161
6.1520506
6.8303229
6.8119522
6.7919483
6.7724538
6.7534544
6.7342883
6.7144028
6.6927359
6.6695011
6.6456764
6.6212426
6.5956337
6.5682611
6.5392041
6.5092555
6.4788956
6.4476827
6.4149335
6.3804996
6.3446705
6.3078961
6.2703564
6.2319404
6.192555
6.1520483
6.1100053
6.7927845
6.7747172
6.754783
6.7348347
6.7151126
6.6953987
6.6748571
6.653274
6.6306087
6.6073042
6.5834008
6.558329
6.5315486
6.5032811
6.4740747
6.4441508
6.4130568
6.380406
6.3462885
6.3111289
6.2751981
6.2383705
6.2004106
6.1612726
6.1208724
6.0788822
6.7786885
6.7627017
6.7458982
6.7278809
6.708719
6.6888214
6.6682274
6.6471106
6.6254559
6.6029366
6.5796519
6.5558101
6.5308156
6.5044266
6.4768144
6.4482413
6.418651
6.3877772
6.3553719
6.321568
6.2867184
6.2510473
6.2144792
6.1768306
6.1380057
6.0978522
6.056101
6.7590139
6.7426826
6.7258149
6.7079698
6.6891753
6.6696704
6.6494374
6.6284519
6.6064321
6.583425
6.5596743
6.535356
6.5103409
6.4843723
6.4572361
6.4289234
6.3995525
6.3690609
6.3372118
6.3039831
6.2694892
6.2339437
6.1973779
6.1597369
6.1209424
6.0808779
6.7596743
6.7438372
6.727586
6.7107748
6.6930495
6.6743934
6.6549936
6.6348331
6.6139077
6.5920528
6.5693119
6.5456178
6.5211016
6.4958531
6.4697593
6.4427339
6.4147022
6.3856798
6.3555439
6.3241856
6.2914817
6.2574413
6.2221076
6.1855606
6.1478421
6.1089313
6.0688138
6.7485074
6.7326552
6.7162281
6.6991391
6.6812922
6.6625239
6.6431013
6.6229875
6.6020267
6.5802903
6.557683
6.5342054
6.5099427
6.484779
6.4585926
6.431432
6.4033996
6.3743578
6.3443384
6.313222
6.2808327
6.2471786
6.2122207
6.1760051
6.1385426
6.0998949
6.0600921
6.7388218
6.723052
6.7066046
6.6894992
6.6715342
6.6528084
6.6334761
6.6133948
6.5925373
6.5709228
6.5484679
6.5251751
6.5009418
6.4757385
6.4496034
6.4225907
6.3946601
6.3657398
6.3357416
6.3046166
6.2723289
6.2388972
6.2042996
6.1684862
6.1313942
6.0930808
6.0536058
6.7319382
6.7160121
6.6994003
6.6821171
6.6641071
6.6454112
6.6260475
6.605982
6.5851859
6.563604
6.541223
6.5180253
6.4939304
6.4687829
6.4427439
6.4158401
6.3879666
6.3591596
6.3292634
6.2982508
6.2661195
6.2328422
6.1984434
6.1629089
6.126158
6.0881918
6.0489989
6.7263186
6.7102741
6.6935695
6.6762044
6.65815
6.6394186
6.6200428
6.5999685
6.5791984
6.5576342
6.5352872
6.5121711
6.4882652
6.4635056
6.4377678
6.4109483
6.3830169
6.3540524
6.3241357
6.2933249
6.2615238
6.22857
6.1944131
6.159059
6.1225398
6.0848598
6.046011
6.7221004
6.7059563
6.6891946
6.6717935
6.6537306
6.6350266
6.6156684
6.595647
6.5748674
6.5532735
6.5308614
6.5076562
6.4837024
6.4589788
6.4333816
6.4067737
6.379056
6.3503047
6.3205951
6.2899433
6.2583099
6.2256212
6.1917913
6.1567735
6.1205429
6.0831101
6.7196354
6.7032975
6.6863553
6.6688033
6.6506743
6.6319528
6.6126195
6.5926182
6.5718629
6.5502965
6.5278925
6.5046681
6.4806477
6.4558481
6.4302277
6.4037148
6.3762069
6.3477017
6.3182301
6.2878173
6.2564282
6.2239932
6.1904162
6.1556719
6.1197616
6.0826661
6.718622
6.7021547
6.6851481
6.6676033
6.649512
6.6308211
6.6114612
6.5913669
6.5704911
6.5488058
6.526333
6.5031099
6.4791471
6.4544289
6.4289008
6.4024813
6.3751107
6.3467591
6.3174443
6.2871907
6.2559744
6.2237401
6.1904112
6.1559422
6.1203457
6.0836105
6.7192734
6.7028143
6.6858219
6.6682504
6.6500599
6.6312072
6.6116531
6.5913834
6.570392
6.5486884
6.5262938
6.5031879
6.4793404
6.4546939
6.429198
6.402814
6.3755188
6.3473198
6.3182079
6.2881662
6.2571484
6.2251073
6.1920147
6.1578481
6.1226053
6.7221717
6.7055805
6.6884432
6.6707269
6.6523998
6.6334311
6.613788
6.5934566
6.5724377
6.5507404
6.5283714
6.5053046
6.4814924
6.4568826
6.4314295
6.4051201
6.3779491
6.3499162
6.3209947
6.2911469
6.2603297
6.2285133
6.1956885
6.1618285
6.1269123
6.7280477
6.7112508
6.6938925
6.6759471
6.6574061
6.6382586
6.6184969
6.5981107
6.5770881
6.555412
6.5330597
6.51
6.4861937
6.4616096
6.4362196
6.4100061
6.3829482
6.3550261
6.3262094
6.2964879
6.2658559
6.2342926
6.2017619
6.1682137
6.1336059
6.7369061
6.7198991
6.7023565
6.6842569
6.6655836
6.6463269
6.6264731
6.6060138
6.5849345
6.5632163
6.540841
6.5177771
6.4939893
6.4694472
6.4441229
6.4179798
6.3909933
6.3631552
6.3344645
6.3049107
6.2744716
6.2431229
6.2108299
6.1775676
6.7500047
6.7327817
6.7150407
6.696765
6.6779378
6.6585508
6.638592
6.6180505
6.5969071
6.5751349
6.5527025
6.5295789
6.5057365
6.4811505
6.4558047
6.4296821
6.4027663
6.3750431
6.3465037
6.3171246
6.2868802
6.2557469
6.2236969
6.1907035
6.7685833
6.751116
6.7331582
6.714692
6.6956998
6.6761658
6.65607
6.6353915
6.6141052
6.5921855
6.5696077
6.5463472
6.5223846
6.4977062
6.4723034
6.4461713
6.4193047
6.39169
6.3633032
6.334107
6.3040633
6.2731397
6.2413108
6.7941187
6.7763631
6.7581278
6.7393965
6.7201475
6.7003614
6.6800193
6.6591011
6.6375864
6.6154544
6.5926873
6.569273
6.5452012
6.5204649
6.4950539
6.4689517
6.442139
6.4145916
6.3862831
6.3571859
6.3272669
6.2965013
6.8285219
6.810387
6.7917794
6.7726801
6.753073
6.7329407
6.7122681
6.6910414
6.6692495
6.6468794
6.6239168
6.6003472
6.5761561
6.5513285
6.5258471
6.4996923
6.472843
6.4452794
6.4169818
6.3879321
6.3581141
6.3275037
6.8745231
6.8559188
6.836855
6.8173141
6.7972837
6.7767525
6.7557091
6.7341419
6.712038
6.6893834
6.6661634
6.6423626
6.6179657
6.5929571
6.567321
6.5410426
6.5141079
6.4865029
6.4582112
6.429211
6.3994798
6.9363125
6.9171387
6.8975199
6.8774431
6.8568976
6.835874
6.8143618
6.7923499
6.7698254
6.7467736
6.72318
6.6990306
6.6743132
6.6490156
6.6231251
6.5966272
6.5695077
6.5417521
6.5133435
6.4842595
7.0204265
7.0005551
6.9802579
6.9595224
6.938338
6.9166937
6.8945783
6.8719813
6.8488905
6.8252941
6.8011808
6.7765391
6.7513572
6.7256235
6.6993273
6.6724566
6.644998
6.6169385
6.5882621
7.1366132
7.1158285
7.0946256
7.0729955
7.0509276
7.0284138
7.0054455
6.9820144
6.9581129
6.9337324
6.9088655
6.8835015
6.8576294
6.8312391
6.8043214
6.7768659
6.748861
7.3045422
7.2824816
7.2600044
7.2371073
7.2137876
7.1900393
7.1658554
7.1412309
7.1161598
7.0906368
7.0646634
7.0382378
7.0113504
6.983988
6.9561412
6.9277971
7.5644802
7.54057
7.5162539
7.4915434
7.4664395
7.4409467
7.415058
7.3887709
7.3620836
7.3349785
7.3074187
7.2793607
7.2508347
7.2219137
8.0742868
8.0492155
8.0234822
7.9973298
7.9707968
7.943873
7.9164962
7.8885936
7.8600422
7.8309209
7.8014686
7.7718203
)
;

boundaryField
{
    Side
    {
        type            empty;
    }
    Inlet
    {
        type            turbulentIntensityKineticEnergyInlet;
        intensity       0.03;
        value           nonuniform List<scalar> 
32
(
12.022004
12.021953
12.021938
12.022028
12.022122
12.022114
12.022006
12.021888
12.021757
12.021568
12.02145
12.021363
12.021101
12.020663
12.020312
12.020159
12.020105
12.019894
12.019572
12.019415
12.022089
12.022237
12.022461
12.022759
12.023085
12.023435
12.023894
12.024548
12.025391
12.026133
12.026035
12.025653
)
;
    }
    Airfoil
    {
        type            kqRWallFunction;
        value           nonuniform List<scalar> 0();
    }
    Outlet
    {
        type            inletOutlet;
        inletValue      nonuniform List<scalar> 0();
        value           nonuniform List<scalar> 0();
    }
    procBoundary9to2
    {
        type            processor;
        value           nonuniform List<scalar> 
23
(
6.2871295
6.5717857
6.8636267
7.1592307
7.4689999
7.7868614
8.0920605
8.3927572
8.7366431
9.1554313
9.6221918
10.110771
10.630695
11.162053
11.616018
11.960268
12.310663
12.900483
13.847923
14.88546
15.800404
16.683755
17.752931
)
;
    }
    procBoundary9to8
    {
        type            processor;
        value           nonuniform List<scalar> 
75
(
6.7763838
6.7763838
6.7816823
6.7724301
6.7724301
6.7822418
6.7822418
6.7932938
6.7932938
6.8059146
6.8040835
6.8040835
6.8202975
6.8202975
6.8387137
6.8387137
6.8598905
6.8598905
6.8769075
6.9023901
6.9023901
6.9329249
6.9329249
6.9698649
6.9698649
7.0148726
7.0148726
7.07018
7.07018
7.1388097
7.1388097
7.2248046
7.2248046
7.3339602
7.3339602
7.4754824
7.4754824
7.6634211
7.6634211
7.9246718
7.9246718
8.3131827
8.9118688
19.098999
17.735413
10.293817
9.3046591
9.2906976
9.3169527
9.1939267
9.0011047
9.0011047
8.8185595
8.5763796
8.3571318
8.1578406
7.9772162
7.8047297
7.8047297
7.6529228
7.5120246
7.3787248
7.2456123
7.2456123
7.1411172
7.0252898
6.9383776
6.9383776
6.8915838
6.8464241
6.8083713
6.8083713
6.7944317
6.774848
6.774848
)
;
    }
    procBoundary9to10
    {
        type            processor;
        value           nonuniform List<scalar> 
66
(
6.0337811
6.6515622
6.6832168
6.291183
6.16772
6.3148426
6.5333252
6.7197614
6.8429177
6.9015153
6.9053862
6.9410993
6.9410993
6.8686542
6.7839669
6.6942338
6.6011221
6.5050668
6.408415
6.315711
6.2324608
6.1628379
6.1078206
6.0659579
6.0349579
6.0124923
6.0393985
6.0393985
6.027452
6.0190827
6.0129313
6.0085595
6.0059274
6.0445246
6.0445246
6.0444199
6.0457333
6.0862692
6.0862692
6.0909179
6.0979186
6.1433039
6.1433039
6.1567431
6.2085451
6.2085451
6.2648739
6.2648739
6.2960883
6.3689958
6.3689958
6.4544839
6.4544839
6.5589566
6.7202964
6.5589566
6.6911617
6.7202964
6.8989448
7.1924041
6.8989448
7.1625424
7.7419758
7.1924041
7.712355
7.7419758
)
;
    }
}


// ************************************************************************* //
