/*--------------------------------*- C++ -*----------------------------------*\
| =========                 |                                                 |
| \\      /  F ield         | OpenFOAM: The Open Source CFD Toolbox           |
|  \\    /   O peration     | Version:  2506                                  |
|   \\  /    A nd           | Website:  www.openfoam.com                      |
|    \\/     M anipulation  |                                                 |
\*---------------------------------------------------------------------------*/
FoamFile
{
    version     2.0;
    format      ascii;
    arch        "LSB;label=32;scalar=64";
    class       volScalarField;
    location    "1.15";
    object      k;
}
// * * * * * * * * * * * * * * * * * * * * * * * * * * * * * * * * * * * * * //

dimensions      [0 2 -2 0 0 0 0];

internalField   nonuniform List<scalar> 
1376
(
6.7543821
6.7453935
6.7383318
6.7328836
6.728795
6.7262925
6.7255564
6.7262592
6.7292734
6.7350327
6.7441293
6.7573896
6.7760347
6.8015915
6.8360803
6.8824138
6.9445922
7.0291438
7.1462144
7.3151353
7.576882
8.0863458
6.7556528
6.7503317
6.7463468
6.7438926
6.7432909
6.7441018
6.7472464
6.7531317
6.7623875
6.7758348
6.7946902
6.8205041
6.8553031
6.9020253
6.9646798
7.0498368
7.1677211
7.3378086
7.6013
8.117209
6.7670856
6.7632463
6.7608068
6.7603421
6.7613093
6.7645993
6.7706463
6.7800847
6.7937558
6.8128611
6.8389703
6.8741249
6.9212858
6.9844711
7.070295
7.1890527
7.3603619
7.6255463
8.1411136
6.7797137
6.7773244
6.7770415
6.7782118
6.7816928
6.7879623
6.7976377
6.8116036
6.8310298
6.8575112
6.8931062
6.9408002
7.0046264
7.0912479
7.2110303
7.3837629
7.6509319
8.1687547
6.7935127
6.7949152
6.7986215
6.8051626
6.8151195
6.829439
6.8492415
6.8761619
6.9122676
6.9605735
7.0251315
7.1126573
7.233585
7.4078977
7.6772455
8.1966384
6.8115184
6.8154802
6.8223384
6.8326247
6.8473535
6.86759
6.8950139
6.9317041
6.9807035
7.0460858
7.1346242
7.256826
7.4328853
7.7046322
8.2259799
6.8323435
6.8395578
6.8502259
6.8654125
6.8861449
6.9141338
6.9514824
7.0012557
7.0675571
7.1572129
7.2808186
7.4587876
7.7331583
8.2565953
6.8568729
6.8679775
6.883665
6.9049594
6.9335782
6.9716607
7.0222895
7.0896067
7.1804876
7.3056307
7.4856743
7.7629094
8.2887229
6.874271
6.8858682
6.9021045
6.9240346
6.9533516
6.9922501
7.0438237
7.1122602
7.204483
7.3313034
7.5135941
7.7939593
8.322476
6.9039318
6.9207756
6.943415
6.973499
7.0132979
7.065908
7.1355679
7.2292547
7.357893
7.5426039
7.8263627
8.3578016
6.9397722
6.9631943
6.9941173
7.0349006
7.0886388
7.1596281
7.2549083
7.3855095
7.5728221
7.8602394
8.3951545
6.9834076
7.015246
7.0570993
7.1120593
7.18449
7.2814987
7.4142129
7.6043143
7.8956559
8.4346113
7.0368839
7.0799007
7.1361829
7.2101759
7.3090589
7.4440516
7.6371441
7.9327099
8.4763665
7.1033513
7.161063
7.2367408
7.3376484
7.475097
7.6713851
7.9714765
8.52029
7.1868014
7.2642885
7.3673764
7.507472
7.7071728
8.012094
8.566823
7.2928669
7.3982985
7.5412461
7.7445931
8.0546411
8.6158981
7.4304688
7.5764901
7.783741
8.0992313
8.6674702
7.6133035
7.8247423
8.1460118
8.7214465
7.8677376
8.1951731
8.7779336
8.2468866
8.8371552
17.367736
16.31492
15.606178
14.964397
14.183965
13.293652
12.511476
11.901651
11.37278
10.870337
10.412259
10.006044
9.6263862
9.2535959
8.8741571
8.4734973
8.0493727
7.6460346
7.322038
7.0615092
6.8119465
6.5526052
6.298355
17.340136
16.445847
15.717662
15.317116
15.103255
14.785936
14.263781
13.578799
12.904657
12.350032
11.887362
11.452972
11.022122
10.595244
10.157483
9.671735
9.1439457
8.6543425
8.26812
7.9523951
7.6396914
7.3111696
6.990706
10.068403
9.8992028
9.7116465
9.5368878
9.5045576
9.484576
9.3832705
9.2083553
9.0297399
8.8885798
8.7678137
8.6584908
8.5632934
8.4709675
8.3533023
8.1771615
7.9543803
7.7603982
7.6260712
7.5128859
7.3736258
7.1896974
6.9806588
9.0867459
8.9774808
8.8678387
8.7421094
8.6017473
8.4529207
8.3005957
8.1514284
8.0047356
7.8580351
7.7132204
7.5832676
7.4797847
7.3918395
7.2916693
7.156709
7.0047813
6.8933011
6.8332585
6.7867618
6.7227927
6.6271003
6.5103091
9.1037814
9.0229547
8.9429143
8.845299
8.7189379
8.5679767
8.4090673
8.2541725
8.1026566
7.947709
7.7886526
7.6370548
7.5053848
7.387367
7.2606445
7.1093209
6.9524345
6.8322221
6.752962
6.6827946
6.5951774
6.4854425
6.3681468
9.1469759
9.0839982
9.0175731
8.9354303
8.8308928
8.7036465
8.5625619
8.4194563
8.2794548
8.1381563
7.9906078
7.8434022
7.708784
7.5851637
7.4561411
7.311097
7.1655471
7.0478207
6.9581506
6.8705133
6.7634079
6.637541
6.5088527
9.0768454
9.0225321
8.959752
8.8870345
8.8044708
8.7086524
8.5980753
8.4788262
8.3582294
8.2362458
8.1080277
7.9758019
7.849816
7.7324516
7.6137287
7.4865716
7.3610196
7.2540053
7.1637191
7.0710287
6.9609141
6.8363824
6.7105012
8.9308288
8.8768763
8.8123343
8.7474215
8.6855979
8.6171339
8.5335678
8.4373631
8.336956
8.2353412
8.1282203
8.0149522
7.9030633
7.7973885
7.6935063
7.5863258
7.4800064
7.3831259
7.2944024
7.2022655
7.0981873
6.9856619
6.8725512
8.7682856
8.7325719
8.6815364
8.6203171
8.5646699
8.5179295
8.4677118
8.4037013
8.3264115
8.2438457
8.1604338
8.0729521
7.9791506
7.8837784
7.7924383
7.7042225
7.6147665
7.5235255
7.4341282
7.347128
7.2579189
7.1635341
7.066765
6.9700039
8.552228
8.5189586
8.4711861
8.4161021
8.3698903
8.3331822
8.292884
8.2402028
8.1760116
8.1077295
8.0397307
7.9691082
7.8927843
7.8133031
7.73595
7.6616543
7.586056
7.5058638
7.4225031
7.338363
7.2538547
7.1698368
7.0879926
7.0065385
8.3306477
8.301429
8.260525
8.2138859
8.175409
8.1441695
8.1085204
8.0622112
8.0071236
7.950195
7.8950741
7.8384897
7.7766633
7.7105528
7.6448627
7.5812217
7.5154643
7.4437924
7.366857
7.2878227
7.2096724
7.1350242
7.0646321
6.9947384
8.1284286
8.1022901
8.0673594
8.0272141
7.9930068
7.9624502
7.9269608
7.8837989
7.8354338
7.7872662
7.7418165
7.6957332
7.6449406
7.5892671
7.5325307
7.4763391
7.4174461
7.3530219
7.2835938
7.2119375
7.1412174
7.0741477
7.010993
7.9452533
7.9183794
7.8873805
7.8536021
7.8213871
7.7885645
7.7521155
7.7117639
7.6691718
7.6277664
7.588893
7.5494568
7.5059075
7.4579241
7.4082085
7.3576519
7.3040815
7.2461441
7.1845891
7.121144
7.0578584
6.9966342
6.9375877
7.7775347
7.7483611
7.7176418
7.6861608
7.6559304
7.624515
7.5905241
7.5536076
7.5147725
7.4771719
7.4417081
7.4055041
7.3659078
7.322989
7.2785421
7.232663
7.1838693
7.1317563
7.0771197
7.0208112
6.96392
6.907329
6.8508677
7.6404079
7.6155195
7.5872949
7.5579693
7.5286728
7.4995937
7.4706715
7.4398594
7.4058141
7.370231
7.3358376
7.3023249
7.2670476
7.2289385
7.1890744
7.1485572
7.1065865
7.0619102
7.0145974
6.9652604
6.9142861
6.8622792
6.8093967
6.7551486
7.4833934
7.4633902
7.4394655
7.4113859
7.3817494
7.3535566
7.3264956
7.2973977
7.2658695
7.2341387
7.202953
7.1705198
7.134996
7.0973983
7.0596599
7.0220256
6.9829981
6.9415112
6.8977777
6.8520955
6.804672
6.7560587
6.7061286
6.6541861
7.3429405
7.319509
7.2960374
7.272865
7.2490761
7.2239813
7.1961074
7.1651924
7.1346564
7.1061823
7.0774343
7.0454945
7.0098726
6.9731679
6.9372223
6.9014186
6.8642186
6.8249463
6.7836689
6.7402663
6.6949929
6.6486472
6.6011151
6.551623
7.2111916
7.1870988
7.1654568
7.1458884
7.1244743
7.0995211
7.0709715
7.0410698
7.0134193
6.9870633
6.9587864
6.926833
6.8920685
6.8569678
6.8223649
6.7874402
6.7513704
6.7137696
6.674207
6.6321759
6.5881748
6.5433862
6.4978693
6.4508863
7.111453
7.0886319
7.0679374
7.0485938
7.0288162
7.0065177
6.9817046
6.9542909
6.926645
6.9007453
6.8748726
6.8470787
6.8163458
6.7831924
6.7493525
6.7154627
6.6812676
6.6464379
6.6103136
6.5719682
6.5308589
6.4877843
6.4441691
6.4002957
6.3555776
7.0043861
6.986673
6.9675318
6.9471254
6.9252096
6.9020951
6.8779688
6.852418
6.8263077
6.800125
6.7736566
6.7464698
6.7174178
6.6860713
6.6534447
6.6203373
6.5870812
6.5533641
6.5182185
6.4806546
6.440381
6.3982795
6.3556838
6.3130166
6.2698906
6.9171847
6.9012816
6.8834425
6.8636701
6.8408058
6.8166813
6.7923992
6.7675918
6.7422685
6.71637
6.6902014
6.6635025
6.6352831
6.6054087
6.5742032
6.5420945
6.5094357
6.4759066
6.4408502
6.4036923
6.3643912
6.3235483
6.2819971
6.2400782
6.1976136
6.8623909
6.8484873
6.8326917
6.8150762
6.7955608
6.7739744
6.7509389
6.7272519
6.7030775
6.6786932
6.6536906
6.6277992
6.6005618
6.5723599
6.5432604
6.5131547
6.4818074
6.4492732
6.4154496
6.3802006
6.3433572
6.3048458
6.2649623
6.2241617
6.1826368
6.140284
6.8129096
6.797347
6.7806839
6.7626594
6.7435691
6.7231702
6.7014052
6.6790679
6.6562151
6.6325603
6.6078713
6.5820366
6.5550004
6.5271163
6.4982346
6.4680743
6.4366235
6.4039333
6.3700297
6.3349102
6.2984707
6.2605633
6.2213271
6.1810268
6.1396752
6.0972079
6.777237
6.7608461
6.7438956
6.7258027
6.7064815
6.6860508
6.6645021
6.6425438
6.6204342
6.5973506
6.5730971
6.5475322
6.5208676
6.4931676
6.4643318
6.4343186
6.4031241
6.3706503
6.3368991
6.3019455
6.2657801
6.2283622
6.1897082
6.1498693
6.1087303
6.0662585
6.7681139
6.7513046
6.7344218
6.7174416
6.6995064
6.6803537
6.6601245
6.6390209
6.61736
6.5950213
6.5717392
6.5474604
6.5221362
6.4958022
6.468335
6.4395329
6.4093613
6.3779952
6.3455836
6.3121902
6.2776987
6.2420331
6.2051536
6.16702
6.1275673
6.0867453
6.0444767
6.7479187
6.7313172
6.714381
6.6971452
6.6789236
6.6596407
6.639637
6.6188712
6.5973935
6.5751749
6.5519633
6.527705
6.5024294
6.476085
6.4486372
6.4200261
6.3902089
6.3591933
6.3270525
6.2939248
6.2597405
6.2244396
6.1879469
6.1502191
6.1112125
6.0708677
6.7480837
6.7323478
6.7159766
6.6990664
6.6816861
6.6633695
6.6440245
6.6238788
6.6028844
6.58119
6.5588652
6.5358527
6.5117814
6.4865796
6.460291
6.4329901
6.4047432
6.3754863
6.3450318
6.3133123
6.2803671
6.2463609
6.2112605
6.1750083
6.137551
6.0988272
6.0587955
6.7374819
6.7217449
6.7053491
6.688289
6.6706194
6.6520556
6.6327572
6.6127802
6.591879
6.5700084
6.5474088
6.5240645
6.4998376
6.4747317
6.448686
6.4216552
6.3936864
6.3647269
6.3346125
6.3032094
6.2704865
6.2366375
6.2016978
6.1656226
6.1283598
6.0898396
6.050061
6.7285158
6.7126693
6.6962045
6.6790885
6.6612854
6.6426564
6.6232826
6.603267
6.5824674
6.5608433
6.5383843
6.5150273
6.4908468
6.4657574
6.4397319
6.4127913
6.3849242
6.3560998
6.3261748
6.2950536
6.2627105
6.2291733
6.1944856
6.1586489
6.1216387
6.0834272
6.0439471
6.7214471
6.7055407
6.6890178
6.6718259
6.6539218
6.6352289
6.6158403
6.5957978
6.5750568
6.5535711
6.5311847
6.5078516
6.4836333
6.4586101
6.432785
6.4060186
6.3782233
6.3493605
6.3194656
6.288519
6.2564724
6.2232536
6.1888713
6.1533282
6.1166226
6.0787318
6.0395726
6.7158925
6.6998315
6.6831969
6.6659565
6.6480417
6.6294129
6.6100946
6.5900889
6.5693274
6.5477653
6.5253772
6.502189
6.4781718
6.4532793
6.4274653
6.4006641
6.3729161
6.344202
6.3146021
6.283941
6.2521131
6.2190699
6.1848949
6.1496258
6.1132115
6.0755699
6.0366802
6.7117746
6.6956354
6.6789251
6.6616151
6.6436647
6.6250421
6.6057514
6.5857736
6.5650587
6.5435722
6.5212654
6.4981595
6.4741843
6.4492924
6.4234451
6.3966749
6.3691044
6.3406795
6.3112687
6.2807152
6.248978
6.2161339
6.1822831
6.1474277
6.1114175
6.0741127
6.7092339
6.6929697
6.6761186
6.6586614
6.6405816
6.6218619
6.6025023
6.5824698
6.561745
6.5402668
6.5180039
6.4949154
6.4709789
6.4461579
6.4204444
6.3938857
6.3664876
6.338179
6.3088419
6.2784246
6.2469512
6.2144535
6.1808808
6.1461877
6.1103487
6.0733278
6.7083832
6.6919486
6.6749405
6.6573638
6.6392146
6.6204714
6.6010998
6.581057
6.5603005
6.538788
6.5164808
6.4933516
6.4694173
6.4446966
6.4191662
6.3927763
6.3654242
6.337117
6.3078361
6.2775936
6.2463878
6.2141841
6.180891
6.1464618
6.1108972
6.0742074
6.7090346
6.6925294
6.6754762
6.6578674
6.6396788
6.6208805
6.6014326
6.5812947
6.560439
6.5388436
6.5165033
6.4934307
6.4696129
6.4450122
6.4195738
6.3931989
6.3658983
6.3376539
6.3085242
6.2784994
6.2475255
6.215533
6.1824682
6.1483176
6.1130795
6.7119716
6.6953397
6.6781686
6.6604449
6.6421439
6.623237
6.6036909
6.5834723
6.5625581
6.540935
6.5185955
6.495533
6.4717245
6.4471297
6.4217086
6.3954266
6.3682654
6.3401952
6.3112602
6.2814281
6.2506591
6.2189013
6.1861208
6.1523021
6.1174138
6.7176455
6.7008693
6.6835584
6.6656899
6.6472419
6.6281896
6.608513
6.588192
6.5672103
6.5455552
6.5232075
6.5001439
6.4763362
6.4517535
6.4263705
6.4001696
6.373129
6.3452269
6.3164441
6.2867645
6.2561764
6.224654
6.1921629
6.1586705
6.1241385
6.7266102
6.7096328
6.6921291
6.6740785
6.6554646
6.6362695
6.6164778
6.5960716
6.5750294
6.5533308
6.5309531
6.5078703
6.4840588
6.4594927
6.434142
6.4079903
6.3810241
6.3532347
6.3246165
6.2951542
6.2648142
6.2335485
6.2013089
6.1680672
6.7397187
6.7225244
6.7048176
6.6865801
6.6678018
6.648459
6.628528
6.6079941
6.5868374
6.5650421
6.5425902
6.5194516
6.4956055
6.4710316
6.4457035
6.4196072
6.3927357
6.3650788
6.3366168
6.3073259
6.2771711
6.2461132
6.2141234
6.1811881
6.7581926
6.7407598
6.7228305
6.7043794
6.6853935
6.6658533
6.6457485
6.6250543
6.6037445
6.5818018
6.5592168
6.535964
6.5120336
6.4874192
6.4621069
6.436076
6.4093032
6.3817653
6.3534326
6.3242781
6.2942777
6.2634114
6.2316651
6.7835265
6.7657917
6.7475692
6.728828
6.7095573
6.6897555
6.6694054
6.6484819
6.626962
6.6048448
6.5821206
6.5587742
6.5347901
6.5101511
6.4848416
6.4588325
6.4320937
6.4046036
6.3763424
6.347289
6.3174298
6.2867568
6.8177332
6.799614
6.7810237
6.7619391
6.7423454
6.7222326
6.7015875
6.680397
6.6586466
6.6363222
6.6134133
6.5899055
6.5657775
6.5410122
6.5155884
6.489487
6.462688
6.4351772
6.4069441
6.3779781
6.3482642
6.3177811
6.8637134
6.8451427
6.8261158
6.806615
6.7866279
6.7661414
6.7451421
6.7236182
6.7015553
6.6789383
6.655753
6.6319851
6.607614
6.5826276
6.55701
6.5307523
6.5038453
6.4762768
6.4480329
6.4190975
6.3894486
6.9254468
6.9063146
6.8867398
6.866707
6.8462044
6.8252209
6.8037454
6.781766
6.7592697
6.7362426
6.7126723
6.6885459
6.6638502
6.6385743
6.6127061
6.586234
6.5591463
6.5314292
6.5030683
6.474046
7.0094312
6.9896019
6.9693443
6.9486453
6.9274937
6.9058782
6.8837876
6.8612116
6.8381396
6.8145607
6.790464
6.7658397
6.7406777
6.7149685
6.6887014
6.6618656
6.6344495
6.6064405
6.5778246
7.1257262
7.10496
7.0837729
7.0621559
7.040101
7.0176006
6.9946475
6.9712334
6.947349
6.9229848
6.8981313
6.8727794
6.8469202
6.8205459
6.7936486
6.7662206
6.738252
7.293543
7.2714784
7.2490039
7.226119
7.2028187
7.179096
7.1549451
7.1303611
7.1053391
7.0798717
7.0539475
7.0275562
7.0006876
6.9733338
6.945487
6.9171382
7.553703
7.5297763
7.5054397
7.4807113
7.4555976
7.430097
7.4042106
7.3779246
7.3511998
7.3240213
7.2964112
7.2683589
7.239858
7.2108975
8.062774
8.0369273
8.0104537
7.9837054
7.9567984
7.9296686
7.9022992
7.8747132
7.8469393
7.8189573
7.7905261
7.7615224
)
;

boundaryField
{
    Side
    {
        type            empty;
    }
    Inlet
    {
        type            turbulentIntensityKineticEnergyInlet;
        intensity       0.03;
        value           nonuniform List<scalar> 
32
(
12.006258
12.005873
12.005656
12.005544
12.005517
12.005619
12.005843
12.005991
12.006229
12.006621
12.006905
12.006557
12.00608
12.005843
12.00563
12.005159
12.004657
12.00442
12.004683
12.00491
12.006824
12.007444
12.008031
12.008544
12.008953
12.009411
12.009861
12.009513
12.00857
12.007302
12.00631
12.006546
)
;
    }
    Airfoil
    {
        type            kqRWallFunction;
        value           nonuniform List<scalar> 0();
    }
    Outlet
    {
        type            inletOutlet;
        inletValue      nonuniform List<scalar> 0();
        value           nonuniform List<scalar> 0();
    }
    procBoundary9to2
    {
        type            processor;
        value           nonuniform List<scalar> 
23
(
6.3385036
6.6074795
6.8845382
7.1600985
7.4357738
7.7279413
8.0586905
8.4417025
8.8638593
9.2972833
9.6953807
10.027097
10.33293
10.716136
11.304644
12.088797
12.842912
13.408116
13.867493
14.471551
15.415052
16.636461
17.947873
)
;
    }
    procBoundary9to8
    {
        type            processor;
        value           nonuniform List<scalar> 
75
(
6.7650307
6.7650307
6.7716051
6.7625732
6.7625732
6.7723574
6.7723574
6.7832966
6.7832966
6.7958698
6.7935907
6.7935907
6.8098406
6.8098406
6.8280941
6.8280941
6.8492703
6.8492703
6.8662505
6.8917947
6.8917947
6.9222579
6.9222579
6.9591275
6.9591275
7.004045
7.004045
7.0590729
7.0590729
7.1275461
7.1275461
7.2134352
7.2134352
7.322523
7.322523
7.4639743
7.4639743
7.6518155
7.6518155
7.9128512
7.9128512
8.3013188
8.8995089
18.917018
18.175666
10.231111
9.2196795
9.201957
9.2196992
9.1286318
8.9725077
8.9725077
8.7920049
8.5726335
8.3508004
8.1482037
7.9679002
7.8025961
7.8025961
7.6610033
7.5007615
7.3636803
7.2340368
7.2340368
7.1318797
7.0199263
6.9306333
6.9306333
6.876389
6.8283539
6.7935601
6.7935601
6.7840002
6.7636664
6.7636664
)
;
    }
    procBoundary9to10
    {
        type            processor;
        value           nonuniform List<scalar> 
66
(
6.0577366
6.6940183
6.7675485
6.3853608
6.2518396
6.3842197
6.5872681
6.7592356
6.8702616
6.9202009
6.9192809
6.9481863
6.9481863
6.8781602
6.7930735
6.6987864
6.5997863
6.4997814
6.4019603
6.3093982
6.2256295
6.1541096
6.0968061
6.0534996
6.0224243
6.000759
6.0290531
6.0290531
6.0173734
6.0089546
6.0031315
5.9990789
5.99652
6.0354965
6.0354965
6.0351265
6.0363858
6.0767604
6.0767604
6.0814469
6.0885482
6.1338275
6.1338275
6.1472981
6.1990254
6.1990254
6.255256
6.255256
6.2865049
6.3590641
6.3590641
6.4443457
6.4443457
6.5485893
6.7097332
6.5485893
6.6806523
6.7097332
6.8882818
7.1814787
6.8882818
7.1515997
7.7318739
7.1814787
7.7019613
7.7318739
)
;
    }
}


// ************************************************************************* //
