/*--------------------------------*- C++ -*----------------------------------*\
| =========                 |                                                 |
| \\      /  F ield         | OpenFOAM: The Open Source CFD Toolbox           |
|  \\    /   O peration     | Version:  2506                                  |
|   \\  /    A nd           | Website:  www.openfoam.com                      |
|    \\/     M anipulation  |                                                 |
\*---------------------------------------------------------------------------*/
FoamFile
{
    version     2.0;
    format      ascii;
    arch        "LSB;label=32;scalar=64";
    class       surfaceScalarField;
    location    "0.25";
    object      phi;
}
// * * * * * * * * * * * * * * * * * * * * * * * * * * * * * * * * * * * * * //

dimensions      [1 0 -1 0 0 0 0];

oriented        oriented;

internalField   nonuniform List<scalar> 
2673
(
5.3586696
-51.749409
52.223051
5.0927615
-47.633564
47.898917
4.7649417
-44.150772
44.475617
4.4416823
-40.875883
41.205059
4.1337731
-37.841809
38.152321
3.8442265
-35.039828
35.330362
3.5752673
-32.452738
32.722442
3.3250694
-30.059831
30.309902
3.0929047
-27.841889
28.074112
2.8754697
-25.784671
26.001897
2.6738873
-23.877969
24.079505
2.4887069
-22.11406
22.299517
2.3152621
-20.479012
20.652643
2.1553053
-18.967767
19.128179
2.0051982
-17.564522
17.716682
1.8639931
-16.264933
16.405243
1.7358679
-15.069546
15.196745
1.6184041
-13.957541
14.074885
1.5086483
-12.929873
13.039824
1.4066392
-11.977775
12.079883
1.3123237
-11.095994
11.190722
1.2231083
-10.279085
10.368245
1.140208
-9.5232197
9.606066
1.0634538
-8.8240283
8.900835
0.99153638
-8.1771921
8.2490935
0.92501297
-7.5782547
7.645015
0.8627992
-7.0232721
7.0855823
0.8045385
-6.5088542
6.5673271
0.74989001
-6.0333601
6.0881781
0.69846611
-5.5933622
5.6446817
0.64987263
-5.1846581
5.2330402
0.60433918
-4.8068162
4.8522113
0.56067362
-4.4558454
4.4993374
0.52048814
-4.1318694
4.1720601
0.48146954
-3.83133
3.8704635
0.44374964
-3.5528239
3.5905728
0.40607408
-3.2939946
3.3318296
0.37110536
-3.0562415
3.0914454
0.33610503
-2.835184
2.8705962
0.29984092
-2.6306577
2.6669523
0.26746716
-2.4424045
2.4744363
0.23780726
-2.2716816
2.3005369
0.20275078
-2.1094384
2.1440631
0.167325
-1.9725955
2.0081001
0.1384948
-1.8491801
1.8767116
0.1401112
-1.7178253
1.7157011
0.10478384
-1.6507445
1.6881996
0.065488049
-1.5223974
1.5619077
-1.4651585
1.5305491
6.7228342
-51.214655
6.3306058
-47.233294
5.8861729
-43.698463
5.4450083
-40.433526
5.0529098
-37.448659
4.6936735
-34.679373
4.3584704
-32.117616
4.0442959
-29.745763
3.7536637
-27.551292
3.4847858
-25.515698
3.2351835
-23.628507
3.0032504
-21.881866
2.7871277
-20.262635
2.5862733
-18.766736
2.4039411
-17.381362
2.2314642
-16.091763
2.0708217
-14.908887
1.9234559
-13.810233
1.7851678
-12.791418
1.6566118
-11.849109
1.5375998
-10.976596
1.4278883
-10.169369
1.3259949
-9.4213121
1.2309001
-8.7289447
1.1418667
-8.0883201
1.059268
-7.4954233
0.98224422
-6.9460923
0.91078375
-6.4371917
0.84404545
-5.966316
0.78146866
-5.5308088
0.72228505
-5.1256052
0.66697318
-4.7516953
0.61587399
-4.4048943
0.56634911
-4.082365
0.51977816
-3.7846329
0.47598138
-3.5090245
0.4365214
-3.2544011
0.39741521
-3.0168512
0.36105623
-2.7986667
0.32495162
-2.5942985
0.29060258
-2.4082073
0.25217449
-2.2337503
0.21760855
-2.0753485
0.17531295
-1.9303886
0.11455126
-1.7873734
0.077471109
-1.680467
0.030731822
-1.6028981
-0.008232856
-1.4833092
-1.4739129
8.2418149
-50.530051
7.6888396
-46.677797
7.1588674
-43.166688
6.6433265
-39.915854
6.1660423
-36.969354
5.719658
-34.232542
5.3051766
-31.703602
4.9196657
-29.360083
4.5600851
-27.1918
4.2270066
-25.182242
3.9186601
-23.320312
3.632416
-21.59538
3.3660749
-19.99597
3.1175087
-18.517977
2.8873151
-17.149834
2.6798456
-15.883192
2.4821013
-14.711699
2.2980602
-13.626023
2.1294251
-12.622644
1.9731675
-11.692576
1.8274136
-10.830464
1.6915792
-10.033562
1.565822
-9.2954034
1.449065
-8.6122387
1.3398351
-7.9793177
1.2387526
-7.3941377
1.1449476
-6.8521422
1.0576267
-6.3496817
0.97618538
-5.8844937
0.89995794
-5.4544406
0.82973053
-5.0554208
0.76310357
-4.6852956
0.70050342
-4.3424625
0.64306137
-4.0250009
0.58889236
-3.7304025
0.53749988
-3.4576653
0.48721692
-3.203944
0.44117939
-2.9704718
0.39506012
-2.7523371
0.35394638
-2.5529382
0.31105037
-2.3650518
0.27089241
-2.1936927
0.23209809
-2.0370334
0.19175552
-1.8904469
0.16129089
-1.7567718
0.12371724
-1.6422963
0.078140812
-1.5567092
0.032968953
-1.4380214
-1.4416673
10.120536
-49.725049
9.4216928
-45.975501
8.75247
-42.49464
8.0953211
-39.257039
7.4929677
-36.366764
6.9413992
-33.68054
6.431012
-31.192356
5.9574934
-28.88639
5.5178797
-26.752272
5.1102802
-24.774271
4.7315217
-22.941511
4.3794874
-21.243433
4.0537254
-19.669954
3.7505666
-18.214684
3.4688598
-16.867181
3.2086236
-15.622201
2.966637
-14.470088
2.7439929
-13.403116
2.5361198
-12.41479
2.3445687
-11.500681
2.167068
-10.6526
2.0015361
-9.8680725
1.847947
-9.1415571
1.7050724
-8.469364
1.5723386
-7.846875
1.4489629
-7.2706301
1.3341876
-6.7373025
1.2282782
-6.2436267
1.1298549
-5.7856798
1.0377395
-5.3620168
0.95151478
-4.9692268
0.8711876
-4.6051887
0.79649556
-4.2679802
0.72654957
-3.9551539
0.66127112
-3.6650888
0.60015803
-3.3966013
0.54381936
-3.1475474
0.49056481
-2.9169554
0.44140018
-2.7029725
0.39205614
-2.5034045
0.34840656
-2.3211661
0.30575053
-2.1510864
0.26262474
-1.9942843
0.21871216
-1.847024
0.17962544
-1.7177522
0.14677609
-1.6092915
0.09022237
-1.5000172
0.044812159
-1.3925346
-1.3969481
12.33277
-48.755254
11.407009
-45.044575
10.550554
-41.636539
9.7638215
-38.470951
9.0482594
-35.651319
8.38433
-33.016211
7.7668918
-30.574045
7.1906541
-28.310087
6.652818
-26.214564
6.15411
-24.27524
5.6915837
-22.478541
5.261564
-20.813528
4.8652278
-19.273534
4.4989165
-17.848286
4.1590665
-16.526806
3.8438474
-15.306318
3.5502208
-14.176192
3.2782183
-13.131177
3.0246226
-12.161453
2.7891603
-11.264993
2.5723185
-10.435477
2.3713385
-9.6670641
2.1849278
-8.9548533
2.0112946
-8.2957176
1.8501538
-7.6858089
1.7014382
-7.1219976
1.5629849
-6.5990372
1.4339803
-6.1144425
1.3144191
-5.6657403
1.2033701
-5.2505733
1.1001101
-4.8659861
1.0039331
-4.5092257
0.91399866
-4.1782935
0.83060902
-3.8718549
0.75324675
-3.5877223
0.68050611
-3.323966
0.61244791
-3.0796176
0.54823848
-2.8525458
0.48928612
-2.6437519
0.43420824
-2.448097
0.38134621
-2.2680725
0.33040766
-2.0999163
0.28014428
-1.944135
0.23476094
-1.802101
0.18421767
-1.6671099
0.12926242
-1.5541307
0.080612335
-1.4512723
0.03912334
-1.3511676
-1.3581036
14.824161
-47.552123
13.747832
-43.968064
12.745643
-40.632175
11.788323
-37.508265
10.902168
-34.767129
10.088115
-32.201559
9.331867
-29.818212
8.6308926
-27.609107
7.9800521
-25.563984
7.3766524
-23.67145
6.8172328
-21.918346
6.2996375
-20.295852
5.8188986
-18.79241
5.3714606
-17.400615
4.9603763
-16.115067
4.5800746
-14.925194
4.2265208
-13.822431
3.8969869
-12.801865
3.5927532
-11.857261
3.3106143
-10.982821
3.0483418
-10.173012
2.8051576
-9.4238085
2.5801702
-8.7296156
2.3715846
-8.0869944
2.1783803
-7.492523
1.9981628
-6.9421503
1.830885
-6.4320147
1.6763417
-5.9596972
1.5331829
-5.5222134
1.4000007
-5.1169941
1.2756578
-4.7416399
1.1600047
-4.3937506
1.0527756
-4.0713162
0.95302192
-3.7721671
0.86034604
-3.4950473
0.77421047
-3.2379811
0.69382471
-2.9994973
0.61970551
-2.778342
0.54917512
-2.5728996
0.48424857
-2.3828696
0.42202791
-2.2056213
0.36417027
-2.0418647
0.31039597
-1.8904635
0.25605519
-1.7481151
0.21404811
-1.6255032
0.16704669
-1.5072366
0.10940086
-1.3937351
0.059463745
-1.3013423
-1.2986838
17.76556
-46.116191
16.449616
-42.65127
15.20112
-39.369453
14.074714
-36.384905
13.032871
-33.734952
12.053211
-31.217949
11.138081
-28.903019
10.293641
-26.763911
9.5118444
-24.782013
8.7873125
-22.946505
8.1171273
-21.247303
7.4958446
-19.674175
6.9205053
-18.216678
6.3868006
-16.866643
5.8918619
-15.619359
5.4327227
-14.464917
5.0079965
-13.397325
4.6150198
-12.408646
4.2507853
-11.492566
3.9134988
-10.645464
3.6007517
-9.8603529
3.3104322
-9.1331992
3.0412954
-8.4602284
2.7918321
-7.8374652
2.5602024
-7.2606932
2.3449709
-6.7271159
2.1453971
-6.2327647
1.9602812
-5.7744847
1.7886544
-5.3501689
1.6295344
-4.9574732
1.4818579
-4.5938459
1.3446142
-4.2566375
1.2169947
-3.9439508
1.0986601
-3.6539069
0.98883027
-3.385197
0.886583
-3.1358634
0.79156074
-2.9048357
0.70274809
-2.6895793
0.62153988
-2.4914425
0.54529493
-2.3062641
0.47483579
-2.134951
0.40960554
-1.9765065
0.34615616
-1.8269823
0.28895794
-1.6911326
0.22497636
-1.5617661
0.16516992
-1.4474824
0.1107024
-1.3393145
0.061350805
-1.2520573
-1.2373878
21.125998
-44.434949
19.542797
-41.066397
18.08498
-37.917332
16.768714
-35.088961
15.454931
-32.407638
14.279227
-30.034334
13.188324
-27.813021
12.183073
-25.7581
11.253854
-23.852516
10.393243
-22.085874
9.5963364
-20.449669
8.8572231
-18.934292
8.1726564
-17.531564
7.5381093
-16.231977
6.9505615
-15.031007
6.4082651
-13.921656
5.9054384
-12.893698
5.4381113
-11.940954
5.0049356
-11.059274
4.6029
-10.243366
4.2304043
-9.4879375
3.8861983
-8.788465
3.5669674
-8.1408646
3.2705507
-7.5410031
2.9960849
-6.985829
2.7409192
-6.4719641
2.50387
-5.9960616
2.2846105
-5.5553341
2.0821217
-5.1471974
1.8942205
-4.769129
1.7193985
-4.4188101
1.5568242
-4.0941456
1.4058852
-3.7932684
1.2660682
-3.5142232
1.1364994
-3.255563
1.0164425
-3.015862
0.90408369
-2.7928459
0.80134712
-2.5870621
0.70364767
-2.3935484
0.61527112
-2.2175238
0.53155584
-2.0509135
0.45203333
-1.896829
0.37931873
-1.7541329
0.30969605
-1.6216314
0.248987
-1.501267
0.18511729
-1.3837682
0.12366043
-1.2779768
0.067774662
-1.1962672
-1.1696498
24.826451
-42.428721
23.02238
-39.259151
21.160094
-36.053431
19.508744
-33.421162
18.083117
-30.967489
16.730571
-28.684716
15.474929
-26.553596
14.30018
-24.582751
13.208214
-22.760019
12.194988
-21.07251
11.256161
-19.510162
10.384984
-18.06214
9.5778809
-16.723968
8.8323574
-15.486241
8.1422061
-14.340397
7.5018325
-13.280226
6.9082816
-12.299582
6.3585875
-11.391339
5.8493568
-10.549975
5.3771185
-9.7709392
4.9394432
-9.0502672
4.5342063
-8.3828
4.1581823
-7.7646509
3.809661
-7.1923864
3.486973
-6.6627191
3.187758
-6.1726381
2.9101108
-5.7187333
2.6524133
-5.2979896
2.4138893
-4.90828
2.1928278
-4.5475448
1.9877461
-4.2134554
1.7974429
-3.9038444
1.6207035
-3.6167805
1.4568123
-3.3505705
1.3050647
-3.1037153
1.1642882
-2.8750236
1.0338298
-2.6626896
0.91169413
-2.4652758
0.8010688
-2.2828648
0.69567266
-2.1118082
0.60021093
-1.9550408
0.51166239
-1.8081203
0.42981129
-1.672235
0.35253918
-1.5443728
0.27643441
-1.4253392
0.2077353
-1.3152776
0.14323047
-1.2135123
0.077262005
-1.1302974
-1.0923861
28.929686
-40.082738
26.719277
-37.044055
24.70447
-34.027608
22.854815
-31.56879
21.126454
-29.243194
19.512758
-27.068233
18.01689
-25.058216
16.636227
-23.201293
15.36024
-21.481992
14.176919
-19.888712
13.079959
-18.412466
12.067741
-17.048524
11.128736
-15.784113
10.258499
-14.615701
9.4526748
-13.534745
8.7075502
-12.534161
8.0162432
-11.607885
7.3749641
-10.749819
6.7811807
-9.955851
6.2313087
-9.2209098
5.7212599
-8.5400485
5.2484628
-7.9096977
4.8106215
-7.3265631
4.405049
-6.7867662
4.0294959
-6.2868708
3.6810666
-5.8240066
3.3576145
-5.3954571
3.0575768
-4.9984582
2.7802013
-4.6307482
2.5236183
-4.2903344
2.2853995
-3.9749068
2.0642218
-3.6825897
1.8588933
-3.4116697
1.6684341
-3.1604637
1.4924251
-2.927639
1.3292866
-2.7116977
1.177862
-2.5114628
1.0373442
-2.3251575
0.90674461
-2.152392
0.78724562
-1.9920657
0.67541444
-1.8427796
0.57123163
-1.7036782
0.47369567
-1.5746356
0.38387966
-1.4545027
0.30063285
-1.3421709
0.22033484
-1.2350344
0.14675985
-1.1399553
0.074856193
-1.0584238
-1.0175339
33.227829
-37.256338
30.795328
-34.606449
28.522239
-31.75464
26.329948
-29.38377
24.310293
-27.223488
22.453013
-25.209216
20.735289
-23.337974
19.145036
-21.609115
17.672713
-20.007253
16.307137
-18.522306
15.045186
-17.149736
13.876261
-15.877803
12.795237
-14.701639
11.792593
-13.612666
10.862643
-12.605037
10.0023
-11.672983
9.2055093
-10.810375
8.4675192
-10.011527
7.7833357
-9.2714466
7.1488995
-8.5863166
6.5617406
-7.952591
6.018407
-7.366062
5.5148694
-6.8227735
5.0477348
-6.3196246
4.6148217
-5.8537802
4.2136781
-5.4226283
3.8417976
-5.0235574
3.4967581
-4.6539209
3.1772838
-4.3113912
2.8818336
-3.9942201
2.6077831
-3.7004675
2.3535471
-3.4282557
2.1177021
-3.1759959
1.8988198
-2.9420198
1.6963044
-2.7251695
1.5089242
-2.5240495
1.3351612
-2.337755
1.1739344
-2.1643183
1.024615
-2.0033633
0.88607325
-1.8534556
0.7588659
-1.7151566
0.64150242
-1.5859547
0.5325544
-1.4655926
0.4311536
-1.3530716
0.33670824
-1.2477766
0.24990895
-1.1483188
0.16776109
-1.0579252
0.087555772
-0.97821191
-0.92995862
37.970218
-34.143551
35.019458
-31.655506
32.368629
-29.111472
29.935811
-26.95332
27.653368
-24.938732
25.544832
-23.097264
23.593717
-21.384874
21.784918
-19.799078
20.109819
-18.330215
18.55709
-16.967953
17.115488
-15.706882
15.780519
-14.541187
14.545307
-13.464579
13.402901
-12.469499
12.345189
-11.547516
11.366156
-10.693249
10.459011
-9.9022895
9.6175938
-9.169944
8.8382661
-8.4921918
8.117087
-7.8649003
7.4487175
-7.2840655
6.8293518
-6.746412
6.2554829
-6.2486653
5.7237379
-5.7878744
5.2312733
-5.3612147
4.7750096
-4.9661719
4.352075
-4.6004824
3.9596022
-4.2618475
3.5959563
-3.9480871
3.2598715
-3.6575409
2.9483759
-3.3884809
2.6593317
-3.1391206
2.3912165
-2.9080201
2.1425191
-2.6937948
1.9122809
-2.4951406
1.6994628
-2.3109726
1.5019946
-2.1402023
1.3191622
-1.981784
1.1494744
-1.8340544
0.99295959
-1.6970933
0.84762483
-1.569534
0.71336971
-1.451275
0.58888154
-1.3409482
0.4738409
-1.2380078
0.36646653
-1.1403866
0.26866684
-1.0505776
0.17697849
-0.96618083
0.087715796
-0.88890629
-0.84222335
42.645543
-30.576592
39.300471
-28.317217
36.34356
-26.156354
33.598032
-24.208233
31.067373
-22.405415
28.705309
-20.732677
26.511802
-19.190319
24.477411
-17.763537
22.591538
-16.44281
20.843344
-15.218131
19.224669
-14.08713
17.725877
-13.041239
16.339083
-12.076228
15.054238
-11.183637
13.862952
-10.356401
12.760792
-9.5903751
11.740872
-8.8811208
10.795428
-8.2243009
9.9192998
-7.6161118
9.1078169
-7.0531084
8.3559433
-6.5321515
7.6598645
-6.0500061
7.0150387
-5.603578
6.4173944
-5.1901656
5.8635829
-4.8073195
5.3504425
-4.4528882
4.8750145
-4.1248722
4.434156
-3.8212375
4.0255227
-3.5399172
3.6477644
-3.2793197
3.2979442
-3.0380054
2.9733812
-2.8144192
2.6723897
-2.6071501
2.3932047
-2.415064
2.1346418
-2.2369234
1.8956563
-2.0718101
1.674159
-1.9185228
1.4688378
-1.7766169
1.2787463
-1.6443394
1.1027595
-1.5214094
0.94019935
-1.4068655
0.79040291
-1.3010792
0.65155881
-1.2018766
0.52268057
-1.1091043
0.40560088
-1.0232971
0.29396437
-0.93896625
0.19213814
-0.86433338
0.097638689
-0.79440936
-0.7445567
47.480413
-26.783847
43.868523
-24.708143
40.489352
-22.770856
37.366197
-21.080028
34.512505
-19.546498
31.859842
-18.07765
29.411544
-16.740541
27.146037
-15.497463
25.048574
-14.344584
23.107994
-13.276565
21.312502
-12.290706
19.649233
-11.377346
18.110337
-10.536223
16.684923
-9.7570293
15.363379
-9.0349843
14.139774
-8.3662706
13.007531
-7.7472363
11.95803
-7.1742744
10.985899
-6.6438695
10.086
-6.1528883
9.2522524
-5.6984042
8.4802373
-5.2776157
7.7650523
-4.888012
7.1023286
-4.5272633
6.4882793
-4.193225
5.9193854
-3.8839665
5.3924435
-3.5977777
4.9040157
-3.3328929
4.4510774
-3.087481
4.0321421
-2.8601009
3.6444933
-2.6495547
3.2848663
-2.4545288
2.9513615
-2.2737396
2.6420701
-2.1061887
2.3555719
-1.9508418
2.0905789
-1.8067383
1.8454541
-1.6731828
1.6180107
-1.5491672
1.4074421
-1.4340729
1.2124091
-1.3267641
1.0325442
-1.2270552
0.86588063
-1.1340806
0.71235359
-1.0480689
0.57030973
-0.9670125
0.43776506
-0.89077313
0.31895198
-0.8201331
0.20816071
-0.75355461
0.1022641
-0.68843733
-0.64225712
51.747587
-22.448395
47.829513
-20.783732
44.221948
-19.155712
40.860302
-17.716203
37.734499
-16.420804
34.844864
-15.189313
32.16287
-14.059691
29.680374
-13.015195
27.384744
-12.048012
25.263745
-11.154622
23.298409
-10.325295
21.48082
-9.5596813
19.797178
-8.8516492
18.236944
-8.1954889
16.790246
-7.5883523
15.450633
-7.0265826
14.21172
-6.5067489
13.063976
-6.0257696
12.000824
-5.580506
11.016443
-5.1682179
10.104548
-4.7864818
9.2602837
-4.4330057
8.4784069
-4.1056774
7.7539969
-3.8025736
7.0827855
-3.5219461
6.4608312
-3.2621046
5.8847411
-3.0216275
5.3510534
-2.7991191
4.8561076
-2.5930013
4.3980456
-2.4019683
3.9743688
-2.2250466
3.5814865
-2.0612442
3.2171185
-1.9094211
2.8792596
-1.7687225
2.5662374
-1.6382588
2.2767082
-1.5172063
2.0087347
-1.405017
1.7606412
-1.3009328
1.5306274
-1.204237
1.3176232
-1.1141676
1.1207528
-1.0303827
0.93928035
-0.95236813
0.77132331
-0.87981554
0.61642472
-0.81202279
0.4739774
-0.74834643
0.34145003
-0.68761659
0.21860723
-0.63065995
0.10747213
-0.57722763
-0.53475781
55.854692
-17.873288
51.566203
-16.496413
47.636078
-15.225719
44.014666
-14.097036
40.644555
-13.054939
37.524348
-12.070246
34.63851
-11.176034
31.966891
-10.344023
29.494776
-9.5751938
27.207027
-8.8658868
25.087954
-8.2065249
23.127312
-7.5990439
21.31186
-7.0355844
19.631213
-6.5135838
18.073896
-6.0309273
16.63154
-5.5844068
15.297282
-5.1712015
14.061342
-4.7889196
12.916362
-4.435145
11.85614
-4.1075847
10.87403
-3.8041889
9.9646018
-3.523166
9.1224188
-3.2629277
8.342168
-3.0219865
7.6193489
-2.7989589
6.9495706
-2.5924453
6.3291569
-2.4012878
5.7546825
-2.2244325
5.221974
-2.0606377
4.7286805
-1.9087726
4.2724505
-1.768073
3.8495722
-1.6378697
3.4574091
-1.5172495
3.0937725
-1.4054679
2.7568497
-1.3017798
2.4451826
-1.2055871
2.1566494
-1.1163409
1.8896135
-1.0336838
1.6422242
-0.95687879
1.4130446
-0.88535812
1.2010525
-0.81868267
1.0054692
-0.75665975
0.82484809
-0.69891205
0.6579751
-0.6450357
0.50403635
-0.59441024
0.36281173
-0.54640708
0.23401892
-0.50182027
0.11391108
-0.45706951
-0.420812
59.190991
-12.978968
54.678545
-11.9843
50.517787
-11.064041
46.651632
-10.233879
43.075309
-9.4806675
39.770341
-8.7655905
36.711307
-8.1176834
33.879922
-7.513259
31.258935
-6.9544197
28.831663
-6.4382779
26.587635
-5.9621417
24.509005
-5.5198861
22.584242
-5.1098561
20.802997
-4.7305754
19.153149
-4.3803014
17.625103
-4.0562965
16.211061
-3.7559441
14.9011
-3.4779439
13.687232
-3.2207918
12.563051
-2.9828691
11.521785
-2.7625931
10.557621
-2.5585144
9.6648831
-2.3694883
8.8377694
-2.1944987
8.0715948
-2.0325275
7.3616021
-1.8825446
6.7038131
-1.7437107
6.0948952
-1.6152679
5.5304196
-1.4963447
5.0074941
-1.3860253
4.5237858
-1.2837578
4.0756131
-1.189163
3.6600523
-1.1016135
3.274711
-1.0204839
2.9177073
-0.94521169
2.5873551
-0.87532233
2.2815945
-0.81048765
1.9985503
-0.75040943
1.7364458
-0.69468543
1.4935942
-0.6428031
1.2689806
-0.59440095
1.0615583
-0.54921392
0.8701567
-0.50726569
0.69335251
-0.46809667
0.53037852
-0.43144025
0.38059909
-0.39663345
0.24265224
-0.36381858
0.11748969
-0.33182457
-0.30328429
61.757722
-7.8791092
57.046544
-7.2696013
52.697407
-6.7113975
48.675835
-6.2136623
44.947553
-5.7549336
41.499882
-5.3197907
38.30594
-4.924484
35.34962
-4.5575567
32.613408
-4.2187753
30.080139
-3.9048034
27.734173
-3.6156302
25.562875
-3.3480596
23.553887
-3.1000832
21.695723
-2.8706867
19.974873
-2.6583208
18.380596
-2.4616393
16.9052
-2.2791991
15.538681
-2.1103044
14.272472
-1.9540894
13.099771
-1.8096155
12.013577
-1.6759903
11.007819
-1.552237
10.076688
-1.4375855
9.214022
-1.3314291
8.4149874
-1.2331584
7.6745239
-1.1421422
6.9883667
-1.0578867
6.3532513
-0.97994227
5.7647051
-0.90780882
5.2193449
-0.84083301
4.7147144
-0.77868143
4.2472961
-0.72123916
3.8139872
-0.66817136
3.4122191
-0.61901644
3.0400201
-0.57339925
2.695536
-0.53094953
2.3766363
-0.49154851
2.0814986
-0.45506411
1.8082385
-0.42126352
1.5550594
-0.38982559
1.320792
-0.36044341
1.104484
-0.3329439
0.90478386
-0.30738168
0.72044173
-0.28362022
0.55047018
-0.26146153
0.39421752
-0.2403911
0.25117073
-0.22071775
0.1212205
-0.20178912
-0.18202803
63.351195
-2.6406123
58.519768
-2.4359912
54.062235
-2.2504501
49.930318
-2.0820989
46.100368
-1.9261948
42.560749
-1.7832601
39.285461
-1.6521244
36.255034
-1.5287867
33.450914
-1.4154671
30.855114
-1.3094394
28.451053
-1.2122187
26.224917
-1.1221274
24.163654
-1.0386169
22.256137
-0.96185533
20.489641
-0.89072721
18.853175
-0.82467706
17.338875
-0.76356132
15.936688
-0.70702781
14.637725
-0.65471275
13.434987
-0.6063474
12.321036
-0.56156993
11.289458
-0.52009837
10.334348
-0.48168373
9.4494433
8.6298621
7.8703631
7.1664793
6.5149475
5.9114135
5.3520854
4.8343117
4.3547988
3.9103862
3.4984006
3.1167769
2.7634805
2.4363937
2.1336972
1.8535078
1.5939718
1.3537842
1.1319105
0.92710066
0.73808662
0.56380363
0.40357882
0.25658236
0.12250174
63.895261
59.024377
54.526001
50.35986
46.504861
42.934859
39.626575
36.56704
33.735084
31.115589
28.690499
26.445844
24.367652
22.443594
20.662038
19.012266
17.485332
16.071129
14.760981
13.548102
12.424971
11.384921
-0.076796658
-17.680975
-0.072499631
-19.09129
-0.068867763
-20.609949
-0.065546059
-22.250921
-0.061153203
-24.027135
-0.05422308
-25.94452
-0.046355583
-28.009533
-0.040604164
-30.237577
-0.037500679
-32.646746
-0.034397393
-35.251644
-0.028746846
-38.077053
-0.021091963
-41.134502
-0.015320068
-44.457591
-0.01093498
-47.97669
-52.19497
-0.085892994
-6.584615
-0.088733202
-7.0983902
-0.092893429
-7.6530827
-0.095640124
-8.2543546
-0.097241019
-8.9044271
-0.097663508
-9.6056344
-0.097631341
-10.363325
-0.097452789
-11.181841
-0.096398042
-12.067071
-0.093673374
-13.023953
-0.092482149
-14.05715
-0.090451797
-15.174518
-0.085954904
-16.382152
-0.082770177
-17.683845
-0.080465505
-19.093242
-0.076379125
-20.613704
-0.071540546
-22.254964
-0.066779938
-24.030912
-0.060589921
-25.950073
-0.054737346
-28.014911
-0.049788945
-30.242241
-0.04390221
-32.651425
-0.037046613
-35.257176
-0.028779625
-38.084067
-0.019673097
-41.142323
-0.01686035
-44.458915
-0.014246231
-47.976685
-52.205826
-0.051845323
-3.1433206
-0.063162184
-3.3746783
-0.067242747
-3.6328421
-0.06935572
-3.9096124
-0.075785633
-4.2073089
-0.082806169
-4.5296265
-0.087111228
-4.8801904
-0.091248748
-5.2574866
-0.095466637
-5.6655189
-0.099403202
-6.1065371
-0.10201953
-6.5823709
-0.10384876
-7.0968773
-0.10261858
-7.6543814
-0.10118777
-8.2552636
-0.10164363
-8.9036267
-0.10300256
-9.6041823
-0.10414308
-10.36192
-0.10229621
-11.183568
-0.099991463
-12.06912
-0.098610489
-13.024864
-0.09841339
-14.057379
-0.095458593
-15.177455
-0.092522325
-16.384993
-0.089984758
-17.68618
-0.087696028
-19.094894
-0.083174356
-20.617705
-0.075128095
-22.26212
-0.069280397
-24.035875
-0.064815831
-25.953827
-0.059479128
-28.01966
-0.05351675
-30.247588
-0.046063112
-32.657527
-0.035696467
-35.266382
-0.02645909
-38.092391
-0.021819705
-41.145721
-0.021188827
-44.458292
-0.021766884
-47.969044
-52.212144
-0.0047599393
-1.7136239
-0.010451252
-1.7937202
0.0043650342
-1.9574631
-0.0029964845
-2.0402556
-0.0047176358
-2.2168902
-0.010580193
-2.3486559
-0.027549552
-2.5274372
-0.035601834
-2.7163415
-0.050724575
-2.9118829
-0.061083143
-3.132867
-0.065115776
-3.3702189
-0.070853978
-3.6272633
-0.077282874
-3.9035648
-0.082954189
-4.201382
-0.087266678
-4.5248593
-0.09374919
-4.8735087
-0.098091867
-5.2529216
-0.10216915
-5.6611466
-0.10631164
-6.1024771
-0.10893472
-6.5801752
-0.10996152
-7.0961302
-0.11215811
-7.6521271
-0.11330087
-8.2536912
-0.11296176
-8.9039433
-0.1117438
-9.6055341
-0.10863937
-10.365025
-0.10769019
-11.184513
-0.10698333
-12.06946
-0.10430593
-13.027351
-0.10216819
-14.059003
-0.098508737
-15.180556
-0.099174049
-16.384126
-0.096472333
-17.688643
-0.091340344
-19.099547
-0.084585058
-20.62375
-0.078424786
-22.267597
-0.073509308
-24.040093
-0.069838456
-25.95689
-0.064259946
-28.024765
-0.055486694
-30.25542
-0.045215056
-32.666514
-0.034276021
-35.276079
-0.027771861
-38.097396
-0.025072654
-41.146567
-0.022598822
-44.459286
-0.021610231
-47.970303
-52.219235
-0.0060679714
-1.4524958
-0.0083891776
-1.6083497
-0.01663598
-1.7077025
-0.016987116
-1.7942711
-0.01697918
-1.9599237
-0.02495733
-2.0307768
-0.039077291
-2.2012456
-0.044873842
-2.341913
-0.050629788
-2.5206605
-0.056215143
-2.7107741
-0.061963425
-2.9063179
-0.067746937
-3.1270041
-0.073160116
-3.3644733
-0.081917757
-3.6186488
-0.090917784
-3.8946503
-0.095556802
-4.1963865
-0.099190656
-4.5209908
-0.10058959
-4.8721719
-0.10338546
-5.2499862
-0.10555376
-5.6587429
-0.10725226
-6.1009104
-0.11020697
-6.5774692
-0.11376471
-7.0926007
-0.11542497
-7.6502022
-0.11668994
-8.2520352
-0.11786214
-8.9027843
-0.1175387
-9.6059697
-0.11725606
-10.365287
-0.11671094
-11.184975
-0.11501529
-12.070986
-0.11175808
-13.030788
-0.10891482
-14.061125
-0.10648819
-15.182395
-0.10463082
-16.385441
-0.098380423
-17.694702
-0.092182312
-19.105391
-0.087681896
-20.627598
-0.084946515
-22.269347
-0.080505459
-24.043757
-0.074025839
-25.962733
-0.067303103
-28.030979
-0.05693411
-30.264662
-0.046638938
-32.675125
-0.03873349
-35.28228
-0.032059275
-38.102059
-0.022508552
-41.153632
-0.010714726
-44.468107
-0.014503592
-47.969752
-52.221236
0.026846658
-1.4810008
0.01797442
-1.5994354
5.5274731e-05
-1.6892568
-0.011132524
-1.7829307
-0.048026718
-1.9226228
-0.053309565
-2.0237868
-0.050930035
-2.2031314
-0.045869207
-2.3467995
-0.05044357
-2.5160722
-0.061650897
-2.6998038
-0.065360759
-2.9031888
-0.072395414
-3.1198373
-0.082197158
-3.3543748
-0.087438518
-3.6136437
-0.089196964
-3.8929151
-0.093703311
-4.1914099
-0.099140019
-4.5153697
-0.10589823
-4.8654697
-0.11050839
-5.2452192
-0.11388279
-5.6551709
-0.1177729
-6.0971867
-0.11945356
-6.5758806
-0.11964425
-7.0923595
-0.12035254
-7.6492372
-0.12060042
-8.2516026
-0.12098877
-8.9023573
-0.12186415
-9.604992
-0.1226919
-10.364267
-0.1220063
-11.185419
-0.11911466
-12.073866
-0.11767594
-13.03237
-0.11511316
-14.063295
-0.11402802
-15.183085
-0.10946021
-16.38967
-0.10326564
-17.700994
-0.099367061
-19.108863
-0.09566473
-20.630646
-0.089806367
-22.274213
-0.082881361
-24.049965
-0.074983573
-25.96996
-0.066170009
-28.039252
-0.057381201
-30.272344
-0.049186746
-32.681558
-0.039846155
-35.289525
-0.029805485
-38.109839
-0.019925465
-41.15996
-0.0044109412
-44.480715
-0.0020178346
-47.957511
-52.220753
0.0038976944
-1.486315
-0.0020715462
-1.5903119
-0.0013121488
-1.6861811
-0.015630856
-1.7688313
-0.0095913352
-1.9286512
-0.0046360448
-2.0310545
-0.027622134
-2.1818923
-0.040650353
-2.3332365
-0.054049469
-2.5024385
-0.062988416
-2.6913509
-0.073948782
-2.8924556
-0.081612144
-3.1118429
-0.083922165
-3.3519898
-0.090523188
-3.6071958
-0.099642554
-3.8836521
-0.10544488
-4.1851843
-0.10993452
-4.5108952
-0.11240659
-4.8631162
-0.115511
-5.2420057
-0.11828618
-5.6523168
-0.12030952
-6.0953378
-0.12257874
-6.5735095
-0.12518167
-7.0896033
-0.12619401
-7.6480475
-0.1268341
-8.2508915
-0.12710854
-8.9020061
-0.12632096
-9.6056202
-0.12503873
-10.365404
-0.12352008
-11.186789
-0.12312917
-12.074167
-0.12257518
-13.032748
-0.11936848
-14.06608
-0.11518626
-15.186959
-0.10851705
-16.396361
-0.10753618
-17.701956
-0.10474345
-19.110845
-0.099032001
-20.635596
-0.092339473
-22.280237
-0.083680818
-24.058138
-0.074390939
-25.978738
-0.066245199
-28.047061
-0.058909517
-30.278464
-0.048499977
-32.690323
-0.037208526
-35.298671
-0.027020493
-38.117775
-0.015736802
-41.166604
-0.0086863537
-44.483597
-0.0069386746
-47.946923
-52.219723
0.0103085
-1.4955933
0.00071593869
-1.5794621
0.023534069
-1.7080567
0.017242102
-1.7633255
-0.0034897491
-1.9093818
-0.016870298
-2.0176203
-0.042885941
-2.1545511
-0.053385459
-2.3225333
-0.064425947
-2.4914766
-0.074059565
-2.6824627
-0.081277176
-2.885323
-0.087036429
-3.1058471
-0.096386831
-3.3424887
-0.10307181
-3.6005391
-0.10617548
-3.8804425
-0.10944557
-4.1816702
-0.11312197
-4.5073475
-0.11760181
-4.8587711
-0.12096452
-5.2386183
-0.12381644
-5.6495995
-0.12712196
-6.0922109
-0.12951167
-6.5709201
-0.13042622
-7.0885109
-0.13124545
-7.6470831
-0.13155589
-8.2504257
-0.13202988
-8.9014121
-0.13235691
-9.6051741
-0.13174659
-10.366063
-0.13015819
-11.188454
-0.12792566
-12.076224
-0.12540129
-13.034906
-0.12169143
-14.069359
-0.11929776
-15.189097
-0.11830647
-16.397922
-0.11389089
-17.706195
-0.10575689
-19.118193
-0.098928804
-20.641919
-0.092026
-22.286662
-0.084708647
-24.064998
-0.078705861
-25.984534
-0.07023223
-28.055118
-0.058334693
-30.289415
-0.046534109
-32.700679
-0.035246044
-35.30813
-0.023888316
-38.127239
-0.01388
-41.172813
-0.010600481
-44.482987
-0.010699072
-47.936765
-52.216636
0.018663074
-1.5144831
0.0061134734
-1.5665908
0.0018158128
-1.7079426
-0.019899363
-1.7410883
-0.05247148
-1.8748522
-0.063751265
-2.0055004
-0.063834886
-2.1540117
-0.071348286
-2.3150156
-0.075206982
-2.4883336
-0.084738226
-2.6735302
-0.090781944
-2.8792401
-0.097702441
-3.0987352
-0.10298799
-3.3371566
-0.10816714
-3.5953595
-0.11357596
-3.8749413
-0.11854482
-4.1765259
-0.12359768
-4.5024176
-0.12703535
-4.8554456
-0.12987267
-5.2358248
-0.13239974
-5.647307
-0.13417946
-6.0905697
-0.13552619
-6.569385
-0.13702703
-7.0868914
-0.13809454
-7.645823
-0.13869631
-8.2495931
-0.13883296
-8.9011467
-0.13827961
-9.6057194
-0.13749096
-10.367077
-0.13567884
-11.190236
-0.13382996
-12.077843
-0.13196057
-13.03642
-0.12886055
-14.072186
-0.1244488
-15.19326
-0.1212207
-16.40176
-0.11532715
-17.712046
-0.10923042
-19.123605
-0.10413265
-20.646559
-0.096391513
-22.293984
-0.088285162
-24.072789
-0.080765375
-25.992278
-0.070751387
-28.064679
-0.059874247
-30.299472
-0.047936017
-32.711496
-0.035523375
-35.319071
-0.022200998
-38.138896
-0.0096625582
-41.184542
-0.010789544
-44.479071
-0.028046905
-47.9269
-52.221998
0.014713634
0.0071811161
-0.013376774
-0.036479999
-0.034322826
-0.031235425
-0.041581342
-0.056072643
-0.070413602
-0.077268038
-0.085515624
-0.092571116
-0.097867909
-0.10264628
-0.1070411
-0.11144202
-0.1146909
-0.11804507
-0.12097018
-0.12377212
-0.12616059
-0.1280222
-0.12925122
-0.12983331
-0.1301783
-0.13038584
-0.13010886
-0.12914866
-0.12833355
-0.12607879
-0.12234066
-0.11949825
-0.11616934
-0.11292507
-0.10761546
-0.10233423
-0.095924301
-0.089957673
-0.083137116
-0.073859841
-0.064227489