/*--------------------------------*- C++ -*----------------------------------*\
| =========                 |                                                 |
| \\      /  F ield         | OpenFOAM: The Open Source CFD Toolbox           |
|  \\    /   O peration     | Version:  2506                                  |
|   \\  /    A nd           | Website:  www.openfoam.com                      |
|    \\/     M anipulation  |                                                 |
\*---------------------------------------------------------------------------*/
FoamFile
{
    version     2.0;
    format      ascii;
    arch        "LSB;label=32;scalar=64";
    class       volScalarField;
    location    "0.65";
    object      Cp;
}
// * * * * * * * * * * * * * * * * * * * * * * * * * * * * * * * * * * * * * //

dimensions      [0 0 0 0 0 0 0];

internalField   nonuniform List<scalar> 
1375
(
0.042492274
0.044518692
0.046724153
0.049950677
0.053330193
0.056854531
0.06091379
0.065949221
0.072297839
0.07940174
0.086768161
0.095003837
0.10463798
0.11567386
0.12928342
0.14694138
0.1681229
0.19158331
0.21843275
0.25162489
0.29322884
0.34615414
0.41746517
0.51588751
0.65515801
0.84674964
0.038443124
0.031050652
0.025824946
0.025141978
0.026178083
0.027238407
0.027713034
0.027364633
0.026954294
0.027000612
0.027488546
0.027936975
0.028368248
0.02911239
0.030048496
0.030900432
0.031604388
0.032347605
0.033347497
0.034734194
0.036358663
0.037742582
0.03982118
0.042506728
0.044475249
0.046734466
0.049896358
0.053179205
0.056775278
0.060950589
0.065977619
0.072132258
0.079139948
0.086558665
0.094828178
0.10443302
0.11549867
0.12921407
0.14693662
0.16806559
0.19149684
0.21846373
0.25166998
0.29277641
0.34518068
0.41643684
0.51455337
0.65303519
0.8442863
0.038007712
0.030528518
0.025636837
0.025209531
0.02623538
0.027121056
0.027731701
0.027357099
0.026969288
0.027063671
0.027515695
0.028001248
0.028421185
0.02906111
0.029897718
0.030732378
0.031469572
0.032242843
0.033206964
0.034514388
0.036128491
0.037558907
0.039691265
0.042330132
0.044159949
0.046421604
0.049474837
0.052656098
0.056358443
0.060633986
0.065579568
0.071448377
0.078285556
0.085726872
0.09402308
0.1035906
0.11465369
0.12844377
0.14613389
0.16701602
0.19031097
0.21738417
0.25047923
0.29069768
0.34225166
0.4128524
0.50987768
0.64553268
0.83237479
0.037351254
0.029835184
0.025231705
0.025026351
0.026072056
0.026852398
0.027107032
0.027157507
0.026839033
0.02690325
0.027508722
0.028104196
0.028520015
0.029067585
0.029784649
0.030605446
0.031332304
0.032070773
0.032967369
0.034180986
0.035726041
0.037111282
0.039268191
0.041810846
0.043454149
0.045682947
0.04851539
0.051609221
0.055427319
0.059711026
0.064457381
0.069972083
0.076590222
0.083991666
0.092250546
0.10170879
0.11264545
0.12635773
0.14383712
0.16426149
0.18723121
0.21430602
0.24684992
0.28573715
0.33597374
0.40554386
0.49844604
0.63258898
0.81241864
0.036543034
0.029053385
0.024618855
0.024421723
0.025562664
0.026605647
0.027185174
0.027417471
0.027100933
0.02709053
0.027672996
0.028246635
0.028575034
0.029074277
0.029704798
0.030446112
0.031091352
0.031774584
0.032558079
0.033673752
0.035129138
0.036416102
0.038580125
0.040948051
0.042381308
0.044520928
0.047100543
0.050187375
0.054073227
0.058212228
0.062649331
0.067791271
0.074175481
0.081491138
0.089653514
0.098909269
0.10956536
0.12303048
0.14012752
0.15989536
0.18253034
0.20919174
0.24097258
0.27787671
0.32710543
0.39358506
0.48544495
0.61049065
0.78177647
0.035799224
0.028465226
0.024247295
0.024486633
0.025933575
0.026695777
0.027368321
0.027700347
0.027571034
0.027569246
0.027924022
0.028286615
0.028483046
0.028897664
0.029527604
0.030213126
0.030747816
0.031350769
0.031970475
0.033022939
0.034362205
0.035549975
0.037741535
0.039836895
0.041071014
0.043074217
0.045426788
0.048547206
0.05236672
0.056225864
0.06031626
0.065079132
0.071231426
0.078451884
0.086485054
0.095434679
0.1056642
0.11884074
0.13546331
0.15451129
0.17660462
0.20283351
0.2331534
0.26803965
0.31562327
0.38016375
0.46437344
0.58892526
0.74211387
0.034327593
0.027734197
0.024081077
0.024698915
0.026425865
0.027114935
0.027307475
0.027350163
0.027105372
0.027390985
0.027921675
0.028112353
0.02829797
0.028656932
0.029239679
0.029830058
0.030302264
0.030827902
0.031275557
0.032282314
0.033492049
0.034646037
0.036844453
0.038543836
0.039631214
0.041429437
0.04360848
0.046736572
0.050318085
0.05383287
0.0575741
0.06195834
0.067906837
0.075033577
0.0828726
0.091350989
0.10107971
0.11403131
0.13004565
0.14835482
0.16978621
0.19548967
0.22364755
0.25732864
0.3024236
0.36549822
0.44264038
0.55305567
0.6976538
0.033438574
0.02734187
0.023924924
0.024995406
0.026669816
0.027163561
0.027154442
0.02691334
0.026689529
0.027251631
0.027960374
0.028036236
0.028204704
0.028533141
0.029026943
0.029449268
0.029805214
0.03019696
0.030572432
0.031576466
0.032652391
0.033774867
0.035821545
0.037048609
0.038027107
0.039563033
0.041659095
0.044743021
0.047946159
0.051119111
0.054486626
0.058492947
0.064296057
0.071310391
0.078815883
0.086641018
0.095947608
0.10863564
0.12402893
0.14141727
0.16236171
0.18652708
0.21291043
0.2440343
0.28924695
0.34659504
0.42804384
0.51351131
0.64013513
0.032966939
0.027111252
0.024007456
0.025401932
0.026910211
0.027464981
0.027491186
0.027105364
0.027150125
0.027597603
0.027871562
0.028034728
0.02827203
0.028501792
0.02887106
0.029140904
0.029386843
0.029592367
0.029900788
0.030872648
0.031773803
0.032862011
0.034639094
0.035409853
0.036237051
0.037517576
0.039607346
0.04255199
0.045307038
0.04816424
0.051087839
0.054754343
0.060490353
0.067320501
0.074283267
0.08136847
0.09034562
0.10277978
0.11725231
0.13375637
0.15366635
0.17657811
0.20134177
0.22963443
0.27344303
0.32755602
0.39893755
0.49864281
0.57904712
0.0326339
0.026594934
0.023314365
0.024951567
0.026653278
0.027425574
0.027312605
0.026873253
0.02700606
0.027461788
0.027788509
0.028220065
0.028200814
0.028338736
0.028586748
0.028760635
0.028975055
0.029025239
0.029248299
0.030123393
0.030788535
0.031876901
0.033361184
0.033719003
0.034342539
0.035404642
0.037498649
0.040171455
0.042488986
0.045030608
0.04744885
0.050890096
0.056591151
0.063077177
0.069287114
0.075663163
0.084382112
0.096434364
0.10982416
0.12551028
0.14445193
0.16582926
0.1869448
0.21564088
0.2557092
0.30880233
0.36192015
0.45350728
0.51582057
0.03138725
0.026478966
0.023568966
0.025257982
0.026743177
0.027572424
0.02747575
0.027006378
0.027110983
0.027585532
0.027825009
0.028100745
0.027994435
0.028088248
0.028189751
0.028263903
0.028341594
0.028321986
0.028513398
0.029270709
0.029774581
0.030890017
0.032061038
0.032026356
0.032431035
0.033349231
0.035385526
0.037665144
0.039628346
0.041763237
0.043656243
0.047031323
0.05264482
0.058555584
0.063890787
0.069606832
0.078158703
0.089554076
0.10184426
0.11637386
0.13419726
0.15365764
0.17245586
0.19881273
0.23622396
0.28338509
0.34259676
0.38503717
0.43324821
0.030789103
0.025686622
0.023851663
0.026087548
0.027276577
0.027857014
0.027799109
0.027461677
0.027652739
0.027915868
0.028099478
0.02781473
0.027681553
0.027921926
0.027836046
0.027850652
0.027724513
0.027547448
0.027749482
0.028378952
0.028783721
0.029773568
0.030538368
0.03026429
0.03042061
0.031307506
0.033247694
0.035056403
0.036728411
0.03836169
0.039840628
0.043221837
0.048571992
0.053706487
0.058128666
0.063363612
0.071688406
0.082298508
0.093156663
0.10700682
0.12345956
0.14017435
0.15758542
0.18163175
0.21672041
0.25510501
0.31083686
0.33976583
0.34154862
0.031522571
0.025073399
0.024056527
0.02658883
0.02763236
0.028021295
0.027780116
0.027559609
0.027922468
0.028128755
0.028094873
0.027618261
0.027397902
0.02771699
0.027440751
0.027322052
0.027280147
0.027007517
0.027110507
0.027503255
0.027803163
0.028478612
0.028726144
0.028306086
0.028250461
0.029147683
0.030955146
0.032353502
0.033687747
0.034757728
0.036047922
0.039439386
0.044324717
0.048546618
0.052083122
0.056926577
0.064990571
0.074472583
0.084435162
0.097235334
0.11205155
0.12652094
0.14033041
0.16222489
0.19472996
0.22931263
0.27101572
0.30429779
0.24881579
0.031907219
0.024834745
0.024355717
0.026795987
0.02784604
0.027999721
0.027597175
0.027609427
0.027950823
0.02809898
0.027710142
0.027390899
0.027297064
0.027283651
0.026906921
0.026586756
0.026605704
0.026287058
0.026339798
0.026484296
0.026815673
0.027299303
0.027020151
0.026323442
0.026191748
0.026974893
0.028425366
0.029559038
0.030564037
0.031118698
0.03233632
0.035589585
0.039833359
0.043093162
0.045826619
0.050402624
0.058117419
0.066239563
0.075204859
0.086689604
0.0994951
0.11209183
0.12341208
0.14236215
0.16735658
0.19556198
0.22836619
0.25523927
0.1598784
0.031826878
0.025496825
0.024883763
0.027009087
0.028002582
0.027996308
0.02753456
0.027714988
0.027849637
0.027858735
0.027509364
0.027077702
0.027192941
0.026877134
0.026525137
0.026042278
0.025899675
0.025434535
0.025604237
0.025553421
0.025814748
0.026148465
0.025515449
0.024648994
0.024385726
0.024966071
0.025840841
0.026756715
0.027435267
0.027603412
0.028748844
0.031675884
0.035128903
0.037388688
0.03944052
0.043913572
0.051102087
0.058340766
0.066010099
0.076281426
0.086526879
0.094748891
0.10475212
0.12215587
0.139967
0.16055093
0.17766285
0.1828886
0.067559461
0.031877455
0.025893124
0.025627991
0.027367828
0.028184515
0.028029723
0.027582508
0.027791688
0.027818255
0.027633477
0.027452638
0.026978464
0.027025066
0.026492573
0.02622442
0.025789385
0.025352254
0.024855444
0.02497972
0.024798565
0.024768534
0.024804132
0.023916991
0.023056752
0.02279964
0.022953222
0.023426878
0.024029097
0.024395641
0.024324185
0.025197692
0.027631391
0.030242903
0.031530054
0.033158315
0.037423607
0.043889596
0.049648998
0.056717981
0.064438481
0.072598636
0.07853687
0.084299193
0.09585512
0.10821217
0.1125316
0.13594557
0.13165387
-0.052949653
0.032295646
0.02628269
0.026313791
0.02764922
0.02826953
0.027956745
0.027608057
0.027840983
0.027765706
0.027574388
0.027302262
0.02685908
0.026775582
0.026098493
0.025796216
0.025475762
0.024707427
0.024487831
0.024376776
0.024060684
0.023801201
0.023467652
0.022378539
0.021340242
0.021220598
0.021099436
0.021207116
0.021415289
0.021484306
0.021182463
0.021712876
0.023512833
0.025189904
0.025751971
0.027124699
0.031158043
0.036716021
0.040771094
0.045718073
0.052417659
0.05707849
0.060268488
0.064872366
0.07358066
0.079421311
0.066637217
0.068222128
0.089636384
-0.14252419
0.032757794
0.027711077
0.027131528
0.028035334
0.028331781
0.027845592
0.027603653
0.027872128
0.02771376
0.027528276
0.027131881
0.026705927
0.026356122
0.025464976
0.025345513
0.024863041
0.02408115
0.02411944
0.023639319
0.023305672
0.02282913
0.022370432
0.020997439
0.019813593
0.01947482
0.019418742
0.019207893
0.018811266
0.018638919
0.018133256
0.018121182
0.019296637
0.02015016
0.020166972
0.021224353
0.024895851
0.029216548
0.031751972
0.035091197
0.03929601
0.040765797
0.040769761
0.040553847
0.046267439
0.042741064
-0.011020093
-0.013327067
0.056548183
-0.18871483
0.032251392
0.028782025
0.027617912
0.028327263
0.028382672
0.027861604
0.027793697
0.027952715
0.027724797
0.027456478
0.02692635
0.026449203
0.026004958
0.024846538
0.024904006
0.024346409
0.023453581
0.023498564
0.022891125
0.022525188
0.021847148
0.021329129
0.01957201
0.018361927
0.017872532
0.017714619
0.017306391
0.016370164
0.015817165
0.014999764
0.014543015
0.015067514
0.015099911
0.014651807
0.015479496
0.018374353
0.020439961
0.020509292
0.022764728
0.024728772
0.023678638
0.021401756
0.02034579
0.018973075
0.054415916
-0.032063949
-0.10664861
-0.012517955
-0.28120061
0.032380196
0.02928592
0.027725524
0.028629202
0.028286184
0.027790585
0.027892954
0.028037776
0.027775902
0.027414202
0.026898347
0.026263607
0.025632592
0.024734215
0.02452618
0.02395713
0.023236602
0.022891878
0.022216487
0.021852348
0.021042519
0.020140237
0.018097884
0.016962728
0.016464192
0.01594926
0.015302288
0.014059785
0.013137478
0.011791937
0.010842393
0.010853833
0.010202157
0.0094472925
0.009691148
0.011229574
0.011638532
0.010051148
0.0085746791
0.010128101
0.0060485271
-0.001531814
-0.0027295779
0.0035379566
-0.027463736
-0.027322036
-0.10381924
-0.11114907
-0.31222932
-0.34744244
-0.14477125
-0.17607702
-0.073710281
-0.096750413
-0.046009141
-0.035282477
-0.019742252
-0.01116017
-0.0061414085
-0.0034036479
-0.0018489756
0.0012865353
0.0037410109
0.003785055
0.0039634223
0.0054407535
0.0068115116
0.0071785711
0.008493989
0.010453785
0.011667696
0.013096141
0.014163619
0.015159357
0.015857861
0.01680265
0.018925126
0.020314621
0.021251588
0.021887213
0.022493178
0.022719624
0.02346931
0.024784825
0.024906138
0.025455884
0.026222657
0.026827308
0.027297814
0.027732973
0.02798568
0.027875616
0.027786564
0.028107723
0.028921358
0.027716675
0.031035239
0.031402922
-0.3851997
-0.1987043
-0.2721667
-0.11191076
-0.092601488
-0.073247204
-0.052186043
-0.038103399
-0.028062926
-0.0198197
-0.016832652
-0.014835025
-0.008811677
-0.0045432138
-0.0024520003
-0.0014063646
0.00068997321
0.0028675903
0.0035345318
0.004996644
0.0075265743
0.0092635127
0.010937173
0.012380044
0.013763576
0.014788235
0.015658192
0.017559551
0.019423802
0.020575695
0.021430608
0.022021405
0.022132477
0.023024237
0.02438748
0.024814489
0.025269533
0.026007874
0.026557085
0.027146155
0.027613029
0.027888138
0.027924347
0.027870914
0.027822433
0.028911137
0.027500821
0.0308264
0.028617096
-0.40207542
-0.25067962
-0.29588991
-0.12400712
-0.11832449
-0.087146982
-0.068783805
-0.058120728
-0.043964557
-0.03362751
-0.028195595
-0.024420151
-0.019110169
-0.012965464
-0.0091210223
-0.0068585479
-0.0042962144
-0.001201013
4.7633646e-05
0.0016191179
0.0045119329
0.0069935635
0.008926856
0.010465152
0.012047148
0.013535136
0.014482982
0.016086663
0.018327899
0.019783848
0.020649641
0.02147221
0.021783604
0.022819971
0.023872066
0.024431773
0.024995629
0.025692859
0.026232532
0.026994948
0.027473613
0.027803046
0.027960493
0.027771419
0.027529912
0.028749119
0.027126674
0.030707938
0.026153962
-0.41032547
-0.24089679
-0.28101596
-0.15087446
-0.18044097
-0.10027495
-0.092838696
-0.075782849
-0.061391492
-0.048772946
-0.040699813
-0.036162193
-0.029379028
-0.022041408
-0.016598522
-0.013235486
-0.0096871524
-0.0055700841
-0.003372757
-0.0015291209
0.0015591703
0.0044035215
0.0067133502
0.0085360906
0.010187989
0.012061041
0.01329871
0.014740613
0.017264184
0.019116727
0.02006804
0.020825547
0.021309742
0.022305016
0.023343017
0.024066893
0.024608008
0.025383087
0.025989651
0.026862962
0.027335873
0.027718729
0.027815947
0.02765298
0.027345084
0.028610355
0.026761913
0.029025993
0.025226087
-0.41495812
-0.24302206
-0.29017645
-0.17177705
-0.21692213
-0.14327862
-0.12628043
-0.09692222
-0.077526523
-0.065652903
-0.055020937
-0.046496174
-0.039582854
-0.032570967
-0.024604719
-0.019221456
-0.015004004
-0.010120589
-0.0069531997
-0.0047195174
-0.0014015717
0.0019425935
0.0046466391
0.0067679047
0.0087133626
0.010665676
0.012433069
0.013739036
0.016231117
0.018244085
0.019432335
0.020307067
0.021359629
0.021739128
0.022818035
0.023896637
0.024223282
0.025074463
0.02581734
0.026685499
0.027136786
0.027483198
0.027647801
0.027550224
0.027187662
0.028598127
0.026968373
0.03028685
0.026762327
-0.41299497
-0.25199815
-0.31882167
-0.20050001
-0.21861048
-0.16529795
-0.14546967
-0.11579396
-0.09543336
-0.079630574
-0.065339834
-0.056295043
-0.04907043
-0.039739998
-0.032576465
-0.025870153
-0.020631111
-0.014804456
-0.010524065
-0.0075791279
-0.0041450204
-0.00046415254
0.0027640625
0.0051679548
0.007304638
0.0093863164
0.011469841
0.012962323
0.015191873
0.017253171
0.01889292
0.020041981
0.021124847
0.021509689
0.022507881
0.02343028
0.023903136
0.02499566
0.025739421
0.026445899
0.027000323
0.027284049
0.027412921
0.027538262
0.026938007
0.028520736
0.027260433
0.030620173
0.027629837
-0.2551843
-0.16557658
-0.1641508
-0.12652645
-0.11453139
-0.092433342
-0.079107199
-0.067974967
-0.056787215
-0.047960636
-0.039424554
-0.032445194
-0.026140188
-0.01968585
-0.014350638
-0.010577696
-0.0066221542
-0.0029661875
0.0004036495
0.0034897237
0.0057518237
0.0079053636
0.010187353
0.012023866
0.014247444
0.016697562
0.018536158
0.019674632
0.020572506
0.021350603
0.022349176
0.023370942
0.023902459
0.024647027
0.025575212
0.026259613
0.026818485
0.027121932
0.027254354
0.027453045
0.026701617
0.028479317
0.027172091
0.029372101
0.027948559
-0.066622063
-0.056987267
-0.046732108
-0.037888672
-0.031040235
-0.02431916
-0.018372339
-0.013987643
-0.0094250623
-0.0048038813
-0.0013801642
0.0017915465
0.0044168063
0.0068091906
0.0091839526
0.011158398
0.013419384
0.016057139
0.018101656
0.019292313
0.020180879
0.021149575
0.02214887
0.023275487
0.023792432
0.024434032
0.025375913
0.026138437
0.02667479
0.02695211
0.027151571
0.027393446
0.026778547
0.028553626
0.02711484
0.029302992
0.027710673
-0.0026132606
0.00073467425
0.0032208543
0.0059236911
0.0083881876
0.01072907
0.012599793
0.015125614
0.017640689
0.018792218
0.019951214
0.020957489
0.021791647
0.023046936
0.02370438
0.024421015
0.025242954
0.025940817
0.026477702
0.026845411
0.027101316
0.027489758
0.027009717
0.0285471
0.027313058
0.030815516
0.02718077
0.021626284
0.022666546
0.023509571
0.024257397
0.025033349
0.025809272
0.026442659
0.026818045
0.027064359
0.027652757
0.027087863
0.028726554
0.027696823
0.031002809
0.026851092
)
;

boundaryField
{
    Side
    {
        type            empty;
    }
    Inlet
    {
        type            calculated;
        value           nonuniform List<scalar> 
29
(
0.023451323
0.023512134
0.023604417
0.023716606
0.023838174
0.023941745
0.024049924
0.024164145
0.024252475
0.024312838
0.024440653
0.024555999
0.024603803
0.024574764
0.024604699
0.024707658
0.024760898
0.02478685
0.024705393
0.024427875
0.023200565
0.022303876
0.02178551
0.021896032
0.021910183
0.021773107
0.021521194
0.021178448
0.020857688
)
;
    }
    Airfoil
    {
        type            calculated;
        value           nonuniform List<scalar> 
26
(
0.84674964
0.8442863
0.83237479
0.81241864
0.78177647
0.74211387
0.6976538
0.64013513
0.57904712
0.51582057
0.43324821
0.34154862
0.24881579
0.1598784
0.067559461
-0.052949653
-0.14252419
-0.18871483
-0.28120061
-0.31222932
-0.34744244
-0.3851997
-0.40207542
-0.41032547
-0.41495812
-0.41299497
)
;
    }
    Outlet
    {
        type            calculated;
        value           nonuniform List<scalar> 0();
    }
    procBoundary0to1
    {
        type            processor;
        value           nonuniform List<scalar> 
53
(
-0.40015519
-0.29487019
-0.31140558
-0.21726679
-0.21726679
-0.26522999
-0.16807866
-0.18410173
-0.13584354
-0.13101488
-0.1060722
-0.090612237
-0.077168758
-0.077168758
-0.070976322
-0.060957167
-0.052575297
-0.043493691
-0.035693844
-0.028631368
-0.022181857
-0.017012444
-0.012063307
-0.0067669806
-0.0067669806
-0.0043249968
-0.00044143567
0.0021805133
0.0048329556
0.0072762365
0.0098780255
0.012129353
0.014540593
0.016682938
0.018181067
0.019787172
0.020843223
0.020843223
0.021653627
0.022446197
0.023326963
0.024055352
0.024827635
0.025737948
0.02639862
0.026802199
0.027015144
0.027785154
0.027289952
0.029052159
0.028050795
0.029553108
0.027711196
)
;
    }
    procBoundary0to7
    {
        type            processor;
        value           nonuniform List<scalar> 
50
(
0.042405158
0.044461067
0.046643725
0.049883194
0.053300016
0.056779886
0.060744407
0.065757786
0.072208573
0.079323831
0.086624333
0.094852531
0.10454026
0.11555693
0.12907866
0.14660688
0.16769281
0.1911188
0.21792445
0.25113635
0.29305751
0.34635629
0.41755661
0.51560627
0.65399428
0.84447105
0.038546812
0.031054644
0.025825074
0.025405469
0.026438481
0.027389229
0.027772073
0.027748768
0.027257684
0.027164637
0.027571274
0.028006835
0.028492077
0.029229609
0.030201039
0.031106989
0.031763539
0.032426965
0.033430402
0.034854999
0.036422253
0.037779708
0.0398115
0.0398115
)
;
    }
}


// ************************************************************************* //
