/*--------------------------------*- C++ -*----------------------------------*\
| =========                 |                                                 |
| \\      /  F ield         | OpenFOAM: The Open Source CFD Toolbox           |
|  \\    /   O peration     | Version:  2506                                  |
|   \\  /    A nd           | Website:  www.openfoam.com                      |
|    \\/     M anipulation  |                                                 |
\*---------------------------------------------------------------------------*/
FoamFile
{
    version     2.0;
    format      ascii;
    arch        "LSB;label=32;scalar=64";
    class       volVectorField;
    location    "0.00021";
    object      wallShearStress;
}
// * * * * * * * * * * * * * * * * * * * * * * * * * * * * * * * * * * * * * //

dimensions      [1 -1 -2 0 0 0 0];

internalField   uniform (0 0 0);

boundaryField
{
    Side
    {
        type            empty;
    }
    Inlet
    {
        type            calculated;
        value           uniform (0 0 0);
    }
    Airfoil
    {
        type            calculated;
        value           nonuniform List<vector> 
117
(
(-578.39516 46.886344 -8.8683979e-19)
(-582.67649 53.577112 -9.0974166e-19)
(-606.27734 70.397953 9.5565777e-19)
(-607.0928 68.048592 1.4959345e-18)
(-344.32231 -432.80091 3.2759929e-23)
(-358.16229 -362.72463 2.0957448e-18)
(-423.55557 -251.99079 2.4561933e-23)
(-420.62162 -207.63226 1.5739406e-18)
(-339.60798 -53.844228 -9.9748636e-24)
(4.81767 22.541041 -2.9818302e-19)
(5.4927951 24.035018 0)
(6.5634607 26.106773 3.3729082e-19)
(6.4813962 26.803771 -2.4656508e-19)
(5.9904516 27.327249 -6.171865e-20)
(5.6895828 27.415016 -4.7183528e-24)
(6.5969029 30.633469 -5.3488587e-19)
(7.288892 32.088131 4.4281302e-24)
(7.2057975 33.47226 -3.1429169e-19)
(6.4856752 33.789708 2.3509887e-38)
(6.1715663 32.335124 2.3509887e-38)
(6.784404 33.245253 -2.9961447e-19)
(6.6512911 34.462415 4.1958129e-19)
(4.5540726 34.877592 4.4345506e-19)
(0.19788717 19.0562 4.7182292e-19)
(-7.0270317 -2.0032065 1.0658236e-23)
(-0.075718609 4.1595841 6.890964e-19)
(2.5789162 13.462184 6.240168e-19)
(2.7755601 12.32562 1.360988e-18)
(3.0071291 16.171478 6.2478901e-19)
(2.4439118 14.790864 5.3940135e-24)
(2.7011461 16.482728 -1.3298848e-18)
(2.2519242 14.643037 1.0823486e-23)
(1.6957485 13.287388 -5.4389657e-24)
(1.9275802 13.324492 3.3305144e-35)
(2.5084466 13.825069 -1.1754944e-38)
(2.9132533 17.564807 -6.3775811e-19)
(2.8220923 16.846317 6.8429238e-19)
(3.3742045 17.890357 -2.3509887e-38)
(1.9061651 9.9600449 4.3119677e-35)
(0.79254399 7.0482983 1.1441752e-40)
(2.0472516 14.685702 1.1754944e-38)
(1.692621 12.89298 -6.5923811e-19)
(2.7897997 18.515036 5.4014833e-24)
(0.81437031 4.054891 6.396659e-19)
(-5.3690718 -4.3563914 0)
(-0.57749533 9.1649097 5.5477748e-19)
(0.8571039 10.157579 0)
(1.2810377 8.6613238 5.2846168e-19)
(2.018292 13.567649 4.6303092e-19)
(-82.305855 -34.421183 -7.1608894e-19)
(-46.697655 -5.8387295 -6.2602358e-19)
(-83.48593 -12.210723 -5.5005793e-24)
(-170.92751 -28.912831 -8.449384e-19)
(-187.60908 -14.830727 -6.7696216e-19)
(-235.00162 -64.331014 1.0289201e-18)
(-125.2263 -15.965244 0)
(-143.43494 -30.462415 -7.3215232e-19)
(-0.21372812 5.7038821 1.1598415e-18)
(1.7238723 14.534211 4.366901e-24)
(1.6746322 14.74684 -4.3311207e-24)
(1.5604439 14.827891 3.9236971e-20)
(1.2558847 13.395927 2.3840317e-26)
(1.0909183 12.789793 -5.02835e-19)
(1.1407498 13.011766 5.2855598e-19)
(0.79269067 9.137222 5.3443417e-19)
(0.98588005 10.484445 2.6529611e-20)
(1.0535364 11.807314 -4.8919033e-19)
(0.60298666 8.8107262 1.025392e-18)
(0.73719104 7.7318099 -4.0080859e-24)
(0.99414018 12.984207 -9.8395047e-19)
(-0.17523269 4.591945 5.059007e-19)
(-0.34888727 4.1949854 -5.8774718e-39)
(-0.066656229 5.8514627 9.7687068e-19)
(1.3006536 10.269494 -4.9075965e-19)
(1.2306833 9.8984693 2.9534296e-35)
(1.3861052 15.514258 -3.9527337e-24)
(1.689158 15.803254 4.7887037e-19)
(1.6659733 18.712161 -4.7154966e-19)
(1.2397188 17.469094 -8.9915776e-19)
(1.3094097 17.622861 0)
(1.4894373 17.365573 -2.9387359e-39)
(1.4523955 19.375919 -4.5548062e-19)
(0.81199629 17.276965 -7.2994082e-24)
(1.2584075 17.224292 3.7338339e-24)
(1.3825184 17.50469 3.6641225e-24)
(0.75463369 17.150225 -3.5826375e-24)
(0.623705 13.569969 -4.498085e-19)
(1.1164874 16.55928 4.0407765e-19)
(1.2571087 16.334255 0)
(1.3835899 15.830312 8.5099488e-19)
(0.66009242 18.058907 -3.9728588e-19)
(-0.010237829 14.567979 -4.1323373e-19)
(0.43259728 11.175757 -3.5723797e-24)
(1.1384435 14.191247 2.2672347e-35)
(0.94998633 15.625611 -4.3593598e-19)
(0.39918911 13.628359 4.1844676e-19)
(0.49156489 14.029873 -3.5230519e-24)
(0.52115798 14.058747 4.1566866e-19)
(0.50037241 11.995527 -3.5001134e-24)
(0.65222445 14.62484 3.3730689e-24)
(0.47426006 14.471962 -3.373807e-24)
(0.64239171 13.946263 -4.2640008e-19)
(0.63317384 16.28461 -3.7553077e-19)
(0.38882481 13.895517 -3.9611451e-19)
(0.51168271 14.521902 -1.9497921e-19)
(0.50930869 14.437392 3.2732961e-24)
(0.28342978 13.021105 -3.1347261e-24)
(-0.058180756 10.728152 1.8946298e-19)
(0.10163821 11.644786 1.8579383e-19)
(0.26313031 11.298656 1.9705994e-19)
(0.3106364 10.762025 1.9543612e-19)
(-0.088399661 8.1674755 1.8731325e-19)
(-0.19125937 6.7783744 -1.9223212e-19)
(-0.053258496 5.9126077 3.8167319e-19)
(-0.36621709 5.5843302 -3.1035174e-24)
(-73.531773 -16.054345 -4.6059895e-19)
(1.2809568 10.393412 -3.1274738e-24)
)
;
    }
    Outlet
    {
        type            calculated;
        value           nonuniform List<vector> 0();
    }
    procBoundary2to1
    {
        type            processor;
        value           uniform (0 0 0);
    }
    procBoundary2to3
    {
        type            processor;
        value           uniform (0 0 0);
    }
    procBoundary2to8
    {
        type            processor;
        value           uniform (0 0 0);
    }
    procBoundary2to9
    {
        type            processor;
        value           uniform (0 0 0);
    }
}


// ************************************************************************* //
