/*--------------------------------*- C++ -*----------------------------------*\
| =========                 |                                                 |
| \\      /  F ield         | OpenFOAM: The Open Source CFD Toolbox           |
|  \\    /   O peration     | Version:  2506                                  |
|   \\  /    A nd           | Website:  www.openfoam.com                      |
|    \\/     M anipulation  |                                                 |
\*---------------------------------------------------------------------------*/
FoamFile
{
    version     2.0;
    format      ascii;
    arch        "LSB;label=32;scalar=64";
    class       volVectorField;
    location    "0.007";
    object      wallShearStress;
}
// * * * * * * * * * * * * * * * * * * * * * * * * * * * * * * * * * * * * * //

dimensions      [1 -1 -2 0 0 0 0];

internalField   uniform (0 0 0);

boundaryField
{
    Side
    {
        type            empty;
    }
    Inlet
    {
        type            calculated;
        value           uniform (0 0 0);
    }
    Airfoil
    {
        type            calculated;
        value           nonuniform List<vector> 
92
(
(-4.3647678 0.52139395 4.6613761e-16)
(-4.391627 0.52294696 -2.3222467e-16)
(-4.4438433 0.52725034 -2.2066528e-22)
(-4.4939107 0.53134164 2.1992348e-22)
(-4.5290491 0.53354159 2.297984e-16)
(-4.5451723 0.53339483 -2.2901437e-16)
(-4.5692039 0.53412077 -3.0092655e-36)
(-4.6074826 0.53692875 2.275146e-16)
(-4.6488619 0.54006989 -4.5360314e-16)
(-4.6747851 0.54130803 -2.7059316e-32)
(-4.7013443 0.54234658 3.0092655e-36)
(-4.7400576 0.54468792 -2.2474202e-16)
(-4.7795354 0.54711254 4.4821955e-16)
(-4.7986068 0.54712485 -2.1311289e-22)
(-4.8002984 0.54514179 2.1257517e-22)
(-4.804962 0.54330135 2.1196053e-22)
(-4.8194924 0.54257226 -2.2171148e-16)
(-4.828602 0.54161938 -4.4230339e-16)
(-4.8320227 0.54018365 5.3373048e-26)
(-4.8462138 0.53985302 2.0991659e-22)
(-4.885372 0.54216911 -2.1958449e-16)
(-4.9251903 0.54442356 2.1909151e-16)
(-4.9493069 0.54496312 4.3724727e-16)
(-4.9512441 0.54295719 2.0807105e-22)
(-4.9528253 0.54075836 2.0759562e-22)
(-4.9747206 0.54076269 -2.072166e-22)
(-5.017421 0.54283566 -2.1257048e-38)
(-5.0578098 0.54468837 3.3402847e-34)
(-5.0836768 0.5454748 -4.3217301e-16)
(-5.0887034 0.54398201 2.0571863e-22)
(-5.0921158 0.5421413 -2.0540837e-22)
(-5.1086117 0.54164824 -2.0508042e-22)
(-5.1309213 0.54176511 -2.147366e-16)
(-5.1385444 0.54038581 2.0569548e-22)
(-5.1257017 0.53677369 2.1412025e-16)
(-5.1156463 0.5333022 -2.138206e-16)
(-5.1250675 0.53174753 2.036608e-22)
(-5.1504487 0.53173739 -1.0333958e-33)
(-5.1813251 0.53250807 -2.0313826e-22)
(-5.204308 0.53278394 4.058375e-22)
(-5.211202 0.53149838 -2.0271306e-22)
(-5.2032373 0.52856118 -4.2462618e-16)
(-5.1950467 0.52551581 2.1209485e-16)
(-5.1988428 0.52351667 -2.1188112e-16)
(-5.2147323 0.52260839 2.1168002e-16)
(-5.2341517 0.52202818 2.1148976e-16)
(-5.2591563 0.52187247 -2.1129982e-16)
(-5.3008385 0.52322699 2.013686e-22)
(-5.3513696 0.52556366 -5.7397185e-42)
(-5.3861449 0.5264377 -2.0102661e-22)
(-5.3815993 0.52367017 5.6454217e-26)
(-5.3485499 0.51827712 2.1052019e-16)
(-5.30784 0.51176084 2.1035344e-16)
(-5.2964811 0.50802329 3.3044292e-33)
(-5.3240295 0.50790215 2.1009237e-16)
(-5.3869504 0.51087625 -4.0055076e-22)
(-5.4769602 0.51646131 2.0994453e-16)
(-5.5429851 0.51956374 2.0990384e-16)
(-5.5447216 0.51715297 2.0014203e-22)
(-5.5016554 0.51036791 -2.001292e-22)
(-5.4504888 0.5026977 -2.0981661e-16)
(-5.4205092 0.4972463 6.0185311e-36)
(-5.4264873 0.49540118 2.0983239e-16)
(-5.4546202 0.49544798 2.0012108e-22)
(-5.4862504 0.49579003 -2.001724e-22)
(-5.4991314 0.49428844 2.0016593e-22)
(-5.4847598 0.49015996 -3.8982003e-26)
(-5.4682967 0.48574181 -3.98598e-26)
(-5.4681827 0.48274098 2.0998997e-16)
(-5.4845984 0.48099707 -1.5046328e-36)
(-5.5081773 0.47992285 2.054668e-24)
(-5.52084 0.47777467 -3.447866e-33)
(-5.5165708 0.47435274 -2.101966e-16)
(-5.5126706 0.47145155 2.0055086e-22)
(-5.5210735 0.46949579 2.1033657e-16)
(-5.5398484 0.46824989 -2.1041925e-16)
(-5.558376 0.46674001 -2.1049611e-16)
(-5.5760292 0.46510405 7.5231638e-37)
(-5.5932031 0.46316772 3.0092655e-36)
(-5.6135101 0.46148072 2.1081771e-16)
(-5.6305344 0.45934065 -2.1094646e-16)
(-5.6427558 0.45680781 1.8433131e-26)
(-5.6456818 0.45338263 -2.1124481e-16)
(-5.6431896 0.44954895 -7.5231638e-37)
(-5.6338752 0.44544735 -1.057904e-16)
(-5.6216759 0.44160928 1.0588144e-16)
(-5.6095165 0.43780999 1.0597719e-16)
(-5.6080811 0.43466244 -1.060734e-16)
(-5.6149673 0.43214104 1.0617623e-16)
(-5.6425653 0.4309747 -2.021815e-22)
(-5.668679 0.42956039 6.2476836e-39)
(-5.7061041 0.42857635 2.0312376e-22)
)
;
    }
    Outlet
    {
        type            calculated;
        value           nonuniform List<vector> 0();
    }
    procBoundary11to3
    {
        type            processor;
        value           uniform (0 0 0);
    }
    procBoundary11to4
    {
        type            processor;
        value           uniform (0 0 0);
    }
    procBoundary11to10
    {
        type            processor;
        value           uniform (0 0 0);
    }
    procBoundary11to12
    {
        type            processor;
        value           uniform (0 0 0);
    }
}


// ************************************************************************* //
