/*--------------------------------*- C++ -*----------------------------------*\
| =========                 |                                                 |
| \\      /  F ield         | OpenFOAM: The Open Source CFD Toolbox           |
|  \\    /   O peration     | Version:  2506                                  |
|   \\  /    A nd           | Website:  www.openfoam.com                      |
|    \\/     M anipulation  |                                                 |
\*---------------------------------------------------------------------------*/
FoamFile
{
    version     2.0;
    format      ascii;
    arch        "LSB;label=32;scalar=64";
    class       volScalarField;
    location    "0.0315";
    object      p;
}
// * * * * * * * * * * * * * * * * * * * * * * * * * * * * * * * * * * * * * //

dimensions      [1 -1 -2 0 0 0 0];

internalField   nonuniform List<scalar> 
13761
(
45909.75
45909.749
45909.749
45909.748
45909.748
45909.747
45909.746
45909.746
45909.745
45909.744
45909.744
45909.743
45909.743
45909.743
45909.743
45909.744
45909.745
45909.745
45909.747
45909.748
45909.749
45909.751
45909.753
45909.755
45909.757
45909.759
45909.761
45909.763
45909.766
45909.768
45909.77
45909.771
45909.772
45909.773
45909.773
45909.771
45909.769
45909.764
45909.757
45909.746
45909.731
45909.71
45907.674
45907.673
45907.673
45907.672
45907.672
45907.671
45907.671
45907.67
45907.67
45907.669
45907.669
45907.669
45907.668
45907.669
45907.669
45907.67
45907.67
45907.672
45907.673
45907.674
45907.676
45907.678
45907.68
45907.682
45907.684
45907.687
45907.689
45907.692
45907.694
45907.697
45907.699
45907.701
45907.703
45907.704
45907.705
45907.704
45907.703
45907.699
45907.693
45905.956
45905.956
45905.956
45905.955
45905.955
45905.955
45905.954
45905.954
45905.953
45905.953
45905.953
45905.953
45905.953
45905.953
45905.954
45905.954
45905.955
45905.957
45905.958
45905.96
45905.961
45905.963
45905.966
45905.968
45905.971
45905.973
45905.976
45905.979
45905.982
45905.985
45905.987
45905.99
45905.992
45905.994
45905.996
45905.996
45904.638
45904.638
45904.638
45904.638
45904.637
45904.637
45904.637
45904.637
45904.636
45904.636
45904.636
45904.636
45904.636
45904.637
45904.638
45904.638
45904.64
45904.641
45904.642
45904.644
45904.646
45904.648
45904.651
45904.653
45904.656
45904.659
45904.662
45904.665
45904.668
45904.671
45904.674
45903.747
45903.747
45903.747
45903.747
45903.747
45903.747
45903.746
45903.746
45903.746
45903.746
45903.746
45903.746
45903.747
45903.747
45903.748
45903.749
45903.75
45903.752
45903.754
45903.755
45903.757
45903.76
45903.762
45903.765
45903.269
48174.602
48174.604
48174.606
48174.608
48174.61
48174.612
48174.615
48174.619
48174.623
48174.628
48174.634
48174.641
48174.649
48174.658
48174.668
48174.679
48174.692
48174.707
48174.724
48174.742
48174.763
48174.786
48174.812
48174.84
48174.872
48174.908
48174.948
48174.992
48175.04
48175.094
48175.154
48175.221
48175.294
48175.376
48175.465
48175.565
48175.675
48175.796
48175.93
48176.078
48176.242
48176.423
48176.623
48176.844
48177.089
48177.361
48177.664
48178.003
48178.393
48178.837
48179.337
48179.873
48180.459
48181.089
48181.773
48182.511
48183.31
48184.174
48185.107
48186.116
48187.204
48188.38
48189.648
48191.015
48192.488
48194.074
48195.782
48197.617
48199.59
48201.706
48203.975
48206.405
48165.432
48165.434
48165.436
48165.438
48165.44
48165.442
48165.445
48165.449
48165.453
48165.458
48165.464
48165.471
48165.478
48165.487
48165.497
48165.508
48165.521
48165.536
48165.552
48165.57
48165.591
48165.614
48165.639
48165.667
48165.699
48165.734
48165.773
48165.816
48165.864
48165.918
48165.977
48166.042
48166.115
48166.195
48166.283
48166.381
48166.49
48166.609
48166.742
48166.887
48167.049
48167.227
48167.424
48167.642
48167.883
48168.151
48168.449
48168.784
48169.167
48169.606
48170.1
48170.631
48171.211
48171.834
48172.512
48173.243
48174.034
48174.89
48175.814
48176.813
48177.893
48179.057
48180.314
48181.67
48183.131
48184.705
48186.399
48188.221
48190.179
48192.281
48194.535
48196.95
48199.533
48202.292
48205.234
48208.366
48211.693
48215.219
48218.947
48222.875
48227.002
48231.32
48156.336
48156.338
48156.339
48156.341
48156.343
48156.346
48156.349
48156.352
48156.356
48156.361
48156.367
48156.374
48156.381
48156.39
48156.4
48156.411
48156.424
48156.438
48156.454
48156.472
48156.492
48156.515
48156.54
48156.568
48156.599
48156.634
48156.672
48156.715
48156.762
48156.815
48156.873
48156.938
48157.009
48157.088
48157.176
48157.272
48157.379
48157.497
48157.627
48157.771
48157.93
48158.106
48158.3
48158.514
48158.752
48159.016
48159.31
48159.64
48160.017
48160.451
48160.94
48161.465
48162.039
48162.656
48163.328
48164.052
48164.836
48165.684
48166.6
48167.591
48168.66
48169.815
48171.062
48172.406
48173.856
48175.417
48177.099
48178.907
48180.851
48182.939
48185.179
48187.578
48190.146
48192.89
48195.817
48198.934
48202.247
48205.76
48209.475
48213.392
48217.51
48221.822
48226.318
48230.983
48235.793
48240.721
48245.726
48250.761
48147.307
48147.309
48147.31
48147.312
48147.314
48147.317
48147.32
48147.323
48147.327
48147.332
48147.338
48147.344
48147.352
48147.361
48147.37
48147.381
48147.394
48147.408
48147.424
48147.442
48147.462
48147.484
48147.509
48147.536
48147.567
48147.601
48147.639
48147.681
48147.728
48147.78
48147.837
48147.901
48147.971
48148.049
48148.136
48148.231
48148.336
48148.453
48148.581
48148.723
48148.88
48149.053
48149.244
48149.456
48149.69
48149.95
48150.24
48150.565
48150.937
48151.365
48151.849
48152.37
48152.939
48153.551
48154.216
48154.934
48155.711
48156.552
48157.46
48158.442
48159.503
48160.649
48161.886
48163.22
48164.659
48166.209
48167.878
48169.674
48171.605
48173.679
48175.905
48178.29
48180.843
48183.572
48186.484
48189.586
48192.885
48196.383
48200.086
48203.992
48208.101
48212.406
48216.899
48221.564
48226.381
48231.321
48236.347
48241.412
48246.456
48251.408
48256.176
48260.657
48138.339
48138.341
48138.343
48138.345
48138.347
48138.349
48138.352
48138.356
48138.36
48138.364
48138.37
48138.377
48138.384
48138.392
48138.402
48138.413
48138.425
48138.439
48138.455
48138.473
48138.492
48138.514
48138.539
48138.566
48138.596
48138.63
48138.667
48138.709
48138.755
48138.806
48138.863
48138.926
48138.995
48139.072
48139.158
48139.252
48139.355
48139.47
48139.597
48139.737
48139.892
48140.063
48140.251
48140.46
48140.691
48140.948
48141.234
48141.554
48141.921
48142.344
48142.824
48143.34
48143.904
48144.511
48145.171
48145.883
48146.654
48147.488
48148.39
48149.365
48150.418
48151.555
48152.783
48154.108
48155.537
48157.077
48158.735
48160.52
48162.439
48164.5
48166.712
48169.084
48171.623
48174.337
48177.235
48180.322
48183.606
48187.091
48190.78
48194.675
48198.774
48203.072
48207.56
48212.225
48217.046
48221.997
48227.042
48232.134
48237.218
48242.221
48247.057
48251.622
48255.794
48259.43
48262.364
48129.418
48129.42
48129.421
48129.423
48129.425
48129.428
48129.431
48129.434
48129.438
48129.443
48129.448
48129.455
48129.462
48129.47
48129.48
48129.491
48129.503
48129.517
48129.532
48129.55
48129.569
48129.591
48129.615
48129.642
48129.672
48129.705
48129.742
48129.783
48129.829
48129.879
48129.935
48129.997
48130.066
48130.142
48130.226
48130.319
48130.422
48130.536
48130.661
48130.799
48130.952
48131.121
48131.308
48131.514
48131.743
48131.997
48132.28
48132.596
48132.959
48133.378
48133.854
48134.367
48134.927
48135.53
48136.186
48136.893
48137.66
48138.489
48139.385
48140.354
48141.4
48142.531
48143.751
48145.068
48146.489
48148.019
48149.668
48151.442
48153.35
48155.4
48157.6
48159.959
48162.484
48165.185
48168.068
48171.142
48174.411
48177.882
48181.558
48185.441
48189.529
48193.819
48198.302
48202.965
48207.79
48212.75
48217.811
48222.93
48228.049
48233.101
48238.001
48242.648
48246.921
48250.681
48253.765
48255.99
48257.148
48120.546
48120.547
48120.549
48120.551
48120.553
48120.555
48120.558
48120.562
48120.566
48120.57
48120.576
48120.582
48120.59
48120.598
48120.607
48120.618
48120.63
48120.644
48120.659
48120.677
48120.696
48120.717
48120.741
48120.768
48120.798
48120.831
48120.868
48120.908
48120.954
48121.004
48121.059
48121.121
48121.189
48121.264
48121.348
48121.44
48121.542
48121.654
48121.778
48121.915
48122.066
48122.234
48122.418
48122.622
48122.848
48123.099
48123.379
48123.692
48124.05
48124.465
48124.938
48125.448
48126.005
48126.605
48127.257
48127.961
48128.725
48129.549
48130.442
48131.406
48132.448
48133.574
48134.789
48136.1
48137.513
48139.037
48140.677
48142.442
48144.341
48146.38
48148.569
48150.916
48153.428
48156.116
48158.986
48162.045
48165.3
48168.758
48172.42
48176.29
48180.368
48184.648
48189.125
48193.786
48198.612
48203.58
48208.656
48213.798
48218.951
48224.049
48229.009
48233.733
48238.104
48241.983
48245.212
48247.61
48248.973
48249.076
48247.677
48111.57
48111.571
48111.573
48111.575
48111.577
48111.579
48111.582
48111.586
48111.59
48111.594
48111.6
48111.606
48111.614
48111.622
48111.632
48111.643
48111.656
48111.67
48111.685
48111.703
48111.723
48111.745
48111.769
48111.796
48111.827
48111.861
48111.898
48111.94
48111.986
48112.038
48112.094
48112.157
48112.227
48112.304
48112.389
48112.483
48112.587
48112.702
48112.828
48112.968
48113.122
48113.292
48113.48
48113.687
48113.917
48114.171
48114.454
48114.77
48115.132
48115.551
48116.029
48116.545
48117.106
48117.711
48118.367
48119.073
48119.839
48120.665
48121.558
48122.522
48123.563
48124.686
48125.898
48127.205
48128.614
48130.131
48131.765
48133.523
48135.413
48137.442
48139.621
48141.956
48144.457
48147.131
48149.987
48153.033
48156.274
48159.717
48163.366
48167.224
48171.29
48175.561
48180.03
48184.687
48189.514
48194.488
48199.577
48204.74
48209.925
48215.065
48220.083
48224.881
48229.344
48233.338
48236.707
48239.271
48240.833
48241.167
48240.035
48237.186
48232.364
48102.826
48102.828
48102.83
48102.831
48102.833
48102.836
48102.839
48102.842
48102.846
48102.851
48102.856
48102.862
48102.87
48102.878
48102.888
48102.899
48102.911
48102.925
48102.94
48102.958
48102.977
48102.999
48103.023
48103.05
48103.081
48103.114
48103.151
48103.193
48103.238
48103.289
48103.345
48103.408
48103.477
48103.553
48103.637
48103.73
48103.833
48103.946
48104.071
48104.21
48104.362
48104.53
48104.716
48104.921
48105.147
48105.399
48105.678
48105.992
48106.349
48106.767
48107.242
48107.757
48108.318
48108.922
48109.577
48110.283
48111.048
48111.873
48112.764
48113.727
48114.765
48115.886
48117.095
48118.397
48119.801
48121.313
48122.94
48124.69
48126.571
48128.591
48130.759
48133.083
48135.571
48138.232
48141.075
48144.106
48147.333
48150.762
48154.397
48158.241
48162.295
48166.555
48171.017
48175.669
48180.496
48185.475
48190.575
48195.757
48200.97
48206.151
48211.223
48216.091
48220.643
48224.747
48228.25
48230.976
48232.729
48233.288
48232.417
48229.864
48225.377
48218.704
48094.273
48094.275
48094.277
48094.278
48094.28
48094.283
48094.286
48094.289
48094.293
48094.297
48094.303
48094.309
48094.316
48094.324
48094.334
48094.345
48094.357
48094.37
48094.386
48094.403
48094.422
48094.443
48094.467
48094.494
48094.523
48094.556
48094.593
48094.633
48094.678
48094.728
48094.784
48094.845
48094.913
48094.988
48095.07
48095.162
48095.263
48095.374
48095.498
48095.633
48095.783
48095.948
48096.131
48096.332
48096.555
48096.802
48097.077
48097.386
48097.737
48098.148
48098.618
48099.129
48099.683
48100.282
48100.932
48101.632
48102.391
48103.21
48104.095
48105.051
48106.083
48107.197
48108.399
48109.694
48111.09
48112.593
48114.211
48115.951
48117.822
48119.831
48121.987
48124.299
48126.774
48129.422
48132.25
48135.267
48138.479
48141.892
48145.513
48149.343
48153.384
48157.633
48162.086
48166.732
48171.557
48176.539
48181.648
48186.848
48192.087
48197.306
48202.429
48207.363
48212
48216.21
48219.843
48222.725
48224.664
48225.441
48224.822
48222.559
48218.398
48212.089
48203.404
48192.142
48085.863
48085.864
48085.866
48085.868
48085.87
48085.872
48085.875
48085.878
48085.882
48085.886
48085.892
48085.898
48085.905
48085.913
48085.922
48085.933
48085.945
48085.958
48085.973
48085.99
48086.009
48086.03
48086.053
48086.079
48086.108
48086.141
48086.177
48086.217
48086.261
48086.31
48086.364
48086.425
48086.491
48086.565
48086.646
48086.736
48086.835
48086.945
48087.066
48087.199
48087.347
48087.509
48087.688
48087.886
48088.105
48088.348
48088.618
48088.921
48089.266
48089.672
48090.135
48090.64
48091.188
48091.78
48092.423
48093.115
48093.866
48094.677
48095.553
48096.5
48097.523
48098.627
48099.818
48101.103
48102.487
48103.979
48105.586
48107.314
48109.172
48111.168
48113.31
48115.608
48118.068
48120.701
48123.514
48126.515
48129.711
48133.109
48136.714
48140.529
48144.556
48148.794
48153.237
48157.876
48162.698
48167.682
48172.799
48178.013
48183.277
48188.532
48193.702
48198.7
48203.418
48207.729
48211.486
48214.52
48216.638
48217.627
48217.254
48215.273
48211.431
48205.478
48197.185
48186.349
48172.834
48077.572
48077.573
48077.575
48077.577
48077.579
48077.581
48077.583
48077.587
48077.59
48077.595
48077.6
48077.606
48077.613
48077.621
48077.63
48077.641
48077.652
48077.665
48077.68
48077.697
48077.715
48077.736
48077.759
48077.785
48077.813
48077.845
48077.88
48077.92
48077.963
48078.011
48078.065
48078.124
48078.189
48078.262
48078.342
48078.43
48078.528
48078.635
48078.754
48078.885
48079.03
48079.189
48079.366
48079.56
48079.775
48080.013
48080.278
48080.576
48080.915
48081.314
48081.771
48082.269
48082.811
48083.396
48084.031
48084.716
48085.458
48086.26
48087.127
48088.064
48089.076
48090.168
48091.348
48092.62
48093.992
48095.471
48097.064
48098.778
48100.621
48102.602
48104.729
48107.011
48109.455
48112.071
48114.867
48117.851
48121.031
48124.412
48128.001
48131.8
48135.813
48140.038
48144.47
48149.101
48153.919
48158.903
48164.027
48169.254
48174.541
48179.828
48185.044
48190.102
48194.897
48199.305
48203.182
48206.361
48208.653
48209.847
48209.714
48208.007
48204.476
48198.872
48190.963
48180.546
48167.479
48151.679
48069.385
48069.387
48069.388
48069.39
48069.392
48069.394
48069.397
48069.4
48069.403
48069.408
48069.413
48069.419
48069.426
48069.434
48069.443
48069.453
48069.464
48069.477
48069.492
48069.508
48069.526
48069.546
48069.569
48069.594
48069.622
48069.654
48069.688
48069.727
48069.77
48069.817
48069.87
48069.928
48069.992
48070.063
48070.142
48070.229
48070.325
48070.431
48070.547
48070.676
48070.818
48070.975
48071.148
48071.339
48071.55
48071.784
48072.044
48072.336
48072.669
48073.061
48073.511
48074.004
48074.539
48075.117
48075.744
48076.42
48077.154
48077.946
48078.804
48079.73
48080.731
48081.812
48082.98
48084.239
48085.598
48087.062
48088.64
48090.339
48092.167
48094.132
48096.242
48098.506
48100.934
48103.532
48106.31
48109.276
48112.438
48115.802
48119.373
48123.157
48127.154
48131.365
48135.785
48140.408
48145.22
48150.203
48155.331
48160.571
48165.877
48171.195
48176.453
48181.568
48186.437
48190.939
48194.931
48198.25
48200.71
48202.104
48202.203
48200.764
48197.537
48192.274
48184.741
48174.735
48162.11
48146.776
48128.762
48061.291
48061.293
48061.294
48061.296
48061.298
48061.3
48061.303
48061.306
48061.31
48061.314
48061.319
48061.325
48061.332
48061.339
48061.348
48061.358
48061.369
48061.382
48061.396
48061.412
48061.43
48061.45
48061.472
48061.497
48061.525
48061.556
48061.59
48061.628
48061.67
48061.717
48061.768
48061.825
48061.889
48061.959
48062.036
48062.121
48062.215
48062.319
48062.434
48062.561
48062.7
48062.854
48063.024
48063.211
48063.419
48063.648
48063.904
48064.191
48064.517
48064.902
48065.347
48065.832
48066.361
48066.932
48067.551
48068.22
48068.945
48069.728
48070.575
48071.491
48072.481
48073.551
48074.706
48075.952
48077.297
48078.747
48080.31
48081.994
48083.805
48085.753
48087.846
48090.093
48092.502
48095.082
48097.842
48100.789
48103.932
48107.277
48110.831
48114.597
48118.578
48122.774
48127.182
48131.795
48136.601
48141.582
48146.714
48151.963
48157.288
48162.633
48167.931
48173.1
48178.039
48182.63
48186.733
48190.188
48192.811
48194.398
48194.722
48193.544
48190.614
48185.684
48178.521
48168.918
48156.726
48141.853
48124.32
48104.235
48053.281
48053.283
48053.284
48053.286
48053.288
48053.29
48053.293
48053.296
48053.299
48053.303
48053.308
48053.314
48053.321
48053.328
48053.337
48053.347
48053.358
48053.371
48053.385
48053.4
48053.418
48053.438
48053.46
48053.484
48053.511
48053.541
48053.575
48053.612
48053.654
48053.7
48053.75
48053.807
48053.869
48053.938
48054.014
48054.098
48054.19
48054.292
48054.405
48054.53
48054.667
48054.818
48054.985
48055.169
48055.372
48055.598
48055.849
48056.13
48056.451
48056.83
48057.267
48057.747
48058.269
48058.833
48059.445
48060.106
48060.822
48061.596
48062.434
48063.339
48064.318
48065.376
48066.519
48067.753
48069.084
48070.52
48072.068
48073.736
48075.531
48077.462
48079.538
48081.767
48084.157
48086.719
48089.459
48092.388
48095.512
48098.838
48102.373
48106.122
48110.086
48114.267
48118.662
48123.263
48128.062
48133.039
48138.173
48143.431
48148.772
48154.143
48159.479
48164.699
48169.705
48174.381
48178.591
48182.176
48184.956
48186.73
48187.274
48186.349
48183.709
48179.104
48172.303
48163.095
48151.331
48136.912
48119.853
48100.256
48078.312
48045.346
48045.347
48045.349
48045.35
48045.352
48045.354
48045.357
48045.36
48045.363
48045.368
48045.373
48045.378
48045.385
48045.392
48045.401
48045.41
48045.421
48045.434
48045.447
48045.463
48045.48
48045.5
48045.521
48045.545
48045.572
48045.602
48045.635
48045.672
48045.712
48045.758
48045.807
48045.863
48045.924
48045.992
48046.066
48046.149
48046.24
48046.341
48046.451
48046.574
48046.709
48046.857
48047.021
48047.202
48047.402
48047.623
48047.87
48048.147
48048.461
48048.834
48049.265
48049.739
48050.255
48050.812
48051.417
48052.07
48052.778
48053.543
48054.372
48055.267
48056.236
48057.283
48058.413
48059.635
48060.953
48062.375
48063.908
48065.561
48067.34
48069.255
48071.313
48073.524
48075.897
48078.44
48081.161
48084.071
48087.175
48090.483
48093.999
48097.729
48101.677
48105.842
48110.222
48114.812
48119.602
48124.575
48129.709
48134.974
48140.33
48145.725
48151.095
48156.363
48161.433
48166.191
48170.503
48174.214
48177.146
48179.102
48179.859
48179.182
48176.823
48172.537
48166.09
48157.27
48145.926
48131.954
48115.363
48096.249
48074.791
48051.404
48037.475
48037.477
48037.478
48037.48
48037.482
48037.484
48037.486
48037.489
48037.493
48037.497
48037.502
48037.507
48037.514
48037.521
48037.53
48037.539
48037.55
48037.562
48037.576
48037.591
48037.608
48037.627
48037.648
48037.672
48037.698
48037.728
48037.76
48037.796
48037.836
48037.881
48037.93
48037.985
48038.045
48038.111
48038.185
48038.266
48038.356
48038.455
48038.564
48038.684
48038.817
48038.963
48039.124
48039.302
48039.498
48039.716
48039.958
48040.23
48040.539
48040.906
48041.332
48041.8
48042.31
48042.861
48043.458
48044.105
48044.805
48045.562
48046.382
48047.268
48048.226
48049.263
48050.382
48051.591
48052.897
48054.306
48055.826
48057.463
48059.228
48061.126
48063.169
48065.363
48067.717
48070.242
48072.945
48075.836
48078.921
48082.21
48085.707
48089.419
48093.349
48097.498
48101.863
48106.441
48111.222
48116.189
48121.323
48126.593
48131.961
48137.378
48142.781
48148.094
48153.225
48158.061
48162.471
48166.304
48169.383
48171.515
48172.48
48172.043
48169.96
48165.984
48159.883
48151.444
48140.512
48126.98
48110.851
48092.216
48071.24
48048.335
48023.553
48029.661
48029.662
48029.664
48029.665
48029.667
48029.669
48029.672
48029.675
48029.678
48029.682
48029.687
48029.692
48029.699
48029.706
48029.714
48029.724
48029.734
48029.746
48029.76
48029.775
48029.791
48029.81
48029.831
48029.855
48029.88
48029.909
48029.941
48029.977
48030.016
48030.06
48030.109
48030.162
48030.222
48030.287
48030.36
48030.44
48030.528
48030.625
48030.733
48030.851
48030.982
48031.125
48031.284
48031.459
48031.652
48031.866
48032.104
48032.372
48032.676
48033.037
48033.457
48033.921
48034.425
48034.97
48035.561
48036.201
48036.894
48037.644
48038.456
48039.333
48040.283
48041.309
48042.419
48043.617
48044.912
48046.308
48047.815
48049.44
48051.19
48053.074
48055.1
48057.278
48059.616
48062.123
48064.809
48067.681
48070.748
48074.018
48077.497
48081.19
48085.102
48089.234
48093.585
48098.15
48102.92
48107.881
48113.013
48118.287
48123.666
48129.103
48134.536
48139.892
48145.08
48149.991
48154.496
48158.446
48161.668
48163.969
48165.136
48164.933
48163.119
48159.447
48153.685
48145.619
48135.091
48121.992
48106.32
48088.158
48067.661
48045.234
48020.92
47995.394
48021.887
48021.889
48021.89
48021.892
48021.894
48021.896
48021.898
48021.901
48021.905
48021.909
48021.913
48021.919
48021.925
48021.932
48021.94
48021.95
48021.96
48021.972
48021.985
48022
48022.016
48022.035
48022.056
48022.079
48022.104
48022.133
48022.164
48022.199
48022.238
48022.281
48022.329
48022.382
48022.44
48022.505
48022.576
48022.655
48022.742
48022.838
48022.944
48023.061
48023.19
48023.331
48023.488
48023.66
48023.851
48024.061
48024.296
48024.56
48024.86
48025.216
48025.631
48026.09
48026.589
48027.13
48027.716
48028.35
48029.038
48029.781
48030.586
48031.456
48032.398
48033.416
48034.517
48035.706
48036.991
48038.377
48039.873
48041.485
48043.223
48045.093
48047.106
48049.269
48051.591
48054.082
48056.75
48059.605
48062.654
48065.905
48069.366
48073.041
48076.936
48081.051
48085.386
48089.938
48094.697
48099.651
48104.779
48110.056
48115.445
48120.899
48126.361
48131.757
48137
48141.982
48146.578
48150.64
48154
48156.467
48157.829
48157.854
48156.302
48152.928
48147.497
48139.797
48129.666
48116.993
48101.769
48084.075
48064.054
48042.103
48018.256
47993.181
47966.268
48014.148
48014.149
48014.151
48014.152
48014.154
48014.156
48014.159
48014.161
48014.165
48014.169
48014.173
48014.179
48014.185
48014.192
48014.2
48014.209
48014.22
48014.231
48014.244
48014.259
48014.275
48014.294
48014.314
48014.337
48014.362
48014.39
48014.421
48014.456
48014.494
48014.537
48014.584
48014.636
48014.694
48014.757
48014.828
48014.906
48014.991
48015.086
48015.191
48015.306
48015.433
48015.573
48015.727
48015.898
48016.086
48016.294
48016.525
48016.786
48017.081
48017.433
48017.844
48018.3
48018.795
48019.332
48019.914
48020.544
48021.227
48021.965
48022.765
48023.63
48024.566
48025.578
48026.672
48027.854
48029.13
48030.508
48031.995
48033.597
48035.324
48037.183
48039.183
48041.332
48043.641
48046.116
48048.769
48051.607
48054.638
48057.872
48061.314
48064.972
48068.849
48072.947
48077.266
48081.804
48086.552
48091.497
48096.622
48101.9
48107.297
48112.767
48118.255
48123.689
48128.983
48134.033
48138.716
48142.887
48146.38
48149.007
48150.559
48150.807
48149.511
48146.427
48141.321
48133.979
48124.238
48111.983
48097.202
48079.97
48060.419
48038.942
48015.559
47990.937
47964.436
47937.111
48006.371
48006.373
48006.374
48006.376
48006.378
48006.38
48006.382
48006.385
48006.388
48006.392
48006.397
48006.402
48006.409
48006.416
48006.424
48006.433
48006.444
48006.455
48006.468
48006.483
48006.5
48006.518
48006.539
48006.561
48006.587
48006.615
48006.646
48006.681
48006.72
48006.763
48006.81
48006.862
48006.92
48006.984
48007.055
48007.133
48007.219
48007.314
48007.419
48007.535
48007.662
48007.802
48007.956
48008.126
48008.314
48008.522
48008.753
48009.013
48009.308
48009.658
48010.069
48010.524
48011.02
48011.556
48012.138
48012.768
48013.449
48014.187
48014.985
48015.848
48016.782
48017.791
48018.881
48020.058
48021.33
48022.702
48024.181
48025.776
48027.494
48029.343
48031.332
48033.47
48035.765
48038.226
48040.864
48043.686
48046.701
48049.917
48053.342
48056.981
48060.84
48064.922
48069.225
48073.748
48078.484
48083.42
48088.54
48093.818
48099.221
48104.706
48110.218
48115.687
48121.031
48126.146
48130.912
48135.188
48138.81
48141.592
48143.329
48143.793
48142.747
48139.946
48135.158
48128.167
48118.809
48106.965
48092.619
48075.842
48056.757
48035.751
48012.832
47988.661
47962.578
47935.561
47998.527
47998.529
47998.53
47998.532
47998.534
47998.536
47998.538
47998.541
47998.545
47998.549
47998.553
47998.559
47998.565
47998.573
47998.581
47998.59
47998.601
47998.613
47998.627
47998.642
47998.658
47998.677
47998.698
47998.722
47998.748
47998.777
47998.809
47998.845
47998.884
47998.928
47998.977
47999.031
47999.09
47999.156
47999.228
47999.308
47999.396
47999.493
47999.601
47999.719
47999.848
47999.991
48000.149
48000.322
48000.513
48000.725
48000.959
48001.223
48001.522
48001.877
48002.294
48002.756
48003.258
48003.801
48004.389
48005.023
48005.709
48006.45
48007.252
48008.117
48009.051
48010.06
48011.15
48012.326
48013.594
48014.962
48016.436
48018.025
48019.735
48021.576
48023.555
48025.682
48027.965
48030.413
48033.036
48035.842
48038.841
48042.04
48045.448
48049.069
48052.911
48056.975
48061.262
48065.77
48070.493
48075.419
48080.533
48085.81
48091.218
48096.716
48102.25
48107.752
48113.142
48118.319
48123.166
48127.543
48131.289
48134.222
48136.138
48136.813
48136.01
48133.487
48129.011
48122.364
48113.381
48101.94
48088.022
48071.695
48053.07
48032.531
48010.073
47986.355
47960.692
47933.988
47907.196
47990.976
47990.977
47990.978
47990.98
47990.982
47990.984
47990.986
47990.989
47990.992
47990.996
47991.001
47991.006
47991.013
47991.02
47991.028
47991.037
47991.048
47991.059
47991.072
47991.087
47991.104
47991.122
47991.143
47991.166
47991.192
47991.22
47991.252
47991.287
47991.325
47991.368
47991.416
47991.469
47991.527
47991.591
47991.662
47991.741
47991.827
47991.923
47992.028
47992.143
47992.271
47992.411
47992.565
47992.735
47992.922
47993.13
47993.36
47993.618
47993.913
47994.263
47994.676
47995.135
47995.634
47996.175
47996.76
47997.393
47998.077
47998.816
47999.616
48000.479
48001.411
48002.418
48003.505
48004.677
48005.941
48007.304
48008.772
48010.354
48012.056
48013.888
48015.857
48017.972
48020.243
48022.678
48025.286
48028.077
48031.06
48034.242
48037.632
48041.236
48045.059
48049.105
48053.376
48057.869
48062.578
48067.494
48072.601
48077.876
48083.288
48088.796
48094.35
48099.884
48105.317
48110.554
48115.477
48119.951
48123.817
48126.896
48128.987
48129.868
48129.303
48127.051
48122.88
48116.57
48107.955
48096.911
48083.414
48067.528
48049.359
48029.282
48007.283
47984.017
47958.78
47932.392
47905.881
47877.158
47983.583
47983.585
47983.586
47983.587
47983.589
47983.591
47983.593
47983.596
47983.599
47983.603
47983.608
47983.613
47983.619
47983.626
47983.634
47983.643
47983.654
47983.665
47983.678
47983.693
47983.709
47983.727
47983.747
47983.77
47983.795
47983.823
47983.854
47983.888
47983.927
47983.969
47984.016
47984.068
47984.125
47984.188
47984.258
47984.335
47984.42
47984.514
47984.617
47984.73
47984.855
47984.993
47985.145
47985.312
47985.496
47985.699
47985.925
47986.179
47986.468
47986.813
47987.219
47987.673
47988.167
47988.701
47989.28
47989.906
47990.584
47991.316
47992.109
47992.965
47993.89
47994.889
47995.968
47997.132
47998.388
47999.742
48001.202
48002.774
48004.466
48006.287
48008.244
48010.347
48012.604
48015.024
48017.617
48020.392
48023.358
48026.523
48029.894
48033.48
48037.285
48041.314
48045.567
48050.044
48054.739
48059.644
48064.743
48070.014
48075.428
48080.947
48086.519
48092.081
48097.556
48102.849
48107.846
48112.413
48116.396
48119.616
48121.877
48122.958
48122.625
48120.639
48116.766
48110.788
48102.534
48091.879
48078.795
48063.345
48045.625
48026.006
48004.463
47981.647
47956.84
47930.774
47904.54
47876.136
47976.323
47976.324
47976.325
47976.327
47976.328
47976.33
47976.333
47976.335
47976.339
47976.342
47976.347
47976.352
47976.358
47976.365
47976.373
47976.382
47976.392
47976.403
47976.416
47976.43
47976.446
47976.464
47976.484
47976.506
47976.531
47976.558
47976.589
47976.622
47976.66
47976.701
47976.747
47976.798
47976.854
47976.916
47976.985
47977.061
47977.144
47977.236
47977.337
47977.449
47977.571
47977.707
47977.855
47978.019
47978.199
47978.399
47978.62
47978.87
47979.153
47979.492
47979.892
47980.34
47980.827
47981.356
47981.928
47982.546
47983.216
47983.94
47984.724
47985.57
47986.486
47987.475
47988.543
47989.696
47990.941
47992.283
47993.73
47995.29
47996.969
47998.776
48000.719
48002.807
48005.049
48007.454
48010.031
48012.788
48015.736
48018.883
48022.236
48025.803
48029.589
48033.599
48037.834
48042.295
48046.976
48051.868
48056.958
48062.225
48067.641
48073.167
48078.755
48084.344
48089.858
48095.204
48100.272
48104.929
48109.024
48112.382
48114.807
48116.084
48115.978
48114.252
48110.672
48105.018
48097.119
48086.847
48074.168
48059.146
48041.868
48022.703
48001.612
47979.246
47954.872
47929.133
47903.174
47875.078
47843.678
47969.17
47969.171
47969.173
47969.174
47969.176
47969.178
47969.18
47969.182
47969.186
47969.189
47969.194
47969.199
47969.205
47969.212
47969.219
47969.228
47969.238
47969.249
47969.261
47969.276
47969.291
47969.309
47969.328
47969.35
47969.374
47969.401
47969.431
47969.464
47969.501
47969.542
47969.587
47969.637
47969.692
47969.753
47969.82
47969.895
47969.976
47970.067
47970.166
47970.275
47970.396
47970.528
47970.674
47970.834
47971.011
47971.207
47971.424
47971.668
47971.947
47972.279
47972.673
47973.114
47973.595
47974.117
47974.682
47975.293
47975.954
47976.67
47977.444
47978.281
47979.186
47980.164
47981.22
47982.361
47983.593
47984.922
47986.356
47987.901
47989.565
47991.357
47993.284
47995.356
47997.581
47999.968
48002.527
48005.266
48008.195
48011.322
48014.656
48018.203
48021.97
48025.961
48030.179
48034.622
48039.287
48044.167
48049.247
48054.508
48059.924
48065.456
48071.059
48076.673
48082.223
48087.62
48092.755
48097.499
48101.703
48105.194
48107.779
48109.246
48109.362
48107.891
48104.597
48099.262
48091.712
48081.815
48069.535
48054.933
48038.091
48019.374
47998.732
47976.813
47952.875
47927.469
47901.784
47873.986
47842.988
47962.11
47962.112
47962.113
47962.114
47962.116
47962.118
47962.12
47962.123
47962.126
47962.13
47962.134
47962.139
47962.145
47962.151
47962.159
47962.168
47962.177
47962.188
47962.2
47962.214
47962.23
47962.247
47962.266
47962.287
47962.311
47962.338
47962.367
47962.4
47962.436
47962.476
47962.52
47962.569
47962.623
47962.683
47962.749
47962.822
47962.902
47962.991
47963.088
47963.196
47963.314
47963.444
47963.587
47963.744
47963.917
47964.109
47964.322
47964.561
47964.834
47965.16