/*--------------------------------*- C++ -*----------------------------------*\
| =========                 |                                                 |
| \\      /  F ield         | OpenFOAM: The Open Source CFD Toolbox           |
|  \\    /   O peration     | Version:  2506                                  |
|   \\  /    A nd           | Website:  www.openfoam.com                      |
|    \\/     M anipulation  |                                                 |
\*---------------------------------------------------------------------------*/
FoamFile
{
    version     2.0;
    format      ascii;
    arch        "LSB;label=32;scalar=64";
    class       volScalarField;
    location    "0.85";
    object      rho;
}
// * * * * * * * * * * * * * * * * * * * * * * * * * * * * * * * * * * * * * //

dimensions      [1 -3 0 0 0 0 0];

internalField   nonuniform List<scalar> 
1375
(
0.66554265
0.66553389
0.66556385
0.66558785
0.66554694
0.66553926
0.66557042
0.6656097
0.66564152
0.66566214
0.6656733
0.66567812
0.6655918
0.66555152
0.66554448
0.66557617
0.66561548
0.66564715
0.66566773
0.66567902
0.66568426
0.66568618
0.66568657
0.66568631
0.66568571
0.66568494
0.665684
0.66559527
0.6655557
0.66554942
0.66558168
0.66562089
0.6656522
0.66567239
0.66568349
0.66568875
0.66569095
0.66569176
0.66569209
0.6656923
0.6656924
0.66569227
0.66569186
0.66569107
0.66568993
0.66568885
0.66559783
0.66555905
0.6655536
0.66558651
0.66562565
0.66565648
0.66567618
0.66568683
0.66569183
0.665694
0.66569505
0.66569586
0.66569675
0.66569762
0.66569824
0.66569851
0.66569842
0.66569812
0.66569769
0.66569717
0.66569658
0.66569622
0.66569617
0.6655987
0.66556067
0.66555633
0.66558993
0.66562898
0.6656595
0.66567882
0.66568917
0.66569395
0.66569594
0.66569693
0.66569782
0.6656989
0.66570005
0.66570112
0.665702
0.66570271
0.66570333
0.66570379
0.66570408
0.66570427
0.66570443
0.66570473
0.66570554
0.66570683
0.66570876
0.6657117
0.66559703
0.66555996
0.66555665
0.66559101
0.66563019
0.66566046
0.6656795
0.66568968
0.66569444
0.66569647
0.66569747
0.66569834
0.66569932
0.66570034
0.66570129
0.6657022
0.6657032
0.66570432
0.66570554
0.66570682
0.66570816
0.66570947
0.66571078
0.66571233
0.66571412
0.66571618
0.66571895
0.66572215
0.66572612
0.66573045
0.66559226
0.66555619
0.66555398
0.66558893
0.66562831
0.66565846
0.66567729
0.66568748
0.6656923
0.66569445
0.66569554
0.66569644
0.66569742
0.66569836
0.66569914
0.66569982
0.66570064
0.6657017
0.66570302
0.66570464
0.66570668
0.66570913
0.66571186
0.66571472
0.66571765
0.66572056
0.66572349
0.66572664
0.66573008
0.66573359
0.66573713
0.66574016
0.66574142
0.665582
0.66554762
0.66554708
0.66558307
0.66562246
0.66565244
0.66567132
0.66568167
0.66568675
0.6656891
0.66569041
0.66569149
0.66569259
0.66569363
0.66569448
0.66569515
0.66569582
0.66569671
0.66569794
0.66569958
0.66570169
0.6657044
0.66570772
0.66571154
0.66571567
0.66571986
0.66572387
0.66572764
0.6657311
0.66573443
0.66573775
0.6657411
0.66574436
0.66574571
0.66574371
0.66556551
0.66553293
0.66553411
0.66557153
0.66561166
0.66564202
0.66566118
0.66567179
0.66567714
0.66567993
0.66568168
0.66568315
0.66568455
0.66568588
0.66568709
0.66568817
0.66568914
0.6656902
0.66569148
0.6656931
0.66569521
0.66569796
0.66570135
0.66570522
0.66570962
0.66571443
0.66571933
0.66572415
0.66572883
0.6657331
0.66573692
0.66574058
0.66574442
0.66574795
0.66574948
0.66574706
0.66573867
0.66572228
0.66554287
0.6655126
0.66551618
0.6655553
0.66559658
0.6656276
0.66564717
0.66565835
0.66566443
0.66566798
0.6656704
0.66567243
0.66567434
0.66567619
0.665678
0.66567968
0.66568125
0.66568285
0.66568453
0.66568639
0.66568859
0.66569129
0.66569445
0.66569811
0.66570219
0.66570672
0.66571174
0.66571711
0.66572251
0.66572808
0.66573359
0.66573856
0.66574328
0.66574793
0.66575168
0.66575308
0.66575034
0.665741
0.66572265
0.66569737
0.66551532
0.66548749
0.66549375
0.66553489
0.66557757
0.66560986
0.6656306
0.66564274
0.66564991
0.66565445
0.66565776
0.66566062
0.66566316
0.66566538
0.66566744
0.66566959
0.66567176
0.66567391
0.66567625
0.66567884
0.66568167
0.66568467
0.66568778
0.66569082
0.66569445
0.66569901
0.66570405
0.66570947
0.66571513
0.66572086
0.66572705
0.66573398
0.66574055
0.6657466
0.66575234
0.6657563
0.66575688
0.66575252
0.6657408
0.66571863
0.6656891
0.66565433
0.66548386
0.66545817
0.66546709
0.66551018
0.66555434
0.66558786
0.66560994
0.66562372
0.6656325
0.66563869
0.66564364
0.66564776
0.66565131
0.66565435
0.66565694
0.66565925
0.66566168
0.66566451
0.66566759
0.66567086
0.6656744
0.6656782
0.66568207
0.665686
0.6656898
0.66569339
0.66569742
0.66570205
0.66570731
0.66571329
0.66571995
0.66572683
0.66573449
0.66574265
0.6657501
0.66575621
0.66575982
0.66575954
0.66575288
0.66573725
0.66570923
0.66567342
0.66563365
0.66545034
0.66542632
0.66543748
0.66548206
0.66552739
0.66556205
0.66558542
0.66560072
0.66561128
0.66561943
0.6656264
0.66563262
0.66563808
0.66564283
0.66564679
0.66565013
0.6656534
0.66565683
0.66566023
0.6656636
0.66566725
0.66567134
0.66567576
0.66568031
0.66568451
0.66568827
0.66569204
0.66569606
0.66570057
0.6657058
0.66571198
0.6657195
0.66572806
0.6657369
0.66574685
0.66575571
0.66576138
0.66576347
0.66576069
0.6657496
0.66572591
0.6656919
0.66565211
0.66561512
0.66558637
0.6654168
0.66539347
0.66540593
0.66545132
0.66549733
0.66553281
0.66555727
0.66557391
0.66558611
0.66559611
0.66560502
0.66561318
0.6656206
0.66562728
0.66563338
0.66563891
0.66564367
0.6656477
0.66565149
0.66565531
0.66565918
0.66566324
0.66566765
0.66567225
0.66567703
0.66568203
0.66568695
0.66569164
0.66569636
0.66570082
0.66570619
0.66571313
0.66572123
0.66573103
0.66574148
0.66575144
0.66575919
0.66576382
0.66576412
0.66575724
0.66574078
0.66570996
0.66567062
0.66563223
0.66560134
0.66558977
0.66538622
0.66536273
0.66537487
0.6654199
0.66546569
0.66550122
0.66552614
0.66554362
0.66555697
0.66556835
0.66557885
0.66558885
0.66559833
0.66560711
0.66561519
0.66562254
0.66562907
0.66563486
0.6656401
0.66564497
0.66564952
0.66565387
0.66565833
0.6656631
0.66566816
0.66567359
0.66567923
0.66568499
0.66569079
0.66569645
0.66570168
0.66570657
0.66571386
0.66572381
0.66573466
0.66574621
0.66575623
0.66576241
0.66576413
0.66576116
0.66575118
0.66572736
0.66568967
0.66564933
0.66561744
0.6656049
0.66562164
0.66535881
0.66533401
0.66534554
0.66538992
0.66543491
0.6654696
0.66549392
0.66551131
0.66552503
0.66553721
0.66554885
0.66556025
0.66557133
0.66558191
0.66559184
0.6656011
0.66560968
0.66561758
0.66562483
0.66563137
0.66563722
0.66564251
0.66564752
0.6656527
0.66565824
0.66566415
0.66567025
0.66567657
0.66568303
0.66568959
0.66569578
0.66570179
0.66570912
0.66571792
0.6657285
0.66574051
0.66575199
0.66576068
0.66576452
0.66576359
0.66575693
0.6657406
0.66570808
0.66566755
0.66563331
0.66561883
0.66562864
0.66572128
0.66582743
0.66533796
0.66531106
0.66532044
0.66536298
0.66540615
0.66543969
0.66546338
0.66548033
0.66549377
0.66550583
0.66551763
0.66552954
0.66554148
0.66555321
0.66556454
0.6655754
0.66558573
0.66559557
0.66560498
0.66561383
0.66562198
0.66562949
0.66563645
0.66564299
0.66564908
0.66565478
0.66566091
0.66566792
0.66567498
0.66568223
0.66568934
0.66569682
0.66570449
0.66571309
0.66572356
0.6657352
0.6657472
0.66575726
0.66576346
0.66576538
0.66576144
0.66574879
0.6657226
0.66568477
0.66565073
0.66563574
0.66564108
0.66572433
0.66582628
0.66532539
0.66529648
0.66530346
0.66534379
0.66538436
0.66541536
0.66543693
0.66545235
0.66546478
0.66547631
0.66548793
0.66549983
0.66551188
0.66552392
0.66553575
0.66554738
0.66555892
0.66557036
0.66558159
0.6655925
0.6656029
0.66561269
0.66562204
0.66563106
0.66563913
0.66564583
0.66565152
0.6656577
0.66566611
0.66567525
0.66568385
0.66569191
0.66569933
0.66570798
0.66571804
0.66572993
0.66574233
0.66575348
0.66576152
0.66576543
0.66576416
0.6657546
0.66573408
0.66570043
0.66566736
0.66565004
0.66564821
0.66572565
0.66580931
0.66532057
0.66528977
0.66529476
0.6653332
0.66537202
0.66540087
0.66541988
0.66543289
0.66544325
0.66545322
0.66546371
0.66547457
0.66548561
0.66549682
0.66550826
0.66552001
0.66553211
0.66554445
0.66555671
0.66556867
0.66558034
0.66559166
0.66560251
0.66561306
0.66562341
0.66563314
0.66564163
0.66564911
0.66565687
0.66566627
0.66567693
0.6656869
0.66569557
0.66570428
0.66571406
0.66572517
0.66573688
0.66574848
0.6657584
0.66576472
0.66576523
0.66575817
0.66574243
0.66571497
0.66568465
0.66566586
0.66566279
0.6657282
0.66580685
0.66532229
0.66528988
0.66529368
0.66533085
0.66536792
0.66539493
0.66541249
0.66542407
0.66543277
0.66544063
0.66544871
0.66545752
0.66546674
0.66547617
0.66548616
0.66549693
0.66550823
0.66551987
0.6655318
0.66554395
0.66555638
0.66556891
0.66558127
0.66559313
0.66560425
0.66561519
0.66562698
0.66563814
0.66564751
0.66565636
0.66566654
0.66567761
0.66568911
0.66569921
0.66570906
0.66572022
0.66573178
0.66574356
0.66575423
0.66576219
0.66576637
0.66576254
0.66575027
0.66572819
0.66570077
0.66568217
0.66568108
0.66574095
0.66580937
0.66533116
0.66529592
0.66529801
0.6653337
0.66536943
0.6653952
0.66541141
0.66542162
0.6654292
0.6654359
0.66544248
0.66544928
0.66545643
0.66546428
0.6654727
0.66548144
0.66549055
0.66550018
0.66551039
0.66552143
0.66553332
0.66554571
0.66555842
0.66557112
0.66558347
0.66559527
0.66560657
0.66561852
0.66563075
0.66564299
0.66565526
0.66566659
0.66567866
0.66569074
0.6657027
0.6657142
0.66572568
0.66573706
0.66574824
0.6657577
0.66576418
0.66576501
0.66575671
0.6657386
0.66571428
0.66569608
0.66569393
0.66574633
0.66580008
0.66534818
0.66530907
0.66530871
0.66534212
0.66537557
0.66539918
0.66541364
0.66542251
0.6654289
0.66543455
0.66544021
0.66544595
0.66545204
0.66545847
0.66546513
0.66547214
0.66547979
0.66548793
0.66549661
0.66550594
0.66551559
0.66552551
0.66553617
0.66554796
0.66556062
0.66557348
0.66558577
0.66559739
0.66560975
0.66562299
0.66563594
0.66565037
0.66566497
0.66568014
0.66569445
0.66570653
0.66571813
0.66572861
0.66573952
0.66575095
0.66575924
0.66576403
0.6657612
0.66574667
0.66572594
0.66570882
0.66570619
0.66575258
0.66579494
0.66537242
0.66532938
0.66532645
0.66535704
0.66538773
0.66540863
0.66542063
0.66542734
0.66543178
0.6654356
0.66543961
0.66544391
0.66544884
0.66545423
0.66545992
0.66546608
0.66547237
0.66547904
0.66548646
0.66549461
0.66550322
0.66551205
0.66552127
0.66553104
0.6655413
0.66555214
0.66556365
0.66557563
0.66558786
0.66560014
0.66561455
0.66562962
0.66564544
0.66566334
0.66567999
0.66569515
0.66570818
0.66571995
0.66573154
0.6657427
0.66575361
0.66576104
0.66576207
0.66575451
0.66573675
0.66572418
0.66572198
0.66576472
0.66579518
0.66540324
0.66535621
0.66535054
0.66537801
0.66540594
0.66542414
0.66543348
0.66543789
0.66543998
0.66544158
0.66544332
0.66544574
0.66544886
0.66545251
0.66545674
0.66546165
0.66546721
0.6654733
0.6654801
0.66548742
0.6654949
0.6655029
0.66551116
0.66551935
0.66552783
0.66553666
0.66554575
0.6655555
0.66556578
0.66557704
0.66559037
0.6656053
0.66562203
0.66563937
0.6656584
0.6656777
0.66569508
0.66570958
0.66572208
0.66573363
0.66574486
0.66575432
0.66576003
0.66575834
0.66574736
0.66573882
0.66573652
0.66577756
0.66579575
0.66544001
0.66538941
0.66538118
0.6654056
0.66543089
0.66544656
0.66545355
0.66545584
0.66545537
0.66545442
0.66545386
0.6654539
0.66545442
0.66545576
0.665458
0.66546118
0.66546541
0.66547055
0.66547638
0.66548282
0.66548998
0.66549763
0.66550481
0.66551154
0.66551849
0.66552566
0.66553273
0.66554032
0.66554929
0.66555881
0.66556861
0.66558151
0.66559542
0.6656118
0.66563233
0.6656537
0.66567436
0.66569291
0.66570968
0.66572358
0.66573481
0.66574555
0.6657537
0.66575791
0.66575583
0.6657511
0.6657511
0.66578582
0.66579108
0.66548097
0.66542767
0.66541746
0.66543932
0.6654624
0.66547601
0.66548154
0.66548199
0.66547941
0.6654763
0.66547347
0.66547101
0.66546901
0.6654677
0.66546733
0.66546809
0.66547003
0.66547306
0.66547706
0.6654821
0.6654881
0.66549471
0.66550181
0.66550901
0.66551568
0.66552137
0.66552659
0.66553107
0.66553616
0.66554382
0.6655521
0.66555977
0.6655712
0.66558681
0.66560362
0.66562393
0.66564601
0.66566926
0.66569177
0.66571089
0.66572579
0.66573591
0.66574541
0.66575432
0.66575915
0.66576219
0.66576309
0.66579639
0.66579282
0.66552354
0.66546887
0.66545754
0.66547774
0.66549923
0.66551138
0.6655162
0.66551536
0.66551167
0.66550738
0.66550305
0.66549866
0.66549449
0.66549082
0.66548779
0.66548571
0.66548475
0.66548495
0.66548626
0.66548857
0.66549193
0.66549636
0.66550176
0.66550781
0.665514
0.66551998
0.66552546
0.66552922
0.66553145
0.66553346
0.66553754
0.66554495
0.66555158
0.66556113
0.66557583
0.66559402
0.66561545
0.66564011
0.6656664
0.66569221
0.66571272
0.66572712
0.66573882
0.66574893
0.6657577
0.66576781
0.6657742
0.66580835
0.66579649
0.6655647
0.66551092
0.66549956
0.6655192
0.66553965
0.66555107
0.6655556
0.66555399
0.66554982
0.665545
0.66553983
0.66553444
0.66552896
0.66552355
0.66551846
0.66551401
0.66551036
0.66550764
0.6655059
0.66550504
0.66550502
0.66550605
0.66550815
0.66551121
0.66551485
0.6655187
0.66552254
0.66552644
0.66552947
0.66553092
0.66553204
0.66553402
0.66553799
0.66554343
0.6655528
0.66556588
0.66558332
0.66560793
0.66563707
0.66566728
0.6656938
0.66571545
0.6657308
0.66574183
0.66575475
0.66577089
0.66578453
0.66581733
0.66579597
0.66559344
0.66559776
0.66559593
0.66559161
0.66558669
0.66558142
0.66557554
0.66556935
0.66556287
0.66555639
0.66555018
0.66554456
0.66553958
0.66553529
0.66553167
0.66552867
0.66552635
0.66552474
0.66552373
0.66552349
0.66552364
0.66552394
0.66552475
0.66552592
0.66552677
0.66552657
0.66552582
0.66552636
0.66552828
0.66553341
0.66554291
0.66555792
0.66557768
0.66560458
0.66563454
0.66566566
0.66569653
0.66571932
0.66573686
0.66575245
0.66577528
0.66579247
0.66582669
0.66580157
0.66562494
0.6656191
0.6656127
0.66560577
0.6655986
0.66559152
0.66558451
0.66557792
0.66557172
0.66556587
0.66556019
0.66555465
0.66554942
0.66554454
0.66554003
0.6655358
0.6655316
0.66552779
0.66552476
0.66552211
0.66551982
0.66551815
0.66551663
0.66551722
0.66551786
0.66552211
0.66553315
0.66555026
0.66557298
0.66560302
0.66563769
0.66567156
0.66570336
0.66572966
0.66575049
0.66577864
0.66579785
0.66583489
0.66580659
0.66563419
0.66562637
0.66561852
0.66561072
0.66560293
0.66559515
0.66558683
0.66557829
0.6655697
0.66556097
0.66555271
0.66554471
0.66553661
0.66552892
0.66552224
0.66551666
0.66551254
0.66551025
0.6655079
0.66550561
0.66550899
0.66551636
0.6655291
0.66554934
0.66557526
0.66560784
0.6656451
0.66568328
0.66571849
0.66574835
0.6657807
0.66580228
0.66584239
0.665814
0.66563015
0.66561996
0.66560906
0.66559768
0.66558579
0.66557357
0.6655614
0.66554966
0.66553824
0.66552755
0.66551812
0.66551033
0.66550498
0.66550185
0.66550118
0.66550092
0.66550158
0.66551052
0.66552844
0.66555104
0.66558059
0.66561872
0.66565964
0.66570095
0.66574061
0.6657821
0.66580686
0.66584686
0.66581998
0.66559731
0.66558178
0.66556616
0.66555087
0.66553635
0.66552288
0.66551076
0.66550059
0.66549396
0.66549171
0.66549182
0.66549409
0.66549654
0.66550559
0.66552744
0.66555683
0.66559184
0.6656334
0.6656777
0.66572541
0.66577478
0.66580932
0.66584911
0.66582415
0.66554985
0.66553284
0.66551708
0.66550277
0.66549076
0.66548266
0.66547961
0.66548166
0.66548569
0.66549093
0.66550305
0.66552897
0.66556193
0.66560496
0.66565355
0.6657078
0.66576388
0.665802
0.66584908
0.6658277
0.66549535
0.66548261
0.66547327
0.66546959
0.66547203
0.66547585
0.66548711
0.6655018
0.66553079
0.66557598
0.66562922
0.66568855
0.66575169
0.66579494
0.66584565
0.66582419
0.66546538
0.66546203
0.66546517
0.66547144
0.66548256
0.66550683
0.6655452
0.66560175
0.66566421
0.665736
0.66578807
0.66583686
0.66581827
0.6654601
0.66547087
0.66548891
0.66551796
0.66557069
0.66563794
0.66571686
0.66577335
0.66582766
0.66581472
0.66550134
0.6655438
0.66560997
0.66569805
0.66576376
0.6658197
0.66580515
0.6655872
0.66567813
0.66575548
0.66581537
0.66579845
0.6658075
0.66579515
)
;

boundaryField
{
    Side
    {
        type            empty;
    }
    Inlet
    {
        type            calculated;
        value           nonuniform List<scalar> 
25
(
0.66564615
0.66564625
0.66564724
0.66565272
0.66565557
0.66565503
0.66565724
0.66566297
0.66566495
0.66566506
0.6656656
0.66566566
0.66566556
0.6656646
0.66566263
0.66565989
0.66565641
0.66565249
0.66564784
0.66564283
0.66563915
0.66563568
0.66563194
0.66562965
0.66562873
)
;
    }
    Airfoil
    {
        type            calculated;
        value           nonuniform List<scalar> 0();
    }
    Outlet
    {
        type            calculated;
        value           nonuniform List<scalar> 0();
    }
    procBoundary5to4
    {
        type            processor;
        value           nonuniform List<scalar> 
64
(
0.66553604
0.66552592
0.66555506
0.66560249
0.66560249
0.66563404
0.6656544
0.66566516
0.66566936
0.66567928
0.66567928
0.6656789
0.66567776
0.66567634
0.66567484
0.66567374
0.66568278
0.66568278
0.66568134
0.66567965
0.66567829
0.66568795
0.66568795
0.66568697
0.66568615
0.66568651
0.66569643
0.66569643
0.66569747
0.66569995
0.66570305
0.66571566
0.66571566
0.6657194
0.66572262
0.66573347
0.66573347
0.66573478
0.66573316
0.66573962
0.66573962
0.66573263
0.66573629
0.66573629
0.66572177
0.66570099
0.66570005
0.66570005
0.66567537
0.66566852
0.66566852
0.66563599
0.66561612
0.66561612
0.665598
0.665598
0.66557193
0.66557489
0.66557489
0.6656183
0.6656183
0.66572428
0.66572428
0.66583209
)
;
    }
    procBoundary5to6
    {
        type            processor;
        value           nonuniform List<scalar> 
61
(
0.66559966
0.66555076
0.66554188
0.66556278
0.66558293
0.66558293
0.665636
0.66564027
0.66563886
0.66563479
0.66563025
0.66563025
0.66566623
0.66566116
0.66565542
0.665649
0.66564193
0.66564193
0.66567331
0.66566578
0.66565758
0.66564896
0.66563989
0.66563989
0.66566208
0.66565127
0.66563925
0.66562615
0.66561229
0.66561229
0.66561999
0.66560324
0.66558569
0.66556779
0.66556779
0.66556494
0.66554596
0.66552749
0.66551043
0.66551043
0.66550213
0.66548713
0.66547464
0.66547464
0.66546557
0.66545785
0.66545716
0.66545716
0.66545627
0.66546286
0.66547617
0.66547617
0.66549253
0.66552961
0.66552961
0.66557659
0.66566084
0.66574571
0.66574571
0.66579823
0.6657964
)
;
    }
    procBoundary5to12
    {
        type            processor;
        value           nonuniform List<scalar> 
30
(
0.66558903
0.66559291
0.66559631
0.66559881
0.66559965
0.66559802
0.66559343
0.66558337
0.66556667
0.66554346
0.66551529
0.66548343
0.66544966
0.66541607
0.66538554
0.66535832
0.66533772
0.66532543
0.66532063
0.66532228
0.66533106
0.66534792
0.66537185
0.66540264
0.6654397
0.66548131
0.66552458
0.66556648
0.66558443
0.66558443
)
;
    }
}


// ************************************************************************* //
