/*--------------------------------*- C++ -*----------------------------------*\
| =========                 |                                                 |
| \\      /  F ield         | OpenFOAM: The Open Source CFD Toolbox           |
|  \\    /   O peration     | Version:  2506                                  |
|   \\  /    A nd           | Website:  www.openfoam.com                      |
|    \\/     M anipulation  |                                                 |
\*---------------------------------------------------------------------------*/
FoamFile
{
    version     2.0;
    format      ascii;
    arch        "LSB;label=32;scalar=64";
    class       volScalarField;
    location    "0.006";
    object      Ma;
}
// * * * * * * * * * * * * * * * * * * * * * * * * * * * * * * * * * * * * * //

dimensions      [0 0 0 0 0 0 0];

internalField   nonuniform List<scalar> 
13761
(
0.38407185
0.38923173
0.39461097
0.40011326
0.40583527
0.4117238
0.41769601
0.42378761
0.43001206
0.43632417
0.44271211
0.44913074
0.45549242
0.46187374
0.46813921
0.47427701
0.48028211
0.48620554
0.49190992
0.49739601
0.50269213
0.50773601
0.51255655
0.51709283
0.52138249
0.52540701
0.52920551
0.53273257
0.53604046
0.53910939
0.54198147
0.54464476
0.5471284
0.54942956
0.55156439
0.55352396
0.55533882
0.55704063
0.55861793
0.56008696
0.56145712
0.56272006
0.56389325
0.56499804
0.56602538
0.56700928
0.56795518
0.56886734
0.56975281
0.57059029
0.57132485
0.57198641
0.57267546
0.5733832
0.57406154
0.57470259
0.5752989
0.57588178
0.57660504
0.57629838
0.56796686
0.55137373
0.53665921
0.52358942
0.51166383
0.50061593
0.49028596
0.48056906
0.47138931
0.46268738
0.45440678
0.44650251
0.43893471
0.43166192
0.42464317
0.4178426
0.41123249
0.40478715
0.39848072
0.39228657
0.38617739
0.38012466
0.37409879
0.36806871
0.36200041
0.35585853
0.34960411
0.34319296
0.33657733
0.32970273
0.3225022
0.31489351
0.30677377
0.297988
0.28828882
0.2772801
0.26446282
0.24908316
0.23002934
0.20578833
0.17493818
0.13785809
0.097721619
0.057744516
0.019193824
0.38387974
0.38902525
0.39439979
0.39989388
0.40560714
0.41149366
0.41746887
0.4235632
0.42979303
0.43611525
0.4425174
0.44895495
0.4553465
0.46174357
0.46801951
0.47419621
0.48025069
0.48621314
0.49196083
0.49749158
0.50283676
0.50793188
0.51280159
0.51738754
0.52172774
0.52580296
0.52965246
0.53322767
0.53658288
0.53969739
0.5426126
0.54531069
0.54782214
0.55014946
0.55231411
0.55431952
0.55618065
0.55790522
0.559478
0.56094272
0.56230888
0.56356363
0.56474573
0.56584998
0.56687509
0.56782037
0.5686916
0.56949137
0.57025124
0.57098718
0.5717159
0.57242046
0.57306842
0.57368033
0.57425384
0.57477222
0.57526545
0.57579132
0.57607172
0.57478937
0.56495424
0.547934
0.53311656
0.51972506
0.50731573
0.49568629
0.48471736
0.47432152
0.46443269
0.4549961
0.44596627
0.43730528
0.42897996
0.42095784
0.41320338
0.40567986
0.39836891
0.39124548
0.384282
0.37744944
0.37071785
0.36405576
0.35743037
0.35080712
0.34414728
0.33740874
0.33054296
0.32349294
0.31619529
0.30857468
0.30053622
0.29196152
0.28270248
0.27256894
0.26131259
0.24860164
0.23397708
0.21680627
0.19622975
0.17123999
0.14133598
0.10799683
0.074491708
0.043020953
0.01395922
0.38881333
0.39418063
0.39966653
0.4053744
0.41125889
0.41723384
0.42332963
0.42956265
0.43589342
0.44230926
0.4487659
0.45518877
0.46159951
0.4678868
0.47410586
0.48020755
0.4862058
0.49200467
0.49758086
0.50297189
0.50811731
0.51303816
0.51767703
0.52206759
0.52619548
0.53009359
0.53371719
0.53712349
0.54028629
0.54324411
0.54598388
0.54853957
0.55090289
0.55309051
0.55509646
0.55695872
0.5587061
0.56031211
0.56179703
0.5631706
0.56442377
0.56557811
0.56665308
0.56764164
0.568577
0.56945492
0.57027615
0.57104302
0.57172951
0.57229936
0.57281693
0.57335581
0.57387484
0.57433749
0.57474276
0.57509376
0.57540914
0.57586837
0.57521504
0.56557313
0.54808751
0.53299062
0.5193495
0.50670917
0.49487515
0.48373595
0.47320499
0.4632065
0.45367624
0.44456041
0.43581459
0.42740303
0.41929785
0.41148141
0.40393516
0.39661562
0.38948862
0.38252277
0.37568739
0.368952
0.36228512
0.35565426
0.34902531
0.34236092
0.33562158
0.32876238
0.3217309
0.31446922
0.30690914
0.29896462
0.29052733
0.28145842
0.27157577
0.2606379
0.24831369
0.23412747
0.21739844
0.19722304
0.1725882
0.14300692
0.10989589
0.076298974
0.044323304
0.014469314
0.38859946
0.39396128
0.39943925
0.40513758
0.41101862
0.41699495
0.42309334
0.42933097
0.43567126
0.44210005
0.44857426
0.45502802
0.46145098
0.46775037
0.47401109
0.48016236
0.48619613
0.49204059
0.4976634
0.50310249
0.50829766
0.51326778
0.51795866
0.52240123
0.52658138
0.5305307
0.53420539
0.53766008
0.54086807
0.54386808
0.54664237
0.54922742
0.55161999
0.55384393
0.55589498
0.55778701
0.5595277
0.56111852
0.56259278
0.56395587
0.56520042
0.56635689
0.56741761
0.5683827
0.569255
0.57003913
0.57074947
0.57141963
0.57206269
0.5726671
0.57319688
0.57365403
0.5740765
0.57444415
0.5747515
0.57502439
0.57532519
0.57532821
0.57433318
0.56541203
0.54773196
0.53238856
0.51850007
0.50554315
0.49340759
0.48199641
0.47121482
0.4609771
0.45121232
0.44186781
0.4329025
0.42427946
0.41596423
0.40792508
0.40012937
0.39255025
0.38516099
0.37793363
0.37083987
0.36385093
0.35693629
0.35006351
0.34319811
0.33630177
0.32933352
0.3222466
0.31498612
0.30749137
0.29969164
0.291499
0.28280434
0.27347131
0.26332517
0.25213823
0.23960453
0.22529294
0.20860103
0.18871057
0.16462836
0.13589921
0.10397773
0.071871657
0.041576026
0.013508425
0.38838033
0.39373449
0.39920359
0.40489491
0.41077447
0.41674945
0.42284888
0.42908821
0.43543691
0.44187718
0.44836971
0.45485451
0.46128792
0.46760207
0.47390654
0.48010424
0.48617411
0.49206864
0.49773548
0.50322231
0.50846781
0.51348981
0.51823481
0.52272997
0.52696378
0.53096406
0.53469
0.53819769
0.54145646
0.54449992
0.54731874
0.5499464
0.55236935
0.55461081
0.55666628
0.55857474
0.56035919
0.56198236
0.56347099
0.56483726
0.56607008
0.56719611
0.56823127
0.56917188
0.5700429
0.57083603
0.57155004
0.57218788
0.57272433
0.5731501
0.57355524
0.5739761
0.57435172
0.57466694
0.57491334
0.57511578
0.5752885
0.57558064
0.57493244
0.56703876
0.54935061
0.53337209
0.51902403
0.50578378
0.49347443
0.48194635
0.47107432
0.46075832
0.45091228
0.4414761
0.43240856
0.4236715
0.41523382
0.40707202
0.39916965
0.39150599
0.3840397
0.37673839
0.36957388
0.3625189
0.35554408
0.34861627
0.34170074
0.3347602
0.32775556
0.32064244
0.3133689
0.30587769
0.2981013
0.28995455
0.28133073
0.27209424
0.26206833
0.25101918
0.23862698
0.22443409
0.20781408
0.18792718
0.1638136
0.13508231
0.10324689
0.071304757
0.041213846
0.013377275
0.38815829
0.3935069
0.39896822
0.40464934
0.41052428
0.41649882
0.42260073
0.42884358
0.43520125
0.44165238
0.4481613
0.45467649
0.4611207
0.46745018
0.47379709
0.4800427
0.48614597
0.4920876
0.49780209
0.50333652
0.50863034
0.51370302
0.51850128
0.52304988
0.52733795
0.53139058
0.53517009
0.53872747
0.54203129
0.54511727
0.54797393
0.55063643
0.55309467
0.55537749
0.55747071
0.55939269
0.56115409
0.56276607
0.56425125
0.56561176
0.5668455
0.56797345
0.56899125
0.56990166
0.57071378
0.57143226
0.57208061
0.57269175
0.57326975
0.57377755
0.57417874
0.57451331
0.57482828
0.57508795
0.5752861
0.57545695
0.5756578
0.5756026
0.57487543
0.56810614
0.550692
0.53457666
0.52022296
0.50688352
0.49436153
0.48255345
0.47139056
0.46081701
0.45078313
0.4412234
0.43206954
0.42326896
0.41477724
0.40655493
0.39856392
0.39076505
0.38313996
0.37567007
0.36833108
0.36109768
0.35394484
0.34683552
0.33973484
0.33260919
0.32542137
0.31812784
0.31067652
0.30300898
0.29505657
0.28673345
0.27793328
0.26852306
0.25833248
0.24713949
0.2346442
0.22042274
0.20385863
0.1841205
0.16025987
0.13190876
0.10060878
0.069338539
0.039998735
0.012954108
0.3879309
0.39327313
0.39872364
0.40439692
0.4102697
0.41624239
0.42234461
0.42858851
0.43495408
0.44141408
0.44794035
0.45448457
0.46093788
0.46728708
0.47367757
0.47996799
0.48610727
0.49209599
0.49785617
0.50344032
0.50878401
0.51390744
0.51876113
0.52336459
0.5277075
0.53181481
0.53564878
0.53925978
0.54261541
0.54574709
0.54865073
0.55135296
0.55384027
0.5561425
0.5582551
0.56021413
0.56203243
0.56367177
0.5651688
0.56653379
0.56775645
0.56886853
0.56987951
0.57079124
0.57161733
0.57234972
0.57298731
0.57353865
0.57398519
0.57434541
0.57471438
0.57508615
0.57539829
0.57565468
0.57584601
0.57599077
0.57612142
0.57638145
0.57597005
0.57028646
0.55341072
0.53661824
0.52188383
0.50832631
0.495705
0.48386117
0.47267084
0.46203695
0.45188578
0.44216363
0.43282818
0.42384279
0.41517302
0.40678853
0.39866263
0.39076784
0.38307533
0.37554892
0.3681545
0.36085882
0.35362713
0.34643755
0.33926462
0.33207439
0.32483042
0.31749117
0.31000819
0.30232044
0.29435908
0.28603927
0.27725568
0.26787519
0.25772478
0.2465758
0.23411666
0.21991036
0.20334368
0.18359287
0.15972077
0.13137592
0.10011906
0.068938552
0.039731136
0.01285342
0.39303718
0.39848025
0.4041429
0.41000967
0.41598039
0.42208436
0.42833053
0.43470461
0.4411733
0.44771474
0.4542874
0.46075186
0.4671206
0.47355285
0.47988808
0.4860602
0.49209637
0.49790541
0.50353549
0.50892829
0.51410332
0.5190116
0.5236693
0.52806905
0.53223046
0.53611918
0.53978134
0.5431837
0.5463603
0.54930733
0.55205228
0.55458218
0.55692746
0.55906737
0.56103016
0.56282839
0.56447383
0.56598326
0.56735483
0.56859169
0.56970778
0.57070605
0.57159118
0.57238096
0.57307939
0.57371317
0.57431189
0.57486482
0.57531954
0.57565446
0.5759428
0.57622553
0.57645271
0.5766216
0.57677294
0.57695666
0.57691709
0.57645847
0.57189663
0.55605668
0.5390004
0.52419179
0.51051377
0.49771394
0.48566755
0.47428708
0.46349723
0.45322888
0.44341846
0.4340095
0.42495276
0.41620538
0.40773108
0.39949756
0.391476
0.38364087
0.37596789
0.36843266
0.36101017
0.35367312
0.34639181
0.33913187
0.33185321
0.32451398
0.31706695
0.30945702
0.3016318
0.29352718
0.28506269
0.27613622
0.26661862
0.25634313
0.24508771
0.23255081
0.21830183
0.20173115
0.18201814
0.15822958
0.13002296
0.098972597
0.068066446
0.039182027
0.012658583
0.39279468
0.39822731
0.40388106
0.40974437
0.41571313
0.42181688
0.42806289
0.43444404
0.4409197
0.44747677
0.45407484
0.46054964
0.4669434
0.47341797
0.47979523
0.48600207
0.4920829
0.49794143
0.50362257
0.50906419
0.51428994
0.51925393
0.52396869
0.5284259
0.53264495
0.5365904
0.54030597
0.5437607
0.54698693
0.54998218
0.55276509
0.55532797
0.55770182
0.55988167
0.56189948
0.56375569
0.56542281
0.56694567
0.56832869
0.56956561
0.57069096
0.57170654
0.57261954
0.57343394
0.57414288
0.5747492
0.57527104
0.57569919
0.57607031
0.57646033
0.57683037
0.57713668
0.5773914
0.57758213
0.57773231
0.5778813
0.57817343
0.57799175
0.57430492
0.55956403
0.54186271
0.526752
0.51291022
0.50001041
0.48789007
0.47643686
0.46556225
0.45519469
0.44527484
0.43575241
0.42658345
0.41772823
0.40915184
0.40082232
0.39270919
0.38478352
0.37701715
0.36938257
0.36185292
0.3544006
0.34699715
0.3396126
0.33221321
0.32476268
0.31721885
0.30953135
0.30164401
0.29349063
0.28498559
0.27602322
0.26647099
0.25615783
0.24486268
0.23228554
0.21799534
0.20138473
0.18163618
0.15782062
0.12960274
0.098571441
0.067728624
0.038951424
0.012570554
0.39254987
0.3979752
0.40361865
0.40947412
0.41543943
0.42154471
0.42779145
0.43417968
0.44066283
0.4472344
0.45385687
0.46034466
0.46676321
0.47327743
0.47969586
0.48593635
0.49206292
0.4979701
0.50369899
0.50919098
0.51446814
0.51948786
0.52425891
0.52877504
0.5330495
0.53705011
0.54081865
0.54432434
0.54759927
0.55064329
0.55347677
0.55608809
0.55850349
0.56070288
0.56272602
0.56458384
0.56628127
0.5678345
0.56923934
0.57050221
0.57163437
0.57264613
0.57354486
0.57435532
0.57507845
0.57573919
0.57636242
0.57692062
0.57735973
0.57768456
0.57798856
0.57829128
0.57853662
0.57872713
0.57890477
0.57910215
0.57912581
0.57889219
0.57615305
0.56307094
0.5451366
0.52989009
0.51592177
0.50287139
0.49059864
0.47900497
0.4680081
0.45753601
0.44752515
0.43791992
0.42867163
0.41973713
0.41107938
0.40266548
0.39446468
0.38644876
0.37859054
0.37086297
0.36323948
0.35569232
0.34819259
0.3407097
0.33320935
0.32565503
0.31800477
0.31020887
0.30221248
0.29395096
0.28534249
0.27628463
0.26664785
0.25626423
0.24491261
0.23229177
0.21797133
0.20134206
0.18158306
0.15775886
0.12952353
0.098465398
0.067609911
0.038853558
0.012527518
0.39229923
0.39771346
0.40334697
0.40919831
0.41516071
0.42126543
0.42751186
0.43390524
0.44039353
0.44697938
0.4536227
0.4601246
0.46657263
0.47312638
0.47958394
0.48585797
0.49202826
0.49798726
0.50376716
0.50930903
0.5146377
0.51971411
0.52454302
0.52911965
0.53345305
0.53751206
0.54133467
0.54489373
0.5482221
0.55131447
0.55418733
0.55683949
0.55929731
0.56155581
0.56364287
0.5655491
0.56726577
0.56883911
0.57026686
0.57154933
0.57271827
0.57376939
0.57471468
0.57555189
0.57627529
0.57689628
0.57744337
0.57791621
0.57835305
0.5787948
0.579192
0.57953108
0.57982004
0.58004482
0.58023261
0.58042707
0.58077066
0.58077136
0.57860502
0.56700877
0.54870623
0.53315926
0.51903991
0.50588445
0.4935254
0.48184798
0.47076582
0.46020645
0.4501075
0.44041474
0.43108031
0.42206122
0.41331997
0.40482301
0.3965389
0.38843812
0.3804927
0.37267569
0.36496061
0.35732002
0.34972554
0.34214718
0.33455123
0.32690169
0.31915701
0.31126782
0.30317952
0.29482773
0.28613089
0.27698695
0.26726712
0.25680436
0.24537783
0.23268606
0.21829919
0.20160942
0.18179596
0.15791854
0.12962036
0.098489779
0.067579727
0.038806734
0.012501205
0.39745237
0.40307551
0.40891826
0.41487604
0.42098041
0.42722769
0.43362633
0.44012026
0.44671997
0.45338292
0.45990129
0.46637923
0.47296951
0.47946459
0.48577373
0.49198712
0.49799374
0.50382473
0.50941878
0.51479871
0.51993157
0.52481881
0.52945571
0.53384562
0.5379609
0.54183926
0.54545504
0.54883606
0.55198161
0.55491076
0.55761401
0.56011092
0.56238863
0.56449431
0.56643476
0.56820428
0.56982244
0.57128605
0.57260229
0.57378314
0.57484379
0.57579513
0.57666421
0.57744638
0.57816276
0.57883265
0.57941604
0.579871
0.58023398
0.58059869
0.58095525
0.58125159
0.58149407
0.58172251
0.58195541
0.58204639
0.58199506
0.58055263
0.57089614
0.55273773
0.53694643
0.52269284
0.50940699
0.49692208
0.48512763
0.47394014
0.46328694
0.45310398
0.44333471
0.43392887
0.42484128
0.41603266
0.40746796
0.39911465
0.39094258
0.38292317
0.37502878
0.36723275
0.35950771
0.35182544
0.34415635
0.33646723
0.32872272
0.32088197
0.31289631
0.30471197
0.29626538
0.28747578
0.27824188
0.2684351
0.25788788
0.24637929
0.23360846
0.21914577
0.20238284
0.18249586
0.15853531
0.13012585
0.098849383
0.067792577
0.038905719
0.012524158
0.39718199
0.40279338
0.40863135
0.41458594
0.4206888
0.42693623
0.4333384
0.4398352
0.44644756
0.45312704
0.45966445
0.46617588
0.47280111
0.47933234
0.48567584
0.4919328
0.49799046
0.50387171
0.5095189
0.51495186
0.52014177
0.52508814
0.52978801
0.53423675
0.53841194
0.5423465
0.54601757
0.54945422
0.55264909
0.55562298
0.5583763
0.56092974
0.56327782
0.56544515
0.56741986
0.56921256
0.57086231
0.57236327
0.57372238
0.57496299
0.57607832
0.57708467
0.57797719
0.57875079
0.57942838
0.58004642
0.58060973
0.58114045
0.58164347
0.58208466
0.5824802
0.58282427
0.58310355
0.58334664
0.58360069
0.5840051
0.58413998
0.58299261
0.5748609
0.55695312
0.54077121
0.52637151
0.51298411
0.50041221
0.488535
0.47726561
0.46653238
0.45627231
0.4464293
0.4369529
0.42779728
0.41892227
0.41029179
0.40187231
0.39363282
0.38554373
0.37757685
0.36970525
0.36190119
0.35413635
0.34638125
0.33860297
0.3307666
0.32283184
0.3147506
0.30646977
0.29792655
0.28904076
0.27971096
0.26980852
0.25916665
0.24756542
0.23470465
0.22015497
0.20330725
0.18333441
0.15927689
0.13073922
0.099295292
0.068067203
0.039041404
0.012559345
0.39691151
0.40251215
0.40834173
0.4142901
0.42039066
0.42663905
0.43304573
0.43954575
0.44617124
0.45286482
0.45942342
0.46597042
0.47262788
0.47919246
0.48557205
0.49187012
0.49797655
0.50390977
0.50961147
0.51509529
0.52034305
0.52534921
0.53011017
0.53461703
0.53885131
0.54284502
0.54657723
0.55006967
0.55332154
0.55635427
0.55915856
0.56175059
0.56412669
0.56633415
0.56837535
0.57023461
0.57193756
0.57348465
0.57488211
0.57614422
0.57728724
0.57832615
0.57928346
0.58014798
0.58093823
0.58166727
0.58229141
0.58279101
0.58322975
0.58368142
0.58410944
0.58447492
0.58478554
0.58507742
0.58535901
0.58550872
0.58561799
0.58499917
0.57869632
0.56162406
0.5450477
0.53051088
0.51701023
0.50433026
0.49235141
0.48098626
0.47016613
0.45982824
0.4499156
0.4403763
0.43116276
0.42223305
0.41354939
0.40507682
0.39678319
0.38863815
0.3806124
0.37267796
0.36480668
0.35696992
0.34913814
0.34127855
0.3333566
0.32533247
0.31715862
0.30878239
0.30014103
0.2911543
0.28172144
0.27171481
0.26096833
0.24926263
0.23629781
0.22164428
0.20469152
0.18460797
0.16042107
0.13170868
0.10003056
0.068550073
0.039301128
0.012636069
0.39663211
0.40221916
0.40804387
0.41398923
0.42008646
0.42633449
0.4327439
0.43924554
0.44588211
0.45258757
0.45917039
0.46575421
0.47244205
0.47903993
0.48545539
0.49179661
0.49795268
0.50393548
0.50969481
0.51523264
0.52053777
0.52560434
0.53042933
0.53499578
0.53929156
0.54334404
0.54713426
0.55068324
0.55398789
0.55707343
0.55993588
0.56259429
0.56504109
0.56730022
0.56936473
0.57125805
0.57300661
0.57460527
0.57606624
0.57740102
0.5786052
0.57969854
0.58067633
0.58153402
0.58230552
0.58302992
0.58371045
0.58434171
0.58490481
0.58540138
0.58586641
0.58627611
0.5866208
0.58692754
0.58724836
0.58770958
0.58795573
0.58743033
0.58237514
0.56635041
0.54929287
0.53461901
0.52103401
0.50827257
0.4962113
0.4847657
0.47386877
0.46345908
0.45348032
0.44388045
0.43461121
0.42562953
0.41689627
0.40837515
0.40003272
0.39183742
0.38375875
0.3757677
0.36783539
0.3599328
0.35203012
0.34409441
0.33609109
0.32798042
0.31971501
0.31124263
0.30250132
0.29341179
0.283874
0.27376088
0.26290684
0.25109281
0.23801901
0.22325536
0.20618973
0.18598582
0.16165812
0.13275799
0.10083053
0.069080241
0.039589629
0.012722663
0.39635236
0.40192804
0.40774358
0.41368329
0.4197767
0.42602403
0.43243671
0.43894112
0.44558832
0.45230279
0.45891339
0.46553612
0.47225135
0.4788797
0.48533234
0.49171365
0.4979195
0.50395382
0.50976915
0.51536001
0.5207235
0.52585086
0.53073761
0.53536374
0.53972205
0.54383713
0.547691
0.5512988
0.5546636
0.55780742
0.56072014
0.56342067
0.56591153
0.56823388
0.57038639
0.57234853
0.57415267
0.57580306
0.57730541
0.5786756
0.57992791
0.58108068
0.58214654
0.58310882
0.58398594
0.58478599
0.58547079
0.58604543
0.58658819
0.58713879
0.5876462
0.58809051
0.58847655
0.58883668
0.58917165
0.58937677
0.58963418
0.58950326
0.58590722
0.57143062
0.55394321
0.53912867
0.5254462
0.51258491
0.50042844
0.48889384
0.47791386
0.46742923
0.45738423
0.44772654
0.43840692
0.42938092
0.42060781
0.4120497
0.40367141
0.39543918
0.38732078
0.37928601
0.37130506
0.36334829
0.35538543
0.34738331
0.33930728
0.33111769
0.32276736
0.31420436
0.30536712
0.29617674
0.28653357
0.27631092
0.26534355
0.25341262
0.24021839
0.22533013
0.20813373
0.18778719
0.16328919
0.13415773
0.10191618
0.069815924
0.040000267
0.012850032
0.40162473
0.40743355
0.41337067
0.41946033
0.42570713
0.43211994
0.43862723
0.4452824
0.45200467
0.45864451
0.46530579
0.47204717
0.47870665
0.48519692
0.49162054
0.49787517
0.50395949
0.50983477
0.51548123
0.52090449
0.52609306
0.53104304
0.53573003
0.54015198
0.54432866
0.54824322
0.55190857
0.55533188
0.55853665
0.56151322
0.56428331
0.5668361
0.56919898
0.57137309
0.57338467
0.57524719
0.57695949
0.57853722
0.57998026
0.58129085
0.58249134
0.5835791
0.58454973
0.58544479
0.58630056
0.58711039
0.58783982
0.58846563
0.58903173
0.58957651
0.59005941
0.5904765
0.5908526
0.5912467
0.5917649
0.59210188
0.59194247
0.58917447
0.57636792
0.55852979
0.54356576
0.52980687
0.51686689
0.50463072
0.49301801
0.48196153
0.47140537
0.46129547
0.45158016
0.44221012
0.43314027
0.42432879
0.41573634
0.40732588
0.39906192
0.39091096
0.3828414
0.37482215
0.36682238
0.35881083
0.35075363
0.3426157
0.33435714
0.32593074
0.31728473
0.30835782
0.29907143
0.28932629
0.27899609
0.26791585
0.25586695
0.24254948
0.22753194
0.21019796
0.18969972
0.16502027
0.13564477
0.10307409
0.070605554
0.040444257
0.012989022
0.401324
0.40712295
0.41305335
0.41913801
0.42538427
0.43179791
0.43830818
0.44497149
0.45169983
0.45837226
0.46507366
0.471837
0.47852508
0.48505412
0.49151865
0.49782339
0.50395702
0.50988915
0.51559287
0.52107531
0.52632432
0.53133732
0.53608679
0.54057422
0.54481597
0.54879432
0.55252102
0.55600647
0.55926793
0.5622964
0.56511664
0.56773201
0.57017512
0.57244201
0.574515
0.57643164
0.57819765
0.57982012
0.58131411
0.5826909
0.58397024
0.5851529
0.58622033
0.58719288
0.58807811
0.58884954
0.58953139
0.59019955
0.59085588
0.59145085
0.59198266
0.59244917
0.59288066
0.59327284
0.59353437
0.59392328
0.59407561
0.5923362
0.58146184
0.56348676
0.54833063
0.53447713
0.52144857
0.50912375
0.49742375
0.48628521
0.47565352
0.46547626
0.45570245
0.44628275
0.43717154
0.42832605
0.41970537
0.41127084
0.40298544
0.39481386
0.38672277
0.37867933
0.37065116
0.36260565
0.35450782
0.34632171
0.3380068
0.32951545
0.3207957
0.31178625
0.30240861
0.29256368
0.28212533
0.27092877
0.25875547
0.24530535
0.23014601
0.21265863
0.19198886
0.16710204
0.13744486
0.10448898
0.071581419
0.040999709
0.013165505
0.40101095
0.40680134
0.41272836
0.41880878
0.42505468
0.43146726
0.43798015
0.44464977
0.45138311
0.45808854
0.464829
0.47161459
0.47833095
0.48489908
0.49140521
0.49775944
0.50394476
0.50993545
0.51569782
0.52124169
0.52655288
0.53162833
0.53644149
0.54099479
0.54530044
0.54934209
0.55312873
0.55667883
0.56000735
0.56310207
0.56598826
0.56865297
0.57113079
0.57342836
0.57556608
0.57754902
0.57938087
0.58107872
0.58263451
0.58405953
0.58537745
0.58658843
0.58768835
0.58872046
0.58971555
0.59065181
0.59147409
0.59217386
0.59282932
0.59346708
0.594035
0.59453375
0.59498558
0.59545789
0.59603483
0.5964294
0.59650858
0.59519971
0.58617952
0.56835311
0.55296792
0.53903529
0.52593408
0.51353369
0.50175774
0.49054392
0.47983929
0.46959454
0.45976029
0.45028809
0.44113259
0.43225083
0.42360099
0.41514317
0.40683915
0.39865221
0.39054729
0.38248972
0.37444526
0.36637957
0.35825608
0.35003752
0.34168229
0.33314193
0.32436384
0.31528634
0.30583066
0.29589756
0.28536082
0.27405556
0.26176305
0.24818274
0.23288103
0.21523632
0.19438771
0.16928348
0.13933341
0.10597961
0.072616178
0.041592917
0.013355609
0.40069979
0.40648109
0.41240049
0.41847375
0.42471876
0.43113136
0.43764627
0.44432215
0.45105998
0.4578023
0.46458138
0.47138455
0.47812901
0.48473677
0.4912839
0.49768787
0.50392211
0.50997045
0.51579254
0.52139789
0.52676855
0.53190861
0.53678689
0.54140769
0.54577891
0.54988408
0.5537351
0.55734796
0.56073239
0.56388385
0.56683032
0.5695729
0.57213665
0.57451589
0.57670384
0.57873828
0.58062384
0.58237099
0.58399106
0.58549232
0.58689477
0.58818838
0.58935719
0.59042465
0.59140409
0.59228208
0.5930915
0.5938913
0.59465385
0.59534531
0.59597464
0.59652943
0.59703888
0.59749468
0.59782739
0.59830566
0.59864652
0.5980177
0.59084824
0.57351948
0.55783094
0.54380268
0.53062353
0.51814169
0.5062824
0.49498745
0.48420538
0.47388905
0.46399066
0.45446278
0.44526046
0.43634072
0.42766127
0.41918161
0.41086266
0.40266637
0.39455605
0.38649512
0.37844724
0.37037594
0.36224264
0.35400828
0.34562975
0.33705719
0.32823687
0.31910612
0.3095854
0.29957487
0.28894784
0.27753904
0.26512932
0.2514175
0.23596861
0.21815808
0.19711787
0.17177751
0.14150524
0.10770711
0.07382582
0.04229252
0.013582127
0.40614763
0.41206333
0.41813186
0.42437535
0.43078774
0.4373047
0.44398451
0.45072495
0.45750449
0.46432197
0.47114324
0.47791375
0.48456215
0.49115048
0.49760438
0.50389148
0.50999753
0.51587926
0.52155038
0.52698251
0.53218583
0.53712952
0.54181796
0.54625568
0.55042689
0.55434156
0.55802335
0.5614776
0.56469468
0.56769986
0.57048222
0.5730837
0.57551085
0.57777361
0.57987517
0.58182351
0.58363517
0.58529987
0.58683651
0.58826989
0.58960168
0.59082768
0.59198775
0.59310596
0.59414585
0.59504675
0.59582676
0.59658136
0.59731696
0.59797767
0.59856642
0.59910334
0.59966259
0.60030387
0.60074185
0.60100159
0.6005144
0.59495432
0.57849841
0.56247548
0.54836533
0.53512605
0.52257746
0.51064427
0.49927322
0.48841577
0.47802713
0.46806179
0.45847404
0.44922001
0.44025653
0.4315413
0.42303424
0.41469607
0.40648829
0.3983734
0.39031359
0.38227068
0.37420578
0.36607785
0.35784564
0.34946399
0.34088125
0.33204186
0.32288144
0.31331897
0.30325331
0.29255668
0.28106274
0.2685513
0.25471992
0.23913172
0.22115874
0.19992577
0.1743448
0.14374536
0.10949797
0.075089202
0.043029069
0.013822813
0.40581658
0.41172423
0.41778542
0.42402634
0.43043716
0.43695785
0.44364022
0.45038507
0.45720269
0.46405651
0.47089322
0.47769163
0.48438023
0.49100872
0.49751137
0.50384837
0.51001302
0.51595554
0.52169122
0.52718381
0.53245238
0.53746278
0.54221922
0.54672235
0.55095796
0.55493937
0.55868348
0.56219496
0.56547551
0.56855041
0.57141808
0.57409873
0.57658669
0.57889092
0.58104234
0.58304399
0.58491009
0.58664684
0.5882591
0.58976784
0.59115519
0.59241069
0.59356185
0.59463209
0.59561764
0.59654786
0.59745733
0.59830648
0.59908626
0.59980656
0.60044632
0.60103459
0.60155985
0.60197262
0.60252288
0.60302004
0.60298669
0.59886608
0.58360579
0.56721613
0.55300746
0.53969827
0.52707626
0.51506403
0.50361099
0.49267325
0.48220776
0.47217087
0.46251845
0.45320792
0.44419618
0.43544047
0.42690078
0.41853796
0.41031352
0.4021898
0.39412881
0.3860922
0.37804065
0.36993106
0.36171833
0.35335317
0.34478043
0.33594221
0.32677269
0.3171895
0.30708975
0.29634365
0.28478303
0.27218589
0.25824784
0.2425295
0.22439895
0.20297325
0.1771457
0.1462043
0.1114788
0.076498361
0.043857485
0.014096079
0.40547146
0.41137396
0.41743
0.42366934
0.43007916
0.4366038
0.44328612
0.45003433
0.45688987
0.46377982
0.47063065
0.47745437
0.48418576
0.49085542
0.49740794
0.50379731
0.51001909
0.51602305
0.52182692
0.52738205
0.53271556
0.53779289
0.54261874
0.54719084
0.55149581
0.5555445
0.55935858
0.56293944
0.56628257
0.56940934
0.57231501
0.57504426
0.57759916
0.5799797
0.58219271
0.58424917
0.58616313
0.58792806
0.58956586
0.59110268
0.5925396
0.59387049
0.59512974
0.59633512
0.59743958
0.59839389
0.59924319
0.6000808
0.60089317
0.60162939
0.60229278
0.60290477
0.60354435
0.60424839
0.60473026
0.60512527
0.60507954
0.60210943
0.58832227
0.57162148
0.55732506
0.54395988
0.5312711
0.51918482
0.50765458
0.49663883
0.48609637
0.47598548
0.46626414
0.4568907
0.44782332
0.43901996
0.43044032
0.42204559
0.41379736
0.40565795
0.39758906
0.38955186
0.38150651
0.37340998
0.36521748
0.35687869
0.34833574
0.3395266
0.33038067
0.32081134
0.31071289
0.29995342
0.28836222
0.27571409
0.26170107
0.2458797
0.22761268
0.2060086
0.17994358
0.14866952
0.11347921
0.077936549
0.044712515
0.014381691
0.4110226
0.417071
0.42330658
0.42971408
0.4362435
0.44292524
0.44967912
0.45657149
0.46349378
0.47036007
0.47721096
0.48398278
0.49069226
0.49729298
0.50373333
0.51001329
0.51607856
0.52194987
0.52756795
0.53296675
0.53811141
0.54300606
0.54764347
0.5520147
0.55613151
0.56000818
0.56365006
0.5670627
0.57026448
0.57325294
0.57604602
0.57864042
0.58106014
0.58332309
0.58543265
0.58740545
0.58924211
0.59094521
0.59253747
0.59399788
0.59532073
0.59653946
0.59768726
0.59876321
0.59978261
0.60075624
0.60165262
0.60248797
0.60326377
0.60395591
0.60459445
0.60516638
0.60564087
0.60624974
0.60685113
0.60712365
0.60508913
0.59291414
0.57597535
0.56156122
0.54812367
0.53535611
0.52318614
0.51157006
0.50046841
0.48984133
0.4796487
0.46985034
0.46040525
0.45127245
0.4424112
0.43378111
0.42534319
0.41705937
0.40889221
0.40080365
0.39275501
0.38470648
0.37661501
0.36843607
0.36011976
0.35160768
0.3428358
0.33373048
0.32420113
0.31413699
0.30340088
0.29181779
0.27915935
0.26511428
0.24923417
0.23087443
0.20913249
0.18286345
0.1512768
0.1156204
0.079491677
0.045645267
0.014696179
0.41065787
0.41670183
0.42293383
0.42934124
0.4358751
0.44255414
0.44931372
0.45624274
0.46319573
0.4700739
0.47695165
0.48376792
0.49051771
0.49716743
0.5036599
0.50999768
0.51612599
0.52206541
0.52774803
0.53321472
0.5384268
0.54339268
0.54810142
0.55254457
0.55673129
0.56067739
0.56438654
0.56785839
0.57110939
0.57414289
0.57699884
0.5796742
0.58216294
0.58447797
0.58663247
0.58863747
0.59049243
0.59221818
0.59384201
0.59536234
0.59676894
0.5980918
0.59934399
0.60047472
0.60145756
0.60235536
0.60324308
0.60409327
0.60486602
0.60556285
0.60620953
0.60688738
0.60761512
0.6081195
0.60855423
0.60875262
0.6073804
0.59687929
0.57986516
0.56532675
0.55182155
0.53897918
0.52672817
0.51502729
0.50383915
0.4931252
0.48284736
0.47296621
0.4634419
0.45423517
0.44530679
0.43661667
0.42812513
0.41979398
0.4115862
0.40346419
0.39538969
0.3873232
0.3792218
0.37104081
0.36273036
0.3542331
0.34548696
0.33641954
0.32693969
0.31693406
0.30626053
0.29473703
0.28212691
0.26811065
0.25223243
0.23384008
0.21201963
0.1856051
0.15376646
0.11770767
0.081044414
0.046599045
0.015026084
0.41029269
0.41632994
0.42255605
0.42896121
0.43550036
0.44217674
0.44894334
0.45590598
0.46288639
0.46978052
0.47668475
0.48354188
0.49033196
0.49702975
0.50357379
0.50996875
0.51615844
0.52216704
0.52791672
0.53344841
0.53872728
0.54376218
0.54853786
0.5530503
0.55730525
0.56131609
0.56509149
0.56863585
0.57196156
0.57506685
0.57796921
0.58066991
0.58320229
0.58556877
0.58777593
0.58984167
0.59176009
0.59353516
0.59519116
0.59670856
0.5980838
0.59935745
0.6005688
0.60171231
0.60278303
0.60377593
0.60468347
0.605539
0.60632878
0.60703122
0.60767628
0.60824912
0.60873343
0.60935072
0.60995964
0.610357
0.60946818
0.60053291
0.5835688
0.56883563
0.55521935
0.54226531
0.52990096
0.51808642
0.50678454
0.49595881
0.48557215
0.47558499
0.46595824
0.45665388
0.44763333
0.43885779
0.43028745
0.42188253
0.41360566
0.40541977
0.39728709
0.38916873
0.38102241
0.37280406
0.36446434
0.35594611
0.34718725
0.33811571
0.32864152
0.31865317
0.30801097
0.29653429
0.283985
0.27003829
0.25422879
0.23589083
0.21409382
0.18764888
0.15568783
0.11937086
0.082319031
0.047403682
0.015312405
0.40991232
0.41594515
0.42216738
0.42857138
0.435116
0.44178919
0.4485638
0.45555821
0.46256302
0.46946911
0.4764024