/*--------------------------------*- C++ -*----------------------------------*\
| =========                 |                                                 |
| \\      /  F ield         | OpenFOAM: The Open Source CFD Toolbox           |
|  \\    /   O peration     | Version:  2506                                  |
|   \\  /    A nd           | Website:  www.openfoam.com                      |
|    \\/     M anipulation  |                                                 |
\*---------------------------------------------------------------------------*/
FoamFile
{
    version     2.0;
    format      ascii;
    arch        "LSB;label=32;scalar=64";
    class       volScalarField;
    location    "0.4";
    object      omega;
}
// * * * * * * * * * * * * * * * * * * * * * * * * * * * * * * * * * * * * * //

dimensions      [0 0 -1 0 0 0 0];

internalField   nonuniform List<scalar> 
1376
(
2447.5865
1370.9543
527.45304
255.46301
166.28176
124.58932
97.554898
78.503768
66.062063
57.345247
51.434775
47.110826
44.415934
42.694109
41.2748
39.773907
38.50665
37.592569
36.988811
36.57867
36.267906
36.034258
35.866643
35.748052
35.660016
35.592468
35.540909
2440.0881
1120.2052
414.91383
218.59551
154.21852
117.39142
93.175219
75.397909
63.828015
55.820748
50.534243
46.461319
43.877798
42.079209
40.626531
39.298276
38.308185
37.552836
36.984311
36.599389
36.316343
36.09432
35.931549
35.819919
35.736513
35.672184
35.622372
35.578908
35.546777
2449.4374
1024.1442
374.06075
208.87969
149.95401
114.90142
91.745567
74.215832
62.837117
55.058252
50.156552
46.225533
43.639779
41.747252
40.295257
39.068473
38.216661
37.553021
37.042917
36.646174
36.371679
36.160696
35.999523
35.89023
35.810499
35.748804
35.700591
35.658201
35.627211
35.600303
2435.7885
1041.0512
375.72489
208.32345
149.50514
114.05783
90.973745
73.431428
62.025601
54.356343
49.702222
45.901257
43.380938
41.513583
40.109018
38.940333
38.122211
37.552827
37.084721
36.690729
36.418347
36.218449
36.064988
35.957876
35.881314
35.822266
35.775559
35.734625
35.704636
35.678672
35.657532
2422.6359
982.67757
351.351
203.78405
146.86091
111.70949
88.588545
71.890135
61.169089
53.855646
49.392319
45.610891
43.168701
41.3364
40.02869
38.914542
38.083529
37.534457
37.106653
36.740297
36.468382
36.272492
36.13083
36.026515
35.950352
35.893335
35.847953
35.808977
35.779937
35.755334
35.735158
35.720783
35.71222
2405.9356
1008.3546
354.55116
204.8198
147.39421
110.79155
86.709093
70.679435
60.444651
53.511251
49.128808
45.285407
42.967614
41.191634
39.946599
38.903575
38.074472
37.521841
37.115218
36.788833
36.525824
36.326257
36.194258
36.094708
36.018522
35.962814
35.918691
35.882065
35.853869
35.830693
35.811554
35.798117
35.790311
35.789699
2379.3461
951.07284
338.72216
202.02648
145.20944
108.0017
84.51382
69.169785
59.694279
53.200531
48.943674
45.083757
42.806775
41.0359
39.842848
38.881514
38.09226
37.548818
37.135076
36.824639
36.575809
36.380176
36.256429
36.161628
36.08635
36.031366
35.988406
35.954136
35.927045
35.904967
35.887014
35.874896
35.867795
35.868621
35.878997
2367.0066
961.85515
338.38214
201.7871
143.91524
106.22321
83.378969
68.375175
59.202266
52.895755
48.585373
44.805929
42.609065
40.908259
39.76345
38.808712
38.101489
37.582485
37.169843
36.855356
36.615335
36.434936
36.319046
36.225579
36.152873
36.098688
36.05746
36.025213
35.999746
35.978326
35.961772
35.951226
35.944981
35.947439
35.959426
35.982413
2350.8535
881.06992
320.5749
194.23019
137.68587
103.54259
82.129029
67.671068
58.724859
52.587372
48.202546
44.521261
42.356351
40.778068
39.736551
38.759019
38.068729
37.592337
37.2135
36.90012
36.654764
36.487031
36.380427
36.286532
36.216866
36.164661
36.125801
36.094937
36.071717
36.050603
36.035722
36.026837
36.021862
36.026082
36.039907
36.06478
2359.7944
892.0241
317.16219
188.58454
133.70354
101.67172
81.209946
67.123291
58.108758
52.307587
47.79604
44.189824
42.165645
40.670463
39.727763
38.766533
38.055511
37.58721
37.24203
36.948225
36.701584
36.53775
36.438317
36.346139
36.279229
36.229752
36.193211
36.16337
36.142841
36.122024
36.109076
36.101845
36.098696
36.104723
36.120637
36.147563
36.189341
2336.0385
784.03099
299.02841
181.61431
129.15528
99.218566
79.890824
66.24955
57.299853
51.978843
47.552084
43.977143
42.100076
40.613845
39.633635
38.780137
38.059378
37.581868
37.25823
36.983001
36.750926
36.592805
36.493758
36.404891
36.341244
36.294858
36.25981
36.231162
36.213407
36.193329
36.182301
36.176751
36.175888
36.183804
36.202033
36.231225
36.275489
36.338096
2334.6774
779.02016
292.69781
178.37887
125.50295
97.127721
78.345482
65.519795
56.584387
51.549658
47.352365
43.852489
42.073973
40.584244
39.519245
38.728348
38.069901
37.597089
37.278031
37.009998
36.790899
36.646436
36.550727
36.463569
36.403961
36.360251
36.325911
36.298812
36.283345
36.264823
36.255482
36.251749
36.253392
36.263431
36.284133
36.315869
36.362884
36.428557
36.517584
2289.7798
731.38712
280.91726
175.0309
121.60837
94.928481
76.561887
64.848695
56.023297
51.11363
47.119011
43.797075
41.943896
40.54133
39.490246
38.679866
38.046937
37.60611
37.286252
37.034205
36.830014
36.691992
36.607164
36.522817
36.467791
36.424747
36.391477
36.366322
36.352404
36.336291
36.328438
36.326712
36.330899
36.343378
36.366692
36.401324
36.451414
36.520421
36.61319
36.734543
2246.8112
728.94277
276.56224
173.66252
120.37201
93.820321
75.518856
64.45794
55.504213
50.772016
46.67064
43.741279
41.698724
40.344984
39.440523
38.681869
38.033701
37.624555
37.287657
37.046371
36.873718
36.738742
36.659549
36.580327
36.532214
36.487819
36.456815
36.433685
36.420996
36.407703
36.401365
36.401821
36.408554
36.423782
36.44985
36.487747
36.541249
36.613888
36.710664
36.836624
37.000999
2214.6317
699.78508
270.16124
173.73586
120.08508
93.498325
74.57582
64.191195
54.684279
50.45149
46.132551
43.591724
41.556927
40.26308
39.286661
38.677579
38.037235
37.648345
37.323778
37.061501
36.908078
36.790519
36.712464
36.635086
36.595252
36.550081
36.522386
36.500871
36.48977
36.479267
36.474782
36.477492
36.486912
36.505098
36.534111
36.575572
36.632808
36.709394
36.810471
36.941384
37.111411
37.331476
2185.1181
704.86584
267.85567
175.99133
119.9322
93.577526
73.385351
64.193359
53.986738
50.259646
45.722332
43.442434
41.396386
40.256991
39.193395
38.629439
38.032473
37.648297
37.362643
37.119961
36.940404
36.836914
36.76557
36.689793
36.65519
36.611556
36.587839
36.56785
36.558722
36.550789
36.54876
36.553798
36.566098
36.587386
36.619634
36.664824
36.72611
36.806987
36.912686
37.048941
37.225026
37.451987
37.745769
2135.1521
655.06969
264.34289
179.21066
120.832
93.370156
72.081529
63.968692
53.470042
50.229555
45.505185
43.396538
41.225151
40.146967
39.136119
38.603905
38.043933
37.63937
37.377884
37.166755
36.994854
36.879673
36.81445
36.744931
36.713474
36.672816
36.652281
36.63502
36.627688
36.622149
36.623111
36.630847
36.646087
36.670641
36.706433
36.755528
36.821135
36.906656
37.017374
37.159377
37.341944
37.576267
37.878764
38.27012
2106.4653
669.95387
267.60956
183.66931
123.51205
93.770755
71.423166
63.338253
53.05286
50.289128
45.329287
43.421478
41.163173
40.027713
39.092986
38.551142
38.060201
37.668392
37.397676
37.187664
37.046951
36.929912
36.862623
36.799135
36.771438
36.735519
36.715678
36.702768
36.696875
36.693785
36.697937
36.708832
36.7272
36.755129
36.794723
36.848018
36.918168
37.008701
37.124832
37.27298
37.462462
37.704664
38.016434
38.418745
38.949717
2068.9668
650.44835
264.36025
184.74422
124.51815
94.181705
71.37133
63.199124
52.907739
50.29955
45.064853
43.389409
41.151277
40.005808
39.086788
38.522595
38.030762
37.685532
37.432645
37.212286
37.08413
36.980643
36.915156
36.854688
36.82788
36.799538
36.779512
36.770988
36.766556
36.766282
36.773588
36.787824
36.809719
36.841207
36.884786
36.942594
37.017584
37.113489
37.235447
37.390181
37.58697
37.837616
38.159233
38.573189
39.117695
39.845485
2031.1292
654.51657
265.15678
185.22316
124.48648
94.473051
71.400207
63.31563
52.955083
50.161383
44.904795
43.107512
41.025078
39.985868
39.129094
38.52177
38.030163
37.672744
37.447291
37.260087
37.120645
37.029
36.968576
36.912895
36.883897
36.86228
36.844338
36.839121
36.836745
36.839661
36.850196
36.867756
36.893482
36.928976
36.976707
37.039312
37.119513
37.221166
37.349397
37.511125
37.715711
37.975389
38.307438
38.733746
39.29273
40.038277
41.085826
1988.2544
652.59932
257.23499
185.54981
122.22302
94.428832
70.32955
62.966018
52.444287
49.885662
44.869203
42.912565
40.827144
39.79917
39.134219
38.528011
38.059344
37.690738
37.449697
37.307823
37.164569
37.078389
37.019743
36.968735
36.941994
36.922949
36.909224
36.906669
36.907369
36.913566
36.927539
36.948648
36.978362
37.018268
37.070583
37.13821
37.22398
37.331784
37.466762
37.635974
37.848884
38.118181
38.461283
38.900695
39.47514
40.239823
41.311586
42.923185
45.828957
1941.5388
630.95853
250.08527
185.68336
119.56693
94.449926
69.338574
62.560021
51.804898
49.187035
44.795033
42.895833
40.740967
39.725332
39.050812
38.515343
38.061945
37.732209
37.465775
37.340688
37.208373
37.126419
37.068176
37.020979
36.999496
36.983363
36.97397
36.973835
36.97852
36.987995
37.005509
37.030662
37.064618
37.109203
37.16657
37.239508
37.331216
37.445622
37.587843
37.76509
37.986914
38.266333
38.621207
39.074505
39.665433
40.450703
41.548485
43.195456
46.141846
1902.8582
609.93992
243.9715
185.64682
117.8855
95.096181
69.20252
61.647813
51.462515
48.925352
44.589948
42.980217
40.746935
39.757536
38.959197
38.465038
38.02108
37.740105
37.494187
37.368457
37.249009
37.173685
37.116784
37.074118
37.05577
37.043547
37.038862
37.041096
37.050354
37.06344
37.084612
37.114038
37.152619
37.202145
37.264854
37.343537
37.441545
37.562985
37.712999
37.89886
38.130237
38.420377
38.787724
39.255728
39.864231
40.671479
41.797213
43.483011
46.47284
1870.0193
606.76793
242.03748
184.45227
115.73085
95.697547
69.346496
60.934544
50.989951
48.82402
44.308069
42.805823
40.698055
39.762216
38.936982
38.449959
38.01965
37.756178
37.535086
37.399116
37.279075
37.217343
37.167026
37.129471
37.114288
37.104065
37.103789
37.109858
37.123232
37.140319
37.165246
37.199076
37.242545
37.297187
37.365589
37.450445
37.555161
37.684065
37.842445
38.037492
38.279147
38.580761
38.961207
39.444894
40.072074
40.902725
42.058362
43.785983
46.82392
1839.9997
618.93965
238.56148
180.57079
110.27171
95.730464
69.364328
60.884455
50.747859
47.832318
43.930811
42.192957
40.601321
39.716565
38.982395
38.451799
38.047547
37.760772
37.560774
37.423581
37.320355
37.254051
37.216227
37.189001
37.175699
37.167556
37.170225
37.180625
37.19674
37.218482
37.247381
37.285867
37.334513
37.394545
37.468954
37.560405
37.672281
37.809132
37.976407
38.181259
38.433943
38.74794
39.142264
39.642564
40.289614
41.145214
42.332683
44.104822
47.196339
1798.7647
587.17806
230.13771
179.13178
104.9575
92.045223
68.742539
60.615137
50.819478
47.076864
43.786772
41.883023
40.46504
39.506277
38.882979
38.366035
38.002996
37.74036
37.582294
37.465703
37.36394
37.304039
37.269705
37.247363
37.236088
37.233397
37.237835
37.252512
37.271799
37.29772
37.331211
37.374457
37.428523
37.49411
37.575071
37.67356
37.793079
37.93835
38.115112
38.330582
38.595021
38.922241
39.3314
39.849383
40.517684
41.399868
42.621346
44.441311
47.591241
1764.2913
596.78629
226.68338
182.27498
103.60477
88.766417
65.045267
58.966119
50.930189
47.266653
43.850421
41.827524
40.326405
39.368419
38.778008
38.350476
38.000482
37.775039
37.617399
37.506118
37.403998
37.355158
37.32146
37.295287
37.295133
37.297912
37.305295
37.3265
37.348182
37.378276
37.416706
37.464769
37.524567
37.596445
37.68411
37.790068
37.917757
38.071946
38.25888
38.485731
38.762774
39.104082
39.529158
40.066045
40.757105
41.667715
42.925531
44.796571
48.008563
1724.7616
586.5245
228.79825
192.65456
106.72899
88.446781
62.970246
57.116646
49.385104
47.239305
43.756847
41.862836
40.310568
39.381209
38.797598
38.375011
38.023285
37.796218
37.626613
37.507577
37.434766
37.389646
37.365397
37.3522
37.355506
37.359015
37.373896
37.400074
37.425004
37.459683
37.503596
37.557237
37.623073
37.701611
37.796383
37.910129
38.046563
38.210392
38.408063
38.647016
38.937598
39.293952
39.736226
40.293333
41.00876
41.949841
43.246747
45.170831
48.452939
1690.4888
611.23277
232.98297
200.74684
113.33585
91.308329
63.487175
56.229901
48.33688
45.471358
42.831918
41.733194
40.304681
39.337948
38.715472
38.283874
37.985356
37.782413
37.649981
37.544896
37.475929
37.435083
37.417227
37.41037
37.41448
37.422172
37.443718
37.471816
37.502893
37.542882
37.592531
37.6524
37.724275
37.809672
37.912073
38.03402
38.179798
38.353974
38.563069
38.814908
39.119924
39.492434
39.953165
40.532024
41.273479
42.247276
43.586575
45.568624
48.924403
1656.5598
623.28842
234.64674
202.29052
116.46751
94.003823
65.478589
56.560934
48.275501
45.187718
42.726957
41.223602
39.955226
39.113843
38.612791
38.256438
37.988485
37.805964
37.680627
37.589316
37.525577
37.490291
37.474855
37.466806
37.474629
37.489626
37.51317
37.544837
37.583021
37.628999
37.684172
37.750165
37.828372
37.921111
1622.1736
606.45482
229.07412
193.22437
115.11974
92.191659
66.1699
58.490183
48.648062
45.309174
42.589251
41.1699
39.834518
39.047291
38.603564
38.25252
38.006196
37.829922
37.699768
37.606135
37.556596
1588.3647
583.92325
214.5535
168.16906
101.32961
81.841113
65.654185
58.332199
48.793376
45.44723
42.458975
1553.729
546.44017
1639.4849
1865.3291
2138.805
2143.0354
1873.8988
1649.1007
1460.1806
1313.0386
1189.1546
1274.2142
1212.5901
1164.851
1078.5106
1004.349
955.68671
494.3974
487.63557
489.61329
475.90041
465.73785
467.02812
241.98654
237.21285
237.10488
232.10438
230.64285
232.15426
161.36451
157.57981
155.22302
150.43919
148.90689
149.35324
121.5576
118.68133
116.35107
112.76335
111.65064
111.78843
95.454947
93.516752
91.767416
89.329455
88.883471
89.010835
77.317509
76.108526
74.975536
73.520346
73.40765
73.544068
65.395953
64.560137
63.745533
62.887417
62.832232
56.918577
56.39021
55.965192
55.582539
55.576509
51.143211
50.927112
50.790478
50.629507
50.611631
47.099076
47.122684
47.107633
47.040159
47.019623
44.588787
44.749138
44.761353
44.758928
44.757989
43.090446
43.457502
43.680224
43.781033
43.793272
41.708786
42.127115
42.424085
42.530899
40.011654
40.21772
40.35823
40.389947
38.485732
38.462499
38.453451
38.440598
37.518088
37.450122
37.395134
37.339503
36.924055
36.851027
36.776051
36.504247
36.419686
36.331476
36.187118
36.105901
36.021131
35.95752
35.883231
35.789886
35.718506
35.668287
35.593693
35.578851
35.510647
)
;

boundaryField
{
    Side
    {
        type            empty;
    }
    Inlet
    {
        type            fixedValue;
        value           uniform 60.24606;
    }
    Airfoil
    {
        type            omegaWallFunction;
        blending        binomial;
        n               2;
        value           nonuniform List<scalar> 
33
(
2447.5865
2440.0881
2449.4374
2435.7885
2422.6359
2405.9356
2379.3461
2367.0066
2350.8535
2359.7944
2336.0385
2334.6774
2289.7798
2246.8112
2214.6317
2185.1181
2135.1521
2106.4653
2068.9668
2031.1292
1988.2544
1941.5388
1902.8582
1870.0193
1839.9997
1798.7647
1764.2913
1724.7616
1690.4888
1656.5598
1622.1736
1588.3647
1553.729
)
;
    }
    Outlet
    {
        type            inletOutlet;
        inletValue      nonuniform List<scalar> 0();
        value           nonuniform List<scalar> 0();
    }
    procBoundary8to1
    {
        type            processor;
        value           nonuniform List<scalar> 8(2441.6193 1196.437 1318.8149 1465.3093 1465.3093 1116.7271 1206.8534 1285.8267);
    }
    procBoundary8to7
    {
        type            processor;
        value           nonuniform List<scalar> 
53
(
38.031482
38.162201
38.317836
38.502937
38.724245
38.989789
39.310192
39.700073
40.180651
40.782774
41.552137
42.561006
43.946223
45.991536
49.427128
37.532851
37.522827
37.526253
37.53891
37.558585
37.58636
37.623375
37.665607
37.71718
37.778115
37.850533
37.935904
38.031482
38.036348
40.796907
39.752119
39.051408
38.577004
38.237725
37.987497
37.826611
37.722317
37.642885
37.532851
37.600711
211.70899
149.11099
87.87869
75.660315
63.673718
52.91877
47.753132
44.09775
40.796907
42.118629
1521.3665
211.70899
552.21921
)
;
    }
    procBoundary8to9
    {
        type            processor;
        value           nonuniform List<scalar> 
75
(
35.496568
35.459112
35.496568
35.462967
35.519474
35.519474
35.578323
35.578323
35.642615
35.642615
35.633159
35.710383
35.710383
35.798653
35.798653
35.900251
35.900251
36.01985
36.104291
36.104291
36.249135
36.249135
36.423643
36.423643
36.634699
36.634699
36.893687
36.893687
37.214631
37.214631
37.617085
37.617085
38.126875
38.126875
38.788467
38.788467
39.660978
39.660978
40.870575
40.870575
42.664981
42.664981
45.533696
1081.4987
909.63425
465.60454
233.25673
149.95774
112.12441
89.279975
73.757192
62.915516
62.915516
55.610703
50.620831
47.028204
44.766214
43.772345
42.536175
42.536175
40.392248
38.417474
37.268891
36.698738
36.698738
36.252747
35.940685
35.802534
35.802534
35.639163
35.515066
35.502197
35.502197
35.432802
35.459112
)
;
    }
}


// ************************************************************************* //
