/*--------------------------------*- C++ -*----------------------------------*\
| =========                 |                                                 |
| \\      /  F ield         | OpenFOAM: The Open Source CFD Toolbox           |
|  \\    /   O peration     | Version:  2506                                  |
|   \\  /    A nd           | Website:  www.openfoam.com                      |
|    \\/     M anipulation  |                                                 |
\*---------------------------------------------------------------------------*/
FoamFile
{
    version     2.0;
    format      ascii;
    arch        "LSB;label=32;scalar=64";
    class       volScalarField;
    location    "0.0055";
    object      k;
}
// * * * * * * * * * * * * * * * * * * * * * * * * * * * * * * * * * * * * * //

dimensions      [0 2 -2 0 0 0 0];

internalField   nonuniform List<scalar> 
13763
(
0.063359245
0.063395667
0.063368879
0.063296837
0.063350449
0.063428717
0.063363342
0.063369887
0.063461513
0.063422826
0.063401607
0.063435454
0.063422304
0.063449784
0.063492817
0.063516203
0.063533036
0.063540823
0.06355368
0.063586044
0.063633257
0.063684094
0.06372395
0.063742198
0.063746558
0.063746834
0.063745937
0.063744197
0.06374255
0.063741085
0.063739268
0.063735845
0.063731856
0.063729651
0.063729992
0.0637338
0.063740074
0.063743984
0.063745323
0.063745986
0.06374663
0.063747682
0.063748578
0.063749191
0.06374986
0.063750994
0.063752549
0.063753358
0.063362056
0.063398127
0.063371099
0.06329896
0.063352651
0.063431982
0.063365445
0.063374073
0.063463938
0.063426123
0.063405514
0.063437968
0.063426247
0.063452167
0.063495176
0.063518493
0.063535074
0.063542734
0.063555575
0.063587768
0.063634851
0.063685568
0.063725334
0.063743503
0.063747778
0.06374798
0.063746981
0.063745165
0.063743442
0.063741903
0.063739231
0.063735798
0.063731798
0.063729581
0.063729913
0.063733703
0.063739961
0.063743858
0.063745177
0.063745822
0.063746444
0.063747463
0.063748286
0.063748755
0.063749125
0.063749621
0.063750513
0.063751824
0.063753141
0.063752993
0.063362536
0.063399184
0.063371949
0.063299684
0.063353425
0.063432765
0.063366059
0.063375123
0.063464906
0.063425466
0.063406549
0.063438887
0.063426328
0.063452054
0.063495064
0.063518534
0.063535403
0.063543089
0.0635558
0.063587935
0.063634966
0.063685633
0.063725346
0.063743492
0.063747749
0.063747933
0.063746916
0.063745078
0.063743332
0.063741773
0.063739067
0.063735619
0.063731601
0.063729361
0.063729678
0.063733438
0.063739677
0.06374356
0.063744854
0.063745474
0.063746074
0.063747074
0.063747874
0.063748303
0.063748585
0.06374887
0.06374927
0.063749821
0.063751499
0.063751306
0.063752937
0.063363157
0.063400038
0.063372649
0.063300144
0.063354107
0.063433139
0.063366423
0.063375884
0.063465652
0.06342522
0.063406982
0.063439087
0.063426262
0.063451907
0.063494933
0.063518496
0.063535393
0.063543086
0.063555772
0.063587888
0.063634908
0.063685559
0.063725249
0.06374336
0.063747577
0.063747725
0.063746679
0.063744808
0.063743031
0.063741449
0.063738829
0.063735358
0.063731317
0.06372905
0.063729348
0.06373308
0.063739305
0.063743171
0.063744444
0.063745042
0.063745621
0.063746603
0.063747395
0.063747818
0.063748084
0.063748319
0.063748576
0.06374874
0.063749549
0.063749382
0.063751138
0.063752863
0.063752721
0.063363988
0.063400849
0.063373303
0.063300339
0.063354816
0.063433184
0.063366499
0.06337615
0.063465926
0.063425119
0.063406988
0.063439028
0.06342589
0.063451629
0.063494655
0.063518309
0.063535272
0.06354297
0.063555607
0.063587677
0.063634678
0.063685303
0.063724958
0.063743037
0.063747227
0.063747354
0.063746297
0.063744414
0.063742624
0.063741036
0.063738545
0.063735054
0.063730994
0.063728703
0.063728988
0.063732696
0.063738912
0.063742758
0.063744013
0.063744594
0.063745153
0.063746116
0.063746891
0.063747302
0.063747559
0.063747781
0.063748002
0.063748067
0.063748505
0.063748353
0.063749255
0.063750992
0.063750808
0.063752515
0.063752324
0.06336483
0.063401556
0.063373825
0.063300346
0.063355385
0.063433143
0.063366473
0.063376137
0.0634659
0.063424946
0.063406902
0.063438801
0.063424997
0.063451114
0.06349414
0.063517909
0.063534968
0.063542666
0.063555253
0.063587287
0.063634299
0.063684926
0.063724581
0.063742657
0.063746848
0.063746973
0.063745922
0.063744038
0.063742244
0.063740656
0.063738242
0.063734733
0.063730661
0.063728349
0.06372862
0.063732304
0.063738511
0.063742336
0.063743573
0.063744137
0.063744677
0.063745619
0.063746372
0.063746761
0.063746998
0.063747202
0.063747406
0.063747449
0.063747801
0.063747634
0.063748224
0.06374915
0.063748982
0.063750557
0.063750348
0.063752112
0.06375193
0.063365565
0.063402151
0.063374153
0.063300312
0.063355696
0.06343302
0.063366384
0.063376026
0.063465749
0.063424836
0.063406672
0.06343838
0.063423597
0.063450363
0.063493408
0.063517333
0.063534514
0.063542233
0.063554813
0.06358686
0.063633926
0.063684581
0.06372425
0.06374233
0.063746521
0.063746642
0.063745595
0.063743705
0.063741901
0.063740308
0.063737929
0.063734404
0.063730317
0.06372798
0.063728235
0.063731894
0.063738089
0.063741897
0.063743115
0.063743661
0.063744181
0.063745102
0.063745833
0.063746197
0.063746407
0.063746585
0.063746766
0.063746797
0.063747123
0.063746929
0.063747443
0.063748101
0.063747929
0.063748767
0.063748579
0.06375009
0.063749893
0.063751707
0.063751524
0.063751342
0.063366109
0.063402646
0.063374339
0.063300194
0.063355783
0.063432821
0.063366206
0.063375696
0.063465414
0.063424774
0.063406231
0.063437766
0.063421979
0.063449456
0.063492567
0.063516709
0.063534051
0.063541833
0.063554436
0.063586514
0.063633626
0.063684299
0.063723968
0.063742039
0.063746224
0.063746337
0.063745288
0.063743389
0.06374157
0.063739968
0.063737603
0.063734061
0.06372995
0.063727586
0.06372782
0.063731452
0.063737635
0.06374143
0.06374263
0.063743156
0.063743657
0.063744556
0.063745263
0.063745602
0.063745786
0.063745936
0.063746089
0.063746101
0.063746401
0.063746176
0.063746652
0.063747247
0.063747047
0.063747672
0.063747473
0.06374833
0.063748144
0.063749631
0.063749437
0.063749246
0.063751147
0.063750833
0.06336652
0.063403089
0.06337449
0.063299978
0.063355839
0.063432503
0.063365915
0.063375072
0.063464912
0.063424692
0.063405559
0.063436995
0.06342054
0.063448515
0.06349176
0.063516163
0.063533683
0.06354154
0.063554151
0.063586225
0.063633354
0.063684032
0.063723693
0.063741756
0.063745935
0.063746039
0.063744991
0.063743076
0.063741237
0.06373962
0.063737257
0.063733692
0.06372955
0.063727159
0.063727368
0.063730975
0.063737144
0.063740927
0.063742107
0.063742613
0.063743092
0.063743968
0.063744651
0.063744966
0.063745124
0.063745245
0.063745371
0.06374536
0.063745629
0.06374537
0.063745804
0.063746362
0.063746123
0.063746698
0.063746466
0.063747156
0.063746947
0.063747867
0.063747673
0.06374748
0.063749014
0.063748702
0.063366952
0.063403572
0.06337472
0.063299911
0.063356001
0.063432273
0.06336575
0.063374367
0.063464422
0.063424573
0.063404828
0.063436166
0.063419448
0.063447668
0.063491065
0.0635157
0.063533374
0.063541289
0.063553888
0.063585936
0.063633073
0.063683763
0.063723421
0.06374148
0.063745656
0.063745746
0.063744694
0.063742755
0.063740887
0.063739251
0.063736883
0.063733289
0.06372911
0.063726695
0.063726879
0.06373046
0.063736613
0.063740382
0.063741539
0.063742021
0.063742476
0.063743327
0.063743985
0.063744272
0.063744402
0.063744494
0.06374459
0.063744557
0.063744797
0.063744495
0.063744884
0.063745404
0.063745118
0.06374566
0.063745384
0.063746036
0.063745781
0.063746576
0.063746347
0.063746113
0.063747194
0.063746885
0.063367566
0.063404191
0.063375118
0.063299973
0.063356332
0.063432293
0.063365753
0.063374011
0.06346418
0.063424416
0.063404225
0.063435417
0.06341858
0.063446897
0.06349042
0.063515225
0.06353304
0.063541016
0.063553613
0.063585641
0.063632797
0.063683507
0.06372316
0.063741211
0.063745376
0.063745445
0.06374438
0.063742411
0.06374051
0.063738851
0.063736473
0.063732846
0.063728632
0.063726194
0.063726358
0.063729911
0.063736047
0.063739795
0.063740926
0.06374138
0.063741808
0.06374263
0.063743258
0.063743515
0.063743612
0.063743671
0.063743732
0.063743681
0.063743891
0.063743547
0.063743886
0.063744362
0.063744029
0.06374453
0.063744208
0.063744823
0.063744518
0.063745277
0.063744998
0.06374471
0.063745689
0.063745355
0.063368435
0.063404989
0.063375715
0.063300167
0.063356864
0.0634325
0.063365855
0.063374004
0.063464055
0.063424173
0.063403705
0.063434826
0.063417815
0.063446138
0.063489755
0.06351469
0.063532656
0.063540719
0.063553341
0.063585365
0.06363254
0.063683264
0.0637229
0.063740932
0.063745079
0.06374512
0.063744037
0.063742037
0.063740099
0.063738417
0.063736025
0.063732365
0.06372812
0.063725663
0.063725817
0.063729348
0.063735465
0.063739188
0.06374029
0.063740717
0.063741115
0.063741906
0.063742502
0.063742726
0.06374279
0.063742812
0.063742835
0.063742774
0.063742941
0.06374259
0.063742862
0.06374327
0.063742921
0.06374335
0.063743013
0.063743547
0.063743217
0.063743898
0.063743583
0.063743267
0.063744138
0.063743785
0.063369501
0.063405917
0.063376437
0.063300341
0.063357554
0.063432888
0.063365987
0.06337411
0.06346392
0.063423761
0.063403094
0.063434387
0.063417107
0.063445346
0.063489039
0.063514114
0.063532255
0.063540432
0.063553095
0.063585111
0.063632292
0.063683017
0.063722624
0.063740629
0.063744756
0.063744764
0.063743661
0.063741631
0.063739659
0.063737953
0.063735546
0.063731858
0.063727592
0.063725118
0.063725291
0.063728812
0.063734915
0.063738615
0.063739695
0.063740098
0.063740472
0.063741238
0.063741809
0.063742006
0.063742042
0.063742037
0.06374203
0.063741963
0.063742069
0.063741774
0.063741962
0.063742263
0.063741961
0.063742273
0.06374198
0.063742368
0.063742074
0.063742586
0.06374229
0.063742012
0.063742654
0.063742321
0.063370579
0.063406865
0.063377177
0.063300398
0.063358278
0.063433045
0.063365978
0.063374278
0.063463715
0.063423153
0.063402267
0.063434043
0.063416456
0.063444545
0.063488322
0.063513552
0.063531873
0.063540168
0.063552864
0.063584859
0.063632032
0.063682749
0.06372232
0.063740297
0.063744403
0.063744379
0.063743252
0.063741198
0.063739198
0.063737476
0.063735058
0.063731355
0.063727081
0.063724601
0.063724832
0.063728367
0.063734464
0.063738151
0.063739219
0.063739611
0.063739972
0.063740726
0.063741283
0.063741467
0.063741491
0.063741471
0.063741449
0.063741377
0.063741421
0.063741213
0.063741327
0.063741513
0.063741298
0.063741481
0.063741271
0.063741494
0.063741278
0.063741578
0.063741351
0.063741161
0.063741528
0.063741263
0.063371564
0.063407744
0.063377865
0.063300427
0.063358885
0.063432999
0.063365803
0.063374393
0.063463541
0.063422536
0.063401325
0.063433762
0.06341585
0.063443768
0.063487637
0.063513008
0.063531499
0.063539911
0.063552628
0.063584588
0.063631747
0.063682453
0.063721989
0.063739935
0.063744021
0.063743963
0.063742814
0.06374075
0.063738743
0.063737021
0.063734604
0.063730906
0.063726642
0.063724168
0.063724486
0.063728049
0.063734144
0.063737829
0.063738895
0.063739283
0.063739642
0.063740391
0.063740945
0.063741126
0.063741146
0.063741123
0.063741095
0.063741015
0.063741018
0.063740873
0.063740941
0.063741051
0.063740902
0.063740999
0.06374085
0.063740961
0.063740806
0.063740959
0.063740796
0.063740672
0.063740864
0.063740661
0.063372492
0.063408548
0.063378526
0.063300477
0.063359353
0.063432821
0.063365459
0.063374479
0.063463532
0.063422108
0.063400565
0.063433548
0.063415269
0.063443018
0.063486969
0.063512458
0.063531111
0.063539643
0.063552375
0.063584291
0.063631434
0.06368213
0.06372163
0.063739545
0.06374361
0.063743522
0.063742358
0.063740319
0.063738335
0.063736636
0.063734234
0.063730556
0.063726313
0.063723855
0.063724253
0.063727837
0.063733929
0.063737615
0.06373868
0.063739067
0.063739426
0.063740172
0.063740725
0.063740905
0.063740923
0.063740899
0.063740867
0.06374078
0.063740764
0.063740642
0.063740688
0.063740763
0.06374064
0.063740695
0.063740565
0.063740627
0.063740493
0.063740587
0.063740444
0.063740326
0.063740451
0.063740265
0.063373468
0.063409322
0.06337921
0.063300557
0.063359787
0.063432665
0.063365138
0.063374605
0.063463579
0.063421883
0.06340017
0.063433403
0.063414684
0.063442243
0.063486271
0.063511871
0.063530692
0.063539354
0.0635521
0.063583967
0.063631095
0.06368178
0.063721243
0.063739128
0.063743179
0.063743072
0.063741911
0.063739948
0.063738015
0.06373635
0.063733973
0.063730316
0.06372609
0.063723645
0.063724087
0.063727678
0.063733765
0.06373745
0.063738512
0.063738897
0.063739256
0.063739999
0.063740551
0.063740729
0.063740745
0.063740717
0.063740682
0.063740585
0.06374056
0.063740437
0.063740471
0.063740533
0.063740403
0.063740438
0.063740296
0.063740342
0.063740193
0.06374027
0.063740098
0.063739925
0.063740034
0.063739822
0.063374539
0.063410112
0.063379958
0.063300598
0.063360252
0.063432656
0.063364877
0.063374793
0.063463703
0.063421769
0.063400026
0.063433296
0.063414072
0.063441417
0.063485526
0.063511237
0.063530236
0.06353904
0.0635518
0.063583614
0.063630727
0.0636814
0.063720832
0.063738696
0.063742749
0.063742649
0.063741518
0.063739671
0.063737788
0.063736153
0.063733798
0.06373015
0.063725929
0.063723489
0.063723947
0.063727534
0.063733614
0.063737297
0.063738357
0.063738739
0.063739096
0.063739836
0.063740386
0.06374056
0.06374057
0.063740536
0.063740494
0.063740385
0.063740351
0.063740212
0.063740232
0.063740283
0.063740122
0.063740142
0.063739961
0.063739998
0.0637398
0.063739863
0.063739627
0.063739365
0.063739464
0.06373921
0.063375704
0.063410933
0.063380768
0.063300594
0.063360687
0.063432691
0.063364639
0.063375034
0.063463883
0.06342172
0.063399976
0.063433193
0.063413406
0.063440543
0.063484732
0.063510547
0.063529739
0.063538697
0.063551472
0.063583231
0.063630328
0.063680991
0.063720406
0.063738273
0.063742358
0.063742301
0.063741219
0.063739478
0.063737623
0.063736006
0.063733666
0.063730015
0.06372579
0.063723347
0.063723808
0.063727386
0.063733463
0.063737145
0.063738202
0.063738582
0.063738934
0.063739671
0.063740215
0.063740381
0.063740381
0.063740334
0.063740277
0.063740152
0.063740104
0.063739931
0.063739927
0.063739959
0.063739747
0.063739747
0.06373951
0.063739527
0.063739261
0.063739296
0.063738994
0.063738653
0.063738725
0.063738441
0.063376928
0.06341179
0.063381635
0.063300543
0.063361094
0.063432777
0.063364422
0.063375309
0.063464079
0.063421712
0.06339995
0.063433082
0.063412693
0.063439629
0.063483887
0.063509796
0.063529199
0.063538325
0.063551114
0.063582817
0.063629899
0.063680557
0.063719992
0.0637379
0.063742049
0.063742051
0.063741012
0.063739333
0.063737486
0.063735873
0.063733544
0.063729884
0.063725652
0.063723203
0.063723664
0.063727235
0.063733312
0.063736992
0.063738046
0.063738422
0.063738765
0.063739493
0.063740025
0.063740176
0.063740158
0.06374009
0.063740005
0.063739856
0.063739786
0.063739563
0.063739525
0.063739528
0.063739263
0.063739233
0.06373894
0.063738923
0.063738594
0.06373859
0.063738243
0.063737849
0.063737885
0.063737584
0.063378218
0.063412681
0.063382547
0.063300445
0.063361568
0.063432902
0.063364216
0.063375611
0.063464289
0.063421742
0.06339993
0.063432974
0.063411942
0.06343866
0.063482979
0.063508979
0.063528619
0.063537922
0.063550723
0.06358237
0.063629448
0.06368012
0.063719624
0.063737609
0.063741829
0.063741876
0.063740857
0.063739202
0.063737352
0.063735733
0.063733416
0.063729749
0.063725509
0.063723056
0.063723519
0.063727085
0.06373316
0.063736836
0.063737881
0.063738246
0.063738571
0.063739284
0.063739794
0.063739921
0.063739875
0.063739779
0.063739656
0.06373948
0.06373938
0.063739104
0.063739026
0.063738998
0.063738685
0.063738613
0.063738274
0.063738217
0.063737844
0.063737803
0.063737432
0.063737007
0.063737003
0.06373669
0.063379574
0.063413617
0.063383513
0.063300431
0.063362155
0.063433068
0.063364017
0.063375942
0.063464529
0.063421731
0.063399892
0.063432862
0.063411157
0.063437637
0.063482004
0.063508102
0.063528004
0.063537485
0.063550299
0.063581903
0.063628998
0.063679718
0.06371933
0.063737399
0.063741667
0.063741733
0.06374072
0.063739072
0.063737213
0.06373558
0.063733282
0.06372961
0.063725364
0.063722908
0.063723371
0.063726928
0.063732993
0.063736657
0.063737686
0.063738031
0.063738333
0.06373902
0.063739502
0.063739597
0.063739518
0.063739392
0.063739229
0.063739024
0.063738891
0.063738569
0.06373845
0.063738392
0.063738031
0.063737913
0.063737542
0.063737452
0.063737057
0.063736984
0.063736605
0.063736175
0.063736133
0.063735816
0.063381014
0.063414602
0.063384527
0.06330047
0.063362786
0.063433288
0.063363843
0.063376314
0.063464825
0.063421679
0.063399819
0.063432734
0.063410335
0.063436562
0.063480957
0.063507166
0.063527351
0.063537009
0.063549851
0.06358144
0.06362859
0.063679391
0.063719109
0.063737235
0.063741527
0.063741595
0.063740582
0.063738936
0.063737065
0.063735423
0.063733145
0.06372947
0.063725216
0.063722754
0.063723207
0.063726746
0.063732792
0.063736436
0.063737441
0.063737759
0.063738035
0.063738692
0.063739143
0.063739206
0.063739095
0.063738938
0.06373874
0.063738502
0.063738333
0.06373797
0.063737814
0.063737726
0.063737324
0.06373717
0.063736786
0.063736669
0.063736278
0.06373618
0.063735819
0.063735406
0.063735354
0.063735066
0.063382543
0.063415649
0.063385602
0.063300606
0.063363443
0.063433558
0.063363709
0.063376734
0.063465187
0.063421582
0.063399685
0.063432577
0.063409477
0.063435436
0.063479839
0.063506175
0.063526653
0.063536501
0.063549407
0.06358102
0.063628259
0.06367915
0.06371893
0.063737083
0.063741382
0.063741452
0.063740442
0.063738797
0.063736914
0.063735274
0.063733007
0.063729322
0.063725053
0.063722578
0.063723008
0.063726519
0.063732539
0.06373616
0.063737139
0.063737428
0.063737678
0.063738306
0.063738728
0.063738761
0.063738617
0.063738424
0.063738193
0.063737918
0.063737717
0.063737328
0.063737142
0.063737025
0.063736602
0.063736428
0.063736054
0.063735923
0.063735544
0.063735433
0.063735123
0.063734985
0.063734997
0.06373497
0.063384176
0.063416759
0.063386732
0.063300869
0.06336415
0.063433867
0.063363609
0.063377207
0.063465634
0.063421515
0.06339948
0.063432391
0.063408586
0.063434259
0.063478648
0.063505123
0.063525902
0.063535977
0.063549004
0.063580678
0.06362801
0.063678971
0.063718763
0.063736923
0.063741233
0.063741308
0.063740301
0.063738655
0.063736766
0.063735131
0.06373286
0.063729151
0.063724858
0.06372236
0.06372276
0.06372624
0.063732235
0.063735833
0.063736787
0.063737049
0.063737274
0.063737873
0.063738264
0.063738263
0.063738083
0.063737852
0.063737593
0.063737292
0.06373707
0.063736671
0.063736465
0.063736323
0.063735916
0.063735737
0.063735363
0.063735216
0.063735004
0.063735002
0.063735006
0.063735022
0.063735051
0.063735063
0.063385918
0.063417953
0.063387931
0.063301213
0.063364927
0.0634342
0.063363519
0.063377719
0.06346619
0.063421484
0.063399198
0.063432179
0.063407665
0.063433039
0.063477381
0.06350401
0.063525107
0.063535474
0.063548675
0.063580415
0.063627813
0.063678814
0.063718588
0.063736753
0.063741086
0.063741166
0.063740159
0.063738514
0.063736619
0.063734975
0.063732685
0.063728941
0.063724615
0.063722092
0.063722466
0.063725917
0.063731889
0.063735465
0.063736394
0.063736628
0.063736824
0.063737389
0.063737745
0.063737709
0.063737499
0.063737242
0.063736968
0.063736655
0.063736422
0.063736037
0.063735821
0.063735651
0.063735257
0.063735095
0.06373495
0.063734976
0.063734996
0.063735032
0.063735092
0.063735151
0.063735158
0.063735148
0.063387787
0.063419231
0.063389194
0.063301575
0.063365774
0.063434543
0.063363419
0.063378276
0.063466867
0.063421443
0.063398855
0.063431957
0.063406714
0.06343177
0.063476039
0.063502841
0.063524294
0.063535027
0.063548426
0.063580203
0.063627633
0.063678653
0.063718403
0.063736586
0.063740947
0.063741025
0.063740018
0.063738369
0.063736456
0.063734785
0.063732465
0.063728685
0.063724327
0.063721779
0.063722133
0.063725558
0.063731507
0.063735057
0.063735957
0.063736158
0.06373632
0.063736851
0.063737178
0.06373712
0.063736896
0.063736627
0.063736352
0.063736047
0.06373581
0.063735414
0.063735164
0.063735034
0.063734917
0.063734955
0.063734976
0.063735042
0.063735116
0.063735168
0.063735195
0.063735172
0.063735147
0.06373511
0.063389776
0.063420614
0.063390529
0.063301949
0.063366665
0.063434875
0.063363294
0.063378867
0.063467562
0.063421335
0.063398462
0.063431736
0.063405738
0.06343044
0.063474627
0.063501646
0.063523503
0.06353465
0.063548228
0.063580004
0.063627444
0.063678478
0.063718219
0.06373643
0.063740811
0.06374088
0.063739871
0.063738204
0.063736256
0.063734549
0.063732199
0.063728389
0.063724001
0.063721431
0.063721766
0.06372516
0.06373108
0.063734601
0.063735466
0.063735634
0.063735769
0.06373628
0.063736594
0.063736529
0.063736306
0.063736049
0.063735775
0.063735445
0.063735179
0.063734902
0.06373488
0.063734925
0.063734954
0.063735038
0.063735123
0.06373519
0.063735208
0.063735209
0.063735171
0.063735083
0.063735024
0.063734972
0.063391857
0.063422081
0.063391925
0.06330238
0.063367597
0.063435177
0.063363141
0.063379485
0.06346813
0.063421139
0.063398021
0.063431516
0.063404726
0.063429039
0.063473167
0.063500457
0.063522762
0.063534327
0.063548046
0.063579793
0.063627236
0.063678298
0.063718044
0.063736279
0.063740671
0.063740724
0.063739701
0.063738001
0.063736011
0.063734271
0.063731895
0.063728058
0.063723642
0.063721046
0.063721357
0.063724715
0.063730602
0.063734092
0.06373493
0.06373508
0.063735205
0.06373571
0.063736029
0.063735977
0.063735759
0.063735479
0.063735175
0.063734919
0.06373486
0.063734869
0.063734931
0.063735016
0.063735109
0.063735194
0.063735208
0.063735215
0.06373517
0.063735136
0.063735038
0.0637349
0.063734818
0.063734754
0.063393995
0.063423644
0.063393384
0.063302889
0.063368575
0.063435432
0.063362955
0.06338008
0.063468546
0.063420851
0.063397537
0.063431297
0.063403674
0.063427574
0.063471694
0.0634993
0.063522063
0.063534021
0.063547854
0.063579558
0.063627017
0.063678123
0.063717875
0.063736122
0.063740512
0.063740538
0.063739492
0.063737752
0.063735727
0.06373396
0.063731559
0.063727691
0.063723244
0.063720618
0.063720899
0.063724219
0.063730078
0.063733552
0.063734381
0.063734528
0.063734659
0.063735179
0.063735507
0.063735434
0.063735183
0.06373495
0.063734871
0.063734865
0.063734898
0.063734985
0.063735109
0.063735189
0.063735193
0.063735215
0.063735168
0.063735136
0.063735029
0.063734966
0.06373484
0.06373466
0.063734521
0.063734359
0.063396177
0.063425272
0.063394901
0.063303471
0.063369615
0.063435583
0.063362783
0.063380632
0.063468914
0.063420506
0.063397032
0.063431079
0.063402586
0.06342608
0.063470241
0.063498166
0.063521374
0.063533703
0.063547639
0.063579307
0.063626799
0.063677955
0.063717699
0.063735944
0.063740322
0.063740312
0.063739237
0.063737464
0.063735411
0.063733615
0.063731186
0.063727283
0.063722798
0.063720138
0.063720393
0.063723691
0.063729539
0.063733014
0.063733852
0.063734016
0.063734159
0.063734663
0.063734953
0.063734899
0.063734849
0.063734872
0.063734909
0.063734973
0.063735073
0.063735166
0.06373521
0.063735216
0.063735155
0.063735136
0.063735034
0.063734969
0.063734839
0.063734752
0.063734575
0.063734274
0.063734011
0.063733704
0.06339845
0.063426988
0.063396494
0.063304118
0.063370718
0.063435613
0.063362599
0.063381118
0.063469303
0.063420135
0.063396511
0.06343087
0.063401488
0.063424607
0.063468813
0.063497021
0.063520658
0.063533353
0.063547402
0.063579053
0.063626587
0.063677782
0.063717503
0.063735732
0.06374009
0.063740043
0.063738943
0.063737142
0.063735061
0.063733229
0.063730769
0.063726824
0.0637223
0.063719613
0.063719866
0.063723163
0.063729019
0.063732515
0.063733369
0.063733524
0.063733629
0.063734123
0.063734576
0.063734788
0.063734875
0.063734968
0.063735088
0.063735173
0.063735206
0.063735186
0.063735176
0.063735144
0.063735028
0.063734978
0.063734856
0.06373477
0.0637346
0.063734439
0.063734128
0.063733682
0.063733481
0.063733331
0.063400835
0.063428785
0.063398167
0.063304848
0.063371901
0.063435611
0.063362355
0.063381562
0.063469735
0.063419777
0.063395997
0.06343068
0.063400418
0.063423182
0.063467379
0.063495827
0.06351989
0.06353297
0.063547156
0.063578807
0.063626372
0.063677591
0.063717276
0.063735483
0.063739818
0.063739739
0.063738615
0.063736786
0.063734667
0.063732795
0.063730303
0.06372632
0.06372177
0.063719075
0.063719348
0.06372267
0.063728546
0.063732045
0.063732863
0.063732988
0.063733204
0.06373396
0.063734584
0.063734872
0.063735045
0.063735177
0.063735238
0.063735216
0.063735189
0.06373511
0.06373505
0.063734993
0.063734865
0.063734793
0.063734642
0.063734495
0.063734205
0.063733908
0.06373354
0.063733382
0.063733427
0.063733406
0.063403391
0.063430704
0.063399932
0.06330569
0.063373165
0.063435578
0.063362048
0.063381995
0.063470181
0.063419409
0.063395473
0.063430556
0.063399432
0.063421804
0.063465897
0.063494557
0.063519063
0.063532562
0.063546915
0.063578562
0.063626137
0.063677373
0.063717015
0.063735196
0.06373951
0.0637394
0.063738249
0.063736388
0.063734225
0.063732315
0.063729798
0.063725796
0.063721239
0.063718558
0.063718872
0.063722215
0.063728065
0.063731517
0.063732394
0.06373276
0.063733188
0.063734029
0.063734738
0.063735089
0.063735224
0.063735247
0.063735227
0.063735156
0.06373508
0.063734962
0.063734886
0.063734821
0.063734678
0.063734555
0.063734305
0.063734026
0.063733617
0.063733415
0.063733377
0.063733455
0.063733683
0.063734006
0.063406099
0.063432767
0.063401783
0.06330664
0.063374513
0.063435559
0.063361785
0.063382452
0.063470649
0.063419057
0.063394978
0.063430517
0.063398551
0.06342043
0.063464338
0.063493207
0.063518181
0.063532143
0.063546675
0.063578293
0.063625868
0.063677123
0.063716718
0.063734873
0.063739165
0.063739021
0.063737838
0.06373594
0.063733739
0.063731807
0.063729286
0.063725285
0.063720744
0.063718088
0.063718415
0.063721711
0.063727559
0.063731209
0.063732333
0.063732808
0.063733316
0.063734244
0.063734947
0.063735191
0.063735228
0.063735199
0.063735127
0.063735017
0.063734925
0.0637348
0.063734707
0.063734612
0.063734401
0.063734156
0.063733752
0.063733462
0.063733344
0.06373339
0.063733527
0.063733998
0.063734555
0.063735087
0.063409028
0.063435038
0.063403737
0.063307694
0.063375937
0.063435583
0.063361501
0.063382945
0.063471169
0.063418711
0.063394512
0.063430588
0.063397734
0.063419033
0.063462696
0.063491782
0.063517252
0.063531711
0.063546417
0.06357798
0.063625553
0.063676825
0.063716383
0.063734509
0.063738778
0.063738596
0.063737376
0.06373545
0.063733235
0.063731304
0.063728801
0.063724821
0.063720289
0.06371761
0.063717901
0.063721305
0.063727428
0.063731233
0.063732435
0.063733011
0.063733548
0.063734385
0.063734974
0.063735157
0.063735143
0.063735068
0.063734976
0.063734862
0.06373476
0.063734613
0.063734466
0.063734283
0.063733923
0.063733574
0.063733335
0.063733342
0.063733424
0.063733685
0.063734258
0.06373497
0.06373512
0.063735346
0.063412147
0.063437531
0.063405822
0.063308832
0.063377443
0.063435673
0.063361215
0.063383518
0.063471794
0.063418428
0.063394114
0.063430725
0.063396945
0.0634176
0.063460983
0.063490287
0.063516271
0.063531248
0.063546116
0.063577614
0.063625184
0.063676471
0.063716005
0.0637341
0.063738341
0.063738125
0.063736876
0.063734946
0.063732748
0.063730841
0.063728365
0.063724372
0.063719784
0.063717091
0.063717601
0.063721292
0.063727503
0.06373141
0.063732677
0.063733194
0.063733607
0.063734367
0.063734906
0.063735038
0.063734998
0.063734918
0.063734821
0.063734692
0.063734556
0.063734337
0.063734064
0.063733741
0.063733384
0.063733308
0.063733345
0.063733516
0.06373399
0.063734635
0.06373514
0.06373515
0.063734961
0.063734944
0.063415569
0.063440286
0.063408082
0.063310016
0.063379029
0.063435871
0.063361035
0.06338424
0.063472511
0.063418195
0.063393755
0.063430921
0.063396189
0.063416163
0.063459216
0.063488715
0.06351522
0.063530723
0.063545759
0.063577201
0.063624763
0.063676061
0.06371558
0.063733645
0.063737858
0.063737624
0.06373637
0.063734468
0.06373231
0.063730414
0.063727904
0.063723853
0.063719338
0.063716919
0.063717625
0.063721425
0.063727735
0.063731633
0.063732779
0.063733193
0.063733555
0.063734261
0.063734767
0.063734892
0.06373485
0.063734759
0.063734637
0.063734459
0.063734237
0.06373387
0.063733494
0.063733304
0.063733291
0.063733386
0.063733709
0.063734312
0.063735038
0.063735249
0.063735154
0.063734728
0.063733936
0.063733332
0.063419328
0.063443343
0.063410536
0.063311138
0.06338069
0.063436226
0.063361016
0.063385117
0.063473299
0.063418029
0.063393444
0.063431185
0.063395493
0.063414746
0.063457398
0.063487046
0.063514066
0.063530125
0.063545344
0.063576749
0.063624294
0.063675601
0.063715109
0.063733149
0.063737352
0.063737129
0.063735898
0.063734041
0.063731884
0.063729926
0.063727413
0.063723561
0.063719299
0.063716982
0.063717798
0.06372167
0.063727883
0.063731657
0.063732743
0.063733105
0.063733425
0.063734116
0.063734624
0.063734743
0.063734683
0.063734555
0.063734367
0.063734076
0.063733714
0.063733339
0.063733249
0.063733301
0.063733478
0.063733949
0.063734747
0.063735254
0.063735277
0.063735094
0.063734503
0.063733208
0.063731951
0.063731189
0.063423602
0.063446684
0.063413184
0.063312212
0.063382438
0.063436718
0.063361062
0.063386099
0.063474104
0.063417889
0.063393154
0.063431547
0.06339491
0.063413366
0.063455512
0.063485264
0.063512788
0.063529449
0.063544873
0.063576251
0.063623774
0.063675095
0.063714603
0.063732639
0.063736865
0.063736677
0.063735474
0.063733603
0.063731385
0.063729518
0.063727288
0.063723589
0.063719409
0.063717195
0.063718005
0.063721738
0.063727863
0.063731588
0.063732623
0.063732963
0.063733282
0.063733974
0.06373447
0.063734562
0.063734454
0.063734241
0.063733916
0.063733513
0.063733268
0.063733237
0.063733332
0.063733629
0.06373431
0.063735071
0.063735368
0.063735275
0.063734886
0.063734065
0.063732714
0.063731206
0.06373048
0.063730231
0.063428354
0.06345029
0.063415968
0.06331331
0.063384292
0.063437302
0.063361122
0.06338714
0.063474921
0.063417807
0.06339293
0.063432019
0.063394429
0.063412003
0.063453541
0.063483353
0.063511372
0.063528687
0.063544343
0.063575697
0.063623198
0.063674548
0.063714092
0.063732153
0.063736432
0.063736246