/*--------------------------------*- C++ -*----------------------------------*\
| =========                 |                                                 |
| \\      /  F ield         | OpenFOAM: The Open Source CFD Toolbox           |
|  \\    /   O peration     | Version:  2506                                  |
|   \\  /    A nd           | Website:  www.openfoam.com                      |
|    \\/     M anipulation  |                                                 |
\*---------------------------------------------------------------------------*/
FoamFile
{
    version     2.0;
    format      ascii;
    arch        "LSB;label=32;scalar=64";
    class       volScalarField;
    location    "0.0055";
    object      rho;
}
// * * * * * * * * * * * * * * * * * * * * * * * * * * * * * * * * * * * * * //

dimensions      [1 -3 0 0 0 0 0];

internalField   nonuniform List<scalar> 
13763
(
0.66452149
0.66358613
0.66241848
0.6613311
0.66059205
0.66009214
0.65973247
0.65930362
0.65948766
0.65868241
0.6583775
0.65749917
0.65692047
0.65641898
0.65696506
0.65730711
0.65828145
0.65975764
0.66150176
0.66317642
0.6645262
0.66558278
0.66655881
0.66749964
0.66799491
0.6677619
0.66698282
0.66602365
0.66512693
0.66435105
0.66368957
0.66313734
0.66268666
0.66232587
0.66204229
0.6618508
0.66174794
0.66171164
0.66181798
0.66218937
0.66282964
0.66358613
0.66429139
0.66478961
0.66499924
0.66505667
0.6650683
0.66507023
0.66451667
0.66357665
0.6624126
0.66132859
0.66059006
0.6600903
0.65973102
0.65930252
0.65948662
0.65867999
0.65837488
0.65749577
0.6569178
0.65641565
0.65696204
0.65730431
0.65827947
0.65975683
0.66150208
0.66317751
0.6645277
0.66558426
0.66656022
0.66750076
0.66799555
0.66776222
0.66698292
0.66602349
0.6651266
0.66435064
0.66368915
0.66313688
0.66268622
0.66232542
0.66204184
0.66185035
0.66174749
0.66171121
0.66181769
0.66218915
0.66282949
0.66358606
0.66429137
0.66478961
0.66499925
0.66505668
0.6650683
0.66507023
0.66507051
0.66507054
0.66451176
0.66356667
0.66240634
0.66132595
0.66058801
0.66008833
0.65972951
0.6593015
0.65948556
0.65867746
0.65837227
0.65749233
0.65691502
0.65641216
0.65695892
0.65730149
0.65827754
0.65975607
0.6615025
0.66317873
0.66452933
0.66558591
0.66656182
0.66750205
0.66799619
0.6677625
0.66698294
0.66602323
0.66512617
0.66435015
0.66368865
0.66313634
0.6626857
0.66232491
0.66204134
0.66184987
0.66174701
0.66171079
0.66181738
0.66218892
0.66282937
0.66358603
0.66429137
0.66478963
0.66499927
0.66505669
0.6650683
0.66507023
0.66507051
0.66507054
0.66507054
0.66450675
0.66355608
0.66239966
0.66132311
0.66058579
0.66008632
0.65972796
0.65930043
0.65948455
0.65867488
0.65836945
0.65748874
0.65691231
0.65640867
0.65695582
0.65729862
0.65827559
0.65975536
0.66150301
0.66318006
0.6645311
0.66558774
0.66656361
0.66750347
0.66799684
0.66776274
0.66698287
0.66602287
0.66512565
0.66434956
0.66368807
0.66313574
0.66268511
0.66232434
0.66204079
0.66184935
0.66174651
0.66171037
0.66181702
0.66218864
0.66282919
0.66358595
0.66429134
0.66478964
0.66499929
0.66505669
0.6650683
0.66507023
0.66507051
0.66507054
0.66507054
0.66507055
0.66507055
0.66450175
0.66354491
0.66239251
0.6613201
0.6605835
0.66008411
0.65972631
0.65929943
0.65948347
0.65867214
0.6583666
0.65748504
0.65690942
0.65640495
0.65695257
0.65729567
0.65827363
0.65975468
0.6615036
0.66318149
0.66453301
0.66558972
0.66656554
0.66750498
0.66799751
0.66776296
0.66698275
0.66602246
0.66512507
0.66434892
0.66368743
0.66313509
0.66268448
0.66232373
0.66204021
0.6618488
0.661746
0.66170994
0.66181662
0.66218832
0.66282898
0.66358585
0.66429129
0.66478964
0.6649993
0.6650567
0.6650683
0.66507023
0.66507051
0.66507054
0.66507054
0.66507055
0.66507055
0.66507055
0.66507055
0.66449674
0.66353309
0.66238492
0.66131686
0.66058101
0.66008187
0.6597246
0.6592983
0.65948242
0.65866933
0.65836349
0.6574811
0.65690658
0.65640126
0.65694927
0.65729259
0.65827159
0.65975399
0.66150424
0.66318303
0.66453504
0.66559183
0.66656759
0.66750657
0.6679982
0.66776318
0.66698261
0.66602202
0.66512447
0.66434825
0.66368676
0.66313441
0.66268381
0.66232308
0.66203961
0.66184823
0.66174547
0.66170949
0.66181619
0.66218796
0.66282873
0.66358572
0.66429122
0.66478962
0.66499931
0.6650567
0.6650683
0.66507023
0.66507051
0.66507054
0.66507054
0.66507055
0.66507055
0.66507055
0.66507055
0.66507055
0.66507055
0.66449176
0.66352065
0.6623768
0.66131344
0.66057846
0.6600794
0.65972278
0.65929721
0.6594812
0.65866629
0.65836034
0.65747701
0.65690342
0.65639718
0.65694573
0.65728935
0.65826946
0.65975326
0.66150492
0.66318464
0.66453718
0.66559405
0.66656974
0.66750822
0.66799891
0.66776342
0.66698248
0.66602157
0.66512385
0.66434755
0.66368606
0.66313371
0.66268312
0.66232241
0.66203899
0.66184764
0.66174491
0.66170899
0.66181573
0.66218758
0.66282846
0.66358559
0.66429115
0.66478961
0.66499932
0.6650567
0.66506831
0.66507023
0.66507051
0.66507054
0.66507054
0.66507055
0.66507055
0.66507055
0.66507055
0.66507055
0.66507055
0.66507055
0.66507055
0.66507055
0.66448676
0.66350745
0.6623682
0.66130976
0.66057568
0.6600769
0.65972089
0.65929595
0.65948
0.65866318
0.65835688
0.65747262
0.6569003
0.65639311
0.65694209
0.65728592
0.65826719
0.65975247
0.66150561
0.66318634
0.66453943
0.66559637
0.66657197
0.66750994
0.66799966
0.66776371
0.66698237
0.66602113
0.66512322
0.66434684
0.66368533
0.663133
0.6626824
0.66232173
0.66203834
0.66184702
0.66174433
0.66170846
0.66181525
0.66218718
0.66282819
0.66358545
0.66429108
0.66478961
0.66499933
0.66505671
0.66506831
0.66507023
0.66507051
0.66507054
0.66507054
0.66507055
0.66507055
0.66507055
0.66507055
0.66507055
0.66507055
0.66507055
0.66507055
0.66507055
0.66507055
0.66507055
0.66448173
0.66349348
0.66235894
0.66130587
0.66057285
0.66007414
0.65971886
0.65929472
0.65947856
0.65865975
0.65835339
0.65746805
0.65689677
0.65638853
0.65693812
0.65728229
0.65826478
0.65975162
0.66150633
0.66318812
0.66454179
0.66559878
0.66657429
0.66751175
0.66800046
0.66776404
0.66698228
0.6660207
0.66512258
0.66434612
0.66368458
0.66313227
0.66268167
0.66232102
0.66203766
0.66184636
0.66174371
0.66170788
0.66181473
0.66218676
0.66282791
0.66358531
0.66429103
0.66478961
0.66499934
0.66505671
0.66506831
0.66507023
0.66507051
0.66507054
0.66507054
0.66507055
0.66507055
0.66507055
0.66507055
0.66507055
0.66507055
0.66507055
0.66507055
0.66507055
0.66507055
0.66507055
0.6644766
0.6634786
0.66234912
0.66130167
0.66056974
0.66007138
0.65971677
0.65929329
0.65947716
0.65865624
0.65834952
0.65746313
0.6568933
0.656384
0.65693404
0.65727844
0.65826221
0.65975069
0.66150706
0.66318998
0.66454425
0.66560129
0.66657671
0.66751366
0.66800132
0.66776441
0.66698221
0.66602025
0.66512192
0.66434538
0.66368379
0.66313152
0.66268091
0.6623203
0.66203696
0.66184567
0.66174305
0.66170726
0.6618142
0.66218633
0.66282763
0.66358517
0.66429097
0.6647896
0.66499936
0.66505672
0.66506831
0.66507023
0.66507051
0.66507054
0.66507054
0.66507055
0.66507055
0.66507055
0.66507055
0.66507055
0.66507055
0.66507055
0.66507055
0.66507055
0.66507055
0.66507055
0.6644713
0.66346273
0.66233847
0.66129723
0.6605666
0.6600683
0.65971453
0.65929192
0.65947549
0.65865235
0.6583456
0.65745804
0.65688937
0.65637886
0.65692957
0.65727436
0.6582595
0.65974971
0.66150782
0.66319194
0.66454683
0.66560392
0.66657924
0.66751567
0.66800226
0.66776483
0.66698214
0.66601979
0.66512124
0.66434461
0.66368296
0.66313073
0.66268013
0.66231954
0.66203621
0.66184494
0.66174236
0.66170663
0.66181364
0.66218588
0.66282733
0.66358503
0.6642909
0.6647896
0.66499937
0.66505672
0.66506831
0.66507023
0.66507051
0.66507054
0.66507054
0.66507055
0.66507055
0.66507055
0.66507055
0.66507055
0.66507055
0.66507055
0.66507055
0.66507055
0.66507055
0.66507055
0.66446579
0.66344572
0.66232715
0.66129241
0.66056313
0.66006525
0.6597122
0.6592903
0.65947389
0.65864842
0.65834123
0.65745255
0.65688554
0.65637381
0.65692501
0.65727005
0.6582566
0.65974865
0.66150862
0.66319399
0.66454954
0.66560668
0.66658191
0.66751781
0.66800327
0.66776528
0.66698207
0.66601931
0.66512051
0.66434381
0.6636821
0.66312989
0.6626793
0.66231874
0.66203542
0.66184418
0.66174163
0.66170598
0.66181306
0.66218542
0.66282702
0.66358488
0.66429084
0.6647896
0.66499938
0.66505673
0.66506831
0.66507024
0.66507051
0.66507054
0.66507054
0.66507055
0.66507055
0.66507055
0.66507055
0.66507055
0.66507055
0.66507055
0.66507055
0.66507055
0.66507055
0.66507055
0.66446003
0.66342752
0.66231484
0.66128733
0.66055966
0.66006181
0.6597097
0.6592888
0.65947198
0.65864402
0.65833681
0.65744688
0.65688119
0.65636806
0.65692001
0.6572655
0.65825357
0.65974756
0.66150946
0.66319613
0.66455239
0.66560958
0.66658474
0.66752006
0.66800437
0.66776575
0.66698197
0.66601878
0.66511974
0.66434297
0.66368119
0.663129
0.66267842
0.66231788
0.66203459
0.66184337
0.66174086
0.66170529
0.66181246
0.66218493
0.66282671
0.66358473
0.66429075
0.66478961
0.66499939
0.66505673
0.66506831
0.66507024
0.66507051
0.66507054
0.66507054
0.66507055
0.66507055
0.66507055
0.66507055
0.66507055
0.66507055
0.66507055
0.66507055
0.66507055
0.66507055
0.66507055
0.66445421
0.663408
0.66230175
0.66128179
0.66055579
0.66005843
0.65970711
0.659287
0.6594702
0.65863962
0.65833189
0.65744076
0.65687699
0.65636247
0.65691494
0.6572607
0.65825034
0.65974639
0.66151035
0.66319839
0.66455539
0.66561263
0.66658773
0.66752243
0.66800554
0.66776623
0.66698186
0.66601822
0.66511893
0.66434208
0.66368024
0.66312805
0.66267749
0.66231697
0.6620337
0.66184252
0.66174006
0.66170458
0.66181182
0.66218442
0.66282637
0.66358457
0.66429069
0.66478961
0.66499941
0.66505673
0.66506831
0.66507024
0.66507051
0.66507054
0.66507054
0.66507055
0.66507055
0.66507055
0.66507055
0.66507055
0.66507055
0.66507055
0.66507055
0.66507055
0.66507055
0.66507055
0.66444827
0.6633872
0.6622875
0.66127595
0.66055194
0.66005458
0.65970432
0.65928536
0.65946802
0.65863466
0.65832692
0.65743445
0.65687221
0.65635606
0.65690936
0.65725563
0.65824696
0.65974519
0.6615113
0.66320075
0.66455855
0.66561584
0.66659089
0.66752491
0.6680068
0.66776674
0.66698173
0.66601762
0.66511806
0.66434114
0.66367926
0.66312704
0.66267649
0.66231599
0.66203277
0.66184162
0.66173924
0.66170383
0.66181115
0.66218387
0.66282601
0.66358439
0.66429062
0.66478963
0.66499942
0.66505674
0.66506831
0.66507024
0.66507051
0.66507054
0.66507054
0.66507055
0.66507055
0.66507055
0.66507055
0.66507055
0.66507055
0.66507055
0.66507055
0.66507055
0.66507055
0.66507055
0.66444292
0.66336511
0.66227243
0.66126957
0.66054762
0.66005085
0.65970143
0.65928334
0.65946602
0.65862975
0.65832139
0.65742761
0.6568676
0.65634987
0.65690375
0.6572503
0.65824336
0.65974391
0.66151231
0.66320323
0.66456187
0.66561923
0.66659421
0.66752751
0.66800813
0.66776727
0.66698157
0.66601699
0.66511714
0.66434014
0.66367824
0.66312597
0.66267543
0.66231498
0.6620318
0.66184067
0.66173839
0.66170304
0.66181043
0.66218329
0.66282564
0.66358421
0.66429056
0.66478963
0.66499943
0.66505674
0.66506831
0.66507024
0.66507051
0.66507054
0.66507054
0.66507055
0.66507055
0.66507055
0.66507055
0.66507055
0.66507055
0.66507055
0.66507055
0.66507055
0.66507055
0.66507055
0.66443794
0.66334187
0.66225606
0.66126282
0.66054337
0.66004654
0.65969831
0.65928154
0.65946354
0.65862414
0.65831581
0.65742058
0.65686231
0.6563427
0.65689754
0.65724465
0.65823959
0.65974259
0.66151337
0.66320585
0.66456537
0.66562281
0.6665977
0.66753025
0.66800956
0.66776782
0.6669814
0.6660163
0.66511618
0.66433907
0.66367717
0.66312483
0.66267432
0.66231393
0.66203078
0.66183968
0.66173749
0.66170221
0.66180968
0.66218268
0.66282525
0.66358404
0.66429051
0.66478963
0.66499945
0.66505674
0.66506831
0.66507024
0.66507051
0.66507054
0.66507054
0.66507055
0.66507055
0.66507055
0.66507055
0.66507055
0.66507055
0.66507055
0.66507055
0.66507055
0.66507055
0.66507055
0.66443388
0.66331751
0.66223887
0.66125542
0.66053855
0.66004241
0.65969507
0.65927926
0.65946129
0.65861867
0.65830958
0.65741292
0.65685724
0.65633583
0.65689133
0.65723872
0.65823556
0.65974116
0.6615145
0.66320861
0.66456906
0.66562658
0.66660138
0.66753312
0.66801108
0.6677684
0.6669812
0.66601558
0.66511517
0.66433794
0.66367605
0.66312365
0.66267317
0.66231282
0.66202971
0.66183866
0.66173654
0.66170133
0.66180888
0.66218204
0.66282484
0.66358384
0.66429043
0.66478962
0.66499946
0.66505675
0.66506831
0.66507024
0.66507051
0.66507054
0.66507054
0.66507055
0.66507055
0.66507055
0.66507055
0.66507055
0.66507055
0.66507055
0.66507055
0.66507055
0.66507055
0.66507055
0.66443069
0.66329215
0.66222028
0.66124761
0.66053384
0.66003756
0.65969158
0.65927728
0.65945845
0.65861233
0.65830327
0.65740504
0.65685138
0.6563278
0.65688439
0.6572324
0.65823134
0.65973968
0.66151568
0.66321152
0.66457297
0.66563053
0.66660524
0.66753613
0.66801271
0.667769
0.66698097
0.66601482
0.66511412
0.66433674
0.66367487
0.66312242
0.66267197
0.66231167
0.66202859
0.66183758
0.66173554
0.66170039
0.66180803
0.66218136
0.66282441
0.66358363
0.66429037
0.66478962
0.66499947
0.66505675
0.66506831
0.66507024
0.66507051
0.66507054
0.66507054
0.66507055
0.66507055
0.66507055
0.66507055
0.66507055
0.66507055
0.66507055
0.66507055
0.66507055
0.66507055
0.66507055
0.66442887
0.66326572
0.66220087
0.661239
0.66052845
0.66003298
0.65968794
0.6592747
0.65945594
0.65860625
0.65829623
0.65739643
0.6568458
0.65632016
0.65687748
0.65722579
0.65822685
0.65973808
0.66151691
0.6632146
0.6645771
0.66563468
0.66660931
0.66753927
0.66801446
0.66776964
0.66698072
0.66601401
0.66511303
0.66433548
0.6636736
0.66312114
0.66267072
0.66231045
0.6620274
0.66183644
0.66173448
0.66169941
0.66180714
0.66218065
0.66282397
0.66358342
0.66429029
0.66478961
0.66499949
0.66505675
0.66506831
0.66507024
0.66507051
0.66507054
0.66507054
0.66507055
0.66507055
0.66507055
0.66507055
0.66507055
0.66507055
0.66507055
0.66507055
0.66507055
0.66507055
0.66507055
0.66442789
0.66323819
0.66217986
0.66122992
0.66052318
0.66002753
0.65968402
0.6592725
0.6594527
0.65859909
0.65828907
0.6573876
0.6568393
0.65631116
0.65686971
0.65721869
0.65822214
0.65973642
0.66151821
0.66321787
0.66458145
0.66563902
0.66661358
0.66754256
0.66801633
0.66777031
0.66698045
0.66601316
0.66511189
0.66433418
0.66367225
0.66311979
0.6626694
0.66230916
0.66202616
0.66183524
0.66173338
0.66169837
0.66180621
0.6621799
0.6628235
0.6635832
0.66429022
0.66478961
0.6649995
0.66505676
0.66506832
0.66507024
0.66507051
0.66507054
0.66507054
0.66507055
0.66507055
0.66507055
0.66507055
0.66507055
0.66507055
0.66507055
0.66507055
0.66507055
0.66507055
0.66507055
0.66442864
0.66320932
0.66215793
0.6612199
0.6605171
0.66002244
0.65967993
0.65926956
0.65944989
0.65859234
0.65828108
0.65737789
0.65683314
0.65630264
0.65686201
0.65721128
0.65821715
0.65973464
0.66151958
0.66322135
0.66458603
0.6656436
0.66661808
0.66754601
0.66801833
0.66777101
0.66698014
0.66601227
0.66511069
0.66433283
0.66367081
0.66311837
0.662668
0.66230781
0.66202484
0.66183398
0.66173223
0.66169728
0.66180522
0.66217911
0.66282301
0.66358297
0.66429017
0.66478961
0.66499951
0.66505676
0.66506832
0.66507024
0.66507051
0.66507054
0.66507054
0.66507055
0.66507055
0.66507055
0.66507055
0.66507055
0.66507055
0.66507055
0.66507055
0.66507055
0.66507055
0.66507055
0.66443049
0.66317903
0.66213403
0.66120931
0.66051116
0.66001632
0.65967555
0.65926711
0.65944621
0.65858426
0.65827294
0.65736797
0.65682594
0.65629254
0.65685328
0.65720329
0.65821192
0.65973281
0.66152105
0.66322504
0.66459085
0.66564841
0.66662284
0.66754964
0.66802045
0.66777174
0.66697981
0.66601134
0.6651094
0.66433145
0.66366929
0.66311687
0.66266652
0.66230639
0.66202345
0.66183266
0.661731
0.66169614
0.66180417
0.66217828
0.6628225
0.66358273
0.6642901
0.6647896
0.66499952
0.66505676
0.66506832
0.66507024
0.66507051
0.66507054
0.66507054
0.66507055
0.66507055
0.66507055
0.66507055
0.66507055
0.66507055
0.66507055
0.66507055
0.66507055
0.66507055
0.66507055
0.664435
0.66314697
0.66210897
0.66119761
0.66050426
0.6600107
0.65967095
0.65926375
0.65944306
0.65857677
0.65826388
0.65735701
0.65681911
0.65628303
0.6568447
0.65719497
0.65820638
0.65973085
0.66152263
0.66322893
0.66459593
0.66565347
0.66662787
0.66755346
0.6680227
0.66777248
0.66697945
0.66601036
0.66510804
0.66433
0.6636677
0.66311529
0.66266497
0.6623049
0.66202198
0.66183129
0.66172972
0.66169493
0.66180306
0.6621774
0.66282198
0.66358247
0.66429004
0.66478959
0.66499954
0.66505677
0.66506832
0.66507024
0.66507051
0.66507054
0.66507054
0.66507055
0.66507055
0.66507055
0.66507055
0.66507055
0.66507055
0.66507055
0.66507055
0.66507055
0.66507055
0.66507055
0.66444127
0.66311324
0.66208142
0.66118521
0.66049752
0.66000385
0.65966607
0.65926106
0.65943888
0.65856763
0.65825464
0.65734587
0.65681111
0.65627167
0.6568349
0.65718598
0.65820056
0.65972883
0.66152432
0.66323305
0.66460131
0.66565879
0.66663317
0.66755751
0.66802509
0.66777325
0.66697907
0.66600933
0.6651066
0.66432844
0.66366607
0.66311364
0.66266334
0.66230332
0.66202042
0.66182986
0.66172839
0.66169366
0.66180189
0.66217648
0.66282142
0.66358219
0.66428998
0.66478958
0.66499955
0.66505677
0.66506832
0.66507024
0.66507051
0.66507054
0.66507054
0.66507055
0.66507055
0.66507055
0.66507055
0.66507055
0.66507055
0.66507055
0.66507055
0.66507055
0.66507055
0.66507055
0.66445146
0.66307745
0.66205245
0.66117145
0.66048964
0.65999766
0.6596609
0.65925724
0.65943535
0.6585593
0.65824437
0.6573335
0.65680352
0.65626104
0.65682534
0.65717667
0.6581944
0.65972667
0.66152607
0.66323741
0.66460699
0.6656644
0.66663875
0.66756183
0.66802763
0.66777404
0.66697865
0.66600825
0.6651051
0.66432677
0.66366437
0.66311191
0.66266163
0.66230166
0.6620188
0.66182835
0.66172699
0.66169231
0.66180065
0.66217552
0.66282082
0.66358192
0.66428993
0.66478956
0.66499956
0.66505677
0.66506832
0.66507024
0.66507051
0.66507054
0.66507054
0.66507055
0.66507055
0.66507055
0.66507055
0.66507055
0.66507055
0.66507055
0.66507055
0.66507055
0.66507055
0.66507055
0.66446435
0.66304017
0.6620205
0.66115676
0.66048192
0.65999003
0.65965546
0.65925425
0.65943059
0.65854892
0.65823384
0.65732099
0.65679464
0.65624827
0.65681434
0.65716657
0.65818789
0.65972441
0.66152792
0.66324204
0.66461299
0.66567031
0.6666446
0.66756644
0.66803033
0.66777485
0.6669782
0.66600711
0.66510357
0.66432499
0.66366258
0.66311008
0.66265982
0.66229991
0.6620171
0.66182676
0.66172552
0.66169089
0.66179934
0.66217451
0.66282018
0.66358164
0.66428989
0.66478954
0.66499957
0.66505677
0.66506832
0.66507024
0.66507051
0.66507054
0.66507054
0.66507055
0.66507055
0.66507055
0.66507055
0.66507055
0.66507055
0.66507055
0.66507055
0.66507055
0.66507055
0.66507055
0.66448306
0.66300084
0.6619871
0.66114047
0.66047284
0.65998325
0.65964968
0.65924984
0.65942656
0.65853966
0.6582222
0.65730701
0.65678617
0.65623637
0.65680369
0.65715619
0.65818099
0.65972196
0.66152987
0.66324696
0.66461932
0.66567654
0.66665074
0.66757138
0.66803322
0.6677757
0.6669777
0.66600588
0.66510198
0.66432313
0.66366069
0.66310815
0.66265791
0.66229807
0.66201532
0.66182509
0.66172396
0.66168939
0.66179795
0.66217344
0.66281953
0.66358135
0.66428984
0.66478952
0.66499958
0.66505678
0.66506832
0.66507024
0.66507051
0.66507054
0.66507054
0.66507055
0.66507055
0.66507055
0.66507055
0.66507055
0.66507055
0.66507055
0.66507055
0.66507055
0.66507055
0.66507055
0.66450615
0.66296079
0.66195041
0.66112302
0.66046395
0.65997477
0.65964369
0.65924643
0.65942102
0.65852786
0.65821024
0.65729298
0.6567763
0.65622203
0.65679135
0.6571449
0.65817365
0.65971937
0.66153197
0.66325218
0.664626
0.66568312
0.66665718
0.66757667
0.66803631
0.66777656
0.66697716
0.66600459
0.66510029
0.66432119
0.66365868
0.6631061
0.66265591
0.66229614
0.66201344
0.66182335
0.66172232
0.66168781
0.66179649
0.66217232
0.66281886
0.66358106
0.66428979
0.66478951
0.66499959
0.66505678
0.66506832
0.66507024
0.66507051
0.66507054
0.66507054
0.66507055
0.66507055
0.66507055
0.66507055
0.66507055
0.66507055
0.66507055
0.66507055
0.66507055
0.66507055
0.66507055
0.66453708
0.6629187
0.66191245
0.66110374
0.66045349
0.65996732
0.65963724
0.65924122
0.65941635
0.6585176
0.65819707
0.65727718
0.65676682
0.6562087
0.65677953
0.65713336
0.6581659
0.65971663
0.66153421
0.66325771
0.66463305
0.66569007
0.66666393
0.66758232
0.6680396
0.66777744
0.66697655
0.66600324
0.66509847
0.66431918
0.66365656
0.66310395
0.66265381
0.66229411
0.66201147
0.66182151
0.66172059
0.66168613
0.66179494
0.66217115
0.66281815
0.66358078
0.66428974
0.66478949
0.66499959
0.66505678
0.66506832
0.66507024
0.66507051
0.66507054
0.66507054
0.66507055
0.66507055
0.66507055
0.66507055
0.66507055
0.66507055
0.66507055
0.66507055
0.66507055
0.66507055
0.66507055
0.66457425
0.66287668
0.66187083
0.66108304
0.66044324
0.65995784
0.65963064
0.65923729
0.65940989
0.6585043
0.65818354
0.6572615
0.65675587
0.6561926
0.65676571
0.65712074
0.6581577
0.65971378
0.66153659
0.66326357
0.66464049
0.66569743
0.66667102
0.66758835
0.66804309
0.66777833
0.66697588
0.66600185
0.66509653
0.66431707
0.66365433
0.6631017
0.66265161
0.66229196
0.66200941
0.66181957
0.66171877
0.66168437
0.66179331
0.66216993
0.66281741
0.6635805
0.66428969
0.66478947
0.6649996
0.66505678
0.66506832
0.66507024
0.66507051
0.66507054
0.66507054
0.66507055
0.66507055
0.66507055
0.66507055
0.66507055
0.66507055
0.66507055
0.66507055
0.66507055
0.66507055
0.66507055
0.66462113
0.66283211
0.66182803
0.66106028
0.66043122
0.65994961
0.65962341
0.65923112
0.65940445
0.65849286
0.65816871
0.65724369
0.65674524
0.65617769
0.65675259
0.65710788
0.65814907
0.65971075
0.6615391
0.66326977
0.66464833
0.66570524
0.66667848
0.66759478
0.66804676
0.66777921
0.66697515
0.66600038
0.6650945
0.66431484
0.66365198
0.66309933
0.6626493
0.66228968
0.66200724
0.66181755
0.66171687
0.6616825
0.66179158
0.66216864
0.66281665
0.66358021
0.66428963
0.66478944
0.66499961
0.66505679
0.66506832
0.66507024
0.66507051
0.66507054
0.66507054
0.66507055
0.66507055
0.66507055
0.66507055
0.66507055
0.66507055
0.66507055
0.66507055
0.66507055
0.66507055
0.66507055
0.66467734
0.66278879
0.66178091
0.66103574
0.66041943
0.65993899
0.65961612
0.65922664
0.65939693
0.65847779
0.65815339
0.65722622
0.6567331
0.65615965
0.65673711
0.65709368
0.65813985
0.65970754
0.66154176
0.66327634
0.66465659
0.6657135
0.66668639
0.66760162
0.66805061
0.66778007
0.66697439
0.66599882
0.6650924
0.66431247
0.66364952
0.66309685
0.66264686
0.66228728
0.66200496
0.66181543
0.66171486
0.66168051
0.66178976
0.66216729
0.66281588
0.66357991
0.66428956
0.66478941
0.66499962
0.66505679
0.66506832
0.66507024
0.66507051
0.66507054
0.66507054
0.66507055
0.66507055
0.66507055
0.66507055
0.66507055
0.66507055
0.66507055
0.66507055
0.66507055
0.66507055
0.66507055
0.66474559
0.66274271
0.66173266
0.66100881
0.66040564
0.65992991
0.65960798
0.65921942
0.65939061
0.6584649
0.65813661
0.65720615
0.65672111
0.65614293
0.65672251
0.65707924
0.65813014
0.6597041
0.66154457
0.6632833
0.6646653
0.66572222
0.6666948
0.66760891
0.66805463
0.66778093
0.66697359
0.66599715
0.66509023
0.66430997
0.66364694
0.66309424
0.66264428
0.66228477
0.66200257
0.66181322
0.66171275
0.66167841
0.66178784
0.66216587
0.66281508
0.6635796
0.66428949
0.66478938
0.66499963
0.66505679
0.66506832
0.66507024
0.66507051
0.66507054
0.66507054
0.66507055
0.66507055
0.66507055
0.66507055
0.66507055
0.66507055
0.66507055
0.66507055
0.66507055
0.66507055
0.66507055
0.66482804
0.66270013
0.6616793
0.66097957
0.66039201
0.65991806
0.6595999
0.65921431
0.65938185
0.65844765
0.65811918
0.65718672
0.65670761
0.65612273
0.65670518
0.65706324
0.65811973
0.65970048
0.66154756
0.66329068
0.66467448
0.66573137
0.66670378
0.66761667
0.66805884
0.66778182
0.66697275
0.66599543
0.66508793
0.66430735
0.66364422
0.66309147
0.66264156
0.66228213
0.66200004
0.66181089
0.66171052
0.66167619
0.66178582
0.66216437
0.66281424
0.66357928
0.66428941
0.66478935
0.66499964
0.6650568
0.66506832
0.66507024
0.66507051
0.66507054
0.66507054
0.66507055
0.66507055
0.66507055
0.66507055
0.66507055
0.66507055
0.66507055
0.66507055
0.66507055
0.66507055
0.66507055
0.66492419
0.66265497
0.66162509
0.66094755
0.66037603
0.65990807
0.65959065
0.65920578
0.65937442
0.65843312
0.65810014
0.6571641
0.65669399
0.65610393
0.65668894
0.65704715
0.65810887
0.65969666
0.66155071
0.66329849
0.66468417
0.66574092
0.66671334
0.66762494
0.66806327
0.66778276
0.66697186
0.66599365
0.66508549
0.6643046
0.66364136
0.66308856
0.6626387
0.66227937
0.66199739
0.66180843
0.66170816
0.66167382
0.66178369
0.6621628
0.66281337
0.66357896
0.66428932
0.66478932
0.66499965
0.6650568
0.66506832
0.66507024
0.66507051
0.66507054
0.66507054
0.66507055
0.66507055
0.66507055
0.66507055
0.66507055
0.66507055
0.66507055
0.66507055
0.66507055
0.66507055
0.66507055
0.66504003
0.66261613
0.66156505
0.66091277
0.66036
0.65989488
0.65958166
0.6591998
0.65936419
0.65841354
0.65808039
0.65714258
0.65667905
0.65608128
0.65666952
0.65702927
0.65809723
0.65969263
0.66155407
0.66330676
0.6646944
0.66575087
0.66672354
0.66763371
0.66806794
0.66778373
0.66697092
0.66599178
0.66508292
0.66430172
0.66363833
0.66308549
0.66263568
0.66227647
0.6619946
0.66180585
0.66170567
0.66167131
0.66178143
0.66216117
0.66281248
0.66357863
0.66428922
0.66478929
0.66499966
0.66505681
0.66506833
0.66507024
0.66507051
0.66507054
0.66507054
0.66507055
0.66507055
0.66507055
0.66507055
0.66507055
0.66507055
0.66507055
0.66507055
0.66507055
0.66507055
0.66507055
0.66517022
0.66257516
0.66150468
0.66087473
0.66034114
0.6598839
0.65957111
0.65918954
0.65935542
0.65839735
0.65805886
0.65711709
0.65666363
0.65605998
0.65665137
0.65701137
0.65808513
0.6596884
0.66155761
0.66331551
0.66470523
0.66576128
0.66673439
0.66764306
0.66807286
0.66778472
0.66696993
0.66598979
0.66508021
0.66429868
0.66363514
0.66308229
0.66263249
0.66227342
0.66199167
0.66180315
0.66170302
0.66166867
0.66177905
0.66215947
0.66281158
0.66357828
0.66428911
0.66478925
0.66499968
0.66505681
0.66506833
0.66507024
0.66507051
0.66507054
0.66507054
0.66507055
0.66507055
0.66507055
0.66507055
0.66507055
0.66507055
0.66507055
0.66507055
0.66507055
0.66507055
0.66507055
0.66532564
0.66254489
0.6614377
0.66083348
0.66032202
0.65986922
0.65956124
0.65918257
0.65934354
0.65837527
0.65803651
0.65709323
0.65664732
0.65603456
0.65662961
0.65699129
0.65807207
0.65968394
0.66156141
0.66332477
0.66471671
0.66577226
0.66674598
0.66765299
0.66807802
0.66778574
0.66696886
0.66598767
0.66507738
0.66429547
0.66363178
0.66307891
0.66262914
0.6622702
0.6619886
0.66180031
0.66170022
0.66166587
0.66177654
0.66215771
0.66281064
0.66357792
0.664289
0.66478922
0.66499969
0.66505682
0.66506833
0.66507024
0.66507051
0.66507054
0.66507054
0.66507055
0.66507055
0.66507055
0.66507055
0.66507055
0.66507055
0.66507055
0.66507055
0.66507055
0.66507055
0.66507055
0.66549946
0.66251448
0.66137117
0.66078819
0.66029948
0.65985708
0.65954936
0.65917048
0.65933321
0.6583571
0.65801219
0.65706449
0.65663
0.65601031
0.65660931
0.65697128
0.65805859
0.65967931
0.66156546
0.66333461
0.66472887
0.66578395
0.66675843
0.66766352
0.66808341
0.66778676
0.6669677
0.66598543
0.66507441
0.66429209
0.66362825
0.66307533
0.66262562
0.6622668
0.66198538
0.66179732
0.66169724
0.66166289
0.6617739
0.66215588
0.66280967
0.66357753
0.66428887
0.66478918
0.66499971
0.66505682
0.66506833
0.66507024
0.66507051
0.66507054
0.66507054
0.66507055
0.66507055
0.66507055
0.66507055
0.66507055
0.66507055
0.66507055
0.66507055
0.66507055
0.66507055
0.66507055
0.66569647
0.6625017
0.66129757
0.66073938
0.66027639
0.65984068
0.65953874
0.6591625
0.65931949
0.65833193
0.65798663
0.65703804
0.65661238
0.65598173
0.65658489
0.65694869
0.658044
0.65967443
0.66156983
0.6633451
0.66474169
0.66579647
0.66677175
0.66767466
0.66808902
0.66778778
0.66696645
0.66598309
0.66507128
0.66428854
0.66362454
0.66307156
0.66262194
0.66226322
0.66198199
0.66179417
0.66169407
0.66165974
0.66177112
0.66215399
0.66280865
0.66357712
0.66428874
0.66478915
0.66499972
0.66505683
0.66506833
0.66507024
0.66507051
0.66507054
0.66507054
0.66507055
0.66507055
0.66507055
0.66507055
0.66507055
0.66507055
0.66507055
0.66507055
0.66507055
0.66507055
0.66507055
0.66590996
0.66250083
0.66122679
0.66068564
0.660249
0.6598271
0.65952603
0.65914848
0.6593073
0.65831091
0.65795863
0.65700553
0.65659282
0.65595377
0.65656195
0.65692627
0.65802905
0.65966936
0.66157456
0.66335631
0.66475515
0.66580986
0.66678597
0.6676864
0.66809486
0.66778883
0.66696512
0.66598065
0.665068
0.6642848
0.66362062
0.66306757
0.66261806
0.66225945
0.66197844
0.66179084
0.66169072
0.66165639
0.66176822
0.66215204
0.66280759
0.66357669
0.66428861
0.66478912
0.66499974
0.66505684
0.66506833
0.66507024
0.66507051
0.66507054
0.66507054
0.66507055
0.66507055
0.66507055
0.66507055
0.66507055
0.66507055
0.66507055
0.66507055
0.66507055
0.66507055
0.66507055
0.66611653
0.66252
0.66114868
0.66062867
0.66022083
0.65980867
0.65951471
0.65913947
0.65929152
0.65828193
0.65792896
0.65697605
0.65657366
0.65592132
0.65653445
0.65690089
0.65801275
0.65966395
0.66157967
0.66336829
0.66476927
0.66582416
0.66680109
0.66769875
0.66810099
0.66778994
0.66696374
0.66597809
0.66506454
0.66428086
0.6636165
0.66306336
0.66261398
0.66225549
0.66197472
0.66178732
0.66168714
0.66165285
0.6617652
0.66215001
0.66280648
0.66357623
0.66428847
0.66478909
0.66499976
0.66505684
0.66506833
0.66507024
0.66507051
0.66507054
0.66507054
0.66507055
0.66507055
0.66507055
0.66507055
0.66507055
0.66507055
0.66507055
0.66507055
0.66507055
0.66507055
0.66507055
0.66628182
0.66256424
0.66107755
0.66056574
0.66018752
0.65979319
0.659501
0.65912393
0.65927713
0.65825733
0.65789633
0.6569392
0.65655108
0.65588872
0.65650854
0.6568758
0.65799608
0.65965829
0.66158517
0.66338103
0.66478406
0.66583944
0.66681711
0.66771177
0.66810749
0.66779112
0.66696227
0.66597538
0.66506091
0.66427671
0.66361215
0.66305896
0.66260967
0.66225131
0.66197082
0.66178358
0.66168335
0.66164911
0.66176204
0.66214791
0.66280531
0.66357576
0.66428832
0.66478907
0.66499978
0.66505685
0.66506834
0.66507024
0.66507051
0.66507054
0.66507054
0.66507055
0.66507055
0.66507055
0.66507055
0.66507055
0.66507055
0.66507055
0.66507055
0.66507055