/*--------------------------------*- C++ -*----------------------------------*\
| =========                 |                                                 |
| \\      /  F ield         | OpenFOAM: The Open Source CFD Toolbox           |
|  \\    /   O peration     | Version:  2506                                  |
|   \\  /    A nd           | Website:  www.openfoam.com                      |
|    \\/     M anipulation  |                                                 |
\*---------------------------------------------------------------------------*/
FoamFile
{
    version     2.0;
    format      ascii;
    arch        "LSB;label=32;scalar=64";
    class       volVectorField;
    location    "0.0245";
    object      wallShearStress;
}
// * * * * * * * * * * * * * * * * * * * * * * * * * * * * * * * * * * * * * //

dimensions      [1 -1 -2 0 0 0 0];

internalField   uniform (0 0 0);

boundaryField
{
    Side
    {
        type            empty;
    }
    Inlet
    {
        type            calculated;
        value           uniform (0 0 0);
    }
    Airfoil
    {
        type            calculated;
        value           nonuniform List<vector> 
92
(
(2.7167247 -0.30570177 3.2933618e-16)
(5.0293371 -0.57581953 -1.6318771e-16)
(6.5857307 -0.76173049 -1.5370799e-22)
(6.8932346 -0.80252775 1.5365623e-22)
(4.7388433 -0.56411726 1.5951556e-16)
(1.2883294 -0.16789123 -1.5970788e-16)
(-1.4984141 0.15156487 -1.5046328e-36)
(-3.9606411 0.44206168 1.5987227e-16)
(-5.324026 0.60355235 -3.1983756e-16)
(-5.3475202 0.61082458 -1.4631049e-32)
(-5.2083121 0.59719271 1.5046328e-36)
(-4.8963414 0.56153847 -1.586572e-16)
(-4.5300084 0.51953896 3.1678711e-16)
(-4.0907618 0.46744911 -1.5060037e-22)
(-3.5889941 0.40943919 1.5028167e-22)
(-2.9113736 0.33321528 1.4958144e-22)
(-1.8630429 0.21782964 -1.5650146e-16)
(-0.30447472 0.046480763 -3.1158438e-16)
(1.9446321 -0.19702922 1.1026827e-24)
(4.4909105 -0.47659326 1.474658e-22)
(6.9302266 -0.74201552 -1.5286706e-16)
(8.5333001 -0.92147011 1.5149976e-16)
(8.8375191 -0.9585456 3.0111795e-16)
(6.1646598 -0.68102371 1.4344227e-22)
(1.9010591 -0.22618027 1.442086e-22)
(-1.4548885 0.12938084 -1.434155e-22)
(-4.2407118 0.43263437 -1.8029173e-38)
(-6.2623377 0.65481861 -5.6017478e-33)
(-6.6262999 0.69737132 -3.0458017e-16)
(-6.098462 0.65056201 1.4505413e-22)
(-5.7949957 0.61849387 -1.4478091e-22)
(-5.3720706 0.57043024 -1.4458169e-22)
(-4.9070533 0.51792241 -1.5133704e-16)
(-4.5981605 0.48310263 1.4380099e-22)
(-4.5404522 0.47476388 1.5083026e-16)
(-4.6365787 0.48265385 -1.5065185e-16)
(-4.714781 0.48860477 1.4357117e-22)
(-4.6882238 0.48355138 4.5081725e-33)
(-4.767263 0.48892315 -1.4356459e-22)
(-5.076412 0.51909326 2.8713718e-22)
(-5.1240355 0.52278304 -1.4349089e-22)
(-4.8884147 0.49872176 -3.0051329e-16)
(-4.3164382 0.44145121 1.4988055e-16)
(-3.2100173 0.33179083 -1.4939672e-16)
(-1.4830357 0.16107088 1.4872076e-16)
(0.63761165 -0.047082871 1.4807666e-16)
(2.9543685 -0.27442546 -1.4731424e-16)
(5.2016859 -0.49186157 1.4050706e-22)
(7.1782029 -0.6833702 -5.7397185e-42)
(8.9868263 -0.85411075 -1.378037e-22)
(9.5801138 -0.91381462 1.0784158e-24)
(9.2183615 -0.88536002 1.4429172e-16)
(6.8105167 -0.66113548 1.4430878e-16)
(3.5157719 -0.36794605 -6.6059844e-34)
(0.58172801 -0.081735799 1.4581436e-16)
(-4.4312453 0.38769178 -2.8028544e-22)
(-7.9234647 0.71903137 1.4851499e-16)
(-8.1526203 0.75047298 1.4884135e-16)
(-7.4297546 0.68897228 1.4158919e-22)
(-6.6480635 0.61611929 -1.4108814e-22)
(-5.5028839 0.51316852 -1.4765463e-16)
(-4.2678253 0.39443142 1.5046328e-36)
(-3.8685205 0.35417151 1.4734576e-16)
(-3.8850702 0.35218394 1.4070401e-22)
(-3.9390234 0.35468321 -1.4091404e-22)
(-3.6812651 0.3309096 1.410487e-22)
(-3.4299445 0.3078087 -5.8934223e-26)
(-3.2354571 0.28923832 -5.9187576e-26)
(-2.8303063 0.25197422 1.4785736e-16)
(-1.8324505 0.16614446 3.7615819e-37)
(0.10921757 0.0023068773 2.4787529e-23)
(2.7585096 -0.22143656 2.6778702e-33)
(5.6866825 -0.46547005 -1.4659176e-16)
(7.5894336 -0.62957249 1.3989599e-22)
(7.2934856 -0.61146706 1.4554821e-16)
(3.2749773 -0.29449755 -1.4542657e-16)
(-1.9390541 0.13375035 -1.4695165e-16)
(-6.3400744 0.50771467 -1.5046328e-36)
(-7.0355774 0.57054562 2.2569492e-36)
(-5.5124703 0.45366755 1.4825009e-16)
(-5.3282874 0.43489437 -1.4831707e-16)
(-5.4343617 0.43799429 -7.524282e-26)
(-5.7821154 0.45987876 -1.4915099e-16)
(-5.8969298 0.46689367 -5.6423729e-37)
(-6.2381284 0.4926505 -7.496831e-17)
(-6.7590369 0.53174549 7.5067421e-17)
(-7.4610532 0.58222038 7.5030405e-17)
(-8.1039887 0.62688258 -7.4839516e-17)
(-8.7667795 0.6724836 7.4593358e-17)
(-9.2347573 0.70298833 -1.4620804e-22)
(-9.4832582 0.7165131 1.8116704e-38)
(-9.4938855 0.71153281 1.4117254e-22)
)
;
    }
    Outlet
    {
        type            calculated;
        value           nonuniform List<vector> 0();
    }
    procBoundary11to3
    {
        type            processor;
        value           uniform (0 0 0);
    }
    procBoundary11to4
    {
        type            processor;
        value           uniform (0 0 0);
    }
    procBoundary11to10
    {
        type            processor;
        value           uniform (0 0 0);
    }
    procBoundary11to12
    {
        type            processor;
        value           uniform (0 0 0);
    }
}


// ************************************************************************* //
