/*--------------------------------*- C++ -*----------------------------------*\
| =========                 |                                                 |
| \\      /  F ield         | OpenFOAM: The Open Source CFD Toolbox           |
|  \\    /   O peration     | Version:  2506                                  |
|   \\  /    A nd           | Website:  www.openfoam.com                      |
|    \\/     M anipulation  |                                                 |
\*---------------------------------------------------------------------------*/
FoamFile
{
    version     2.0;
    format      ascii;
    arch        "LSB;label=32;scalar=64";
    class       volScalarField;
    location    "2.991";
    object      p;
}
// * * * * * * * * * * * * * * * * * * * * * * * * * * * * * * * * * * * * * //

dimensions      [1 -1 -2 0 0 0 0];

internalField   nonuniform List<scalar> 
1375
(
47037.583
47037.588
47037.595
47037.602
47037.61
47037.617
47037.452
47037.461
47037.468
47037.477
47037.486
47037.495
47037.504
47037.513
47037.522
47037.531
47037.541
47037.55
47037.56
47037.569
47037.579
47037.588
47037.597
47037.605
47037.612
47037.332
47037.342
47037.35
47037.36
47037.371
47037.382
47037.392
47037.403
47037.414
47037.425
47037.436
47037.448
47037.459
47037.471
47037.482
47037.494
47037.505
47037.515
47037.524
47037.533
47037.539
47037.544
47037.546
47037.545
47037.541
47037.532
47037.518
47037.213
47037.224
47037.234
47037.246
47037.257
47037.27
47037.282
47037.294
47037.307
47037.32
47037.333
47037.346
47037.36
47037.373
47037.387
47037.4
47037.413
47037.425
47037.437
47037.448
47037.456
47037.463
47037.468
47037.47
47037.468
47037.462
47037.452
47037.436
47037.414
47037.385
47037.349
47037.306
47037.253
47037.191
47037.092
47037.105
47037.117
47037.13
47037.144
47037.158
47037.172
47037.186
47037.2
47037.215
47037.23
47037.245
47037.26
47037.275
47037.29
47037.306
47037.32
47037.335
47037.348
47037.361
47037.372
47037.381
47037.388
47037.392
47037.393
47037.39
47037.382
47037.37
47037.352
47037.328
47037.296
47037.258
47037.211
47037.155
47037.089
47037.011
47036.92
47036.813
47036.971
47036.986
47037
47037.015
47037.03
47037.045
47037.061
47037.077
47037.093
47037.109
47037.126
47037.142
47037.159
47037.176
47037.193
47037.209
47037.226
47037.242
47037.257
47037.271
47037.283
47037.294
47037.303
47037.31
47037.313
47037.313
47037.308
47037.299
47037.285
47037.265
47037.239
47037.206
47037.165
47037.115
47037.055
47036.983
47036.895
47036.791
47036.662
47036.517
47036.332
47036.85
47036.867
47036.882
47036.899
47036.916
47036.933
47036.95
47036.967
47036.984
47037.002
47037.02
47037.038
47037.056
47037.074
47037.093
47037.111
47037.128
47037.145
47037.162
47037.177
47037.192
47037.204
47037.215
47037.223
47037.229
47037.231
47037.23
47037.225
47037.214
47037.199
47037.178
47037.15
47037.115
47037.07
47037.016
47036.948
47036.864
47036.762
47036.634
47036.491
47036.308
47036.157
47035.945
47035.911
47036.73
47036.749
47036.765
47036.783
47036.801
47036.82
47036.838
47036.857
47036.875
47036.894
47036.913
47036.932
47036.952
47036.971
47036.99
47037.01
47037.028
47037.047
47037.064
47037.081
47037.097
47037.111
47037.123
47037.133
47037.141
47037.146
47037.148
47037.146
47037.139
47037.128
47037.112
47037.089
47037.059
47037.02
47036.97
47036.906
47036.825
47036.724
47036.599
47036.457
47036.28
47036.135
47035.935
47035.908
47035.689
47035.948
47036.611
47036.631
47036.649
47036.668
47036.687
47036.707
47036.726
47036.746
47036.766
47036.786
47036.806
47036.826
47036.847
47036.867
47036.887
47036.907
47036.927
47036.946
47036.965
47036.983
47036.999
47037.015
47037.029
47037.041
47037.05
47037.058
47037.062
47037.063
47037.061
47037.054
47037.041
47037.023
47036.997
47036.962
47036.915
47036.854
47036.775
47036.677
47036.555
47036.416
47036.247
47036.111
47035.926
47035.908
47035.701
47035.963
47035.634
47036.353
47036.494
47036.516
47036.535
47036.555
47036.575
47036.596
47036.617
47036.637
47036.658
47036.679
47036.7
47036.721
47036.742
47036.763
47036.784
47036.805
47036.826
47036.846
47036.865
47036.884
47036.902
47036.918
47036.933
47036.947
47036.959
47036.968
47036.975
47036.979
47036.979
47036.975
47036.966
47036.951
47036.928
47036.895
47036.851
47036.792
47036.715
47036.619
47036.501
47036.369
47036.211
47036.087
47035.919
47035.91
47035.715
47035.979
47035.648
47036.378
47035.53
47036.382
47036.405
47036.424
47036.446
47036.467
47036.489
47036.51
47036.532
47036.554
47036.576
47036.597
47036.619
47036.641
47036.663
47036.684
47036.705
47036.727
47036.747
47036.767
47036.787
47036.805
47036.823
47036.839
47036.854
47036.867
47036.878
47036.886
47036.892
47036.894
47036.892
47036.884
47036.871
47036.849
47036.818
47036.775
47036.717
47036.643
47036.551
47036.441
47036.318
47036.174
47036.065
47035.914
47035.916
47035.732
47035.996
47035.662
47036.401
47035.537
47036.276
47036.3
47036.32
47036.343
47036.365
47036.388
47036.41
47036.433
47036.454
47036.476
47036.499
47036.521
47036.544
47036.566
47036.588
47036.61
47036.631
47036.653
47036.673
47036.693
47036.712
47036.73
47036.747
47036.762
47036.775
47036.787
47036.796
47036.802
47036.804
47036.802
47036.795
47036.781
47036.759
47036.728
47036.686
47036.63
47036.56
47036.474
47036.374
47036.265
47036.139
47036.046
47035.914
47035.926
47035.753
47036.016
47035.678
47036.422
47035.545
47036.177
47036.202
47036.223
47036.246
47036.269
47036.292
47036.315
47036.338
47036.361
47036.384
47036.407
47036.43
47036.452
47036.475
47036.497
47036.519
47036.54
47036.561
47036.582
47036.601
47036.62
47036.638
47036.654
47036.669
47036.682
47036.692
47036.7
47036.705
47036.706
47036.703
47036.694
47036.679
47036.657
47036.625
47036.584
47036.532
47036.467
47036.391
47036.304
47036.211
47036.106
47036.031
47035.919
47035.941
47035.777
47036.039
47035.696
47036.443
47035.553
47036.082
47036.108
47036.13
47036.154
47036.177
47036.201
47036.224
47036.248
47036.271
47036.294
47036.317
47036.34
47036.363
47036.385
47036.407
47036.429
47036.45
47036.47
47036.49
47036.508
47036.526
47036.542
47036.557
47036.571
47036.582
47036.59
47036.596
47036.599
47036.598
47036.592
47036.581
47036.564
47036.541
47036.511
47036.472
47036.425
47036.369
47036.306
47036.235
47036.161
47036.078
47036.023
47035.929
47035.961
47035.805
47036.065
47035.717
47036.463
47035.562
47035.985
47036.012
47036.034
47036.059
47036.083
47036.107
47036.131
47036.154
47036.178
47036.201
47036.224
47036.247
47036.269
47036.291
47036.312
47036.333
47036.353
47036.373
47036.391
47036.408
47036.424
47036.438
47036.451
47036.462
47036.471
47036.477
47036.48
47036.48
47036.476
47036.468
47036.455
47036.438
47036.415
47036.387
47036.353
47036.314
47036.27
47036.221
47036.169
47036.116
47036.056
47036.02
47035.946
47035.987
47035.839
47036.095
47035.74
47036.485
47035.571
47035.875
47035.904
47035.926
47035.951
47035.976
47036.001
47036.025
47036.049
47036.073
47036.096
47036.119
47036.142
47036.163
47036.185
47036.205
47036.225
47036.244
47036.262
47036.279
47036.295
47036.309
47036.321
47036.331
47036.339
47036.345
47036.349
47036.35
47036.347
47036.341
47036.332
47036.319
47036.303
47036.283
47036.259
47036.233
47036.204
47036.173
47036.142
47036.109
47036.078
47036.041
47036.025
47035.967
47036.017
47035.877
47036.129
47035.767
47036.509
47035.581
47035.744
47035.777
47035.802
47035.827
47035.853
47035.878
47035.902
47035.927
47035.951
47035.974
47035.997
47036.019
47036.041
47036.062
47036.082
47036.101
47036.119
47036.136
47036.151
47036.165
47036.178
47036.188
47036.197
47036.203
47036.207
47036.209
47036.208
47036.205
47036.199
47036.19
47036.179
47036.166
47036.15
47036.134
47036.117
47036.1
47036.085
47036.07
47036.057
47036.048
47036.032
47036.034
47035.995
47036.053
47035.92
47036.168
47035.798
47036.536
47035.592
47035.593
47035.629
47035.656
47035.683
47035.71
47035.736
47035.761
47035.786
47035.81
47035.834
47035.857
47035.879
47035.901
47035.922
47035.942
47035.96
47035.978
47035.994
47036.009
47036.023
47036.034
47036.044
47036.052
47036.058
47036.062
47036.063
47036.063
47036.06
47036.056
47036.049
47036.042
47036.033
47036.025
47036.017
47036.011
47036.007
47036.006
47036.008
47036.014
47036.024
47036.029
47036.049
47036.025
47036.092
47035.968
47036.211
47035.834
47036.567
47035.605
47035.431
47035.467
47035.493
47035.522
47035.55
47035.577
47035.604
47035.63
47035.656
47035.68
47035.704
47035.728
47035.75
47035.772
47035.792
47035.811
47035.829
47035.846
47035.861
47035.875
47035.887
47035.897
47035.906
47035.913
47035.917
47035.92
47035.921
47035.921
47035.92
47035.917
47035.915
47035.912
47035.911
47035.912
47035.916
47035.925
47035.937
47035.955
47035.978
47036.006
47036.029
47036.065
47036.059
47036.134
47036.018
47036.259
47035.873
47036.603
47035.621
47035.265
47035.302
47035.328
47035.359
47035.388
47035.417
47035.445
47035.472
47035.499
47035.525
47035.55
47035.575
47035.598
47035.621
47035.643
47035.663
47035.683
47035.7
47035.717
47035.732
47035.745
47035.757
47035.768
47035.776
47035.783
47035.788
47035.792
47035.795
47035.798
47035.8
47035.802
47035.806
47035.812
47035.821
47035.835
47035.854
47035.879
47035.91
47035.948
47035.991
47036.032
47036.083
47036.092
47036.178
47036.068
47036.31
47035.917
47036.643
47035.64
47035.109
47035.149
47035.175
47035.207
47035.236
47035.266
47035.295
47035.323
47035.351
47035.378
47035.405
47035.431
47035.456
47035.481
47035.504
47035.526
47035.547
47035.567
47035.585
47035.602
47035.618
47035.632
47035.644
47035.655
47035.665
47035.673
47035.68
47035.687
47035.693
47035.699
47035.706
47035.716
47035.728
47035.744
47035.765
47035.793
47035.828
47035.87
47035.921
47035.978
47036.034
47036.101
47036.125
47036.221
47036.122
47036.364
47035.963
47036.688
47035.662
47034.966
47035.007
47035.035
47035.067
47035.098
47035.129
47035.159
47035.189
47035.218
47035.247
47035.275
47035.303
47035.33
47035.356
47035.381
47035.405
47035.428
47035.45
47035.47
47035.49
47035.507
47035.524
47035.539
47035.552
47035.565
47035.576
47035.586
47035.595
47035.604
47035.614
47035.625
47035.638
47035.655
47035.676
47035.703
47035.738
47035.781
47035.833
47035.895
47035.965
47036.035
47036.115
47036.156
47036.263
47036.174
47036.418
47036.011
47036.736
47035.687
47034.836
47034.876
47034.905
47034.939
47034.971
47035.003
47035.036
47035.068
47035.099
47035.13
47035.16
47035.189
47035.218
47035.246
47035.273
47035.299
47035.324
47035.348
47035.371
47035.393
47035.413
47035.432
47035.449
47035.465
47035.48
47035.493
47035.505
47035.517
47035.529
47035.541
47035.555
47035.571
47035.591
47035.616
47035.647
47035.687
47035.737
47035.797
47035.868
47035.948
47036.032
47036.126
47036.183
47036.301
47036.224
47036.472
47036.06
47036.788
47035.716
47034.715
47034.756
47034.785
47034.82
47034.854
47034.888
47034.921
47034.954
47034.986
47035.019
47035.052
47035.083
47035.114
47035.145
47035.174
47035.203
47035.23
47035.257
47035.282
47035.306
47035.329
47035.35
47035.37
47035.388
47035.405
47035.42
47035.435
47035.449
47035.462
47035.476
47035.492
47035.51
47035.532
47035.559
47035.594
47035.638
47035.693
47035.76
47035.839
47035.929
47036.025
47036.132
47036.204
47036.334
47036.269
47036.524
47036.109
47036.843
47035.748
47034.594
47034.637
47034.668
47034.703
47034.738
47034.773
47034.808
47034.843
47034.878
47034.912
47034.947
47034.98
47035.014
47035.046
47035.078
47035.11
47035.14
47035.169
47035.197
47035.224
47035.249
47035.273
47035.295
47035.316
47035.335
47035.353
47035.369
47035.385
47035.4
47035.416
47035.433
47035.453
47035.477
47035.506
47035.544
47035.591
47035.651
47035.722
47035.808
47035.907
47036.014
47036.132
47036.218
47036.36
47036.308
47036.571
47036.154
47036.899
47035.783
47034.619
47034.656
47034.692
47034.729
47034.766
47034.802
47034.839
47034.875
47034.91
47034.946
47034.98
47035.014
47035.047
47035.08
47035.111
47035.14
47035.169
47035.196
47035.221
47035.244
47035.266
47035.286
47035.305
47035.323
47035.341
47035.358
47035.377
47035.399
47035.424
47035.456
47035.496
47035.547
47035.609
47035.687
47035.778
47035.883
47035.998
47036.125
47036.224
47036.377
47036.339
47036.611
47036.196
47036.954
47035.821
47034.685
47034.724
47034.762
47034.801
47034.839
47034.876
47034.913
47034.949
47034.985
47035.019
47035.052
47035.084
47035.115
47035.143
47035.17
47035.195
47035.219
47035.241
47035.262
47035.282
47035.302
47035.324
47035.348
47035.376
47035.41
47035.453
47035.506
47035.572
47035.652
47035.749
47035.858
47035.979
47036.113
47036.222
47036.385
47036.36
47036.645
47036.233
47037.009
47035.861
47034.805
47034.844
47034.883
47034.921
47034.958
47034.994
47035.028
47035.061
47035.092
47035.122
47035.149
47035.175
47035.2
47035.225
47035.249
47035.274
47035.301
47035.333
47035.37
47035.416
47035.472
47035.54
47035.623
47035.72
47035.834
47035.958
47036.096
47036.213
47036.383
47036.371
47036.669
47036.264
47037.062
47035.902
47034.857
47034.897
47034.936
47034.973
47035.01
47035.044
47035.077
47035.109
47035.139
47035.168
47035.198
47035.228
47035.26
47035.296
47035.337
47035.386
47035.445
47035.515
47035.599
47035.697
47035.809
47035.935
47036.074
47036.195
47036.372
47036.371
47036.684
47036.288
47037.111
47035.945
47034.922
47034.963
47035.002
47035.04
47035.077
47035.113
47035.149
47035.185
47035.223
47035.265
47035.311
47035.364
47035.426
47035.498
47035.582
47035.679
47035.79
47035.912
47036.049
47036.172
47036.353
47036.363
47036.691
47036.304
47037.156
47035.987
47035.013
47035.057
47035.101
47035.145
47035.191
47035.24
47035.292
47035.35
47035.415
47035.488
47035.572
47035.667
47035.773
47035.892
47036.025
47036.147
47036.329
47036.348
47036.691
47036.315
47037.198
47036.028
47035.106
47035.161
47035.217
47035.276
47035.34
47035.408
47035.484
47035.567
47035.659
47035.761
47035.875
47036.002
47036.122
47036.302
47036.33
47036.686
47036.322
47037.236
47036.067
47035.26
47035.33
47035.403
47035.481
47035.564
47035.654
47035.752
47035.86
47035.981
47036.098
47036.277
47036.311
47036.68
47036.325
47037.269
47036.101
47035.393
47035.474
47035.558
47035.648
47035.744
47035.848
47035.965
47036.079
47036.257
47036.297
47036.676
47036.328
47037.3
47036.131
47035.638
47035.735
47035.839
47035.955
47036.069
47036.245
47036.29
47036.678
47036.334
47037.333
47036.153
47035.832
47035.95
47036.068
47036.245
47036.295
47036.687
47036.344
47037.373
47036.169
47036.077
47036.258
47036.311
47036.706
47036.356
47037.407
47036.176
47036.281
47036.339
47036.732
47036.372
47037.431
47036.171
47036.763
47036.388
47037.453
47036.152
47036.4
47037.472
47036.116
47037.481
47036.062
)
;

boundaryField
{
    Side
    {
        type            empty;
    }
    Inlet
    {
        type            totalPressure;
        rho             rho;
        psi             none;
        gamma           1;
        p0              uniform 50000;
        value           nonuniform List<scalar> 
32
(
47036.94
47036.953
47036.962
47036.97
47036.975
47036.979
47036.982
47036.984
47036.985
47036.986
47036.988
47036.989
47036.991
47036.993
47036.995
47036.998
47037
47037.001
47037.002
47037.002
47037.001
47036.998
47036.993
47036.986
47036.977
47036.966
47036.953
47036.936
47036.916
47036.894
47036.869
47036.844
)
;
    }
    Airfoil
    {
        type            zeroGradient;
    }
    Outlet
    {
        type            fixedValue;
        value           nonuniform List<scalar> 0();
    }
    procBoundary4to3
    {
        type            processor;
        value           nonuniform List<scalar> 
57
(
47037.705
47037.709
47037.715
47037.721
47037.727
47037.732
47037.625
47037.625
47037.632
47037.639
47037.647
47037.654
47037.662
47037.669
47037.676
47037.683
47037.69
47037.695
47037.7
47037.618
47037.618
47037.622
47037.624
47037.623
47037.619
47037.612
47037.6
47037.583
47037.499
47037.499
47037.473
47037.44
47037.399
47037.35
47037.292
47037.224
47037.119
47037.119
47037.036
47036.939
47036.829
47036.682
47036.682
47036.538
47036.35
47036.178
47036.178
47035.955
47035.915
47035.681
47035.681
47035.934
47035.621
47035.621
47036.327
47035.523
47035.523
)
;
    }
    procBoundary4to5
    {
        type            processor;
        value           nonuniform List<scalar> 
64
(
47034.515
47034.546
47034.583
47034.583
47034.494
47034.532
47034.57
47034.608
47034.647
47034.647
47034.561
47034.602
47034.642
47034.683
47034.724
47034.764
47034.764
47034.688
47034.731
47034.773
47034.815
47034.815
47034.747
47034.792
47034.837
47034.88
47034.88
47034.828
47034.876
47034.923
47034.968
47034.968
47034.946
47034.999
47035.052
47035.052
47035.064
47035.128
47035.193
47035.193
47035.238
47035.315
47035.315
47035.372
47035.458
47035.547
47035.547
47035.622
47035.723
47035.723
47035.827
47035.953
47035.953
47036.096
47036.096
47036.312
47036.373
47036.373
47036.791
47036.791
47036.401
47036.401
47037.478
47035.992
)
;
    }
    procBoundary4to11
    {
        type            processor;
        value           nonuniform List<scalar> 
26
(
47037.453
47037.332
47037.212
47037.09
47036.968
47036.846
47036.725
47036.606
47036.488
47036.374
47036.267
47036.166
47036.07
47035.975
47035.866
47035.737
47035.589
47035.426
47035.26
47035.1
47034.956
47034.825
47034.702
47034.58
47037.576
47037.576
)
;
    }
    procBoundary4to12
    {
        type            processor;
        value           uniform 47034.468;
    }
}


// ************************************************************************* //
