/*--------------------------------*- C++ -*----------------------------------*\
| =========                 |                                                 |
| \\      /  F ield         | OpenFOAM: The Open Source CFD Toolbox           |
|  \\    /   O peration     | Version:  2506                                  |
|   \\  /    A nd           | Website:  www.openfoam.com                      |
|    \\/     M anipulation  |                                                 |
\*---------------------------------------------------------------------------*/
FoamFile
{
    version     2.0;
    format      ascii;
    arch        "LSB;label=32;scalar=64";
    class       volScalarField;
    location    "0.0245";
    object      alphat;
}
// * * * * * * * * * * * * * * * * * * * * * * * * * * * * * * * * * * * * * //

dimensions      [1 -1 -1 0 0 0 0];

internalField   nonuniform List<scalar> 
13762
(
6.577627e-06
6.5776061e-06
6.5784412e-06
6.5801559e-06
6.5814529e-06
6.5818436e-06
6.5817423e-06
6.581752e-06
6.5817339e-06
6.5823849e-06
6.582564e-06
6.5805819e-06
6.5816726e-06
6.5861321e-06
6.5782616e-06
6.579652e-06
6.5810085e-06
6.5815263e-06
6.5815569e-06
6.5816762e-06
6.5817052e-06
6.582377e-06
6.5825623e-06
6.5805813e-06
6.5816727e-06
6.5861335e-06
6.5795805e-06
6.5804891e-06
6.5809784e-06
6.5811377e-06
6.5814427e-06
6.5815837e-06
6.5823342e-06
6.5825496e-06
6.5805755e-06
6.5816707e-06
6.5861354e-06
6.5806796e-06
6.5806544e-06
6.5809865e-06
6.5812478e-06
6.5821656e-06
6.5824733e-06
6.5805338e-06
6.5816537e-06
6.5861366e-06
6.5806565e-06
6.5807815e-06
6.5817781e-06
6.5821958e-06
6.5803599e-06
6.581559e-06
6.5861203e-06
6.5814391e-06
6.5816284e-06
6.5800217e-06
6.5812382e-06
6.5860581e-06
6.5807305e-06
6.585788e-06
6.5878928e-06
6.5878654e-06
6.5878037e-06
6.5875614e-06
6.5874063e-06
6.5873898e-06
6.5896589e-06
6.589595e-06
6.5894743e-06
6.5893434e-06
6.5896629e-06
6.5920707e-06
6.5920096e-06
6.5918396e-06
6.5918114e-06
6.5936195e-06
6.5935027e-06
6.593123e-06
6.5929442e-06
6.5937979e-06
6.593437e-06
6.5923363e-06
6.5929561e-06
6.5924462e-06
6.5916305e-06
6.5909762e-06
6.5901981e-06
6.5880698e-06
6.5878275e-06
6.5841241e-06
6.5838338e-06
6.5795659e-06
6.5792732e-06
6.5753777e-06
6.5751127e-06
6.5721766e-06
6.5703802e-06
6.5695981e-06
6.5696984e-06
6.5706337e-06
6.572497e-06
6.5747411e-06
6.5769414e-06
6.5787503e-06
6.5797355e-06
6.5800909e-06
6.5801932e-06
6.5802258e-06
6.5878964e-06
6.5878922e-06
6.5878873e-06
6.5878827e-06
6.5878789e-06
6.5878754e-06
6.5878725e-06
6.5878697e-06
6.5878674e-06
6.5878648e-06
6.5878629e-06
6.5878608e-06
6.5878589e-06
6.5878566e-06
6.5878548e-06
6.5878526e-06
6.587851e-06
6.5878494e-06
6.587848e-06
6.587847e-06
6.5878455e-06
6.5878441e-06
6.5878429e-06
6.5878414e-06
6.5878401e-06
6.5878387e-06
6.5878376e-06
6.5878361e-06
6.5878348e-06
6.5878335e-06
6.5878323e-06
6.587831e-06
6.5878298e-06
6.5878287e-06
6.5878275e-06
6.5878261e-06
6.5878249e-06
6.5878235e-06
6.5878222e-06
6.5878212e-06
6.58782e-06
6.5878191e-06
6.5878181e-06
6.5878175e-06
6.5878163e-06
6.5878155e-06
6.5878148e-06
6.5878139e-06
6.5878134e-06
6.5878133e-06
6.5878125e-06
6.5878124e-06
6.5878127e-06
6.5878129e-06
6.5878134e-06
6.5878139e-06
6.5878141e-06
6.5878146e-06
6.5878153e-06
6.5878165e-06
6.5878176e-06
6.5878188e-06
6.58782e-06
6.5878217e-06
6.5878235e-06
6.5878256e-06
6.5878276e-06
6.5878297e-06
6.5878324e-06
6.5878358e-06
6.5878391e-06
6.5878432e-06
6.5878483e-06
6.5878532e-06
6.587859e-06
6.5878644e-06
6.5878707e-06
6.5878787e-06
6.5878881e-06
6.5879007e-06
6.5879155e-06
6.5879315e-06
6.587949e-06
6.5879682e-06
6.5879897e-06
6.5880123e-06
6.5880378e-06
6.5880657e-06
6.5880958e-06
6.5881299e-06
6.588168e-06
6.5882107e-06
6.5882575e-06
6.5883079e-06
6.5883622e-06
6.5884206e-06
6.5884833e-06
6.5885527e-06
6.5886298e-06
6.5887143e-06
6.588806e-06
6.5889058e-06
6.5890139e-06
6.5891314e-06
6.5892582e-06
6.5893944e-06
6.589539e-06
6.5896925e-06
6.5898539e-06
6.5900206e-06
6.5901893e-06
6.5903528e-06
6.5904993e-06
6.5906143e-06
6.5906799e-06
6.5906761e-06
6.5905889e-06
6.5904077e-06
6.590113e-06
6.5896908e-06
6.5891477e-06
6.5884981e-06
6.5877539e-06
6.5869694e-06
6.5861659e-06
6.5853249e-06
6.5842674e-06
6.582841e-06
6.5811284e-06
6.5793724e-06
6.5779212e-06
6.5770972e-06
6.5771056e-06
6.5776175e-06
6.5783417e-06
6.579637e-06
6.5813293e-06
6.583231e-06
6.5847966e-06
6.5869207e-06
6.5859216e-06
6.5896497e-06
6.5855184e-06
6.5942181e-06
6.5818286e-06
6.5962803e-06
6.5794578e-06
6.6005526e-06
6.9082455e-06
6.5896569e-06
6.5896438e-06
6.5896312e-06
6.5896195e-06
6.589609e-06
6.5895994e-06
6.5895912e-06
6.5895818e-06
6.5895739e-06
6.589566e-06
6.589559e-06
6.5895522e-06
6.5895451e-06
6.5895379e-06
6.5895323e-06
6.5895263e-06
6.5895201e-06
6.5895138e-06
6.5895083e-06
6.5895038e-06
6.5894991e-06
6.5894942e-06
6.5894882e-06
6.5894838e-06
6.5894789e-06
6.5894734e-06
6.5894689e-06
6.5894638e-06
6.5894598e-06
6.5894561e-06
6.5894507e-06
6.5894472e-06
6.5894437e-06
6.5894399e-06
6.5894349e-06
6.5894313e-06
6.5894273e-06
6.5894237e-06
6.58942e-06
6.5894163e-06
6.5894128e-06
6.5894094e-06
6.5894058e-06
6.5894026e-06
6.5893987e-06
6.5893951e-06
6.5893927e-06
6.5893888e-06
6.5893858e-06
6.5893818e-06
6.5893787e-06
6.5893755e-06
6.5893733e-06
6.5893696e-06
6.5893662e-06
6.5893639e-06
6.5893614e-06
6.5893585e-06
6.5893552e-06
6.589353e-06
6.5893504e-06
6.5893496e-06
6.5893472e-06
6.5893446e-06
6.589343e-06
6.5893404e-06
6.5893383e-06
6.5893378e-06
6.5893364e-06
6.5893363e-06
6.5893357e-06
6.5893345e-06
6.589335e-06
6.5893364e-06
6.5893382e-06
6.5893402e-06
6.5893429e-06
6.5893478e-06
6.5893549e-06
6.5893639e-06
6.5893749e-06
6.5893873e-06
6.5894021e-06
6.5894181e-06
6.5894371e-06
6.5894587e-06
6.5894834e-06
6.5895104e-06
6.589539e-06
6.5895723e-06
6.5896098e-06
6.5896512e-06
6.5896983e-06
6.5897483e-06
6.5898018e-06
6.5898589e-06
6.589919e-06
6.5899848e-06
6.5900558e-06
6.590131e-06
6.5902129e-06
6.5902978e-06
6.5903875e-06
6.5904824e-06
6.5905805e-06
6.5906821e-06
6.5907857e-06
6.59089e-06
6.5909948e-06
6.5910937e-06
6.5911871e-06
6.5912725e-06
6.5913454e-06
6.5914048e-06
6.5914467e-06
6.5914636e-06
6.5914486e-06
6.5913945e-06
6.5912808e-06
6.5910599e-06
6.5906528e-06
6.5899583e-06
6.5889451e-06
6.5876785e-06
6.5862269e-06
6.5846536e-06
6.5829277e-06
6.5810456e-06
6.5792775e-06
6.5778832e-06
6.5770592e-06
6.5768542e-06
6.5772268e-06
6.5778277e-06
6.5785725e-06
6.5800817e-06
6.5818823e-06
6.5837805e-06
6.5853129e-06
6.5871519e-06
6.586052e-06
6.5897547e-06
6.5855608e-06
6.5942378e-06
6.5817666e-06
6.5963118e-06
6.5793995e-06
6.6004898e-06
6.8869358e-06
6.5920551e-06
6.5920352e-06
6.5920172e-06
6.5920004e-06
6.5919853e-06
6.5919706e-06
6.5919572e-06
6.5919439e-06
6.5919315e-06
6.5919185e-06
6.5919068e-06
6.5918944e-06
6.5918836e-06
6.591873e-06
6.5918634e-06
6.5918534e-06
6.5918442e-06
6.5918347e-06
6.5918252e-06
6.5918159e-06
6.5918072e-06
6.5917988e-06
6.5917893e-06
6.5917799e-06
6.5917716e-06
6.5917627e-06
6.5917546e-06
6.5917466e-06
6.5917385e-06
6.5917312e-06
6.5917226e-06
6.5917151e-06
6.5917083e-06
6.5917005e-06
6.5916924e-06
6.5916853e-06
6.5916775e-06
6.5916699e-06
6.5916633e-06
6.5916557e-06
6.5916489e-06
6.5916416e-06
6.5916353e-06
6.5916279e-06
6.5916213e-06
6.5916143e-06
6.5916081e-06
6.5916011e-06
6.5915949e-06
6.5915877e-06
6.5915816e-06
6.5915754e-06
6.5915683e-06
6.5915617e-06
6.5915551e-06
6.5915489e-06
6.5915417e-06
6.591536e-06
6.5915301e-06
6.5915243e-06
6.5915184e-06
6.5915131e-06
6.5915073e-06
6.591501e-06
6.5914956e-06
6.5914898e-06
6.5914842e-06
6.5914795e-06
6.5914746e-06
6.591471e-06
6.5914679e-06
6.5914645e-06
6.5914624e-06
6.5914615e-06
6.5914609e-06
6.5914608e-06
6.5914622e-06
6.5914638e-06
6.5914678e-06
6.5914719e-06
6.5914781e-06
6.5914851e-06
6.5914946e-06
6.591507e-06
6.5915214e-06
6.5915413e-06
6.5915637e-06
6.5915864e-06
6.5916103e-06
6.5916376e-06
6.5916688e-06
6.591703e-06
6.591742e-06
6.5917831e-06
6.591828e-06
6.5918752e-06
6.5919254e-06
6.5919794e-06
6.5920385e-06
6.5921009e-06
6.5921686e-06
6.5922387e-06
6.5923127e-06
6.5923902e-06
6.59247e-06
6.5925526e-06
6.592636e-06
6.5927198e-06
6.5928035e-06
6.592884e-06
6.5929598e-06
6.5930255e-06
6.5930739e-06
6.593098e-06
6.5930826e-06
6.5930062e-06
6.5928327e-06
6.5925141e-06
6.5919942e-06
6.5912216e-06
6.5901744e-06
6.5888837e-06
6.5874147e-06
6.5858129e-06
6.5841121e-06
6.5823377e-06
6.5805559e-06
6.5789461e-06
6.5776318e-06
6.5767978e-06
6.5764966e-06
6.5766554e-06
6.5770711e-06
6.5776905e-06
6.5788301e-06
6.5806595e-06
6.5826004e-06
6.5844765e-06
6.5858294e-06
6.5873278e-06
6.5861341e-06
6.5898585e-06
6.5856155e-06
6.5942824e-06
6.5816439e-06
6.5963782e-06
6.5793004e-06
6.600531e-06
6.8784291e-06
6.593615e-06
6.5936089e-06
6.5936031e-06
6.5935977e-06
6.5935935e-06
6.5935892e-06
6.5935849e-06
6.5935809e-06
6.5935774e-06
6.5935731e-06
6.5935692e-06
6.593565e-06
6.5935607e-06
6.5935567e-06
6.5935541e-06
6.5935528e-06
6.5935502e-06
6.5935476e-06
6.5935442e-06
6.5935399e-06
6.5935363e-06
6.5935332e-06
6.5935306e-06
6.5935267e-06
6.5935238e-06
6.5935206e-06
6.5935177e-06
6.5935152e-06
6.5935137e-06
6.5935119e-06
6.5935088e-06
6.5935056e-06
6.5935026e-06
6.5934996e-06
6.5934962e-06
6.5934925e-06
6.5934894e-06
6.5934855e-06
6.5934827e-06
6.5934799e-06
6.5934771e-06
6.5934732e-06
6.5934709e-06
6.5934677e-06
6.5934647e-06
6.593463e-06
6.5934603e-06
6.5934577e-06
6.5934555e-06
6.5934537e-06
6.5934522e-06
6.5934512e-06
6.5934492e-06
6.5934477e-06
6.5934462e-06
6.593445e-06
6.5934427e-06
6.5934413e-06
6.5934404e-06
6.5934396e-06
6.5934389e-06
6.5934375e-06
6.5934367e-06
6.5934359e-06
6.5934339e-06
6.5934317e-06
6.5934303e-06
6.5934286e-06
6.5934275e-06
6.5934269e-06
6.5934271e-06
6.5934274e-06
6.5934285e-06
6.5934291e-06
6.59343e-06
6.5934299e-06
6.5934314e-06
6.5934328e-06
6.5934366e-06
6.5934401e-06
6.5934445e-06
6.5934499e-06
6.5934561e-06
6.5934635e-06
6.593472e-06
6.5934857e-06
6.593501e-06
6.5935145e-06
6.5935285e-06
6.5935446e-06
6.5935621e-06
6.5935811e-06
6.5936016e-06
6.5936225e-06
6.5936438e-06
6.5936643e-06
6.5936864e-06
6.5937099e-06
6.5937352e-06
6.5937611e-06
6.5937869e-06
6.5938135e-06
6.5938396e-06
6.5938641e-06
6.5938863e-06
6.5939025e-06
6.5939116e-06
6.5939115e-06
6.5938964e-06
6.5938598e-06
6.5937912e-06
6.5936788e-06
6.5935071e-06
6.5932593e-06
6.5929096e-06
6.5924342e-06
6.5918077e-06
6.5910106e-06
6.5900309e-06
6.588872e-06
6.5875533e-06
6.5861035e-06
6.5845523e-06
6.5829309e-06
6.5812821e-06
6.5796713e-06
6.5781917e-06
6.5769465e-06
6.5761492e-06
6.5758059e-06
6.5758441e-06
6.5761912e-06
6.576833e-06
6.577849e-06
6.5794652e-06
6.5814803e-06
6.583436e-06
6.5851634e-06
6.5862426e-06
6.5874615e-06
6.5861851e-06
6.5899681e-06
6.585617e-06
6.594326e-06
6.5814962e-06
6.5964531e-06
6.5792066e-06
6.6005809e-06
6.8757752e-06
6.593816e-06
6.5938194e-06
6.5938215e-06
6.5938234e-06
6.5938253e-06
6.5938274e-06
6.5938288e-06
6.5938308e-06
6.593832e-06
6.5938334e-06
6.5938347e-06
6.5938364e-06
6.5938379e-06
6.5938384e-06
6.5938402e-06
6.5938433e-06
6.5938455e-06
6.5938469e-06
6.5938478e-06
6.5938481e-06
6.5938486e-06
6.5938489e-06
6.5938508e-06
6.5938517e-06
6.5938524e-06
6.5938534e-06
6.593855e-06
6.593857e-06
6.5938583e-06
6.5938604e-06
6.5938616e-06
6.5938635e-06
6.5938663e-06
6.5938696e-06
6.5938729e-06
6.5938752e-06
6.5938778e-06
6.59388e-06
6.5938812e-06
6.5938831e-06
6.5938858e-06
6.5938876e-06
6.5938902e-06
6.5938927e-06
6.5938954e-06
6.5938982e-06
6.5939e-06
6.5939027e-06
6.5939053e-06
6.593908e-06
6.5939097e-06
6.593911e-06
6.5939134e-06
6.5939162e-06
6.5939179e-06
6.5939213e-06
6.5939228e-06
6.5939256e-06
6.5939286e-06
6.5939324e-06
6.5939352e-06
6.5939382e-06
6.5939419e-06
6.5939459e-06
6.5939496e-06
6.5939513e-06
6.5939543e-06
6.5939566e-06
6.5939613e-06
6.5939658e-06
6.5939708e-06
6.5939754e-06
6.5939792e-06
6.5939824e-06
6.5939863e-06
6.5939906e-06
6.5939965e-06
6.5940026e-06
6.5940088e-06
6.5940169e-06
6.5940234e-06
6.5940298e-06
6.5940374e-06
6.5940447e-06
6.594052e-06
6.5940624e-06
6.5940742e-06
6.5940841e-06
6.5940925e-06
6.5941003e-06
6.594106e-06
6.5941108e-06
6.5941148e-06
6.5941165e-06
6.5941152e-06
6.5941106e-06
6.5941033e-06
6.5940924e-06
6.594077e-06
6.594056e-06
6.5940279e-06
6.5939918e-06
6.5939446e-06
6.593884e-06
6.5938056e-06
6.5937049e-06
6.5935795e-06
6.5934226e-06
6.5932249e-06
6.5929788e-06
6.5926718e-06
6.5922941e-06
6.5918315e-06
6.591272e-06
6.5906005e-06
6.5898086e-06
6.5888899e-06
6.5878453e-06
6.586681e-06
6.585407e-06
6.5840402e-06
6.5826025e-06
6.581123e-06
6.5796419e-06
6.5782163e-06
6.5769239e-06
6.5758678e-06
6.5751771e-06
6.5748344e-06
6.5748669e-06
6.5753192e-06
6.5760414e-06
6.5770645e-06
6.5785705e-06
6.5804832e-06
6.5824763e-06
6.5842998e-06
6.5857878e-06
6.5865568e-06
6.5875749e-06
6.5862466e-06
6.5900922e-06
6.5855997e-06
6.5943269e-06
6.5813866e-06
6.5965322e-06
6.5791058e-06
6.6006064e-06
6.8816201e-06
6.5929984e-06
6.5930081e-06
6.593014e-06
6.5930206e-06
6.5930256e-06
6.5930307e-06
6.5930354e-06
6.5930404e-06
6.5930451e-06
6.5930491e-06
6.5930529e-06
6.5930571e-06
6.5930614e-06
6.5930653e-06
6.5930683e-06
6.5930725e-06
6.5930769e-06
6.5930819e-06
6.5930864e-06
6.5930902e-06
6.5930943e-06
6.5930975e-06
6.5931003e-06
6.5931038e-06
6.5931075e-06
6.5931119e-06
6.5931162e-06
6.5931205e-06
6.5931242e-06
6.5931279e-06
6.5931312e-06
6.5931342e-06
6.5931374e-06
6.5931413e-06
6.5931457e-06
6.59315e-06
6.593154e-06
6.593158e-06
6.5931624e-06
6.5931666e-06
6.5931704e-06
6.5931745e-06
6.5931784e-06
6.5931827e-06
6.5931861e-06
6.5931901e-06
6.5931941e-06
6.5931984e-06
6.5932022e-06
6.5932059e-06
6.5932096e-06
6.5932136e-06
6.5932171e-06
6.5932211e-06
6.5932251e-06
6.5932306e-06
6.5932348e-06
6.5932391e-06
6.5932432e-06
6.5932481e-06
6.5932535e-06
6.5932588e-06
6.5932644e-06
6.5932688e-06
6.5932731e-06
6.5932765e-06
6.5932814e-06
6.5932861e-06
6.5932916e-06
6.5932962e-06
6.5933004e-06
6.5933048e-06
6.5933071e-06
6.5933096e-06
6.593312e-06
6.5933148e-06
6.5933175e-06
6.5933201e-06
6.5933227e-06
6.5933248e-06
6.5933255e-06
6.593325e-06
6.5933253e-06
6.5933227e-06
6.5933174e-06
6.5933117e-06
6.5933039e-06
6.5932929e-06
6.5932773e-06
6.5932581e-06
6.5932334e-06
6.5932051e-06
6.5931713e-06
6.5931313e-06
6.5930849e-06
6.5930299e-06
6.5929661e-06
6.5928919e-06
6.5928052e-06
6.5927047e-06
6.5925877e-06
6.5924506e-06
6.5922921e-06
6.5921077e-06
6.5918925e-06
6.5916431e-06
6.5913553e-06
6.5910214e-06
6.5906344e-06
6.590188e-06
6.5896749e-06
6.5890897e-06
6.588426e-06
6.5876801e-06
6.5868475e-06
6.5859297e-06
6.5849253e-06
6.5838382e-06
6.582677e-06
6.581455e-06
6.5801933e-06
6.5789199e-06
6.5776741e-06
6.5765085e-06
6.5754842e-06
6.5746687e-06
6.5741367e-06
6.5739126e-06
6.5740652e-06
6.5745982e-06
6.5753903e-06
6.5764649e-06
6.5779488e-06
6.5797798e-06
6.581715e-06
6.5835271e-06
6.5851378e-06
6.586352e-06
6.5867801e-06
6.5876455e-06
6.5863336e-06
6.5902468e-06
6.5855498e-06
6.5942716e-06
6.5812973e-06
6.5966195e-06
6.5789962e-06
6.6007381e-06
6.8886846e-06
6.5910491e-06
6.5910603e-06
6.5910649e-06
6.5910719e-06
6.5910767e-06
6.5910815e-06
6.5910857e-06
6.5910904e-06
6.5910948e-06
6.5910986e-06
6.5911023e-06
6.5911068e-06
6.5911106e-06
6.5911146e-06
6.5911182e-06
6.591122e-06
6.591127e-06
6.5911317e-06
6.5911361e-06
6.5911411e-06
6.5911452e-06
6.5911488e-06
6.5911527e-06
6.5911567e-06
6.591161e-06
6.591166e-06
6.5911717e-06
6.5911764e-06
6.591182e-06
6.5911863e-06
6.5911908e-06
6.5911961e-06
6.5911993e-06
6.5912039e-06
6.5912089e-06
6.5912135e-06
6.5912184e-06
6.5912234e-06
6.5912282e-06
6.5912333e-06
6.5912382e-06
6.5912432e-06
6.5912485e-06
6.5912538e-06
6.5912581e-06
6.5912627e-06
6.5912669e-06
6.5912714e-06
6.5912757e-06
6.5912806e-06
6.5912855e-06
6.5912903e-06
6.5912944e-06
6.5912982e-06
6.5913021e-06
6.5913062e-06
6.59131e-06
6.5913133e-06
6.5913172e-06
6.5913212e-06
6.5913238e-06
6.5913269e-06
6.5913297e-06
6.5913315e-06
6.5913329e-06
6.5913337e-06
6.5913349e-06
6.5913357e-06
6.5913363e-06
6.5913351e-06
6.5913325e-06
6.591329e-06
6.5913242e-06
6.5913186e-06
6.5913122e-06
6.591304e-06
6.5912953e-06
6.591285e-06
6.5912732e-06
6.5912602e-06
6.5912444e-06
6.5912246e-06
6.5912014e-06
6.5911738e-06
6.5911421e-06
6.5911057e-06
6.5910644e-06
6.5910178e-06
6.5909652e-06
6.5909057e-06
6.5908389e-06
6.5907644e-06
6.5906803e-06
6.5905868e-06
6.5904834e-06
6.5903668e-06
6.5902363e-06
6.5900902e-06
6.5899261e-06
6.5897424e-06
6.5895376e-06
6.5893079e-06
6.589051e-06
6.5887651e-06
6.5884459e-06
6.5880904e-06
6.5876947e-06
6.5872537e-06
6.5867637e-06
6.5862217e-06
6.5856234e-06
6.5849662e-06
6.5842471e-06
6.5834665e-06
6.5826242e-06
6.5817247e-06
6.5807737e-06
6.5797805e-06
6.5787589e-06
6.5777296e-06
6.5767168e-06
6.5757542e-06
6.5748805e-06
6.5741365e-06
6.5735788e-06
6.573263e-06
6.5732194e-06
6.5734954e-06
6.5740738e-06
6.574896e-06
6.5759989e-06
6.5774599e-06
6.5792708e-06
6.5811769e-06
6.582963e-06
6.5845622e-06
6.5859174e-06
6.5868182e-06
6.5869238e-06
6.5876642e-06
6.5864353e-06
6.5904228e-06
6.585448e-06
6.5941853e-06
6.5812165e-06
6.596736e-06
6.5788904e-06
6.6009357e-06
6.8962961e-06
6.5881428e-06
6.5881537e-06
6.5881566e-06
6.5881634e-06
6.5881679e-06
6.5881728e-06
6.5881769e-06
6.5881814e-06
6.5881862e-06
6.5881903e-06
6.5881946e-06
6.5881994e-06
6.5882033e-06
6.5882081e-06
6.5882122e-06
6.5882163e-06
6.588222e-06
6.5882271e-06
6.588232e-06
6.5882363e-06
6.5882411e-06
6.5882456e-06
6.58825e-06
6.5882551e-06
6.5882596e-06
6.5882648e-06
6.5882707e-06
6.5882763e-06
6.5882822e-06
6.5882874e-06
6.5882924e-06
6.5882977e-06
6.5883026e-06
6.5883074e-06
6.5883132e-06
6.5883181e-06
6.5883235e-06
6.5883288e-06
6.5883338e-06
6.5883387e-06
6.5883436e-06
6.5883489e-06
6.5883535e-06
6.5883586e-06
6.5883629e-06
6.5883671e-06
6.5883714e-06
6.5883753e-06
6.5883793e-06
6.588385e-06
6.5883888e-06
6.5883925e-06
6.5883957e-06
6.5883988e-06
6.5884009e-06
6.5884027e-06
6.5884051e-06
6.5884061e-06
6.5884073e-06
6.5884076e-06
6.5884074e-06
6.5884066e-06
6.5884059e-06
6.5884041e-06
6.588401e-06
6.5883965e-06
6.5883918e-06
6.5883862e-06
6.5883786e-06
6.5883695e-06
6.5883579e-06
6.5883452e-06
6.5883312e-06
6.5883153e-06
6.5882976e-06
6.5882769e-06
6.5882537e-06
6.5882279e-06
6.5881983e-06
6.5881663e-06
6.5881306e-06
6.5880896e-06
6.5880438e-06
6.5879921e-06
6.5879351e-06
6.5878723e-06
6.5878023e-06
6.5877254e-06
6.5876418e-06
6.5875498e-06
6.5874484e-06
6.5873371e-06
6.5872143e-06
6.5870803e-06
6.586934e-06
6.5867726e-06
6.5865952e-06
6.586401e-06
6.5861871e-06
6.5859532e-06
6.585697e-06
6.5854167e-06
6.5851105e-06
6.584776e-06
6.5844104e-06
6.5840117e-06
6.5835764e-06
6.5831029e-06
6.5825891e-06
6.5820342e-06
6.5814374e-06
6.5807983e-06
6.5801186e-06
6.5794019e-06
6.5786525e-06
6.5778774e-06
6.5770865e-06
6.5762924e-06
6.5755122e-06
6.5747671e-06
6.5740809e-06
6.573482e-06
6.5730063e-06
6.5726944e-06
6.5725741e-06
6.5726769e-06
6.573044e-06
6.5736604e-06
6.5745057e-06
6.5756295e-06
6.5770849e-06
6.5788664e-06
6.5807924e-06
6.582591e-06
6.5841853e-06
6.5855742e-06
6.5866305e-06
6.587162e-06
6.5869722e-06
6.5876377e-06
6.5865455e-06
6.5906145e-06
6.5853216e-06
6.5940707e-06
6.5810866e-06
6.5968716e-06
6.5787774e-06
6.6011024e-06
6.904468e-06
6.5842043e-06
6.584215e-06
6.5842182e-06
6.5842257e-06
6.5842309e-06
6.5842371e-06
6.5842424e-06
6.5842478e-06
6.5842539e-06
6.5842591e-06
6.5842652e-06
6.5842712e-06
6.5842773e-06
6.5842835e-06
6.5842899e-06
6.5842956e-06
6.5843022e-06
6.5843089e-06
6.5843157e-06
6.5843222e-06
6.5843288e-06
6.5843356e-06
6.5843415e-06
6.5843484e-06
6.5843551e-06
6.5843622e-06
6.5843699e-06
6.5843772e-06
6.5843843e-06
6.5843914e-06
6.5843975e-06
6.5844046e-06
6.5844119e-06
6.5844187e-06
6.5844258e-06
6.5844328e-06
6.5844404e-06
6.5844472e-06
6.5844545e-06
6.5844611e-06
6.5844679e-06
6.5844747e-06
6.584481e-06
6.5844872e-06
6.5844936e-06
6.5844998e-06
6.5845056e-06
6.5845113e-06
6.5845169e-06
6.5845223e-06
6.5845269e-06
6.5845308e-06
6.5845348e-06
6.5845384e-06
6.5845414e-06
6.5845445e-06
6.5845465e-06
6.5845482e-06
6.5845497e-06
6.5845498e-06
6.5845492e-06
6.5845482e-06
6.5845459e-06
6.5845424e-06
6.5845373e-06
6.5845314e-06
6.5845239e-06
6.5845153e-06
6.5845043e-06
6.5844907e-06
6.5844766e-06
6.5844604e-06
6.5844422e-06
6.5844206e-06
6.5843968e-06
6.5843696e-06
6.5843394e-06
6.5843064e-06
6.5842681e-06
6.5842272e-06
6.5841813e-06
6.5841305e-06
6.5840742e-06
6.5840124e-06
6.5839445e-06
6.5838707e-06
6.583789e-06
6.5837003e-06
6.5836036e-06
6.5834975e-06
6.5833817e-06
6.5832563e-06
6.5831195e-06
6.5829704e-06
6.5828082e-06
6.5826318e-06
6.5824404e-06
6.582233e-06
6.5820072e-06
6.5817635e-06
6.5814997e-06
6.5812149e-06
6.5809072e-06
6.5805754e-06
6.5802188e-06
6.5798354e-06
6.579424e-06
6.5789856e-06
6.5785194e-06
6.5780262e-06
6.5775084e-06
6.5769675e-06
6.5764081e-06
6.5758345e-06
6.5752551e-06
6.5746774e-06
6.5741126e-06
6.5735731e-06
6.5730747e-06
6.5726351e-06
6.5722761e-06
6.5720236e-06
6.5719046e-06
6.5719485e-06
6.5721946e-06
6.5726529e-06
6.5733122e-06
6.5741932e-06
6.5753555e-06
6.5768391e-06
6.5786222e-06
6.5805551e-06
6.5823992e-06
6.5840143e-06
6.5853966e-06
6.5865313e-06
6.5871645e-06
6.5873467e-06
6.5869566e-06
6.5875964e-06
6.5866651e-06
6.5908156e-06
6.5852016e-06
6.5939511e-06
6.5809141e-06
6.5969999e-06
6.5786303e-06
6.6012022e-06
6.9132374e-06
6.5796401e-06
6.5796506e-06
6.579655e-06
6.5796623e-06
6.5796688e-06
6.5796757e-06
6.5796823e-06
6.5796887e-06
6.5796957e-06
6.5797025e-06
6.5797089e-06
6.5797162e-06
6.5797236e-06
6.5797305e-06
6.5797377e-06
6.5797455e-06
6.5797528e-06
6.5797603e-06
6.5797681e-06
6.5797758e-06
6.5797835e-06
6.5797917e-06
6.5797997e-06
6.5798074e-06
6.5798152e-06
6.5798233e-06
6.5798317e-06
6.57984e-06
6.5798476e-06
6.5798556e-06
6.5798637e-06
6.579872e-06
6.5798801e-06
6.5798883e-06
6.5798966e-06
6.5799058e-06
6.5799151e-06
6.5799235e-06
6.579932e-06
6.5799394e-06
6.5799477e-06
6.5799556e-06
6.5799639e-06
6.5799719e-06
6.5799801e-06
6.5799881e-06
6.5799956e-06
6.5800027e-06
6.5800095e-06
6.5800158e-06
6.5800227e-06
6.5800279e-06
6.580033e-06
6.5800384e-06
6.5800431e-06
6.5800479e-06
6.5800517e-06
6.5800547e-06
6.5800569e-06
6.5800577e-06
6.5800584e-06
6.5800585e-06
6.5800572e-06
6.5800549e-06
6.580052e-06
6.5800473e-06
6.5800412e-06
6.5800334e-06
6.5800245e-06
6.5800124e-06
6.5799989e-06
6.5799845e-06
6.5799678e-06
6.579948e-06
6.579926e-06
6.5799008e-06
6.5798723e-06
6.5798405e-06
6.5798054e-06
6.5797668e-06
6.5797235e-06
6.579676e-06
6.5796231e-06
6.5795655e-06
6.5795017e-06
6.579433e-06
6.5793572e-06
6.5792747e-06
6.5791844e-06
6.5790871e-06
6.578981e-06
6.5788653e-06
6.5787403e-06
6.5786052e-06
6.578459e-06
6.5783011e-06
6.5781303e-06
6.5779466e-06
6.5777485e-06
6.5775363e-06
6.5773084e-06
6.5770639e-06
6.5768025e-06
6.5765247e-06
6.5762291e-06
6.5759163e-06
6.5755863e-06
6.5752404e-06
6.5748802e-06
6.5745077e-06
6.5741252e-06
6.5737369e-06
6.5733475e-06
6.5729623e-06
6.5725888e-06
6.5722348e-06
6.5719102e-06
6.5716266e-06
6.5713995e-06
6.5712464e-06
6.571188e-06
6.5712491e-06
6.5714561e-06
6.5718219e-06
6.572351e-06
6.5730663e-06
6.5740198e-06
6.5752556e-06
6.5767926e-06
6.5785926e-06
6.5805355e-06
6.5824139e-06
6.5840576e-06
6.5854393e-06
6.5865758e-06
6.587283e-06
6.5874818e-06
6.5873221e-06
6.5868972e-06
6.5875723e-06
6.5868005e-06
6.5910173e-06
6.5850251e-06
6.5937924e-06
6.5806882e-06
6.5971241e-06
6.5784497e-06
6.6013601e-06
6.9231883e-06
6.5754379e-06
6.5754458e-06
6.5754502e-06
6.5754557e-06
6.5754617e-06
6.5754675e-06
6.5754732e-06
6.575479e-06
6.575485e-06
6.5754911e-06
6.5754965e-06
6.5755029e-06
6.5755095e-06
6.5755155e-06
6.575522e-06
6.5755289e-06
6.575536e-06
6.5755427e-06
6.5755494e-06
6.5755559e-06
6.5755631e-06
6.5755704e-06
6.5755776e-06
6.5755844e-06
6.5755911e-06
6.5755984e-06
6.5756058e-06
6.5756136e-06
6.575621e-06
6.5756284e-06
6.5756357e-06
6.5756431e-06
6.5756506e-06
6.5756583e-06
6.5756657e-06
6.5756738e-06
6.5756815e-06
6.5756891e-06
6.5756964e-06
6.5757038e-06
6.5757114e-06
6.5757184e-06
6.5757254e-06
6.5757326e-06
6.57574e-06
6.575747e-06
6.5757542e-06
6.5757609e-06
6.5757671e-06
6.5757731e-06
6.5757795e-06
6.5757848e-06
6.5757896e-06
6.5757946e-06
6.5757997e-06
6.5758041e-06
6.5758079e-06
6.5758106e-06
6.5758135e-06
6.5758154e-06
6.5758166e-06
6.5758169e-06
6.5758168e-06
6.5758156e-06
6.5758146e-06
6.5758118e-06
6.5758079e-06
6.5758028e-06
6.5757964e-06
6.5757881e-06
6.5757784e-06
6.5757676e-06
6.5757545e-06
6.5757393e-06
6.5757219e-06
6.5757024e-06
6.5756802e-06
6.5756553e-06
6.5756275e-06
6.5755974e-06
6.5755642e-06
6.5755272e-06
6.575486e-06
6.5754417e-06
6.5753927e-06
6.5753389e-06
6.5752798e-06
6.5752161e-06
6.5751463e-06
6.5750717e-06
6.5749903e-06
6.5749024e-06
6.5748072e-06
6.5747046e-06
6.574594e-06
6.5744748e-06
6.5743468e-06
6.5742095e-06
6.5740627e-06
6.5739063e-06
6.5737399e-06
6.5735628e-06
6.573376e-06
6.57318e-06
6.5729742e-06
6.5727599e-06
6.5725383e-06
6.5723105e-06
6.5720786e-06
6.571846e-06
6.571615e-06
6.5713904e-06
6.5711763e-06
6.5709784e-06
6.5708042e-06
6.5706618e-06
6.5705619e-06
6.5705155e-06
6.5705383e-06
6.5706455e-06
6.570853e-06
6.5711764e-06
6.5716302e-06
6.5722451e-06
6.5730625e-06
6.5741226e-06
6.5754498e-06
6.5770392e-06
6.5788481e-06
6.5807843e-06
6.5826781e-06
6.5843343e-06
6.5856972e-06
6.5867945e-06
6.5875011e-06
6.5877192e-06
6.5874576e-06
6.5871636e-06
6.5868063e-06
6.5875843e-06
6.5869451e-06
6.5912018e-06
6.5847612e-06
6.5935508e-06
6.5804443e-06
6.5972738e-06
6.5782589e-06
6.6016062e-06
6.934431e-06
6.5723529e-06
6.5723584e-06
6.572362e-06
6.5723653e-06
6.5723694e-06
6.5723733e-06
6.5723771e-06
6.5723811e-06
6.5723852e-06
6.572389e-06
6.5723927e-06
6.5723972e-06
6.5724016e-06
6.5724055e-06
6.5724101e-06
6.5724149e-06
6.5724197e-06
6.5724244e-06
6.5724292e-06
6.5724335e-06
6.5724386e-06
6.572443e-06
6.5724475e-06
6.5724521e-06
6.572457e-06
6.5724621e-06
6.572467e-06
6.5724723e-06
6.5724777e-06
6.5724828e-06
6.572488e-06
6.5724933e-06
6.5724984e-06
6.5725032e-06
6.5725082e-06
6.5725142e-06
6.5725193e-06
6.5725244e-06
6.5725291e-06
6.572534e-06
6.5725389e-06
6.5725438e-06
6.5725489e-06
6.5725535e-06
6.5725583e-06
6.572563e-06
6.5725678e-06
6.5725725e-06
6.5725768e-06
6.5725812e-06
6.5725851e-06
6.5725886e-06
6.5725915e-06
6.5725949e-06
6.5725988e-06
6.5726017e-06
6.5726042e-06
6.5726065e-06
6.5726084e-06
6.5726097e-06
6.5726105e-06
6.5726105e-06
6.5726101e-06
6.5726091e-06
6.5726077e-06
6.5726056e-06
6.5726026e-06
6.5725985e-06
6.5725938e-06
6.5725881e-06
6.5725813e-06
6.5725734e-06
6.5725639e-06
6.5725535e-06
6.5725418e-06
6.572528e-06
6.5725128e-06
6.5724965e-06
6.572478e-06
6.5724579e-06
6.5724352e-06
6.5724098e-06
6.5723823e-06
6.5723526e-06
6.5723194e-06
6.5722836e-06
6.5722443e-06
6.5722023e-06
6.5721563e-06
6.5721067e-06
6.5720529e-06
6.5719952e-06
6.5719329e-06
6.5718658e-06
6.5717938e-06
6.5717169e-06
6.5716351e-06
6.5715477e-06
6.5714548e-06
6.5713568e-06
6.5712545e-06
6.5711473e-06
6.5710358e-06
6.570921e-06
6.5708033e-06
6.5706843e-06
6.5705652e-06
6.5704483e-06
6.5703348e-06
6.5702295e-06
6.5701348e-06
6.570055e-06
6.5699949e-06
6.5699607e-06
6.5699592e-06
6.5699986e-06
6.5700891e-06
6.570241e-06
6.5704669e-06
6.5707836e-06
6.5712134e-06
6.5717826e-06
6.572525e-06
6.5734713e-06
6.5746419e-06
6.5760402e-06
6.5776515e-06
6.5794423e-06
6.5813455e-06
6.5832205e-06
6.5848601e-06
6.5861727e-06
6.5872012e-06
6.5878308e-06
6.5880092e-06
6.5876874e-06
6.5872312e-06
6.586954e-06
6.5867391e-06
6.5876644e-06
6.5870738e-06
6.59132e-06
6.5843755e-06
6.5932523e-06
6.5802627e-06
6.5974933e-06
6.5780268e-06
6.6018878e-06
6.9471823e-06
6.5705183e-06
6.5705207e-06
6.5705231e-06
6.5705245e-06
6.5705269e-06
6.5705289e-06
6.5705311e-06
6.570533e-06
6.5705349e-06
6.5705367e-06
6.5705387e-06
6.5705413e-06
6.5705439e-06
6.5705462e-06
6.5705481e-06
6.5705506e-06
6.5705531e-06
6.5705556e-06
6.5705581e-06
6.5705606e-06
6.5705632e-06
6.5705656e-06
6.5705679e-06
6.5705701e-06
6.570573e-06
6.5705759e-06
6.5705785e-06
6.5705809e-06
6.5705835e-06
6.5705866e-06
6.5705894e-06
6.5705919e-06
6.5705949e-06
6.5705974e-06
6.5706006e-06
6.5706036e-06
6.5706064e-06
6.5706087e-06
6.5706114e-06
6.570614e-06
6.5706166e-06
6.5706192e-06
6.5706221e-06
6.5706246e-06
6.5706264e-06
6.5706281e-06
6.5706302e-06
6.5706329e-06
6.5706352e-06
6.5706367e-06
6.5706382e-06
6.5706396e-06
6.5706404e-06
6.570642e-06
6.5706438e-06
6.5706451e-06
6.5706459e-06
6.5706464e-06
6.570647e-06
6.5706471e-06
6.5706472e-06
6.570647e-06
6.5706459e-06
6.5706449e-06
6.5706437e-06
6.5706422e-06
6.5706402e-06
6.5706378e-06
6.5706343e-06
6.5706304e-06
6.5706257e-06
6.5706204e-06
6.5706148e-06
6.5706086e-06
6.5706014e-06
6.5705935e-06
6.5705841e-06
6.5705745e-06
6.5705638e-06
6.5705515e-06
6.5705382e-06
6.5705231e-06
6.5705068e-06
6.5704893e-06
6.5704707e-06
6.5704499e-06
6.5704276e-06
6.5704027e-06
6.5703766e-06
6.5703482e-06
6.5703176e-06
6.5702851e-06
6.5702506e-06
6.5702134e-06
6.5701746e-06
6.5701333e-06
6.5700899e-06
6.5700448e-06
6.5699975e-06
6.5699496e-06
6.5699009e-06
6.5698518e-06
6.5698031e-06
6.5697565e-06
6.5697127e-06
6.5696729e-06
6.5696394e-06
6.5696148e-06
6.5696007e-06
6.5696011e-06
6.56962e-06
6.5696611e-06
6.5697303e-06
6.5698333e-06
6.5699787e-06
6.5701753e-06
6.5704375e-06
6.5707803e-06
6.5712221e-06
6.5717851e-06
6.5724918e-06
6.573362e-06
6.5744109e-06
6.5756445e-06
6.5770613e-06
6.5786501e-06
6.5803919e-06
6.5822369e-06
6.5840543e-06
6.5856399e-06
6.5868702e-06
6.5877778e-06
6.5882594e-06
6.588323e-06
6.587912e-06
6.5873631e-06
6.5869204e-06
6.5867377e-06
6.5867213e-06
6.5878044e-06
6.5871247e-06
6.5913155e-06
6.5838508e-06
6.5929582e-06
6.580147e-06
6.5977428e-06
6.5777043e-06
6.6021813e-06
6.9617728e-06
6.5697202e-06
6.569721e-06
6.5697223e-06
6.569722e-06
6.5697229e-06
6.5697233e-06
6.5697242e-06
6.5697248e-06
6.5697253e-06
6.569726e-06
6.5697264e-06
6.569727e-06
6.5697278e-06
6.5697286e-06
6.5697294e-06
6.5697299e-06
6.5697303e-06
6.5697308e-06
6.5697318e-06
6.5697328e-06
6.5697333e-06
6.569734e-06
6.5697347e-06
6.5697357e-06
6.5697367e-06
6.5697375e-06
6.5697377e-06
6.5697381e-06
6.5697391e-06
6.56974e-06
6.5697404e-06
6.5697408e-06
6.5697421e-06
6.5697431e-06
6.5697442e-06
6.5697449e-06
6.5697458e-06
6.5697458e-06
6.5697465e-06
6.569747e-06
6.5697481e-06
6.5697491e-06
6.56975e-06
6.5697509e-06
6.5697516e-06
6.5697519e-06
6.5697524e-06
6.5697533e-06