/*--------------------------------*- C++ -*----------------------------------*\
| =========                 |                                                 |
| \\      /  F ield         | OpenFOAM: The Open Source CFD Toolbox           |
|  \\    /   O peration     | Version:  2506                                  |
|   \\  /    A nd           | Website:  www.openfoam.com                      |
|    \\/     M anipulation  |                                                 |
\*---------------------------------------------------------------------------*/
FoamFile
{
    version     2.0;
    format      ascii;
    arch        "LSB;label=32;scalar=64";
    class       volScalarField;
    location    "2.1";
    object      alphat;
}
// * * * * * * * * * * * * * * * * * * * * * * * * * * * * * * * * * * * * * //

dimensions      [1 -1 -1 0 0 0 0];

internalField   nonuniform List<scalar> 
1375
(
0.12807085
0.12803375
0.12800243
0.12798351
0.12798143
0.12799046
0.12800826
0.1280325
0.12809471
0.12810474
0.128323
0.10573467
0.083850265
0.066597398
0.052394919
0.040756554
0.031507231
0.024162545
0.018290827
0.013583893
0.0098234295
0.006803351
0.004507953
0.0027273224
0.0016040621
0.00061109516
0.13249861
0.1319632
0.13149619
0.13110469
0.13076829
0.13046645
0.13019094
0.12994333
0.12971956
0.12951679
0.12933096
0.12916249
0.12901076
0.12887433
0.12874988
0.12863649
0.1285327
0.12843937
0.1283575
0.12828454
0.12821906
0.12815988
0.12810974
0.12806779
0.12803051
0.12799921
0.12798039
0.12797792
0.12798457
0.12800108
0.12802632
0.128088
0.12809024
0.12830738
0.10839908
0.086019855
0.068482061
0.053876169
0.041880077
0.032347384
0.024842525
0.018811858
0.013981809
0.010109269
0.0071125898
0.0046305786
0.0029371914
0.0017059262
0.00062492624
0.13248689
0.1319476
0.13147945
0.13108613
0.13074746
0.13044376
0.1301702
0.12992446
0.12969991
0.12949599
0.12931109
0.1291447
0.12899443
0.128859
0.12873549
0.12862278
0.12851965
0.12842716
0.12834586
0.12827336
0.12820811
0.12814935
0.12809989
0.1280579
0.12802032
0.12798908
0.12797108
0.12796834
0.12797206
0.12798688
0.12801265
0.12807344
0.12807102
0.12828566
0.10997611
0.087554302
0.069858428
0.055104786
0.042741319
0.033131701
0.02538218
0.019318252
0.014359163
0.010498307
0.0070961106
0.0050531944
0.002824008
0.0018612711
0.00063366323
0.13246814
0.13192213
0.13145132
0.13105528
0.13071424
0.1304095
0.13013558
0.12988987
0.12966674
0.12946326
0.12927939
0.12911488
0.12896635
0.12883216
0.12870982
0.1285985
0.12849681
0.1284057
0.12832544
0.12825378
0.12818911
0.12813125
0.12808297
0.12804122
0.12800382
0.12797343
0.12795719
0.12795428
0.12795579
0.12797119
0.12799943
0.12806009
0.12806361
0.12827155
0.10689059
0.085241629
0.06838442
0.053633907
0.04193345
0.032303719
0.025027262
0.018907242
0.014174165
0.0098988067
0.0075189884
0.004405965
0.0030912207
0.0018548907
0.00067024295
0.13244408
0.13188919
0.13141323
0.13101322
0.13066951
0.13036244
0.13008799
0.12984247
0.12961971
0.12941718
0.12923589
0.12907418
0.12892772
0.12879491
0.12867452
0.12856523
0.12846535
0.12837582
0.12829693
0.12822654
0.12816274
0.12810601
0.12805858
0.12801675
0.12797987
0.12795107
0.1279369
0.12793337
0.12793391
0.12795185
0.12798349
0.12804346
0.12805978
0.12825733
0.10419609
0.083602508
0.066411273
0.052596325
0.040794612
0.03165222
0.024406224
0.01855838
0.013605074
0.010524365
0.0068153698
0.0047600693
0.0032017631
0.0013792347
0.00059283214
0.13241599
0.13184941
0.13136666
0.13096056
0.13061306
0.13030349
0.13002748
0.12978263
0.12956115
0.12935974
0.12918176
0.12902389
0.12887971
0.12874884
0.12863111
0.12852428
0.1284267
0.12833895
0.12826153
0.12819246
0.12812986
0.1280748
0.12802817
0.1279866
0.12795106
0.12792471
0.12791228
0.12790749
0.127908
0.12792927
0.1279639
0.12802152
0.12805473
0.12824
0.10305508
0.082175326
0.065933116
0.05179318
0.040215579
0.031522543
0.02416806
0.0183208
0.01380309
0.0099258356
0.0064483992
0.0056510555
0.0021837242
0.0023007666
0.00062230343
0.13238656
0.13180416
0.13131086
0.13089809
0.13054604
0.13023392
0.1299573
0.12971282
0.12949328
0.12929445
0.12912008
0.12896566
0.12882347
0.12869546
0.12858092
0.128477
0.12838215
0.12829654
0.12822083
0.12815328
0.12809228
0.12803916
0.12799326
0.12795237
0.12791854
0.12789478
0.12788315
0.12787656
0.12787771
0.12790202
0.12793839
0.12799212
0.12804709
0.12801524
0.10133206
0.081752396
0.065097901
0.051123498
0.040174056
0.031417829
0.023768943
0.018481891
0.014101382
0.0093190717
0.00866759
0.0037337694
0.0040909405
0.0016663107
0.00067407785
0.1323563
0.1317542
0.13124856
0.1308279
0.13047021
0.13015649
0.12987982
0.1296363
0.12941732
0.12922158
0.12905167
0.12889993
0.12875934
0.12863494
0.12852409
0.12842341
0.12833167
0.12824854
0.12817488
0.12810924
0.1280503
0.12799912
0.12795422
0.12791481
0.12788321
0.12786207
0.12785029
0.12784191
0.12784524
0.12787318
0.12791135
0.12795839
0.12804665
0.12440778
0.099811073
0.08032957
0.063753951
0.050574694
0.0398505
0.030453384
0.023971399
0.018306241
0.012833744
0.0109591
0.0063954151
0.0049798095
0.0032777367
0.0011645152
0.00059307451
0.13232646
0.13169867
0.13117869
0.13074863
0.13038622
0.13007092
0.12979494
0.12955201
0.12933506
0.1291433
0.12897804
0.12882773
0.12868975
0.12856927
0.12846247
0.12836511
0.12827649
0.12819583
0.12812509
0.12806211
0.12800528
0.12795577
0.12791226
0.12787477
0.127846
0.12782718
0.12781464
0.1278062
0.12781384
0.12784389
0.12788432
0.12791173
0.12805299
0.12177636
0.098250298
0.078325112
0.063410022
0.049717229
0.039348337
0.029639378
0.024379212
0.017421189
0.014358445
0.009613552
0.0061410921
0.0064256116
0.0020047692
0.0020284345
0.00062398896
0.1322955
0.13164103
0.13110129
0.1306633
0.13029756
0.12997923
0.12970437
0.12946276
0.12924861
0.12906152
0.12889994
0.12875153
0.12861861
0.12850236
0.1283994
0.12830537
0.12821947
0.12814156
0.12807416
0.12801367
0.12795858
0.12791075
0.12786867
0.12783337
0.12780765
0.12779029
0.1277762
0.12776791
0.12777984
0.12781094
0.12785362
0.12787874
0.1280299
0.11926275
0.095572662
0.07737063
0.061516279
0.048383919
0.037001548
0.031482993
0.023034472
0.018238842
0.013306011
0.0097834702
0.0086489568
0.0041708585
0.0033528954
0.0018535245
0.00063221693
0.13226493
0.13158204
0.13102421
0.13057659
0.13020579
0.12988505
0.12961081
0.12937167
0.12916051
0.12897851
0.12882005
0.12867509
0.12854737
0.12843596
0.1283369
0.12824597
0.12816234
0.12808716
0.12802238
0.12796459
0.12791141
0.1278656
0.12782464
0.12779136
0.12776789
0.12774983
0.12773446
0.12772926
0.12774607
0.12777677
0.12782103
0.12785614
0.12799629
0.11686648
0.093417434
0.076497878
0.059187449
0.0484869
0.039171395
0.030277895
0.021178529
0.01817571
0.013162454
0.0091756291
0.0074016047
0.0041023337
0.0035390276
0.0015065089
0.00062084261
0.13223654
0.13151549
0.13094159
0.13048304
0.13010757
0.12978789
0.12951521
0.12927877
0.12907165
0.12889499
0.12873881
0.12859858
0.12847502
0.12836868
0.12827326
0.12818561
0.12810492
0.12803302
0.12797005
0.12791499
0.12786457
0.12782073
0.12778064
0.12775021
0.127728
0.12770796
0.12769419
0.12769287
0.12771185
0.12774133
0.1277853
0.12784321
0.12795885
0.11297739
0.093146522
0.072716382
0.059740806
0.047946591
0.035920029
0.027432078
0.025274961
0.01750377
0.012766594
0.010364878
0.0068121141
0.0052340942
0.0036674357
0.0019526077
0.00058315774
0.13220548
0.13144762
0.13085502
0.13038668
0.13000592
0.12968841
0.12941901
0.12918532
0.12898331
0.1288114
0.12865748
0.12852209
0.1284036
0.12830129
0.12820929
0.12812467
0.12804792
0.12797908
0.12791832
0.12786445
0.12781773
0.12777534
0.12773659
0.12770906
0.12768719
0.12766696
0.12765598
0.12765761
0.12767746
0.12770778
0.1277474
0.12783531
0.1279328
0.1126862
0.089062135
0.072140514
0.060307751
0.04317513
0.039177135
0.028855624
0.022398342
0.016663695
0.013368862
0.010798948
0.0060773627
0.0068832786
0.0027599434
0.0021369614
0.00059627347
0.13217233
0.13137611
0.13076389
0.13028886
0.12990558
0.12959048
0.12932319
0.12909254
0.1288957
0.12872804
0.12857652
0.12844612
0.12833387
0.12823541
0.12814458
0.12806438
0.12799192
0.12792586
0.12786922
0.12781766
0.12777161
0.1277298
0.12769357
0.12766876
0.12764619
0.12762735
0.12761795
0.12762205
0.12764429
0.12767636
0.12771617
0.12781341
0.12791943
0.10797945
0.089462226
0.073074624
0.054516227
0.048812663
0.034301729
0.027854062
0.02182452
0.01768314
0.013070734
0.0089051277
0.008233359
0.0051929103
0.0030816112
0.002451505
0.00056907422
0.1321347
0.1313007
0.13067151
0.13019009
0.12980602
0.1294937
0.12922857
0.12900167
0.1288103
0.12864663
0.12849862
0.12837353
0.128267
0.12817238
0.12808458
0.12800587
0.12793793
0.12787616
0.12782205
0.12777241
0.12772893
0.12768867
0.12765609
0.12763054
0.12760766
0.12758986
0.12758385
0.12758881
0.12760908
0.12764313
0.12769388
0.12778334
0.12791244
0.10902367
0.085853975
0.067992415
0.057378616
0.044485218
0.033807024
0.03095607
0.022183093
0.017458032
0.014459594
0.0098459271
0.0083785411
0.0045911926
0.0037254924
0.0021778972
0.00054470687
0.13209634
0.13122206
0.13057828
0.13009335
0.12970937
0.12939839
0.12913522
0.12891372
0.12872941
0.12856843
0.12842547
0.12830666
0.12820438
0.12811132
0.12802895
0.12795271
0.12788768
0.12782935
0.12777715
0.12772918
0.12768724
0.12764858
0.12762042
0.12759203
0.12757085
0.12755664
0.12754843
0.1275562
0.12758174
0.12761398
0.12767481
0.12775358
0.12790181
0.10530999
0.084264542
0.070810841
0.056661532
0.041659656
0.03912368
0.024466574
0.021659876
0.017460764
0.012429348
0.010404708
0.0074876849
0.005162384
0.0037597551
0.0023499191
0.00051322272
0.13205397
0.13114107
0.13048509
0.12999722
0.12961452
0.12930504
0.12904572
0.12882967
0.12865245
0.12849436
0.12835651
0.12824365
0.12814457
0.12805469
0.1279736
0.12790347
0.12783857
0.12778532
0.12773469
0.12768944
0.12764709
0.12761105
0.12758528
0.12755532
0.12753345
0.12752463
0.12751435
0.12752241
0.12755498
0.12758696
0.12765279
0.12773117
0.12789175
0.10188666
0.085244151
0.06929728
0.051236768
0.047010426
0.030201689
0.028070385
0.024697792
0.016794694
0.013988283
0.010639746
0.0075909319
0.0050982725
0.0048463274
0.0023778176
0.00048683052
0.1320181
0.13106257
0.13039676
0.1299052
0.12952378
0.12921686
0.12896292
0.12875217
0.12857865
0.12842426
0.12829212
0.12818241
0.12808633
0.12800122
0.12792192
0.12785396
0.1277917
0.12774129
0.12769292
0.12765041
0.12760974
0.12757635
0.12755161
0.12752105
0.12750285
0.12749179
0.12748234
0.12749269
0.12752605
0.12756092
0.1276259
0.12771506
0.12243399
0.10107781
0.082248464
0.063595384
0.056942285
0.041219175
0.041383439
0.028443204
0.019186388
0.017550454
0.014771102
0.010656486
0.0073735191
0.0063862887
0.0055743804
0.0030317192
0.00050747227
0.13194383
0.13096596
0.13029628
0.12980876
0.12943176
0.12912984
0.12888082
0.12867721
0.12850752
0.12835619
0.12822984
0.12812272
0.12803097
0.12794697
0.12787208
0.12780637
0.12774851
0.12769869
0.12765318
0.1276129
0.12757306
0.12754262
0.12751688
0.12748853
0.12747358
0.12745922
0.12745382
0.12746463
0.12750415
0.12753809
0.12759838
0.12770415
0.12357121
0.097787077
0.083965658
0.071609744
0.050855423
0.040565407
0.027804819
0.02685353
0.024738588
0.018630614
0.011824141
0.0094840025
0.010845633
0.0054472232
0.0050570939
0.0035901157
0.00047817698
0.13195955
0.1309266
0.13023638
0.12974336
0.12936411
0.12906302
0.12881641
0.12861656
0.12844853
0.12830055
0.12817836
0.1280741
0.1279839
0.12789914
0.12782644
0.12776824
0.12771071
0.12766315
0.12761813
0.1275787
0.12754027
0.12751322
0.12748561
0.12745773
0.12744179
0.12742453
0.12742255
0.12743739
0.12747828
0.12751848
0.12756811
0.12769467
0.11900086
0.10134618
0.080545861
0.060023787
0.050225288
0.052213229
0.035360774
0.023148264
0.019583813
0.016314944
0.017398151
0.012186156
0.0059345682
0.0053048361
0.0050065552
0.0036328311
0.00047333583
0.00047902234
0.0046532424
0.0086551476
0.0045984029
0.011237542
0.012849474
0.012179227
0.01686405
0.022402052
0.036207683
0.033888112
0.0356967
0.056054861
0.065440252
0.07339533
0.093665252
0.11796546
0.1276923
0.12755489
0.12750421
0.12745434
0.1274158
0.12739275
0.12739572
0.12741
0.12743021
0.12745324
0.12748027
0.1275059
0.12754049
0.12757945
0.12762194
0.12766949
0.12771871
0.12777307
0.12784614
0.12792779
0.12801615
0.12811504
0.12823065
0.12836988
0.12853172
0.12872313
0.12895915
0.12924982
0.1296174
0.13009505
0.13077228
0.13178382
0.00048169825
0.0069486832
0.0078628177
0.0061363225
0.016216879
0.0089181024
0.014883147
0.026140326
0.020581276
0.01988876
0.037065291
0.047283766
0.04642366
0.063638643
0.082567711
0.091113825
0.11534698
0.12769471
0.1275458
0.1274796
0.12743173
0.12740216
0.12736931
0.12736826
0.12738056
0.1273993
0.1274183
0.12744435
0.12747002
0.12750176
0.12753936
0.12757822
0.12762462
0.12766826
0.12773181
0.12779537
0.12787183
0.12795614
0.1280507
0.12815917
0.12829026
0.12844548
0.12862928
0.12885481
0.12913474
0.12948851
0.12995028
0.13060526
0.13158201
0.00048759203
0.0079774761
0.0059178234
0.0072514863
0.0077918779
0.016003708
0.016710985
0.011327283
0.023014238
0.029645799
0.029118099
0.037575896
0.052156793
0.057692782
0.070961878
0.094133573
0.10519854
0.12770928
0.12754848
0.12746421
0.1274204
0.1273846
0.12734612
0.12733994
0.12734695
0.12736921
0.1273885
0.12740739
0.12743409
0.12746637
0.12750136
0.1275374
0.12758053
0.12763023
0.12768887
0.12774506
0.1278152
0.12789591
0.12798718
0.12809038
0.12821364
0.12836289
0.12854001
0.12875539
0.1290242
0.12936551
0.12981225
0.13044456
0.13139151
0.0004927111
0.0086847529
0.014728561
0.0052932449
0.0090400926
0.0074351018
0.0098300212
0.019671418
0.019275237
0.022739121
0.038584034
0.042119422
0.052838891
0.059345485
0.069929182
0.080084326
0.11840167
0.12772522
0.12755083
0.12744154
0.12739387
0.12735471
0.12732637
0.12731549
0.12731938
0.12733844
0.12735883
0.12738046
0.12740217
0.12743213
0.12746672
0.12750251
0.12754316
0.12759061
0.12763929
0.12769518
0.12776094
0.1278385
0.12792589
0.12802397
0.12814121
0.12828489
0.12845353
0.12866049
0.12891861
0.12924862
0.12967873
0.13029226
0.13121095
0.00049398139
0.012711583
0.011400994
0.0087452945
0.014516075
0.0092274624
0.019000319
0.019051762
0.019661762
0.033755061
0.027522749
0.041083427
0.044675101
0.061014556
0.080412264
0.099469364
0.09775142
0.12773391
0.12753694
0.12742297
0.12738282
0.12734131
0.12731363
0.12729407
0.12729641
0.12730832
0.12732754
0.12734919
0.12736936
0.12739815
0.12743121
0.12746333
0.12750353
0.12754899
0.12759265
0.12764588
0.12770981
0.12778413
0.12786674
0.1279594
0.12807245
0.12820893
0.12837087
0.12856974
0.12881811
0.12913764
0.12955445
0.13014934
0.13104241
0.00049321346
0.013280783
0.00741815
0.011455709
0.048684633
0.041041207
0.020293965
0.012240427
0.028883728
0.020145106
0.036161297
0.030559496
0.046096863
0.051702113
0.059162002
0.084231967
0.10914946
0.11294762
0.12755768
0.12744404
0.1273802
0.12732504
0.12730072
0.12726885
0.12726687
0.12728104
0.12729607
0.12731624
0.12733577
0.1273655
0.12739579
0.12742237
0.12746217
0.12750762
0.12755142
0.12759922
0.12766062
0.12773045
0.12780935
0.12789984
0.12800653
0.1281356
0.12829305
0.12848371
0.12872259
0.12903115
0.12943716
0.13001417
0.13088424
0.01423783
0.012697018
0.015850871
0.022226323
0.022915913
0.029511117
0.033674664
0.045250026
0.054368871
0.054689691
0.060868428
0.073189456
0.10200305
0.12775735
0.12753999
0.1274033
0.12733251
0.12729511
0.1272715
0.12723884
0.12723744
0.12725102
0.12726991
0.12729426
0.12730879
0.1273321
0.12736493
0.12739453
0.12742738
0.12746888
0.12751022
0.12755556
0.12761328
0.12767775
0.12775391
0.12784311
0.12794304
0.12806665
0.12821811
0.12840154
0.12863215
0.12892986
0.12932434
0.12988598
0.13073506
0.038452665
0.057514688
0.07944619
0.076474565
0.10785314
0.12778024
0.12755549
0.12741398
0.12733346
0.12728678
0.12725453
0.12722224
0.12721463
0.12722275
0.12724261
0.12726429
0.12728419
0.12730241
0.127338
0.12736222
0.12739463
0.12743415
0.12746941
0.12751384
0.12756796
0.12762954
0.12770207
0.12778604
0.12788215
0.12800103
0.12814522
0.12832241
0.12854549
0.12883424
0.12921638
0.12976474
0.13059269
0.12725718
0.12721398
0.12719676
0.12720244
0.12721412
0.12723421
0.12725539
0.12727612
0.12730679
0.12732625
0.12735776
0.12739876
0.1274305
0.12747305
0.12752307
0.12758295
0.1276517
0.12773153
0.12782393
0.12793684
0.12807552
0.12824684
0.12846243
0.12874351
0.12911438
0.12964926
0.13045609
0.12739371
0.12743399
0.12748038
0.12753667
0.12760264
0.1276796
0.12776841
0.12787527
0.1280089
0.12817529
0.12838345
0.12865551
0.12901717
0.12953871
0.13032551
)
;

boundaryField
{
    Side
    {
        type            empty;
    }
    Inlet
    {
        type            calculated;
        value           nonuniform List<scalar> 
29
(
0.13266285
0.13265676
0.13264791
0.13263773
0.13262771
0.13261927
0.13261332
0.13261083
0.13261102
0.1326127
0.13261514
0.13261828
0.13262115
0.13262382
0.13262277
0.13261799
0.13262446
0.1326457
0.13264715
0.13265951
0.13270965
0.13274995
0.13277048
0.13278003
0.13277752
0.13277358
0.13277594
0.13278225
0.13278989
)
;
    }
    Airfoil
    {
        type            compressible::alphatWallFunction;
        value           nonuniform List<scalar> 
26
(
0.0007229801
0.00072217961
0.00071981204
0.00071618767
0.00071140794
0.00070576331
0.00069961619
0.00069289946
0.00068586433
0.0006791287
0.00067264821
0.00066639241
0.00066078895
0.00065619576
0.000652834
0.00065057666
0.00065019318
0.00065122207
0.00065498297
0.00066214198
0.00066814241
0.00067022327
0.00067403803
0.00067913468
0.0006855108
0.00069303938
)
;
    }
    Outlet
    {
        type            calculated;
        value           nonuniform List<scalar> 0();
    }
    procBoundary0to1
    {
        type            processor;
        value           nonuniform List<scalar> 
53
(
0.00052020627
0.0086669109
0.0093054346
0.012302926
0.012302926
0.013729171
0.0087969853
0.023600317
0.015534176
0.021184492
0.027891137
0.034078011
0.0540348
0.0540348
0.046905988
0.048088594
0.057413541
0.083854731
0.0857099
0.095962142
0.1176259
0.12202716
0.12734326
0.12730037
0.12730037
0.12722316
0.1271912
0.127173
0.12717796
0.12719085
0.12721256
0.12722977
0.12725488
0.12727513
0.12729449
0.12732274
0.12736379
0.12736379
0.12735867
0.12739668
0.12744041
0.12749321
0.12755546
0.12762872
0.12771423
0.12781718
0.12794559
0.12810668
0.12830816
0.12857191
0.12892441
0.12943324
0.13020093
)
;
    }
    procBoundary0to7
    {
        type            processor;
        value           nonuniform List<scalar> 
50
(
0.12806622
0.12802846
0.12799618
0.12797642
0.12797349
0.1279829
0.12800003
0.12802164
0.12808141
0.12808858
0.12830745
0.10871315
0.0861114
0.068241276
0.053677624
0.041786964
0.032322447
0.024775237
0.018773321
0.013952167
0.010105565
0.0070644379
0.0046806868
0.0028553269
0.0017378029
0.00063680946
0.13250235
0.13196784
0.13150121
0.13111047
0.13077461
0.13047281
0.13019857
0.12994947
0.12972519
0.1295217
0.12933574
0.12916616
0.12901369
0.12887732
0.12875293
0.12863971
0.12853588
0.12844244
0.12836062
0.12828763
0.12822203
0.12816253
0.12811237
0.12811237
)
;
    }
}


// ************************************************************************* //
