/*--------------------------------*- C++ -*----------------------------------*\
| =========                 |                                                 |
| \\      /  F ield         | OpenFOAM: The Open Source CFD Toolbox           |
|  \\    /   O peration     | Version:  2506                                  |
|   \\  /    A nd           | Website:  www.openfoam.com                      |
|    \\/     M anipulation  |                                                 |
\*---------------------------------------------------------------------------*/
FoamFile
{
    version     2.0;
    format      ascii;
    arch        "LSB;label=32;scalar=64";
    class       volScalarField;
    location    "0.0185";
    object      Ma;
}
// * * * * * * * * * * * * * * * * * * * * * * * * * * * * * * * * * * * * * //

dimensions      [0 0 0 0 0 0 0];

internalField   nonuniform List<scalar> 
13761
(
0.29924071
0.29958942
0.30001115
0.29947504
0.30014628
0.29962573
0.29999638
0.29983975
0.30030872
0.30124951
0.30342515
0.30673212
0.3100936
0.31131717
0.30838987
0.30339317
0.30103738
0.30503512
0.30850399
0.30825353
0.30945261
0.31230289
0.31351356
0.315057
0.31746352
0.3193588
0.32158858
0.32410108
0.3265652
0.32932088
0.33219095
0.33519927
0.33841143
0.34174288
0.34526794
0.34894928
0.35281356
0.35684589
0.36105367
0.36546464
0.37006156
0.37485325
0.37984075
0.38502652
0.29923775
0.29958882
0.30001374
0.29947428
0.30014886
0.29962578
0.29999728
0.29983805
0.3003027
0.30123499
0.30340144
0.30670718
0.31008651
0.31135091
0.30845872
0.30345221
0.30103583
0.30498464
0.30850865
0.30826914
0.30943627
0.31229642
0.31351879
0.31504555
0.31745487
0.31935065
0.3215727
0.32408445
0.32654389
0.32929452
0.33216074
0.33516311
0.33837037
0.34169583
0.34521471
0.3488894
0.3527467
0.35677187
0.36097189
0.36537553
0.36996428
0.37474726
0.3797276
0.3849065
0.29923489
0.29958817
0.30001633
0.29947345
0.30015146
0.29962585
0.29999829
0.29983658
0.30029718
0.30122143
0.30337916
0.30668361
0.31007971
0.31138261
0.30852468
0.30350858
0.30103559
0.30493602
0.30851305
0.30828487
0.30942091
0.3122901
0.31352403
0.31503447
0.31744631
0.31934258
0.32155697
0.32406787
0.32652265
0.3292682
0.33213048
0.33512689
0.33832917
0.34164858
0.34516124
0.34882921
0.35267947
0.35669738
0.36088955
0.36528585
0.36986531
0.37464067
0.37961345
0.38478522
0.3901565
0.29923204
0.29958747
0.30001899
0.2994726
0.30015411
0.29962592
0.2999993
0.29983511
0.30029152
0.30120746
0.30335604
0.30665896
0.31007219
0.31141455
0.30859312
0.30356686
0.30103649
0.3048854
0.30851679
0.30830133
0.30940518
0.31228314
0.31352939
0.31502303
0.31743727
0.31933422
0.32154067
0.32405067
0.32650074
0.32924105
0.33209932
0.33508962
0.33828682
0.34160007
0.34510637
0.34876751
0.35261058
0.35662109
0.36080531
0.3651938
0.3697639
0.37453157
0.37949651
0.38466088
0.39002544
0.2992292
0.29958672
0.30002173
0.29947172
0.30015681
0.29962602
0.30000033
0.29983365
0.30028574
0.30119314
0.30333217
0.30663329
0.31006397
0.31144659
0.3086639
0.30362693
0.30103865
0.30483288
0.30851979
0.30831853
0.30938915
0.31227554
0.31353488
0.31501124
0.31742773
0.31932556
0.32152381
0.32403286
0.32647816
0.32921308
0.33206727
0.33505132
0.33824334
0.3415503
0.34505012
0.34870431
0.35254007
0.35654306
0.36071928
0.36509905
0.36966047
0.37441998
0.37937684
0.38453354
0.3898911
0.29922637
0.29958592
0.30002454
0.2994708
0.30015957
0.29962613
0.30000135
0.2998322
0.30027984
0.30117845
0.30330751
0.30660655
0.31005497
0.31147871
0.30873717
0.3036889
0.30104216
0.30477836
0.30852194
0.30833653
0.30937283
0.31226723
0.3135405
0.31499911
0.31741767
0.3193166
0.32150637
0.32401441
0.3264549
0.32918427
0.3320343
0.33501198
0.33819869
0.34149925
0.34499247
0.34863957
0.35246788
0.35646323
0.36063146
0.36500176
0.36955477
0.37430586
0.37925441
0.38440319
0.38975348
0.29922357
0.29958506
0.30002744
0.29946986
0.30016237
0.29962626
0.30000239
0.29983077
0.30027383
0.3011634
0.30328205
0.30657868
0.31004513
0.31151084
0.30881298
0.30375285
0.30104715
0.30472179
0.30852313
0.30835536
0.30935626
0.31225819
0.31354624
0.31498665
0.31740707
0.31930733
0.32148834
0.32399531
0.32643095
0.3291546
0.33200041
0.33497157
0.33815286
0.34144689
0.34493338
0.34857328
0.352394
0.35638159
0.36054175
0.36490204
0.36944673
0.37418919
0.37912919
0.38426981
0.38961255
0.29922078
0.29958415
0.30003042
0.29946889
0.30016522
0.29962642
0.30000342
0.29982935
0.30026769
0.30114797
0.30325575
0.30654966
0.31003441
0.31154294
0.30889142
0.30381885
0.30105374
0.3046631
0.30852326
0.30837508
0.30933944
0.31224834
0.31355211
0.31497384
0.31739591
0.31929775
0.3214697
0.32397554
0.32640629
0.32912404
0.33196556
0.33493006
0.33810581
0.34139321
0.34487283
0.3485054
0.3523184
0.3562981
0.36044992
0.36480012
0.36933632
0.37406992
0.37900116
0.38413337
0.3894683
0.3950077
0.29921803
0.29958317
0.30003349
0.29946789
0.30016812
0.2996266
0.30000446
0.29982795
0.30026144
0.30113217
0.30322861
0.30651942
0.31002272
0.31157495
0.30897258
0.30388697
0.30106205
0.30460226
0.3085222
0.30839576
0.3093224
0.31223766
0.3135581
0.31496071
0.31738415
0.31928785
0.32145045
0.32395507
0.3263809
0.32909258
0.33192973
0.33488744
0.33805751
0.34133816
0.34481078
0.34843589
0.35224102
0.35621272
0.3603559
0.36469606
0.36922348
0.37394803
0.37887028
0.38399385
0.3893207
0.39485284
0.29921531
0.29958213
0.30003665
0.29946686
0.30017107
0.2996268
0.30000549
0.29982658
0.30025508
0.30111599
0.3032006
0.30648792
0.31001001
0.3116068
0.30905651
0.30395729
0.30107222
0.30453923
0.30851979
0.30841744
0.30930518
0.31222608
0.31356421
0.31494725
0.31737177
0.31927762
0.32143056
0.32393388
0.32635477
0.32906019
0.3318929
0.33484367
0.33800795
0.34128172
0.34474719
0.34836473
0.35216184
0.35612539
0.36025981
0.36458966
0.36910816
0.37382346
0.37873652
0.38385121
0.38916973
0.39469432
0.29921264
0.29958102
0.30003991
0.29946581
0.30017407
0.29962703
0.30000652
0.29982523
0.3002486
0.30109944
0.3031717
0.30645511
0.30999619
0.31163844
0.3091433
0.30402989
0.30108441
0.30447399
0.30851588
0.30844019
0.30928779
0.31221355
0.31357043
0.31493347
0.31735873
0.31926705
0.32141001
0.32391194
0.32632787
0.32902684
0.33185504
0.33479873
0.33795707
0.34122384
0.34468204
0.34829186
0.35208081
0.35603606
0.36016173
0.36448079
0.36899032
0.37369618
0.37859983
0.38370541
0.38901536
0.39453213
0.29921001
0.29957984
0.30004326
0.29946472
0.30017713
0.29962729
0.30000756
0.29982392
0.30024201
0.30108251
0.30314189
0.30642093
0.30998119
0.3116698
0.30923298
0.30410485
0.30109877
0.30440656
0.30851027
0.30846408
0.30927027
0.31220002
0.31357674
0.31491938
0.31734499
0.31925613
0.32138879
0.32388923
0.32630019
0.3289925
0.33181612
0.33475258
0.33790485
0.3411645
0.34461526
0.34821725
0.35199788
0.35594469
0.36006163
0.36436944
0.36886989
0.37356612
0.37846017
0.38355642
0.38885753
0.39436621
0.40008064
0.29920743
0.29957858
0.30004671
0.29946361
0.30018022
0.29962759
0.30000859
0.29982264
0.30023531
0.30106521
0.30311115
0.30638534
0.30996492
0.31170081
0.30932562
0.3041823
0.30111546
0.30433699
0.30850276
0.30848918
0.30925265
0.31218543
0.31358313
0.31490499
0.31733054
0.31924485
0.32136687
0.32386571
0.3262717
0.32895715
0.33177612
0.33470519
0.33785125
0.34110365
0.34454683
0.34814085
0.35191299
0.35585121
0.35995923
0.36425583
0.36874682
0.37343325
0.37831749
0.38340417
0.38869621
0.39419652
0.39990358
0.29920491
0.29957724
0.30005026
0.29946247
0.30018337
0.29962791
0.30000961
0.29982139
0.30022851
0.30104754
0.30307946
0.30634827
0.3099473
0.31173142
0.30942123
0.30426239
0.30113461
0.30426535
0.30849309
0.30851554
0.30923499
0.31216971
0.31358959
0.31489032
0.31731532
0.31923318
0.32134425
0.32384135
0.32624238
0.32892074
0.33173499
0.33465653
0.33779623
0.34104126
0.3444767
0.34806261
0.35182611
0.35575557
0.3598543
0.36414017
0.36862101
0.37329749
0.37817172
0.38324862
0.38853134
0.39402303
0.39972243
0.29920247
0.29957582
0.30005391
0.29946131
0.30018656
0.29962827
0.30001063
0.29982019
0.3002216
0.30102949
0.30304679
0.30630967
0.30992823
0.31176154
0.30951984
0.30434536
0.30115635
0.30419175
0.308481
0.30854324
0.30921732
0.3121528
0.31359608
0.31487537
0.31729929
0.31922113
0.32132089
0.32381612
0.3262122
0.32888326
0.3316927
0.33460657
0.33773975
0.34097728
0.34440482
0.34798248
0.35173717
0.35565772
0.3597469
0.3640224
0.3684923
0.37315879
0.3780228
0.3830897
0.38836287
0.39384567
0.39953713
0.2992001
0.29957431
0.30005767
0.29946013
0.30018978
0.29962867
0.30001164
0.29981903
0.30021459
0.30101108
0.30301314
0.30626949
0.30990762
0.31179111
0.30962143
0.3044315
0.30118073
0.30411631
0.30846619
0.30857232
0.30919969
0.31213462
0.31360259
0.31486018
0.31728243
0.31920865
0.32129679
0.32378998
0.32618114
0.32884467
0.33164922
0.33455526
0.33768177
0.34091166
0.34433113
0.3479004
0.35164612
0.35555759
0.35963699
0.36390253
0.36836053
0.37301707
0.37787067
0.38292735
0.38819074
0.39366438
0.39934762
0.29919781
0.29957269
0.30006153
0.29945892
0.30019304
0.29962913
0.30001264
0.29981792
0.30020749
0.3009923
0.30297848
0.30622766
0.30988535
0.31182003
0.309726
0.30452123
0.30120775
0.30403918
0.3084484
0.30860283
0.30918217
0.31211508
0.31360909
0.31484475
0.31726467
0.31919575
0.32127191
0.32376291
0.32614917
0.32880493
0.33160451
0.33450257
0.33762224
0.34084435
0.34425559
0.34781634
0.3515529
0.35545513
0.35952453
0.36378043
0.36822576
0.37287221
0.37771526
0.3827615
0.38801487
0.39347911
0.39915385
0.40503793
0.29919563
0.29957098
0.30006551
0.2994577
0.30019634
0.29962963
0.30001363
0.29981686
0.30020029
0.30097316
0.3029428
0.30618412
0.30986133
0.31184824
0.30983351
0.30461497
0.3012373
0.30396049
0.30842736
0.30863479
0.30916481
0.31209409
0.31361557
0.31482911
0.31724598
0.31918238
0.32124625
0.32373485
0.32611627
0.328764
0.33155854
0.33444846
0.33756111
0.34077532
0.34417814
0.34773021
0.35145744
0.35535028
0.35940947
0.36365563
0.36808849
0.37272402
0.37755649
0.38259208
0.3878352
0.3932898
0.39895575
0.40483225
0.29919355
0.29956915
0.3000696
0.29945646
0.30019967
0.29963019
0.3000146
0.29981586
0.30019299
0.30095366
0.30290608
0.30613882
0.30983544
0.31187564
0.30994389
0.30471317
0.30126925
0.30388036
0.30840284
0.30866821
0.30914768
0.31207156
0.31362199
0.3148133
0.31722632
0.31916853
0.32121977
0.32370577
0.3260824
0.32872185
0.33151126
0.33439289
0.33749834
0.3407045
0.34409873
0.34764198
0.3513597
0.35524297
0.35929175
0.36352768
0.36794918
0.3725723
0.37739425
0.38241901
0.38765165
0.39309635
0.39875327
0.4046219
0.2991916
0.29956721
0.30007382
0.2994552
0.30020302
0.29963081
0.30001556
0.29981492
0.30018561
0.3009338
0.30286832
0.3060917
0.30980755
0.31190212
0.31005707
0.30481619
0.30130342
0.30379893
0.30837465
0.30870304
0.30913086
0.31204737
0.31362835
0.31479733
0.31720564
0.31915416
0.32119246
0.32367562
0.32604754
0.32867844
0.33146262
0.33433581
0.33743387
0.34063185
0.3440173
0.34755157
0.3512596
0.35513313
0.35917131
0.36339674
0.3678075
0.37241715
0.37722834
0.38224222
0.38746414
0.39289871
0.39854632
0.40440679
0.29918978
0.29956514
0.30007816
0.29945392
0.30020641
0.2996315
0.30001649
0.29981405
0.30017814
0.30091361
0.3028295
0.30604269
0.30977755
0.31192757
0.31017296
0.30492431
0.3013397
0.30371631
0.30834263
0.30873922
0.30911442
0.31202141
0.31363461
0.31478125
0.31718388
0.31913923
0.3211643
0.32364437
0.32601164
0.32863374
0.3314126
0.33427718
0.33736767
0.34055731
0.34393378
0.34745892
0.35115707
0.35502069
0.35904807
0.36326275
0.3676628
0.37225926
0.37705854
0.38206156
0.38727259
0.39269679
0.39833484
0.40418687
0.41025101
0.29918811
0.29956294
0.30008262
0.29945263
0.30020982
0.29963226
0.3000174
0.29981325
0.30017058
0.30089307
0.30278961
0.30599173
0.30974531
0.31195187
0.31029145
0.30503772
0.30137808
0.30363268
0.30830666
0.30877666
0.30909844
0.31199357
0.31364074
0.3147651
0.31716102
0.31912371
0.32113526
0.32361196
0.32597469
0.32858769
0.33136113
0.33421696
0.33729966
0.34048083
0.34384812
0.34736397
0.35105204
0.35490558
0.35892197
0.36312566
0.36751441
0.37209917
0.37688485
0.38187682
0.38707694
0.39249049
0.39811873
0.40396205
0.41001895
0.29918661
0.2995606
0.30008722
0.29945133
0.30021325
0.29963309
0.30001828
0.29981252
0.30016293
0.30087222
0.30274865
0.30593877
0.3097107
0.31197489
0.31041238
0.30515655
0.30141868
0.30354824
0.30826662
0.30881523
0.30908303
0.31196377
0.31364667
0.31474891
0.31713698
0.31910756
0.32110533
0.32357836
0.32593663
0.32854026
0.33130817
0.3341551
0.3372298
0.34040234
0.34376025
0.34726665
0.35094445
0.35478774
0.35879294
0.36298542
0.36736258
0.37193608
0.37670783
0.38168777
0.38687703
0.39227976
0.39789794
0.40373227
0.40978165
0.29918528
0.29955811
0.30009196
0.29945001
0.3002167
0.29963399
0.30001914
0.29981187
0.3001552
0.30085106
0.30270661
0.30588375
0.30967358
0.31199647
0.3105356
0.30528098
0.30146175
0.30346324
0.30822234
0.30885475
0.3090683
0.3119319
0.31365233
0.31473273
0.31711174
0.31909073
0.3210745
0.3235435
0.32589744
0.3284914
0.33125368
0.33409156
0.33715804
0.34032179
0.34367011
0.34716689
0.35083423
0.35466708
0.3586609
0.36284196
0.36720728
0.3717691
0.37652828
0.38149448
0.38667261
0.39206451
0.39767238
0.40349749
0.40953908
0.41579432
0.29918415
0.29955545
0.30009684
0.29944868
0.30022016
0.29963498
0.30001996
0.29981131
0.30014739
0.30082961
0.30266349
0.30582661
0.3096338
0.31201646
0.3106609
0.30541124
0.30150757
0.30337798
0.30817363
0.30889507
0.30905436
0.31189787
0.31365765
0.31471661
0.31708523
0.31907317
0.32104274
0.32350736
0.32585709
0.32844109
0.33119761
0.33402629
0.33708433
0.34023914
0.34357765
0.34706464
0.35072132
0.35454355
0.35852579
0.36269522
0.36704848
0.37159822
0.37634565
0.38129765
0.38646335
0.39184463
0.397442
0.40325765
0.40929119
0.41554025
0.29918323
0.29955263
0.30010186
0.29944734
0.30022363
0.29963606
0.30002076
0.29981084
0.30013949
0.30080789
0.30261929
0.30576728
0.30959124
0.31203468
0.31078804
0.30554766
0.30155647
0.30329274
0.30812019
0.30893599
0.30904136
0.3118616
0.31366254
0.31470061
0.31705741
0.31905483
0.32101003
0.32346986
0.32581553
0.32838926
0.33113991
0.33395924
0.33700859
0.34015431
0.34348277
0.3469598
0.35060562
0.35441705
0.35838752
0.3625451
0.36688607
0.37142344
0.37615877
0.38109822
0.38624916
0.39161984
0.39720662
0.40301259
0.40903782
0.41528042
0.29918254
0.29954962
0.30010703
0.299446
0.30022711
0.29963724
0.30002151
0.29981046
0.30013151
0.30078591
0.302574
0.30570571
0.30954573
0.31205095
0.31091678
0.30569067
0.30160877
0.30320774
0.30806168
0.30897737
0.30902944
0.31182296
0.31366688
0.31468476
0.3170282
0.31903564
0.32097634
0.32343094
0.32577269
0.32833585
0.33108047
0.33389031
0.33693072
0.34006717
0.34338535
0.34685223
0.35048696
0.35428739
0.35824588
0.36239138
0.36671984
0.37124457
0.37596734
0.38089515
0.38603078
0.39138953
0.39696585
0.40276187
0.40877851
0.41501434
0.2991821
0.29954643
0.30011236
0.29944465
0.30023058
0.29963851
0.30002223
0.29981019
0.30012344
0.30076368
0.30252761
0.30564181
0.30949712
0.31206506
0.31104682
0.30584073
0.3016648
0.30312317
0.30799762
0.30901915
0.30901876
0.31178188
0.31367055
0.31466909
0.31699754
0.31901552
0.3209416
0.3233905
0.32572848
0.32828074
0.33101919
0.33381938
0.33685057
0.33997757
0.34328521
0.34674173
0.35036513
0.35415435
0.35810062
0.36223379
0.36654949
0.3710613
0.3757712
0.38068652
0.38580918
0.39115312
0.39671913
0.40250493
0.40851264
0.41474134
0.42118542
0.29918194
0.29954303
0.30011785
0.2994433
0.30023405
0.29963989
0.3000229
0.29981002
0.3001153
0.30074124
0.30248013
0.30557556
0.30944526
0.3120768
0.31117777
0.30599828
0.30172484
0.30303924
0.30792745
0.30906141
0.30900953
0.31173826
0.31367342
0.31465365
0.31696535
0.31899441
0.32090579
0.32334848
0.32568283
0.32822386
0.33095598
0.33374635
0.33676805
0.33988539
0.34318222
0.34662816
0.35023998
0.35401774
0.35795155
0.36207213
0.3663748
0.37087341
0.37557012
0.38047252
0.38558309
0.39091064
0.39646598
0.40224136
0.40823978
0.41446094
0.42089972
0.29918206
0.29953941
0.3001235
0.29944195
0.3002375
0.29964139
0.30002352
0.29980996
0.30010709
0.30071859
0.30243158
0.30550687
0.30938998
0.31208597
0.31130926
0.30616378
0.30178922
0.30295609
0.30785058
0.30910417
0.30900195
0.31169204
0.31367534
0.3146385
0.31693157
0.31897223
0.32086888
0.32330479
0.32563569
0.32816515
0.33089075
0.33367115
0.33668306
0.33979054
0.34307627
0.34651139
0.35011138
0.35387743
0.35779855
0.36190623
0.36619562
0.37068073
0.37536393
0.38025303
0.38535143
0.39066312
0.39620593
0.40197094
0.40795968
0.4141729
0.42060595
0.29918251
0.29953557
0.30012932
0.29944061
0.30024094
0.299643
0.3000241
0.29981002
0.30009882
0.30069576
0.30238195
0.30543572
0.30933114
0.31209231
0.31144085
0.30633763
0.30185829
0.30287388
0.30776668
0.30914714
0.30899629
0.31164318
0.31367613
0.31462369
0.31689616
0.31894892
0.32083083
0.32325939
0.32558698
0.32810454
0.33082342
0.33359371
0.33659551
0.33969291
0.34296725
0.34639132
0.34997919
0.35373329
0.35764144
0.36173596
0.36601177
0.37048309
0.37515246
0.38002788
0.38511324
0.3904113
0.3959386
0.40169336
0.40767208
0.41387694
0.42030381
0.42694503
0.2991833
0.29953148
0.30013531
0.29943928
0.30024435
0.29964475
0.30002462
0.2998102
0.3000905
0.30067276
0.30233128
0.30536205
0.30926858
0.31209561
0.31157207
0.30652021
0.30193242
0.3027928
0.3076755
0.30918986
0.30899279
0.31159163
0.31367562
0.31460929
0.31685906
0.31892439
0.32079163
0.3232122
0.32553664
0.32804197
0.33075391
0.33351393
0.3365053
0.33959241
0.34285505
0.34626781
0.34984329
0.35358517
0.35748009
0.36156114
0.36582309
0.3702803
0.37493551
0.37979689
0.38486872
0.39015426
0.39566416
0.40140819
0.4073767
0.41357278
0.41999301
0.42663022
0.29918445
0.29952714
0.30014148
0.29943796
0.30024773
0.29964663
0.30002509
0.29981051
0.30008214
0.30064961
0.30227957
0.30528582
0.30920213
0.3120956
0.31170246
0.30671184
0.30201203
0.30271312
0.30757684
0.30923175
0.30899173
0.31153742
0.31367358
0.31459536
0.31682025
0.31889855
0.32075125
0.32316314
0.32548461
0.32797735
0.33068214
0.33343173
0.33641234
0.33948894
0.34273955
0.34614074
0.34970354
0.35343292
0.35731433
0.3613816
0.36562938
0.37007218
0.3747129
0.37955987
0.38461771
0.38989064
0.39538382
0.4011149
0.40707326
0.41326011
0.41967324
0.42630594
0.299186
0.29952252
0.30014782
0.29943666
0.30025106
0.29964866
0.30002549
0.29981095
0.30007375
0.30062631
0.30222685
0.305207
0.30913165
0.31209202
0.3118315
0.30691279
0.30209752
0.30263523
0.30747053
0.30927222
0.30899339
0.31148059
0.3136698
0.31458195
0.3167797
0.3188713
0.32070966
0.32311217
0.3254308
0.32791062
0.330608
0.33334703
0.33631652
0.33938237
0.34262064
0.34600997
0.34955979
0.35327638
0.357144
0.36119718
0.36543048
0.36985853
0.3744844
0.37931659
0.38436003
0.38961934
0.39509837
0.40081309
0.40676137
0.41293864
0.41934419
0.42597186
0.29918798
0.29951762
0.30015435
0.29943538
0.30025435
0.29965085
0.30002583
0.29981152
0.30006536
0.3006029
0.30217314
0.30512557
0.30905697
0.31208461
0.3119587
0.30712327
0.30218937
0.30255963
0.30735646
0.30931059
0.30899809
0.31142123
0.31366401
0.31456913
0.31673738
0.31884251
0.32066685
0.3230592
0.32537515
0.3278417
0.33053141
0.33325972
0.33621775
0.33927261
0.34249818
0.34587538
0.34941191
0.3531154
0.35696894
0.36100769
0.36522618
0.36963915
0.37424982
0.37906685
0.38409546
0.38934059
0.39480666
0.40050311
0.40644051
0.41260804
0.41900551
0.42562763
0.43246663
0.29919041
0.29951241
0.30016107
0.29943414
0.30025757
0.2996532
0.3000261
0.29981223
0.30005698
0.30057937
0.30211849
0.30504151
0.30897794
0.31207308
0.31208356
0.30734338
0.30228818
0.30248675
0.30723464
0.30934607
0.30900612
0.31135948
0.31365595
0.31455694
0.31669331
0.31881208
0.32062278
0.32300416
0.32531755
0.32777052
0.33045226
0.33316972
0.33611591
0.33915953
0.34237206
0.34573682
0.34925973
0.35294982
0.35678896
0.36081294
0.36501629
0.36941383
0.37400893
0.37881042
0.38382377
0.3890542
0.39450711
0.40018637
0.40611005
0.41226797
0.41865686
0.4252729
0.43210895
0.29919332
0.29950688
0.30016799
0.29943292
0.30026072
0.29965572
0.3000263
0.29981308
0.30004861
0.30055576
0.30206291
0.30495482
0.30889442
0.31205713
0.31220558
0.30757309
0.30239479
0.30241695
0.30710515
0.30937782
0.30901782
0.31129554
0.31364534
0.31454545
0.31664747
0.31877986
0.32057743
0.32294699
0.32525794
0.32769698
0.33037046
0.33307693
0.3360109
0.33904302
0.34224213
0.34559414
0.3491031
0.35277946
0.35660389
0.36061276
0.36480062
0.36918236
0.37376151
0.37854705
0.38354472
0.38875996
0.39419862
0.3998635
0.40576965
0.41191797
0.41829788
0.42490729
0.43173981
0.29919676
0.29950101
0.3001751
0.29943174
0.30026379
0.29965843
0.30002643
0.29981407
0.30004029
0.30053207
0.30200647
0.30486548
0.30880625
0.31203646
0.31232426
0.30781224
0.30251023
0.30235041
0.30696825
0.30940486
0.30903351
0.31122967
0.31363187
0.31453471
0.31659988
0.31874571
0.32053078
0.32288761
0.3251962
0.32762102
0.33028588
0.33298124
0.33590259
0.33892295
0.34210828
0.34544721
0.34894187
0.35260416
0.35641355
0.36040693
0.36457895
0.36894451
0.37350732
0.37827651
0.38325805
0.38845761
0.39388139
0.39953301
0.40542007
0.41155733
0.41792821
0.4245304
0.4313588
0.43840213
0.29920076
0.29949478
0.30018241
0.29943061
0.30026676
0.29966134
0.30002648
0.29981521
0.30003201
0.30050832
0.3019492
0.30477351
0.30871329
0.31201076
0.31243909
0.30806051
0.30263567
0.30228712
0.30682432
0.30942618
0.30905353
0.31116218
0.31361521
0.31452474
0.31655055
0.31870948
0.3204828
0.32282596
0.32513225
0.32754254
0.33019842
0.33288255
0.33579087
0.33879919
0.34197035
0.34529587
0.34877588
0.35242373
0.35621775
0.36019526
0.36435107
0.36870005
0.37324613
0.37799854
0.38296349
0.38814689
0.39355521
0.39919304
0.405063
0.41118527
0.41754741
0.42414184
0.43096551
0.43800769
0.29920535
0.29948817
0.30018994
0.29942953
0.30026961
0.29966446
0.30002645
0.29981651
0.30002379
0.30048453
0.30189116
0.30467893
0.30861541
0.31197972
0.31254953
0.30831742
0.30277238
0.30222691
0.30667386
0.3094407
0.30907821
0.31109343
0.31359504
0.31451558
0.31649947
0.31867099
0.32043349
0.32276195
0.32506597
0.32746146
0.33010796
0.33278074
0.33567561
0.33867162
0.34182822
0.34513996
0.34860495
0.352238
0.35601629
0.35997754
0.36411675
0.36844876
0.37297768
0.37771288
0.38266078
0.38782752
0.39321981
0.39884277
0.40469862
0.41080163
0.41715487
0.42374119
0.43055949
0.43759987
0.29921058
0.29948116
0.30019767
0.29942851
0.30027232
0.29966781
0.30002634
0.29981801
0.30001562
0.3004607
0.30183242
0.30458177
0.30851247
0.31194301
0.31265501
0.30858233
0.30292157
0.30216953
0.3065175
0.30944734
0.30910785
0.31102381
0.31357102
0.31450728
0.31644664
0.31863006
0.32038281
0.3226955
0.32499724
0.32737768
0.33001437
0.33267569
0.33555668
0.3385401
0.34168173
0.34497933
0.34842891
0.35204677
0.35580898
0.35975355
0.36387578
0.36819038
0.37270172
0.37741925
0.38234962
0.38749921
0.39287491
0.39848228
0.40432486
0.41040785
0.41674974
0.42332801
0.43014029
0.4371782
0.44442793
0.29921648
0.29947373
0.30020562
0.29942755
0.30027487
0.2996714
0.30002615
0.29981972
0.30000748
0.30043685
0.30177302
0.30448206
0.30840436
0.31190031
0.31275494
0.30885445
0.30308442
0.30211479
0.30635595
0.3094451
0.30914271
0.3109537
0.3135428
0.31449984
0.31639197
0.3185865
0.32033076
0.32262654
0.32492595
0.32729112
0.32991754
0.33256728
0.33543396
0.33840449
0.34153073
0.3448138
0.34824759
0.35184986
0.35559561
0.35952308
0.36362791
0.36792467
0.37241798
0.37711739
0.38202973
0.38716164
0.3925202
0.39811132
0.40393937
0.41000609
0.41633121
0.42290171
0.42970745
0.43674218
0.4439928
0.2992231
0.29946586
0.30021379
0.29942665
0.30027725
0.29967527
0.30002589
0.29982167
0.29999939
0.30041297
0.30171306
0.30437985
0.30829098
0.31185125
0.31284872
0.30913281
0.30326207
0.30206265
0.30619
0.30943308
0.30918294
0.31088349
0.31351002
0.31449328
0.31633538
0.31854009
0.32027734
0.32255497
0.32485195
0.32720167
0.32981733
0.33245539
0.3353073
0.33826463
0.34137508
0.34464322
0.34806082
0.35164707
0.35537596
0.35928591
0.36337291
0.36765138
0.3721262
0.37680699
0.38170081
0.3868145
0.39215535
0.39772957
0.40354208
0.40959536
0.41589949
0.42246146
0.42926049
0.4362913
0.44354208
0.45099821
0.29923049
0.29945752
0.30022218
0.29942583
0.30027941
0.29967943
0.30002555
0.29982389
0.29999136
0.30038905
0.30165258
0.3042752
0.30817222
0.31179546
0.31293579
0.3094163
0.30345567
0.30201337
0.30602043
0.30941056
0.30922861
0.31081341
0.31347235
0.31448754
0.31627674
0.31849064
0.32022253
0.32248069
0.32477512
0.32710924
0.3297136
0.33233989
0.33517657
0.33812039
0.3412146
0.3444674
0.34786839
0.3514382
0.35514984
0.35904179
0.36311052
0.36737024
0.3718261
0.37648778
0.38136253
0.38645747
0.39178002
0.3973367
0.40313287
0.40917292
0.4154569
0.42200629
0.42879884
0.43582505
0.4430752
0.45053548
0.29923868
0.29944868
0.3002308
0.2994251
0.30028135
0.2996839
0.30002514
0.29982637
0.29998343
0.30036508
0.30159167
0.30416818
0.30804801
0.3117325
0.31301559
0.30970365
0.3036665
0.30196752
0.30584802
0.30937696
0.30927978
0.31074341
0.31342943
0.31448246
0.31621596
0.31843792
0.32016631
0.32240363
0.32469528
0.32701374
0.32960622
0.33222062
0.33504161
0.33797159
0.34104915
0.34428618
0.34767013
0.35122303
0.354917
0.35879051
0.3628405
0.36708098
0.37151739
0.37615944
0.38101459
0.3860902
0.39139386
0.39693236
0.40271144
0.40873625
0.41500529
0.42153589
0.42832169
0.43534288
0.44259158
0.4500552
0.29924774
0.29943933
0.30023966
0.29942444
0.30028303
0.29968872
0.30002466
0.29982913
0.29997564
0.30034104
0.30153039
0.30405889
0.30791831
0.31166193
0.31308759
0.30999347
0.30389583
0.30192596
0.3056735
0.30933187
0.30933647
0.31067304
0.31338091
0.3144777
0.31615308
0.31838174
0.32010865
0.3223237
0.32461229
0.32691504
0.32949504
0.33209746
0.33490227
0.33781809
0.34087855
0.34409936
0.34746584
0.35100137
0.35467724
0.3585318
0.36256258
0.36678332
0.37119977
0.37582165
0.38065666
0.38571236
0.39099652
0.39651616
0.40227743
0.40828604
0.41454181
0.42105162
0.42782794
0.43484421
0.44209063
0.44955673
0.45722445
0.29925772
0.29942944
0.30024875
0.29942388
0.30028443
0.29969391
0.30002412
0.29983215
0.29996803
0.30031692
0.30146881
0.30394741
0.30778307
0.31158329
0.31315125
0.31028423
0.30414495
0.30188983
0.30549747
0.309275
0.30939816
0.31060188
0.3133265
0.31447274
0.31608826
0.31832189
0.3200495
0.32224083
0.32452598
0.32681305
0.32937991
0.33197025
0.33475839
0.3376597
0.34070263
0.34390676
0.34725533
0.35077299
0.35443032
0.35826543
0.36227651
0.36647699
0.37087295
0.37547411
0.3802884
0.38532358
0.39058761
0.39608772
0.40183045
0.40782196
0.41406353
0.42055618
0.42731657
0.43432821
0.44157175
0.44903943
0.45671407
0.29926866
0.29941898
0.30025808
0.29942342
0.30028553
0.29969949
0.30002354
0.29983546
0.29996065
0.30029272
0.30140698
0.30383386
0.3076423
0.31149619
0.313206
0.31057436
0.30441498
0.30186057
0.30532037
0.3092061
0.30946336
0.31053034
0.31326592
0.31446699
0.3160217
0.3182582
0.31998879
0.32215496
0.32443616
0.32670766
0.32926069
0.33183883
0.33460982
0.33749626
0.34052122
0.34370819
0.34703838
0.35053767
0.35417599
0.35799115
0.361982
0.3661617
0.37053662
0.37511648
0.37990948
0.38492351
0.39016675
0.39564664
0.40137009
0.40734365
0.41356948
0.42004914
0.42678799
0.43379372
0.44103429
0.44850264
0.45618328
0.29928063
0.29940792
0.30026766
0.29942307
0.3002863
0.2997055
0.30002292
0.29983904
0.2999535
0.30026847
0.30134495
0.30371837
0.307496
0.31140022
0.31325123
0.31086227
0.30470684
0.30183996
0.30514243
0.30912499
0.30952993
0.31045944
0.31319897
0.31445977
0.31595367
0.31819049
0.31992642
0.32206601
0.32434265
0.32659875
0.32913723
0.33170305
0.33445639
0.33732758
0.34033412
0.34350345
0.3468148
0.35029519
0.35391403
0.35770869
0.36167878
0.36583714
0.37019046
0.37474842
0.37951952
0.38451176
0.38973355
0.39519251
0.4008959
0.40685069
0.41305972
0.41952675
0.42624531
0.43323949
0.44047739
0.44794567
0.45563132
0.4635148
0.29929368
0.29939623
0.30027749
0.29942282
0.30028673
0.29971195
0.30002227
0.29984291
0.29994662
0.30024421
0.30128278
0.30360108
0.30734422
0.31129504
0.3132863
0.31114636
0.30502113
0.30183024
0.30496364
0.3090315
0.30959557
0.31039032
0.31312548
0.31445035
0.31588448
0.31811863
0.31986226
0.32197393
0.32424526
0.3264862
0.32900937
0.33156273
0.33429792
0.33715348
0.34014117
0.34329234
0.34658437
0.35004531
0.35364419
0.3574178
0.36136657
0.36550302
0.36983415
0.3743696
0.37911819
0.38408796
0.38928759
0.39472489
0.40040746
0.40634261
0.41253388
0.41898566
0.42569084
0.43266538
0.43989989
0.4473678
0.45505745
0.46295095
0.29930788
0.2993839
0.30028758
0.29942269
0.30028679
0.29971887
0.30002162
0.29984706
0.29994001
0.30021996
0.3012205
0.30348214
0.30718703
0.31118037
0.31331054
0.31142507
0.30535802
0.30183412
0.30478371
0.30892543
0.30965802
0.31032418
0.31304528
0.31443807
0.31581448
0.31804251
0.31979614
0.32187865
0.32414381
0.32636989
0.32887696
0.33141771
0.33413424
0.33697377
0.33994217
0.34307465
0.34634688
0.34978781
0.35336622
0.3571182
0.36104509
0.36515904
0.36946736
0.37397968
0.3787051
0.38365171
0.38882848
0.39424335
0.39990431
0.40581895
0.41199148
0.4184268
0.42512027
0.43207388
0.43930047
0.44676813
0.45446092
0.46236336
0.47045295
0.29932328
0.29937088
0.30029792
0.29942268
0.30028647
0.29972628
0.30002098
0.29985148
0.29993371
0.30019577
0.30115815
0.30336171
0.30702455
0.31105593
0.3133233
0.31169684
0.30571725
0.30185481
0.30460202
0.30880622
0.30971549
0.3102623
0.31295816
0.3144224
0.31574409
0.31796206
0.31972782
0.32178011
0.3240381
0.3262497
0.32873985
0.3312678
0.33396518
0.33678825
0.33973692
0.34285018
0.34610211
0.34952245
0.35307987
0.35680964
0.36071403
0.36480487
0.36908977
0.37357829
0.37827988
0.38320263
0.38835578
0.39374745
0.39938597
0.40527923
0.41143206
0.41784978
0.42452942
0.43146826
0.43867866
0.44614543
0.45384091
0.46175119
0.46985527
0.29933996
0.29935714
0.30030852
0.2994228
0.30028574
0.2997342
0.30002037
0.29985619
0.29992773
0.30017167
0.30109576
0.30323996
0.30685688
0.31092153
0.31332391
0.31196013
0.30609798
0.3018959
0.3044177
0.30867221
0.30976779
0.31020604
0.31286376
0.31440318
0.31567377
0.31787727
0.31965702
0.32167825
0.32392795
0.32612551
0.32859789
0.33111282
0.33379055
0.3365967
0.33952522
0.34261871