/*--------------------------------*- C++ -*----------------------------------*\
| =========                 |                                                 |
| \\      /  F ield         | OpenFOAM: The Open Source CFD Toolbox           |
|  \\    /   O peration     | Version:  2506                                  |
|   \\  /    A nd           | Website:  www.openfoam.com                      |
|    \\/     M anipulation  |                                                 |
\*---------------------------------------------------------------------------*/
FoamFile
{
    version     2.0;
    format      ascii;
    arch        "LSB;label=32;scalar=64";
    class       volScalarField;
    location    "0.00052";
    object      yPlus;
}
// * * * * * * * * * * * * * * * * * * * * * * * * * * * * * * * * * * * * * //

dimensions      [0 0 0 0 0 0 0];

internalField   uniform 0;

boundaryField
{
    Side
    {
        type            empty;
    }
    Inlet
    {
        type            calculated;
        value           nonuniform List<scalar> 0();
    }
    Airfoil
    {
        type            calculated;
        value           nonuniform List<scalar> 
117
(
0.47378392
0.46771325
0.46556116
0.45425203
0.44624125
0.45068305
0.45085388
0.45392817
0.44936703
0.44909736
0.44745199
0.44386102
0.44218852
0.43942677
0.43554548
0.43504485
0.44159721
0.43613554
0.43637229
0.43945666
0.44312018
0.44778809
0.44596837
0.45309614
0.45105544
0.44931855
0.45078459
0.45168001
0.4518972
0.45344937
0.45443536
0.45677242
0.45850742
0.45873734
0.45949825
0.4596
0.45945562
0.458547
0.45802959
0.45653087
0.46015882
0.46053442
0.46148901
0.45764231
0.46140341
0.45363722
0.4573172
0.45277036
0.45489619
0.45508747
0.45692799
0.45885135
0.45744743
0.45936076
0.45891207
0.45875114
0.4577291
0.45672206
0.45649415
0.45530027
0.45475657
0.45608126
0.45459483
0.4534184
0.45239787
0.45105865
0.45273075
0.44945615
0.44951114
0.44869378
0.44873081
0.44888417
0.44767735
0.44815713
0.44535312
0.44565233
0.44486414
0.44275548
0.44034526
0.43999084
0.43950222
0.43921756
0.44160261
0.44269411
0.44112037
0.43719102
0.43703758
0.43152576
0.43071921
0.43667149
0.43827208
0.42790098
0.43747434
0.43184636
0.42912215
0.42822064
0.42876305
0.43000334
0.42853466
0.42906063
0.42739707
0.42396832
0.42575016
0.42248774
0.42287929
0.45598904
1.8582735
5.3269585
9.3094922
10.763221
9.6458084
6.7369388
6.2513954
6.6802097
7.3484065
8.02975
12.544193
)
;
    }
    Outlet
    {
        type            calculated;
        value           nonuniform List<scalar> 0();
    }
    procBoundary15to11
    {
        type            processor;
        value           uniform 0;
    }
    procBoundary15to30
    {
        type            processor;
        value           uniform 0;
    }
    procBoundary15to31
    {
        type            processor;
        value           uniform 0;
    }
    procBoundary15to47
    {
        type            processor;
        value           uniform 0;
    }
}


// ************************************************************************* //
