/*--------------------------------*- C++ -*----------------------------------*\
| =========                 |                                                 |
| \\      /  F ield         | OpenFOAM: The Open Source CFD Toolbox           |
|  \\    /   O peration     | Version:  2506                                  |
|   \\  /    A nd           | Website:  www.openfoam.com                      |
|    \\/     M anipulation  |                                                 |
\*---------------------------------------------------------------------------*/
FoamFile
{
    version     2.0;
    format      ascii;
    arch        "LSB;label=32;scalar=64";
    class       volVectorField;
    location    "0.026";
    object      wallShearStress;
}
// * * * * * * * * * * * * * * * * * * * * * * * * * * * * * * * * * * * * * //

dimensions      [1 -1 -2 0 0 0 0];

internalField   uniform (0 0 0);

boundaryField
{
    Side
    {
        type            empty;
    }
    Inlet
    {
        type            calculated;
        value           uniform (0 0 0);
    }
    Airfoil
    {
        type            calculated;
        value           nonuniform List<vector> 
92
(
(0.091624743 -0.010336388 6.2988347e-16)
(0.096252602 -0.011318625 -3.1375035e-16)
(0.018732407 -0.0022019263 -2.9814692e-22)
(0.0070438915 -0.00053026172 2.9709432e-22)
(0.10328014 -0.011404845 3.1043911e-16)
(0.2812822 -0.031793878 -3.093467e-16)
(0.51380924 -0.058400437 -6.0185311e-36)
(0.77611988 -0.088436139 3.072371e-16)
(1.0521804 -0.11977931 -6.1244507e-16)
(1.3416656 -0.15251223 -1.7116702e-32)
(1.6545996 -0.18760213 1.5046328e-36)
(1.9998931 -0.22605271 -3.0315636e-16)
(2.3816141 -0.26831421 6.0427228e-16)
(2.789783 -0.31326656 -2.8692591e-22)
(3.2011873 -0.3582539 2.8635234e-22)
(3.5631864 -0.39767233 2.8491401e-22)
(3.793765 -0.42227672 -2.9795702e-16)
(3.7609558 -0.41856453 -5.9406289e-16)
(3.2926492 -0.36764306 5.8851355e-26)
(2.2459335 -0.25376363 2.8194302e-22)
(0.63198725 -0.077895391 -2.9538788e-16)
(-0.83669953 0.08462212 2.954276e-16)
(-1.3466257 0.14424299 5.9021773e-16)
(-0.96502834 0.10511656 2.8069131e-22)
(-0.38162104 0.042886344 2.8006572e-22)
(0.16194976 -0.015719688 -2.7950007e-22)
(0.51324174 -0.053981457 -2.5211714e-38)
(0.50844042 -0.054138056 7.2944597e-33)
(0.25610994 -0.027719781 -5.8239043e-16)
(-0.0041377609 6.7383645e-05 2.7726684e-22)
(-0.11323707 0.012162367 -2.7679071e-22)
(-0.039097561 0.0048606328 -2.7628963e-22)
(0.12916754 -0.012447944 -2.8924015e-16)
(0.33339872 -0.03350301 2.8458884e-22)
(0.53739825 -0.054472447 2.8826772e-16)
(0.73273533 -0.074336351 -2.8782149e-16)
(0.92664048 -0.093842017 2.7414796e-22)
(1.1323231 -0.1143907 1.2376273e-33)
(1.3615062 -0.13702734 -2.7311643e-22)
(1.6199429 -0.16268587 5.4570214e-22)
(1.9042741 -0.19056253 -2.7259291e-22)
(2.2036722 -0.21996205 -5.7048528e-16)
(2.4934441 -0.24815471 2.8478608e-16)
(2.7308906 -0.27112212 -2.8431151e-16)
(2.8428702 -0.28176011 2.8387927e-16)
(2.6981202 -0.26771322 2.834576e-16)
(2.1311336 -0.21322746 -2.8326324e-16)
(0.88270563 -0.093290406 2.6993012e-22)
(-0.72256499 0.062824105 -2.8698593e-42)
(-1.7622077 0.1661773 -2.7101219e-22)
(-1.9329159 0.18492885 -2.371327e-25)
(-1.7737064 0.17091647 2.8368345e-16)
(-1.4779218 0.14275255 2.8337199e-16)
(-1.1150417 0.10803556 5.95469e-33)
(-0.78605769 0.076439175 2.8279868e-16)
(-0.49826656 0.048923667 -5.3891505e-22)
(-0.24857234 0.025222621 2.8229395e-16)
(-0.026518833 0.0043934552 2.8206712e-16)
(0.17930734 -0.014743097 2.6869156e-22)
(0.37963087 -0.033095386 -2.6867223e-22)
(0.58062741 -0.051252309 -2.8142082e-16)
(0.78549764 -0.069562923 1.0532429e-35)
(0.99649235 -0.088229911 2.8104642e-16)
(1.2165449 -0.10746946 2.6773007e-22)
(1.4474403 -0.12747186 -2.678167e-22)
(1.6921978 -0.14838847 2.6734994e-22)
(1.9549126 -0.17064447 -3.5543932e-25)
(2.2389174 -0.19445774 -3.9267198e-25)
(2.5412986 -0.21959245 2.7989632e-16)
(2.8516764 -0.24516101 -3.0092655e-36)
(3.1440801 -0.26894754 3.7330682e-23)
(3.3781848 -0.28764888 -9.4039548e-35)
(3.4990583 -0.29673711 -2.7909563e-16)
(3.4277198 -0.29047237 2.6621425e-22)
(3.0943199 -0.26230174 2.7903314e-16)
(2.4086722 -0.20594749 -2.7915799e-16)
(1.342484 -0.11868335 -2.7963861e-16)
(-0.1441646 0.0032745305 3.7615819e-36)
(-1.5801059 0.1220765 2.2569492e-36)
(-2.2307161 0.17775882 2.8186144e-16)
(-2.2099752 0.17797004 -2.8207281e-16)
(-1.941195 0.1569798 -5.6234396e-27)
(-1.5079549 0.12234462 -2.8231576e-16)
(-1.0540979 0.086009983 7.5231638e-37)
(-0.6482447 0.053611182 -1.4119827e-16)
(-0.31549738 0.027137752 1.4123658e-16)
(-0.083857073 0.0085755168 1.4126956e-16)
(-0.013644476 0.0023704235 -1.4133256e-16)
(-0.1572124 0.01250026 1.4144761e-16)
(-0.48433279 0.036361667 -2.7122805e-22)
(-0.87048976 0.064892354 5.3294721e-38)
(-1.1811502 0.087685242 2.7094408e-22)
)
;
    }
    Outlet
    {
        type            calculated;
        value           nonuniform List<vector> 0();
    }
    procBoundary11to3
    {
        type            processor;
        value           uniform (0 0 0);
    }
    procBoundary11to4
    {
        type            processor;
        value           uniform (0 0 0);
    }
    procBoundary11to10
    {
        type            processor;
        value           uniform (0 0 0);
    }
    procBoundary11to12
    {
        type            processor;
        value           uniform (0 0 0);
    }
}


// ************************************************************************* //
