/*--------------------------------*- C++ -*----------------------------------*\
| =========                 |                                                 |
| \\      /  F ield         | OpenFOAM: The Open Source CFD Toolbox           |
|  \\    /   O peration     | Version:  2506                                  |
|   \\  /    A nd           | Website:  www.openfoam.com                      |
|    \\/     M anipulation  |                                                 |
\*---------------------------------------------------------------------------*/
FoamFile
{
    version     2.0;
    format      ascii;
    arch        "LSB;label=32;scalar=64";
    class       volScalarField;
    location    "1.25";
    object      T;
}
// * * * * * * * * * * * * * * * * * * * * * * * * * * * * * * * * * * * * * //

dimensions      [0 0 0 1 0 0 0];

internalField   nonuniform List<scalar> 
1376
(
245.58437
245.58334
245.57955
245.57953
245.5815
245.58246
245.58338
245.58444
245.58385
245.58085
245.579
245.57781
245.57521
245.57747
245.57529
245.57119
245.56691
245.56425
245.56449
245.56116
245.55786
245.55694
245.55303
245.55119
245.54605
245.53845
245.53679
245.5346
245.53144
245.52238
245.51281
245.50948
245.51125
245.51373
245.50914
245.50331
245.49986
245.50175
245.5046
245.50647
245.48602
245.46681
245.4636
245.42283
245.34217
245.24905
244.76317
244.66484
244.30261
245.58442
245.58303
245.57974
245.57991
245.58135
245.58217
245.58315
245.58479
245.58443
245.5821
245.58011
245.57841
245.57638
245.5786
245.57593
245.57246
245.57048
245.56761
245.56681
245.56462
245.56169
245.56151
245.55773
245.5566
245.55324
245.54656
245.54572
245.54527
245.54397
245.5382
245.53016
245.52553
245.53174
245.53966
245.53969
245.53963
245.53959
245.54529
245.57139
245.58459
245.56637
245.55937
245.53248
245.59225
245.54355
245.44896
245.27948
245.13046
244.1389
245.58578
245.58352
245.58043
245.58037
245.58127
245.58209
245.58308
245.58481
245.58509
245.58305
245.58121
245.57907
245.57868
245.57942
245.57798
245.57629
245.57419
245.57042
245.56938
245.56844
245.56533
245.5656
245.56347
245.56224
245.5608
245.55548
245.5552
245.55567
245.55717
245.55354
245.54748
245.54383
245.5513
245.56221
245.56834
245.57281
245.57672
245.58202
245.61129
245.64827
245.65014
245.63957
245.68441
245.7045
245.73614
245.6956
245.48018
245.44578
244.43299
245.58852
245.58434
245.58044
245.5803
245.58162
245.58265
245.58276
245.58467
245.58491
245.58376
245.58257
245.58056
245.5798
245.58177
245.58073
245.57854
245.57612
245.57349
245.57268
245.57272
245.56911
245.56976
245.56967
245.56798
245.56777
245.56565
245.56398
245.56595
245.56976
245.56862
245.56582
245.56342
245.56974
245.58349
245.59648
245.60517
245.61415
245.62219
245.65069
245.70826
245.73283
245.72681
245.77015
245.7878
245.85354
245.84915
245.79886
245.68713
244.80425
245.58892
245.5847
245.58017
245.58074
245.58212
245.5829
245.58275
245.58441
245.58476
245.5849
245.58361
245.58167
245.58066
245.58234
245.58159
245.57999
245.57883
245.57735
245.5763
245.57623
245.57346
245.57415
245.57571
245.57414
245.57522
245.57577
245.5736
245.57691
245.58201
245.58479
245.58452
245.58372
245.5895
245.60528
245.62347
245.63768
245.65177
245.66187
245.6922
245.75291
245.80556
245.82114
245.84532
245.90878
246.01005
246.00887
246.0071
245.97699
245.20657
245.58855
245.58481
245.58084
245.58145
245.58268
245.58307
245.58256
245.58398
245.58536
245.58613
245.58457
245.58287
245.58245
245.58182
245.5832
245.58288
245.58254
245.58104
245.57972
245.58033
245.5791
245.57835
245.58161
245.58117
245.58288
245.58564
245.5847
245.58782
245.59471
245.60024
245.60286
245.60436
245.61008
245.62703
245.64889
245.66858
245.68753
245.7035
245.72741
245.79233
245.86745
245.89666
245.95111
246.02351
246.10747
246.18241
246.20709
246.26955
245.60637
245.58745
245.58618
245.5819
245.58193
245.58281
245.58314
245.58235
245.58351
245.58524
245.5867
245.58553
245.58511
245.58469
245.58361
245.58616
245.58649
245.5859
245.58505
245.58385
245.58474
245.58384
245.5837
245.58731
245.58809
245.59096
245.59498
245.59607
245.59961
245.60729
245.61518
245.62075
245.62533
245.63193
245.64869
245.67314
245.69793
245.7229
245.74584
245.77009
245.83227
245.9169
245.97915
246.0316
246.1093
246.22822
246.32339
246.43035
246.50507
246.01836
245.58633
245.58693
245.58068
245.58185
245.58215
245.582
245.58193
245.58302
245.58496
245.58743
245.58748
245.58708
245.5868
245.58623
245.58777
245.58959
245.58921
245.5891
245.58818
245.58874
245.58881
245.58946
245.59276
245.5956
245.59881
245.60392
245.60764
245.61167
245.62008
245.62993
245.63813
245.64572
245.65418
245.67079
245.69635
245.72624
245.75706
245.78711
245.81579
245.86663
245.961
246.04111
246.1146
246.20318
246.34346
246.43175
246.61864
246.75174
246.4426
245.58633
245.58683
245.57943
245.58078
245.58092
245.5806
245.58124
245.58271
245.58533
245.58814
245.58928
245.58926
245.58912
245.58855
245.58985
245.59255
245.59298
245.59299
245.59256
245.59331
245.59442
245.59519
245.59929
245.60309
245.60683
245.61306
245.61849
245.62381
245.63315
245.64457
245.65489
245.66526
245.67635
245.69362
245.71923
245.75278
245.78833
245.82584
245.8601
245.90734
245.99851
246.10086
246.18244
246.29174
246.42839
246.59953
246.80524
247.02036
246.83848
245.58842
245.58692
245.57926
245.57979
245.57974
245.57986
245.58149
245.58316
245.58591
245.58842
245.59076
245.59161
245.59203
245.59164
245.5922
245.59515
245.59654
245.59677
245.59726
245.59869
245.60066
245.6015
245.60589
245.61069
245.61519
245.62242
245.62892
245.63601
245.64639
245.65911
245.67111
245.68393
245.69789
245.71672
245.74246
245.77722
245.8177
245.86085
245.90391
245.9526
246.03624
246.15007
246.25652
246.37587
246.52992
246.73784
246.95927
247.23343
247.20287
245.59102
245.58872
245.58001
245.5805
245.58061
245.5812
245.58256
245.58414
245.58675
245.58917
245.59203
245.59381
245.59469
245.59443
245.59478
245.59757
245.59983
245.60016
245.60168
245.60385
245.60672
245.60806
245.61268
245.61865
245.6238
245.63171
245.63915
245.64786
245.65941
245.67332
245.68689
245.70179
245.71842
245.73923
245.76564
245.80052
245.84497
245.89298
245.94326
245.99771
246.07591
246.19511
246.31621
246.44266
246.61835
246.83434
247.121
247.42383
247.54
245.59295
245.59128
245.58143
245.58118
245.58142
245.58228
245.58336
245.58558
245.58772
245.59013
245.59318
245.5957
245.59671
245.59684
245.59702
245.59944
245.60219
245.60345
245.6057
245.60848
245.61227
245.61438
245.61915
245.62608
245.63202
245.64057
245.64895
245.65874
245.6718
245.68708
245.70212
245.71865
245.73756
245.76045
245.78816
245.82319
245.86983
245.92255
245.97801
246.03891
246.11814
246.23404
246.37167
246.51684
246.70419
246.94974
247.22361
247.6356
247.83656
245.59551
245.59281
245.58194
245.58125
245.58231
245.58339
245.58556
245.58684
245.58844
245.59128
245.59437
245.59731
245.59855
245.59917
245.59951
245.60188
245.60503
245.6072
245.60961
245.61266
245.61708
245.61994
245.62466
245.63238
245.63937
245.64859
245.65813
245.66864
245.68306
245.70001
245.71649
245.73442
245.75528
245.78008
245.80943
245.84492
245.89295
245.94969
246.00931
246.07559
246.15849
246.27391
246.41947
246.58031
246.76742
247.02986
247.34509
247.81551
248.0911
245.59879
245.59534
245.58317
245.58139
245.58259
245.58379
245.58661
245.58734
245.58886
245.59208
245.59523
245.59856
245.60048
245.60142
245.60217
245.60457
245.60787
245.61071
245.61345
245.61672
245.62154
245.62538
245.63019
245.63831
245.64623
245.65597
245.66672
245.67772
245.69289
245.71146
245.72956
245.7488
245.77145
245.79793
245.82886
245.86509
245.91425
245.97416
246.03738
246.1076
246.1938
246.31104
246.45991
246.63543
246.84198
247.10448
247.4847
247.9191
248.32245
245.60142
245.59741
245.58373
245.5815
245.58284
245.58451
245.58635
245.58765
245.5895
245.59258
245.59574
245.59929
245.60202
245.60357
245.60472
245.60709
245.61035
245.61381
245.61719
245.62076
245.62572
245.63045
245.63578
245.64424
245.65289
245.66287
245.67452
245.68604
245.70142
245.7211
245.7409
245.76142
245.78572
245.81374
245.846
245.88314
245.93307
245.99581
246.06199
246.13547
246.22448
246.34273
246.49649
246.68013
246.90432
247.17936
247.55451
248.08565
248.52096
245.60393
245.59938
245.58434
245.58311
245.58418
245.58627
245.5877
245.58876
245.59006
245.59283
245.59634
245.59986
245.60297
245.60514
245.60686
245.60932
245.61242
245.61621
245.62026
245.6243
245.62953
245.6349
245.64069
245.64933
245.65864
245.66888
245.68101
245.69314
245.70864
245.72891
245.75015
245.77187
245.79757
245.82703
245.86029
245.89834
245.94897
246.01396
246.0828
246.15843
246.25027
246.36913
246.52504
246.71845
246.94925
247.24974
247.62899
248.20925
248.67165
245.60623
245.60088
245.58515
245.58416
245.58516
245.58716
245.58908
245.59056
245.59112
245.59377
245.59709
245.60026
245.60363
245.60632
245.60846
245.61104
245.61409
245.61814
245.62272
245.62718
245.63267
245.63852
245.64475
245.65342
245.66321
245.67379
245.68608
245.69874
245.71439
245.73481
245.75696
245.77968
245.80646
245.8372
245.87118
245.90997
245.96128
246.02769
246.09907
246.17617
246.27052
246.38952
246.54598
246.74496
246.98606
247.29256
247.69726
248.27846
248.79965
245.6078
245.60194
245.58592
245.58542
245.58603
245.58717
245.58983
245.59167
245.59272
245.59471
245.59742
245.60053
245.60405
245.60689
245.60922
245.6119
245.61498
245.6193
245.62428
245.62905
245.63478
245.64097
245.64766
245.65634
245.66653
245.67757
245.68979
245.70275
245.71849
245.73868
245.76129
245.78489
245.81259
245.84438
245.87871
245.91783
245.97
246.0375
246.11059
246.1893
246.28514
246.4044
246.56003
246.76144
247.01244
247.32418
247.73962
248.34442
248.89028
245.60791
245.60242
245.58665
245.58654
245.58674
245.58833
245.59111
245.59206
245.59324
245.59551
245.59803
245.60122
245.60464
245.60719
245.60948
245.61225
245.61526
245.6196
245.62488
245.62994
245.63579
245.64217
245.64924
245.65782
245.66854
245.68023
245.69235
245.7056
245.72155
245.74147
245.76433
245.78884
245.8175
245.85007
245.88435
245.92382
245.97706
246.04551
246.11969
246.19987
246.29694
246.41674
246.57097
246.77356
247.02914
247.35115
247.77121
248.38609
248.94313
245.60701
245.60216
245.58673
245.58711
245.58767
245.59054
245.59211
245.59204
245.59334
245.59581
245.59825
245.60116
245.60437
245.60695
245.60947
245.61246
245.61539
245.61963
245.62502
245.63015
245.63594
245.64241
245.64993
245.55862
245.56598
245.5695
245.57157
245.5751
245.57605
245.57739
245.5797
245.58163
245.58264
245.58101
245.5826
245.58087
245.57614
245.56874
245.43247
245.45161
245.4684
245.4818
245.49548
245.50861
245.51764
245.52647
245.53397
245.54106
245.54819
245.552
245.55458
245.55968
245.5657
245.57033
245.573
245.5749
245.57565
245.57769
245.57997
245.5821
245.58311
245.58151
245.58267
245.58033
245.57623
245.56923
245.15277
245.18134
245.22808
245.25964
245.29581
245.32771
245.3566
245.37709
245.40241
245.42494
245.44465
245.46185
245.47483
245.48637
245.49952
245.51082
245.52047
245.52948
245.53573
245.54359
245.5498
245.55262
245.55497
245.56145
245.56848
245.57087
245.5736
245.57507
245.57571
245.57797
245.58029
245.5824
245.5837
245.58188
245.58242
245.57991
245.57584
245.56997
244.13964
244.42665
244.44084
244.62786
244.80476
244.90648
244.96318
245.04576
245.11121
245.17931
245.24625
245.26647
245.28859
245.31943
245.34995
245.37312
245.39533
245.41832
245.43876
245.45706
245.47213
245.48282
245.49429
245.50485
245.51543
245.52389
245.5308
245.53918
245.54724
245.54957
245.55331
245.55758
245.56314
245.57
245.57172
245.57396
245.57538
245.57646
245.57804
245.5808
245.58308
245.58376
245.58219
245.58212
245.57944
245.57557
245.57017
244.05739
243.94968
244.20798
244.47774
244.51687
244.75561
244.84625
244.96695
245.02265
245.114
245.16813
245.23144
245.26952
245.28987
245.31814
245.34629
245.37302
245.39336
245.41275
245.4334
245.45059
245.46699
245.48034
245.48978
245.50063
245.51161
245.52157
245.52876
245.53567
245.54258
245.54898
245.55164
245.55466
245.55802
245.56488
245.57057
245.57256
245.57448
245.57547
245.57698
245.57877
245.58145
245.5834
245.58368
245.5823
245.58148
245.57906
245.57602
245.57005
243.98588
244.08661
244.12195
244.54477
244.59962
244.88344
244.89423
245.0728
245.13825
245.18177
245.22833
245.26789
245.30426
245.33353
245.35249
245.37406
245.39658
245.41547
245.43191
245.44772
245.46352
245.479
245.4899
245.49686
245.50679
245.51775
245.52594
245.53361
245.54079
245.546
245.551
245.55472
245.55643
245.56063
245.56714
245.57168
245.57383
245.57439
245.576
245.57742
245.57964
245.58196
245.58329
245.5839
245.58222
245.58076
245.57871
245.57638
245.5697
243.94455
244.07751
244.31119
244.58285
244.63461
244.93913
245.10377
245.15574
245.21162
245.24212
245.27603
245.3177
245.35419
245.36692
245.3842
245.40371
245.42214
245.43545
245.44898
245.46163
245.47734
245.49098
245.50012
245.5068
245.51508
245.52442
245.53111
245.53752
245.54272
245.54866
245.55456
245.55585
245.55828
245.56254
245.56856
245.57293
245.57482
245.5753
245.57662
245.57754
245.58009
245.58273
245.58331
245.58382
245.58194
245.58012
245.57834
245.57703
245.57074
243.93762
244.26532
244.32616
244.72248
244.8042
244.96424
245.07698
245.22698
245.25783
245.31063
245.34013
245.36638
245.38241
245.40001
245.4145
245.43093
245.44576
245.45643
245.46473
245.47594
245.49072
245.50176
245.50905
245.5152
245.52322
245.53238
245.53761
245.54286
245.54614
245.55038
245.556
245.5572
245.56001
245.56446
245.57044
245.57414
245.57538
245.57592
245.57723
245.57805
245.58054
245.58374
245.5837
245.58346
245.58173
245.57962
245.57818
245.5788
245.57378
243.98331
244.35958
244.32611
244.86688
245.02708
245.20533
245.0473
245.3057
245.35326
245.36893
245.39478
245.4187
245.42944
245.43792
245.44723
245.46079
245.4707
245.47502
245.47993
245.49131
245.50516
245.51296
245.51821
245.52253
245.53052
245.5389
245.54317
245.54776
245.55008
245.55393
245.55852
245.55954
245.56297
245.56629
245.57163
245.57546
245.57572
245.57582
245.57705
245.57945
245.58181
245.58406
245.58392
245.58279
245.58152
245.57945
245.57834
245.58039
245.57755
243.99159
244.49676
244.46376
244.92473
245.11719
245.28271
245.50004
245.38117
245.41396
245.43212
245.45438
245.45961
245.46096
245.46903
245.47826
245.48735
245.4917
245.49285
245.49529
245.50655
245.51888
245.52378
245.52784
245.53027
245.53828
245.54474
245.54808
245.55205
245.55322
245.55731
245.56202
245.56148
245.56465
245.56892
245.57381
245.57666
245.57578
245.57612
245.5772
245.57998
245.58356
245.58366
245.58385
245.58253
245.58147
245.57944
245.57876
245.58267
245.58134
)
;

boundaryField
{
    Side
    {
        type            empty;
    }
    Inlet
    {
        type            totalTemperature;
        gamma           1.4;
        T0              uniform 250;
        value           nonuniform List<scalar> 
30
(
245.58593
245.58611
245.58648
245.58668
245.58661
245.58651
245.5864
245.5862
245.58619
245.58631
245.58635
245.58629
245.58618
245.58596
245.58565
245.58531
245.58496
245.58467
245.58448
245.58441
245.57957
245.57967
245.57989
245.58009
245.58014
245.57994
245.58027
245.58182
245.58348
245.58543
)
;
    }
    Airfoil
    {
        type            zeroGradient;
    }
    Outlet
    {
        type            inletOutlet;
        inletValue      nonuniform List<scalar> 0();
        value           nonuniform List<scalar> 0();
    }
    procBoundary7to0
    {
        type            processor;
        value           nonuniform List<scalar> 
50
(
245.6584
245.66934
245.68137
245.69319
245.70657
245.72266
245.74218
245.76499
245.79014
245.81954
245.85255
245.88636
245.92602
245.98023
246.04903
246.12353
246.20455
246.30218
246.42207
246.57529
246.77637
247.03358
247.35969
247.78584
248.40869
248.97083
245.60584
245.60129
245.58625
245.58735
245.58823
245.59037
245.59268
245.5928
245.59342
245.59601
245.59846
245.60088
245.6035
245.60602
245.60903
245.61235
245.61511
245.6191
245.62424
245.62918
245.6347
245.64126
245.6584
245.64912
)
;
    }
    procBoundary7to8
    {
        type            processor;
        value           nonuniform List<scalar> 
53
(
245.55727
245.56506
245.56916
245.57068
245.57471
245.57607
245.57747
245.57938
245.58123
245.58262
245.58056
245.58235
245.58127
245.57608
245.5689
245.4254
245.44595
245.46345
245.47718
245.48939
245.50241
245.51401
245.52222
245.53041
245.53976
245.54677
245.5503
245.55367
245.55367
245.1023
245.18875
245.19745
245.23115
245.27003
245.31054
245.33853
245.36375
245.38786
245.41221
245.41221
244.02299
244.35645
244.45862
244.62954
244.72424
244.83481
244.90707
244.99043
245.06804
245.06804
244.07772
243.85116
243.85116
)
;
    }
}


// ************************************************************************* //
