/*--------------------------------*- C++ -*----------------------------------*\
| =========                 |                                                 |
| \\      /  F ield         | OpenFOAM: The Open Source CFD Toolbox           |
|  \\    /   O peration     | Version:  2506                                  |
|   \\  /    A nd           | Website:  www.openfoam.com                      |
|    \\/     M anipulation  |                                                 |
\*---------------------------------------------------------------------------*/
FoamFile
{
    version     2.0;
    format      ascii;
    arch        "LSB;label=32;scalar=64";
    class       volScalarField;
    location    "0.017";
    object      alphat;
}
// * * * * * * * * * * * * * * * * * * * * * * * * * * * * * * * * * * * * * //

dimensions      [1 -1 -1 0 0 0 0];

internalField   nonuniform List<scalar> 
13763
(
2.5281722e-06
2.5288094e-06
2.530973e-06
2.5303373e-06
2.5313497e-06
2.5372358e-06
2.5369609e-06
2.5335299e-06
2.5289844e-06
2.5261373e-06
2.524565e-06
2.5238225e-06
2.5228507e-06
2.524591e-06
2.5258618e-06
2.5253358e-06
2.5228856e-06
2.5210831e-06
2.524248e-06
2.5248938e-06
2.5261855e-06
2.5266911e-06
2.5271212e-06
2.5236836e-06
2.5251637e-06
2.5149898e-06
2.530952e-06
2.4851039e-06
2.5578034e-06
2.4294134e-06
2.598109e-06
2.4499894e-06
2.5475332e-06
2.4526311e-06
2.5303e-06
2.4744302e-06
2.5059013e-06
2.4851066e-06
2.5012902e-06
2.5057549e-06
2.507209e-06
2.5164007e-06
2.5151358e-06
2.5179073e-06
2.5181926e-06
2.5189158e-06
2.5195624e-06
2.5195779e-06
2.5280245e-06
2.5287221e-06
2.5309889e-06
2.5303376e-06
2.5313155e-06
2.5371191e-06
2.5368491e-06
2.5334547e-06
2.5289765e-06
2.5261662e-06
2.5246073e-06
2.5238668e-06
2.522876e-06
2.5246181e-06
2.5258857e-06
2.5253846e-06
2.5229104e-06
2.5210766e-06
2.524261e-06
2.5249276e-06
2.5262176e-06
2.5267218e-06
2.5271424e-06
2.5237051e-06
2.5251807e-06
2.5150115e-06
2.530984e-06
2.4851397e-06
2.5578521e-06
2.4294565e-06
2.5981014e-06
2.449951e-06
2.5475243e-06
2.4526182e-06
2.5303249e-06
2.4744489e-06
2.5059243e-06
2.4851052e-06
2.501272e-06
2.5057138e-06
2.507167e-06
2.5163487e-06
2.5150756e-06
2.5178421e-06
2.5181394e-06
2.518892e-06
2.5195455e-06
2.5195691e-06
2.5191995e-06
2.5186899e-06
2.5278274e-06
2.5286512e-06
2.5309657e-06
2.5303253e-06
2.5312678e-06
2.5369872e-06
2.5367366e-06
2.5333853e-06
2.5289764e-06
2.5262108e-06
2.5246663e-06
2.5239268e-06
2.5229145e-06
2.5246538e-06
2.5259371e-06
2.5254395e-06
2.5229192e-06
2.5210903e-06
2.5242589e-06
2.5249949e-06
2.5262639e-06
2.5267628e-06
2.5271703e-06
2.5237283e-06
2.5252002e-06
2.5150273e-06
2.5309881e-06
2.4851653e-06
2.5578613e-06
2.4294913e-06
2.5981205e-06
2.4499102e-06
2.5475198e-06
2.4526046e-06
2.5303566e-06
2.4744704e-06
2.5059535e-06
2.4851094e-06
2.5012642e-06
2.5056838e-06
2.5071396e-06
2.5163118e-06
2.515026e-06
2.5177746e-06
2.5180619e-06
2.5188188e-06
2.5194985e-06
2.519536e-06
2.5191907e-06
2.5186797e-06
2.51851e-06
2.5276176e-06
2.528575e-06
2.5309365e-06
2.5303043e-06
2.5312099e-06
2.5368346e-06
2.5365995e-06
2.5333106e-06
2.5289697e-06
2.5262422e-06
2.5247063e-06
2.5239722e-06
2.5229667e-06
2.5247014e-06
2.5260148e-06
2.5254843e-06
2.5229009e-06
2.5210722e-06
2.524235e-06
2.5250065e-06
2.52628e-06
2.5267901e-06
2.5271844e-06
2.5237527e-06
2.5252089e-06
2.5150484e-06
2.5310042e-06
2.4851972e-06
2.5578784e-06
2.4295333e-06
2.5981539e-06
2.4498699e-06
2.5475252e-06
2.452594e-06
2.5303993e-06
2.4744991e-06
2.5059944e-06
2.4851281e-06
2.5012718e-06
2.5056691e-06
2.5071301e-06
2.5162979e-06
2.5150011e-06
2.5177314e-06
2.5179978e-06
2.5187359e-06
2.5194135e-06
2.5194626e-06
2.5191486e-06
2.5186331e-06
2.5184954e-06
2.5180143e-06
2.5177691e-06
2.5274072e-06
2.5284809e-06
2.5309054e-06
2.5302693e-06
2.5311358e-06
2.5366525e-06
2.5364292e-06
2.5332137e-06
2.5289497e-06
2.5262546e-06
2.5247243e-06
2.5239919e-06
2.5230086e-06
2.5247555e-06
2.5260793e-06
2.5254954e-06
2.5228675e-06
2.5210351e-06
2.5242057e-06
2.5249838e-06
2.5262822e-06
2.5268042e-06
2.5271865e-06
2.5237658e-06
2.5252056e-06
2.5150593e-06
2.531019e-06
2.4852257e-06
2.5578927e-06
2.4295782e-06
2.5981931e-06
2.4498342e-06
2.5475411e-06
2.4525913e-06
2.5304519e-06
2.4745369e-06
2.5060469e-06
2.4851595e-06
2.5012922e-06
2.5056683e-06
2.5071372e-06
2.5163052e-06
2.5150038e-06
2.5177219e-06
2.5179722e-06
2.5186872e-06
2.5193405e-06
2.5193811e-06
2.5190666e-06
2.5185481e-06
2.5184388e-06
2.5179927e-06
2.5177465e-06
2.5196087e-06
2.5234199e-06
2.5271837e-06
2.5283672e-06
2.5308683e-06
2.5302233e-06
2.5310437e-06
2.536442e-06
2.5362335e-06
2.533079e-06
2.5289166e-06
2.5262613e-06
2.5247344e-06
2.5240056e-06
2.5230265e-06
2.5247858e-06
2.5261091e-06
2.5254975e-06
2.5228383e-06
2.5209959e-06
2.5241771e-06
2.5249306e-06
2.5262763e-06
2.5268124e-06
2.5271785e-06
2.5237668e-06
2.5251963e-06
2.5150613e-06
2.5310236e-06
2.4852424e-06
2.5578964e-06
2.4296197e-06
2.5982285e-06
2.4498003e-06
2.547559e-06
2.4525943e-06
2.5305059e-06
2.4745783e-06
2.5061044e-06
2.4851944e-06
2.5013179e-06
2.5056742e-06
2.5071548e-06
2.5163281e-06
2.5150268e-06
2.5177406e-06
2.5179845e-06
2.5186855e-06
2.519316e-06
2.519339e-06
2.5189921e-06
2.5184785e-06
2.5183504e-06
2.5179261e-06
2.5176772e-06
2.5195794e-06
2.5233875e-06
2.5231326e-06
2.5180447e-06
2.5269288e-06
2.5282292e-06
2.5308244e-06
2.5301711e-06
2.5309366e-06
2.5362083e-06
2.5360151e-06
2.53292e-06
2.5288762e-06
2.5262734e-06
2.5247443e-06
2.524015e-06
2.5230322e-06
2.5248004e-06
2.5261204e-06
2.5255028e-06
2.5228089e-06
2.5209749e-06
2.5241461e-06
2.5248821e-06
2.5262692e-06
2.5268166e-06
2.527169e-06
2.5237632e-06
2.5251895e-06
2.5150562e-06
2.5310177e-06
2.4852481e-06
2.5578904e-06
2.4296517e-06
2.5982542e-06
2.4497607e-06
2.5475704e-06
2.4525961e-06
2.5305526e-06
2.474614e-06
2.5061563e-06
2.4852213e-06
2.5013381e-06
2.5056761e-06
2.5071717e-06
2.5163535e-06
2.515056e-06
2.5177704e-06
2.5180152e-06
2.5187133e-06
2.5193352e-06
2.5193463e-06
2.51897e-06
2.5184652e-06
2.5182958e-06
2.5178407e-06
2.517594e-06
2.5195034e-06
2.5233083e-06
2.5230937e-06
2.5180026e-06
2.5137489e-06
2.51227e-06
2.5124822e-06
2.5266383e-06
2.528064e-06
2.530772e-06
2.5301149e-06
2.5308188e-06
2.5359556e-06
2.5357802e-06
2.5327435e-06
2.5288345e-06
2.5262927e-06
2.5247701e-06
2.5240213e-06
2.5230224e-06
2.5247975e-06
2.5261219e-06
2.5255054e-06
2.5227704e-06
2.5209795e-06
2.5241115e-06
2.5248463e-06
2.5262644e-06
2.5268148e-06
2.5271621e-06
2.5237502e-06
2.5251831e-06
2.5150439e-06
2.5310016e-06
2.4852483e-06
2.5578798e-06
2.4296751e-06
2.5982716e-06
2.4497088e-06
2.5475697e-06
2.4525862e-06
2.5305891e-06
2.4746391e-06
2.5061981e-06
2.4852353e-06
2.5013466e-06
2.5056658e-06
2.5071769e-06
2.5163682e-06
2.5150761e-06
2.5177928e-06
2.5180413e-06
2.5187419e-06
2.5193647e-06
2.519374e-06
2.5189904e-06
2.5184885e-06
2.5183002e-06
2.5178044e-06
2.5175652e-06
2.5194308e-06
2.5232402e-06
2.523011e-06
2.5179193e-06
2.5137001e-06
2.5122189e-06
2.5124287e-06
2.5135377e-06
2.5147219e-06
2.5263218e-06
2.5278772e-06
2.5307112e-06
2.5300562e-06
2.5306948e-06
2.5356882e-06
2.535526e-06
2.5325587e-06
2.5287939e-06
2.5263156e-06
2.5248056e-06
2.524036e-06
2.5230185e-06
2.5247847e-06
2.5261264e-06
2.5255028e-06
2.5227222e-06
2.5209911e-06
2.5240747e-06
2.524815e-06
2.5262598e-06
2.5268057e-06
2.5271554e-06
2.5237313e-06
2.525172e-06
2.5150253e-06
2.5309804e-06
2.4852472e-06
2.557869e-06
2.4296952e-06
2.5982868e-06
2.4496469e-06
2.5475613e-06
2.452565e-06
2.5306213e-06
2.474658e-06
2.5062342e-06
2.4852419e-06
2.5013469e-06
2.5056446e-06
2.5071704e-06
2.5163698e-06
2.5150824e-06
2.5178004e-06
2.5180519e-06
2.5187547e-06
2.51938e-06
2.5193921e-06
2.5190148e-06
2.5185088e-06
2.5183248e-06
2.5178203e-06
2.5175839e-06
2.5194192e-06
2.5232349e-06
2.5229551e-06
2.5178698e-06
2.5136172e-06
2.5121375e-06
2.5123499e-06
2.5134796e-06
2.514663e-06
2.5259941e-06
2.5276754e-06
2.5306435e-06
2.529996e-06
2.5305651e-06
2.5354067e-06
2.5352508e-06
2.5323738e-06
2.528756e-06
2.5263462e-06
2.524857e-06
2.5240659e-06
2.5230387e-06
2.5247807e-06
2.5261373e-06
2.5254974e-06
2.5226674e-06
2.5209704e-06
2.5240374e-06
2.5247851e-06
2.5262589e-06
2.526798e-06
2.527147e-06
2.5237159e-06
2.5251542e-06
2.5150043e-06
2.530959e-06
2.4852483e-06
2.5578612e-06
2.4297181e-06
2.5983032e-06
2.4495776e-06
2.5475476e-06
2.4525359e-06
2.5306526e-06
2.4746761e-06
2.5062699e-06
2.4852475e-06
2.5013452e-06
2.5056185e-06
2.5071586e-06
2.5163648e-06
2.5150806e-06
2.5177978e-06
2.5180504e-06
2.5187536e-06
2.5193794e-06
2.5193943e-06
2.5190234e-06
2.5185127e-06
2.5183361e-06
2.5178404e-06
2.5176013e-06
2.5194392e-06
2.5232546e-06
2.5229581e-06
2.5178755e-06
2.51358e-06
2.5121062e-06
2.5123247e-06
2.5134068e-06
2.5145934e-06
2.5256633e-06
2.5274608e-06
2.5305706e-06
2.52993e-06
2.5304229e-06
2.5351018e-06
2.5349536e-06
2.5321868e-06
2.5287213e-06
2.526387e-06
2.5249261e-06
2.5241069e-06
2.5230712e-06
2.5248009e-06
2.5261507e-06
2.5254878e-06
2.5226139e-06
2.5209288e-06
2.523998e-06
2.5247534e-06
2.5262668e-06
2.5268014e-06
2.5271376e-06
2.5237057e-06
2.5251343e-06
2.5149861e-06
2.5309417e-06
2.4852542e-06
2.5578571e-06
2.4297454e-06
2.5983232e-06
2.4495041e-06
2.547533e-06
2.4525045e-06
2.5306865e-06
2.4746963e-06
2.5063084e-06
2.485255e-06
2.5013447e-06
2.5055911e-06
2.5071457e-06
2.5163582e-06
2.5150764e-06
2.5177915e-06
2.5180439e-06
2.5187459e-06
2.5193706e-06
2.5193866e-06
2.5190186e-06
2.5185048e-06
2.518332e-06
2.5178432e-06
2.517601e-06
2.5194484e-06
2.5232608e-06
2.5229709e-06
2.5178851e-06
2.5135875e-06
2.5121141e-06
2.5123326e-06
2.5133905e-06
2.5145804e-06
2.5253246e-06
2.5272253e-06
2.5304887e-06
2.5298497e-06
2.5302585e-06
2.5347575e-06
2.5346249e-06
2.5319851e-06
2.5286853e-06
2.5264251e-06
2.5249922e-06
2.5241622e-06
2.5231144e-06
2.5248437e-06
2.5261749e-06
2.525479e-06
2.5225717e-06
2.5208751e-06
2.5239549e-06
2.5247232e-06
2.5262817e-06
2.5268145e-06
2.5271285e-06
2.5236965e-06
2.5251169e-06
2.5149732e-06
2.5309286e-06
2.4852642e-06
2.557855e-06
2.4297776e-06
2.5983456e-06
2.4494258e-06
2.5475169e-06
2.4524711e-06
2.5307227e-06
2.4747176e-06
2.5063497e-06
2.4852635e-06
2.5013456e-06
2.5055628e-06
2.5071324e-06
2.5163511e-06
2.5150716e-06
2.5177843e-06
2.5180362e-06
2.5187363e-06
2.519359e-06
2.5193749e-06
2.5190073e-06
2.5184915e-06
2.5183192e-06
2.5178328e-06
2.5175888e-06
2.5194416e-06
2.5232518e-06
2.5229671e-06
2.5178778e-06
2.5135894e-06
2.5121132e-06
2.5123293e-06
2.5133949e-06
2.5145834e-06
2.5249592e-06
2.5269559e-06
2.5303887e-06
2.5297423e-06
2.5300636e-06
2.5343602e-06
2.5342524e-06
2.531743e-06
2.528631e-06
2.5264385e-06
2.5250327e-06
2.5242161e-06
2.5231421e-06
2.5248902e-06
2.5262115e-06
2.5254858e-06
2.5225473e-06
2.5208096e-06
2.523909e-06
2.5247014e-06
2.5262979e-06
2.5268317e-06
2.5271216e-06
2.5236861e-06
2.5251026e-06
2.5149633e-06
2.5309172e-06
2.4852762e-06
2.5578528e-06
2.4298125e-06
2.5983693e-06
2.449344e-06
2.5475016e-06
2.4524376e-06
2.5307619e-06
2.4747403e-06
2.5063923e-06
2.4852719e-06
2.5013465e-06
2.5055321e-06
2.5071173e-06
2.5163425e-06
2.5150655e-06
2.5177759e-06
2.5180272e-06
2.5187253e-06
2.5193459e-06
2.5193616e-06
2.5189935e-06
2.5184765e-06
2.5183036e-06
2.5178165e-06
2.5175724e-06
2.5194266e-06
2.5232364e-06
2.5229516e-06
2.5178607e-06
2.513576e-06
2.5120985e-06
2.5123143e-06
2.5133859e-06
2.514573e-06
2.5245385e-06
2.5266405e-06
2.5302564e-06
2.5295969e-06
2.5298277e-06
2.5339066e-06
2.533831e-06
2.5314428e-06
2.528528e-06
2.5264289e-06
2.5250397e-06
2.5242449e-06
2.5231534e-06
2.5249327e-06
2.5262556e-06
2.5255129e-06
2.5225377e-06
2.5207401e-06
2.5238633e-06
2.5246883e-06
2.5263113e-06
2.5268476e-06
2.5271175e-06
2.5236737e-06
2.5250889e-06
2.5149529e-06
2.5309041e-06
2.4852886e-06
2.5578501e-06
2.4298505e-06
2.5983932e-06
2.4492571e-06
2.5474843e-06
2.4524006e-06
2.5308021e-06
2.4747638e-06
2.5064357e-06
2.4852795e-06
2.5013457e-06
2.505498e-06
2.5070997e-06
2.5163319e-06
2.5150579e-06
2.5177661e-06
2.5180172e-06
2.5187137e-06
2.5193323e-06
2.5193487e-06
2.5189801e-06
2.5184638e-06
2.5182902e-06
2.5178009e-06
2.5175595e-06
2.5194129e-06
2.5232252e-06
2.522936e-06
2.5178468e-06
2.5135593e-06
2.5120839e-06
2.5123033e-06
2.5133719e-06
2.51456e-06
2.5240514e-06
2.526278e-06
2.5300858e-06
2.5294131e-06
2.5295442e-06
2.5334063e-06
2.5333687e-06
2.5310958e-06
2.5283826e-06
2.5264036e-06
2.5250187e-06
2.5242489e-06
2.523134e-06
2.5249588e-06
2.5262984e-06
2.5255539e-06
2.5225339e-06
2.5206729e-06
2.5238171e-06
2.5246766e-06
2.5263175e-06
2.5268565e-06
2.5271158e-06
2.5236606e-06
2.5250728e-06
2.5149407e-06
2.5308897e-06
2.4853027e-06
2.557848e-06
2.4298913e-06
2.5984183e-06
2.4491663e-06
2.5474668e-06
2.4523616e-06
2.5308442e-06
2.4747889e-06
2.5064799e-06
2.4852869e-06
2.5013433e-06
2.5054613e-06
2.5070816e-06
2.5163214e-06
2.5150514e-06
2.5177579e-06
2.5180097e-06
2.5187054e-06
2.5193232e-06
2.5193413e-06
2.5189723e-06
2.5184594e-06
2.5182856e-06
2.5177939e-06
2.5175579e-06
2.5194098e-06
2.5232271e-06
2.5229322e-06
2.5178473e-06
2.5135538e-06
2.5120835e-06
2.5123093e-06
2.5133711e-06
2.5145631e-06
2.5235189e-06
2.5258761e-06
2.5298858e-06
2.5291964e-06
2.5292225e-06
2.532877e-06
2.5328793e-06
2.5307025e-06
2.5282038e-06
2.5263613e-06
2.5249703e-06
2.5242253e-06
2.5230801e-06
2.5249643e-06
2.5263296e-06
2.5255957e-06
2.5225244e-06
2.5206119e-06
2.5237679e-06
2.5246567e-06
2.5263145e-06
2.5268568e-06
2.527112e-06
2.5236471e-06
2.5250548e-06
2.5149293e-06
2.5308756e-06
2.4853192e-06
2.5578469e-06
2.4299361e-06
2.5984439e-06
2.449069e-06
2.5474459e-06
2.4523177e-06
2.5308875e-06
2.4748151e-06
2.5065275e-06
2.485297e-06
2.5013418e-06
2.5054257e-06
2.5070672e-06
2.516316e-06
2.5150511e-06
2.5177571e-06
2.5180105e-06
2.5187067e-06
2.5193245e-06
2.5193448e-06
2.5189757e-06
2.5184671e-06
2.5182937e-06
2.5178005e-06
2.5175705e-06
2.5194218e-06
2.5232439e-06
2.5229448e-06
2.5178634e-06
2.5135657e-06
2.5121007e-06
2.5123324e-06
2.513391e-06
2.5145877e-06
2.5229501e-06
2.5254421e-06
2.5296614e-06
2.5289547e-06
2.5288751e-06
2.5323297e-06
2.5323613e-06
2.530262e-06
2.5280023e-06
2.5263083e-06
2.5249217e-06
2.5241844e-06
2.5230207e-06
2.5249602e-06
2.5263499e-06
2.525623e-06
2.5224993e-06
2.5205467e-06
2.5237122e-06
2.5246218e-06
2.5263038e-06
2.5268535e-06
2.5271048e-06
2.5236348e-06
2.5250369e-06
2.51492e-06
2.5308627e-06
2.4853378e-06
2.557845e-06
2.4299822e-06
2.5984699e-06
2.448966e-06
2.5474249e-06
2.452273e-06
2.5309355e-06
2.4748449e-06
2.5065826e-06
2.4853137e-06
2.5013449e-06
2.5053957e-06
2.5070606e-06
2.5163197e-06
2.5150606e-06
2.5177665e-06
2.5180218e-06
2.5187189e-06
2.5193367e-06
2.5193587e-06
2.5189897e-06
2.5184838e-06
2.5183117e-06
2.5178185e-06
2.5175925e-06
2.5194446e-06
2.5232692e-06
2.5229681e-06
2.5178882e-06
2.51359e-06
2.5121285e-06
2.512363e-06
2.5134231e-06
2.5146224e-06
2.5223445e-06
2.5249706e-06
2.5294152e-06
2.5286817e-06
2.5284995e-06
2.5317617e-06
2.5318116e-06
2.5297992e-06
2.5277945e-06
2.5262448e-06
2.5248687e-06
2.5241497e-06
2.5229768e-06
2.5249613e-06
2.5263694e-06
2.5256378e-06
2.5224611e-06
2.5204782e-06
2.5236481e-06
2.5245761e-06
2.5262933e-06
2.5268533e-06
2.5270962e-06
2.5236244e-06
2.5250214e-06
2.5149126e-06
2.5308487e-06
2.4853562e-06
2.5578409e-06
2.4300303e-06
2.5984956e-06
2.4488558e-06
2.5474026e-06
2.4522272e-06
2.5309895e-06
2.4748804e-06
2.5066493e-06
2.4853399e-06
2.5013555e-06
2.5053732e-06
2.507062e-06
2.5163319e-06
2.5150782e-06
2.5177837e-06
2.5180405e-06
2.5187379e-06
2.5193553e-06
2.5193786e-06
2.5190097e-06
2.5185046e-06
2.518334e-06
2.5178419e-06
2.5176178e-06
2.5194713e-06
2.5232963e-06
2.5229948e-06
2.5179144e-06
2.5136179e-06
2.512156e-06
2.5123856e-06
2.5134493e-06
2.5146444e-06
2.5216869e-06
2.5244476e-06
2.5291339e-06
2.5283683e-06
2.528089e-06
2.531165e-06
2.5312207e-06
2.5293151e-06
2.5275687e-06
2.5261592e-06
2.5248063e-06
2.5241182e-06
2.5229675e-06
2.524981e-06
2.5263991e-06
2.5256511e-06
2.5224189e-06
2.5204078e-06
2.5235795e-06
2.5245291e-06
2.5262872e-06
2.5268581e-06
2.5270908e-06
2.5236167e-06
2.5250064e-06
2.5149035e-06
2.5308312e-06
2.4853735e-06
2.5578343e-06
2.4300793e-06
2.5985247e-06
2.4487429e-06
2.5473858e-06
2.4521866e-06
2.531054e-06
2.4749239e-06
2.5067277e-06
2.4853736e-06
2.5013741e-06
2.5053564e-06
2.5070683e-06
2.5163487e-06
2.5151002e-06
2.5178046e-06
2.5180624e-06
2.5187597e-06
2.5193762e-06
2.5194003e-06
2.5190314e-06
2.518526e-06
2.5183568e-06
2.5178656e-06
2.5176416e-06
2.5194966e-06
2.5233194e-06
2.5230178e-06
2.5179314e-06
2.5136356e-06
2.5121646e-06
2.51238e-06
2.5134469e-06
2.5146334e-06
2.5209526e-06
2.5238569e-06
2.528797e-06
2.5279992e-06
2.5276342e-06
2.5305348e-06
2.5305784e-06
2.5287933e-06
2.5273246e-06
2.5260441e-06
2.5247395e-06
2.5241033e-06
2.5229903e-06
2.5250221e-06
2.5264451e-06
2.5256713e-06
2.5223799e-06
2.5203364e-06
2.5235118e-06
2.5244872e-06
2.5262851e-06
2.5268651e-06
2.5270869e-06
2.5236092e-06
2.5249903e-06
2.5148915e-06
2.5308089e-06
2.4853905e-06
2.5578278e-06
2.4301344e-06
2.5985599e-06
2.4486281e-06
2.5473732e-06
2.4521488e-06
2.531126e-06
2.4749739e-06
2.5068143e-06
2.4854116e-06
2.5013994e-06
2.5053422e-06
2.5070764e-06
2.5163675e-06
2.5151239e-06
2.5178269e-06
2.5180852e-06
2.5187819e-06
2.519397e-06
2.5194214e-06
2.5190522e-06
2.5185453e-06
2.518376e-06
2.5178851e-06
2.5176575e-06
2.5195129e-06
2.5233277e-06
2.5230235e-06
2.5179238e-06
2.5136254e-06
2.5121436e-06
2.5123506e-06
2.5134181e-06
2.5146016e-06
2.5201338e-06
2.5231859e-06
2.528387e-06
2.5275599e-06
2.5271219e-06
2.529863e-06
2.5298865e-06
2.5282294e-06
2.5270563e-06
2.5258897e-06
2.5246668e-06
2.524099e-06
2.5230233e-06
2.5250771e-06
2.5265054e-06
2.5257026e-06
2.5223452e-06
2.5202639e-06
2.523446e-06
2.5244484e-06
2.5262842e-06
2.5268723e-06
2.5270815e-06
2.523599e-06
2.52497e-06
2.5148755e-06
2.5307839e-06
2.4854111e-06
2.5578247e-06
2.4301969e-06
2.5986042e-06
2.4485146e-06
2.5473679e-06
2.4521152e-06
2.5312059e-06
2.4750289e-06
2.5069061e-06
2.4854514e-06
2.501429e-06
2.5053288e-06
2.5070846e-06
2.5163866e-06
2.515148e-06
2.5178491e-06
2.5181075e-06
2.518803e-06
2.5194155e-06
2.5194393e-06
2.5190687e-06
2.5185572e-06
2.5183843e-06
2.5178912e-06
2.5176551e-06
2.5195086e-06
2.5233131e-06
2.523004e-06
2.5178951e-06
2.5135939e-06
2.5121095e-06
2.5123147e-06
2.5133816e-06
2.5145647e-06
2.5192318e-06
2.5224324e-06
2.5278963e-06
2.5270525e-06
2.5265514e-06
2.5291451e-06
2.5291511e-06
2.527619e-06
2.5267518e-06
2.5257043e-06
2.52459e-06
2.5240913e-06
2.5230439e-06
2.5251339e-06
2.5265741e-06
2.5257445e-06
2.5223134e-06
2.5201907e-06
2.5233806e-06
2.5244069e-06
2.5262799e-06
2.526876e-06
2.5270711e-06
2.5235851e-06
2.5249477e-06
2.5148589e-06
2.5307584e-06
2.4854383e-06
2.557827e-06
2.4302712e-06
2.5986555e-06
2.4483977e-06
2.5473636e-06
2.4520794e-06
2.5312889e-06
2.4750862e-06
2.5070013e-06
2.4854929e-06
2.5014606e-06
2.5053142e-06
2.5070921e-06
2.5164051e-06
2.5151714e-06
2.5178697e-06
2.5181272e-06
2.5188203e-06
2.5194278e-06
2.5194486e-06
2.5190742e-06
2.518553e-06
2.518373e-06
2.5178768e-06
2.5176343e-06
2.5194855e-06
2.5232862e-06
2.5229732e-06
2.5178599e-06
2.5135566e-06
2.5120725e-06
2.5122779e-06
2.5133445e-06
2.5145277e-06
2.5182516e-06
2.5215975e-06
2.5273248e-06
2.5264765e-06
2.5259174e-06
2.5283776e-06
2.52837e-06
2.5269583e-06
2.5264087e-06
2.5255041e-06
2.524518e-06
2.5240748e-06
2.523049e-06
2.5251872e-06
2.5266442e-06
2.5257913e-06
2.5222799e-06
2.5201142e-06
2.5233096e-06
2.5243562e-06
2.526269e-06
2.5268766e-06
2.5270582e-06
2.5235692e-06
2.5249234e-06
2.514845e-06
2.5307375e-06
2.4854743e-06
2.5578329e-06
2.4303529e-06
2.5987111e-06
2.4482771e-06
2.5473628e-06
2.4520435e-06
2.531377e-06
2.4751464e-06
2.5070995e-06
2.4855367e-06
2.501492e-06
2.5052971e-06
2.5070973e-06
2.5164215e-06
2.515192e-06
2.5178857e-06
2.5181401e-06
2.5188282e-06
2.5194267e-06
2.5194417e-06
2.5190619e-06
2.5185326e-06
2.5183483e-06
2.5178506e-06
2.5176065e-06
2.5194562e-06
2.5232552e-06
2.5229382e-06
2.5178232e-06
2.5135188e-06
2.512037e-06
2.5122441e-06
2.5133113e-06
2.5144939e-06
2.5171853e-06
2.5206746e-06
2.5266701e-06
2.5258387e-06
2.5252118e-06
2.5275392e-06
2.5275374e-06
2.526254e-06
2.5260317e-06
2.5252866e-06
2.5244457e-06
2.5240507e-06
2.5230462e-06
2.5252392e-06
2.5267168e-06
2.52584e-06
2.522244e-06
2.520034e-06
2.5232316e-06
2.5242961e-06
2.52625e-06
2.526872e-06
2.5270437e-06
2.5235553e-06
2.5249034e-06
2.5148396e-06
2.5307223e-06
2.4855171e-06
2.5578406e-06
2.4304435e-06
2.5987676e-06
2.4481482e-06
2.5473598e-06
2.4520031e-06
2.5314663e-06
2.4752071e-06
2.5072022e-06
2.4855835e-06
2.5015221e-06
2.5052759e-06
2.5070984e-06
2.5164329e-06
2.5152056e-06
2.5178917e-06
2.5181399e-06
2.5188209e-06
2.5194105e-06
2.5194214e-06
2.5190389e-06
2.5185061e-06
2.518319e-06
2.5178201e-06
2.5175751e-06
2.5194239e-06
2.5232241e-06
2.522905e-06
2.5177891e-06
2.5134837e-06
2.512005e-06
2.5122239e-06
2.5132975e-06
2.5144959e-06
2.516018e-06
2.5196566e-06
2.5259369e-06
2.5251499e-06
2.5244377e-06
2.5265993e-06
2.5266505e-06
2.5255143e-06
2.5256159e-06
2.5250402e-06
2.5243658e-06
2.5240214e-06
2.5230393e-06
2.5252924e-06
2.526791e-06
2.5258893e-06
2.5222054e-06
2.5199486e-06
2.5231454e-06
2.5242272e-06
2.5262289e-06
2.5268661e-06
2.5270308e-06
2.5235453e-06
2.5248879e-06
2.5148393e-06
2.5307096e-06
2.4855649e-06
2.5578476e-06
2.430538e-06
2.5988261e-06
2.4480133e-06
2.5473592e-06
2.4519629e-06
2.5315595e-06
2.4752687e-06
2.5073092e-06
2.4856304e-06
2.5015501e-06
2.5052484e-06
2.5070914e-06
2.5164344e-06
2.5152069e-06
2.517884e-06
2.5181271e-06
2.5188034e-06
2.5193878e-06
2.5193962e-06
2.519012e-06
2.5184755e-06
2.5182862e-06
2.5177874e-06
2.5175447e-06
2.5193943e-06
2.5231956e-06
2.5228739e-06
2.5177608e-06
2.5134601e-06
2.5120021e-06
2.5122479e-06
2.5133302e-06
2.5145421e-06
2.5147384e-06
2.5185366e-06
2.5251353e-06
2.5244147e-06
2.5235895e-06
2.5255272e-06
2.5256746e-06
2.5247251e-06
2.5251342e-06
2.52476e-06
2.5242866e-06
2.5239945e-06
2.5230334e-06
2.5253516e-06
2.5268718e-06
2.5259421e-06
2.5221688e-06
2.5198601e-06
2.5230552e-06
2.5241531e-06
2.5262016e-06
2.5268584e-06
2.5270215e-06
2.523543e-06
2.5248795e-06
2.5148436e-06
2.5306966e-06
2.4856159e-06
2.5578541e-06
2.4306398e-06
2.5988866e-06
2.4478682e-06
2.5473545e-06
2.451917e-06
2.531652e-06
2.4753286e-06
2.5074199e-06
2.4856742e-06
2.5015744e-06
2.505211e-06
2.5070721e-06
2.5164231e-06
2.515197e-06
2.5178683e-06
2.5181093e-06
2.5187822e-06
2.5193614e-06
2.5193668e-06
2.5189815e-06
2.5184447e-06
2.5182558e-06
2.5177574e-06
2.5175168e-06
2.519367e-06
2.523175e-06
2.5228603e-06
2.5177682e-06
2.5134783e-06
2.5120395e-06
2.5123035e-06
2.5133923e-06
2.5146138e-06
2.5133396e-06
2.5173195e-06
2.5242782e-06
2.5236517e-06
2.5226514e-06
2.524287e-06
2.5245342e-06
2.5238561e-06
2.5245474e-06
2.5244502e-06
2.5242093e-06
2.5239682e-06
2.5230298e-06
2.5254169e-06
2.5269587e-06
2.5260015e-06
2.52213e-06
2.519769e-06
2.5229607e-06
2.5240731e-06
2.5261731e-06
2.5268543e-06
2.5270158e-06
2.5235442e-06
2.5248722e-06
2.5148492e-06
2.5306834e-06
2.4856707e-06
2.5578592e-06
2.4307457e-06
2.5989499e-06
2.4477154e-06
2.5473509e-06
2.4518679e-06
2.5317455e-06
2.4753874e-06
2.5075318e-06
2.4857096e-06
2.5015911e-06
2.5051606e-06
2.5070422e-06
2.5164045e-06
2.5151831e-06
2.5178494e-06
2.5180882e-06
2.518757e-06
2.5193321e-06
2.5193375e-06
2.5189533e-06
2.5184172e-06
2.5182269e-06
2.5177291e-06
2.5174975e-06
2.5193605e-06
2.5231913e-06
2.522888e-06
2.5178106e-06
2.5135289e-06
2.5121032e-06
2.5123676e-06
2.5134521e-06
2.5146639e-06
2.5118103e-06
2.5160271e-06
2.5233984e-06
2.5228814e-06
2.5215919e-06
2.5228762e-06
2.5231386e-06
2.5228703e-06
2.5238438e-06
2.5241322e-06
2.5241399e-06
2.5239468e-06
2.5230309e-06
2.525492e-06
2.5270555e-06
2.5260691e-06
2.5221033e-06
2.5196774e-06
2.5228651e-06
2.5239892e-06
2.526143e-06
2.5268537e-06
2.5270162e-06
2.5235514e-06
2.5248689e-06
2.5148574e-06
2.5306689e-06
2.4857288e-06
2.557864e-06
2.43086e-06
2.5990156e-06
2.4475487e-06
2.5473397e-06
2.4518062e-06
2.5318339e-06
2.4754418e-06
2.5076348e-06
2.4857332e-06
2.5016002e-06
2.5051016e-06
2.5070072e-06
2.5163823e-06
2.5151658e-06
2.5178266e-06
2.5180645e-06
2.5187322e-06
2.5193058e-06
2.5193122e-06
2.5189274e-06
2.5183916e-06
2.5182072e-06
2.5177212e-06
2.5175138e-06
2.5193919e-06
2.5232399e-06
2.5229459e-06
2.5178762e-06
2.5135934e-06
2.5121565e-06
2.5123974e-06
2.5134735e-06
2.5146742e-06
2.5101413e-06
2.5146892e-06
2.5225295e-06
2.5221038e-06
2.5204032e-06
2.521276e-06
2.5214535e-06
2.5217032e-06
2.5230473e-06
2.5238132e-06
2.5240764e-06
2.523928e-06
2.523035e-06
2.5255754e-06
2.5271634e-06
2.5261489e-06
2.5220823e-06
2.5195879e-06
2.5227682e-06
2.5239012e-06
2.5261143e-06
2.5268584e-06
2.5270179e-06
2.5235577e-06
2.5248643e-06
2.5148657e-06
2.5306535e-06
2.4857909e-06
2.5578668e-06
2.4309772e-06
2.5990826e-06
2.44737e-06
2.5473254e-06
2.451734e-06
2.5319189e-06
2.4754898e-06
2.5077391e-06
2.4857555e-06
2.5016037e-06
2.505036e-06
2.5069684e-06
2.516356e-06
2.5151454e-06
2.5178038e-06
2.5180447e-06
2.5187119e-06
2.5192817e-06
2.5192889e-06
2.518908e-06
2.5183889e-06
2.5182224e-06
2.5177492e-06
2.5175603e-06
2.519453e-06
2.5233108e-06
2.5230134e-06
2.5179241e-06
2.5136275e-06
2.5121712e-06
2.512396e-06
2.5134688e-06
2.5146671e-06
2.5083385e-06
2.5133488e-06
2.5217024e-06
2.521313e-06
2.5191168e-06
2.5193383e-06
2.5194905e-06
2.520308e-06
2.5221673e-06
2.5234913e-06
2.5240095e-06
2.5239099e-06
2.523043e-06
2.5256686e-06
2.5272813e-06
2.5262402e-06
2.5220717e-06
2.5195026e-06
2.5226742e-06
2.5238108e-06
2.5260851e-06
2.5268655e-06
2.5270251e-06
2.5235695e-06
2.5248636e-06
2.514877e-06
2.5306364e-06
2.4858562e-06
2.5578675e-06
2.4311027e-06
2.5991479e-06
2.4471715e-06
2.5472988e-06
2.4516412e-06
2.5319972e-06
2.4755361e-06
2.5078434e-06
2.4857789e-06
2.5016051e-06
2.504966e-06
2.5069259e-06
2.5163286e-06
2.5151284e-06
2.5177857e-06
2.5180283e-06
2.5186931e-06
2.519263e-06
2.5192856e-06
2.5189198e-06
2.5184178e-06
2.5182663e-06
2.5178065e-06
2.5176292e-06
2.5195222e-06
2.5233626e-06
2.5230477e-06
2.5179339e-06
2.5136276e-06
2.5121632e-06
2.5123842e-06
2.5134563e-06
2.514653e-06
2.5063972e-06
2.5120393e-06
2.5209126e-06
2.5204642e-06
2.5176391e-06
2.5170871e-06
2.5172565e-06
2.5186768e-06
2.5211898e-06
2.5231669e-06
2.5239527e-06
2.5238969e-06
2.5230583e-06
2.5257712e-06
2.5274142e-06
2.5263482e-06
2.5220773e-06
2.5194256e-06
2.5225851e-06
2.5237192e-06
2.5260543e-06
2.5268715e-06
2.5270287e-06
2.5235792e-06
2.5248617e-06
2.5148887e-06
2.5306174e-06
2.4859236e-06
2.5578606e-06
2.4312278e-06
2.5992103e-06
2.4469558e-06
2.5472663e-06
2.4515368e-06
2.5320784e-06
2.4755832e-06
2.5079496e-06
2.4858049e-06
2.5016059e-06
2.5048949e-06
2.5068855e-06
2.5163056e-06
2.5151151e-06
2.5177694e-06
2.5180164e-06
2.5186899e-06
2.5192733e-06
2.519313e-06
2.5189594e-06
2.5184743e-06
2.518334e-06
2.5178743e-06
2.5176803e-06
2.5195579e-06
2.5233773e-06
2.5230501e-06
2.5179244e-06
2.513615e-06
2.5121493e-06
2.5123678e-06
2.5134369e-06
2.5146284e-06
2.5043193e-06
2.5107477e-06
2.5200801e-06
2.5194712e-06
2.5159169e-06
2.5145437e-06
2.5147834e-06
2.5168218e-06
2.5200845e-06
2.5228139e-06
2.5238937e-06
2.523892e-06
2.5230786e-06
2.5258751e-06
2.5275533e-06
2.5264733e-06
2.5221046e-06
2.5193602e-06
2.5225019e-06
2.5236262e-06
2.5260214e-06
2.5268797e-06
2.5270408e-06
2.5235963e-06
2.5248638e-06
2.5149032e-06
2.5305947e-06
2.4859927e-06
2.557846e-06
2.4313558e-06
2.5992664e-06
2.4467158e-06
2.5472241e-06
2.4514176e-06
2.5321579e-06
2.4756274e-06
2.5080619e-06
2.4858333e-06
2.5016136e-06
2.5048294e-06
2.5068475e-06
2.516284e-06
2.5151047e-06
2.5177648e-06
2.5180304e-06
2.5187172e-06
2.5193102e-06
2.5193669e-06
2.5190249e-06
2.518539e-06
2.5183864e-06
2.5179104e-06
2.5176939e-06
2.5195629e-06
2.5233742e-06
2.5230419e-06
2.5179103e-06
2.5135985e-06
2.5121301e-06
2.5123427e-06
2.5134106e-06
2.5146042e-06
2.5021092e-06
2.5094178e-06
2.5191067e-06
2.5182759e-06
2.5140377e-06
2.5117631e-06
2.5121072e-06
2.5147496e-06
2.5188264e-06
2.5224019e-06
2.5238149e-06
2.5238889e-06
2.5231075e-06
2.5259839e-06
2.5277024e-06
2.5266163e-06
2.5221522e-06
2.5193039e-06
2.5224236e-06
2.5235308e-06
2.5259829e-06
2.526884e-06
2.5270484e-06
2.5236099e-06
2.524863e-06
2.5149158e-06
2.5305652e-06
2.4860592e-06
2.5578179e-06
2.4314796e-06
2.5993175e-06
2.4464588e-06
2.5471843e-06
2.4512932e-06
2.5322411e-06
2.4756746e-06
2.5081825e-06
2.4858672e-06
2.5016317e-06
2.5047672e-06
2.5068102e-06
2.5162696e-06
2.5151158e-06
2.51779e-06
2.5180706e-06
2.5187704e-06
2.5193739e-06
2.5194354e-06
2.5190836e-06
2.5185721e-06
2.5184017e-06
2.5179142e-06
2.5176889e-06
2.5195576e-06
2.5233679e-06
2.5230309e-06
2.517892e-06
2.5135751e-06
2.5121021e-06
2.512319e-06
2.5133988e-06
2.5146009e-06
2.4997688e-06
2.5079733e-06
2.5179192e-06
2.5168109e-06
2.5121047e-06
2.5087256e-06
2.5091372e-06
2.5124304e-06
2.5174096e-06
2.5219402e-06
2.523728e-06
2.5238725e-06
2.5231209e-06
2.5260711e-06
2.5278509e-06
2.5267767e-06
2.5222198e-06
2.5192571e-06
2.522351e-06
2.5234343e-06
2.5259487e-06
2.5268952e-06
2.5270661e-06
2.5236303e-06
2.5248629e-06
2.5149269e-06
2.5305258e-06
2.4861217e-06
2.5577804e-06
2.4316109e-06
2.599367e-06
2.4461796e-06
2.5471393e-06
2.451156e-06
2.5323236e-06
2.4757256e-06
2.5083185e-06
2.4859073e-06
2.5016565e-06
2.5047089e-06
2.5067863e-06
2.5162823e-06
2.5151534e-06
2.5178395e-06
2.5181375e-06
2.5188434e-06
2.519436e-06
2.5194774e-06
2.5191053e-06
2.5185746e-06
2.518397e-06
2.5179067e-06
2.5176805e-06
2.5195501e-06
2.523359e-06
2.5230144e-06
2.5178649e-06
2.5135454e-06
2.5120822e-06
2.5123136e-06
2.5134002e-06
2.5146123e-06
2.4972841e-06
2.5063284e-06
2.516385e-06
2.515117e-06
2.509937e-06
2.5054582e-06
2.5058963e-06
2.5097977e-06
2.5157602e-06
2.5214289e-06
2.5236136e-06
2.5238376e-06
2.5230921e-06
2.5261338e-06
2.5279853e-06
2.5269383e-06
2.5222954e-06
2.5192139e-06
2.5222836e-06
2.5233326e-06
2.5259053e-06
2.5268994e-06
2.5270742e-06
2.5236437e-06
2.5248551e-06
2.5149317e-06
2.5304778e-06
2.4861864e-06
2.5577351e-06
2.4317407e-06
2.5994172e-06
2.4458848e-06
2.5470985e-06
2.4510176e-06
2.5324161e-06
2.4757838e-06
2.5084664e-06
2.4859524e-06
2.5016956e-06
2.5046716e-06
2.5067873e-06
2.5163175e-06
2.5152174e-06
2.5179136e-06
2.5182105e-06
2.5188966e-06