/*--------------------------------*- C++ -*----------------------------------*\
| =========                 |                                                 |
| \\      /  F ield         | OpenFOAM: The Open Source CFD Toolbox           |
|  \\    /   O peration     | Version:  2506                                  |
|   \\  /    A nd           | Website:  www.openfoam.com                      |
|    \\/     M anipulation  |                                                 |
\*---------------------------------------------------------------------------*/
FoamFile
{
    version     2.0;
    format      ascii;
    arch        "LSB;label=32;scalar=64";
    class       volScalarField;
    location    "1.95";
    object      nut;
}
// * * * * * * * * * * * * * * * * * * * * * * * * * * * * * * * * * * * * * //

dimensions      [0 2 -1 0 0 0 0];

internalField   nonuniform List<scalar> 
1376
(
0.057174022
0.07178126
0.091904338
0.11267089
0.057634192
0.072398851
0.092736875
0.11361544
0.13272654
0.14876302
0.1612391
0.17025818
0.17628304
0.18000456
0.058117015
0.073001486
0.093535912
0.11452116
0.13361402
0.14953081
0.16182783
0.17064888
0.17648988
0.18006396
0.18205373
0.18276161
0.18289843
0.18277198
0.18259522
0.058687001
0.073714634
0.094450243
0.11553921
0.13460464
0.15038604
0.16248322
0.17108421
0.17672311
0.18013805
0.18199503
0.18263065
0.1827329
0.18260193
0.18244139
0.18234079
0.18216864
0.18202488
0.18195532
0.059365648
0.074605348
0.095572318
0.11677074
0.13579633
0.15141602
0.16327743
0.17161947
0.17702242
0.18025533
0.18195325
0.18250921
0.18257333
0.18243751
0.18229412
0.18219261
0.18200938
0.18188536
0.18182496
0.18179379
0.18178319
0.18178795
0.18180408
0.060127621
0.07565538
0.096891589
0.1182112
0.13718883
0.15262322
0.16421456
0.17225974
0.17739299
0.18042053
0.18193239
0.18239999
0.18242183
0.18228036
0.18215222
0.18203937
0.18185401
0.1817482
0.18169583
0.18166985
0.18166312
0.18167071
0.18168883
0.18171463
0.18174611
0.18178204
0.18182179
0.060931347
0.076813192
0.098347605
0.11979433
0.13871524
0.15394525
0.16524157
0.17296446
0.17780634
0.18061424
0.18192535
0.18229966
0.18227789
0.18213027
0.18201383
0.18188321
0.18170356
0.18161345
0.18156826
0.18154725
0.18154418
0.1815544
0.1815743
0.18160126
0.18163348
0.18166991
0.18171007
0.18175378
0.18180113
0.18185221
0.061732619
0.078015185
0.099860725
0.12142836
0.1402787
0.15528885
0.16627716
0.17366954
0.17821594
0.18080395
0.18191747
0.18220085
0.18213872
0.18198526
0.18187738
0.18172649
0.18155824
0.18148128
0.18144255
0.18142624
0.18142659
0.18143916
0.18146063
0.18148857
0.18152141
0.18155829
0.18159883
0.18164292
0.1816906
0.18174201
0.1817974
0.18185717
0.18192178
0.062489848
0.079192907
0.10134557
0.12301745
0.14177965
0.15655946
0.16723987
0.17431122
0.17857582
0.1809577
0.18189279
0.18209524
0.18199991
0.18184352
0.18174153
0.18157108
0.18141799
0.18135183
0.18131883
0.18130681
0.18131028
0.18132498
0.18134783
0.18137667
0.18141012
0.18144742
0.18148828
0.18153264
0.18158057
0.18163224
0.18168788
0.18174784
0.18181261
0.18188276
0.18195892
0.063171013
0.080285617
0.10272601
0.1244811
0.1431402
0.15768733
0.16807225
0.17484589
0.17885543
0.18105455
0.18184023
0.18197675
0.18185777
0.18170517
0.18160379
0.18141748
0.18128243
0.18122513
0.18119718
0.18118898
0.18119518
0.1812117
0.18123573
0.18126536
0.18129939
0.18133716
0.18137836
0.18142295
0.18147108
0.18152289
0.18157867
0.18163877
0.18170364
0.18177386
0.1818501
0.1819332
0.1820241
0.18212398
0.063757951
0.081251522
0.10395104
0.1257711
0.14432095
0.15864353
0.16875467
0.17526106
0.17904733
0.18108972
0.1817568
0.18184374
0.18171185
0.18156916
0.18146197
0.18126699
0.18115085
0.18110077
0.18107722
0.18107235
0.18108097
0.18109917
0.1811243
0.18115465
0.18118917
0.18122732
0.18126885
0.18131369
0.18136196
0.1814139
0.18146977
0.18152992
0.18159484
0.18166507
0.18174132
0.18182442
0.18191535
0.18201525
0.18212539
0.18224736
0.064246472
0.082069968
0.1049987
0.12687366
0.14531998
0.15943623
0.16930078
0.1755709
0.17916514
0.1810719
0.18164716
0.18169874
0.1815632
0.18143373
0.18131512
0.18112086
0.1810225
0.18097851
0.18095888
0.18095693
0.18096759
0.18098714
0.18101316
0.18104415
0.18107923
0.18111785
0.18115973
0.18120479
0.18125315
0.18130513
0.18136106
0.18142127
0.1814862
0.1815564
0.1816326
0.18171565
0.18180651
0.18190636
0.18201645
0.1821383
0.18227395
0.18242652
0.064647627
0.082743824
0.10587644
0.12780496
0.14616271
0.16009691
0.16974278
0.17580381
0.17923243
0.18101735
0.18152028
0.18154671
0.18141351
0.18129773
0.18116411
0.18097919
0.18089646
0.18085784
0.18084183
0.18084245
0.1808549
0.18087569
0.18090255
0.18093407
0.18096949
0.18100839
0.18105059
0.18109601
0.18114461
0.18119669
0.18125258
0.18131274
0.18137766
0.18144787
0.18152401
0.18160694
0.1816977
0.18179738
0.18190731
0.182029
0.18216437
0.18231656
0.18249154
0.064989566
0.083299164
0.10661463
0.12859907
0.14688593
0.16066264
0.17011486
0.17598892
0.17927022
0.18094306
0.18138549
0.18139293
0.18126455
0.18116097
0.18101067
0.18084156
0.18077199
0.18073836
0.18072581
0.18072883
0.18074286
0.18076468
0.18079222
0.18082423
0.18086002
0.18089924
0.18094169
0.18098729
0.18103609
0.18108829
0.1811443
0.18120447
0.18126935
0.18133949
0.18141554
0.18149834
0.18158891
0.1816884
0.18179807
0.18191946
0.18205448
0.1822063
0.18238104
0.18259057
0.18285134
0.065321807
0.083794613
0.10727508
0.12931303
0.14753808
0.16117241
0.17044702
0.17614853
0.17929386
0.18086108
0.1812498
0.18124139
0.18111723
0.18102413
0.18085694
0.18070755
0.18064877
0.18061991
0.18061071
0.18061595
0.18063139
0.18065414
0.18068232
0.18071479
0.1807509
0.18079033
0.18083294
0.18087874
0.18092776
0.18098016
0.18103626
0.18109647
0.18116129
0.18123134
0.18130729
0.18138994
0.18148029
0.18157946
0.18168878
0.18180973
0.18194428
0.18209572
0.18227028
0.18247989
0.18274045
0.18304758
0.065708988
0.084315635
0.10794637
0.13002583
0.14818158
0.16167075
0.17076832
0.17630035
0.17931417
0.18077834
0.18111703
0.1810936
0.18097414
0.18088732
0.18070475
0.18057668
0.18052664
0.18050237
0.18049645
0.18050391
0.18052077
0.18054436
0.18057298
0.1806057
0.18064201
0.1806817
0.18072463
0.18077066
0.18081984
0.18087236
0.18092856
0.18098882
0.1810536
0.18112351
0.18119926
0.18128175
0.18137186
0.18147065
0.18157947
0.18169985
0.18183384
0.18198482
0.18215919
0.18236893
0.18262928
0.18293316
0.18313899
0.18216052
0.066205423
0.084944547
0.10871655
0.13081795
0.14888046
0.16220247
0.17110633
0.1764595
0.17933945
0.180698
0.18098858
0.18095061
0.18083735
0.18074871
0.18055684
0.18044873
0.18040574
0.18038574
0.1803829
0.18039244
0.18041066
0.18043512
0.1804643
0.18049737
0.1805339
0.18057366
0.18061661
0.18066277
0.18071216
0.18076489
0.18082124
0.1808815
0.18094618
0.18101592
0.18109153
0.18117377
0.18126358
0.18136197
0.18147021
0.18158992
0.18172323
0.18187365
0.18204774
0.18225761
0.18251782
0.18281805
0.18300643
0.18193033
0.16918372
0.066827072
0.085728813
0.10964354
0.13174674
0.14968284
0.16280217
0.17148238
0.17663755
0.17937556
0.18062097
0.18086473
0.18081302
0.18070616
0.18060839
0.18041464
0.18032356
0.18028627
0.18027016
0.18027017
0.18028163
0.18030112
0.18032638
0.18035607
0.18038947
0.18042623
0.18046619
0.18050925
0.18055543
0.18060482
0.18065755
0.18071389
0.18077427
0.18083898
0.18090859
0.18098392
0.18106598
0.18115545
0.18125337
0.18136104
0.18148004
0.18161256
0.18176224
0.18193595
0.18214597
0.18240606
0.18270237
0.18287229
0.18168491
0.16832417
0.067542299
0.086660827
0.11073389
0.13282708
0.1506061
0.16348471
0.17190666
0.17684039
0.17942498
0.18054709
0.18074504
0.18068046
0.1805791
0.18046747
0.18027814
0.18020103
0.18016833
0.18015564
0.1801582
0.18017144
0.18019211
0.18021816
0.18024837
0.18028209
0.18031904
0.18035911
0.18040223
0.18044841
0.18049778
0.18055049
0.1806068
0.18066704
0.18073171
0.18080133
0.18087652
0.18095817
0.18104729
0.1811448
0.18125195
0.18137023
0.18150191
0.18165072
0.18182391
0.18203403
0.18229395
0.18258625
0.18273681
0.18142101
0.16685266
0.068286057
0.087674924
0.11193042
0.13401506
0.15162079
0.16423247
0.17236984
0.17706324
0.17948424
0.18047495
0.18062822
0.18055165
0.18045463
0.18032656
0.18014675
0.18008095
0.18005198
0.1800422
0.18004699
0.18006181
0.18008356
0.18011036
0.18014111
0.18017521
0.18021236
0.18025248
0.18029559
0.18034173
0.18039101
0.18044364
0.18049986
0.18055999
0.18062451
0.18069397
0.18076903
0.18085044
0.18093915
0.18103622
0.18114286
0.18126049
0.1813913
0.18153922
0.18171183
0.18192189
0.18218144
0.18246952
0.18259921
0.18114812
0.16615487
0.068981855
0.088667866
0.11312629
0.13521489
0.1526516
0.16499325
0.17284005
0.17728829
0.17954279
0.18040148
0.18051214
0.1804247
0.18033107
0.1801856
0.1800195
0.17996295
0.1799372
0.17992997
0.17993664
0.17995281
0.1799755
0.18000295
0.18003418
0.18006867
0.1801061
0.18014634
0.18018942
0.18023542
0.18028452
0.18033698
0.18039307
0.18045307
0.18051739
0.18058665
0.18066142
0.18074258
0.18083101
0.18092768
0.18103373
0.18115073
0.18128073
0.18142775
0.1815998
0.18180969
0.18206858
0.18235187
0.18245886
0.18087378
0.16596458
0.069559963
0.089527958
0.11419604
0.13630669
0.15359835
0.16569379
0.17327031
0.17748829
0.17958497
0.18032184
0.18039423
0.18029772
0.18020709
0.18004462
0.1798955
0.17984652
0.17982368
0.17981878
0.17982715
0.17984452
0.17986808
0.17989616
0.17992782
0.17996256
0.18000012
0.18004043
0.1800835
0.18012943
0.18017837
0.1802306
0.18028645
0.18034627
0.18041043
0.18047941
0.18055393
0.18063477
0.18072282
0.18081902
0.18092454
0.18104079
0.18117002
0.18131629
0.18148778
0.18169751
0.18195552
0.18223335
0.18231591
0.18058968
0.16573288
0.069976474
0.09017006
0.11503486
0.13718467
0.15436853
0.16626366
0.17361389
0.17763559
0.17959522
0.18023109
0.18027219
0.18016874
0.18008191
0.17990394
0.179774
0.17973132
0.17971136
0.1797087
0.17971861
0.17973701
0.17976126
0.17978979
0.17982177
0.1798568
0.17989459
0.17993497
0.17997795
0.18002369
0.18007241
0.18012441
0.18018002
0.18023962
0.1803036
0.18037232
0.18044647
0.18052692
0.18061461
0.18071031
0.18081515
0.18093062
0.18105908
0.18120473
0.1813758
0.18158536
0.18184239
0.18211431
0.18217111
0.18027699
0.16438035
0.070233285
0.090575409
0.11560421
0.13780066
0.15491444
0.16666332
0.17384278
0.17771308
0.17956402
0.18012604
0.18014435
0.18003904
0.17995476
0.17976414
0.17965444
0.17961703
0.17959993
0.17959942
0.17961081
0.17963021
0.17965514
0.17968414
0.17971638
0.17975146
0.1797892
0.17982958
0.1798726
0.1799183
0.17996688
0.18001863
0.1800739
0.18013312
0.18019675
0.18026521
0.18033914
0.1804192
0.18050625
0.1806014
0.18070567
0.18082038
0.18094795
0.18109292
0.18126376
0.18147329
0.18172924
0.18199476
0.18202378
0.1799356
0.16270433
0.07038911
0.090814931
0.11596371
0.13819703
0.15526209
0.16690631
0.17396275
0.1777229
0.17949251
0.18000708
0.18001152
0.1799101
0.17982378
0.17962753
0.17953659
0.17950365
0.1794894
0.17949095
0.17950371
0.17952399
0.17954951
0.17957887
0.17961134
0.17964656
0.17968438
0.1797247
0.17976756
0.17981308
0.17986148
0.17991304
0.17996812
0.18002707
0.18009026
0.1801582
0.18023162
0.18031123
0.18039781
0.1804924
0.18059592
0.18070976
0.18083656
0.18098095
0.18115162
0.18136132
0.18161608
0.18187436
0.1818721
0.17958581
0.16232409
0.07054932
0.09102767
0.11625054
0.13849079
0.15550054
0.16705329
0.17401075
0.17768575
0.17939256
0.17987857
0.17987642
0.17978222
0.17968984
0.17949532
0.17942028
0.17939125
0.17937981
0.17938333
0.17939732
0.17941837
0.17944436
0.17947402
0.17950665
0.17954193
0.17957973
0.17962002
0.17966282
0.17970826
0.17975655
0.17980791
0.17986262
0.1799211
0.17998385
0.18005143
0.18012439
0.18020343
0.18028936
0.18038318
0.18048593
0.18059905
0.18072491
0.18086872
0.18103943
0.18124934
0.18150278
0.18175285
0.1817155
0.17923729
0.16247087
0.070842047
0.09139192
0.11664918
0.13884582
0.15575869
0.16719488
0.17404383
0.17763447
0.17928322
0.17974731
0.17974243
0.17965601
0.17955504
0.17936777
0.17930552
0.1792799
0.17927114
0.1792765
0.17929161
0.17931334
0.17933973
0.17936959
0.1794023
0.17943759
0.17947537
0.17951561
0.17955839
0.1796038
0.17965197
0.1797031
0.17975753
0.17981566
0.17987795
0.17994489
0.1800172
0.18009558
0.18018102
0.18027416
0.18037597
0.18048794
0.18061285
0.18075618
0.18092704
0.18113727
0.18138922
0.18163015
0.18155582
0.17886918
0.16174554
0.071366815
0.092071454
0.11734058
0.13943035
0.15617259
0.16742803
0.17412377
0.17760472
0.17918506
0.17962022
0.17961243
0.17953236
0.17942104
0.17924457
0.17919241
0.17916976
0.17916341
0.17917038
0.17918645
0.17920873
0.17923543
0.17926549
0.17929832
0.17933362
0.17937134
0.17941151
0.17945413
0.17949936
0.17954745
0.17959852
0.17965279
0.17971059
0.17977238
0.17983876
0.17991041
0.17998808
0.18007261
0.18016473
0.18026559
0.1803766
0.18050065
0.18064342
0.18081438
0.18102482
0.18127514
0.18150659
0.18139328
0.1784605
0.15975722
0.072100924
0.093080582
0.11838758
0.14032886
0.15682383
0.16781888
0.17429511
0.17762291
0.1791132
0.17950241
0.17948815
0.17941187
0.17928849
0.17912503
0.1790808
0.1790607
0.17905648
0.17906487
0.1790818
0.17910457
0.1791315
0.17916163
0.17919447
0.17922975
0.17926741
0.17930751
0.17935014
0.17939533
0.17944314
0.17949393
0.17954793
0.17960545
0.17966692
0.1797329
0.17980395
0.17988085
0.17996432
0.18005545
0.18015521
0.18026515
0.18038827
0.18053054
0.18070151
0.18091213
0.18116036
0.18138159
0.18122529
0.17802527
0.15926497
0.16837175
0.17456492
0.17769454
0.17907165
0.17939564
0.17936966
0.17929436
0.17915723
0.17900832
0.17897047
0.17895265
0.17895034
0.17895994
0.17897755
0.17900066
0.17902775
0.17905798
0.17909088
0.17912616
0.17916373
0.17920366
0.17924603
0.17929102
0.17933874
0.17938933
0.1794431
0.17950031
0.17956134
0.17962685
0.17969736
0.17977358
0.17985629
0.17994652
0.18004502
0.18015367
0.18027579
0.1804175
0.18058845
0.18079902
0.18104485
0.18125501
0.18105135
0.17757044
0.1589096
0.17917898
0.17902709
0.17889381
0.17886108
0.17884536
0.17884478
0.17885551
0.17887374
0.17889716
0.17892436
0.17895454
0.17898729
0.17902239
0.17905983
0.17909972
0.1791421
0.17918696
0.17923433
0.17928448
0.1793378
0.17939467
0.17945546
0.1795206
0.17959072
0.17966652
0.17974846
0.17983762
0.17993506
0.18004256
0.18016364
0.18030456
0.18047513
0.18068542
0.18092851
0.1811263
0.1808712
0.17708636
0.15760899
0.17873982
0.17875149
0.17877022
0.17879382
0.17882106
0.17885125
0.17888398
0.17891903
0.17895632
0.17899587
0.17903782
0.1790824
0.17912951
0.1791796
0.17923281
0.17928933
0.17934964
0.17941426
0.17948391
0.17955915
0.17964047
0.17972879
0.1798251
0.17993136
0.18005144
0.18019171
0.18036217
0.18057181
0.180811
0.18099542
0.18068362
0.17656696
0.15711409
0.17871816
0.17874828
0.17878084
0.17881568
0.17885277
0.17889212
0.1789338
0.17897797
0.17902493
0.17907461
0.17912722
0.17918346
0.1792436
0.179308
0.17937726
0.17945181
0.17953235
0.17961965
0.17971479
0.17982001
0.17993927
0.18007901
0.18024924
0.18045798
0.180693
0.18086231
0.18048668
0.17600998
0.15665807
0.17878871
0.17882993
0.17887354
0.17891998
0.17896929
0.17902164
0.17907754
0.17913732
0.1792013
0.17927005
0.17934408
0.17942408
0.17951055
0.17960466
0.17970887
0.17982718
0.17996633
0.18013622
0.18034401
0.18057446
0.18072686
0.18028001
0.17541046
0.15576449
0.17886431
0.17891624
0.17897161
0.17903081
0.17909439
0.1791627
0.1792362
0.17931552
0.17940117
0.17949441
0.17959777
0.17971533
0.17985417
0.18002377
0.18023027
0.18045536
0.18058954
0.18006426
0.17476496
0.15408236
0.17898794
0.17905558
0.17912828
0.17920669
0.17929152
0.17938406
0.17948666
0.17960345
0.17974194
0.17991138
0.18011687
0.18033645
0.18045018
0.17983633
0.17401211
0.15337244
0.17909813
0.17918215
0.17927389
0.17937543
0.17949138
0.17962978
0.17979944
0.18000362
0.18021668
0.18030718
0.17959306
0.17324281
0.15417496
0.17926403
0.17937996
0.17951843
0.17968809
0.17989051
0.18009593
0.18016039
0.17933288
0.17242987
0.15398712
0.17957706
0.17977793
0.17997468
0.18001035
0.17905603
0.17152384
0.15255378
0.179856
0.17875933
0.17056172
0.15047802
0.16938589
0.15026226
0.057127222
)
;

boundaryField
{
    Side
    {
        type            empty;
    }
    Inlet
    {
        type            calculated;
        value           nonuniform List<scalar> 
25
(
0.19945062
0.19945177
0.19945343
0.19945614
0.19945913
0.19946182
0.19946512
0.19946846
0.19947064
0.19947246
0.19947565
0.19948128
0.19948847
0.19949551
0.1995024
0.19950975
0.19951676
0.19952349
0.19953112
0.19953826
0.19954679
0.19955758
0.19956619
0.1995745
0.199585
)
;
    }
    Airfoil
    {
        type            nutkWallFunction;
        blending        stepwise;
        value           nonuniform List<scalar> 0();
    }
    Outlet
    {
        type            calculated;
        value           nonuniform List<scalar> 0();
    }
    procBoundary12to4
    {
        type            processor;
        value           uniform 0.056523145;
    }
    procBoundary12to5
    {
        type            processor;
        value           nonuniform List<scalar> 
30
(
0.057761994
0.058437461
0.059147717
0.059882719
0.060629194
0.061363693
0.062058671
0.062691094
0.063245557
0.063719805
0.064130281
0.064511377
0.064909782
0.065372891
0.065931508
0.066589367
0.067320227
0.068081074
0.068830002
0.069534425
0.070172299
0.070732416
0.071214925
0.071634957
0.072027198
0.072432602
0.072878463
0.073378015
0.071651807
0.057761994
)
;
    }
    procBoundary12to6
    {
        type            processor;
        value           uniform 0.072942912;
    }
    procBoundary12to11
    {
        type            processor;
        value           nonuniform List<scalar> 
65
(
0.056673165
0.071052059
0.090930484
0.1115781
0.13180153
0.13180153
0.14795996
0.16061712
0.16983682
0.1760498
0.1799228
0.18211531
0.18211531
0.182894
0.18306593
0.18294513
0.18275492
0.18248468
0.18248468
0.18232885
0.18216704
0.18208676
0.1819188
0.1819188
0.18190424
0.18190607
0.18192007
0.18182855
0.18182855
0.18185917
0.18189453
0.18193387
0.18186513
0.18186513
0.1819121
0.18196284
0.18190731
0.18190731
0.18196682
0.18203119
0.18199176
0.18199176
0.18206779
0.18204193
0.18204193
0.18213275
0.18223254
0.18223413
0.18223413
0.1823562
0.18238329
0.18238329
0.18253624
0.18260185
0.18260185
0.18270108
0.18270108
0.18296194
0.18316128
0.18316128
0.18326925
0.18326925
0.18238379
0.16942137
0.16942137
)
;
    }
    procBoundary12to13
    {
        type            processor;
        value           nonuniform List<scalar> 
60
(
0.094298159
0.11971369
0.14151044
0.15770929
0.15770929
0.1690469
0.17491133
0.17780698
0.17905495
0.17929869
0.17925578
0.17925578
0.17906458
0.17889801
0.17878119
0.17875263
0.17873884
0.17873884
0.17863551
0.17864799
0.17866711
0.17869088
0.17869088
0.17861553
0.17864533
0.1786777
0.17871251
0.17874958
0.17874958
0.17868465
0.17872584
0.17876934
0.17881548
0.17881548
0.17875892
0.17881075
0.17886595
0.17892486
0.17892486
0.17888122
0.17894843
0.17902052
0.17902052
0.17898929
0.17907225
0.17916301
0.17916301
0.17915196
0.17926771
0.17940688
0.17940688
0.17946565
0.17966455
0.17985191
0.17985191
0.17969625
0.17843133
0.17843133
0.16847454
0.15215437
)
;
    }
}


// ************************************************************************* //
