/*--------------------------------*- C++ -*----------------------------------*\
| =========                 |                                                 |
| \\      /  F ield         | OpenFOAM: The Open Source CFD Toolbox           |
|  \\    /   O peration     | Version:  2506                                  |
|   \\  /    A nd           | Website:  www.openfoam.com                      |
|    \\/     M anipulation  |                                                 |
\*---------------------------------------------------------------------------*/
FoamFile
{
    version     2.0;
    format      ascii;
    arch        "LSB;label=32;scalar=64";
    class       volScalarField;
    location    "1";
    object      alphat;
}
// * * * * * * * * * * * * * * * * * * * * * * * * * * * * * * * * * * * * * //

dimensions      [1 -1 -1 0 0 0 0];

internalField   nonuniform List<scalar> 
1376
(
0.038349004
0.047936026
0.061270832
0.075027616
0.038753797
0.048527496
0.062072483
0.075964554
0.088634112
0.099213584
0.10740472
0.11330957
0.1172609
0.11972222
0.039165971
0.049116161
0.062862984
0.076883999
0.089583149
0.10009835
0.10815218
0.11387581
0.11763873
0.11994219
0.12119305
0.12164762
0.12173427
0.12165119
0.12153525
0.039591488
0.049712103
0.063644664
0.077775502
0.090487997
0.10093
0.10884627
0.11439612
0.1179824
0.12013803
0.121243
0.12161428
0.12165333
0.1215529
0.12144066
0.12137128
0.12125611
0.12116021
0.12111523
0.040032535
0.050327389
0.064427622
0.078641414
0.091340748
0.10169065
0.10946228
0.11484379
0.11826702
0.12028906
0.12126655
0.12156704
0.12156707
0.12145462
0.12134941
0.12127735
0.12115312
0.12106909
0.12102975
0.12101007
0.12100381
0.12100724
0.12101755
0.040482951
0.050965959
0.065220502
0.079491148
0.092148659
0.10238341
0.1099986
0.11521299
0.11848417
0.12038694
0.12125743
0.12150185
0.12147389
0.1213565
0.12126031
0.12118
0.12105264
0.12098004
0.12094549
0.12092866
0.12092438
0.12092903
0.12094028
0.12095629
0.12097585
0.12099833
0.12102345
0.04092795
0.051620035
0.066025823
0.080337075
0.092931069
0.10303062
0.11047664
0.11552134
0.1186464
0.12043988
0.12121934
0.12142036
0.1213744
0.12125803
0.12117152
0.12108034
0.12095598
0.12089327
0.12086228
0.12084752
0.12084467
0.12085056
0.12086253
0.12087903
0.12089912
0.12092212
0.12094781
0.12097605
0.12100675
0.12104002
0.041348041
0.05227053
0.066833615
0.081182286
0.093703983
0.10365746
0.11092538
0.11579627
0.11877624
0.12046516
0.12116271
0.12132848
0.12127146
0.12115949
0.12108227
0.12097936
0.12086287
0.12080851
0.12078057
0.12076763
0.1207658
0.120772
0.12078422
0.12080111
0.12082159
0.12084493
0.12087086
0.12089953
0.12093075
0.12096449
0.12100084
0.12104007
0.12108255
0.041725916
0.052893692
0.067624161
0.082016809
0.094469447
0.10427684
0.11136488
0.11606009
0.11889416
0.1204797
0.12109902
0.12123314
0.12116824
0.12106222
0.12099267
0.12087827
0.12077288
0.1207255
0.12070039
0.12068918
0.12068824
0.12069476
0.12070686
0.12072327
0.12074325
0.12076662
0.12079302
0.12082195
0.1208534
0.12088752
0.12092426
0.12096395
0.12100693
0.12105356
0.12110435
0.042053783
0.05346871
0.068373064
0.082819136
0.095212969
0.10488302
0.11179729
0.11632016
0.11900976
0.12049289
0.12103588
0.12113933
0.12106716
0.12096827
0.12090176
0.12077777
0.12068517
0.12064357
0.12062114
0.12061161
0.12061156
0.12061839
0.12063038
0.12064646
0.12066603
0.12068876
0.12071459
0.12074336
0.12077503
0.12080945
0.12084662
0.12088672
0.12093006
0.12097714
0.12102854
0.12108484
0.12114638
0.1212132
0.042339672
0.053987826
0.069063639
0.083568195
0.095913099
0.1054579
0.11221005
0.11656977
0.11912073
0.12050479
0.12097476
0.12104817
0.12096954
0.12087876
0.1208092
0.120679
0.12059915
0.12056232
0.12054231
0.12053437
0.12053521
0.12054235
0.12055427
0.12057005
0.12058915
0.12061132
0.12063644
0.12066465
0.12069586
0.1207301
0.12076745
0.12080781
0.12085147
0.12089895
0.12095088
0.12100791
0.12107047
0.12113869
0.12121219
0.12129026
0.042606752
0.054458523
0.069691994
0.084251659
0.096552335
0.10598247
0.11258591
0.11679542
0.11921789
0.12050957
0.12091307
0.12095894
0.1208752
0.12079187
0.12071403
0.12058336
0.12051472
0.12048153
0.12046376
0.12045722
0.12045877
0.1204663
0.12047819
0.12049361
0.12051221
0.12053379
0.12055828
0.12058573
0.12061619
0.1206498
0.12068674
0.12072706
0.12077084
0.12081865
0.12087105
0.12092875
0.12099226
0.12106172
0.12113694
0.12121728
0.12130195
0.12139033
0.0428853
0.054902633
0.070272608
0.084875397
0.097128383
0.10644852
0.11291375
0.11698576
0.11929381
0.12049973
0.12084676
0.12086946
0.12078275
0.12070605
0.12061693
0.12049035
0.1204312
0.12040137
0.12038559
0.12038022
0.12038243
0.12039004
0.12040178
0.12041697
0.12043508
0.12045606
0.12047991
0.12050664
0.12053638
0.12056926
0.12060539
0.12064518
0.12068888
0.12073668
0.12078938
0.12084751
0.12091159
0.12098221
0.12105903
0.12114151
0.12122907
0.12132104
0.12141856
0.043198595
0.055346065
0.070831522
0.085461483
0.097656887
0.10686466
0.11319613
0.11713967
0.11934467
0.12047236
0.12077301
0.12077807
0.12069074
0.12061983
0.12051852
0.12039995
0.12034854
0.12032133
0.12030719
0.12030289
0.1203055
0.12031318
0.12032488
0.12033976
0.12035756
0.12037815
0.12040145
0.12042751
0.12045653
0.12048864
0.12052403
0.12056301
0.12060606
0.12065371
0.12070629
0.12076465
0.1208291
0.1209003
0.12097837
0.12106285
0.12115314
0.12124865
0.12135018
0.12146425
0.12160403
0.043553385
0.055810968
0.071400036
0.086043225
0.098167753
0.10725425
0.11344897
0.11726652
0.11937455
0.12042948
0.12069166
0.12068406
0.12059767
0.12053234
0.12041906
0.12031129
0.12026594
0.12024091
0.12022841
0.12022514
0.12022828
0.12023613
0.12024777
0.12026249
0.12027988
0.12029987
0.12032251
0.12034799
0.12037641
0.12040785
0.12044254
0.12048083
0.12052317
0.12057007
0.12062243
0.12068051
0.12074514
0.12081657
0.12089523
0.12098116
0.12107395
0.12117303
0.12127895
0.12139732
0.12153997
0.12170896
0.043939126
0.056306082
0.072000035
0.086650248
0.09869249
0.1076457
0.11369438
0.11738151
0.11939315
0.12037647
0.12060476
0.12058745
0.1205043
0.12044249
0.12031887
0.12022401
0.12018364
0.12016069
0.12014968
0.1201474
0.12015128
0.1201595
0.12017088
0.12018509
0.12020204
0.12022154
0.12024357
0.12026822
0.12029581
0.12032658
0.12036061
0.12039822
0.12043989
0.12048621
0.12053778
0.12059551
0.12065981
0.12073125
0.12081007
0.12089678
0.12099139
0.1210937
0.12120427
0.12132788
0.12147419
0.1216429
0.12175015
0.12108526
0.044337278
0.056829503
0.07264113
0.08730125
0.099254832
0.10806261
0.11395221
0.11749948
0.11941119
0.12031904
0.12051524
0.12048958
0.12041175
0.1203498
0.12021886
0.12013791
0.12010189
0.12008121
0.12007176
0.12007038
0.12007463
0.12008297
0.12009438
0.12010831
0.12012453
0.12014317
0.12016429
0.12018815
0.12021494
0.1202449
0.12027826
0.12031521
0.12035628
0.12040206
0.12045317
0.12051006
0.12057363
0.12064461
0.12072318
0.12081006
0.12090566
0.12101044
0.12112552
0.12125485
0.12140598
0.12157557
0.12166949
0.12092724
0.11223837
0.044731456
0.057372971
0.073318786
0.087997068
0.09986103
0.10851496
0.11423352
0.11763076
0.11943719
0.12026223
0.12042621
0.12039242
0.12032049
0.1202532
0.12012082
0.12005284
0.12002086
0.12000267
0.11999489
0.11999441
0.11999904
0.12000732
0.12001846
0.12003199
0.1200477
0.12006561
0.12008598
0.12010881
0.12013447
0.12016336
0.12019581
0.12023212
0.12027259
0.12031766
0.12036795
0.12042409
0.12048691
0.12055725
0.12063534
0.12072174
0.12081764
0.12092409
0.12104297
0.12117804
0.12133486
0.12150652
0.12158908
0.12077069
0.11208808
0.04511325
0.057928341
0.074020786
0.088725185
0.10050164
0.10899717
0.11453615
0.11777567
0.11947237
0.12020825
0.12033998
0.12029805
0.12023112
0.12015466
0.12002605
0.1199691
0.1199407
0.119925
0.11991902
0.11991976
0.11992496
0.11993334
0.11994421
0.11995728
0.11997236
0.11998944
0.12000882
0.12003068
0.12005508
0.12008242
0.12011342
0.12014869
0.12018811
0.1202324
0.120282
0.1203375
0.12039957
0.12046893
0.12054653
0.12063262
0.12072843
0.12083579
0.12095736
0.12109755
0.12126055
0.12143553
0.12150787
0.12061116
0.11186341
0.045482726
0.058489804
0.074731408
0.089464099
0.10115482
0.10949116
0.11484784
0.1179271
0.11951219
0.12015618
0.12025614
0.12020606
0.12014282
0.12005523
0.11993449
0.11988679
0.11986186
0.11984876
0.11984467
0.11984662
0.11985251
0.11986117
0.119872
0.11988469
0.1198992
0.1199155
0.11993355
0.11995357
0.11997631
0.12000219
0.12003162
0.12006518
0.1201032
0.12014632
0.12019519
0.12025015
0.12031147
0.12038012
0.12045701
0.12054275
0.12063832
0.12074599
0.12086934
0.12101383
0.12118289
0.12136177
0.12142517
0.12044009
0.11090138
0.045844244
0.059053468
0.075436097
0.090191085
0.10179484
0.10997355
0.11515091
0.11807327
0.11954893
0.12010386
0.12017382
0.12011583
0.12005496
0.1199557
0.11984549
0.11980539
0.11978385
0.11977352
0.11977147
0.11977478
0.11978159
0.11979073
0.11980161
0.11981396
0.11982782
0.11984319
0.11986
0.11987865
0.11989978
0.11992395
0.11995149
0.1199828
0.12001891
0.12006043
0.12010787
0.12016164
0.12022228
0.12029035
0.12036658
0.12045204
0.12054757
0.1206555
0.12078008
0.12092786
0.12110228
0.12128492
0.12134025
0.12026179
0.11032911
0.04620195
0.059616067
0.076123399
0.090887209
0.102399
0.1104227
0.11542824
0.1182022
0.11957472
0.1200485
0.12009181
0.12002678
0.11996741
0.11985685
0.11975856
0.11972453
0.11970616
0.1196985
0.11969848
0.11970331
0.11971126
0.11972118
0.11973243
0.11974476
0.11975817
0.11977279
0.11978882
0.11980645
0.11982569
0.11984738
0.11987247
0.11990167
0.11993571
0.119975
0.12002035
0.12007263
0.12013238
0.12019977
0.1202757
0.12036076
0.12045639
0.1205648
0.12069052
0.1208407
0.12101943
0.12120551
0.12125198
0.12008105
0.11034256
0.046557121
0.060174864
0.076788527
0.091543918
0.10295547
0.11082608
0.11566901
0.11830583
0.11958425
0.11998791
0.12000895
0.11993787
0.11988027
0.11975943
0.11967355
0.11964417
0.11962848
0.11962318
0.11962512
0.11963156
0.11964075
0.1196516
0.11966351
0.11967626
0.1196897
0.11970384
0.11971895
0.11973544
0.11975354
0.11977355
0.11979625
0.11982269
0.11985376
0.11989052
0.11993354
0.11998398
0.1200423
0.12010882
0.12018406
0.1202688
0.12036455
0.12047382
0.12060087
0.12075338
0.1209353
0.12112335
0.12115942
0.11988937
0.11011967
0.046907182
0.060724585
0.077428746
0.0921597
0.10346239
0.11118115
0.11587041
0.11838171
0.11957581
0.11992087
0.11992399
0.11985026
0.11979261
0.11966352
0.11959017
0.11956439
0.11955106
0.11954777
0.11955134
0.11955916
0.11956955
0.11958147
0.11959434
0.11960783
0.11962176
0.11963609
0.11965089
0.11966642
0.11968323
0.11970179
0.11972262
0.11974648
0.11977463
0.11980825
0.11984848
0.11989647
0.11995272
0.12001781
0.12009211
0.1201764
0.12027213
0.12038207
0.12051096
0.12066585
0.12085006
0.12103866
0.12106248
0.119672
0.10894275
0.047249755
0.061263048
0.078047413
0.092741974
0.10392823
0.11149523
0.11603763
0.11843302
0.11955138
0.11984771
0.11983724
0.11976416
0.11970322
0.11957005
0.1195083
0.11948533
0.11947404
0.11947247
0.11947745
0.11948649
0.11949797
0.11951087
0.11952465
0.11953897
0.11955363
0.11956855
0.11958376
0.11959931
0.11961554
0.11963296
0.11965211
0.11967367
0.11969916
0.11972948
0.11976631
0.1198112
0.11986462
0.11992769
0.12000058
0.12008381
0.120179
0.12028941
0.12042023
0.12057761
0.12076404
0.12095227
0.12096015
0.11943428
0.10793054
0.047585182
0.061792507
0.078653181
0.093304617
0.10436854
0.1117822
0.11618099
0.11846649
0.11951513
0.11976984
0.11974938
0.11967893
0.1196119
0.11947928
0.11942773
0.11940709
0.11939768
0.11939763
0.11940383
0.11941391
0.11942634
0.11944017
0.11945479
0.11946986
0.1194852
0.11950075
0.1195165
0.11953252
0.11954905
0.11956638
0.11958496
0.11960526
0.11962774
0.11965444
0.11968766
0.11972829
0.11977813
0.11983804
0.11990879
0.11999115
0.12008582
0.12019643
0.12032828
0.12048824
0.1206765
0.12086294
0.12085066
0.11919042
0.10845145
0.047915964
0.062316889
0.07925516
0.093861524
0.10479922
0.11205678
0.11631194
0.11848983
0.11947203
0.11968927
0.11966122
0.11959404
0.11951908
0.1193911
0.11934822
0.11932969
0.11932203
0.11932333
0.11933056
0.11934149
0.11935472
0.11936935
0.1193848
0.11940071
0.11941687
0.11943316
0.11944953
0.11946609
0.1194829
0.11950024
0.11951856
0.11953831
0.11955992
0.1195843
0.11961338
0.11964951
0.11969424
0.11974964
0.11981742
0.11989777
0.11999196
0.12010262
0.12023537
0.12039668
0.1205866
0.12077011
0.12073517
0.11893403
0.10814212
0.048246853
0.062841976
0.079861136
0.094422713
0.1052314
0.11232944
0.11643896
0.11850916
0.11942623
0.11960805
0.11957359
0.11950945
0.1194255
0.11930533
0.11926965
0.11925308
0.11924707
0.11924958
0.11925769
0.11926936
0.11928329
0.11929865
0.11931493
0.11933174
0.11934882
0.119366
0.11938318
0.11940037
0.11941768
0.11943531
0.11945356
0.11947296
0.11949391
0.1195171
0.11954328
0.11957475
0.11961449
0.11966515
0.11972822
0.11980511
0.11989754
0.1200078
0.12014137
0.12030418
0.12049472
0.12067447
0.12061593
0.11865032
0.10718511
0.048583369
0.063374655
0.080478255
0.094995021
0.10567147
0.11260599
0.11656664
0.11852732
0.1193804
0.11952751
0.11948698
0.11942522
0.11933192
0.11922178
0.11919194
0.11917725
0.11917288
0.11917658
0.11918556
0.11919796
0.11921257
0.11922861
0.11924557
0.11926311
0.11928098
0.11929897
0.11931698
0.11933497
0.119353
0.11937119
0.11938976
0.11940905
0.11942942
0.11945146
0.11947637
0.11950537
0.11954076
0.11958575
0.11964248
0.11971376
0.11980247
0.11991212
0.12004638
0.12021072
0.12040138
0.12057624
0.12049281
0.11834447
0.10613452
0.11288635
0.11669481
0.11854688
0.1193342
0.11944828
0.11940164
0.11934155
0.11923908
0.11914031
0.11911513
0.11910225
0.11909945
0.11910429
0.1191141
0.11912716
0.1191424
0.11915907
0.11917664
0.11919475
0.11921317
0.11923181
0.11925058
0.11926942
0.11928828
0.11930722
0.1193264
0.11934605
0.11936654
0.11938807
0.11941159
0.11943822
0.11947025
0.11950985
0.11956054
0.11962635
0.11971024
0.11981624
0.11994982
0.12011515
0.12030665
0.12047739
0.12036623
0.11803437
0.10638098
0.11925883
0.11914785
0.11906107
0.11903949
0.11902831
0.11902696
0.11903279
0.11904326
0.11905678
0.1190724
0.11908947
0.11910752
0.1191262
0.11914526
0.11916462
0.11918428
0.11920417
0.11922413
0.11924398
0.11926373
0.11928354
0.11930396
0.11932546
0.11934827
0.11937353
0.11940294
0.11943833
0.11948409
0.11954361
0.11962127
0.11972236
0.11985315
0.12001813
0.12021031
0.12037757
0.12023815
0.11772276
0.10599526
0.11895554
0.11896221
0.11897321
0.11898703
0.1190028
0.11901999
0.11903824
0.11905731
0.11907702
0.11909722
0.11911783
0.11913878
0.1191599
0.11918096
0.1192018
0.11922236
0.11924298
0.11926423
0.11928677
0.11931097
0.11933813
0.11937094
0.11941195
0.11946542
0.11953655
0.1196318
0.11975846
0.11992167
0.12011277
0.12027602
0.12010802
0.11740017
0.10540944
0.11893376
0.11895103
0.11896938
0.11898863
0.11900867
0.11902941
0.11905072
0.11907253
0.11909474
0.11911714
0.11913944
0.11916149
0.11918307
0.11920461
0.11922681
0.11925047
0.11927624
0.11930604
0.119343
0.11939121
0.11945624
0.11954543
0.11966697
0.11982634
0.12001525
0.12017281
0.11997389
0.11705715
0.10464879
0.1189617
0.11898352
0.11900599
0.119029
0.11905239
0.11907587
0.11909918
0.11912233
0.11914524
0.11916797
0.11919131
0.11921638
0.11924425
0.11927782
0.11932109
0.11938021
0.11946345
0.1195791
0.11973378
0.11991799
0.12006686
0.11983166
0.1166928
0.10417479
0.11898699
0.11901158
0.11903621
0.11906063
0.11908471
0.11910862
0.11913285
0.11915797
0.11918505
0.11921598
0.11925504
0.11930866
0.11938531
0.11949496
0.11964438
0.11982234
0.11995906
0.11967926
0.11630601
0.10403348
0.11902368
0.11904895
0.11907408
0.11909945
0.11912633
0.11915631
0.11919284
0.11924153
0.11931193
0.1194152
0.1195581
0.11972892
0.11984991
0.11951592
0.11587656
0.10349677
0.11904062
0.11906798
0.11909761
0.11913238
0.11917793
0.11924375
0.11934068
0.1194759
0.11963695
0.11973913
0.11934121
0.11535346
0.10262958
0.11907247
0.11911744
0.11918012
0.11927142
0.11939891
0.11954817
0.11962831
0.11915695
0.11479075
0.1015759
0.11920697
0.11932705
0.1194639
0.1195186
0.11896204
0.11418499
0.10097699
0.11941192
0.11875671
0.11354733
0.10132916
0.11287162
0.10052633
0.038511028
)
;

boundaryField
{
    Side
    {
        type            empty;
    }
    Inlet
    {
        type            calculated;
        value           nonuniform List<scalar> 
25
(
0.13303592
0.13302445
0.1330103
0.13299803
0.13299612
0.13299719
0.13299817
0.13300134
0.13300773
0.13301664
0.13302748
0.13304043
0.13305472
0.13307115
0.13309092
0.13311352
0.13313848
0.13316685
0.13319377
0.13321179
0.13322654
0.13324158
0.13325165
0.13325941
0.13326247
)
;
    }
    Airfoil
    {
        type            compressible::alphatWallFunction;
        value           nonuniform List<scalar> 0();
    }
    Outlet
    {
        type            calculated;
        value           nonuniform List<scalar> 0();
    }
    procBoundary12to4
    {
        type            processor;
        value           uniform 0.03808904;
    }
    procBoundary12to5
    {
        type            processor;
        value           nonuniform List<scalar> 
30
(
0.038948575
0.039404045
0.039866072
0.040317124
0.040740234
0.041122127
0.041453472
0.041731831
0.041964818
0.042175131
0.042400534
0.042685172
0.043059047
0.043520538
0.044039263
0.044572424
0.045080932
0.04553711
0.045929526
0.046262862
0.046551799
0.046814561
0.047065884
0.047313761
0.047561223
0.047810928
0.048066884
0.048334926
0.048324762
0.038948575
)
;
    }
    procBoundary12to6
    {
        type            processor;
        value           uniform 0.048927183;
    }
    procBoundary12to11
    {
        type            processor;
        value           nonuniform List<scalar> 
65
(
0.037942526
0.04733346
0.060457858
0.074084575
0.087665052
0.087665052
0.09831094
0.10664448
0.11273666
0.11688289
0.11950622
0.12112887
0.12112887
0.12167489
0.12181432
0.12175147
0.12163475
0.12146277
0.12146277
0.12135994
0.12125341
0.12120144
0.12109226
0.12109226
0.12108367
0.12108544
0.12109461
0.12103281
0.12103281
0.12105172
0.12107358
0.12109816
0.12105116
0.12105116
0.12108141
0.12111431
0.12107601
0.12107601
0.12111484
0.12115682
0.12112861
0.12112861
0.12117875
0.12115985
0.12115985
0.12122034
0.1212857
0.1212849
0.1212849
0.12136073
0.12137199
0.12137199
0.12145722
0.12148436
0.12148436
0.12152914
0.12152914
0.12166734
0.12177537
0.12177537
0.12183034
0.12183034
0.12124053
0.11264185
0.11264185
)
;
    }
    procBoundary12to13
    {
        type            processor;
        value           nonuniform List<scalar> 
60
(
0.063915139
0.081106639
0.095578612
0.10611974
0.10611974
0.11316295
0.11681909
0.11856708
0.11928589
0.1193704
0.11931769
0.11931769
0.11917716
0.11905884
0.11898407
0.11896528
0.11895565
0.11895565
0.11888487
0.11889224
0.11890371
0.11891783
0.11891783
0.11886483
0.11888228
0.11890078
0.11892025
0.1189406
0.1189406
0.1188938
0.11891603
0.11893905
0.11896276
0.11896276
0.11892047
0.11894628
0.11897234
0.11899821
0.11899821
0.11896041
0.11898732
0.11901398
0.11901398
0.1189797
0.11900818
0.11903808
0.11903808
0.11901271
0.1190572
0.11911878
0.11911878
0.11914437
0.11925965
0.11938477
0.11938477
0.1193097
0.11854337
0.11854337
0.11224585
0.099176714
)
;
    }
}


// ************************************************************************* //
