/*--------------------------------*- C++ -*----------------------------------*\
| =========                 |                                                 |
| \\      /  F ield         | OpenFOAM: The Open Source CFD Toolbox           |
|  \\    /   O peration     | Version:  2506                                  |
|   \\  /    A nd           | Website:  www.openfoam.com                      |
|    \\/     M anipulation  |                                                 |
\*---------------------------------------------------------------------------*/
FoamFile
{
    version     2.0;
    format      ascii;
    arch        "LSB;label=32;scalar=64";
    class       volScalarField;
    location    "1";
    object      T;
}
// * * * * * * * * * * * * * * * * * * * * * * * * * * * * * * * * * * * * * //

dimensions      [0 0 0 1 0 0 0];

internalField   nonuniform List<scalar> 
1376
(
245.56904
245.58508
245.58914
245.57902
245.56914
245.58425
245.58721
245.57594
245.56128
245.54921
245.54123
245.53682
245.53493
245.53442
245.56989
245.58456
245.58715
245.57539
245.56033
245.54799
245.53976
245.53497
245.53249
245.53132
245.53094
245.53117
245.53161
245.53227
245.5332
245.57203
245.58609
245.58805
245.57583
245.56063
245.5482
245.53989
245.53502
245.53242
245.53108
245.53035
245.52983
245.52954
245.5295
245.5299
245.53066
245.53169
245.53308
245.53466
245.57603
245.5893
245.59049
245.57758
245.56209
245.54951
245.54106
245.53606
245.53329
245.53175
245.53083
245.53016
245.5297
245.52942
245.52921
245.52922
245.52951
245.53015
245.53115
245.53238
245.53382
245.5355
245.53746
245.58211
245.59442
245.59475
245.58107
245.56521
245.55244
245.54382
245.53857
245.53552
245.53371
245.53251
245.53157
245.53082
245.5302
245.52974
245.52955
245.52958
245.52971
245.52989
245.5303
245.53095
245.53198
245.53328
245.53484
245.53669
245.53883
245.5412
245.59013
245.60149
245.60091
245.58649
245.57025
245.55726
245.54845
245.54294
245.53954
245.53732
245.53569
245.53435
245.53316
245.53214
245.53137
245.53086
245.53055
245.53038
245.53039
245.53053
245.53075
245.53088
245.53117
245.53188
245.53293
245.5344
245.53629
245.53868
245.54151
245.54465
245.59974
245.61029
245.60879
245.59375
245.5772
245.56403
245.55502
245.54924
245.54552
245.54286
245.54068
245.53875
245.537
245.53546
245.5342
245.53321
245.53245
245.5319
245.5316
245.53141
245.53129
245.53126
245.53124
245.53117
245.5313
245.53182
245.53286
245.53457
245.5369
245.53983
245.54321
245.54693
245.55089
245.61059
245.62048
245.61811
245.60256
245.58577
245.57248
245.56333
245.55734
245.55327
245.55017
245.54746
245.54492
245.54256
245.54043
245.53852
245.53688
245.53552
245.53444
245.53361
245.53295
245.53241
245.53197
245.53163
245.53142
245.53132
245.53125
245.53144
245.53214
245.5335
245.53577
245.53878
245.54233
245.54628
245.55049
245.55488
245.62174
245.63127
245.62826
245.61237
245.59542
245.58206
245.57284
245.56672
245.56243
245.55902
245.55593
245.55293
245.54997
245.54711
245.54456
245.54229
245.54024
245.53847
245.53696
245.53567
245.53458
245.53362
245.53282
245.53216
245.53164
245.53133
245.53128
245.53133
245.53173
245.53279
245.53479
245.53772
245.54143
245.54568
245.55014
245.55484
245.55982
245.56503
245.63266
245.64207
245.63863
245.62249
245.6055
245.59218
245.583
245.57685
245.57246
245.56889
245.56558
245.56227
245.55895
245.55573
245.55262
245.54959
245.54681
245.54436
245.54213
245.54014
245.53836
245.53678
245.53537
245.53412
245.53303
245.53218
245.53163
245.53139
245.53143
245.53171
245.53251
245.53422
245.53699
245.54078
245.5452
245.55001
245.55512
245.5605
245.56602
245.57178
245.64265
245.65238
245.64887
245.63263
245.6157
245.60252
245.59347
245.5874
245.583
245.57934
245.57589
245.57243
245.56897
245.56549
245.56201
245.55864
245.55538
245.55221
245.54928
245.54656
245.54404
245.54172
245.53956
245.53758
245.5358
245.53424
245.533
245.53219
245.53174
245.5316
245.53171
245.53233
245.53388
245.53649
245.5403
245.54489
245.55002
245.55562
245.56139
245.5673
245.57372
245.58079
245.65045
245.66086
245.65786
245.64199
245.62546
245.61262
245.60379
245.59787
245.59359
245.59001
245.5866
245.58313
245.57958
245.57595
245.57232
245.56876
245.56522
245.56169
245.5583
245.55493
245.55164
245.54855
245.54556
245.54272
245.5401
245.53773
245.53568
245.53402
245.53284
245.5321
245.53171
245.53156
245.5319
245.53332
245.53591
245.53984
245.54487
245.55047
245.55641
245.56263
245.56932
245.57692
245.58482
245.65574
245.66694
245.6647
245.64946
245.63364
245.62149
245.61326
245.60778
245.60378
245.60037
245.59709
245.59377
245.59036
245.58686
245.58328
245.57962
245.57588
245.57214
245.56832
245.56452
245.56079
245.55694
245.55321
245.54966
245.54623
245.54302
245.54004
245.53741
245.53524
245.53357
245.53242
245.53169
245.53128
245.5314
245.5328
245.53547
245.53974
245.54516
245.55123
245.55767
245.56469
245.57269
245.58135
245.58939
245.59423
245.65868
245.67066
245.66917
245.65465
245.63969
245.62839
245.6209
245.61604
245.61256
245.60964
245.60678
245.60378
245.60063
245.59734
245.59396
245.59047
245.58684
245.58301
245.57896
245.57478
245.57056
245.56646
245.56244
245.55833
245.55418
245.55014
245.54624
245.54259
245.53932
245.53657
245.53435
245.53268
245.53161
245.53106
245.53108
245.53265
245.53553
245.54011
245.54596
245.55251
245.55973
245.56788
245.57709
245.58622
245.59228
245.59358
245.65904
245.67151
245.67091
245.65742
245.64349
245.63298
245.62623
245.62206
245.61921
245.61686
245.61455
245.61211
245.60949
245.6067
245.60371
245.60049
245.59703
245.59335
245.58947
245.58539
245.58114
245.57675
245.57228
245.56784
245.56335
245.5587
245.55405
245.54943
245.54511
245.54125
245.53781
245.535
245.53293
245.53164
245.53117
245.53134
245.53302
245.53629
245.54119
245.54741
245.55455
245.56273
245.57232
245.58219
245.58947
245.59174
245.58461
245.55883
245.6585
245.67117
245.67076
245.6576
245.64422
245.63481
245.62913
245.62587
245.62374
245.62196
245.62018
245.61827
245.6162
245.61396
245.61154
245.60894
245.60607
245.60287
245.59934
245.59548
245.59138
245.58707
245.58252
245.57779
245.57301
245.56811
245.56302
245.55792
245.55273
245.54759
245.54297
245.53891
245.53569
245.53342
245.53212
245.53172
245.53214
245.53412
245.53771
245.54298
245.54964
245.55766
245.56723
245.57756
245.58577
245.58903
245.58361
245.55975
245.54005
245.65699
245.66996
245.66977
245.65692
245.64389
245.63471
245.62933
245.62651
245.62506
245.62414
245.62324
245.62219
245.62094
245.61946
245.61775
245.61569
245.61333
245.6107
245.60774
245.60449
245.6008
245.59672
245.59234
245.58773
245.58289
245.57791
245.57269
245.56718
245.56147
245.55566
245.54994
245.54468
245.54012
245.53661
245.53422
245.53292
245.5326
245.53344
245.53563
245.53955
245.54522
245.55264
245.56181
245.57219
245.58109
245.58521
245.58209
245.56077
245.5416
245.65456
245.66802
245.66807
245.65547
245.64276
245.63385
245.62878
245.62623
245.625
245.6243
245.62375
245.62321
245.62264
245.62196
245.6211
245.61998
245.61853
245.61678
245.61461
245.61186
245.60872
245.6052
245.60133
245.59702
245.59237
245.58758
245.5826
245.5772
245.57129
245.5651
245.55874
245.55252
245.54667
245.54165
245.53787
245.53534
245.53408
245.53389
245.53479
245.53732
245.54152
245.5478
245.55618
245.56622
245.5756
245.58048
245.57954
245.56178
245.54336
245.65088
245.66508
245.6655
245.65324
245.64088
245.63234
245.62759
245.62532
245.62434
245.62388
245.62356
245.62324
245.62293
245.62263
245.62226
245.62178
245.6211
245.62015
245.61881
245.61706
245.61491
245.6122
245.60888
245.60514
245.60105
245.59669
245.59206
245.58691
245.58131
245.57517
245.56853
245.56178
245.55502
245.5488
245.54352
245.53949
245.53678
245.53536
245.53523
245.53623
245.53902
245.54368
245.55087
245.56009
245.56953
245.57522
245.57571
245.56197
245.54513
245.64585
245.66073
245.66158
245.64984
245.638
245.62995
245.6256
245.62366
245.62295
245.62275
245.62271
245.6227
245.62269
245.62263
245.62254
245.6224
245.62214
245.62164
245.62089
245.61994
245.61862
245.6168
245.61445
245.61162
245.60826
245.60435
245.60012
245.59569
245.59079
245.5851
245.57879
245.5719
245.56464
245.55747
245.55083
245.54526
245.54097
245.53807
245.53665
245.53647
245.53756
245.54056
245.54612
245.55412
245.56322
245.56944
245.5709
245.56122
245.54692
245.63964
245.65499
245.65621
245.64503
245.63375
245.62624
245.62237
245.62082
245.62045
245.62056
245.62084
245.62117
245.62152
245.62184
245.6221
245.62227
245.62229
245.62214
245.62182
245.62133
245.62051
245.61935
245.61784
245.61581
245.61329
245.61035
245.60688
245.60295
245.59868
245.5939
245.58826
245.58185
245.5748
245.56728
245.55972
245.55266
245.54659
245.54195
245.53889
245.53732
245.53703
245.53829
245.54191
245.54856
245.55697
245.56338
245.56546
245.55978
245.54842
245.63253
245.64816
245.64962
245.63889
245.62812
245.62111
245.61768
245.61653
245.61646
245.61692
245.61755
245.61825
245.61899
245.61972
245.62043
245.62103
245.62147
245.62172
245.62174
245.62152
245.62104
245.6203
245.61932
245.61797
245.61624
245.61416
245.61162
245.60862
245.60515
245.60121
245.59664
245.59096
245.58441
245.57721
245.56944
245.56161
245.5541
245.54748
245.54216
245.53877
245.53722
245.53694
245.5386
245.54338
245.55079
245.55719
245.55989
245.55756
245.54944
245.62467
245.64044
245.64199
245.63159
245.62125
245.61468
245.61166
245.61083
245.61101
245.6118
245.61273
245.61374
245.61481
245.61594
245.61709
245.61817
245.61911
245.61988
245.62044
245.6207
245.62064
245.62026
245.61958
245.61865
245.61751
245.61608
245.61434
245.61232
245.60979
245.60676
245.60314
245.59875
245.59335
245.58676
245.5792
245.57112
245.56273
245.55436
245.54693
245.54128
245.53787
245.53634
245.53669
245.53928
245.54508
245.55103
245.55439
245.55459
245.55024
245.6162
245.63201
245.63355
245.62333
245.6133
245.60709
245.60441
245.60379
245.60424
245.60529
245.60646
245.60772
245.60907
245.61051
245.61204
245.61357
245.61502
245.61635
245.61749
245.61838
245.61896
245.61921
245.61906
245.61853
245.61767
245.61656
245.6153
245.61388
245.61221
245.61028
245.60776
245.60461
245.60031
245.59465
245.58801
245.58026
245.57142
245.56193
245.55281
245.54492
245.53924
245.53626
245.53529
245.53662
245.54058
245.54511
245.54841
245.55061
245.55055
245.60718
245.62298
245.62443
245.61429
245.60451
245.5986
245.59616
245.59569
245.59637
245.59762
245.599
245.60048
245.60207
245.60378
245.6056
245.60748
245.60937
245.61121
245.61293
245.61444
245.61569
245.61661
245.61716
245.61732
245.61708
245.61644
245.61555
245.61448
245.61328
245.61193
245.61024
245.60796
245.60484
245.60077
245.5952
245.58815
245.5796
245.56988
245.55945
245.54964
245.54203
245.53708
245.53469
245.53432
245.53694
245.54025
245.54276
245.5458
245.55017
245.59764
245.61344
245.61477
245.60466
245.59508
245.5894
245.58716
245.58679
245.58768
245.58907
245.59062
245.5923
245.59412
245.59608
245.59815
245.60031
245.60254
245.60477
245.60694
245.60901
245.61088
245.61249
245.61378
245.61471
245.61524
245.61536
245.6151
245.61448
245.61368
245.61279
245.61171
245.61026
245.60823
245.60527
245.60104
245.59512
245.58712
245.5773
245.56647
245.55562
245.5462
245.53931
245.53506
245.53322
245.53389
245.53624
245.53794
245.54075
245.54872
245.58783
245.60361
245.60478
245.59465
245.58521
245.57973
245.57765
245.57736
245.57841
245.57992
245.5816
245.58346
245.58547
245.58763
245.58991
245.59229
245.59476
245.59728
245.59983
245.60234
245.60475
245.607
245.60901
245.61072
245.61207
245.613
245.61346
245.61351
245.61321
245.61267
245.61198
245.61113
245.60998
245.60811
245.60511
245.60029
245.59342
245.58444
245.57367
245.5622
245.55142
245.54277
245.53688
245.53349
245.5319
245.53248
245.53332
245.53593
245.54668
245.57809
245.59371
245.59474
245.58455
245.57523
245.56989
245.56793
245.56771
245.56885
245.57043
245.5722
245.57418
245.57634
245.57864
245.58106
245.58358
245.5862
245.58891
245.59172
245.59458
245.59745
245.60025
245.60291
245.60534
245.60747
245.60923
245.61054
245.61137
245.61172
245.6117
245.61144
245.61096
245.61016
245.60911
245.60729
245.6043
245.59928
245.59173
245.58147
245.56927
245.55733
245.54738
245.53993
245.53478
245.53147
245.52981
245.52937
245.53137
245.54416
245.56011
245.55826
245.5581
245.55927
245.56085
245.56264
245.56465
245.56687
245.56926
245.57179
245.57444
245.57719
245.58003
245.58299
245.58606
245.58922
245.59239
245.59551
245.59851
245.6013
245.6038
245.60598
245.60776
245.60906
245.60986
245.61022
245.61022
245.60994
245.60923
245.60828
245.60639
245.60328
245.59779
245.58902
245.57779
245.56539
245.55364
245.54415
245.53719
245.53209
245.52813
245.5264
245.52709
245.54052
245.55501
245.55721
245.55964
245.56225
245.56501
245.56789
245.57086
245.57393
245.5771
245.58038
245.58372
245.58706
245.59035
245.59357
245.59669
245.59969
245.60247
245.60487
245.60671
245.60796
245.60866
245.6089
245.60872
245.6081
245.60724
245.60551
245.60188
245.59579
245.58654
245.57455
245.56175
245.55009
245.54079
245.53355
245.52777
245.52415
245.52333
245.53587
245.55825
245.56132
245.56447
245.56767
245.57092
245.57429
245.57775
245.58128
245.58486
245.58847
245.5921
245.59564
245.59899
245.60193
245.60429
245.60603
245.6071
245.6076
245.60759
245.60708
245.60606
245.60422
245.60049
245.59385
245.58371
245.5711
245.55764
245.5455
245.53566
245.52795
245.52276
245.52023
245.53096
245.56098
245.5643
245.56778
245.57148
245.57538
245.57941
245.58356
245.58779
245.59195
245.59588
245.59934
245.60209
245.6042
245.60565
245.60649
245.60658
245.60601
245.60507
245.60314
245.59904
245.59177
245.58041
245.56638
245.55172
245.53865
245.52847
245.52135
245.51787
245.52656
245.56945
245.57401
245.57879
245.58369
245.5885
245.59302
245.59702
245.60027
245.60273
245.60444
245.60543
245.60564
245.60509
245.60406
245.60188
245.59715
245.58855
245.5755
245.55924
245.54301
245.52926
245.51953
245.51514
245.52347
245.57938
245.58479
245.58994
245.59456
245.59836
245.60128
245.60351
245.60482
245.60503
245.6045
245.60327
245.60063
245.59477
245.58344
245.56687
245.54822
245.5307
245.51795
245.51183
245.52111
245.59164
245.59617
245.59991
245.60263
245.60428
245.60451
245.60394
245.60246
245.59873
245.58975
245.57396
245.5537
245.53288
245.51681
245.50878
245.51825
245.59843
245.60174
245.60363
245.60377
245.60293
245.60098
245.59447
245.58071
245.55971
245.5359
245.5166
245.50576
245.51493
245.60263
245.6033
245.60197
245.59788
245.58647
245.56608
245.53984
245.51699
245.50465
245.51264
245.5995
245.59048
245.57205
245.5448
245.51867
245.50454
245.51041
245.55013
245.52144
245.50467
245.50906
245.50654
245.50958
245.56948
)
;

boundaryField
{
    Side
    {
        type            empty;
    }
    Inlet
    {
        type            totalTemperature;
        gamma           1.4;
        T0              uniform 250;
        value           nonuniform List<scalar> 
25
(
245.57152
245.57192
245.57241
245.57284
245.5729
245.57287
245.57283
245.57272
245.5725
245.57219
245.57181
245.57136
245.57087
245.57029
245.56961
245.56882
245.56795
245.56697
245.56603
245.56541
245.56489
245.56437
245.56402
245.56375
245.56364
)
;
    }
    Airfoil
    {
        type            zeroGradient;
    }
    Outlet
    {
        type            inletOutlet;
        inletValue      nonuniform List<scalar> 0();
        value           nonuniform List<scalar> 0();
    }
    procBoundary12to4
    {
        type            processor;
        value           uniform 245.57104;
    }
    procBoundary12to5
    {
        type            processor;
        value           nonuniform List<scalar> 
30
(
245.56959
245.57034
245.57245
245.57637
245.58234
245.59024
245.5998
245.61063
245.62186
245.63279
245.64273
245.65043
245.65562
245.6585
245.65889
245.6584
245.65697
245.65464
245.65111
245.64624
245.64015
245.63308
245.62521
245.61671
245.60763
245.598
245.58808
245.57825
245.58542
245.56959
)
;
    }
    procBoundary12to6
    {
        type            processor;
        value           uniform 245.56857;
    }
    procBoundary12to11
    {
        type            processor;
        value           nonuniform List<scalar> 
65
(
245.57066
245.58842
245.59393
245.58486
245.56513
245.56513
245.5535
245.54588
245.54182
245.54017
245.53976
245.53468
245.53468
245.53528
245.53607
245.53705
245.53825
245.5344
245.5344
245.53591
245.53767
245.53959
245.53641
245.53641
245.53837
245.54048
245.54269
245.53959
245.53959
245.5418
245.54412
245.54653
245.54383
245.54383
245.5467
245.54987
245.5481
245.5481
245.55179
245.55557
245.55504
245.55504
245.55927
245.55947
245.55947
245.5643
245.56938
245.57044
245.57044
245.57608
245.57797
245.57797
245.58426
245.58766
245.58766
245.59162
245.59162
245.59559
245.59483
245.59483
245.58492
245.58492
245.55807
245.53861
245.53861
)
;
    }
    procBoundary12to13
    {
        type            processor;
        value           nonuniform List<scalar> 
60
(
245.58379
245.58471
245.57441
245.56522
245.56522
245.55051
245.54876
245.54864
245.54974
245.55127
245.55301
245.55301
245.54551
245.54758
245.54992
245.55251
245.55529
245.55529
245.54857
245.55153
245.55461
245.55775
245.55775
245.55111
245.55424
245.55757
245.56121
245.56516
245.56516
245.55913
245.56372
245.56866
245.57391
245.57391
245.56961
245.57542
245.5811
245.58652
245.58652
245.58322
245.58874
245.59391
245.59391
245.59237
245.5973
245.60068
245.60068
245.60029
245.6018
245.60165
245.60165
245.5984
245.59191
245.57643
245.57643
245.55448
245.52564
245.52564
245.50912
245.51002
)
;
    }
}


// ************************************************************************* //
