/*--------------------------------*- C++ -*----------------------------------*\
| =========                 |                                                 |
| \\      /  F ield         | OpenFOAM: The Open Source CFD Toolbox           |
|  \\    /   O peration     | Version:  2506                                  |
|   \\  /    A nd           | Website:  www.openfoam.com                      |
|    \\/     M anipulation  |                                                 |
\*---------------------------------------------------------------------------*/
FoamFile
{
    version     2.0;
    format      ascii;
    arch        "LSB;label=32;scalar=64";
    class       volScalarField;
    location    "0.0205";
    object      alphat;
}
// * * * * * * * * * * * * * * * * * * * * * * * * * * * * * * * * * * * * * //

dimensions      [1 -1 -1 0 0 0 0];

internalField   nonuniform List<scalar> 
192657
(
2.1623149e-05
6.5908504e-06
6.5756411e-06
6.5963062e-06
6.5857592e-06
6.5911601e-06
6.5899709e-06
6.5914666e-06
6.5951988e-06
6.6019451e-06
6.6051123e-06
6.5913939e-06
6.5695918e-06
6.5584303e-06
6.5676702e-06
6.5896992e-06
6.5830307e-06
6.5706888e-06
6.5747355e-06
6.5828127e-06
6.5757374e-06
6.5757717e-06
6.578045e-06
6.5778091e-06
6.5788122e-06
6.5803847e-06
6.5809011e-06
6.5789093e-06
6.5726067e-06
6.571084e-06
6.580787e-06
6.5970495e-06
6.6164523e-06
6.6359461e-06
6.6614376e-06
6.6870047e-06
6.7003712e-06
6.6906341e-06
6.6594489e-06
6.6429173e-06
6.6292091e-06
6.6056302e-06
6.5719316e-06
6.5422755e-06
6.5224468e-06
6.5111705e-06
6.5033456e-06
6.4956726e-06
6.4910191e-06
6.4907773e-06
6.492033e-06
6.4935273e-06
6.4980582e-06
6.503888e-06
6.5095846e-06
6.5150248e-06
6.5218098e-06
6.5285318e-06
6.5327034e-06
6.5352322e-06
6.5316737e-06
6.5135116e-06
6.4564308e-06
6.3780989e-06
6.3748723e-06
6.4513793e-06
6.6153226e-06
6.7003417e-06
6.7222573e-06
6.7164305e-06
6.7178994e-06
6.7446724e-06
6.7839386e-06
6.829379e-06
6.8782498e-06
6.9305665e-06
6.9890457e-06
7.0551412e-06
7.1268087e-06
7.2028495e-06
7.2860907e-06
7.3809793e-06
7.491105e-06
7.6140012e-06
7.7483744e-06
7.8965649e-06
8.0617725e-06
8.2470815e-06
8.4538356e-06
8.6812319e-06
8.9298555e-06
9.2043717e-06
9.5109346e-06
9.8582115e-06
1.0256721e-05
1.0717502e-05
1.1253741e-05
1.1871996e-05
1.256029e-05
1.3275415e-05
1.3989846e-05
1.4710452e-05
1.545447e-05
1.6215093e-05
1.6940544e-05
1.757458e-05
1.8621361e-05
3.3078554e-05
0.00011112957
0.00021800289
0.00030185885
0.00036362804
0.0004094595
0.00044272224
0.00046549763
0.00047931806
0.00048545669
0.00048500659
0.00047902874
0.00046830355
0.00045321879
0.00043457293
0.00041336473
0.00039030942
0.00036598194
0.0003408493
0.00031531681
0.00028972296
0.00026435573
0.00023944972
0.0002151972
0.00019179026
0.00016936937
0.00014801226
0.00012778323
0.00010869048
9.0760279e-05
7.4056388e-05
5.8659349e-05
4.4666362e-05
3.2220745e-05
2.1522137e-05
1.2812689e-05
6.3476717e-06
2.3262957e-06
5.3757847e-07
6.4643331e-08
3.6660114e-09
1.2306871e-09
2.1618368e-05
6.5907607e-06
6.575612e-06
6.5963297e-06
6.585771e-06
6.5911525e-06
6.5899715e-06
6.5914556e-06
6.5951739e-06
6.6019285e-06
6.6052026e-06
6.5915693e-06
6.5697353e-06
6.5584093e-06
6.5674941e-06
6.5895771e-06
6.5831765e-06
6.5707248e-06
6.5746495e-06
6.5828193e-06
6.5757706e-06
6.5757687e-06
6.5780555e-06
6.5778247e-06
6.5788193e-06
6.580392e-06
6.5809457e-06
6.5790101e-06
6.5727038e-06
6.5711035e-06
6.5807536e-06
6.596954e-06
6.6163936e-06
6.6359405e-06
6.6614152e-06
6.6870725e-06
6.7005901e-06
6.6911615e-06
6.6599975e-06
6.6434027e-06
6.6297109e-06
6.6062979e-06
6.572692e-06
6.5429503e-06
6.5227733e-06
6.5115812e-06
6.5038558e-06
6.4963465e-06
6.4915601e-06
6.4912356e-06
6.4925896e-06
6.4941216e-06
6.498691e-06
6.5045305e-06
6.5102365e-06
6.5156935e-06
6.5224632e-06
6.529299e-06
6.5336037e-06
6.5363859e-06
6.5334342e-06
6.5166586e-06
6.462446e-06
6.3828668e-06
6.3769886e-06
6.4453033e-06
6.6051766e-06
6.6994908e-06
6.7244998e-06
6.721507e-06
6.7212948e-06
6.7463878e-06
6.7853353e-06
6.8312078e-06
6.880869e-06
6.9336908e-06
6.9925925e-06
7.0593339e-06
7.1318461e-06
7.2088149e-06
7.2928875e-06
7.3891412e-06
7.4996188e-06
7.6226931e-06
7.7574883e-06
7.906148e-06
8.0714865e-06
8.2575187e-06
8.466027e-06
8.6954925e-06
8.9457485e-06
9.2212901e-06
9.5279966e-06
9.8735951e-06
1.0269715e-05
1.0730802e-05
1.126876e-05
1.1892003e-05
1.2593857e-05
1.3335672e-05
1.4087344e-05
1.4840527e-05
1.5615848e-05
1.641488e-05
1.7189574e-05
1.7905716e-05
1.9999374e-05
4.2282639e-05
0.00013269315
0.0002395571
0.00031868983
0.00037628172
0.00041843781
0.00044834695
0.0004679639
0.00047882017
0.00048214321
0.00047897115
0.00047037551
0.00045730901
0.00044054534
0.0004208002
0.00039875307
0.00037499537
0.00035005704
0.00032441036
0.00029847131
0.00027260581
0.00024712194
0.0002222806
0.000198296
0.00017532755
0.00015350401
0.00013291605
0.00011362706
9.5721204e-05
7.926556e-05
6.4266839e-05
5.072264e-05
3.8631735e-05
2.7971606e-05
1.8765996e-05
1.1148917e-05
5.4136538e-06
1.902408e-06
4.1905333e-07
4.8683105e-08
2.5509609e-09
6.9792905e-10
2.1699082e-05
6.5906229e-06
6.5755784e-06
6.5963395e-06
6.5857762e-06
6.5911436e-06
6.5899709e-06
6.591443e-06
6.5951481e-06
6.6019124e-06
6.6052964e-06
6.591749e-06
6.5698805e-06
6.5583914e-06
6.5673139e-06
6.5894515e-06
6.5833279e-06
6.5707623e-06
6.5745646e-06
6.5828266e-06
6.5758061e-06
6.5757669e-06
6.5780592e-06
6.5778164e-06
6.5788111e-06
6.5803872e-06
6.5809898e-06
6.5790899e-06
6.5727858e-06
6.5711249e-06
6.5807271e-06
6.5968973e-06
6.616351e-06
6.6358861e-06
6.6613311e-06
6.6871094e-06
6.7008276e-06
6.6917213e-06
6.6606385e-06
6.6439672e-06
6.6302946e-06
6.6070696e-06
6.5736172e-06
6.5436938e-06
6.5243998e-06
6.5122172e-06
6.5044258e-06
6.4970561e-06
6.4921939e-06
6.4917286e-06
6.4931768e-06
6.4947571e-06
6.4993559e-06
6.5052144e-06
6.5109392e-06
6.5164054e-06
6.5231314e-06
6.5300499e-06
6.5345229e-06
6.5375458e-06
6.5352557e-06
6.5199787e-06
6.4688583e-06
6.3884271e-06
6.3790991e-06
6.4387879e-06
6.5930474e-06
6.6975204e-06
6.7257025e-06
6.7266635e-06
6.7251026e-06
6.747809e-06
6.7861396e-06
6.8322223e-06
6.8823851e-06
6.9355385e-06
6.9946274e-06
7.0617372e-06
7.1348647e-06
7.2124695e-06
7.2968399e-06
7.3930764e-06
7.5033992e-06
7.6261949e-06
7.76085e-06
7.9092769e-06
8.0739994e-06
8.2594132e-06
8.4677207e-06
8.6972356e-06
8.9471149e-06
9.2212765e-06
9.5254051e-06
9.8662291e-06
1.0253725e-05
1.0699452e-05
1.1219641e-05
1.1829128e-05
1.2533661e-05
1.3313078e-05
1.4086462e-05
1.4861113e-05
1.5654918e-05
1.6480609e-05
1.7301129e-05
1.8067434e-05
1.9949232e-05
4.0922415e-05
0.0001321084
0.00024000753
0.00031884148
0.00037587874
0.00041718902
0.00044633493
0.00046520106
0.00047542742
0.00047821674
0.00047476131
0.00046594696
0.00045274138
0.00043589128
0.00041610015
0.0003940954
0.00037043761
0.0003456467
0.0003201842
0.00029445686
0.00026882383
0.00024359498
0.00021904229
0.00019538877
0.00017276122
0.00015127667
0.00013102682
0.00011206342
9.4410981e-05
7.8084198e-05
6.3127429e-05
4.9581935e-05
3.7479882e-05
2.6856805e-05
1.778301e-05
1.0406479e-05
4.9804831e-06
1.7321584e-06
3.8006423e-07
4.4220329e-08
2.3953044e-09
7.2768818e-10
2.1741217e-05
6.5904584e-06
6.5756029e-06
6.5963387e-06
6.5857778e-06
6.5911332e-06
6.5899715e-06
6.5914301e-06
6.5951218e-06
6.6018979e-06
6.6053928e-06
6.5919331e-06
6.5700275e-06
6.5583766e-06
6.5671317e-06
6.5893216e-06
6.5834827e-06
6.570801e-06
6.5744832e-06
6.5828333e-06
6.5758434e-06
6.5757669e-06
6.5780671e-06
6.5778233e-06
6.5788153e-06
6.5804081e-06
6.5810471e-06
6.5791857e-06
6.5728648e-06
6.5711438e-06
6.5806827e-06
6.5967995e-06
6.616279e-06
6.635847e-06
6.6612799e-06
6.6871022e-06
6.7010491e-06
6.6922977e-06
6.6612452e-06
6.644482e-06
6.6308351e-06
6.6078032e-06
6.5744633e-06
6.5444751e-06
6.5252872e-06
6.512885e-06
6.5048305e-06
6.4976555e-06
6.4928479e-06
6.4921998e-06
6.4937098e-06
6.4953567e-06
6.4999691e-06
6.5058554e-06
6.511627e-06
6.5171069e-06
6.5237627e-06
6.5307142e-06
6.5353739e-06
6.5386359e-06
6.5369616e-06
6.52307e-06
6.4749726e-06
6.3942702e-06
6.3812874e-06
6.4332573e-06
6.5805501e-06
6.6948419e-06
6.7264515e-06
6.7314732e-06
6.7289883e-06
6.7494198e-06
6.7868149e-06
6.832994e-06
6.8835981e-06
6.9371661e-06
6.996485e-06
7.0639909e-06
7.1378255e-06
7.2161784e-06
7.3009855e-06
7.3973362e-06
7.5075154e-06
7.6300592e-06
7.7645472e-06
7.9126872e-06
8.0767531e-06
8.2615395e-06
8.4695622e-06
8.6989913e-06
8.9487188e-06
9.2215008e-06
9.5229551e-06
9.8590325e-06
1.0238739e-05
1.0674647e-05
1.118208e-05
1.177814e-05
1.2470688e-05
1.3251462e-05
1.4067212e-05
1.4865448e-05
1.5680135e-05
1.6527844e-05
1.7385476e-05
1.8201288e-05
1.9892977e-05
3.7760477e-05
0.00012249182
0.00023187947
0.00031144154
0.00036882267
0.00041058987
0.00044017902
0.00045940811
0.00047007366
0.00047333225
0.00047027899
0.00046187125
0.00044889082
0.0004323096
0.00041293652
0.00039139095
0.0003681987
0.00034386824
0.00031884313
0.00029351677
0.00026823641
0.00024329669
0.00021895252
0.00019541704
0.0001728622
0.00015143322
0.00013123506
0.00011233842
9.4782467e-05
7.8582109e-05
6.3734251e-05
5.0229902e-05
3.8073371e-05
2.7324049e-05
1.8088719e-05
1.0557225e-05
5.0225549e-06
1.7321114e-06
3.7707241e-07
4.3642781e-08
2.3162667e-09
6.6296839e-10
2.1796482e-05
6.5902911e-06
6.5756398e-06
6.5963275e-06
6.5857706e-06
6.5911216e-06
6.5899728e-06
6.5914161e-06
6.5950937e-06
6.6018822e-06
6.6054928e-06
6.5921258e-06
6.5701825e-06
6.5583612e-06
6.5669417e-06
6.5891842e-06
6.5836458e-06
6.5708414e-06
6.5744003e-06
6.582839e-06
6.5758836e-06
6.5757674e-06
6.5780749e-06
6.5778291e-06
6.5788181e-06
6.5804279e-06
6.5811046e-06
6.5792797e-06
6.5729466e-06
6.5711624e-06
6.5806293e-06
6.5966977e-06
6.6161991e-06
6.6357909e-06
6.6612183e-06
6.6871026e-06
6.7012863e-06
6.692892e-06
6.6618635e-06
6.6450078e-06
6.6313819e-06
6.6085402e-06
6.5753255e-06
6.5452736e-06
6.52592e-06
6.5132654e-06
6.5052054e-06
6.4982436e-06
6.493556e-06
6.4927371e-06
6.4942581e-06
6.4959926e-06
6.5006156e-06
6.5065314e-06
6.5123602e-06
6.517851e-06
6.5244199e-06
6.5313743e-06
6.5362409e-06
6.5397156e-06
6.5386388e-06
6.5260842e-06
6.4810122e-06
6.4006219e-06
6.3835279e-06
6.4284077e-06
6.5677974e-06
6.6912501e-06
6.7268744e-06
6.7361121e-06
6.7333965e-06
6.7510907e-06
6.7874493e-06
6.8336439e-06
6.8845962e-06
6.9385162e-06
6.9980149e-06
7.0658572e-06
7.1403947e-06
7.219512e-06
7.3047555e-06
7.4011848e-06
7.5111713e-06
7.633456e-06
7.7677071e-06
7.9154456e-06
8.0787435e-06
8.2626422e-06
8.469974e-06
8.6988758e-06
8.9483561e-06
9.2199719e-06
9.5189211e-06
9.850561e-06
1.0222908e-05
1.0647962e-05
1.1141281e-05
1.1721184e-05
1.2400304e-05
1.3170932e-05
1.4011467e-05
1.4846209e-05
1.56823e-05
1.6549681e-05
1.7439822e-05
1.830811e-05
1.9839431e-05
3.4816562e-05
0.00011427137
0.00022481898
0.00030536677
0.00036308031
0.00040482001
0.00043418613
0.00045372468
0.00046441039
0.00046769705
0.00046472427
0.00045650366
0.00044391468
0.00042773568
0.0004086741
0.00038735425
0.00036447911
0.00034049131
0.00031580917
0.00029082223
0.00026588431
0.00024128707
0.00021727897
0.00019406311
0.00017180096
0.00015062083
0.00013060695
0.00011181714
9.4294126e-05
7.8074213e-05
6.3188804e-05
4.967935e-05
3.7583203e-05
2.6935135e-05
1.7812989e-05
1.0383825e-05
4.9310404e-06
1.6962516e-06
3.6841506e-07
4.258179e-08
2.2543576e-09
6.4078573e-10
2.1849207e-05
6.5901298e-06
6.5756495e-06
6.5963037e-06
6.5857607e-06
6.5911086e-06
6.5899733e-06
6.5914016e-06
6.5950648e-06
6.6018671e-06
6.6055946e-06
6.5923225e-06
6.5703403e-06
6.5583416e-06
6.5667495e-06
6.5890412e-06
6.5838125e-06
6.5708827e-06
6.5743195e-06
6.5828461e-06
6.5759261e-06
6.5757692e-06
6.5780822e-06
6.5778357e-06
6.5788216e-06
6.5804498e-06
6.581164e-06
6.5793754e-06
6.5730308e-06
6.5711783e-06
6.5805684e-06
6.5965894e-06
6.6161154e-06
6.6357462e-06
6.6611513e-06
6.6870846e-06
6.7015297e-06
6.6934774e-06
6.6624895e-06
6.6455317e-06
6.6319346e-06
6.6092995e-06
6.5762108e-06
6.5460829e-06
6.526602e-06
6.5134567e-06
6.5056226e-06
6.4988201e-06
6.4942696e-06
6.4933525e-06
6.4948196e-06
6.4966423e-06
6.50127e-06
6.5072138e-06
6.5131088e-06
6.5186161e-06
6.5250786e-06
6.5320283e-06
6.5370917e-06
6.54078e-06
6.5402659e-06
6.5289787e-06
6.4869146e-06
6.4073708e-06
6.3858539e-06
6.4242981e-06
6.5550127e-06
6.6864771e-06
6.7269095e-06
6.7404202e-06
6.7381215e-06
6.752857e-06
6.7881223e-06
6.8341928e-06
6.8854037e-06
6.9396391e-06
6.9992788e-06
7.067397e-06
7.1426136e-06
7.2225151e-06
7.3082528e-06
7.4047828e-06
7.5145902e-06
7.6366627e-06
7.7706415e-06
7.9178853e-06
8.0803892e-06
8.2633018e-06
8.4696594e-06
8.6976719e-06
8.9466248e-06
9.2171699e-06
9.5136495e-06
9.8412194e-06
1.0206596e-05
1.0621445e-05
1.1101405e-05
1.1664602e-05
1.2324896e-05
1.3082897e-05
1.3919202e-05
1.48045e-05
1.5664956e-05
1.6549561e-05
1.7461121e-05
1.8368361e-05
1.9761187e-05
3.1618782e-05
0.00010275372
0.00021379482
0.00029643315
0.00035520085
0.00039761413
0.00042752885
0.00044719901
0.00045827803
0.00046205464
0.00045954104
0.00045178107
0.0004396371
0.00042392038
0.00040534556
0.00038452298
0.00036197422
0.00033828265
0.00031393952
0.0002893099
0.00026469903
0.00024038995
0.00021662723
0.00019361273
0.00017150634
0.00015044373
0.00013052793
0.00011182912
9.4392548e-05
7.8247336e-05
6.3413877e-05
4.9907218e-05
3.7765368e-05
2.704792e-05
1.7855677e-05
1.0378875e-05
4.9093676e-06
1.681345e-06
3.6386021e-07
4.1967308e-08
2.2089913e-09
6.1699451e-10
2.1904685e-05
6.5899763e-06
6.5756393e-06
6.5962825e-06
6.5857267e-06
6.5910938e-06
6.5899734e-06
6.5913861e-06
6.5950341e-06
6.6018503e-06
6.6056993e-06
6.5925288e-06
6.5705076e-06
6.5583247e-06
6.5665491e-06
6.5888879e-06
6.5839877e-06
6.5709268e-06
6.574236e-06
6.5828512e-06
6.5759716e-06
6.5757714e-06
6.5780886e-06
6.5778437e-06
6.5788256e-06
6.5804723e-06
6.5812236e-06
6.5794717e-06
6.5731166e-06
6.5711963e-06
6.5805035e-06
6.5964798e-06
6.6160299e-06
6.6356843e-06
6.6610788e-06
6.6870628e-06
6.7017773e-06
6.6940835e-06
6.6631255e-06
6.6460674e-06
6.632493e-06
6.6100566e-06
6.5771055e-06
6.5469049e-06
6.5272877e-06
6.5138277e-06
6.5062287e-06
6.4994277e-06
6.4949578e-06
6.4940438e-06
6.495402e-06
6.4972974e-06
6.5019434e-06
6.5079152e-06
6.5138766e-06
6.5194046e-06
6.5257604e-06
6.5326746e-06
6.5379481e-06
6.5418366e-06
6.5418506e-06
6.5317725e-06
6.4926885e-06
6.4144983e-06
6.3883429e-06
6.4208904e-06
6.5423618e-06
6.6803235e-06
6.7267342e-06
6.7441909e-06
6.7431024e-06
6.7549852e-06
6.7889509e-06
6.8346936e-06
6.8860607e-06
6.9405635e-06
7.0003054e-06
7.0686265e-06
7.1444585e-06
7.2251407e-06
7.3114184e-06
7.408064e-06
7.5177053e-06
7.639618e-06
7.7733359e-06
7.9200384e-06
8.0817142e-06
8.2634855e-06
8.4685449e-06
8.6953452e-06
8.9434569e-06
9.2132157e-06
9.5074979e-06
9.8312199e-06
1.0190032e-05
1.0595018e-05
1.1062237e-05
1.1609015e-05
1.2248238e-05
1.2985991e-05
1.3815266e-05
1.4714365e-05
1.5632916e-05
1.6533699e-05
1.7464157e-05
1.8403235e-05
1.970706e-05
2.9000702e-05
9.1612875e-05
0.00020213326
0.00028709279
0.00034699704
0.00039005504
0.0004204198
0.00044049574
0.00045192477
0.00045600657
0.00045393596
0.00044655826
0.00043477184
0.00041941948
0.00040121635
0.00038079933
0.00035873079
0.00033550228
0.00031154394
0.00028727313
0.00026300381
0.00023901193
0.00021553455
0.00019276831
0.00017087044
0.0001499762
0.00013019131
0.00011158876
9.421885e-05
7.8118494e-05
6.3317384e-05
4.9847159e-05
3.7742938e-05
2.7052661e-05
1.7872316e-05
1.0393133e-05
4.9153101e-06
1.6819907e-06
3.636262e-07
4.1904573e-08
2.1952328e-09
6.0375027e-10
2.1961657e-05
6.5898271e-06
6.5756315e-06
6.5962369e-06
6.5856899e-06
6.5910777e-06
6.5899745e-06
6.5913701e-06
6.5950026e-06
6.6018337e-06
6.6058055e-06
6.5927389e-06
6.5706779e-06
6.5583106e-06
6.5663467e-06
6.588728e-06
6.5841662e-06
6.570972e-06
6.5741543e-06
6.582853e-06
6.5760189e-06
6.5757749e-06
6.5780947e-06
6.5778521e-06
6.5788294e-06
6.5804946e-06
6.5812825e-06
6.5795687e-06
6.5732041e-06
6.5712109e-06
6.5804313e-06
6.5963644e-06
6.6159388e-06
6.635634e-06
6.6610008e-06
6.6870246e-06
6.7020284e-06
6.6946748e-06
6.6637694e-06
6.6466057e-06
6.6330566e-06
6.6108361e-06
6.5780285e-06
6.5477405e-06
6.5279713e-06
6.5154281e-06
6.5068825e-06
6.5000112e-06
6.4955972e-06
6.4947906e-06
6.4960215e-06
6.4979468e-06
6.5026206e-06
6.5086192e-06
6.5146362e-06
6.5201986e-06
6.526455e-06
6.5333363e-06
6.5388048e-06
6.5428672e-06
6.5433973e-06
6.5344616e-06
6.4983091e-06
6.4219585e-06
6.391086e-06
6.4181726e-06
6.5301489e-06
6.6727686e-06
6.7263461e-06
6.7474501e-06
6.7482162e-06
6.7576602e-06
6.7900226e-06
6.8351767e-06
6.886602e-06
6.9413309e-06
7.0011421e-06
7.0695811e-06
7.1459214e-06
7.2273495e-06
7.3142101e-06
7.4110056e-06
7.5205295e-06
7.6423502e-06
7.7758453e-06
7.9219925e-06
8.0828584e-06
8.2634354e-06
8.4669487e-06
8.6922298e-06
8.9390786e-06
9.2079824e-06
9.5003284e-06
9.8204058e-06
1.0173265e-05
1.0569132e-05
1.1024434e-05
1.1555384e-05
1.2173045e-05
1.2885848e-05
1.3700497e-05
1.4603272e-05
1.5564351e-05
1.6501418e-05
1.7445873e-05
1.8404786e-05
1.9632054e-05
2.6735529e-05
7.9919442e-05
0.00018839716
0.00027639588
0.0003378764
0.0003818736
0.00041289638
0.00043351631
0.00044545727
0.00045004891
0.00044840949
0.00044153719
0.00043022702
0.00041535334
0.00039760449
0.00037761904
0.00035596889
0.00033315345
0.00030959804
0.00028566838
0.00026172794
0.00023803055
0.00021480868
0.00019226292
0.00017055177
0.00014981139
0.00013014804
0.0001116349
9.4323723e-05
7.8254304e-05
6.3458737e-05
4.9970992e-05
3.7835548e-05
2.71092e-05
1.7897486e-05
1.0396165e-05
4.9090136e-06
1.676762e-06
3.6193037e-07
4.1668621e-08
2.1757757e-09
5.922058e-10
2.2020317e-05
6.5896692e-06
6.5756168e-06
6.5961881e-06
6.5856828e-06
6.5910639e-06
6.5899754e-06
6.5913532e-06
6.5949693e-06
6.6018149e-06
6.6059138e-06
6.592959e-06
6.5708592e-06
6.5582981e-06
6.5661359e-06
6.5885567e-06
6.5843537e-06
6.5710205e-06
6.5740693e-06
6.5828568e-06
6.5760693e-06
6.575778e-06
6.5781003e-06
6.5778618e-06
6.5788333e-06
6.5805162e-06
6.5813404e-06
6.5796648e-06
6.5732924e-06
6.5712271e-06
6.5803572e-06
6.5962489e-06
6.6158467e-06
6.6355675e-06
6.6609165e-06
6.6869856e-06
6.7022776e-06
6.6952842e-06
6.6644321e-06
6.6471593e-06
6.6336285e-06
6.6116121e-06
6.5789574e-06
6.5485901e-06
6.5286772e-06
6.5163268e-06
6.507292e-06
6.5005086e-06
6.4962046e-06
6.4955469e-06
6.4966828e-06
6.4985802e-06
6.5033046e-06
6.5093308e-06
6.5153919e-06
6.5209967e-06
6.5271783e-06
6.5340186e-06
6.5396754e-06
6.5439046e-06
6.5449105e-06
6.537062e-06
6.5037734e-06
6.4297041e-06
6.3941057e-06
6.4161231e-06
6.5185136e-06
6.6638578e-06
6.725638e-06
6.7500363e-06
6.7533332e-06
6.7608711e-06
6.7913478e-06
6.835661e-06
6.8870489e-06
6.9419661e-06
7.0018234e-06
7.0702907e-06
7.1470081e-06
7.2291239e-06
7.3165911e-06
7.4135616e-06
7.5230118e-06
7.6447958e-06
7.7781462e-06
7.923792e-06
8.0838635e-06
8.2631694e-06
8.4649283e-06
8.6884516e-06
8.9337952e-06
9.201824e-06
9.4926836e-06
9.8091412e-06
1.0156379e-05
1.0543827e-05
1.0987994e-05
1.1503808e-05
1.2100303e-05
1.2786607e-05
1.3578394e-05
1.4479927e-05
1.5457383e-05
1.6459013e-05
1.7415663e-05
1.8390048e-05
1.9562882e-05
2.4974398e-05
6.8985815e-05
0.00017368955
0.00026489613
0.00032818715
0.00037326649
0.00040503792
0.00042626038
0.00043873681
0.00044382999
0.00044267889
0.00043628843
0.00042562528
0.0004112765
0.00039398663
0.00037442197
0.00035316212
0.00033070456
0.00030748357
0.000283882
0.00026024328
0.00023682509
0.00021384857
0.00019152189
0.00017000168
0.00014941881
0.00012987927
0.0001114608
9.4220722e-05
7.820302e-05
6.3443345e-05
4.997913e-05
3.7856853e-05
2.7134778e-05
1.7919704e-05
1.0411083e-05
4.9162e-06
1.6788559e-06
3.6225877e-07
4.16924e-08
2.1718456e-09
5.8639252e-10
2.2080737e-05
6.5895099e-06
6.5756444e-06
6.5961718e-06
6.5857352e-06
6.591055e-06
6.5899754e-06
6.5913358e-06
6.594935e-06
6.6017961e-06
6.6060246e-06
6.593183e-06
6.5710445e-06
6.5582835e-06
6.5659228e-06
6.5883783e-06
6.5845446e-06
6.5710699e-06
6.5739851e-06
6.5828615e-06
6.5761216e-06
6.5757812e-06
6.5781041e-06
6.5778716e-06
6.5788367e-06
6.5805372e-06
6.5813974e-06
6.5797615e-06
6.573382e-06
6.5712393e-06
6.5802781e-06
6.5961286e-06
6.6157473e-06
6.635512e-06
6.6608287e-06
6.6869332e-06
6.7025263e-06
6.6958781e-06
6.665106e-06
6.6477184e-06
6.6342033e-06
6.6124063e-06
6.5799133e-06
6.5494555e-06
6.5293842e-06
6.5169678e-06
6.5075021e-06
6.5009212e-06
6.4967987e-06
6.4962765e-06
6.4973949e-06
6.4992034e-06
6.5039771e-06
6.5100301e-06
6.5161155e-06
6.5217794e-06
6.5279089e-06
6.5347291e-06
6.5405601e-06
6.5449357e-06
6.5463946e-06
6.539574e-06
6.5090569e-06
6.4376892e-06
6.397294e-06
6.4147275e-06
6.5076074e-06
6.6536907e-06
6.7245293e-06
6.7518964e-06
6.7583524e-06
6.7646093e-06
6.7928799e-06
6.8361658e-06
6.8874303e-06
6.9424948e-06
7.0023808e-06
7.0707872e-06
7.1477318e-06
7.2304456e-06
7.3185143e-06
7.4156863e-06
7.5251179e-06
7.6469193e-06
7.7802093e-06
7.9254414e-06
8.0847933e-06
8.262845e-06
8.4627238e-06
8.6842307e-06
8.9277883e-06
9.1946464e-06
9.4842968e-06
9.797572e-06
1.0139548e-05
1.0519482e-05
1.0953317e-05
1.1454684e-05
1.2030956e-05
1.2691207e-05
1.3456111e-05
1.4344427e-05
1.5334148e-05
1.6369019e-05
1.7373615e-05
1.8358187e-05
1.9484332e-05
2.3562113e-05
5.8693314e-05
0.00015780446
0.00025238074
0.00031786974
0.00036427325
0.00039694617
0.00041887227
0.00043195324
0.00043759377
0.00043695152
0.00043103749
0.00042075467
0.0004069175
0.00039012489
0.00037104248
0.00035025596
0.0003282599
0.00030548092
0.00028228423
0.00025896395
0.00023582809
0.00021313471
0.00019104706
0.00016972057
0.00014929055
0.00012986918
0.00011153773
9.4358067e-05
7.8376677e-05
6.3629886e-05
5.0158341e-05
3.801152e-05
2.7257184e-05
1.8007968e-05
1.0467146e-05
4.945006e-06
1.6893182e-06
3.6456652e-07
4.1953602e-08
2.1800009e-09
5.8343879e-10
2.2142969e-05
6.5893442e-06
6.5756826e-06
6.5961738e-06
6.5858178e-06
6.5910486e-06
6.5899766e-06
6.5913177e-06
6.594899e-06
6.6017746e-06
6.6061367e-06
6.5934171e-06
6.5712417e-06
6.5582711e-06
6.5657012e-06
6.5881868e-06
6.5847441e-06
6.5711237e-06
6.5738971e-06
6.5828604e-06
6.5761775e-06
6.5757841e-06
6.5781059e-06
6.5778814e-06
6.5788393e-06
6.5805574e-06
6.5814536e-06
6.5798575e-06
6.5734725e-06
6.5712522e-06
6.5801996e-06
6.5960069e-06
6.6156477e-06
6.6354408e-06
6.6607326e-06
6.6868832e-06
6.7027702e-06
6.696488e-06
6.6658045e-06
6.6482933e-06
6.6347885e-06
6.6131951e-06
6.580871e-06
6.5503305e-06
6.5301088e-06
6.5176647e-06
6.5079019e-06
6.5014011e-06
6.4974094e-06
6.4969578e-06
6.4981477e-06
6.4998277e-06
6.504642e-06
6.5107189e-06
6.5168238e-06
6.5225447e-06
6.5286586e-06
6.5354636e-06
6.5414616e-06
6.5459751e-06
6.5478565e-06
6.5420073e-06
6.5141678e-06
6.4458361e-06
6.4006373e-06
6.4139916e-06
6.4975279e-06
6.642386e-06
6.7229e-06
6.753086e-06
6.7631951e-06
6.7688571e-06
6.7945325e-06
6.8367218e-06
6.8877622e-06
6.9429252e-06
7.002829e-06
7.0710924e-06
7.1481153e-06
7.2313188e-06
7.3199515e-06
7.4173306e-06
7.5267749e-06
7.6486325e-06
7.7819625e-06
7.9269095e-06
8.0856244e-06
8.2624463e-06
8.4603957e-06
8.6797312e-06
8.9214077e-06
9.1869935e-06
9.475521e-06
9.7860296e-06
1.0122775e-05
1.0495958e-05
1.0920261e-05
1.140789e-05
1.1965072e-05
1.2600619e-05
1.3337699e-05
1.4204125e-05
1.519664e-05
1.6253384e-05
1.7320115e-05
1.8317492e-05
1.9416266e-05
2.2543682e-05
4.9781009e-05
0.00014138474
0.00023898393
0.00030697524
0.00035488115
0.00038857073
0.00041128829
0.00042504814
0.00043129616
0.00043119993
0.00042577244
0.00041593043
0.00040251762
0.00038629798
0.00036774462
0.00034738432
0.00032575043
0.00030330884
0.00028044455
0.00025747234
0.00023465892
0.00021223403
0.00019039902
0.00016929533
0.00014905724
0.00012979663
0.00011158689
9.4484719e-05
7.8541167e-05
6.3805168e-05
5.0325869e-05
3.8159996e-05
2.7378401e-05
1.8097653e-05
1.0525029e-05
4.9751087e-06
1.7003511e-06
3.6701816e-07
4.2232717e-08
2.1894346e-09
5.8114947e-10
2.220703e-05
6.5891743e-06
6.5756877e-06
6.5961794e-06
6.5858813e-06
6.5910416e-06
6.5899782e-06
6.5912989e-06
6.5948621e-06
6.6017529e-06
6.6062518e-06
6.5936556e-06
6.5714431e-06
6.5582584e-06
6.5654777e-06
6.5879883e-06
6.5849477e-06
6.5711789e-06
6.5738101e-06
6.5828557e-06
6.5762347e-06
6.5757877e-06
6.5781053e-06
6.5778895e-06
6.5788414e-06
6.5805775e-06
6.5815095e-06
6.5799535e-06
6.5735642e-06
6.5712614e-06
6.5801167e-06
6.5958803e-06
6.6155387e-06
6.6353799e-06
6.6606333e-06
6.6868211e-06
6.7030121e-06
6.6970831e-06
6.6665119e-06
6.6488746e-06
6.6353744e-06
6.6139988e-06
6.5818561e-06
6.551226e-06
6.5308328e-06
6.5183421e-06
6.5095128e-06
6.5020523e-06
6.4980044e-06
6.4975954e-06
6.4989247e-06
6.5004784e-06
6.5052902e-06
6.5113751e-06
6.5175011e-06
6.5232817e-06
6.5293964e-06
6.5362182e-06
6.542375e-06
6.5470076e-06
6.549294e-06
6.5443696e-06
6.5190866e-06
6.4540659e-06
6.4043327e-06
6.413947e-06
6.4883428e-06
6.6301313e-06
6.7206361e-06
6.75388e-06
6.7678226e-06
6.773571e-06
6.7964213e-06
6.8374101e-06
6.8880775e-06
6.9432659e-06
7.0031753e-06
7.0712282e-06
7.1481902e-06
7.2317618e-06
7.320891e-06
7.4184736e-06
7.5279443e-06
7.6498876e-06
7.7833375e-06
7.9281243e-06
8.08633e-06
8.2620222e-06
8.4580436e-06
8.6750419e-06
8.9146695e-06
9.1788377e-06
9.4662344e-06
9.7746125e-06
1.010663e-05
1.0473669e-05
1.0889236e-05
1.1363877e-05
1.1903082e-05
1.2515681e-05
1.3225494e-05
1.4064768e-05
1.5044233e-05
1.6118576e-05
1.7212788e-05
1.8269557e-05
1.934788e-05
2.1791223e-05
4.2172215e-05
0.00012454228
0.00022455373
0.00029547904
0.0003451255
0.00037996964
0.00040356045
0.00041805202
0.00042495151
0.00042545105
0.0004205706
0.00041122075
0.00039822353
0.00038232513
0.00036421735
0.00034434617
0.00032319205
0.00030117546
0.00027867138
0.00025602107
0.0002334989
0.00021133395
0.00018972647
0.00016882681
0.00014875436
0.0001296159
0.00011149921
9.44705e-05
7.8583938e-05
6.38869e-05
5.0429094e-05
3.8269043e-05
2.7479981e-05
1.8181553e-05
1.0584831e-05
5.0091961e-06
1.7138532e-06
3.7018485e-07
4.2605203e-08
2.2048613e-09
5.8140166e-10
2.2273013e-05
6.5890059e-06
6.5756736e-06
6.596185e-06
6.5859168e-06
6.5910307e-06
6.5899784e-06
6.5912796e-06
6.5948235e-06
6.6017286e-06
6.6063676e-06
6.5939046e-06
6.5716574e-06
6.5582503e-06
6.5652454e-06
6.587775e-06
6.5851594e-06
6.5712389e-06
6.5737188e-06
6.5828538e-06
6.5762953e-06
6.5757908e-06
6.578102e-06
6.577897e-06
6.5788431e-06
6.5805969e-06
6.5815661e-06
6.5800491e-06
6.573657e-06
6.5712719e-06
6.580034e-06
6.5957509e-06
6.6154304e-06
6.6353045e-06
6.6605228e-06
6.6867619e-06
6.7032506e-06
6.6976935e-06
6.66725e-06
6.6494719e-06
6.6359725e-06
6.6147979e-06
6.5828395e-06
6.5521269e-06
6.5315754e-06
6.5190167e-06
6.5104379e-06
6.5028027e-06
6.4985336e-06
6.498216e-06
6.4996978e-06
6.5011749e-06
6.5059262e-06
6.5119974e-06
6.5181639e-06
6.5240044e-06
6.5301309e-06
6.5369824e-06
6.5432966e-06
6.5480509e-06
6.5507097e-06
6.5466605e-06
6.5238149e-06
6.4623245e-06
6.4084544e-06
6.4146117e-06
6.4800931e-06
6.6171293e-06
6.7175402e-06
6.7543394e-06
6.7721753e-06
6.7786382e-06
6.7989019e-06
6.8383319e-06
6.8883923e-06
6.9435139e-06
7.0034192e-06
7.0712134e-06
7.1479975e-06
7.2318117e-06
7.3213481e-06
7.419103e-06
7.5285701e-06
7.6506031e-06
7.7842465e-06
7.9290033e-06
8.0868311e-06
8.26152e-06
8.4556832e-06
8.6703099e-06
8.9078712e-06
9.170638e-06
9.4567683e-06
9.7630913e-06
1.0091233e-05
1.0452355e-05
1.0859954e-05
1.1322547e-05
1.1844841e-05
1.2436239e-05
1.3120184e-05
1.3930363e-05
1.4886391e-05
1.5964271e-05
1.7088207e-05
1.8207594e-05
1.9290875e-05
2.1260902e-05
3.6131037e-05
0.0001079658
0.00020917418
0.00028339108
0.00033498636
0.00037112297
0.0003956857
0.00041098398
0.00041859018
0.00041971977
0.00041539894
0.00040654031
0.00039396996
0.00037843956
0.00036063397
0.00034117243
0.00032043309
0.00029881502
0.00027669466
0.00025439572
0.0002321884
0.0002103025
0.00018892546
0.00016822216
0.00014832509
0.00012934089
0.00011135199
9.4423067e-05
7.8609065e-05
6.3959524e-05
5.0527283e-05
3.837463e-05
2.757886e-05
1.8263646e-05
1.0643917e-05
5.0433923e-06
1.7276367e-06
3.7346298e-07
4.2994189e-08
2.2217894e-09
5.8262588e-10
2.2340928e-05
6.5888347e-06
6.5756582e-06
6.5961905e-06
6.5859386e-06
6.5910151e-06
6.5899791e-06
6.5912596e-06
6.5947838e-06
6.6017035e-06
6.606486e-06
6.5941587e-06
6.5718763e-06
6.5582406e-06
6.5650116e-06
6.5875539e-06
6.5853761e-06
6.5713001e-06
6.5736287e-06
6.5828499e-06
6.5763578e-06
6.5757944e-06
6.5780965e-06
6.5779037e-06
6.5788444e-06
6.580617e-06
6.581623e-06
6.580145e-06
6.573752e-06
6.5712808e-06
6.5799459e-06
6.595616e-06
6.6153118e-06
6.6352387e-06
6.6604097e-06
6.6866919e-06
6.7034886e-06
6.6982959e-06
6.6679983e-06
6.6500756e-06
6.6365674e-06
6.6156082e-06
6.5838472e-06
6.5530484e-06
6.5323216e-06
6.5197044e-06
6.5111113e-06
6.5032609e-06
6.4989798e-06
6.4988309e-06
6.5004427e-06
6.5019355e-06
6.5065609e-06
6.5125703e-06
6.5187928e-06
6.5247062e-06
6.5308424e-06
6.5377384e-06
6.544218e-06
6.5490818e-06
6.552107e-06
6.548882e-06
6.5283374e-06
6.4705467e-06
6.4130208e-06
6.4159102e-06
6.4728151e-06
6.6036309e-06
6.7133791e-06
6.7542307e-06
6.7760682e-06
6.7838996e-06
6.8019546e-06
6.8395723e-06
6.8887418e-06
6.9436872e-06
7.0035714e-06
7.0710771e-06
7.1475896e-06
7.2315241e-06
7.3213721e-06
7.4192607e-06
7.5286681e-06
7.6507676e-06
7.7846353e-06
7.9294633e-06
8.0870616e-06
8.2609129e-06
8.4532943e-06
8.6654937e-06
8.9009002e-06
9.1622402e-06
9.4471674e-06
9.7516927e-06
1.0077085e-05
1.0432601e-05
1.0832778e-05
1.128432e-05
1.1790741e-05
1.2362433e-05
1.3021987e-05
1.3802188e-05
1.4726606e-05
1.578871e-05
1.6935521e-05
1.8086336e-05
1.9218125e-05
2.0878536e-05
3.1445251e-05
9.1988096e-05
0.0001928022
0.00027068668
0.00032446968
0.0003620424
0.00038766236
0.00040382351
0.00041218266
0.00041399023
0.00041028467
0.00040198082
0.00038990299
0.00037479651
0.00035733109
0.00033810583
0.00031766764
0.00029638547
0.00027459817
0.00025261522
0.00023070457
0.00020909535
0.00018797685
0.00016749895
0.00014780615
0.00012899234
0.00011114526
9.4329746e-05
7.8601791e-05
6.4012709e-05
5.0617712e-05
3.8482019e-05
2.7686226e-05
1.8357504e-05
1.0714517e-05
5.085839e-06
1.7452785e-06
3.7774717e-07
4.3509005e-08
2.2457641e-09
5.8608727e-10
2.2410826e-05
6.5886475e-06
6.5756542e-06
6.5961956e-06
6.5859609e-06
6.5909972e-06
6.5899795e-06