/*--------------------------------*- C++ -*----------------------------------*\
| =========                 |                                                 |
| \\      /  F ield         | OpenFOAM: The Open Source CFD Toolbox           |
|  \\    /   O peration     | Version:  2506                                  |
|   \\  /    A nd           | Website:  www.openfoam.com                      |
|    \\/     M anipulation  |                                                 |
\*---------------------------------------------------------------------------*/
FoamFile
{
    version     2.0;
    format      ascii;
    arch        "LSB;label=32;scalar=64";
    class       volScalarField;
    location    "0.00031";
    object      Ma;
}
// * * * * * * * * * * * * * * * * * * * * * * * * * * * * * * * * * * * * * //

dimensions      [0 0 0 0 0 0 0];

internalField   nonuniform List<scalar> 
3452
(
2.2451033
2.1586525
2.2810308
2.2960066
2.3142836
2.2282039
2.3689636
2.3779323
2.3896219
2.4025787
2.4207499
2.4429387
2.3565527
2.4375261
2.4469714
2.4555849
2.4663236
2.4759053
2.4851295
2.4946455
2.5051014
2.5165189
2.5306991
2.5489054
2.5748723
2.4887016
2.4394025
2.4179996
2.3984126
2.3903618
2.4066651
2.4264075
2.4382693
2.4517899
2.4676557
2.4743706
2.4817731
2.4902068
2.5020076
2.5113991
2.5214319
2.5308628
2.5415406
2.5527168
2.568054
2.5870539
2.6160097
2.5368204
2.4299385
2.4075477
2.3853031
2.3742183
2.405344
2.4268671
2.4403295
2.4800904
2.4811065
2.4750965
2.4703619
2.4804828
2.498921
2.5135584
2.5303816
2.5471579
2.5632644
2.5804709
2.5993588
2.6200139
2.6450229
2.5594286
2.4544801
2.4319748
2.4136421
2.4079698
2.4206681
2.4355375
2.4580758
2.5099448
2.5057204
2.4800688
2.4660371
2.4774123
2.5001266
2.5206163
2.5489552
2.5759847
2.5980267
2.6240828
2.6500197
2.6785248
2.7092642
2.6307581
2.5293929
2.5089973
2.4824788
2.459287
2.4418583
2.4568781
2.4807639
2.5051155
2.5645042
2.561313
2.5334892
2.5124606
2.5264654
2.5520161
2.5792805
2.6137758
2.6467797
2.6728182
2.7050178
2.7365525
2.7720524
2.8099673
2.7402905
2.5548218
2.5268218
2.4951632
2.4631759
2.4411657
2.4657745
2.4917653
2.5174466
2.5835865
2.5800925
2.5517557
2.5265645
2.5413944
2.5688877
2.5991813
2.6367821
2.6726482
2.7008415
2.7355869
2.7700062
2.8080336
2.8475384
2.7794676
2.5443125
2.5281791
2.5001113
2.4607928
2.4243509
2.3891489
2.4312413
2.465705
2.4944345
2.5658748
2.565305
2.5406273
2.5121485
2.5287804
2.5582514
2.5905822
2.6290748
2.6673335
2.6961815
2.7324829
2.767289
2.8057673
2.8432113
2.7731656
2.5285409
2.510434
2.4775562
2.4368107
2.3964717
2.3605065
2.4005463
2.4446849
2.4751741
2.556016
2.5593599
2.5324965
2.4977071
2.5137248
2.5438531
2.5787685
2.6213621
2.6649343
2.6991414
2.7427213
2.7875003
2.8387939
2.8892378
2.8298241
2.5301557
2.5265656
2.4981315
2.4581219
2.4195257
2.365411
2.4212558
2.4640173
2.4946321
2.5648524
2.5726854
2.5546569
2.5093224
2.5210054
2.5479915
2.5766162
2.6190839
2.6615448
2.702589
2.7512972
2.811967
2.8809004
2.9533828
2.9024866
2.4342736
2.4540361
2.4604592
2.4659509
2.4319708
2.4220433
2.3899682
2.4319741
2.4319778
2.4531412
2.511107
2.507779
2.4876471
2.4249823
2.4209046
2.4405279
2.4548655
2.4861232
2.517375
2.5431137
2.5754249
2.6141608
2.6534857
2.6918592
2.6050424
2.1375283
2.1883824
2.2368098
2.2661557
2.2912423
2.3089726
2.3302556
2.3790504
2.2932803
2.2378766
2.2503983
2.2305039
2.2498748
2.2407907
2.2380408
2.2509531
2.2699679
2.2829351
2.2936685
2.3034999
2.313563
2.3220296
2.3302236
2.3359541
2.3363311
2.2051321
1.8153737
1.8330376
1.8600137
1.8781952
1.8957089
1.9110069
1.9373396
2.0850311
2.0197394
2.0226777
2.0024057
2.0141868
2.0355479
2.0282837
2.3622599
2.3994998
2.3322677
2.34309
2.3344849
2.3389584
2.3407648
2.3499872
2.3555838
2.367096
2.3713228
2.249914
1.6768214
1.6730793
1.6852564
1.7006574
1.7144417
1.7238997
1.720475
1.7153391
1.848742
1.7894329
1.7777892
1.7403969
1.7349087
1.7470157
1.7301358
1.7056204
1.5915218
1.5813845
1.611371
1.6077196
1.6180397
1.6232986
1.6367204
1.6414109
1.6538283
1.6566756
1.5906755
1.4512497
1.462828
1.4702646
1.4833009
1.4732171
1.4556474
1.4258369
1.3964294
1.4176971
1.242632
1.2843541
1.2930954
1.3275367
1.3344041
1.3803946
1.3904633
1.3879251
1.3803897
1.3825758
1.3830404
1.3855748
1.3885751
1.3923418
1.3947994
1.398176
1.3973347
1.3461034
1.2312429
1.2403167
1.2600588
1.2759368
1.2792568
1.2545637
1.2166427
1.1581008
1.1744222
1.0689531
1.1376387
1.1582262
1.1791053
1.1888308
1.2467255
1.2698929
1.2633072
1.2493894
1.2448783
1.2397477
1.2304917
1.2253486
1.2218192
1.2181168
1.2148504
1.212317
1.1544829
2.0364497
2.0868895
2.1380125
2.1859817
2.2327126
2.2613163
2.2782305
2.2793954
2.2840651
2.3514305
2.1760351
2.1684098
2.1598891
2.1505119
2.1474204
2.1459368
2.137637
2.1286898
2.1217988
2.120474
2.1131531
2.1094011
2.1033143
2.100612
2.0956826
2.0905938
2.0864391
1.9964674
2.3381194
2.3765488
2.4035493
2.4370243
2.4625402
2.477367
2.4700464
2.4473439
2.4300606
2.4923291
2.4716745
2.4578788
2.4857449
2.5539245
2.5362636
2.494549
2.3961513
2.3848123
2.3969027
2.4128288
2.4506695
2.4860056
2.5044735
2.5296387
2.5534279
2.5727441
2.5818654
2.48356
2.6833447
2.7044543
2.724268
2.7477988
2.762065
2.7668171
2.7649626
2.7232876
2.7095056
2.7012723
2.7326663
2.7496151
2.7848196
2.8675967
2.862315
2.8196448
2.7645308
2.7454174
2.7541766
2.7756449
2.8139654
2.8588699
2.8837633
2.9197642
2.9528934
2.9852195
3.0024014
2.8944782
2.7996373
2.8153563
2.8233058
2.8339819
2.8624453
2.8737763
2.8811034
2.8687856
2.826285
2.8143135
2.7950647
2.7941351
2.8215088
2.8542613
2.9451389
2.9519951
2.9305389
2.878946
2.8530479
2.8636307
2.879096
2.9037671
2.9555697
2.9878799
3.0302316
3.0726124
3.1210514
3.1492995
3.0428251
2.9302386
2.9444237
2.9597102
2.9760668
3.0232628
3.0414743
3.0590247
3.0666215
3.0398889
3.0531081
3.0163565
3.0280789
3.0354378
3.059006
3.1306884
3.1302268
3.1140476
3.0772886
3.0317508
3.0138509
3.0191185
3.037078
3.0777194
3.1082911
3.1503879
3.1868783
3.2348573
3.2576016
3.133098
2.9824719
3.0201868
3.0427812
3.059485
3.0625948
3.0623982
3.0542388
3.0397304
3.0148813
2.9818836
2.9469631
2.8583076
2.8879638
2.9272489
2.9374384
2.9527777
2.9781381
3.0191036
3.0290277
3.0351606
3.0395282
3.0472104
3.0484147
3.0546814
3.0599838
3.0675513
3.0701961
3.0758299
3.0768618
2.9292826
3.0532668
3.0701843
3.0746997
3.0753198
3.0681008
3.0540599
3.0301225
3.0023188
2.9688955
2.9230368
2.8728762
2.8074511
2.8433322
2.8822377
2.9048483
2.9241717
2.9427446
2.9641848
2.9778073
2.9884637
2.9991074
3.009304
3.0190417
3.0285486
3.0324938
3.0362324
3.0366567
3.0352714
3.0331162
2.9202709
3.0359993
3.0523286
3.0606362
3.0511688
3.0335783
3.0077621
2.9809496
2.9524197
2.9265826
2.8901511
2.8608751
2.8173568
2.7855207
2.8062881
2.8390752
2.8613553
2.8836069
2.909357
2.9408144
2.9569656
2.9689737
2.9823693
2.9912331
3.0015717
3.0104618
3.0128191
3.0172024
3.0177791
3.0207242
3.0186136
2.9070937
2.99626
3.0024632
2.9941383
2.9729471
2.9569198
2.9360261
2.9181955
2.9023999
2.8838003
2.8593099
2.8239953
2.7872931
2.7564557
2.739306
2.7809708
2.7944763
2.8171518
2.8594435
2.9040957
2.9238109
2.937966
2.9544366
2.9632391
2.9759178
2.9892294
2.9916534
2.9971989
3.0040677
3.0091449
3.0095972
2.90315
2.8673243
2.8961464
2.9106124
2.911833
2.9168962
2.9131473
2.9063469
2.899346
2.8907376
2.8804675
2.8610556
2.82726
2.8011545
2.7859671
2.7680993
2.7762649
2.7692016
2.7852786
2.828114
2.888505
2.8988918
2.8999334
2.9119482
2.9226196
2.93141
2.9411468
2.9535729
2.9634147
2.971257
2.9773083
2.976808
2.861526
2.7029865
2.7663949
2.8172661
2.8664518
2.8870954
2.9095869
2.9168773
2.919929
2.9181535
2.9157481
2.9054046
2.882808
2.8482278
2.8125873
2.7797125
2.8184101
2.8063813
2.7956083
2.8078002
2.8499774
2.8823883
2.8904832
2.9026867
2.9190935
2.9363985
2.9476996
2.9641565
2.9778598
2.991243
3.0036007
3.0116368
3.0109063
2.9034128
2.7119931
2.6506298
2.7018931
2.7908853
2.8373201
2.8639082
2.8806809
2.8863748
2.8826232
2.8700913
2.8526367
2.8267084
2.7964496
2.7622584
2.7428705
2.7333672
2.7967342
2.8115703
2.8120017
2.7923654
2.8738167
2.937714
2.9372727
2.9149717
2.9304662
2.9453835
2.9535732
2.9676292
2.983645
2.9980253
3.0140635
3.0264052
3.0268325
2.924298
2.3907033
2.3938776
2.4883007
2.5761082
2.6389211
2.6823734
2.704528
2.7220833
2.7250121
2.7223769
2.7169962
2.7048688
2.6882874
2.6518901
2.6332823
2.626126
2.6600031
2.6783378
2.6509112
2.5800786
2.6703055
2.7576064
2.7631454
2.7568746
2.7763339
2.7987154
2.8151534
2.8345567
2.8575574
2.8787321
2.8982328
2.9161034
2.9185389
2.8370626
1.4656476
1.3881353
1.2409219
1.1287469
1.0288659
0.66009953
0.55130719
0.58793163
0.62291285
0.67531914
0.72787513
0.78942126
0.82806222
0.85490761
0.85886098
0.84772129
0.77346571
0.65932288
0.62660701
0.66949756
0.82767568
0.89192446
0.79606948
0.5838447
0.75158826
1.0346774
1.0155611
0.88168361
0.90046641
0.94447198
0.96595045
0.99793645
1.0448603
1.0677129
1.0983917
1.116551
1.1315538
1.0883157
1.2669533
1.2599314
1.2579402
1.2509562
1.2333429
1.2384504
1.1840983
1.1539807
1.133501
1.1400292
1.1326613
1.1283043
1.1289482
1.1268658
1.1216672
1.1072344
1.0821216
1.0500945
1.0388505
0.99200234
1.0548281
0.96253282
0.32092283
0.049231114
0.25521169
0.56936563
0.60845621
0.57737176
0.55794349
0.55383763
0.54210179
0.51639145
0.52495466
0.50967827
0.5231426
0.51492615
0.52885555
0.49299663
1.2221533
1.2013309
1.2015341
1.1896089
1.1719899
1.1751884
1.1778611
1.1645046
1.1416029
1.1275701
1.0967857
1.060686
1.0260248
1.0013209
0.97088011
0.93317411
0.89690504
0.853321
0.84742697
0.84735789
0.87070586
0.91519521
0.90289532
0.89272029
0.89811615
0.91826131
0.9244927
0.92657512
0.93639333
0.93546149
0.93618312
0.93682735
0.93949124
0.93879618
0.93984496
0.93776645
0.93542466
0.88404966
1.2254568
1.2271004
1.1977006
1.1607653
1.1727589
1.2010392
1.2034951
1.185206
1.1863637
1.2359625
1.2821355
1.2821217
1.2735565
1.2737053
1.2492927
1.2175126
0.99343011
0.93428317
0.87711876
0.83471865
0.81693185
0.82291703
0.80908796
0.73309343
0.68107863
0.60703759
0.52271801
0.48521404
0.332195
0.44833186
0.53026675
0.57997434
0.61983543
0.6548164
0.67676453
0.69544209
0.70676987
0.71872454
0.72243184
0.6972719
1.2134047
1.2493483
1.2833752
1.2303236
1.1917579
1.1753
1.2206666
1.2716064
1.2839126
1.2499757
1.2508022
1.305993
1.3470397
1.3199839
1.3017662
1.295774
1.248438
1.245007
1.2791729
1.2920282
1.2891907
1.3035192
1.091866
1.085804
1.1271632
1.1215348
1.0393256
1.0095374
0.96357087
0.92227133
0.77957548
0.86068829
0.92775362
0.98333056
1.0158807
1.0452433
1.0636047
1.0823501
1.0897345
1.1019145
1.1017356
1.0671093
1.3015167
1.3597363
1.3596455
1.2805354
1.2530934
1.2748456
1.3619081
1.3775345
1.3189869
1.2829121
1.3165979
1.4387112
1.4965623
1.4761087
1.4386215
1.4615824
1.4182273
1.4319575
1.4331563
1.4276215
1.4072728
1.40506
1.4208406
1.4709809
1.4631168
1.3496462
1.1845171
1.1382906
1.1192294
1.0699941
1.0437092
1.1106543
1.1747984
1.2227119
1.2524088
1.2794662
1.2989817
1.3149607
1.3244364
1.3328578
1.3325409
1.2883783
1.2950205
1.2848527
1.3363007
1.3856007
1.3292489
1.2456204
1.2357786
1.3185019
1.3742642
1.3645733
1.2812727
1.2959344
1.381068
1.4969173
1.528182
1.4635127
1.4715631
1.4756594
1.4784066
1.5053291
1.483691
1.4663875
1.427952
1.4303418
1.4640218
1.5109573
1.4974119
1.4651862
1.426936
1.4172641
1.3968508
1.3798271
1.3385498
1.3366298
1.361383
1.4043274
1.4269341
1.4436909
1.4569042
1.4713785
1.4776695
1.4827966
1.4800616
1.4238115
1.2221257
1.2283185
1.2823276
1.2879435
1.181127
1.110902
1.1255867
1.2184355
1.2398287
1.2067076
1.1320448
1.1648794
1.2385182
1.2865288
1.2442208
1.2438908
1.2912819
1.3180816
1.3557409
1.3641332
1.3548932
1.3221603
1.3225955
1.342385
1.4004236
1.4030856
1.3898185
1.3836619
1.3630325
1.3604571
1.3747203
1.3734015
1.3609136
1.3287413
1.3207986
1.3049717
1.3056899
1.2963267
1.2891153
1.2812612
1.2772834
1.2701239
1.2642499
1.2052246
1.087821
1.102181
1.1369622
1.0885519
0.98211067
0.94051507
0.97243373
1.0711531
1.0803254
1.0378624
1.0263954
1.0518624
1.0684902
0.99440997
0.86638813
0.92987055
1.0533335
1.1390256
1.1807881
1.1767297
1.1458298
1.1609002
1.1998721
1.2713024
1.2567133
1.1842107
1.19147
1.2211421
1.2703216
1.2883833
1.3301014
1.3465478
1.3265304
1.2909222
1.2172899
1.1364706
1.0582689
1.0227366
1.0187673
1.0295757
1.0425708
1.0549797
1.0614639
1.0132512
0.92620213
0.93696999
0.9515911
0.87864167
0.75311639
0.70527373
0.75128304
0.86528201
0.89092248
0.87752352
0.88744427
0.88670205
0.82930799
0.69259364
0.50350014
0.54974175
0.72669572
0.81011571
0.86772336
0.89042088
0.89993013
0.91729345
0.94644713
1.0011913
1.0321848
1.0181089
0.98373291
0.93859814
0.93546263
0.93013173
0.90598464
0.83919453
0.73488622
0.54446237
0.54873507
0.58990575
0.67581632
0.73146114
0.75012123
0.77538107
0.7962002
0.81515433
0.82211139
0.79755626
0.94758589
0.95188694
0.93408484
0.90914681
0.87424656
0.86699176
0.87800501
0.87249466
0.78481191
0.65602537
0.62868873
0.80633381
0.90089261
0.94485255
0.95507422
0.98709251
0.98187277
0.88102513
0.54182009
0.17537203
0.54338713
0.80939041
0.91316144
0.93447548
0.9453772
0.96052854
0.99852027
1.0495983
1.1400236
1.1365593
1.1011896
1.0295705
1.0292207
1.0242075
1.0101439
0.98699524
0.97271688
0.93116604
0.83006779
0.66258265
0.39607101
0.41885001
0.49821336
0.56057902
0.57113904
0.5943089
0.6281255
0.64803349
0.62785287
0.91397719
0.8022336
0.83074919
0.88389512
0.87970858
0.87722839
0.8632731
0.8344633
0.84195493
0.87288908
0.87779068
0.79757239
0.7236499
0.79818748
0.96145959
1.0770461
1.130389
1.1586637
1.2175297
1.2122595
1.1660175
0.91756269
0.61816997
0.71265869
1.0739975
1.2107388
1.2369328
1.2365887
1.2414892
1.2701949
1.2816916
1.2593624
1.1874814
1.1749064
1.2043557
1.2642081
1.3244712
1.3500906
1.362672
1.3944319
1.3970111
1.389285
1.3680373
1.320561
1.2232893
1.0503052
0.81558166
0.66215972
0.63255457
0.61817956
0.61929187
0.59437703
0.85968496
0.83327082
0.78197307
0.88544274
0.92038688
0.93711197
0.92981186
0.89898854
0.89685447
0.93032067
0.919665
0.81179223
0.7516138
0.78457014
0.95032616
1.0411501
1.070502
1.068588
1.0968253
1.0905309
1.0668848
0.9100572
0.58131723
0.78473353
1.1521712
1.3611021
1.4049714
1.4178197
1.4201597
1.4388161
1.4536668
1.4399468
1.403498
1.3691218
1.3842775
1.4186873
1.4908897
1.5245223
1.5369951
1.5400749
1.5287003
1.5068585
1.4477035
1.3333678
1.1769071
0.92913495
0.74880794
0.64863415
0.63978662
0.59168762
0.5983485
0.55188279
0.77575243
0.77754421
0.78925735
0.81262277
0.73740781
0.83092817
0.88797134
0.89217528
0.8853254
0.87026818
0.81675086
0.69073924
0.59507382
0.62687783
0.82480797
0.92727479
0.96125353
0.97533385
1.0152474
1.039834
1.019872
0.87670594
0.62193364
0.48051921
0.77961759
0.96010568
1.009516
1.0552918
1.066602
1.0907532
1.1574847
1.1891534
1.182859
1.1486404
1.1034608
1.1190393
1.1636284
1.1764491
1.1763345
1.1621705
1.0906907
0.69395489
2.4683192
2.36251
2.2863845
2.3955418
2.4446057
2.4634762
2.4896533
2.5095762
2.5437596
2.5068852
0.97189413
0.94789123
0.81359906
0.7569398
0.74847003
0.81989283
0.83201838
0.82401642
0.79264883
0.7081225
0.72347803
0.88450551
0.92474351
0.84564843
0.80389237
0.85678583
0.97604875
1.0411429
1.0671093
1.1013253
1.157137
1.1732801
1.1540232
1.0071723
1.0266074
1.0693566
1.1762912
1.3207147
1.3972946
1.4344921
1.4289229
1.4510657
1.4991759
1.4949612
1.4672443
1.4450566
1.4331556
1.4435344
1.4650087
1.4518383
1.3878459
0.5579159
2.7988194
2.7441212
2.6249963
2.532268
2.3834017
2.497746
2.5704489
2.5991263
2.6380851
2.6633624
2.7069051
2.6494666
1.7886819
1.7510811
1.7068907
1.4309742
1.1227456
0.93932669
0.91797799
0.9048597
0.89293018
0.87607748
0.84324678
0.84534677
0.86637003
0.87366137
0.81576886
0.7961891
0.87915072
1.0592389
1.157995
1.2112544
1.2771282
1.3469083
1.3818442
1.3308017
1.2424814
1.1349115
1.1695994
1.2666437
1.3576436
1.4323486
1.444185
1.4410531
1.4352298
1.4950515
1.4842479
1.4485083
1.394741
1.3808563
1.3889243
1.3561952
1.2947234
2.8150683
2.822806
2.751749
2.7274159
2.6672175
2.7547526
2.7171131
2.7316049
2.7425913
2.7556537
2.793607
2.8319617
2.8628715
2.7891883
2.1022893
2.0751518
2.1352358
2.066325
1.9694539
1.8410185
1.7892629
1.7366936
1.6252347
1.4144697
1.1648167
0.99638966
0.90030799
0.83186449
0.72990079
0.68244339
0.69453979
0.84313033
0.89925449
0.92324559
0.95481041
0.98896322
0.95946073
0.79549381
0.62058828
0.76482388
0.85670418
0.89971908
0.96834766
1.067045
1.1292079
1.1534388
1.1735995
1.2305799
1.2559131
1.2455295
1.2077852
1.1816577
1.2007671
1.1936183
1.1568186
0.97098086
1.6306105
1.5998863
1.481791
1.6398989
1.4986947
1.5001327
1.4999126
1.4996589
1.51125
1.5218588
1.5223898
1.519898
1.4690848
2.7855382
2.481273
2.1641185
2.1512901
2.203806
2.177351
2.1317379
2.1217393
2.1401425
2.1342492
2.1281016
2.0791131
2.0143215
1.932208
1.7968054
1.5335276
1.2216459
0.9585928
0.85704367
0.91026617
0.94305049
0.95489232
0.98600907
1.0015874
0.96152762
0.76362158
0.54788121
0.69966125
0.82420986
0.83597725
0.89287182
0.99747296
1.0777796
1.110201
1.1434348
1.2121278
1.232605
1.2149985
1.1778256
1.1394947
1.1517439
1.1466718
1.1238427
1.0822592
1.0034751
0.64873209
0.82725119
0.57841747
0.61179442
0.68081268
0.77529068
0.8094165
0.84117694
0.88270703
0.91295168
0.93147381
0.91460514
2.7627559
2.7792414
2.4586924
2.1554517
2.1439816
2.1916983
2.2014362
2.1641956
2.1600866
2.1739669
2.164851
2.1706488
2.1497159
2.1439601
2.1559898
2.1782508
2.1307578
1.9740103
1.7891944
1.6341216
1.4963965
1.3313806
1.1938906
1.1058064
1.0200188
0.87112999
0.55225133
0.30631292
0.51045767
0.67299252
0.6899179
0.73573384
0.913836
1.0821632
1.1284798
1.1899829
1.2656481
1.3157594
1.3072972
1.2743148
0.24402371
1.6476817
1.6878612
1.7097196
1.7180276
1.706568
1.6530265
1.547413
1.4239963
1.3682021
1.263618
1.3039937
1.3159433
1.3363025
1.3724369
1.413134
1.4436475
1.4188569
2.6912987
2.7264401
2.4344207
2.1455488
2.1242516
2.1572471
2.1625882
2.1210321
2.1356024
2.1642314
2.1557027
2.1713523
2.1515934
2.1497681
2.1663029
2.1904498
2.1498936
2.0356155
1.9552604
1.9255134
1.9699998
1.9327923
1.9135405
1.8849436
1.8313281
1.7430341
1.5390924
1.2708
1.3253458
1.5864097
1.6432612
1.7170038
1.884605
1.9834399
1.3578516
1.470005
1.566866
1.5974501
1.6227649
1.6171997
1.6135061
1.6477454
1.6530032
1.6558149
1.6341171
1.5944443
1.5287652
1.4367167
1.2991902
1.145122
1.0410466
1.0720165
1.1313516
1.1426529
1.1712266
1.1929589
1.228677
1.1987458
2.1017365
2.6353923
2.7505709
2.4748512
2.1725638
2.143644
2.1360426
2.1238473
2.0914904
2.0903923
2.1198043
2.1107865
2.1249731
2.1151969
2.1036537
2.1100604
2.1201248
2.066703
1.9577868
1.8995437
1.9052246
1.98393
1.941116
1.9083674
1.8639488
1.7898548
1.6730047
1.44132
1.0934254
1.2329077
1.4550087
1.0447984
0.74384235
0.89798306
1.0681328
1.1585454
1.197271
1.2293981
1.2578447
1.27074
1.2565135
1.2280198
1.224618
1.256877
1.2848255
1.294555
1.2893341
1.2487382
1.1738299
1.0422546
0.83864044
0.66867701
0.5907185
0.67556162
0.69227909
0.69551071
0.69694321
0.70791529
0.6796083
1.6637108
2.0351535
2.6215094
2.794493
2.4831903
2.1556636
2.115193
2.0854476
2.0815376
2.0646614
2.0589781
2.0817906
2.0573058
2.0703821
2.0672875
2.0437808
2.0399088
2.027627
1.9855304
1.8837859
1.8284402
1.8387361
1.9157406
1.9126918
1.8889284
1.8846363
1.8900821
1.8332326
1.6065799
1.0558393
1.3392499
1.4430379
1.8783961
2.0465292
2.2262421
2.3883711
2.460315
2.4657697
2.469396
2.4656283
2.4568421
2.4320753
2.4255073
2.4198242
2.4355583
2.4248285
2.4060675
2.3680739
2.3181356
2.2526353
2.1640089
2.0419483
1.9220173
1.9021874
1.8248041
1.8517117
1.8478764
1.847996
1.8490798
1.7345187
1.6178788
1.958164
2.5462067
2.6977964
2.3809441
2.0652651
2.0062545
1.982054
1.9894199
1.9659874
1.9635476
1.9935953
1.9721742
1.9774052
1.9969487
1.9803074
1.9607554
1.9543726
1.9438433
1.845133
1.7946709
1.804132
1.8621572
1.830167
1.8022397
1.839332
1.9041109
1.8838746
1.6299154
1.3014048
1.5554522
1.8027697
2.3752483
2.5480981
2.6125767
2.6260959
2.610514
2.5473214
2.5356174
2.5310578
2.5314625
2.5443187
2.5581485
2.5688011
2.5672575
2.5638054
2.5422675
2.5335114
2.5212673
2.5163308
2.4979235
2.4661098
2.3952054
2.2874611
2.2098375
2.1565492
2.0518567
2.0111104
2.0233248
1.2610868
1.6914459
1.5592929
1.83174
2.3578922
2.4897663
2.2398396
1.967895
1.9066124
1.881059
1.8776255
1.8364343
1.8384783
1.8506765
1.8418066
1.8557623
1.8738586
1.8601302
1.844351
1.8586562
1.8750932
1.802351
1.7737801
1.8050935
1.7613659
1.7379993
1.7346166
1.8211921
1.8813399
1.7921514
1.4567009
1.3170502
1.596293
1.9577218
2.3435562
2.5414204
2.5915646
2.5954428
2.5213495
2.3711939
2.3237679
2.3030487
2.2921716
2.2892068
2.2857973
2.2841075
2.2765952
2.2607555
2.2528114
2.2475799
2.2478881
2.2509772
2.2510678
2.2424806
2.2136818
2.1529861
2.0668142
2.0026596
2.0071903
2.0105372
1.9562312
1.5408843
1.8451274
1.6410969
1.5016208
1.7220253
2.1685674
2.2595925
2.0950722
1.8711496
1.8258749
1.7874255
1.7819899
1.726812
1.7262845
1.728957
1.717524
1.7412527
1.7590133
1.7241213
1.7083699
1.7316218
1.7703086
1.7452679
1.7300494
1.7586853
1.7407065
1.6906998
1.7165078
1.8227775
1.8764453
1.7116564
1.3473024
1.3313133
1.5482882
1.9643696
2.1798752
2.2769998
2.335854
2.3927115
2.3740638
2.2344804
2.1227765
2.1088042
2.1100101
2.1203456
2.1234406
2.1283463
2.1243787
2.1103855
2.0993307
2.0849873
2.0752557
2.0625144
2.0526939
2.0233293
1.9765543
1.9003704
1.8488859
1.8353066
1.8527418
1.8433898
1.9555068
1.698854
1.7989149
1.6083109
1.4692506
1.6772661
2.0836219
2.1109376
1.8869229
1.734686
1.7099135
1.6783596
1.6708188
1.6096996
1.6003719
1.6074874
1.5968954
1.6264786
1.6584466
1.6355794
1.6203571
1.626551
1.6651875
1.6602443
1.6571332
1.676224
1.663719
1.6333655
1.6889992
1.7777308
1.8158395
1.650351
1.3479485
1.2916101
1.5391071
1.8233481
1.9807039
2.0372428
2.0118254
1.9736714
1.9229684
1.8472779
1.7624049
1.7582753
1.7655518
1.7707771
1.7838751
1.7762932
1.798251
1.7898417
1.7896887
1.7651234
1.7603995
1.7444402
1.7453262
1.7267922
1.7198392
1.7114947
1.732949
1.7546102
1.7960715
1.8572772
1.9349109
1.8040745
1.7589755
1.5904586
1.4502393
1.6507906
2.0425888
2.0431656
1.7634489
1.572232
1.5421038
1.5576322
1.5758226
1.5130836
1.4922163
1.5068737
1.5057161
1.5466735
1.5966782
1.5692079
1.543263
1.5431747
1.5796425
1.5788631
1.5794839
1.6071583
1.5993754
1.580567
1.6544677
1.7528602
1.7531004
1.5769671
1.3941055
1.2434012
1.4489379
1.6943835
1.8978258
1.9840405
2.0373313
2.0191083
2.0311605
1.9670302
1.8384929
1.7848849
1.7870526
1.8023824
1.8618869
1.7711834
1.8512227
1.8693087
1.8860122
1.789453
1.7405368
1.7196399
1.7122752
1.6871088
1.7337246
1.760264
1.8137964
1.8734748
1.9619657
2.0531519
2.1625351
2.2025842
1.7041916
1.5492591
1.4165171
1.6239432
2.0338516
2.001643
1.7253714
1.5001393
1.4280129
1.4195225
1.4647922
1.4440638
1.4316859
1.4583952
1.4673274
1.5151633
1.5633025
1.5253076
1.4958504
1.4972495
1.531954
1.5016525
1.4713048
1.4688424
1.4896507
1.519967
1.6333575
1.7562193
1.6093107
1.3966671
1.3129197
1.3123578
1.6864832
1.9742227
2.1544469
2.2030934
2.225169
2.2415897
2.190892
2.1141572
1.944342
1.7780144
1.799013
1.8252317
1.8322853
1.8159157
1.9496959
2.0302797
2.1396116
2.2210108
2.2783491
2.316449
2.352992
2.3800279
2.4044078
2.4207062
2.4397188
2.4543745
2.4710499
2.4775666
2.4734515
2.4148829
1.6441671
1.4820031
1.3611856
1.5843372
2.0241319
2.0004141
1.7045903
1.4751972
1.3859366
1.3442737
1.3746582
1.3643114
1.3882471
1.4236477
1.4339019
1.4950861
1.5235713
1.4794547
1.4385552
1.4550027
1.5005341
1.4744038
1.4246758
1.4012724
1.382475
1.386776
1.4764479
1.5429861
1.4192544
1.2695812
1.1871025
1.3698131
1.6377673
1.8941948
2.0531729
2.1150198
2.1373788
2.1451038
2.1080807
2.0406974
1.8527804
1.6302532
1.5674423
1.6091657
1.6056727
1.5332495
1.5953447
1.6310695
1.7236409
1.8202124
1.8873516
1.9345818
1.9726365
2.0126184
2.0470928
2.0760565
2.1009357
2.124825
2.1460391
2.1632699
2.1666677
2.1216869
1.6051967
1.4274215
1.3019907
1.5170658
1.9507763
1.9811247
1.7149449
1.4594028
1.3755018
1.3179503
1.3279621
1.3050105
1.3342761
1.3735815
1.3770697
1.4106727
1.4340513
1.3944989
1.3546429
1.3726269
1.4378229
1.4286808
1.4030154
1.386727
1.3634351
1.3562251
1.45338
1.4904065
1.399366
1.2782841
1.1944195
1.3437592
1.6132183
1.8162082
1.9233519
1.9734508
1.9850887
1.9429447
1.8781448
1.8154156
1.6595167
1.4598033
1.4432843
1.5771419
1.5537718
1.473538
1.4944882
1.5070981
1.4952832
1.5655131
1.6444694
1.7311541
1.7999347
1.8649464
1.9183363
1.9705139
2.0146614
2.0611874
2.1036497
2.1484681
2.1832463
2.1433819
1.5814935
1.3951754
1.2640929
1.4484837
1.8639386
1.8907795
1.6799539
1.4561267
1.3399561
1.3176339
1.3201299
1.2800505
1.2772874
1.3152537
1.3213197
1.3482723
1.3516287
1.3179976
1.2890635
1.3201076
1.3965451
1.4060284
1.3759892
1.3503244
1.3152713
1.32943
1.4247933
1.5079766
1.4611799
1.3023793
1.1779158
1.4409962
1.766014
1.9160271
1.958655
1.9439791
1.8422199
1.6181486
1.375035
1.1756198
1.1386557
1.1964763
1.368366
1.498243
1.592537
1.7320146
1.8525385
1.932338
1.9660593
1.9887815
2.009464
2.0321139
2.0569775
2.0818086
2.0998175
2.108266
2.1140502
2.1191365
2.1211289
2.1234483
2.123881
2.0787474
1.5596362
1.370062
1.2343781
1.4063781
1.7970867
1.8116951
1.6194256
1.4168855
1.3219566
1.2867945
1.3187197
1.2606809
1.246191
1.232949
1.2559921
1.3062699
1.333348
1.3131174
1.290149
1.3294172
1.4207529
1.4248619
1.3887181
1.3520749
1.3168742
1.3295173
1.4316127
1.5169993
1.4793483
1.3074857
1.1995852
1.4645442
1.7658122
1.9035922
1.9520698
1.9478721
1.8783992
1.7156002
1.5129559
1.3281941
1.2293176
1.1510158
1.2252515
1.4972248
1.6263048
1.787816
1.9156571
1.998979
2.0346961
2.0585776
2.0796691
2.0993426
2.1177485
2.1264899
2.1303922
2.1349698
2.1376631
2.1397087
2.1401025
2.1398035
2.1398025
2.0900812
1.512411
1.3284931
1.1972043
1.3728642
1.7608358
1.7590334
1.57412
1.3772839
1.2740774
1.2666341
1.2901179
1.2513573
1.2359534
1.2126104
1.1851482
1.2084971
1.249014
1.2596182
1.272755
1.3277676
1.4362624
1.441909
1.4106155
1.3781321
1.347899
1.3897835
1.4908291
1.5646382
1.4948576
1.3102445
1.2384362
1.510034
1.7497795
1.8192562
1.8305645
1.8134536
1.748485
1.6116602
1.4484979
1.2985212
1.19188
1.0886709
1.1490509
1.438978
1.5157312
1.633551
1.7686967
1.8699135
1.9341102
1.9658897
1.9936979
2.0131213
2.0361622
2.0535857
2.0675256
2.0769594
2.08831
2.095408
2.1035546
2.1077581
2.1130467
2.0528728
1.4672657
1.2854505
1.1592688
1.3466154
1.740607
1.7481183
1.548642
1.3620491
1.2503861
1.2279722
1.2758462
1.2388339
1.22451
1.2181937
1.1835863
1.1978079
1.2120036
1.1884456
1.1843252
1.2569099
1.3521675
1.3532883
1.3260391
1.3207064
1.3109962
1.3705739
1.4762737
1.5063685
1.4143316
1.2923808
1.3318463
1.6330272
1.892119
1.9593296
1.9229498
1.882412
1.7826317
1.6567854
1.5210463
1.4143267
1.3376014
1.2824026
1.207374
1.2119161
1.3840864
1.5397148
1.6514895
1.7943227
1.9338225
2.0399028
2.1079054
2.1496538
2.1683935
2.1726094
2.1747095
2.1762572
2.1765083
2.1769208
2.1769683
2.1771367
2.1772273
2.1347602
1.2574447
1.1290099
1.3143873
1.7016414
1.7204639
1.5397035
1.3735732
1.2588917
1.2233801
1.2599591
1.2349241
1.2213947
1.2219674
1.2000757
1.2085889
1.2033625
1.1648135
1.1195515
1.136926
1.1936187
1.1890103
1.1620304
1.1563534
1.1585789
1.2026921
1.2292658
1.2584339
1.2751828
1.1870284
1.3641735
1.7338532
2.0402195
2.1318308
2.1606226
2.1683316
2.1226132
2.0180488
1.8315217
1.5843166
1.3195539
1.1737478
1.4335649
1.9420062
2.1614346
2.2603151
2.2574109
2.2476435
2.2363122
2.2083651
2.1868769
2.1800643
2.187862
2.1850204
2.1822112
2.1770075
2.1676374
2.1479362
2.1251848
2.0924941
2.0572733
1.9882446
1.2267545
1.0993988
1.2851866
1.6671947
1.6903121
1.5037569
1.3666494
1.2799955
1.237541
1.2713984
1.2316129
1.2317869
1.2375897
1.2220869
1.2501643
1.2266744
1.1633965
1.1055573
1.1067766
1.1244263
1.1078545
1.0628716
1.0508309
1.0559356
1.0746759
1.099696
1.1393413
1.1273059
1.0375317
1.1825661
1.5273618
1.760111
1.8321837
1.8229345
1.7346957
1.5518033
1.3505092
1.2350303
1.1814452
1.1237585
1.081291
1.1502671
1.4529742
1.6969421
1.8412737
1.9001646
1.9011909
1.8907219
1.8605191
1.8134509
1.8075812
1.8195013
1.8365391
1.8466025
1.8544917
1.8572847
1.8529939
1.8396538
1.8156548
1.7762497
1.7099928
1.0616191
1.2529632
1.6290996
1.6583832
1.4865662
1.3473446
1.2715032
1.2519031
1.2806037
1.2321096
1.2369263
1.24622
1.2436748
1.2751995
1.2796509
1.2051364
1.1370554
1.1210058
1.1165189
1.0887223
1.0265063
0.99426
1.0066165
1.0207315
1.0613049
1.111473
1.0888668
0.99976749
1.1406576
1.4741676
1.6905031
1.764591
1.7566338
1.6783122
1.4840741
1.2293075
1.0238833
0.94251485
0.95928715
0.97881454
0.97822431
1.296372
1.5045619
1.62411
1.6826586
1.6894755
1.6765618
1.6434512
1.6055178
1.610366
1.6276371
1.6435018
1.6531849
1.6591095
1.6619492
1.6554006
1.6457432
1.6211887
1.5927632
1.5311856
1.0248109
1.2250382
1.5991013
1.633158
1.4625142
1.3285608
1.2636117
1.2459494
1.2847448
1.2294437
1.2285448
1.2380803
1.2369741
1.2711481
1.2824676
1.2301893
1.1690839
1.1755371
1.1726967
1.1149967
1.0335338
0.95499359
0.95656682
0.94166962
0.97874641
1.0239878
1.0441466
0.95725584
1.0206306
1.2664796
1.4822138
1.5476486
1.536306
1.4660778
1.3179401
1.1050762
0.97891936
0.93196552
0.9561086
0.96686919
0.88076991
1.1415425
1.4158787
1.5926937
1.671912
1.6605613
1.626653
1.5907709
1.5781144
1.5828969
1.585705
1.5833077
1.585374
1.5795945
1.5811619
1.5742787
1.5724168
1.5532067
1.5326856
1.4621225
1.180308
1.5500466
1.5944908
1.4544788
1.3038111
1.2473434
1.2270798
1.260412
1.1972779
1.1977917
1.1956132
1.1958608
1.2305426
1.2453139
1.2144833
1.1732663
1.1883275
1.2217562
1.1709288
1.0850645
0.96147118
0.93573425
0.89972504
0.93127574
0.9594789
0.94644744
0.86274088
0.91749962
1.1691425
1.3981958
1.4622392
1.414376
1.3224068
1.2104776
1.1138199
1.0270575
0.97041528
0.9910604
0.967073
0.97628303
1.1670913
1.3494956
1.4722705
1.5396533
1.539841
1.5032872
1.4680127
1.4539884
1.4686323
1.4781964
1.4905847
1.4935891
1.4999917
1.4995792
1.501007
1.4956769
1.4808114
1.4559831
1.316984
1.129854
1.4812821
1.5294994
1.4112892
1.2625911
1.2143501
1.1912328
1.2164157
1.1434934
1.138515
1.1357505
1.134482
1.1695564
1.1844339
1.1573938
1.1235829
1.1539989
1.2187992
1.2012372
1.0963959
1.0185281
0.84844671