/*--------------------------------*- C++ -*----------------------------------*\
| =========                 |                                                 |
| \\      /  F ield         | OpenFOAM: The Open Source CFD Toolbox           |
|  \\    /   O peration     | Version:  2506                                  |
|   \\  /    A nd           | Website:  www.openfoam.com                      |
|    \\/     M anipulation  |                                                 |
\*---------------------------------------------------------------------------*/
FoamFile
{
    version     2.0;
    format      ascii;
    arch        "LSB;label=32;scalar=64";
    class       volScalarField;
    location    "0.0175";
    object      T;
}
// * * * * * * * * * * * * * * * * * * * * * * * * * * * * * * * * * * * * * //

dimensions      [0 0 0 1 0 0 0];

internalField   nonuniform List<scalar> 
13761
(
244.36623
244.67416
245.05201
245.33544
245.46481
245.59744
245.5364
245.68884
245.52182
245.69704
245.48565
244.36674
244.67487
245.05298
245.33573
245.46516
245.59745
245.53661
245.68883
245.52182
245.6971
245.48553
244.36693
244.67531
245.05346
245.3362
245.46535
245.59753
245.53671
245.68884
245.52159
245.6973
245.48552
244.43928
244.36697
244.67586
245.05402
245.33651
245.46552
245.5976
245.53685
245.68883
245.52133
245.69755
245.48562
244.4388
244.36707
244.67627
245.05449
245.33686
245.46569
245.59769
245.53694
245.68882
245.52123
245.69775
245.48593
244.43846
244.36708
244.67669
245.05494
245.33715
245.46584
245.59777
245.53706
245.68877
245.52124
245.6978
245.48614
245.13519
244.43795
244.36714
244.67708
245.05535
245.33747
245.466
245.59784
245.53713
245.68875
245.52136
245.69774
245.4862
245.13417
244.43751
244.36719
244.67747
245.0558
245.33775
245.46615
245.5979
245.53723
245.68871
245.52152
245.6977
245.48626
245.13271
244.4369
244.36717
244.67794
245.05624
245.33807
245.4663
245.59798
245.53729
245.6887
245.52171
245.69773
245.48626
246.12878
245.13155
244.43641
244.36733
244.67836
245.05673
245.33836
245.46646
245.59805
245.53738
245.68869
245.52193
245.69777
245.48637
246.12699
245.12993
244.43567
244.3673
244.67889
245.05721
245.3387
245.46662
245.59812
245.53745
245.6887
245.52214
245.69776
245.48619
246.12568
245.12861
244.43517
244.3675
244.67938
245.05773
245.33902
245.46678
245.59818
245.53755
245.68865
245.52239
245.69773
245.48569
246.12357
245.12683
244.43433
244.36748
244.67992
245.05824
245.33936
245.46694
245.59823
245.53764
245.68863
245.52263
245.69768
245.48506
246.12578
246.12212
245.12539
244.43378
244.3677
244.68048
245.05877
245.33968
245.46712
245.59828
245.53777
245.6886
245.52283
245.69765
245.48453
246.12703
246.1201
245.12348
244.43296
244.36773
244.68102
245.05932
245.34004
245.46729
245.59833
245.53789
245.68857
245.52292
245.69756
245.4841
246.12834
246.11875
245.12194
244.43226
244.36792
244.68165
245.05986
245.34038
245.46748
245.59838
245.53802
245.68851
245.52287
245.69748
245.48377
245.24636
246.1297
246.11673
245.11997
244.43153
244.36798
244.68222
245.06044
245.34075
245.46765
245.59843
245.53815
245.6885
245.52264
245.69753
245.48349
245.24801
246.131
246.11536
245.1183
244.43065
244.36819
244.68289
245.06101
245.3411
245.46785
245.59848
245.53828
245.68849
245.52238
245.69766
245.48331
245.24954
246.13222
246.11322
245.11625
244.43
244.36823
244.6835
245.06162
245.34149
245.46803
245.59853
245.5384
245.68848
245.52225
245.69781
245.48319
245.05599
245.2513
246.13344
246.11181
245.11444
244.42896
244.36851
244.68422
245.06222
245.34187
245.46822
245.59858
245.53853
245.68847
245.52221
245.69797
245.48315
245.05629
245.25294
246.13476
246.10963
245.11223
244.42835
244.3685
244.68489
245.06286
245.34226
245.46841
245.59862
245.53866
245.68848
245.52226
245.69806
245.48313
245.05614
245.25477
246.13614
246.10814
245.11032
244.42721
244.36886
244.68564
245.06349
245.34266
245.46861
245.59868
245.53879
245.68846
245.52239
245.69808
245.38818
245.05637
245.25655
246.13751
246.10587
245.108
244.42654
244.36886
244.68635
245.06415
245.34306
245.46881
245.59874
245.53891
245.68848
245.5225
245.69797
245.38689
245.05626
245.2585
246.13888
246.10431
245.10595
244.42537
244.36923
244.68712
245.06479
245.34346
245.46902
245.5988
245.53902
245.68847
245.52257
245.69788
245.18161
245.38528
245.05638
245.26043
246.14028
246.10193
245.10357
244.42462
244.36929
244.68785
245.06547
245.34387
245.46923
245.59887
245.53913
245.68847
245.5226
245.69779
245.18115
245.38402
245.05631
245.26251
246.14178
246.10029
245.10135
244.42344
244.36961
244.68864
245.06613
245.34428
245.46945
245.59894
245.53923
245.68849
245.52272
245.6978
245.18027
245.38246
245.05627
245.26463
246.14331
246.09786
245.09894
244.42262
244.36974
244.6894
245.06683
245.34469
245.46966
245.599
245.53932
245.68845
245.52291
244.95395
245.17984
245.38113
245.05632
245.26681
246.14485
246.09617
245.09664
244.42147
244.37003
244.69021
245.06751
245.34512
245.46988
245.59906
245.53943
245.68842
245.52326
244.95244
245.17892
245.37968
245.05625
245.26902
246.14643
246.09371
245.09413
244.42053
244.37022
244.69101
245.06823
245.34555
245.47009
245.59911
245.53952
245.68835
245.52364
244.94984
245.17854
245.37835
245.05631
245.27125
246.14792
246.09197
245.09179
244.41947
244.37047
244.69185
245.06894
245.34599
245.47031
245.59916
245.53963
245.68831
245.52382
245.18286
244.94833
245.1777
245.37692
245.05626
245.27354
246.14946
246.08949
245.0891
244.41838
244.37074
244.69269
245.06969
245.34644
245.47052
245.5992
245.53972
245.68829
245.52379
245.17958
244.94565
245.17739
245.37569
245.05631
245.27576
246.15092
246.08774
245.08679
244.41741
244.37096
244.69355
245.07042
245.3469
245.47074
245.59925
245.53981
245.68829
245.26086
245.177
244.94403
245.17661
245.37428
245.05631
245.27803
246.15253
246.08516
245.08397
244.41621
244.37129
244.69443
245.07119
245.34736
245.47095
245.5993
245.5399
245.68828
245.258
245.17355
244.94134
245.17637
245.37306
245.05633
245.28033
246.15414
246.08323
245.08172
244.41525
244.3715
244.69533
245.07194
245.34785
245.47116
245.59936
245.54
245.68827
245.2811
245.25479
245.17099
244.93966
245.17561
245.37171
245.05625
245.28271
246.15589
246.0807
245.07899
244.41399
244.37187
244.69624
245.07274
245.34833
245.47137
245.59943
245.54011
245.68828
245.27731
245.25175
245.16741
244.937
245.17544
245.37043
245.05633
245.28513
246.15762
246.07859
245.07658
244.41295
244.37209
244.69717
245.07352
245.34883
245.47159
245.59951
245.54023
245.68831
245.27476
245.24856
245.16485
244.93532
245.17467
245.36919
245.05612
245.28761
246.15946
246.07599
245.07376
244.41169
244.37248
244.69812
245.07433
245.34932
245.47182
245.59959
245.54035
245.68833
245.38652
245.27086
245.24546
245.16117
244.9326
245.17448
245.36785
245.05619
245.29018
246.16122
246.07386
245.0709
244.41059
244.37273
244.69909
245.07514
245.34983
245.47204
245.59967
245.54048
245.38389
245.26814
245.24215
245.1586
244.93094
245.17381
245.3667
245.05594
245.29277
246.16304
246.07115
245.06814
244.40933
244.37312
244.70009
245.07598
245.35033
245.47228
245.59975
245.54059
245.41758
245.38043
245.2641
245.23912
245.15486
244.92817
245.17359
245.36527
245.05599
245.29543
246.16475
246.06899
245.06503
244.40823
244.37341
244.70109
245.07681
245.35085
245.47251
245.59983
245.5407
245.41466
245.37772
245.26138
245.23558
245.15228
244.9265
245.17301
245.36426
245.0558
245.29811
246.16652
246.06623
245.06239
244.40689
244.37378
244.70213
245.07767
245.35135
245.47276
245.59991
245.5408
245.44142
245.41055
245.37423
245.25704
245.23263
245.14847
244.92369
245.17281
245.36268
245.05587
245.3008
246.16819
246.06391
245.05911
244.40581
244.37413
244.70317
245.07852
245.35187
245.473
245.59999
245.54092
245.50641
245.43713
245.40745
245.37136
245.25437
245.22893
245.14585
244.92191
245.17229
245.36171
245.05574
245.30346
246.16993
246.06114
245.05651
244.40438
244.37449
244.70424
245.07939
245.35238
245.47326
245.60006
245.54104
245.49982
245.43222
245.40357
245.36791
245.24985
245.22591
245.142
244.9192
245.17218
245.36007
245.05583
245.30613
246.17167
246.05862
245.05312
244.4033
244.37487
244.7053
245.08025
245.3529
245.47351
245.60013
245.57815
245.49373
245.42801
245.4003
245.36492
245.24705
245.22224
245.13937
244.91715
245.17167
245.35905
245.05573
245.30881
246.17342
246.05581
245.05048
244.40182
244.37522
244.70639
245.08114
245.35342
245.47376
245.6002
245.56944
245.48678
245.42286
245.39652
245.36133
245.24255
245.21894
245.13545
244.91467
245.17167
245.35733
245.05589
245.31153
246.1751
246.05315
245.04702
244.4007
244.37562
244.70746
245.08202
245.35395
245.47401
245.60028
245.68031
245.56222
245.48112
245.41893
245.39329
245.3584
245.23952
245.2154
245.1328
244.91233
245.17122
245.35628
245.05592
245.31428
246.17683
246.0503
245.04417
244.39923
244.37598
244.70858
245.08293
245.35447
245.47426
245.60035
245.79985
245.66857
245.55334
245.47381
245.41337
245.38932
245.35458
245.23502
245.21186
245.12881
244.91
245.17126
245.35455
245.05602
245.31716
246.1785
246.0476
245.04065
244.39804
244.37639
244.70968
245.08384
245.35502
245.47451
245.60042
245.79003
245.65915
245.54597
245.46856
245.40975
245.38626
245.3517
245.23175
245.20844
245.12608
244.90755
245.17092
245.3534
245.05623
245.32023
246.18027
246.04456
245.03751
244.39663
244.37676
244.71083
245.08477
245.35555
245.47477
245.87708
245.77767
245.64725
245.53699
245.46107
245.40392
245.38195
245.34764
245.2273
245.20472
245.12202
244.90526
245.17099
245.35165
245.05637
245.32331
246.18193
246.04197
245.03409
244.39538
244.37717
244.71196
245.08569
245.3561
245.47503
245.93122
245.86789
245.76731
245.63738
245.52948
245.45599
245.4003
245.37904
245.34467
245.22375
245.20141
245.1192
244.90276
245.1707
245.35041
245.0566
245.32654
246.18375
246.03886
245.03078
244.39403
244.37757
244.71314
245.08664
245.35665
245.4753
245.94396
245.92189
245.85713
245.75478
245.62537
245.52044
245.44868
245.39448
245.37441
245.3405
245.21943
245.19761
245.11502
244.9005
245.17083
245.34867
245.05677
245.32982
246.18544
246.03635
245.02747
244.39272
244.37799
244.71431
245.08758
245.3572
245.47558
245.93693
245.93584
245.91327
245.84698
245.74366
245.61509
245.51267
245.44343
245.39068
245.37139
245.33737
245.21551
245.19435
245.11217
244.89796
245.17055
245.34721
245.05707
245.33315
246.18721
246.03313
245.02389
244.3914
244.37842
244.71552
245.08856
245.35776
245.47585
245.93463
245.92584
245.92629
245.90336
245.83609
245.73095
245.60325
245.50378
245.43645
245.38493
245.36679
245.3331
245.21137
245.19046
245.10789
244.89575
245.17077
245.34556
245.05722
245.33648
246.18895
246.03062
245.02032
244.39006
244.37887
244.71671
245.08952
245.35833
245.47613
245.91904
245.92251
245.91605
245.91738
245.89398
245.82511
245.71921
245.59234
245.49569
245.43097
245.38075
245.36358
245.32973
245.20711
245.18729
245.10492
244.89314
245.17058
245.34394
245.05744
245.33995
246.19075
246.02752
245.01637
244.38877
244.37933
244.71795
245.09051
245.35889
245.8826
245.90488
245.9098
245.90448
245.90705
245.88329
245.81353
245.70615
245.58087
245.48696
245.42423
245.37517
245.359
245.32553
245.203
245.1833
245.10055
244.89095
245.17079
245.34232
245.05763
245.34334
246.19256
246.02478
245.01246
244.38743
244.37979
244.71918
245.09149
245.35946
245.84076
245.86813
245.89134
245.89745
245.89407
245.89756
245.87302
245.80197
245.69385
245.56946
245.47876
245.41857
245.3706
245.35576
245.32185
245.19856
245.18011
245.09749
244.8883
245.17075
245.34072
245.05782
245.34689
246.19451
246.02183
245.0084
244.38617
244.38029
244.72046
245.0925
245.36004
245.79288
245.82368
245.8527
245.87692
245.88418
245.88223
245.88632
245.86152
245.78936
245.68059
245.55824
245.47009
245.41202
245.3651
245.35117
245.31771
245.19436
245.17604
245.09302
244.88607
245.17109
245.3391
245.05795
245.3504
246.19642
246.01874
245.00445
244.38484
244.38079
244.72172
245.09351
245.36062
245.70034
245.73748
245.7738
245.80709
245.83813
245.86338
245.87214
245.87138
245.87626
245.85036
245.77727
245.66754
245.54671
245.46196
245.40616
245.36037
245.34789
245.314
245.1898
245.17284
245.08979
244.88343
245.17124
245.33755
245.05819
245.35414
246.19823
246.01592
245.00057
244.38358
244.38132
244.72302
245.09453
245.3612
245.64218
245.67862
245.71828
245.75593
245.79019
245.82302
245.84882
245.85862
245.85929
245.86439
245.83808
245.76364
245.65398
245.53523
245.45315
245.3995
245.3548
245.34344
245.30954
245.18559
245.16859
245.0852
244.88116
245.17148
245.33593
245.05836
245.35776
246.19985
246.01252
244.99674
244.38226
244.38184
244.7243
245.09556
245.53675
245.57933
245.61627
245.65499
245.69756
245.73805
245.77453
245.80943
245.83616
245.84727
245.84851
245.85372
245.82604
245.75083
245.64063
245.52419
245.4454
245.39377
245.35002
245.33996
245.306
245.18079
245.1654
245.08185
244.8785
245.17196
245.33443
245.05852
245.36161
246.20152
246.00972
244.99281
244.381
244.38239
244.72563
245.0966
245.39377
245.4238
245.46546
245.51422
245.55673
245.59476
245.63629
245.68054
245.72147
245.75867
245.79465
245.82172
245.83415
245.83629
245.84145
245.81313
245.73639
245.62648
245.51237
245.43619
245.3867
245.3444
245.33576
245.30124
245.17663
245.16101
245.07712
244.87629
245.17208
245.33273
245.05871
245.36533
246.20304
246.00614
244.98888
244.37969
244.38293
244.72694
245.09764
245.27981
245.32874
245.36341
245.39638
245.44169
245.49139
245.53383
245.57263
245.61601
245.6627
245.70572
245.74472
245.78289
245.81023
245.82326
245.82559
245.82987
245.80019
245.72292
245.61286
245.50177
245.42884
245.38118
245.33973
245.33212
245.29764
245.17164
245.1578
245.07371
244.87364
245.17273
245.33127
245.05891
245.36903
246.20485
246.00336
244.98473
244.3784
244.3835
244.7283
245.0987
245.1269
245.14268
245.15695
245.18951
245.2543
245.30239
245.33735
245.37413
245.42338
245.47339
245.515
245.55484
245.59991
245.64738
245.69024
245.7297
245.76852
245.79665
245.81076
245.81325
245.81703
245.78648
245.70765
245.59845
245.48993
245.4194
245.37385
245.33383
245.32804
245.29282
245.16745
245.15334
245.06889
244.87152
245.17294
245.3295
245.05904
245.37276
246.2068
245.99966
244.98075
244.3771
244.38406
244.72964
245.09976
245.00513
245.0252
245.04297
245.05878
245.07334
245.08984
245.10893
245.12607
245.16294
245.22857
245.27337
245.3085
245.35022
245.40404
245.4547
245.49568
245.5357
245.58291
245.6325
245.67686
245.71748
245.7579
245.7859
245.7997
245.80202
245.80439
245.77263
245.69359
245.58443
245.47961
245.41217
245.36836
245.32939
245.32446
245.28912
245.16234
245.15012
245.06538
244.86899
245.17368
245.32801
245.0593
245.3765
246.2086
245.99682
244.97648
244.37579
244.38465
244.73102
245.10084
244.66441
244.7162
244.76938
244.81232
244.84964
244.88746
244.91312
244.93845
244.95889
244.97584
244.99447
245.01304
245.03134
245.05175
245.07498
245.09775
245.14071
245.20666
245.24831
245.28411
245.33011
245.3876
245.43826
245.47871
245.51987
245.56807
245.61775
245.662
245.70317
245.74442
245.77338
245.78742
245.78909
245.79049
245.75799
245.67774
245.56996
245.46796
245.40275
245.361
245.32336
245.32022
245.28402
245.1581
245.14561
245.06062
244.86692
245.17385
245.32625
245.05947
245.38004
246.2105
245.9931
244.97246
244.3745
244.38524
244.73239
245.7737
246.1259
246.51524
246.8991
247.24219
247.48433
247.57179
247.46368
247.01531
246.35363
245.90328
245.79202
245.90081
245.78847
245.54153
244.82924
244.27266
243.90182
243.65563
243.47404
243.3128
243.35479
243.55014
243.74618
243.88541
243.99114
244.07776
244.22444
244.34343
244.44783
244.52803
244.61686
244.67784
244.72929
244.77771
244.81605
244.85045
244.87708
244.88906
244.90409
244.91872
244.93614
244.95673
244.9765
244.99587
245.01808
245.04484
245.07186
245.11891
245.18269
245.22081
245.25839
245.309
245.36994
245.42033
245.45986
245.50213
245.55339
245.60484
245.64978
245.69179
245.73348
245.76227
245.77544
245.77671
245.77677
245.74323
245.66303
245.55575
245.45783
245.39544
245.35547
245.31909
245.31677
245.28036
245.15298
245.14243
245.05691
244.86451
245.1748
245.32479
245.0597
245.3838
246.21234
245.98999
244.96812
244.3732
244.38586
244.7338
245.38339
245.64269
245.93754
246.25128
246.54655
246.78974
246.92483
246.90212
246.69643
246.2825
245.76336
245.44032
245.48642
245.66837
245.63787
245.32317
244.77394
244.30264
243.84099
243.37927
243.09707
243.07248
243.29964
243.55424
243.89678
244.09138
244.22003
244.28879
244.37965
244.46156
244.53749
244.59162
244.65631
244.70188
244.74377
244.78066
244.81018
244.83748
244.85211
244.85528
244.86381
244.87571
244.89632
244.92005
244.94068
244.96146
244.98603
245.01743
245.05043
245.10153
245.16244
245.19676
245.23579
245.28997
245.35292
245.40327
245.44279
245.48589
245.53823
245.58985
245.63487
245.67773
245.72044
245.74991
245.76226
245.7624
245.76132
245.72765
245.64692
245.54132
245.44635
245.38627
245.34831
245.31306
245.31252
245.27506
245.14854
245.13785
245.05233
244.86256
245.17506
245.32303
245.05998
245.38745
246.21434
245.98635
244.964
244.37192
244.38647
244.7352
244.89389
245.10491
245.31952
245.54319
245.76481
245.96975
246.14216
246.27447
246.34754
246.31829
246.21233
246.03133
245.71954
245.47689
245.59049
245.79639
245.8253
245.29236
244.59401
244.04357
243.40219
242.84127
242.74771
242.91679
243.29384
243.76576
244.11847
244.31663
244.43287
244.4698
244.5165
244.57827
244.63493
244.67582
244.71667
244.74844
244.77483
244.79519
244.81259
244.82993
244.83074
244.82764
244.83331
244.84383
244.86588
244.89002
244.90896
244.92942
244.95585
244.99109
245.02827
245.08135
245.139
245.17052
245.21215
245.27034
245.33421
245.38262
245.42214
245.46828
245.52402
245.57722
245.62245
245.66597
245.70815
245.73728
245.74863
245.74812
245.7463
245.712
245.63161
245.52719
245.43642
245.37862
245.34254
245.30876
245.30895
245.27125
245.1435
245.13469
245.04842
244.86018
245.17608
245.32163
245.06025
245.39121
246.21619
245.98299
244.9596
244.37061
244.38711
244.73664
244.94979
244.9937
245.07361
245.2095
245.38253
245.55967
245.73363
245.89157
246.01375
246.1161
246.20449
246.21448
246.16592
246.08383
245.92058
245.89843
246.0906
246.20171
245.94761
245.35301
244.51837
243.69735
242.9959
242.58738
242.62337
242.90882
243.57
244.11888
244.38527
244.52574
244.58977
244.6046
244.61306
244.65944
244.70031
244.73527
244.75466
244.77254
244.78514
244.79245
244.7988
244.80381
244.79825
244.79819
244.80557
244.81623
244.83822
244.86087
244.87914
244.90143
244.9314
244.97061
245.0121
245.06555
245.11908
245.14779
245.18995
245.25066
245.31586
245.36394
245.40322
245.45016
245.50733
245.56078
245.60619
245.65091
245.69433
245.72346
245.73316
245.73192
245.72923
245.69546
245.61545
245.5129
245.42522
245.37004
245.3359
245.30307
245.30489
245.26595
245.13894
245.13009
245.04409
244.85834
245.17665
245.31984
245.06051
245.39508
246.21791
245.97938
244.95536
244.36933
244.38775
244.73806
245.28458
245.32436
245.36878
245.42108
245.48436
245.54988
245.61933
245.705
245.81574
245.92545
246.04141
246.13114
246.17708
246.22704
246.22345
246.16423
246.09481
246.16469
246.39498
246.62963
246.53315
246.0084
245.15691
244.25795
243.45014
242.79236
242.53643
242.67876
243.32343
244.04704
244.44934
244.59781
244.67947
244.70011
244.71578
244.70494
244.73477
244.75685
244.77786
244.78086
244.78604
244.79154
244.79248
244.78904
244.78339
244.77526
244.7768
244.78368
244.79335
244.81356
244.83195
244.84905
244.87387
244.90788
244.94906
244.99221
245.04604
245.09675
245.1252
245.16887
245.22981
245.2934
245.33992
245.38112
245.43234
245.49234
245.54675
245.59228
245.6373
245.67999
245.70869
245.71711
245.71518
245.71303
245.67935
245.59964
245.49889
245.4152
245.36204
245.32964
245.29855
245.30104
245.26171
245.13381
245.1269
245.03996
244.85597
245.17767
245.31843
245.0609
245.39904
246.21956
245.97577
244.95094
244.36802
244.38843
245.8031
245.83393
245.8668
245.90178
245.9391
245.9792
246.02325
246.07195
246.12311
246.18975
246.26506
246.32582
246.37799
246.41511
246.42936
246.4362
246.43268
246.41101
246.41111
246.46758
246.64176
246.95565
247.22921
247.13707
246.75186
246.01042
244.94906
244.00607
243.3498
242.79592
242.71906
243.08101
243.77591
244.35781
244.65361
244.71819
244.76849
244.77223
244.79798
244.78089
244.79782
244.80207
244.80684
244.79353
244.78784
244.78696
244.78
244.76751
244.75747
244.7533
244.75848
244.76437
244.77281
244.79196
244.80807
244.82638
244.85476
244.89203
244.93402
244.97669
245.02833
245.07499
245.10335
245.14948
245.21157
245.27368
245.31869
245.35981
245.41238
245.47432
245.52848
245.5739
245.62023
245.6639
245.69183
245.69878
245.69677
245.69471
245.66193
245.5836
245.4849
245.40433
245.35385
245.32352
245.29314
245.29715
245.25667
245.1293
245.12226
245.03581
244.85422
245.17847
245.3167
245.06113
245.40291
246.2215
245.97215
244.94656
244.36674
244.38909
246.2375
246.25622
246.27522
246.29451
246.31413
246.33411
246.35451
246.37539
246.39671
246.41823
246.44076
246.46672
246.49747
246.52443
246.54828
246.5975
246.65449
246.76578
246.8581
246.94888
247.08611
247.27165
247.50411
247.74816
247.9306
247.93382
247.7211
247.2903
246.47416
245.41186
244.56071
243.91097
243.41158
243.16578
243.30482
243.70329
244.20122
244.60192
244.80058
244.80845
244.83552
244.81963
244.84823
244.8302
244.84192
244.83305
244.82143
244.79767
244.78914
244.78081
244.7659
244.74708
244.7364
244.73396
244.73778
244.74068
244.74855
244.76805
244.78386
244.80444
244.83618
244.87561
244.91739
244.95931
245.0098
245.05304
245.08188
245.12938
245.19026
245.24932
245.29387
245.33801
245.39431
245.45797
245.51251
245.55744
245.60362
245.64686
245.67443
245.67982
245.67772
245.67758
245.64566
245.56785
245.4714
245.39425
245.34579
245.31714
245.2885
245.29314
245.25187
245.12401
245.1191
245.03154
244.85183
245.17961
245.31521
245.06157
245.40691
246.2234
245.96835
244.94211
244.36545
244.38979
246.19095
246.20331
246.21579
246.22837
246.24105
246.25382
246.26665
246.27953
246.29245
246.30538
246.31832
246.33127
246.34423
246.35726
246.37038
246.38372
246.39739
246.41159
246.42624
246.44146
246.45915
246.48623
246.52711
246.57322
246.61916
246.68691
246.83059
247.11067
247.45025
247.8052
248.15125
248.46827
248.59284
248.41761
247.98608
247.32812
246.41277
245.51396
244.82598
244.25014
243.81814
243.58497
243.66921
243.94952
244.38058
244.68195
244.87639
244.92716
244.87319
244.87805
244.84546
244.87367
244.85549
244.86138
244.84135
244.82284
244.78864
244.76985
244.75575
244.73944
244.72399
244.71663
244.71431
244.71799
244.72106
244.73122
244.75123
244.7684
244.79238
244.82543
244.86351
244.90369
244.94381
244.99085
245.03078
245.06187
245.11301
245.17358
245.22895
245.27078
245.31559
245.37395
245.43895
245.49287
245.53771
245.58446
245.62779
245.65416
245.6587
245.65742
245.65877
245.62782
245.5517
245.45745
245.38341
245.33765
245.31097
245.28316
245.28921
245.24699
245.11949
245.11438
245.02748
244.85018
245.1806
245.31351
245.06187
245.41074
246.22538
245.96467
244.93764
244.36418
244.39048
246.03635
246.0363
246.03621
246.03611
246.03605
246.03614
246.03652
246.03736
246.03883
246.041
246.04385
246.04732
246.05134
246.05585
246.06083
246.06625
246.07209
246.07834
246.08501
246.09213
246.09969
246.10772
246.11621
246.12516
246.13452
246.14427
246.1544
246.16492
246.17581
246.18708
246.19872
246.21074
246.22315
246.23596
246.24922
246.26295
246.27723
246.29215
246.30784
246.32449
246.34239
246.36203
246.3842
246.41054
246.44513
246.49575
246.58153
246.72208
246.88319
247.03576
247.1986
247.36467
247.53408
247.71495
247.89262
248.03005
248.14424
247.97341
247.55221
246.97928
246.34779
245.76236
245.19257
244.78871
244.48611
244.17277
243.87371
243.85642
244.1511
244.52738
244.82115
244.91451
245.0067
244.97907
244.87721
244.87288
244.84999
244.87848
244.85884
244.86321
244.83428
244.80255
244.75665
244.73989
244.72381
244.71103
244.69651
244.68963
244.68636
244.68902
244.69559
244.7124
244.73453
244.75284
244.77994
244.81372
244.85004
244.88868
244.92823
244.97249
245.00812
245.04031
245.09399
245.1528
245.20546
245.2477
245.29485
245.35548
245.42113
245.47456
245.51791
245.56474
245.60786
245.63391
245.63733
245.63682
245.64111
245.6114
245.53655
245.44487
245.37344
245.32971
245.30507
245.27857
245.28524
245.24188
245.11416
245.11117
245.02309
244.84783
245.18185
245.31203
245.06225
245.41475
246.22726
245.96076
244.93313
244.36289
244.39121
245.96407
245.96416
245.96453
245.96532
245.96683
245.96923
245.9728
245.97762
245.98367
245.99069
245.99835
246.00637
246.01463
246.02307
246.03173
246.04063
246.04982
246.05934
246.06924
246.07954
246.09028
246.1015
246.11324
246.12553
246.13843
246.15194
246.16607
246.18084
246.19628
246.21242
246.22931
246.24699
246.26553
246.28502
246.30555
246.32728
246.3504
246.37514
246.40187
246.43104
246.46338
246.49998
246.54261
246.59461
246.66327
246.76688
246.94163
247.16718
247.32916
247.45063
247.5506
247.60453
247.62196
247.59062
247.43889
247.17677
246.83486
246.41727
246.14726
245.90231
245.62518
245.31358
245.02686
244.76929
244.47091
244.39205
244.45821
244.60796
244.8468
245.04089
244.99805
244.92041
244.90797
244.82737
244.70061
244.73229
244.76959
244.81786
244.81408
244.82155
244.78616
244.75587
244.70915
244.69543
244.68764
244.6819
244.67071
244.66529
244.66324
244.6683
244.67978
244.70222
244.72507
244.7439
244.77275
244.80475
244.83734
244.87412
244.91254
244.95402
244.98791
245.02318
245.08093
245.13698
245.18427
245.22455
245.27302
245.33556
245.40171
245.45416
245.49753
245.54407
245.58637
245.61101
245.61435
245.61569
245.6224
245.5939
245.52073
245.43111
245.36248
245.32118
245.29839
245.27326
245.28106
245.23694
245.10946
245.10648
245.01907
244.84621
245.18305
245.3103
245.06259
245.4187
246.22913
245.95697
244.92859
244.36162
244.39193
246.00386
246.00433
246.00544
246.00738
246.01042
246.01476
246.02069
246.02829
246.03746
246.04781
246.05884
246.07018
246.08162
246.09312
246.10466
246.1163
246.12806
246.14001
246.15217
246.16457
246.17725
246.19024
246.20355
246.21723
246.2313
246.24581
246.26084
246.27642
246.29259
246.30937
246.3268
246.34493
246.36383
246.38357
246.40428
246.42611
246.44927
246.47404
246.50081
246.53016
246.56293
246.60046
246.6449
246.70023
246.77465
246.88543
247.04981
247.18694
247.18163
247.08272
246.93248
246.76528
246.62835
246.51073
246.41345
246.31681
246.17653
246.02482
245.95522
245.79538
245.4978
245.19534
244.98166
244.82153
244.7303
244.73658
244.88995
245.11432
245.28145
245.27351
245.05339
244.81853
244.65429
244.56268
244.54653
244.6381
244.72263
244.76722
244.75665
244.7526
244.71329
244.69475
244.66955
244.66142
244.6549
244.64778
244.63722
244.63407
244.63801
244.6482
244.66495
244.6906
244.71382
244.73342
244.76308
244.79378
244.82363
244.8566
244.89265
244.93131
244.96298
245.0008
245.06285
245.11825
245.16278
245.20278
245.25245
245.3159
245.38205
245.43331
245.47496
245.52172
245.56413
245.58841
245.59152
245.59459
245.60502
245.57761
245.5063
245.41922
245.35257
245.31364
245.29308
245.26895
245.27724
245.23159
245.10416
245.10318
245.01453
244.84399
245.18446
245.3088
245.06297
245.42277
246.23094
245.95299
244.92402
244.36035
246.03181
246.03233
246.03354
246.03563
246.03885
246.04344
246.04959
246.05737
246.06656
246.07669
246.08719
246.09767
246.10797
246.11809
246.12808
246.13805
246.14803
246.15807
246.16822
246.17852
246.18899
246.19968
246.2106
246.22179
246.23327
246.24505
246.25714
246.26957
246.28239
246.29565
246.30941
246.32375
246.33876
246.35456
246.37128
246.38912
246.40831
246.42915
246.45208
246.47767
246.50675
246.5405
246.58069
246.62995
246.69139
246.75272
246.75094
246.56616
246.38867
246.28995
246.25086
246.25338
246.27801
246.32463
246.37655
246.40875
246.38654
246.29379
246.09169
245.78555
245.45374
245.19152
245.03238
244.96665
244.98662
245.01982
245.2131
245.39417
245.40405
245.29845
245.04834
244.68583
244.50631
244.43028
244.49403
244.6141
244.71505
244.75578
244.72749
244.68793
244.64828
244.64695
244.63959
244.63008
244.62125
244.615
244.61069
244.61313
244.62291
244.63841
244.65866
244.68357
244.70305
244.72385
244.75484
244.78368
244.81193
244.84261
244.87564
244.91205
244.94362
244.98417
245.04868
245.10127
245.14142
245.18037
245.23139
245.29588
245.36162
245.41215
245.45345
245.49959
245.54097
245.5642
245.56798
245.57351
245.58664
245.56103
245.49124
245.40572
245.34132
245.30458
245.28589
245.26337
245.27295
245.22663
245.09927
245.09852
245.01053
244.84231
245.18577
245.30712
245.06322
245.42686
246.23278
245.94908
244.91941
244.35908
246.07695
246.07713
246.07756
246.07832
246.07958
246.08147
246.08417
246.08776
246.09221
246.09728
246.10272
246.10828
246.11385
246.11938
246.12487
246.13036
246.13587
246.14145
246.14712
246.15292
246.15887
246.16499
246.17132
246.17787
246.18467
246.19176
246.19915
246.20687
246.21497
246.22347
246.23241
246.24183
246.25179
246.26233
246.2735
246.28538
246.29802
246.31146
246.32574
246.34078
246.35638
246.3719
246.3856
246.39329
246.38711
246.33954
246.19486
246.04311
246.06019
246.12499
246.22512
246.3853
246.58701
246.75756
246.85375
246.84347
246.70591
246.43399
246.09714
245.76016
245.49089
245.2681
245.16145
245.188
245.32886
245.44746
245.5569
245.58167
245.44722
245.2472
244.8956
244.52422
244.40776
244.3637
244.4783
244.61081
244.71975
244.75946
244.71619
244.64808
244.60795
244.61214
244.61532
244.60424
244.59217
244.58618
244.58646
244.59491
244.60975
244.62769
244.64965
244.67271
244.68908
244.7103
244.7408
244.76726
244.79362
244.82009
244.84941
244.8845
244.9171
244.96144
245.02911
245.08111
245.11959
245.15766
245.20959
245.27446
245.33976
245.38863
245.42893
245.47506
245.51694
245.5403
245.54488
245.55292
245.57016
245.54554
245.47761
245.39418
245.33132
245.29729
245.28089
245.25955
245.26902
245.2209
245.09403
245.09516
245.00592
244.8403
245.18742
245.30553
245.06367
245.43094
246.23468
245.94503
244.91477
244.35781
246.04677
246.047
246.04753
246.04841
246.0496
246.05116
246.05302
246.05519
246.05753
246.05994
246.06229
246.06454
246.06666
246.06867
246.0706
246.07247
246.07432
246.07616
246.078
246.07986
246.08173
246.08362
246.08554
246.08749
246.08946
246.09144
246.09343
246.0954
246.09735
246.09923