/*--------------------------------*- C++ -*----------------------------------*\
| =========                 |                                                 |
| \\      /  F ield         | OpenFOAM: The Open Source CFD Toolbox           |
|  \\    /   O peration     | Version:  2506                                  |
|   \\  /    A nd           | Website:  www.openfoam.com                      |
|    \\/     M anipulation  |                                                 |
\*---------------------------------------------------------------------------*/
FoamFile
{
    version     2.0;
    format      ascii;
    arch        "LSB;label=32;scalar=64";
    class       volScalarField;
    location    "2.65";
    object      Cp;
}
// * * * * * * * * * * * * * * * * * * * * * * * * * * * * * * * * * * * * * //

dimensions      [0 0 0 0 0 0 0];

internalField   nonuniform List<scalar> 
1375
(
0.022577827
0.022581673
0.022585903
0.022591603
0.022598798
0.022606017
0.022534228
0.022537835
0.022540831
0.022543967
0.022547904
0.02255347
0.022557426
0.022559984
0.02256491
0.022570636
0.022576728
0.02258134
0.022583362
0.022586438
0.022596669
0.022601671
0.022597581
0.022603238
0.022611403
0.022515
0.02252188
0.022527506
0.022532079
0.02253485
0.022535096
0.022533699
0.022536078
0.022540361
0.022543274
0.022548217
0.022557435
0.022568369
0.022575621
0.022575081
0.022570661
0.022567472
0.02257028
0.022580433
0.022593317
0.022603515
0.022604793
0.022615336
0.0226288
0.022635154
0.02264467
0.022653793
0.022488389
0.022497058
0.022504272
0.022510333
0.022515291
0.022519637
0.022525404
0.022528605
0.022526319
0.022522446
0.022518012
0.022522466
0.022537788
0.022547824
0.022543837
0.022544854
0.022561008
0.022568933
0.022560283
0.022563032
0.022569796
0.022592141
0.022608993
0.022605318
0.022596197
0.02260107
0.022605679
0.022598838
0.022615362
0.022649731
0.022674844
0.022704263
0.022728826
0.022781723
0.022436112
0.022442255
0.022448478
0.022455271
0.022462618
0.02247054
0.022480087
0.022490624
0.022501243
0.022512084
0.022519902
0.022516039
0.022502524
0.022496768
0.022501922
0.022508781
0.022515817
0.02252585
0.022539861
0.022542288
0.022542335
0.022550271
0.022556364
0.022564188
0.022575676
0.022579763
0.02258287
0.022582229
0.022600426
0.022654425
0.02269486
0.022712942
0.022735251
0.022765965
0.022806305
0.022869993
0.022925038
0.02294653
0.022403105
0.022407025
0.022410977
0.022415573
0.022420433
0.022425214
0.022430653
0.022437492
0.022445578
0.022454155
0.022462332
0.02246839
0.022471079
0.022472691
0.022477586
0.022483791
0.022488211
0.022494522
0.022508413
0.022527392
0.022549922
0.022551196
0.022542016
0.022542326
0.022541965
0.022580804
0.022626532
0.02263956
0.022635232
0.022622889
0.022645968
0.022684219
0.022728819
0.022761387
0.022802527
0.02285594
0.022914129
0.022968938
0.023007292
0.023009715
0.022965529
0.022399368
0.022402247
0.022405076
0.022408325
0.022411945
0.022415567
0.022418899
0.022422153
0.02242616
0.022431738
0.022438691
0.022446315
0.022453833
0.022460078
0.022465725
0.02247204
0.02247916
0.022486885
0.022494528
0.022503169
0.022517006
0.022536822
0.022557213
0.022567903
0.022571204
0.022564202
0.02257634
0.022610703
0.022631937
0.022626382
0.022627789
0.022662975
0.022717764
0.022749817
0.022789913
0.022830604
0.02288381
0.022937987
0.022976059
0.022972053
0.022929703
0.022954116
0.02289086
0.022888283
0.022404353
0.022406495
0.022409059
0.022411729
0.022414528
0.022417464
0.022420261
0.022423386
0.022427209
0.022431948
0.022438152
0.022445426
0.022452717
0.022458423
0.022461573
0.022463302
0.022466591
0.022472922
0.022480337
0.022486139
0.022491658
0.02249976
0.022513792
0.022536647
0.022558656
0.022564227
0.022562486
0.022561205
0.022568621
0.022593095
0.022626916
0.022635731
0.022656028
0.022698878
0.022751174
0.022803189
0.02285486
0.022886563
0.022918108
0.022933809
0.022946184
0.022951546
0.022897077
0.022909959
0.02290752
0.022875477
0.02240569
0.022407676
0.0224095
0.022411084
0.022412593
0.02241417
0.022415333
0.022415283
0.022415139
0.022416666
0.022420521
0.022425187
0.022429744
0.022434248
0.022436999
0.022438861
0.02244295
0.022451342
0.022457814
0.022459845
0.022458311
0.022470327
0.02249563
0.022514408
0.022515297
0.022512846
0.022509635
0.022531125
0.022552476
0.022556242
0.022556927
0.022578148
0.022619428
0.022671607
0.022724948
0.022779702
0.022829022
0.022859608
0.022894197
0.022937614
0.022971919
0.022951579
0.022913942
0.022909192
0.022912351
0.022878942
0.022741778
0.022669998
0.022392668
0.022391722
0.022390613
0.022389412
0.022388714
0.022389852
0.022393505
0.022396871
0.022400348
0.022405973
0.022407775
0.022407082
0.022409866
0.022415038
0.022421003
0.022426672
0.022430245
0.022428799
0.022428875
0.02243114
0.022442855
0.022452676
0.022452429
0.022460712
0.022479074
0.022485365
0.022504394
0.022515382
0.022531747
0.022547074
0.022564421
0.022590655
0.022616462
0.022642602
0.022683389
0.022736816
0.02278884
0.02284696
0.022886337
0.022926272
0.022966418
0.022953288
0.022929818
0.022911627
0.02291166
0.022876397
0.022738844
0.022672484
0.022613647
0.022387421
0.022384202
0.022381108
0.022379518
0.022379022
0.022377215
0.022373998
0.022372285
0.022371603
0.02236737
0.022364641
0.022362958
0.022360699
0.022365999
0.022370447
0.022374841
0.022379673
0.022391259
0.022405401
0.022420312
0.022432603
0.022436443
0.022434984
0.022440648
0.02246167
0.022480057
0.022493743
0.022499849
0.022509675
0.022534531
0.022560705
0.02258256
0.022602951
0.022632615
0.022664351
0.02270648
0.022754827
0.022828825
0.022874922
0.022911505
0.022944505
0.022963331
0.022954107
0.022917543
0.022901784
0.022880811
0.022734942
0.022671922
0.022609561
0.022376644
0.022374282
0.022372454
0.022370253
0.022367248
0.022363891
0.022360139
0.022355775
0.022346914
0.022335569
0.022327516
0.022322623
0.02232385
0.022317835
0.022325932
0.022345076
0.022352527
0.022353634
0.022357849
0.022367516
0.022374225
0.022380378
0.022391671
0.022397716
0.022407791
0.02242497
0.022432451
0.022447157
0.022466919
0.022504796
0.0225406
0.022565247
0.022585887
0.022611464
0.022656003
0.022691247
0.022728233
0.022790995
0.022849156
0.022905656
0.022956454
0.022968698
0.022946793
0.022911691
0.02287744
0.022891942
0.022730108
0.022671941
0.022611202
0.022357366
0.022357161
0.022355588
0.022353059
0.022349302
0.022343329
0.022335107
0.022326136
0.022320128
0.022317221
0.022314069
0.02231175
0.022302074
0.022293241
0.02228359
0.022269334
0.022267059
0.022268402
0.022261101
0.022256342
0.022283126
0.022311207
0.022312318
0.022319803
0.022340169
0.022365154
0.022386023
0.02240405
0.02241936
0.022450932
0.022497954
0.022543652
0.022585997
0.022611557
0.022641703
0.022678174
0.022718191
0.022763177
0.022817344
0.022870872
0.022928969
0.022949889
0.022945122
0.022911199
0.022855522
0.0228723
0.022739935
0.022672529
0.022606571
0.022327708
0.022329806
0.022329981
0.022329231
0.022327757
0.022325433
0.02232195
0.022317351
0.022312287
0.022306843
0.022300953
0.02229458
0.022289077
0.022286826
0.022277229
0.022265631
0.022256719
0.02224507
0.022235828
0.022232768
0.022222894
0.022216498
0.022251872
0.022292406
0.02230043
0.022316332
0.022347012
0.022374386
0.022397315
0.022421527
0.022471337
0.022527793
0.022577969
0.022621237
0.022639644
0.022664454
0.022701583
0.022730896
0.022779005
0.022824093
0.022876068
0.022924391
0.022936911
0.022908192
0.022846588
0.022826802
0.022735653
0.022660952
0.02260872
0.022302357
0.022308841
0.022313837
0.022317464
0.022319271
0.022319798
0.022318586
0.022315633
0.022311988
0.022308419
0.022305436
0.022302303
0.022298101
0.022293417
0.02228837
0.022282
0.022274872
0.022271191
0.02227204
0.022268768
0.022249619
0.022229529
0.022211038
0.022223035
0.022262942
0.022295369
0.022317512
0.022346108
0.022384955
0.022409224
0.022429776
0.022497428
0.022555937
0.022607564
0.022634358
0.022656668
0.02268974
0.022710179
0.022742727
0.022788104
0.022830156
0.022869556
0.022891746
0.022892376
0.022837558
0.022779315
0.022706003
0.022652418
0.022616026
0.022254977
0.022265722
0.02227383
0.022281914
0.022289243
0.022294552
0.022298726
0.022301229
0.022302306
0.022303753
0.022305188
0.022304934
0.022301618
0.022295583
0.022288818
0.022282033
0.022276092
0.022272748
0.022271061
0.022273068
0.02227147
0.022270348
0.022259623
0.022235045
0.022220512
0.022231532
0.022255865
0.022303867
0.022355696
0.022402558
0.022423731
0.022433304
0.022497236
0.022581571
0.02262495
0.022647918
0.022674859
0.022695774
0.02271979
0.022757414
0.022780879
0.022817962
0.022839705
0.022853297
0.022818612
0.022754233
0.02267811
0.022639783
0.022613156
0.022179105
0.022195163
0.022207466
0.02222036
0.02223456
0.022247678
0.022259263
0.022271131
0.022282384
0.022291336
0.022297327
0.022298734
0.022294481
0.022286844
0.022278881
0.022270289
0.022259431
0.022246481
0.022238018
0.0222357
0.02223396
0.022239329
0.022245571
0.022249708
0.022250213
0.022250072
0.022262304
0.022267951
0.022279738
0.022337926
0.022403679
0.022438993
0.022463185
0.022507517
0.022575769
0.0226206
0.022655487
0.022681083
0.022704657
0.022729841
0.022745743
0.022770836
0.022775868
0.022787659
0.022783351
0.022762094
0.022674596
0.022611511
0.022590752
0.022110338
0.022124306
0.022137643
0.022151465
0.022166622
0.022182946
0.022197119
0.022209571
0.02222147
0.022231158
0.022239345
0.0222473
0.022253606
0.022255544
0.022252376
0.022246426
0.022239919
0.022233804
0.022228041
0.022221458
0.022215927
0.022211807
0.022210033
0.022212603
0.022220366
0.022233655
0.022251662
0.022268703
0.022289501
0.022300894
0.022327752
0.022385133
0.022427186
0.022455976
0.022514186
0.022570304
0.022620929
0.022654699
0.022683664
0.022705827
0.022717479
0.022725827
0.022703235
0.022706603
0.022738153
0.022762598
0.022671048
0.022612275
0.022552576
0.022059224
0.02206771
0.02207664
0.022086096
0.022097042
0.022111687
0.022129206
0.022145894
0.022161083
0.022175875
0.022188385
0.022198363
0.022208072
0.022217005
0.022223381
0.022227083
0.022228314
0.02222691
0.022222266
0.022215787
0.02221052
0.022205805
0.02220355
0.022203329
0.022205531
0.022211177
0.022222656
0.022243547
0.022270778
0.022281898
0.022292367
0.022320385
0.022367366
0.022416772
0.022459902
0.02250863
0.022569443
0.02261433
0.02265544
0.022684713
0.022692989
0.022679932
0.022641829
0.0226305
0.022681726
0.022735137
0.022662456
0.022641399
0.02255229
0.022015524
0.022023732
0.022030981
0.022038076
0.022044713
0.022051409
0.022059591
0.022069616
0.022080713
0.022092847
0.022106579
0.022121269
0.022136012
0.022150325
0.022162606
0.022172161
0.022178868
0.022184012
0.022185662
0.022185134
0.022185454
0.022185343
0.022185678
0.022187223
0.022190881
0.022196859
0.022203697
0.022213899
0.022230208
0.022249379
0.022267799
0.022276424
0.022299184
0.022345931
0.022392848
0.02244445
0.022505084
0.022567893
0.02261583
0.022649871
0.02266172
0.022639831
0.022599973
0.022584527
0.022613035
0.022676773
0.022651711
0.022677463
0.022585541
0.021958144
0.02196644
0.021973476
0.021981138
0.021989046
0.021996639
0.022003537
0.022010234
0.022017125
0.022023172
0.022028011
0.022032932
0.022039267
0.022048397
0.022059559
0.02207181
0.022085332
0.02209922
0.022111632
0.022123761
0.022134006
0.022142495
0.022151313
0.022158737
0.022165526
0.022173393
0.022181118
0.022189198
0.022195892
0.022204392
0.022217003
0.022229962
0.022249061
0.022279327
0.022324013
0.022382614
0.022437917
0.022502437
0.02255928
0.022603962
0.022628804
0.022617675
0.022581199
0.022571668
0.022554815
0.02261384
0.022634516
0.022700779
0.022609229
0.021908718
0.021913306
0.0219169
0.02192163
0.021928136
0.021936061
0.021944435
0.021952114
0.021961037
0.021968916
0.021975981
0.021980996
0.021985511
0.021990851
0.021997387
0.022004438
0.022012504
0.022022707
0.022035618
0.022051869
0.022070117
0.022086682
0.022102171
0.022117571
0.022131318
0.022143574
0.022154197
0.022161632
0.022164954
0.022167696
0.022172514
0.022181847
0.022200133
0.022228935
0.02227495
0.02232805
0.022375864
0.022426354
0.02248784
0.022549853
0.022600701
0.022608566
0.022580743
0.022561746
0.022526246
0.02255094
0.022603361
0.022690611
0.022636404
0.021872001
0.021874069
0.02187298
0.021872014
0.021872659
0.02187498
0.021880923
0.021896183
0.02190519
0.021919031
0.021941886
0.021955451
0.021964152
0.021969985
0.021974455
0.021977894
0.021980935
0.021985552
0.02199334
0.022003873
0.022016951
0.022032279
0.022048764
0.022065799
0.022080994
0.022095293
0.022110538
0.022123982
0.022131651
0.022134387
0.022137211
0.022145258
0.022161991
0.022192725
0.02223789
0.022284089
0.022324888
0.022362116
0.022417849
0.022489632
0.022567942
0.022600909
0.022584413
0.022545775
0.022513593
0.022513001
0.022598891
0.022666079
0.022635617
0.021855885
0.021854643
0.021851151
0.02184956
0.021850755
0.021854076
0.02185739
0.021855061
0.021858929
0.021861995
0.021857758
0.021866192
0.021880112
0.02189641
0.021912918
0.021927252
0.021938329
0.021946898
0.021954242
0.021962712
0.021973321
0.021985345
0.021998514
0.022013319
0.0220274
0.022040388
0.022053363
0.022067607
0.022082447
0.022093572
0.022102669
0.022115926
0.022134572
0.022166548
0.022209065
0.022249656
0.022286092
0.022320726
0.022371237
0.022443792
0.022528123
0.022573876
0.022566454
0.022528509
0.022510559
0.022530649
0.022575525
0.022609607
0.022600479
0.021859551
0.021854412
0.021846051
0.021837808
0.021830374
0.021825324
0.021824137
0.021826166
0.021831041
0.021836185
0.021842448
0.021845993
0.0218471
0.021846768
0.021847707
0.021853247
0.021864548
0.021879738
0.021895053
0.021907954
0.021920732
0.021934761
0.021945915
0.021954972
0.021964021
0.021972243
0.021981539
0.021994275
0.022013391
0.022035596
0.022060112
0.022085137
0.022111456
0.022146342
0.022184539
0.022225094
0.022263606
0.022300059
0.022349055
0.022415687
0.022487694
0.022531809
0.022533117
0.02251088
0.022517135
0.02252877
0.022552589
0.022562198
0.022609611
0.021838276
0.021834801
0.021830461
0.021825734
0.021821911
0.021820061
0.021819901
0.021821358
0.021824352
0.021828085
0.021831328
0.021833275
0.021834438
0.021836733
0.021842381
0.021850999
0.021857808
0.021863641
0.021871533
0.0218797
0.021885594
0.021887332
0.021890153
0.021900166
0.021921699
0.021956514
0.021999306
0.02204197
0.022084634
0.022128187
0.022166879
0.0222073
0.022252543
0.022295655
0.022340819
0.022397425
0.022455471
0.022501077
0.022507993
0.022474845
0.022464828
0.022518568
0.022554348
0.022557083
0.022584683
0.021803938
0.021802997
0.021802542
0.021802813
0.021803126
0.021802806
0.02180245
0.021802675
0.021802394
0.021802775
0.021806173
0.021809728
0.021810838
0.021808247
0.02180544
0.021805164
0.021806004
0.021806853
0.021813154
0.021829838
0.021858118
0.021910567
0.021981581
0.022047012
0.022101653
0.022148232
0.022193209
0.022245676
0.022298035
0.022342183
0.022389796
0.022437022
0.022479368
0.022487275
0.022445007
0.022424997
0.022519026
0.022542277
0.022577405
0.022559857
0.021767381
0.021768059
0.021768792
0.021766284
0.021763302
0.021764969
0.021768558
0.021767205
0.02176095
0.021751761
0.021741803
0.021734785
0.021738101
0.021759598
0.021794893
0.021837157
0.021896477
0.021976093
0.022053362
0.022117105
0.022175326
0.022236949
0.022296422
0.022348057
0.022392812
0.022431791
0.022460859
0.022464355
0.022421589
0.022385695
0.022476841
0.02253478
0.022593961
0.022586466
0.021727757
0.021725223
0.021727253
0.021727522
0.02172268
0.021713904
0.021701081
0.021689866
0.021686895
0.021702137
0.021738836
0.021792277
0.021854338
0.021912523
0.021982144
0.022064986
0.022139995
0.022216456
0.022292257
0.022354394
0.022399058
0.022433752
0.022458637
0.022449812
0.022397992
0.022363264
0.022419487
0.022478997
0.022590196
0.022627011
0.021685681
0.021685918
0.021684134
0.021680694
0.021678208
0.021684982
0.021709412
0.021753982
0.021814719
0.021878248
0.021936624
0.022000882
0.022083374
0.022180037
0.022278992
0.0223593
0.022407629
0.022441136
0.022466715
0.022448897
0.022386933
0.022352614
0.022371
0.022413235
0.022574852
0.022660202
0.021675085
0.021684508
0.021702441
0.021731812
0.021776209
0.021833432
0.021891353
0.021950699
0.022023027
0.022126822
0.022245439
0.022340876
0.022407017
0.022457893
0.022482407
0.022457555
0.022393541
0.022352863
0.022348156
0.022367442
0.022546127
0.022662458
0.021716127
0.021742218
0.021780869
0.021833128
0.021894043
0.021968593
0.022067587
0.022187544
0.02230533
0.0223956
0.022461855
0.022497252
0.022480093
0.022419711
0.022365154
0.022355062
0.02234754
0.022480478
0.022612124
0.021768264
0.021817758
0.021899416
0.021996415
0.022109962
0.022243907
0.02236056
0.022442439
0.022487692
0.022505779
0.022452242
0.02240019
0.022377627
0.02232597
0.022418917
0.022544114
0.021804891
0.021897316
0.022012014
0.022141043
0.022278184
0.022407174
0.022483138
0.022505035
0.022471544
0.022439468
0.02241241
0.022311197
0.022381741
0.022474039
0.02204006
0.022184884
0.022319904
0.022430136
0.0224841
0.022481444
0.022465074
0.022447021
0.022311843
0.022352379
0.022407186
0.022208498
0.022349751
0.022452164
0.022488975
0.022483841
0.022464674
0.022337475
0.022335022
0.022356695
0.022393621
0.022465837
0.02247906
0.022483497
0.022397044
0.022363629
0.022322812
0.022424254
0.022469538
0.022503148
0.022468337
0.022424274
0.022296142
0.022510373
0.022512137
0.022469348
0.022331418
0.022516625
0.022505419
0.022413269
0.022546177
0.022473669
)
;

boundaryField
{
    Side
    {
        type            empty;
    }
    Inlet
    {
        type            calculated;
        value           nonuniform List<scalar> 
32
(
0.022575407
0.022569209
0.022563708
0.02255936
0.022557625
0.022557723
0.022561516
0.022572623
0.022595433
0.022598726
0.022589285
0.022571517
0.022554578
0.022547269
0.022548691
0.022553081
0.022557243
0.022558151
0.022560971
0.022570484
0.022574181
0.022569527
0.022566123
0.02256492
0.022564918
0.022566588
0.022567948
0.022565902
0.022561414
0.02255511
0.0225458
0.022536222
)
;
    }
    Airfoil
    {
        type            calculated;
        value           nonuniform List<scalar> 0();
    }
    Outlet
    {
        type            calculated;
        value           nonuniform List<scalar> 0();
    }
    procBoundary4to3
    {
        type            processor;
        value           nonuniform List<scalar> 
57
(
0.022641384
0.022646288
0.022651907
0.022657476
0.022661498
0.022664922
0.022611522
0.022611522
0.022617256
0.02262381
0.022630795
0.022637682
0.022643573
0.022650038
0.0226638
0.022683233
0.022698826
0.02270901
0.022716925
0.022614655
0.022614655
0.022612666
0.022618279
0.022623825
0.022635987
0.022647171
0.022650881
0.022677355
0.022679344
0.022679344
0.022705326
0.02269937
0.022700712
0.022719648
0.022743934
0.022807781
0.022833224
0.022833224
0.022893802
0.022931522
0.022922335
0.022984356
0.022984356
0.02300692
0.022995385
0.022942481
0.022942481
0.02290863
0.02289981
0.022893575
0.022893575
0.02287268
0.02274076
0.02274076
0.022675871
0.022620992
0.022620992
)
;
    }
    procBoundary4to5
    {
        type            processor;
        value           nonuniform List<scalar> 
64
(
0.021840179
0.021840366
0.021840259
0.021840259
0.021796148
0.021801005
0.021804405
0.021805438
0.021804971
0.021804971
0.021764498
0.021765682
0.021766728
0.021767546
0.021767983
0.021767987
0.021767987
0.021719793
0.021719303
0.021722358
0.021727434
0.021727434
0.021688682
0.021687064
0.021683147
0.021682969
0.021682969
0.021668332
0.021668344
0.021666107
0.021667389
0.021667389
0.02166719
0.021675266
0.021693954
0.021693954
0.021700137
0.021718012
0.021740294
0.021740294
0.021728144
0.021749729
0.021749729
0.021737363
0.021795419
0.021901995
0.021901995
0.021926197
0.022069294
0.022069294
0.02211231
0.022266392
0.022266392
0.022317411
0.022317411
0.02237342
0.022459998
0.022459998
0.022510129
0.022510129
0.022487281
0.022487281
0.022553572
0.022504367
)
;
    }
    procBoundary4to11
    {
        type            processor;
        value           nonuniform List<scalar> 
26
(
0.022532684
0.022510289
0.022483495
0.022435266
0.022402453
0.022397668
0.022402997
0.022405603
0.022395803
0.022391654
0.022381109
0.022360254
0.02232914
0.022300074
0.022253612
0.022178355
0.022109733
0.022060359
0.022015779
0.021961017
0.021914065
0.02187457
0.021859531
0.021871642
0.022573726
0.022573726
)
;
    }
    procBoundary4to12
    {
        type            processor;
        value           uniform 0.021836678;
    }
}


// ************************************************************************* //
