/*--------------------------------*- C++ -*----------------------------------*\
| =========                 |                                                 |
| \\      /  F ield         | OpenFOAM: The Open Source CFD Toolbox           |
|  \\    /   O peration     | Version:  2506                                  |
|   \\  /    A nd           | Website:  www.openfoam.com                      |
|    \\/     M anipulation  |                                                 |
\*---------------------------------------------------------------------------*/
FoamFile
{
    version     2.0;
    format      ascii;
    arch        "LSB;label=32;scalar=64";
    class       volScalarField;
    location    "2.65";
    object      rho;
}
// * * * * * * * * * * * * * * * * * * * * * * * * * * * * * * * * * * * * * //

dimensions      [1 -3 0 0 0 0 0];

internalField   nonuniform List<scalar> 
1375
(
0.66556131
0.6655298
0.66554593
0.6655977
0.66565465
0.66570163
0.66561571
0.66556391
0.66553344
0.66555
0.66560044
0.66565546
0.66570085
0.66573296
0.66575307
0.66576443
0.6657703
0.66577313
0.66577465
0.66577551
0.6657762
0.66577705
0.66577814
0.66577939
0.66578077
0.66561944
0.66556792
0.66553853
0.66555566
0.66560492
0.66565814
0.66570186
0.66573274
0.66575225
0.66576331
0.66576891
0.66577158
0.66577286
0.66577363
0.6657743
0.66577512
0.66577611
0.6657771
0.66577794
0.66577881
0.66577975
0.66578077
0.66578178
0.66578242
0.6657827
0.66578291
0.66578318
0.66562352
0.66557207
0.66554392
0.66556184
0.66561006
0.66566151
0.66570354
0.66573315
0.66575181
0.66576247
0.66576801
0.6657707
0.66577205
0.66577289
0.66577371
0.66577476
0.66577599
0.66577722
0.66577818
0.66577849
0.66577831
0.66577805
0.66577803
0.66577858
0.66577921
0.66577966
0.66578029
0.66578086
0.665781
0.66578163
0.66578249
0.66578243
0.66578244
0.665784
0.6656266
0.66557512
0.66554849
0.66556768
0.66561526
0.66566515
0.66570553
0.66573374
0.66575139
0.66576137
0.66576648
0.66576889
0.66577009
0.66577091
0.66577185
0.66577311
0.66577459
0.66577597
0.66577706
0.66577794
0.66577863
0.66577891
0.6657785
0.6657778
0.66577761
0.66577796
0.66577835
0.66577842
0.66577902
0.66577949
0.66577942
0.66578071
0.66578204
0.66578269
0.6657842
0.66578626
0.66578896
0.66579274
0.66562811
0.66557685
0.66555177
0.66557241
0.66561969
0.66566833
0.66570725
0.66573419
0.66575084
0.66576007
0.66576468
0.66576679
0.66576772
0.66576824
0.665769
0.66577021
0.66577165
0.66577285
0.66577391
0.66577483
0.66577543
0.66577598
0.66577678
0.66577755
0.66577778
0.66577743
0.66577715
0.66577739
0.66577751
0.66577783
0.66577857
0.66577888
0.66577999
0.66578168
0.66578338
0.6657851
0.66578787
0.66579115
0.66579356
0.6657955
0.66579714
0.66562853
0.66557755
0.6655538
0.66557577
0.66562298
0.66567069
0.6657084
0.6657342
0.66574989
0.66575835
0.66576237
0.66576408
0.66576484
0.66576542
0.66576623
0.66576747
0.66576891
0.66577035
0.66577168
0.66577272
0.66577358
0.66577432
0.66577482
0.6657751
0.66577545
0.66577595
0.66577641
0.66577694
0.6657776
0.66577838
0.66577933
0.66577959
0.66577988
0.66578116
0.665782
0.66578365
0.66578631
0.66578899
0.66579132
0.66579364
0.66579531
0.66579603
0.6657974
0.66579755
0.66563026
0.66557928
0.66555648
0.66557945
0.66562655
0.66567342
0.66571003
0.66573476
0.66574962
0.66575767
0.66576163
0.66576342
0.66576425
0.6657649
0.6657659
0.66576736
0.66576905
0.66577076
0.66577214
0.66577307
0.66577372
0.66577418
0.66577463
0.66577508
0.66577555
0.665776
0.66577638
0.66577695
0.66577758
0.66577811
0.66577915
0.66578007
0.66578077
0.66578113
0.66578124
0.66578227
0.6657842
0.66578683
0.66578942
0.66579192
0.66579341
0.66579472
0.66579558
0.66579647
0.66579434
0.66579099
0.6656325
0.66558174
0.66555988
0.66558389
0.6656311
0.6656774
0.66571311
0.66573706
0.66575141
0.66575911
0.66576283
0.66576461
0.66576555
0.66576616
0.66576686
0.66576801
0.66576952
0.66577103
0.66577228
0.66577319
0.66577389
0.6657744
0.66577479
0.66577525
0.66577578
0.66577638
0.66577692
0.66577719
0.6657774
0.66577806
0.66577883
0.66577984
0.66578069
0.66578126
0.66578177
0.66578234
0.66578281
0.66578436
0.66578715
0.66578965
0.66579134
0.66579268
0.66579305
0.66579453
0.66579386
0.66579137
0.66578654
0.66579564
0.66563403
0.66558349
0.66556227
0.66558701
0.66563428
0.66568012
0.66571511
0.66573817
0.66575175
0.66575889
0.66576221
0.66576366
0.66576441
0.6657652
0.66576638
0.66576783
0.66576936
0.66577094
0.6657722
0.66577298
0.66577339
0.66577373
0.66577415
0.66577462
0.66577497
0.66577547
0.66577625
0.66577697
0.66577765
0.66577801
0.66577854
0.66577958
0.66578019
0.66578052
0.66578078
0.66578149
0.6657824
0.6657834
0.66578527
0.66578724
0.66578928
0.66579076
0.66579172
0.6657933
0.66579265
0.66579082
0.66578532
0.66579558
0.66580436
0.66563585
0.66558541
0.66556455
0.66558943
0.66563614
0.66568097
0.66571494
0.66573737
0.66575039
0.66575698
0.66576011
0.66576157
0.66576271
0.66576412
0.66576562
0.66576725
0.66576888
0.66577017
0.66577146
0.66577272
0.66577351
0.66577376
0.66577378
0.66577386
0.6657742
0.66577475
0.66577535
0.66577582
0.66577606
0.66577639
0.66577756
0.66577891
0.66577984
0.66578036
0.6657809
0.66578122
0.6657818
0.66578279
0.66578392
0.66578579
0.66578714
0.6657888
0.66579006
0.66579092
0.66579064
0.66578943
0.66578436
0.66579573
0.66580516
0.66563807
0.66558828
0.66556814
0.66559316
0.66563933
0.66568341
0.6657165
0.66573786
0.66575023
0.66575697
0.66576039
0.66576205
0.6657627
0.66576323
0.66576455
0.66576649
0.66576846
0.66577005
0.66577117
0.66577198
0.66577269
0.66577323
0.66577349
0.66577355
0.66577421
0.66577459
0.66577481
0.66577524
0.66577579
0.66577684
0.66577815
0.66577895
0.66577976
0.66578042
0.66578083
0.66578122
0.6657815
0.66578202
0.66578266
0.665784
0.66578532
0.66578704
0.66578813
0.66578828
0.66578827
0.66578778
0.66578371
0.66579545
0.66580516
0.66563944
0.66559048
0.6655713
0.66559645
0.66564177
0.66568484
0.66571724
0.66573833
0.66575057
0.66575699
0.66576016
0.66576189
0.66576307
0.66576402
0.66576493
0.66576592
0.66576719
0.66576878
0.66577014
0.66577105
0.66577165
0.66577224
0.66577297
0.66577386
0.66577369
0.66577391
0.66577484
0.66577542
0.66577592
0.66577617
0.66577661
0.66577749
0.66577879
0.66577954
0.66578015
0.66578098
0.66578075
0.66578053
0.66578069
0.66578195
0.66578378
0.66578553
0.66578659
0.66578586
0.66578595
0.66578585
0.66578335
0.66579419
0.66580438
0.66564012
0.66559222
0.66557435
0.66559988
0.66564433
0.6656862
0.6657176
0.66573809
0.66575011
0.66575655
0.66575975
0.66576144
0.66576264
0.66576389
0.66576535
0.66576673
0.66576781
0.66576846
0.66576867
0.66576874
0.66576926
0.66576948
0.66576957
0.66577005
0.66577186
0.66577327
0.66577378
0.66577437
0.66577492
0.66577506
0.66577454
0.6657748
0.66577613
0.66577707
0.66577822
0.66577851
0.66577884
0.66577953
0.66577964
0.66578036
0.66578156
0.66578364
0.66578459
0.66578422
0.66578438
0.66578477
0.66578272
0.66579352
0.66580377
0.66564159
0.66559448
0.66557802
0.66560423
0.66564814
0.66568906
0.66571954
0.66573929
0.66575072
0.66575665
0.66575945
0.66576076
0.66576162
0.66576266
0.66576406
0.66576558
0.66576694
0.66576793
0.66576859
0.66576901
0.66576904
0.66576926
0.66576969
0.66576932
0.66577013
0.66577168
0.6657723
0.66577268
0.66577291
0.6657732
0.66577346
0.66577399
0.66577401
0.66577489
0.66577632
0.66577721
0.6657783
0.66577878
0.66577881
0.66577917
0.66577979
0.66578184
0.66578263
0.66578316
0.66578356
0.66578423
0.66578172
0.66579273
0.66580218
0.66564297
0.66559645
0.66558129
0.66560836
0.66565197
0.66569212
0.66572177
0.66574085
0.66575187
0.66575758
0.66576021
0.66576134
0.66576195
0.66576258
0.66576348
0.66576458
0.66576582
0.66576713
0.66576834
0.6657693
0.66577004
0.66577084
0.66577146
0.66577161
0.66577089
0.66577068
0.66577144
0.66577223
0.66577241
0.66577235
0.66577273
0.66577316
0.66577366
0.66577467
0.66577509
0.66577685
0.66577754
0.66577761
0.66577772
0.66577802
0.6657784
0.66578057
0.6657817
0.66578246
0.66578322
0.66578373
0.66578094
0.66579132
0.66580069
0.6656434
0.66559735
0.66558329
0.66561127
0.66565478
0.66569433
0.6657233
0.66574176
0.66575229
0.66575783
0.66576058
0.66576197
0.66576289
0.6657638
0.66576482
0.66576578
0.66576647
0.66576684
0.66576712
0.66576754
0.66576825
0.66576928
0.66577043
0.66577163
0.66577207
0.66577179
0.66577183
0.66577232
0.66577262
0.6657723
0.66577245
0.66577219
0.66577263
0.66577403
0.66577463
0.66577519
0.6657756
0.66577599
0.66577643
0.66577702
0.66577784
0.66577979
0.66578112
0.66578273
0.66578349
0.66578354
0.66578057
0.6657901
0.66579955
0.66564378
0.66559775
0.6655844
0.66561302
0.66565642
0.66569541
0.66572373
0.66574169
0.66575185
0.66575712
0.66575981
0.66576132
0.66576242
0.66576349
0.66576464
0.66576577
0.66576678
0.66576752
0.6657679
0.66576796
0.66576786
0.66576782
0.66576828
0.66576935
0.66577064
0.66577164
0.6657721
0.66577235
0.66577258
0.66577277
0.66577241
0.66577215
0.66577232
0.66577258
0.66577349
0.66577407
0.66577465
0.66577479
0.66577528
0.66577649
0.66577763
0.66577953
0.66578149
0.66578344
0.6657839
0.66578326
0.66578013
0.66578886
0.66579824
0.6656451
0.66559878
0.66558569
0.6656145
0.66565754
0.66569586
0.66572344
0.66574077
0.66575055
0.66575564
0.66575831
0.66575999
0.6657614
0.6657628
0.66576414
0.6657653
0.6657662
0.66576696
0.66576759
0.66576811
0.66576852
0.6657687
0.66576864
0.66576853
0.66576883
0.66576954
0.6657705
0.66577135
0.66577209
0.6657729
0.66577305
0.6657729
0.66577282
0.66577255
0.66577234
0.66577259
0.66577342
0.66577452
0.66577467
0.66577543
0.66577766
0.66578007
0.66578236
0.66578428
0.665784
0.66578272
0.66577957
0.66578786
0.66579699
0.6656471
0.66560103
0.66558823
0.66561702
0.66565939
0.66569676
0.66572339
0.66573997
0.6657493
0.66575422
0.66575689
0.66575863
0.66576013
0.66576165
0.66576313
0.66576449
0.66576559
0.66576639
0.66576698
0.66576745
0.66576786
0.66576819
0.66576849
0.66576885
0.66576917
0.66576953
0.66577006
0.66577062
0.66577077
0.66577061
0.66577142
0.66577241
0.6657725
0.66577247
0.66577298
0.66577262
0.66577186
0.66577355
0.66577447
0.66577501
0.66577735
0.66578051
0.6657832
0.66578508
0.66578393
0.66578302
0.66577891
0.66578707
0.66579614
0.66564769
0.66560262
0.66559061
0.66561979
0.66566191
0.66569865
0.66572453
0.66574031
0.66574891
0.66575332
0.66575564
0.66575721
0.66575869
0.66576026
0.66576181
0.66576319
0.66576444
0.66576547
0.66576627
0.66576692
0.66576743
0.66576783
0.66576819
0.66576857
0.66576897
0.66576935
0.66576971
0.66577015
0.66577067
0.66577098
0.6657706
0.6657707
0.66577183
0.66577249
0.66577274
0.66577272
0.66577266
0.66577202
0.66577332
0.66577575
0.66577661
0.66577971
0.66578317
0.66578513
0.66578428
0.66578361
0.66577777
0.6657869
0.66579572
0.66564707
0.66560297
0.66559184
0.66562144
0.66566328
0.66569951
0.66572499
0.66574062
0.66574919
0.66575351
0.66575567
0.66575696
0.66575811
0.66575937
0.6657607
0.66576194
0.66576304
0.66576406
0.66576506
0.66576595
0.66576676
0.66576746
0.66576806
0.66576851
0.66576882
0.66576919
0.66576959
0.66577002
0.66577063
0.66577127
0.66577145
0.66577111
0.66577089
0.66577138
0.66577206
0.66577227
0.66577256
0.66577189
0.66577239
0.66577432
0.66577625
0.6657784
0.66578184
0.66578448
0.66578425
0.66578342
0.66577811
0.66578727
0.66579574
0.66564637
0.66560305
0.66559286
0.6656229
0.66566433
0.66569975
0.66572439
0.66573947
0.66574795
0.66575254
0.6657551
0.66575679
0.66575821
0.66575958
0.66576085
0.66576189
0.66576269
0.66576336
0.66576401
0.66576474
0.6657656
0.66576648
0.66576729
0.66576815
0.66576882
0.66576925
0.66576975
0.66577028
0.6657708
0.66577125
0.66577156
0.66577157
0.6657715
0.66577162
0.66577145
0.66577155
0.66577216
0.66577268
0.66577181
0.6657722
0.66577458
0.66577744
0.66578035
0.66578331
0.66578374
0.66578338
0.66577899
0.66578742
0.6657962
0.66564648
0.66560367
0.66559442
0.66562501
0.66566611
0.66570081
0.6657246
0.66573878
0.66574643
0.66575043
0.66575277
0.66575455
0.66575631
0.66575819
0.66576003
0.6657616
0.66576279
0.66576362
0.66576421
0.66576468
0.66576514
0.6657657
0.66576629
0.66576695
0.66576792
0.66576889
0.66576949
0.66576996
0.66577051
0.6657711
0.66577149
0.66577159
0.66577153
0.66577141
0.66577133
0.66577172
0.66577139
0.66577182
0.66577253
0.66577234
0.66577264
0.66577554
0.66577927
0.66578217
0.6657835
0.66578311
0.66577953
0.66578792
0.66579688
0.66564683
0.66560441
0.66559605
0.66562725
0.66566812
0.66570221
0.66572537
0.66573907
0.66574632
0.66574989
0.66575174
0.66575306
0.66575443
0.66575606
0.66575783
0.66575954
0.66576104
0.66576229
0.66576335
0.66576427
0.66576499
0.66576553
0.66576607
0.66576642
0.66576668
0.66576728
0.6657681
0.66576876
0.66576934
0.66576999
0.66577079
0.66577146
0.66577159
0.66577154
0.6657717
0.66577201
0.66577168
0.66577102
0.6657711
0.66577161
0.66577226
0.6657749
0.66577824
0.66578108
0.66578247
0.66578289
0.66577982
0.66578925
0.6657973
0.66567024
0.66570382
0.66572641
0.66573963
0.66574655
0.66574993
0.66575167
0.66575291
0.66575416
0.66575551
0.66575683
0.66575802
0.66575906
0.66576004
0.665761
0.66576194
0.66576287
0.66576384
0.66576481
0.66576571
0.66576619
0.6657662
0.66576639
0.6657669
0.66576769
0.66576857
0.66576969
0.66577086
0.66577172
0.6657719
0.66577204
0.66577185
0.66577161
0.66577093
0.6657703
0.66577032
0.66577173
0.66577422
0.66577729
0.66578015
0.66578165
0.66578251
0.66578042
0.66578998
0.66579758
0.66575005
0.66575166
0.66575279
0.66575395
0.6657552
0.66575641
0.66575748
0.66575836
0.66575905
0.66575957
0.66575998
0.66576046
0.66576114
0.66576182
0.6657627
0.66576405
0.66576518
0.66576533
0.66576539
0.66576584
0.66576682
0.66576797
0.66576916
0.66577055
0.66577142
0.66577183
0.66577151
0.66577102
0.66577008
0.66576955
0.66576942
0.66577065
0.66577315
0.66577609
0.66577938
0.66578117
0.66578174
0.66578043
0.6657897
0.66579789
0.66575666
0.66575732
0.66575788
0.6657584
0.66575894
0.66575945
0.66575994
0.6657605
0.66576075
0.66576067
0.66576068
0.66576199
0.66576344
0.66576353
0.66576392
0.66576546
0.66576681
0.66576803
0.66576968
0.66577036
0.66577061
0.6657705
0.66576953
0.66576872
0.66576853
0.66576923
0.66577161
0.66577525
0.66577881
0.66578058
0.66578132
0.66578006
0.66579057
0.66579687
0.66575748
0.66575796
0.66575835
0.66575875
0.6657593
0.66575964
0.66575965
0.66575916
0.66575986
0.6657611
0.66576115
0.66576204
0.665764
0.6657658
0.66576694
0.6657678
0.6657686
0.66576915
0.66576876
0.66576766
0.66576701
0.66576736
0.66577051
0.66577469
0.66577793
0.66577993
0.66578095
0.66577942
0.66579
0.66579593
0.66575731
0.66575784
0.66575852
0.66575847
0.66575787
0.66575825
0.66575913
0.66575899
0.6657601
0.66576267
0.66576461
0.66576543
0.66576562
0.66576637
0.66576664
0.66576611
0.66576527
0.6657662
0.66576951
0.66577363
0.66577659
0.66577831
0.66577997
0.6657786
0.66578888
0.66579519
0.66575705
0.66575683
0.66575739
0.66575774
0.66575714
0.66575796
0.66576076
0.66576317
0.66576391
0.66576338
0.66576405
0.66576432
0.66576419
0.66576535
0.6657684
0.66577201
0.66577462
0.66577652
0.66577872
0.66577752
0.66578914
0.66579429
0.66575573
0.66575625
0.66575557
0.66575587
0.66575881
0.66576143
0.66576174
0.66576156
0.66576245
0.66576358
0.6657645
0.66576722
0.66577043
0.66577297
0.66577496
0.66577733
0.66577711
0.66579041
0.6657938
0.66575445
0.66575485
0.66575737
0.66576006
0.66576034
0.66576062
0.66576243
0.66576443
0.66576666
0.66576959
0.66577213
0.66577374
0.66577627
0.66577739
0.66579073
0.66579375
0.66575449
0.66575676
0.66575929
0.66576017
0.66576117
0.66576313
0.66576658
0.66576946
0.66577154
0.66577313
0.66577573
0.66577817
0.66579102
0.66579485
0.66575916
0.6657609
0.66576186
0.66576508
0.66576872
0.6657713
0.66577328
0.66577572
0.66577834
0.66579195
0.66579583
0.66576172
0.66576377
0.66576712
0.66577027
0.66577264
0.66577665
0.66577877
0.66579221
0.66579642
0.66576587
0.66576913
0.66577207
0.66577781
0.66577985
0.66579205
0.66579772
0.66576849
0.66577216
0.66577756
0.66578044
0.66579288
0.66579713
0.66577677
0.66578193
0.66579432
0.66579522
0.66578202
0.66579663
0.66579477
0.66579931
0.6657954
)
;

boundaryField
{
    Side
    {
        type            empty;
    }
    Inlet
    {
        type            calculated;
        value           nonuniform List<scalar> 
32
(
0.66578671
0.66578683
0.66578712
0.66578741
0.66578736
0.66578719
0.66578702
0.66578689
0.66578675
0.66578658
0.66578637
0.66578618
0.66578602
0.66578585
0.66578564
0.66578547
0.66578546
0.66578542
0.66578535
0.66578561
0.66578605
0.66578623
0.66578619
0.66578599
0.66578566
0.66578537
0.66578514
0.6657849
0.66578479
0.66578486
0.66578487
0.66578475
)
;
    }
    Airfoil
    {
        type            calculated;
        value           nonuniform List<scalar> 0();
    }
    Outlet
    {
        type            calculated;
        value           nonuniform List<scalar> 0();
    }
    procBoundary4to3
    {
        type            processor;
        value           nonuniform List<scalar> 
57
(
0.6655591
0.66552633
0.66554162
0.66559439
0.66565313
0.66570188
0.66573478
0.66573478
0.66575577
0.66576772
0.6657737
0.6657763
0.66577727
0.66577765
0.66577796
0.66577855
0.66577945
0.66578063
0.66578195
0.66578214
0.66578214
0.66578318
0.66578371
0.66578392
0.66578402
0.66578424
0.66578458
0.66578481
0.66578308
0.66578308
0.66578288
0.6657833
0.66578327
0.66578348
0.66578406
0.66578504
0.66578595
0.66578595
0.66578851
0.66579142
0.66579462
0.66579561
0.66579561
0.66579756
0.66579853
0.66579705
0.66579705
0.66579738
0.66579778
0.66579478
0.66579478
0.66579184
0.66578667
0.66578667
0.66579594
0.66580334
0.66580334
)
;
    }
    procBoundary4to5
    {
        type            processor;
        value           nonuniform List<scalar> 
64
(
0.66560517
0.66559763
0.66562949
0.66562949
0.66567233
0.66570547
0.66572752
0.66574029
0.66574688
0.66574688
0.66575039
0.66575192
0.66575294
0.66575391
0.66575492
0.66575585
0.66575585
0.66575638
0.66575675
0.665757
0.66575718
0.66575718
0.66575673
0.66575688
0.66575702
0.66575708
0.66575708
0.66575635
0.66575621
0.66575643
0.66575701
0.66575701
0.66575545
0.66575553
0.6657554
0.6657554
0.6657539
0.66575426
0.6657547
0.6657547
0.66575316
0.66575367
0.66575367
0.6657529
0.66575442
0.6657569
0.6657569
0.66575715
0.66575973
0.66575973
0.66576021
0.66576309
0.66576309
0.66576434
0.66576434
0.6657674
0.66577143
0.66577143
0.66577668
0.66577668
0.66578086
0.66578086
0.66579992
0.66579657
)
;
    }
    procBoundary4to11
    {
        type            processor;
        value           nonuniform List<scalar> 
26
(
0.66561532
0.66561855
0.66562286
0.66562699
0.66562969
0.66563094
0.66563295
0.66563487
0.66563578
0.66563695
0.66563841
0.66563962
0.6656403
0.6656421
0.66564403
0.66564469
0.66564514
0.66564632
0.66564771
0.66564779
0.66564691
0.6656462
0.66564669
0.66564772
0.66561367
0.66561367
)
;
    }
    procBoundary4to12
    {
        type            processor;
        value           uniform 0.66564729;
    }
}


// ************************************************************************* //
