/*--------------------------------*- C++ -*----------------------------------*\
| =========                 |                                                 |
| \\      /  F ield         | OpenFOAM: The Open Source CFD Toolbox           |
|  \\    /   O peration     | Version:  2506                                  |
|   \\  /    A nd           | Website:  www.openfoam.com                      |
|    \\/     M anipulation  |                                                 |
\*---------------------------------------------------------------------------*/
FoamFile
{
    version     2.0;
    format      ascii;
    arch        "LSB;label=32;scalar=64";
    class       volScalarField;
    location    "2.75";
    object      k;
}
// * * * * * * * * * * * * * * * * * * * * * * * * * * * * * * * * * * * * * //

dimensions      [0 2 -2 0 0 0 0];

internalField   nonuniform List<scalar> 
19257
(
11.24325
10.215643
9.5720467
9.1311473
8.8052178
8.5530314
8.3518962
8.1880785
8.0524857
7.9388805
7.8427765
7.7606771
7.6903636
7.6294899
7.5766649
7.5306974
7.4901502
7.4545433
7.4233567
7.3959319
7.3714007
7.3496741
7.3308026
7.3148569
7.3007372
7.2886047
7.2780311
7.2715925
7.2703289
7.2704091
7.2743249
7.2866545
7.3089039
7.3349443
7.363545
7.3994088
7.4449983
7.495187
7.5532129
7.637257
7.7383244
7.862379
7.9846246
8.2175769
8.3973596
8.6921402
8.9363583
10.621417
10.683699
11.224882
10.247465
9.6258602
9.1883704
8.8612755
8.606511
8.4023092
8.2352838
8.0965695
7.9799751
7.8810326
7.796336
7.7235283
7.6604146
7.6054661
7.5575128
7.5152173
7.4778566
7.4450626
7.4160695
7.3902041
7.3672271
7.3472709
7.3300478
7.3148647
7.3018421
7.2904013
7.2829152
7.2801786
7.2792075
7.2823867
7.2929275
7.3135036
7.3370116
7.3648714
7.3975935
7.4411688
7.488919
7.5543411
7.6334854
7.7023689
7.8206427
7.9765914
8.1728158
8.3274406
8.6021967
8.8727654
10.573825
10.382029
11.301958
10.349741
9.7193367
9.2738068
8.9395433
8.6781094
8.4678281
8.2952923
8.1516187
8.0305585
7.9275479
7.8392204
7.7630297
7.69687
7.6391502
7.5885746
7.5439784
7.5045134
7.4697059
7.4388504
7.4113592
7.3867785
7.3654152
7.3467937
7.330323
7.3161033
7.3038455
7.2948477
7.2901442
7.2881645
7.2903631
7.2988958
7.3169117
7.3384355
7.3651843
7.3959825
7.4333444
7.4834864
7.5338558
7.6059448
7.6962512
7.8047005
7.9262209
8.119911
8.3068317
8.5230775
8.9165624
10.594383
10.141239
11.342973
10.425183
9.8031233
9.3558755
9.016843
8.7500108
8.5343727
8.3567487
8.2082983
8.082859
7.9758395
7.8838206
7.8041919
7.7348376
7.6742826
7.6210308
7.5739891
7.5323392
7.4954644
7.4626045
7.4334447
7.4071824
7.3841893
7.3642398
7.3463398
7.3308985
7.3177353
7.3071023
7.3004222
7.2973043
7.2986506
7.3052558
7.3207315
7.3404419
7.3653123
7.396172
7.4316108
7.4751121
7.5347066
7.6006761
7.67982
7.7777814
7.9268013
8.0903715
8.2696187
8.4660213
8.8524417
10.013808
9.9417299
11.389367
10.507107
9.8921331
9.442862
9.0990675
8.8267056
8.6054655
8.4224542
8.2689642
8.1388523
8.027553
7.9315441
7.8482198
7.7754633
7.7118
7.6557071
7.606017
7.5619554
7.5228287
7.4878654
7.456806
7.4288009
7.4039509
7.3824089
7.3632133
7.346277
7.3320358
7.3201516
7.3115289
7.3069519
7.3067371
7.3120905
7.3249158
7.3432968
7.3660492
7.3959232
7.4296487
7.4721228
7.5214565
7.5835102
7.6667019
7.772363
7.8903198
8.0543845
8.2272356
8.4246957
8.7126294
9.8483585
9.7959304
11.430932
10.585452
9.9808453
9.5315453
9.1838921
8.9063863
8.6796771
8.4913033
8.3327316
8.1978169
8.0820376
7.9818563
7.894706
7.8184348
7.7514308
7.6923279
7.6398854
7.5931872
7.5516371
7.5145224
7.481422
7.4515817
7.4247906
7.4013764
7.3809573
7.3625656
7.346597
7.3336249
7.3236014
7.3172046
7.3152116
7.3193199
7.3294826
7.3462367
7.3675744
7.3943828
7.428311
7.4673508
7.5181674
7.5769744
7.6512104
7.7481731
7.8866174
8.0321296
8.1948526
8.3853914
8.6487441
9.7548718
9.6840634
11.470478
10.662073
10.069456
9.6214221
9.270759
8.9885824
8.7566435
8.5629678
8.399286
8.2595033
8.1391239
8.0346759
7.9435653
7.8635894
7.7930821
7.7307491
7.6754376
7.6260024
7.5818923
7.5424604
7.5071262
7.4753272
7.4467324
7.4213704
7.3992041
7.379436
7.3621789
7.347541
7.3360324
7.3280835
7.3239834
7.3267054
7.3346306
7.3496349
7.3700358
7.3944868
7.4247151
7.4637388
7.5109694
7.5700035
7.6404624
7.7398734
7.8556926
8.0083859
8.1586926
8.3448955
8.5879247
9.6752579
9.5971331
11.506451
10.735158
10.156264
9.7110576
9.3584539
9.0722532
8.83549
8.6367201
8.4679985
8.3233398
8.1983275
8.0895451
7.9943188
7.9105388
7.836483
7.7708172
7.7124372
7.6602232
7.6133804
7.5715204
7.5339625
7.5000297
7.4695631
7.4423101
7.4181558
7.3967255
7.3780393
7.3620913
7.3489696
7.3393015
7.3337559
7.334134
7.3403535
7.3536272
7.3723502
7.395136
7.4240526
7.459569
7.5055066
7.5624139
7.6317818
7.7193993
7.8432382
7.9874412
8.1340554
8.3128577
8.5679388
9.5120327
9.5281467
11.538649
10.803806
10.240003
9.7990936
9.445658
9.156205
8.9151573
8.7116507
8.5380744
8.3886476
8.2590178
8.1458846
8.0465164
7.9588722
7.8811714
7.8121063
7.7505554
7.6954936
7.6459306
7.6014973
7.561582
7.525555
7.4930253
7.463862
7.4379603
7.4147945
7.3943578
7.3768185
7.3623141
7.3510548
7.3441489
7.3414326
7.3464684
7.3583394
7.3748806
7.395937
7.4230971
7.4570467
7.4999109
7.5540412
7.6232513
7.7098781
7.826216
7.9659186
8.1177791
8.2882074
8.5357656
9.3746399
9.474045
11.568212
10.868115
10.319841
9.8843221
9.5311009
9.239236
8.9944617
8.7866287
8.6084904
8.4544593
8.3203331
8.2029009
8.0994192
8.0079199
7.9265894
7.8541047
7.78934
7.7313272
7.6790878
7.6320749
7.5897046
7.5514306
7.5168487
7.4856848
7.4578896
7.4331094
7.4111302
7.392042
7.375969
7.3631673
7.3545882
7.3494032
7.3530489
7.3630663
7.3778093
7.3972259
7.4219912
7.4549272
7.4955956
7.5474631
7.6130479
7.6980956
7.8114058
7.9468737
8.0942462
8.2598319
8.4981931
9.2666907
9.427838
11.594757
10.927035
10.39467
9.965539
9.6135009
9.3200173
9.0720883
8.8603902
8.678016
8.5196526
8.3812384
8.2596417
8.1521918
8.0568789
7.971977
7.8961444
7.828221
7.7672073
7.7122435
7.662706
7.6179766
7.577453
7.5407442
7.5076565
7.4780213
7.4515138
7.4278972
7.4072447
7.3896482
7.3753915
7.3651399
7.3579402
7.360277
7.3679652
7.3806144
7.3987705
7.4224344
7.4530005
7.4925746
7.5417026
7.6060633
7.686971
7.7998504
7.9301551
8.0750469
8.2440496
8.4620923
9.1886297
9.3997813
11.61813
10.980441
10.463762
10.041462
9.6913434
9.3969868
9.1465765
8.9315404
8.7453543
8.583032
8.4405995
8.3150618
8.2038259
8.1048621
8.016526
7.9374557
7.8664812
7.8025887
7.7448992
7.6927953
7.6457616
7.603116
7.5643661
7.5292931
7.4978105
7.469604
7.4443765
7.4222144
7.403097
7.3873342
7.375405
7.3668465
7.3671557
7.3727481
7.3838602
7.4003554
7.4225714
7.4513653
7.4893538
7.5370005
7.5977436
7.6794412
7.7830372
7.9146027
8.0569013
8.2228157
8.427065
9.1250188
9.3763948
11.638624
11.027594
10.525639
10.110618
9.7631512
9.4686267
9.2164243
8.9985903
8.8090879
8.6432169
8.4971578
8.3679976
8.253241
8.1508634
8.0592896
7.9771393
7.9032689
7.8366365
7.7763782
7.7218711
7.6725753
7.6278403
7.587141
7.5502036
7.5169332
7.4870754
7.4602704
7.4366021
7.4160683
7.3989013
7.3853612
7.3763453
7.3729972
7.3775898
7.3874431
7.4024764
7.4230906
7.4502376
7.4857345
7.533277
7.5923525
7.6698154
7.7770932
7.9028117
8.0432557
8.2044133
8.4417131
9.1150687
9.3585775
11.656457
11.069036
10.580677
10.172647
9.8279747
9.5337182
9.2802302
9.0601502
8.8678644
8.6988892
8.5496143
8.4171997
8.2992654
8.1937864
8.0992157
8.0142065
7.9376488
7.8684842
7.8058204
7.7490605
7.6976762
7.651026
7.6084833
7.5697729
7.5348237
7.5034379
7.4752349
7.4502386
7.428427
7.4099289
7.3949526
7.3849023
7.3789685
7.3824947
7.3909074
7.4044563
7.4234706
7.4496615
7.4837696
7.5286272
7.5867178
7.6625112
7.7655222
7.8905306
8.0289009
8.1916725
8.4142036
9.0459861
9.3400466
11.671554
11.104197
10.627716
10.226173
9.8844584
9.5909174
9.3366466
9.1148706
8.9202852
8.7486711
8.5966134
8.4614026
8.3407096
8.2325209
8.1352953
8.0477141
7.9687364
7.8973074
7.832491
7.7736763
7.7203741
7.6719914
7.627823
7.5875338
7.5510385
7.5182255
7.4887355
7.4625211
7.4395807
7.4199614
7.4037342
7.3926345
7.3846345
7.3870502
7.3939595
7.4061053
7.4238565
7.4483888
7.4817752
7.5245818
7.5816918
7.6554809
7.7564558
7.8792912
8.0174301
8.1807707
8.410267
9.0178061
9.3296981
11.684057
11.133094
10.666674
10.27082
9.9318923
9.6392098
9.3845119
9.1614889
8.9651076
8.7913694
8.637011
8.4994288
8.376393
8.2659073
8.1664392
8.0766824
7.99562
7.9222404
7.8555955
7.7950297
7.74006
7.6901434
7.6445514
7.6028908
7.5650694
7.5309917
7.5003493
7.4730419
7.4490562
7.4284036
7.4110798
7.3989753
7.3891415
7.3906744
7.3963193
7.4071383
7.4240229
7.4474838
7.4794285
7.521409
7.576118
7.6488673
7.7485636
7.8699299
8.0093146
8.1734223
8.4044437
9.0097019
9.3235979
11.693897
11.155625
10.697184
10.305918
9.9693504
9.6774865
9.4225934
9.1987244
9.0010635
8.8257658
8.6696543
8.530198
8.4052738
8.2929467
8.1916821
8.1001831
8.0174507
7.9424967
7.8743526
7.8123423
7.7559974
7.7048157
7.6580777
7.6153098
7.5764149
7.541294
7.5096926
7.4814977
7.4566492
7.4351253
7.4168579
7.4039012
7.3925057
7.3932754
7.3979913
7.4079135
7.4237983
7.4465988
7.4775172
7.51907
7.5728809
7.6446584
7.7419941
7.8645163
8.0051915
8.1727756
8.3991691
8.9974104
9.3209449
11.700996
11.171742
10.719005
10.33114
9.9963872
9.7052012
9.450283
9.2258628
9.0272992
8.850884
8.6935023
8.5526925
8.4263829
8.3127001
8.2101323
8.1173727
8.0334205
7.9573261
7.8881017
7.825034
7.7676765
7.7155514
7.6679728
7.6243952
7.5847055
7.5487919
7.5164413
7.4875728
7.4620978
7.439937
7.4210488
7.4074821
7.3952075
7.3955108
7.3997464
7.4092451
7.4248393
7.4473578
7.4781983
7.5190242
7.5732382
7.6446169
7.7424109
7.8657443
8.0071466
8.172997
8.4025191
8.9939763
9.3229862
11.705255
11.181299
10.731929
10.346078
10.012402
9.7216379
9.4666375
9.2418552
9.0427441
8.8656704
8.7075885
8.5660304
8.4389231
8.3244284
8.2210778
8.1275708
8.0428861
7.966094
7.8962215
7.8325349
7.7746009
7.7219437
7.6739057
7.629902
7.5898003
7.5534764
7.5207394
7.4915587
7.465827
7.4434159
7.4243461
7.4107026
7.3985524
7.3990393
7.4033561
7.4128941
7.4286331
7.4514593
7.4825575
7.5238843
7.5783937
7.6508404
7.7499506
7.8722678
8.0119439
8.1767672
8.4054749
9.0147395
9.329649
11.706619
11.184322
10.73591
10.350568
10.017105
9.7263747
9.4713371
9.2464123
9.0470676
8.8697495
8.7114775
8.5697285
8.4424141
8.3276958
8.2241027
8.1303591
8.0454501
7.9684478
7.8983831
7.8345175
7.7764322
7.7236388
7.6755084
7.6314538
7.5913227
7.5549723
7.5222373
7.4931345
7.4675239
7.4452274
7.4263479
7.4129576
7.4013974
7.4023194
7.4068377
7.4164658
7.4323411
7.4553827
7.4867368
7.5284655
7.5837275
7.6571728
7.7577557
7.8794267
8.0182393
8.1824951
8.4138521
9.0342524
9.3344237
11.705187
11.181308
10.731982
10.346147
10.012474
9.7217064
9.4667082
9.2418837
9.0427428
8.8656302
8.7074955
8.5659114
8.4388261
8.3243752
8.2210421
8.1275492
8.0428788
7.966103
7.8962477
7.8325759
7.7746767
7.7220273
7.6740065
7.6300531
7.5900018
7.5536842
7.5209693
7.4919178
7.4663357
7.4440387
7.4251618
7.4117676
7.3998949
7.4005144
7.4048237
7.4142247
7.4297899
7.4523828
7.4831605
7.5242321
7.5788245
7.6513655
7.7503904
7.8723464
8.0118072
8.1766629
8.4059126
9.0121185
9.3291374
11.700906
11.171746
10.719103
10.331277
9.9965158
9.7052911
9.4503126
9.2258472
9.0272161
8.8507698
8.6933889
8.5526053
8.4263219
8.3126594
8.2101011
8.117357
8.0334059
7.9573247
7.8881405
7.8251197
7.7678431
7.7157468
7.6682013
7.6247036
7.585076
7.5491029
7.5166808
7.487898
7.4624855
7.4402616
7.4214489
7.4080752
7.396041
7.3965013
7.4008732
7.4104008
7.4259963
7.4484472
7.4789601
7.5198578
7.5741303
7.646282
7.7435441
7.8659268
8.0067835
8.173272
8.402109
8.9989113
9.3244141
11.693839
11.15564
10.697277
10.306065
9.9695284
9.6775727
9.4226215
9.1987531
9.0009997
8.8256449
8.6695414
8.5301213
8.4051911
8.2928655
8.1916214
8.1001468
8.0174133
7.9424755
7.874371
7.812399
7.7561268
7.7049491
7.6582431
7.615582
7.5767502
7.5414809
7.5097281
7.48159
7.4567268
7.4350075
7.4167433
7.4038705
7.3926042
7.3934718
7.3982897
7.4082143
7.4241413
7.4468193
7.4777508
7.5191982
7.5742626
7.6463085
7.7442995
7.8658917
8.0058517
8.1717109
8.4023142
8.9948008
9.3221682
11.68406
11.13307
10.666752
10.270871
9.9319977
9.6392221
9.3845081
9.1614913
8.9650108
8.7912313
8.6369132
8.4993622
8.3762944
8.2658187
8.1663783
8.0766531
7.9955906
7.9222115
7.8555822
7.7950378
7.7401151
7.6901793
7.6446361
7.6031327
7.5653726
7.5310488
7.5002147
7.4729666
7.4489073
7.4280153
7.4106771
7.3986678
7.3888966
7.3905814
7.3962549
7.406947
7.4235196
7.4471435
7.4789563
7.5216031
7.577288
7.6515033
7.7505586
7.8712959
8.0096676
8.1750361
8.4018522
8.9992787
9.3235445
11.671565
11.104099
10.627741
10.22612
9.8844967
9.5909143
9.336657
9.114885
8.9202634
8.7485902
8.5965392
8.4613273
8.3405885
8.2324252
8.1352333
8.0476864
7.9686956
7.8972656
7.8324785
7.773695
7.7204171
7.6719882
7.6278541
7.5877422
7.5512712
7.5181399
7.4885087
7.4624003
7.4393391
7.4194793
7.4032525
7.3922342
7.3844066
7.3869798
7.3938066
7.4054655
7.4231491
7.4473042
7.4806837
7.5248716
7.5827933
7.6575506
7.7575503
7.8792504
8.0177489
8.1811305
8.4103712
9.0212133
9.3299654
11.65638
11.068888
10.58057
10.172497
9.8279285
9.5336966
9.2802054
9.0601553
8.8678197
8.6987822
8.5494992
8.4170826
8.299117
8.1936932
8.099149
8.0141384
7.9375536
7.8684017
7.8057547
7.7490047
7.6976226
7.6509568
7.6084968
7.5700002
7.5349836
7.5032372
7.4750148
7.4502028
7.4283034
7.4096615
7.3947045
7.3848417
7.3791688
7.3827516
7.3907137
7.4037541
7.4222803
7.4486184
7.4833518
7.5277517
7.5870186
7.6636945
7.7677529
7.8910259
8.0288316
8.1924814
8.420489
9.0438741
9.3405166
11.638548
11.027535
10.525621
10.110598
9.7631277
9.4686011
9.2164135
8.9985763
8.8090362
8.6430991
8.497043
8.3678499
8.2530687
8.1507404
8.0591726
7.9770076
7.903121
7.8365097
7.7762604
7.7217984
7.6725121
7.6277883
7.5871806
7.5504495
7.5170193
7.4868256
7.4601358
7.4366875
7.4160655
7.3987701
7.385281
7.37655
7.3734388
7.377931
7.3872899
7.4016495
7.4219764
7.4489442
7.4844791
7.5327731
7.594723
7.6721104
7.776056
7.9028974
8.0433572
8.2052262
8.4336947
9.0767121
9.3558086
11.617953
10.980131
10.463457
10.041295
9.6912668
9.3969186
9.1465926
8.9315184
8.7452837
8.5829209
8.4405102
8.3149138
8.2036538
8.1047075
8.0163765
7.9373121
7.8663628
7.802505
7.7448388
7.6927853
7.6457144
7.6030787
7.5644588
7.5295578
7.4977723
7.4692699
7.4442043
7.4221606
7.4029157
7.3870581
7.3752735
7.3670466
7.3675282
7.3730204
7.3836378
7.3996496
7.4212465
7.4496609
7.4882799
7.5377961
7.5989166
7.6782305
7.7855666
7.9166165
8.0590904
8.2233557
8.4534309
9.1132981
9.3752867
11.594511
10.926762
10.394533
9.9654683
9.6135088
9.3200553
9.0721497
8.8604164
8.6779792
8.5196147
8.3811983
8.2595112
8.1520468
8.0567005
7.971818
7.8960431
7.82817
7.7671584
7.7121782
7.6626348
7.6178924
7.5774303
7.5409171
7.5079077
7.4778733
7.4511544
7.4277076
7.4071011
7.3893863
7.3750875
7.365034
7.3580474
7.3605748
7.3681874
7.3803449
7.3977383
7.4207319
7.4525043
7.4921171
7.541878
7.605336
7.6900619
7.799458
7.9314028
8.0768225
8.2408138
8.4698547
9.1629947
9.4007314
11.568185
10.867957
10.319853
9.8843924
9.5311994
9.2393683
8.9945603
8.7867121
8.6085281
8.4544918
8.3203649
8.2027965
8.0992979
8.007755
7.9264748
7.8540562
7.7893191
7.7312276
7.6790312
7.6320471
7.5897031
7.551438
7.5170228
7.4858936
7.4576757
7.4327699
7.4109485
7.3918509
7.3757423
7.3630517
7.3546057
7.3496261
7.3535269
7.3631201
7.3772002
7.3960014
7.4218865
7.4536419
7.49442
7.5473889
7.6157143
7.6986048
7.8137957
7.9512216
8.0967707
8.2643737
8.4983116
9.2213739
9.4328449
11.538626
10.803534
10.239889
9.7990925
9.4456491
9.156284
8.9152465
8.7117604
8.5381905
8.3886993
8.2590722
8.1458336
8.0464173
7.9587578
7.8811154
7.8120806
7.7505204
7.6954059
7.6459663
7.6015369
7.5616015
7.5255476
7.4932092
7.4639497
7.4375853
7.4144374
7.3941955
7.376682
7.3622185
7.3510531
7.3440775
7.3416743
7.3466697
7.3581378
7.3743489
7.3952489
7.421332
7.4556047
7.5015375
7.5559531
7.6224659
7.7100819
7.8301655
7.9624518
8.1160011
8.2881421
8.527129
9.2969684
9.4736205
11.506146
10.734776
10.156135
9.7110101
9.3583945
9.0722545
8.8355484
8.6368418
8.4681205
8.3234215
8.1983839
8.0895431
7.9942563
7.9104471
7.8364154
7.7708061
7.7123612
7.6601754
7.6134346
7.5715939
7.5340183
7.500138
7.4698392
7.4424345
7.4178719
7.3964292
7.3777678
7.3618225
7.3489327
7.3392745
7.3336208
7.3342691
7.3403356
7.3536007
7.3718549
7.3938093
7.4231286
7.4595232
7.5036332
7.559106
7.6299208
7.7270426
7.8383793
7.9836998
8.1388552
8.3114823
8.5585304
9.3938206
9.5251287
11.470515
10.66177
10.069386
9.6214058
9.2707401
8.9885566
8.7566554
8.5630477
8.399342
8.2595496
8.1391224
8.0346814
7.9434904
7.8634853
7.792997
7.730786
7.6753814
7.6259792
7.5819048
7.5425638
7.5071989
7.4754624
7.4471127
7.4215499
7.3988
7.3789447
7.3617899
7.3474294
7.3360957
7.3279141
7.323845
7.3267534
7.3349308
7.3496366
7.3690036
7.3941761
7.4237913
7.4634257
7.512411
7.5720969
7.6482298
7.7340003
7.8675649
8.0048001
8.1652835
8.343859
8.5998895
9.4981591
9.5905485
11.431518
10.585424
9.9808501
9.5315919
9.1839396
8.9063712
8.6796516
8.4913326
8.3327134
8.1978261
8.0819769
7.9818252
7.8946385
7.8183601
7.7513562
7.6922897
7.6398362
7.5932291
7.5516565
7.5146189
7.4814804
7.4517839
7.425155
7.4013337
7.3803968
7.3621509
7.3464127
7.3334427
7.3236082
7.3170515
7.3149573
7.3192115
7.3296716
7.3461919
7.3675526
7.3937371
7.4281289
7.4681005
7.5144124
7.57529
7.6494497
7.7541234
7.8686987
8.0230484
8.1891142
8.3738206
8.6546226
9.6543551
9.675095
11.389908
10.507188
9.8922513
9.4430444
9.0992354
8.8267511
8.6054375
8.4224524
8.2689058
8.1388398
8.0274601
7.9314389
7.848124
7.7754229
7.7117592
7.6556583
7.6059843
7.5620534
7.5228685
7.4880239
7.456893
7.4290753
7.4041505
7.3820689
7.3627843
7.3459468
7.3317555
7.3202747
7.3115464
7.3063431
7.3065046
7.3119782
7.325491
7.3434148
7.3659138
7.3935864
7.4269133
7.4723775
7.5273938
7.5877364
7.6739105
7.7639917
7.9034951
8.0557761
8.2279309
8.4182975
8.6864933
9.7651001
9.7841246
11.343248
10.425249
9.8032877
9.3561248
9.0170966
8.7501315
8.5343798
8.3567517
8.2082519
8.0828354
7.9757681
7.8837349
7.8041001
7.7347705
7.674251
7.620971
7.5739757
7.5324611
7.4954956
7.4627247
7.4335627
7.4075404
7.3842223
7.3637608
7.3458304
7.3305801
7.3177557
7.3073033
7.3002015
7.2965666
7.298451
7.3057783
7.3212679
7.3407483
7.364914
7.3946216
7.4367732
7.4820835
7.5275037
7.5942204
7.6767801
7.7833488
7.9017188
8.0751921
8.2724828
8.4624957
8.7844212
9.9741471
9.9287176
11.3025
10.349958
9.7195047
9.2740552
8.9397993
8.6782512
8.4678846
8.2953569
8.1516213
8.030548
7.927486
7.8391979
7.7629725
7.6967816
7.6391164
7.5884518
7.5439302
7.5046471
7.4697089
7.4388467
7.4115276
7.3871615
7.3653299
7.3462923
7.3297436
7.3158802
7.304449
7.2950248
7.2892468
7.2871825
7.2906625
7.2999741
7.3170138
7.33829
7.3633953
7.395805
7.4300318
7.4871746
7.5481487
7.6124199
7.6919484
7.7998153
7.9445425
8.120881
8.2770651
8.5135363
8.8245245
10.120516
10.113357
11.225321
10.247766
9.6260248
9.1885785
8.8615064
8.6066671
8.4024146
8.2353922
8.0966448
7.9800249
7.8809839
7.7964035
7.7235159
7.6603696
7.6054764
7.5573536
7.5151464
7.4780003
7.4450741
7.416064
7.3903208
7.3673926
7.347071
7.329595
7.3143229
7.3015387
7.2913235
7.2831886
7.2787158
7.2784318
7.2829382
7.294347
7.3133361
7.3359287
7.3643587
7.3981611
7.4500737
7.5113403
7.5459295
7.6170344
7.7154003
7.8355988
7.9404562
8.1620706
8.3738179
8.6150146
8.8921936
10.293227
10.357024
11.243566
10.215828
9.5721376
9.1312976
8.8054354
8.5532306
8.3520938
8.1882308
8.0526133
7.9389524
7.842724
7.7607888
7.6903141
7.6294635
7.5767091
7.5305245
7.4901806
7.454686
7.4233204
7.3959383
7.3714125
7.3498094
7.3306142
7.3140831
7.3001245
7.2883019
7.2788495
7.2717853
7.2684002
7.2695686
7.2752077
7.287002
7.3086294
7.3349343
7.3635271
7.4005823
7.4439578
7.5111389
7.5890735
7.6420154
7.7192248
7.8453065
7.9635757
8.2072487
8.4035786
8.7241935
8.925012
10.457895
10.661057
34.382571
20.595206
11.226604
9.6943585
9.5374476
9.450525
9.3167018
9.1008211
8.8825286
8.6410009
8.4273536
8.2141828
8.0174611
7.8385568
7.6989822
7.5625295
7.4280114
7.2931359
7.168079
7.064885
6.9792502
6.9141191
6.8645557
6.8263303
6.7985103
6.7791842
6.7647528
6.7540609
6.7455158
6.738651
6.7333008
6.7294444
6.7267115
6.72602
6.7267067
6.7298477
6.7356993
6.7448945
6.7582197
6.7769956
6.802834
6.8376378
6.8843412
6.9469935
7.0319107
7.1492848
7.3182886
7.579538
8.0849933
33.96789
17.723105
10.715294
9.4595032
9.4942738
9.3388319
9.2099229
9.006062
8.8016533
8.5648598
8.3671417
8.1582049
7.979322
7.8051489
7.6655569
7.5406825
7.4190449
7.2883063
7.163994
7.0629839
6.9843011
6.9237321
6.8767129
6.8403203
6.8134643
6.7949
6.7810208
6.7708291
6.7626193
6.7557417
6.7505599
6.7469204
6.7443687
6.7437312
6.7444935
6.7478669
6.7538333
6.7631918
6.7766896
6.7956645
6.8217607
6.8569143
6.9039879
6.9671017
7.052624
7.1707884
7.3409124
7.6038926
8.1153972
34.108195
15.991224
10.335066
9.46582
9.4683364
9.2873057
9.1593189
8.9510693
8.7576483
8.5262972
8.3366551
8.1331659
7.9640398
7.7943701
7.6556066
7.5275974
7.4131712
7.2910143
7.1697897
7.0711543
6.9961018
6.9373652
6.8903608
6.8542692
6.828585
6.8102871
6.7966896
6.7868981
6.7790222
6.7721385
6.7670889
6.7637126
6.7613306
6.7608151
6.7616743
6.7653006
6.7713599
6.7809263
6.7946418
6.8138506
6.8402378
6.8757825
6.9232829
6.9869141
7.0731025
7.1921157
7.3634129
7.6280815
8.1390657
33.711112
15.740162
10.40577
9.4275973
9.525162
9.2458976
9.128624
8.8944016
8.7065132
8.4864892
8.3037875
8.099582
7.9399225
7.7825164
7.6437605
7.5109897
7.4104442
7.2945164
7.1779333
7.0802348
7.0059223
6.9489577
6.9033908
6.8672715
6.8428998
6.8248905
6.8118708
6.8023879
6.7948576
6.7880613
6.7831727
6.7800729
6.7778757
6.7775602
6.7785835
6.7824958
6.788667
6.7985124
6.8125219
6.8320382
6.8587889
6.8948032
6.9428317
7.0070934
7.0940754
7.2140913
7.3867573
7.6534067
8.1667031
33.306741
14.587012
10.239126
9.475139
9.546862
9.2364642
9.1339246
8.8598538
8.6786803
8.455974
8.2862998
8.0802303
7.9221476
7.7740668
7.64441
7.5046959
7.3920113
7.2906892
7.1808508
7.0881236
7.0139719
6.9590706
6.9162272
6.8804866
6.8568804
6.8391454
6.8269579
6.8176478
6.8103289
6.8037018
6.7990048
6.7961019
6.7941333
6.7940468
6.7953144
6.7995172
6.8058427
6.8160153
6.8303847
6.8502744
6.8774504
6.9139939
6.9626358
7.0276238
7.1155052
7.2366482
7.4108323
7.6796545
8.1947605
32.702712
14.731847
10.327547
9.4813489
9.5883208
9.2193417
9.134837
8.8369402
8.6642395
8.421257
8.2606134
8.057372
7.9029023
7.7543562
7.6393795
7.503914
7.3806595
7.2759064
7.1802918
7.0940154
7.0220988
6.9689532
6.9285611
6.8936448
6.8705302
6.8531244
6.841817
6.8326412
6.8254711
6.8191146
6.8146574
6.8118916
6.8101953
6.8103417
6.8119405
6.8164334
6.8229895
6.8335207
6.8483175
6.8686515
6.8963158
6.9334491
6.9827905
7.048604
7.1374957
7.259896
7.4357578
7.7069701
8.2244533
32.147672
14.154286
10.248589
9.4999114
9.5396674
9.1950876
9.1291334
8.8276728
8.665186
8.4000597
8.2436842
8.0363284
7.8888891
7.7375729
7.626241
7.5017475
7.3780394
7.2685661
7.1790725
7.0972857
7.0303343
6.9787499
6.9395849
6.9061191
6.8837325
6.8670281
6.8565266
6.847391
6.8403855
6.8343735
6.830226
6.8275205
6.8261377
6.8265305
6.8285161
6.8332996
6.8401878
6.8510949
6.8663859
6.8872364
6.9154517
6.9532358
7.0033596
7.070098
7.1601105
7.2838991
7.4615992
7.7354163
8.2555369
32.123536
14.347652
10.281193
9.5182642
9.4893777
9.1770711
9.064105
8.8162996
8.6544676
8.3900393
8.2157738
8.0026882
7.8666676
7.7209679
7.6089642
7.4894577
7.3790228
7.2673348
7.1774191
7.0978513
7.0357837
6.9886499
6.9508196
6.9180586
6.8967017
6.8810539
6.8709921
6.8618892
6.8550697
6.8494831
6.8456936
6.8430827
6.8420093
6.8426859
6.8450874
6.8501728
6.8574963
6.8688011
6.8846469
6.9060836
6.9349175
6.9734142
7.0244028
7.0921662
7.1834124
7.3087249
7.4884305
7.7650746
8.2882053
31.29629
13.294461
10.201531
9.5373619
9.4578171
9.1318844
9.0013157
8.7733497
8.6203873
8.3898189
8.204523
7.9863116
7.8406528
7.7083598
7.5961864
7.4733605
7.3748605
7.2682601
7.1774666
7.0994081
7.0408527
6.9980878
6.962163
6.9297482
6.9091161
6.8946963
6.885085
6.8760428
6.8694916
6.8643553
6.8609731
6.8586058
6.8578043
6.8588071
6.8616617
6.8670631
6.8749019
6.886653
6.9031037
6.9251926
6.9547231
6.9939993
7.0459367
7.1148307
7.207431
7.3344144
7.5163052
7.7960127
8.3225404
30.867036
13.340485
10.249165
9.5295595
9.4734554
9.1131737
8.9704008
8.7250965
8.5637457
8.3865279
8.1966396
7.9803405
7.8173047
7.6949383
7.5894972
7.4688154
7.364372
7.2693381
7.1805901
7.1062579
7.0471572
7.0059434
6.9721896
6.9414036
6.921311
6.9078673
6.8988088
6.8899744
6.8837691
6.8790312
6.8760546
6.8741177
6.8735935
6.8749374
6.8782971
6.8840368
6.8924418
6.9047108
6.9218059
6.9446078
6.9749169
7.0150429
7.0680121
7.1381415
7.2322178
7.3610226
7.545282
7.8282901
8.3584502
29.669903
12.225745
10.203713
9.5425818
9.496399
9.1071767
8.9460933
8.6729135
8.5164052
8.3645978
8.1862191
7.9824877
7.8110395
7.6832618
7.5744046
7.4692506
7.3598065
7.2688737
7.1822722
7.1122561
7.0544748
7.013936
6.9812743
6.9527715
6.9336583
6.9208011
6.9123833
6.9038323
6.8979995
6.8936442
6.8910128
6.8896575
6.8895023
6.8911734
6.8950858
6.9012147
6.9102065
6.9230746
6.9408527
6.9644225
6.9955917
7.0366461
7.0907294
7.1621967
7.2578739
7.3886566
7.5754763
7.8620392
8.3962946
29.651595
12.318386
10.271563
9.5434807
9.482494
9.1057819
8.9080974
8.6241617
8.4747737
8.3175293
8.148119
7.9727934
7.8107495
7.6759092
7.5536326
7.4588957
7.3596923
7.2721694
7.1855088
7.1176091
7.0609825
7.0219409
6.9908358
6.9638445
6.9459087
6.9336964
6.9259
6.9176643
6.9121522
6.9082537
6.9059473
6.9051968
6.905542
6.9075516
6.9120304
6.9186339
6.9282217
6.9417716
6.9602774
6.9846712
7.0167816
7.0588541
7.1141307
7.1870437
7.2844511
7.4173744
7.6069531
7.8973323
8.4359626
28.182936
11.558315
10.179609
9.5210058
9.4579818
9.096926
8.8822337
8.5777483
8.4368024
8.2705005
8.1008456
7.9281931
7.7999044
7.6721128
7.5439232
7.4426655
7.3546028
7.2746128
7.1899588
7.1235016
7.0678803
7.0285456
7.0006282
6.9754383
6.9581204
6.9464667
6.9392702
6.9314586
6.9261806
6.9228278
6.9208966
6.9206899
6.9216261
6.9240547
6.929073
6.9362597
6.9464737
6.9607727
6.980067
7.0053479
7.0384816
7.0816722
7.1382345
7.2127111
7.3119827
7.4472207
7.6397757
7.9342599
8.4775639
27.284177
11.535083
10.217913
9.5271218
9.4746838
9.1041859
8.8727629
8.5563902
8.4074212
8.2322896
8.0608373
7.8820093
7.7609577
7.6415057
7.5447072
7.4369807
7.3503204
7.2712075
7.1912814
7.1287383
7.0778003
7.0369935
7.0095426
6.9873072
6.9705532
6.9591894
6.9523432
6.9451058
6.9401502
6.9374425
6.9359215
6.9361959
6.9377446
6.9407083
6.946239
6.9541132
6.9650124
6.9801142
7.0002612
7.0265004
7.0607393
7.105154
7.1631013
7.2392559
7.3405299
7.4782609
7.6740181
7.9729098
8.5210481
26.295557
11.558846
10.134302
9.5755301
9.4191826
9.0809336
8.8404538
8.5483323
8.389228
8.2108112
8.0294601
7.8615239
7.7362877
7.6179955
7.5332445
7.4301945
7.3513433
7.2697537
7.1949299
7.1314708
7.0858593
7.0479006
7.0190536
6.9986774
6.9826068
6.9720055
6.9652136
6.9586065
6.9541744
6.9522568
6.9510868
6.951815
6.9539709
6.9575641
6.9636318
6.972272
6.9839277
6.9998859
7.0209521
7.0482244
7.0836513
7.1293945
7.1888342
7.2667887
7.3702066
7.5106132
7.7098107
8.0134392
8.566788
25.111689
11.475091
10.154794
9.6042303
9.4157733
9.0723533
8.792586
8.5408533
8.3658304
8.2039551
8.0069315
7.8510927
7.7204873
7.6087687
7.5160519
7.4169182
7.3471546
7.2728121
7.2032009
7.139917
7.0905247
7.0560478
7.0300617
7.0103794
6.9940475
6.9847345
6.978073
6.9720473
6.9682494
6.9672242
6.9663956
6.9675283
6.9703192
6.9745891
6.981272
6.9907308
7.0032133
7.0200998
7.0421589
7.070541
7.107245
7.1544259
7.2154829
7.2953569
7.401069
7.5443433
7.7472285
8.0559433
8.614827
24.210416
11.139034
10.212422
9.6301998
9.4262003
9.0763821
8.7621708
8.5215993
8.321523
8.1923932
7.9920165
7.8487036
7.7037698
7.6002984
7.5118015
7.4126575
7.3388913
7.2716806
7.2059947
7.1491382
7.0989659
7.0610948
7.0396385
7.0226639
7.0057406
6.997313
6.9910255
6.9854902
6.9823926
6.9821752
6.9818011
6.9833576
6.9867803
6.9917636
6.9991606
7.009471
7.0228527
7.0407489
7.0638875
7.0934637
7.1315375
7.1802777
7.2430867
7.3250038
7.433176
7.579524
7.7863584
8.1005336
8.6653734
23.780198
11.340638
10.198221
9.63501
9.4005636
9.0775629
8.7447152
8.5104008
8.2855812
8.1699183
7.9689195
7.8505101
7.6963073
7.592908
7.5061903
7.4130625
7.3370197
7.2723757
7.204237
7.151507
7.1081935
7.0691129
7.0477016
7.0341068
7.0181666
7.0100288
7.0042075
6.9990026
6.9966412
6.9970753
6.9972814
6.9994133
7.0034052
7.0091647
7.017359
7.028547
7.0429069
7.0618839
7.0861897
7.1170539
7.1565957
7.2070129
7.2717165
7.3558174
7.4666245
7.6162513
7.8273119
8.1473408
8.7186391
22.634473
10.790535
10.214299
9.6486348
9.36574
9.0501285
8.7134836
8.4989855
8.2585656
8.1493137
7.9360169
7.8266584
7.6911396
7.5947978
7.4910135
7.4125509
7.3353874
7.2784475
7.2069764
7.1496758
7.1124928
7.079738
7.0570477
7.0450465
7.0306442
7.0227204
7.0175094
7.0127089
7.0109699
7.0120178
7.0128823
7.0157374
7.0203003
7.0268835
7.0359471
7.0480378
7.0634643
7.0835821
7.1091346
7.1413835
7.1825011
7.2347158
7.3014668
7.387905
7.5015277
7.6546509
7.8702251
8.1965308
8.774983
22.35122
10.953361
10.236932
9.6574339
9.3417525
9.017098
8.6805823
8.4942758
8.2313865
8.1308624
7.9082361
7.8087227
7.6597979
7.5991354
7.4864239
7.4075146
7.3320677
7.2795586
7.2150822
7.1534943
7.1140858
7.0889661
7.0671491
7.0563201
7.0429094
7.0350404
7.030575
7.0266038
7.0253465
7.0270176
7.02869
7.0322877
7.0375204
7.0449445
7.0549494
7.0679675
7.0845464
7.1058742
7.1327518
7.1664875
7.2092958
7.2634285
7.3323836
7.4213468
7.5379754
7.6948239
7.9152149
8.2482441
8.8346101
21.300214
10.54548
10.203158
9.654965
9.3014842
9.0018423
8.642263
8.478721
8.2091187
8.1240449
7.8777694
7.8062492
7.6434015
7.5852741
7.4858911
7.4030132
7.3314022
7.2782185
7.2178744
7.164902
7.1195759
7.0964311
7.0771129
7.0670657
7.0547383
7.0472804
7.0433988
7.0405321
7.0398521
7.0420152
7.0447385
7.0490611
7.0550642
7.0633545
7.0743645
7.0883566
7.1061499
7.1287566
7.1570591
7.1924028
7.2370102
7.2931921
7.3645203
7.456198
7.5760442
7.7368714
7.9624144
8.3026326