/*--------------------------------*- C++ -*----------------------------------*\
| =========                 |                                                 |
| \\      /  F ield         | OpenFOAM: The Open Source CFD Toolbox           |
|  \\    /   O peration     | Version:  2506                                  |
|   \\  /    A nd           | Website:  www.openfoam.com                      |
|    \\/     M anipulation  |                                                 |
\*---------------------------------------------------------------------------*/
FoamFile
{
    version     2.0;
    format      ascii;
    arch        "LSB;label=32;scalar=64";
    class       volScalarField;
    location    "2.75";
    object      Ma;
}
// * * * * * * * * * * * * * * * * * * * * * * * * * * * * * * * * * * * * * //

dimensions      [0 0 0 0 0 0 0];

internalField   nonuniform List<scalar> 
19257
(
0.29936816
0.29945728
0.29956694
0.29955945
0.29959247
0.29963492
0.2996957
0.29972714
0.29973335
0.29976529
0.29980361
0.29986087
0.29990353
0.29997879
0.30005578
0.30007099
0.30015324
0.30024078
0.30031083
0.30039326
0.30051254
0.30063052
0.30073293
0.30085154
0.30099918
0.30114169
0.30128673
0.30141302
0.3015534
0.30172253
0.30183362
0.30194326
0.30205705
0.30215468
0.30223504
0.3022139
0.30222352
0.30226787
0.30240102
0.30258455
0.30233644
0.30297599
0.30389349
0.3053612
0.30669724
0.31024019
0.3225621
0.3233463
0.34782721
0.29933441
0.29949229
0.29958143
0.29956992
0.29958198
0.29961703
0.29966885
0.29971464
0.29971855
0.29975973
0.29980282
0.29983398
0.29987524
0.29991367
0.29997844
0.30000908
0.30006101
0.30014311
0.30020931
0.30028188
0.300398
0.30049171
0.30057051
0.30065363
0.30077698
0.30087578
0.3010004
0.30106223
0.30112976
0.30124367
0.30129576
0.30130734
0.30128951
0.30124684
0.30121837
0.30105595
0.30083283
0.30065214
0.30031407
0.30018109
0.29983012
0.29967745
0.29942159
0.30072096
0.30188984
0.30406763
0.31682937
0.31568407
0.33463718
0.29931373
0.29950412
0.29959835
0.29957754
0.29957253
0.29959794
0.29964039
0.29970056
0.29971714
0.2997458
0.29977128
0.29980698
0.29982613
0.29983552
0.2998968
0.29995013
0.29997569
0.30004315
0.3001136
0.30017422
0.30027781
0.30034577
0.30040273
0.30045164
0.3005342
0.30061372
0.30068953
0.30069356
0.30069545
0.30074002
0.30074632
0.30067663
0.30053536
0.30037737
0.30022761
0.29998017
0.29957351
0.29912613
0.29860536
0.29813491
0.2974895
0.2965045
0.29586304
0.29578079
0.29625554
0.29777172
0.30456407
0.30650242
0.32864012
0.29930258
0.29949559
0.29960794
0.29958005
0.29956428
0.29958262
0.29961925
0.29967003
0.29971244
0.29971712
0.2997198
0.29976359
0.29977485
0.29979646
0.29983741
0.29989286
0.29990884
0.29995323
0.30000204
0.30005625
0.30013611
0.30018894
0.30021448
0.30022765
0.30027784
0.30033427
0.30034889
0.30032376
0.30026302
0.30022898
0.30019342
0.30004301
0.29980119
0.29954271
0.29924575
0.29889231
0.29834055
0.29765491
0.29691222
0.29601164
0.2950739
0.2937155
0.29250347
0.29109229
0.29089494
0.29217197
0.29093434
0.29397135
0.32489525
0.29927299
0.29947666
0.29960756
0.29957504
0.29955565
0.29957179
0.29960099
0.29963902
0.29968258
0.2996843
0.29968936
0.29971158
0.29973445
0.29977481
0.29978724
0.29982879
0.29984265
0.29986241
0.29987671
0.29992349
0.29997186
0.30001665
0.30001223
0.29999754
0.30001851
0.30003782
0.3000122
0.2999484
0.29983117
0.29972964
0.29962943
0.29940626
0.2990785
0.29872049
0.29829296
0.29780703
0.29714474
0.29630079
0.29529306
0.29414557
0.29289641
0.29116948
0.28928669
0.28708301
0.28556659
0.28424022
0.27980238
0.2833416
0.31647502
0.29923828
0.29945817
0.29961076
0.29957261
0.29954608
0.29955872
0.29957742
0.29961027
0.29964747
0.29965381
0.29966229
0.29966104
0.29969184
0.29971307
0.2997151
0.29973276
0.29974383
0.29974732
0.29974421
0.29977207
0.29979792
0.29982581
0.29981701
0.29977488
0.29974357
0.29972928
0.2996753
0.29955944
0.29939388
0.29923061
0.29904867
0.29876099
0.29836108
0.2978983
0.29736663
0.29674552
0.29597283
0.29496985
0.29375767
0.29237114
0.29068935
0.28865954
0.28614266
0.28352877
0.27981172
0.27814982
0.27115086
0.27888543
0.30397704
0.29922141
0.29944218
0.29961849
0.29957599
0.29953996
0.29953959
0.29955075
0.29957252
0.29960451
0.29961986
0.29961648
0.29960694
0.29962162
0.29962285
0.2996244
0.29962172
0.29962684
0.29962117
0.29960707
0.29961071
0.29962315
0.29963239
0.29961713
0.29954236
0.29945688
0.29940221
0.29931212
0.29915457
0.29894516
0.29871648
0.29846079
0.29811271
0.29764933
0.29708322
0.29644586
0.29569932
0.29480805
0.29366853
0.29225304
0.29063295
0.28868007
0.28636812
0.2833438
0.2802178
0.27550956
0.273217
0.26575409
0.27482163
0.2848341
0.2992146
0.29942213
0.29960296
0.2995693
0.29953538
0.29951417
0.29952172
0.29953526
0.29955953
0.29957193
0.29956325
0.29955009
0.29954726
0.2995526
0.29954663
0.29953241
0.29952747
0.2995159
0.29948998
0.2994617
0.29945365
0.29944759
0.29940306
0.29929642
0.29916727
0.299063
0.29893186
0.29873593
0.29848371
0.29819682
0.29787615
0.29746917
0.29694245
0.29628684
0.29553806
0.29467618
0.29367118
0.29239681
0.29085268
0.28902147
0.2868293
0.28408727
0.28079672
0.2768331
0.27214851
0.26730892
0.26290061
0.26158951
0.26540154
0.29915427
0.29938368
0.29958007
0.29954795
0.29951373
0.29948837
0.29949251
0.29950299
0.29952085
0.29952745
0.29951969
0.29950147
0.29949001
0.29949142
0.29948273
0.29946164
0.29943959
0.29941619
0.29937721
0.29931882
0.29927958
0.29924651
0.29917285
0.29904692
0.29888095
0.29872148
0.29854937
0.29831873
0.29802237
0.29767927
0.29729611
0.29683066
0.29624246
0.29551011
0.29465469
0.29368218
0.2925501
0.29116382
0.28947263
0.28743788
0.28500692
0.28197237
0.27828139
0.27374012
0.26865906
0.26105606
0.26050906
0.24533812
0.24823417
0.29908974
0.29934284
0.29957719
0.29954418
0.29949981
0.29947023
0.29946575
0.299472
0.29948394
0.29948759
0.29948124
0.29945659
0.29943688
0.2994219
0.2994053
0.29937371
0.29933496
0.29929127
0.29923513
0.29915458
0.29908364
0.29901953
0.29892885
0.29879005
0.29860132
0.29839623
0.29817803
0.29790898
0.29757217
0.29717344
0.29672559
0.29620005
0.29555475
0.2947539
0.29380044
0.29271673
0.29146369
0.28996172
0.28811765
0.28592727
0.28330114
0.28000753
0.27596599
0.27094219
0.26506963
0.25644953
0.25109574
0.2329466
0.23427278
0.29902081
0.29930772
0.29958148
0.29954981
0.29949459
0.29945693
0.29943792
0.29943984
0.29944339
0.29944257
0.29943256
0.29940477
0.29937254
0.29934267
0.29931195
0.29926608
0.29920977
0.29914912
0.2990799
0.2989868
0.29888604
0.29879413
0.29868821
0.29853544
0.29832548
0.29808272
0.29781921
0.29750793
0.29713223
0.29668423
0.29617282
0.29558373
0.29488287
0.29402366
0.29298854
0.29180011
0.29043607
0.28881158
0.28684697
0.28449138
0.28167803
0.27815667
0.27376387
0.26834572
0.26145652
0.25327999
0.24031013
0.23590339
0.22084661
0.29894382
0.29925638
0.29956396
0.29953824
0.29948511
0.29943699
0.29940552
0.29940476
0.29940294
0.29939555
0.29937985
0.29935027
0.29931302
0.29927217
0.29922609
0.29916869
0.29909753
0.29902113
0.29893893
0.29883614
0.2987118
0.29858802
0.29845878
0.29829056
0.29805789
0.29777759
0.29746926
0.29711368
0.29669961
0.29621091
0.29564364
0.29499188
0.29423529
0.29332584
0.29222313
0.2909395
0.28947482
0.28773772
0.28565013
0.28314913
0.2801454
0.27643789
0.2716943
0.26596948
0.25840299
0.2497752
0.23509162
0.23843794
0.20514967
0.29885373
0.29920591
0.29955777
0.29952385
0.29946152
0.29940696
0.29937152
0.29936769
0.29936588
0.29935385
0.29933142
0.29929577
0.29925437
0.2992096
0.29915483
0.29908621
0.2990029
0.2989144
0.29881952
0.29870197
0.29855545
0.29840028
0.29824303
0.29805553
0.29780332
0.29749194
0.29714322
0.29674356
0.29628713
0.29576177
0.29514882
0.29443886
0.29362498
0.29267019
0.29151397
0.2901461
0.28858306
0.28674927
0.28453947
0.28191404
0.27874597
0.27483533
0.26986937
0.26361204
0.25589345
0.24526456
0.23272583
0.21369968
0.1905137
0.298759
0.2991518
0.29956558
0.299522
0.29944929
0.29938818
0.29934564
0.29932895
0.29932688
0.29931607
0.29928831
0.29924328
0.2991913
0.2991406
0.29908285
0.29900832
0.2989135
0.29881097
0.29870551
0.29857788
0.29841239
0.29822657
0.29804116
0.29783607
0.29757062
0.29723672
0.29685493
0.29641633
0.29591632
0.2953536
0.29470229
0.29394085
0.2930694
0.29206822
0.29086755
0.28943295
0.28777757
0.28585331
0.28353795
0.28078652
0.27748985
0.27339744
0.26821189
0.26160735
0.2533282
0.24218361
0.22732626
0.20429121
0.17744508
0.29866581
0.29909071
0.29957186
0.29953554
0.2994527
0.29937543
0.29931941
0.2992901
0.29928298
0.2992727
0.29924557
0.2991957
0.29913205
0.29906829
0.29900334
0.29892644
0.29882569
0.2987104
0.29859229
0.29845544
0.29827721
0.29806804
0.29785709
0.29763493
0.29736024
0.29701231
0.29660511
0.29613484
0.29559586
0.29499541
0.2943103
0.29350557
0.29258046
0.29153263
0.29029288
0.28880567
0.28707081
0.28505914
0.28265885
0.27978567
0.27636504
0.2721314
0.26672738
0.25989267
0.25100921
0.23952086
0.22263444
0.1973651
0.16524756
0.29857653
0.29903908
0.29957668
0.29954236
0.29945109
0.29936365
0.2992982
0.29925377
0.2992413
0.29922928
0.29920387
0.29915384
0.29908387
0.29900916
0.29893309
0.29884839
0.29874179
0.29861682
0.29848606
0.29833871
0.29815039
0.29792465
0.297694
0.29745805
0.2971758
0.2968189
0.29639229
0.29589529
0.29532444
0.29469094
0.29397634
0.29313689
0.29216591
0.29107452
0.28980107
0.28827388
0.28647791
0.28438639
0.28191058
0.27894409
0.27540081
0.2710394
0.26547589
0.25835694
0.24918309
0.2367373
0.21938809
0.19115478
0.1553529
0.29849339
0.29898755
0.29957322
0.29954395
0.29945332
0.29937104
0.29929457
0.29922932
0.29920766
0.29919393
0.29916922
0.29912036
0.29904858
0.29896667
0.2988817
0.29879035
0.29867668
0.29853988
0.29839554
0.29823814
0.29804268
0.29780573
0.29755861
0.29730966
0.29702019
0.29665826
0.29622005
0.29570314
0.29510837
0.29445029
0.29371199
0.29284582
0.29183899
0.29071076
0.28941147
0.28785717
0.28601666
0.28386397
0.2813246
0.27829463
0.27465479
0.27017775
0.26448314
0.25715515
0.24767405
0.23473684
0.21621131
0.18715076
0.14692525
0.29842612
0.29894487
0.29957213
0.29954674
0.2994524
0.29935887
0.29929133
0.29923347
0.29919882
0.29917966
0.29915054
0.29909676
0.2990212
0.29893528
0.2988447
0.29874868
0.29863149
0.29848843
0.29833621
0.29817297
0.29797335
0.29772893
0.29746733
0.29720421
0.29690614
0.29654055
0.29609751
0.29556847
0.29495773
0.29428514
0.29353157
0.29264658
0.2916149
0.29045911
0.28914316
0.28757752
0.2857107
0.28351537
0.28093145
0.27786083
0.27416186
0.26959511
0.26379466
0.25634442
0.24661345
0.23339637
0.21422599
0.18379954
0.14048166
0.29838689
0.29891812
0.29956829
0.29954384
0.29945009
0.29934248
0.29925963
0.29921877
0.2992103
0.29919468
0.29915538
0.29909018
0.29900811
0.2989181
0.29882139
0.29871704
0.29859498
0.29845119
0.29830041
0.29813969
0.29794093
0.29769277
0.29742094
0.29714647
0.29684141
0.29647379
0.29602888
0.29549133
0.29486925
0.29418905
0.29342691
0.29252899
0.29148135
0.29030866
0.28898312
0.28741276
0.2855307
0.28330681
0.28069668
0.27760167
0.27386265
0.26923271
0.26336743
0.25584633
0.24601826
0.23258326
0.2131416
0.18201353
0.13700686
0.29838043
0.29890808
0.29956333
0.29954069
0.29945196
0.29934809
0.29924389
0.29919284
0.2992007
0.29918942
0.29915799
0.2991045
0.29902308
0.29892213
0.29881305
0.29870068
0.2985753
0.2984307
0.29827964
0.29811895
0.29792133
0.29767587
0.29740529
0.29712854
0.29682058
0.29645363
0.29600985
0.29546766
0.29483952
0.29415746
0.29339189
0.29248648
0.29143056
0.29024946
0.2889184
0.28734562
0.28545724
0.28322391
0.28060931
0.27750923
0.27374832
0.26907936
0.26318245
0.25564952
0.24579244
0.23228768
0.21268422
0.1811473
0.13530798
0.29840594
0.29891916
0.29955899
0.29953561
0.29943836
0.29933485
0.29927991
0.29924766
0.29920147
0.29914949
0.29911846
0.29908131
0.29901825
0.29893449
0.29883983
0.29873752
0.29861754
0.29847407
0.29832144
0.29815687
0.2979533
0.29770433
0.2974332
0.29715491
0.29684548
0.29648198
0.2960432
0.29550244
0.29487753
0.29420273
0.29344101
0.29253661
0.29148392
0.29030521
0.28897613
0.28740847
0.28552823
0.28331133
0.28072032
0.27763527
0.27387059
0.2691913
0.26330908
0.25582781
0.24603649
0.23260755
0.21315691
0.1820386
0.13709571
0.29845341
0.29894719
0.29955747
0.29953404
0.2994396
0.29933413
0.29927709
0.29924971
0.29921545
0.29918003
0.29915025
0.29910333
0.29903244
0.29894933
0.29886143
0.29876844
0.29865719
0.29852054
0.29837234
0.29820783
0.29800045
0.29774996
0.29748196
0.29720597
0.2968988
0.2965423
0.29611089
0.29557589
0.29496277
0.29430311
0.29355074
0.29265559
0.29161735
0.29045224
0.28913251
0.28757617
0.28571873
0.28354144
0.280992
0.27792798
0.27416734
0.26950551
0.26368767
0.2563197
0.24666852
0.23340782
0.21427698
0.18391871
0.14091095
0.29851477
0.29898793
0.29956013
0.29953444
0.29944797
0.29935317
0.29927261
0.29923724
0.29924327
0.29923361
0.2991949
0.29912899
0.29905084
0.29896999
0.29888774
0.29880138
0.29869688
0.29856875
0.29842889
0.2982692
0.29806662
0.29782611
0.29757004
0.29730002
0.29699714
0.29665054
0.29622911
0.29570405
0.29510964
0.29447126
0.29373452
0.29285769
0.29184295
0.29070051
0.28939737
0.28786117
0.28604375
0.28392573
0.28142876
0.27839395
0.27465505
0.2700506
0.26434744
0.25714234
0.24770147
0.23479756
0.21621712
0.18708653
0.14702445
0.2985852
0.29903834
0.29956875
0.2995382
0.29945385
0.29936698
0.29929016
0.29926145
0.29927351
0.29925974
0.29921631
0.29915295
0.29908359
0.29901088
0.29893351
0.29884902
0.29874829
0.29863045
0.29850302
0.29835325
0.29816218
0.29793929
0.29770075
0.29743914
0.29714439
0.29681336
0.29640676
0.29589845
0.29533122
0.29472045
0.2940066
0.29315707
0.2921734
0.29106008
0.28978494
0.28828846
0.28653504
0.28448948
0.28204852
0.27905407
0.27537782
0.27088808
0.26534733
0.25835389
0.24922542
0.23675226
0.21902149
0.19172603
0.15563323
0.29866596
0.29909277
0.29957121
0.29953936
0.29945567
0.29937938
0.29932527
0.2993006
0.29929852
0.29928127
0.29924215
0.29919247
0.29913693
0.29907105
0.29899664
0.29891483
0.29882084
0.29871468
0.29860022
0.29846165
0.29828407
0.29808134
0.29786315
0.29761497
0.29733772
0.2970295
0.29664003
0.29615289
0.2956199
0.29504199
0.29435683
0.29354005
0.29259105
0.2915125
0.29027865
0.28884359
0.28716831
0.28519849
0.28281836
0.27987955
0.27630498
0.27196476
0.2666334
0.25989741
0.25111459
0.2392381
0.22263115
0.19729583
0.16580867
0.29876104
0.29915223
0.29957483
0.29954123
0.29945847
0.29939441
0.29935864
0.29934938
0.29934362
0.2993155
0.29927378
0.29923636
0.29919423
0.29913558
0.29906709
0.29899404
0.29891171
0.29881736
0.29871429
0.29858715
0.29842712
0.29824871
0.29805244
0.29782154
0.29757008
0.29728792
0.29691542
0.2964549
0.29596321
0.2954207
0.29476746
0.2939861
0.29307602
0.29204273
0.29086691
0.28950554
0.28791078
0.28601691
0.28369757
0.28085066
0.2774165
0.2732537
0.2681533
0.26170799
0.25332599
0.24221379
0.226668
0.20397296
0.17756347
0.29886021
0.29921482
0.29958446
0.29954682
0.29946763
0.29941175
0.29940035
0.29940389
0.29939392
0.29935212
0.29931053
0.29928378
0.29925148
0.29920269
0.29914521
0.29908556
0.2990172
0.2989363
0.29884407
0.29872631
0.29858586
0.29843408
0.29825965
0.29804807
0.29782603
0.2975679
0.29721452
0.29679142
0.29634766
0.29584079
0.29522113
0.29447926
0.29361895
0.29264482
0.29153926
0.29025364
0.28873869
0.28692335
0.2846902
0.28196392
0.2786732
0.27471603
0.26987297
0.26374588
0.25586514
0.24537821
0.23196501
0.21129773
0.19025417
0.29895578
0.29927007
0.29959199
0.29955324
0.29948274
0.2994402
0.29944412
0.29945151
0.29943487
0.29938858
0.29935751
0.2993426
0.29931922
0.2992776
0.29923128
0.29918826
0.29913473
0.29906512
0.29898022
0.29887404
0.29875704
0.29863034
0.29847497
0.29828613
0.29809694
0.29786055
0.2975334
0.2971597
0.29676478
0.29629196
0.29570813
0.29501537
0.29421768
0.2933123
0.29228021
0.2910711
0.28964154
0.28792093
0.28578509
0.28318087
0.28006444
0.27636903
0.27177031
0.26599502
0.2585756
0.249119
0.23687498
0.21986603
0.20395661
0.29904513
0.29932578
0.29960939
0.2995658
0.2994992
0.2994659
0.29948208
0.29949092
0.29946859
0.29943156
0.29941645
0.29941035
0.29938992
0.29935384
0.29931989
0.29929123
0.29925203
0.29919569
0.29912001
0.29902973
0.29893821
0.29883704
0.29870034
0.29853967
0.29838391
0.2981691
0.2978787
0.29756054
0.29720852
0.29676832
0.29622755
0.29559682
0.29486686
0.29403258
0.29307561
0.29194741
0.29061598
0.28898802
0.2869521
0.28450939
0.28161882
0.27816837
0.27387902
0.26841935
0.26169021
0.2530735
0.24316772
0.22857722
0.21852501
0.29913053
0.29937105
0.299625
0.29957498
0.29950508
0.29949349
0.29951426
0.29951894
0.29949814
0.29947206
0.29947067
0.29947237
0.29945522
0.29942749
0.29940717
0.2993939
0.29937195
0.29933124
0.29926424
0.29919109
0.29912521
0.29904962
0.29893259
0.29880523
0.2986804
0.29849102
0.29824644
0.29798171
0.29766576
0.2972617
0.2967784
0.29621681
0.29555131
0.29479292
0.29391509
0.29287166
0.29164746
0.29011036
0.28820031
0.28593854
0.28329014
0.28003612
0.27608328
0.27108491
0.26490572
0.25723718
0.24848463
0.23819265
0.23384375
0.29920006
0.29941218
0.29961519
0.29956761
0.29951241
0.29952215
0.29954665
0.29954399
0.29952538
0.29951079
0.2995192
0.29952322
0.29951346
0.2994995
0.29949985
0.29949769
0.29949215
0.299467
0.29941283
0.29935919
0.29931827
0.29926366
0.29916682
0.29907186
0.29897533
0.29881885
0.29862562
0.29840668
0.29812426
0.29776738
0.29735477
0.29685594
0.29625598
0.29558278
0.29477883
0.29383695
0.29271651
0.29126404
0.28950854
0.28744399
0.28502184
0.28203239
0.27834173
0.27400475
0.26865674
0.26198922
0.25387334
0.24713523
0.24973015
0.29924896
0.29943323
0.29960048
0.29956358
0.29952891
0.29955
0.29957468
0.29956958
0.29955504
0.29955534
0.29956524
0.29956943
0.29957034
0.2995734
0.29958614
0.29959321
0.29959796
0.29958688
0.29955984
0.29952982
0.29951127
0.29948082
0.29940583
0.29933769
0.29926686
0.29914965
0.29901001
0.2988306
0.29858329
0.29828635
0.29794439
0.29749707
0.296974
0.29638648
0.29566322
0.29483495
0.29381928
0.29249431
0.29090455
0.28905176
0.28682096
0.28418308
0.28080037
0.27696504
0.2725854
0.2673631
0.26062812
0.25648038
0.26555722
0.29926099
0.2994588
0.29959795
0.29956826
0.29955201
0.29957012
0.29959203
0.29958876
0.29958286
0.29959565
0.29960961
0.29961477
0.29962266
0.29963894
0.29965158
0.29967682
0.29969161
0.2996888
0.29968808
0.29969264
0.29969641
0.29968197
0.29964348
0.29960598
0.29955845
0.29947816
0.29938812
0.29925082
0.29904729
0.29881513
0.29852833
0.29813239
0.29770303
0.29719392
0.29656075
0.29586103
0.29493458
0.29373799
0.29232333
0.2907067
0.28874292
0.28628851
0.28362558
0.28024516
0.27658885
0.27273023
0.2681014
0.26641431
0.28156094
0.29927166
0.29947388
0.29960577
0.29958544
0.29957141
0.29958615
0.29960529
0.29960761
0.29961333
0.29962271
0.29964305
0.29965577
0.29967051
0.29969106
0.29970585
0.29975737
0.29978297
0.29979187
0.29980412
0.29984019
0.29986273
0.2998571
0.29986561
0.299873
0.29984682
0.2998031
0.29975184
0.29965557
0.29950983
0.29934194
0.2990951
0.29876868
0.29843864
0.29799553
0.29747457
0.29690221
0.29610254
0.29506778
0.29379765
0.29237924
0.29062588
0.2885496
0.28640974
0.28394998
0.28088773
0.27959029
0.27552693
0.27590144
0.29696378
0.29929222
0.29948727
0.29961961
0.29960107
0.29958592
0.29960384
0.29962198
0.29963441
0.29965227
0.29964909
0.2996736
0.29969979
0.29972513
0.29975096
0.29978412
0.29984654
0.29987795
0.29990906
0.29993
0.29998163
0.30001814
0.3000371
0.30007457
0.300126
0.30012945
0.30012143
0.3000992
0.30004806
0.29996462
0.2998527
0.29964612
0.29941349
0.29917062
0.29880198
0.29842189
0.29795638
0.29726455
0.29640358
0.29541436
0.29414647
0.29265201
0.29099851
0.28943196
0.28777932
0.28514814
0.28556343
0.28421296
0.28548458
0.31144093
0.29931425
0.29950401
0.2996157
0.2996001
0.2996024
0.2996275
0.29964507
0.29966527
0.29968628
0.29968834
0.2997154
0.29975013
0.29978512
0.29982218
0.2998868
0.29994503
0.29998349
0.30002092
0.3000727
0.30013341
0.30018011
0.3002189
0.30027923
0.30035481
0.30040378
0.30043483
0.30043373
0.30043343
0.30041259
0.30034114
0.30019272
0.3000622
0.29989356
0.29962284
0.29938572
0.2990109
0.29850659
0.29781874
0.29693454
0.29588528
0.29485708
0.29367016
0.2927574
0.29213755
0.29087561
0.29075849
0.29278052
0.29532087
0.32363534
0.29934248
0.29951841
0.299606
0.29959631
0.29961529
0.29965456
0.29967642
0.2996938
0.29970607
0.29973699
0.29976423
0.29979714
0.29983209
0.29988029
0.29995782
0.30001587
0.3000806
0.3001102
0.30018902
0.30026107
0.30033858
0.30040083
0.30048675
0.30056295
0.30065099
0.30073699
0.30076232
0.30080752
0.30085052
0.30080824
0.30075061
0.30071777
0.30060571
0.30047022
0.30034648
0.30012888
0.2997431
0.29931116
0.29864497
0.29785992
0.29702975
0.29652288
0.29601787
0.29636438
0.29602986
0.29723791
0.30273343
0.30538278
0.333514
0.29936899
0.29951043
0.29960008
0.29959766
0.29962845
0.2996712
0.29971113
0.29971678
0.29972791
0.29976934
0.29980092
0.29983214
0.29987631
0.29993387
0.2999918
0.30006314
0.30014454
0.30019165
0.30027503
0.30035594
0.30047497
0.30056508
0.30067291
0.30077058
0.30088488
0.30101385
0.30109144
0.3011787
0.30127609
0.30127898
0.3013189
0.30138975
0.30133083
0.30134581
0.30131636
0.30117596
0.3009952
0.30085105
0.30029152
0.29990915
0.29972335
0.29971306
0.30052233
0.30017703
0.3001626
0.30443037
0.31398798
0.31654376
0.3397171
0.29939447
0.29947497
0.29959334
0.29960353
0.29964498
0.29967934
0.29971992
0.29973517
0.29974935
0.29978008
0.29982706
0.29986058
0.29992881
0.29999027
0.30003595
0.30012787
0.30020424
0.30027837
0.30037719
0.30045547
0.30057771
0.30070398
0.30083573
0.30097517
0.30111536
0.30126166
0.30140541
0.30154489
0.30168305
0.30176399
0.30188867
0.30204781
0.30210198
0.30224851
0.30236691
0.30228007
0.3024723
0.3027191
0.30203606
0.30211259
0.30256972
0.30321308
0.30306206
0.30540129
0.31030545
0.31098901
0.32150065
0.32334806
0.34442525
0.20613398
0.27078465
0.27857278
0.2832105
0.28462669
0.28658192
0.28825163
0.28981117
0.29128594
0.29258337
0.29352416
0.29437565
0.29545325
0.29647468
0.29717541
0.29764868
0.29801673
0.29843615
0.2989351
0.29937006
0.299778
0.30000684
0.30016798
0.30024509
0.30029491
0.30031779
0.300325
0.30031953
0.30028654
0.30023023
0.30017832
0.30014281
0.30008567
0.30006211
0.30002868
0.29996655
0.29993855
0.2999147
0.29985215
0.29981622
0.29980589
0.29975885
0.29976981
0.29974321
0.29974743
0.2997309
0.29971487
0.29970648
0.29986757
0.23995621
0.28572839
0.28756357
0.28956434
0.28989279
0.2909008
0.29178775
0.29283955
0.29379046
0.29464769
0.29532237
0.29611342
0.29674629
0.29741637
0.29808182
0.2985999
0.29899165
0.29937922
0.29974405
0.30005366
0.30023716
0.30033797
0.30046252
0.30050439
0.30053397
0.30052295
0.30050742
0.30046653
0.30039689
0.30031996
0.30025377
0.30020002
0.30013845
0.30010402
0.30005148
0.29998586
0.29995937
0.2999313
0.29986504
0.29982378
0.29981091
0.29976626
0.29977386
0.29974758
0.29974914
0.29973451
0.29971484
0.29970964
0.29987084
0.25314302
0.29418849
0.29384263
0.29514566
0.29461413
0.2953711
0.29557494
0.29626839
0.29665841
0.29707475
0.29745418
0.29794083
0.29832985
0.2987942
0.29935222
0.29977289
0.29997237
0.30016186
0.30035708
0.30052725
0.30061578
0.30071416
0.30081887
0.30082921
0.30078551
0.30073713
0.30068116
0.30061025
0.3005046
0.30040672
0.30032341
0.30025397
0.30018987
0.30014052
0.30007432
0.30000719
0.29997943
0.29994536
0.29987868
0.2998318
0.29981407
0.29977423
0.29977662
0.29975242
0.29974963
0.29973842
0.29971488
0.29971261
0.29987385
0.26239681
0.30065293
0.29897972
0.30049397
0.29913977
0.29964838
0.29913644
0.2995639
0.29946267
0.29959648
0.29971942
0.29998444
0.30010333
0.30023323
0.30049613
0.30078177
0.30093478
0.30099533
0.30106514
0.30113741
0.30116722
0.30114614
0.30115197
0.30112449
0.30102352
0.30093318
0.3008309
0.30073782
0.30060922
0.30049009
0.3003897
0.30030773
0.30024015
0.30017309
0.30009664
0.30003101
0.29999757
0.29995668
0.29989212
0.29984008
0.29981612
0.29978315
0.29977913
0.29975715
0.29975024
0.29974215
0.29971497
0.2997153
0.29987645
0.27125202
0.3066534
0.30357453
0.3052837
0.30337227
0.30369663
0.30259442
0.30276534
0.30220843
0.30224581
0.30209912
0.30206575
0.3019216
0.30185891
0.30175667
0.30188602
0.30202771
0.3019603
0.30184683
0.30177214
0.3016993
0.30157311
0.30146072
0.30139365
0.30127354
0.30113637
0.30098218
0.30086096
0.30071888
0.30057825
0.30045748
0.30036055
0.30028929
0.30020387
0.3001183
0.30005706
0.30001324
0.29996612
0.29990516
0.29984899
0.29981834
0.29979221
0.29978134
0.29976149
0.29975215
0.2997456
0.29971503
0.29971802
0.29987852
0.27496044
0.31125407
0.3078098
0.30932882
0.30754224
0.30749066
0.30620892
0.3058265
0.30490144
0.30485057
0.30444972
0.30416402
0.30374625
0.30354973
0.30314515
0.30297975
0.30300924
0.30286161
0.30258307
0.30236418
0.30217651
0.30202389
0.30183996
0.30166289
0.30151213
0.30134568
0.30113928
0.30097777
0.3008183
0.30066646
0.3005265
0.30041372
0.30033442
0.30023468
0.30014111
0.3000842
0.30002696
0.29997526
0.29991837
0.29985832
0.29982177
0.29979959
0.29978296
0.29976553
0.29975424
0.2997488
0.29971511
0.29972072
0.29988004
0.28020278
0.31501995
0.31213501
0.31265611
0.31129984
0.31081343
0.30958871
0.30873333
0.30748487
0.30722389
0.30665646
0.30619094
0.30545748
0.30512711
0.30460365
0.30406192
0.30383915
0.30368452
0.30335199
0.30304227
0.302695
0.30242719
0.30222431
0.30195999
0.3017209
0.301527
0.30130252
0.30109669
0.30090717
0.30075079
0.30059994
0.3004703
0.30037522
0.30026523
0.30016765
0.30011041
0.30003927
0.29998471
0.29993125
0.29986807
0.29982667
0.29980534
0.29978438
0.29976956
0.29975611
0.29975182
0.29971535
0.29972325
0.29988118
0.28306987
0.31693963
0.31560053
0.31545941
0.31422317
0.31374365
0.31269659
0.31173927
0.31015204
0.30945077
0.30872323
0.30817767
0.30724268
0.30656107
0.30605549
0.30539974
0.30470215
0.30437344
0.30403445
0.30368992
0.30327002
0.30280495
0.30252791
0.30227612
0.30195466
0.30169082
0.3014592
0.30122695
0.30099593
0.30082724
0.30067361
0.30052916
0.30041387
0.30029284
0.30019686
0.3001345
0.3000503
0.29999358
0.29994297
0.29987856
0.29983283
0.29981036
0.29978614
0.29977397
0.29975801
0.29975474
0.2997157
0.29972587
0.29988162
0.29042294
0.32074522
0.31753087
0.31821319
0.31608392
0.31620746
0.31505453
0.31447971
0.31273017
0.31169757
0.3106335
0.31002166
0.30915424
0.30793776
0.30715239
0.30662931
0.30581199
0.30508841
0.30461683
0.30418247
0.30380531
0.30328227
0.30280228
0.30252206
0.3022092
0.30187149
0.30159727
0.3013484
0.30108888
0.30089789
0.30074043
0.3005863
0.30045347
0.30031773
0.30022484
0.30015648
0.30006055
0.30000132
0.29995367
0.29988953
0.29983951
0.29981511
0.29978823
0.29977881
0.29976038
0.29975733
0.29971591
0.29972836
0.29988073
0.29320676
0.32532932
0.31887849
0.32101567
0.31801102
0.31841518
0.3169123
0.31661315
0.31502357
0.31392739
0.31233967
0.31144836
0.31082138
0.30960359
0.30816925
0.30741277
0.30680796
0.30599265
0.30532665
0.30464225
0.30417518
0.30373826
0.30316738
0.30271259
0.30240901
0.30207083
0.30173482
0.30145204
0.30118287
0.30097174
0.30080081
0.30063836
0.30049391
0.3003437
0.30024926
0.30017636
0.30007141
0.30000795
0.29996395
0.29990089
0.29984602
0.29981963
0.29979037
0.29978366
0.29976347
0.29975905
0.29971592
0.29972968
0.29987689
0.2990594
0.32877847
0.32201597
0.32394741
0.32117991
0.32091854
0.31891325
0.31841919
0.31684602
0.31583502
0.3139026
0.31255671
0.31177615
0.31110302
0.30975316
0.30814618
0.30739338
0.30672289
0.30609761
0.30529931
0.30451099
0.30401689
0.30354078
0.30296607
0.30256511
0.30224129
0.30188181
0.30155101
0.30127108
0.30104839
0.30085759
0.30068514
0.30053227
0.30037308
0.30027137
0.30019451
0.30008364
0.300014
0.2999744
0.29991211
0.2998528
0.29982412
0.29979232
0.29978747
0.29976682
0.29975988
0.29971591
0.29972987
0.29987141
0.3008199
0.32920512
0.3271464
0.3262727
0.32377763
0.32323614
0.32120313
0.32062346
0.31862649
0.31742554
0.31553798
0.31415389
0.31237557
0.31175022
0.31110359
0.30942255
0.30801073
0.30720465
0.30660184
0.30594466
0.30506574
0.30425017
0.3037664
0.30325751
0.30274976
0.3023734
0.30201631
0.3016553
0.30135441
0.30112184
0.30091173
0.30072716
0.30056937
0.30040354
0.30029401
0.30021138
0.30009656
0.30002033
0.29998513
0.29992216
0.29986135
0.29982856
0.29979326
0.29978975
0.2997703
0.29976035
0.2997159
0.29972838
0.29986657
0.30536696
0.33295729
0.32914664
0.32869424
0.32542252
0.3249907
0.32284911
0.32272228
0.32062116
0.31908762
0.31700002
0.31609422
0.31386459
0.31207979
0.31147021
0.31040118
0.30911238
0.30790634
0.30693801
0.30627121
0.30555578
0.30465297
0.30393917
0.30346291
0.30296349
0.30250672
0.30213111
0.30175996
0.30143671
0.301189
0.30096248
0.30076474
0.30060836
0.300432
0.30031748
0.30022621
0.30010946
0.30002754
0.29999541
0.29993087
0.29987084
0.29983283
0.29979329
0.29979118
0.29977398
0.29976059
0.29971573
0.29972673
0.29986272
0.30500454
0.33627934
0.32964889
0.33071752
0.32780019
0.32684397
0.32381245
0.3236634
0.32205374
0.3210637
0.31850818
0.31728289
0.31549112
0.31343404
0.31146781
0.31075636
0.30986895
0.30883535
0.30753375
0.30648367
0.30576217
0.30502484
0.30422701
0.30363086
0.30314472
0.30264679
0.30223783
0.30185697
0.30151511
0.30125067
0.30101207
0.30079866
0.30064701
0.30045994
0.30033904
0.30023745
0.30012286
0.30003582
0.30000429
0.29993805
0.29987902
0.29983738
0.299793
0.29979231
0.29977692
0.29976037
0.29971587
0.29972463
0.29985952
0.31200577
0.33680456
0.3319409
0.3320798
0.32989743
0.32924338
0.32535823
0.32417281
0.32258644
0.32228462
0.32010458
0.31808647
0.31617852
0.31477925
0.31278784
0.31113877
0.31012981
0.30933399
0.30817764
0.30695827
0.30591088
0.30519768
0.30449926
0.30385249
0.30330703
0.30276753
0.30233252
0.30194155
0.30158577
0.30130908
0.30106445
0.30083177
0.3006785
0.30049151
0.30035717
0.30024573
0.30013724
0.30004574
0.30001178
0.29994357
0.29988619
0.29984362
0.29979408
0.29979269
0.29977829
0.2997591
0.29971714
0.29971929
0.29985725
0.3150711
0.33926684
0.33252738
0.33426521
0.3309667
0.33078984
0.32760957
0.32662167
0.32343965
0.32259003
0.32091665
0.31906898
0.31672319
0.31532298
0.31396151
0.31225014
0.31050694
0.30952211
0.30848446
0.30739772
0.30630101
0.30534175
0.30464133
0.30405304
0.30346576
0.3028784
0.30240958