/*--------------------------------*- C++ -*----------------------------------*\
| =========                 |                                                 |
| \\      /  F ield         | OpenFOAM: The Open Source CFD Toolbox           |
|  \\    /   O peration     | Version:  2506                                  |
|   \\  /    A nd           | Website:  www.openfoam.com                      |
|    \\/     M anipulation  |                                                 |
\*---------------------------------------------------------------------------*/
FoamFile
{
    version     2.0;
    format      ascii;
    arch        "LSB;label=32;scalar=64";
    class       volScalarField;
    location    "2.75";
    object      nut;
}
// * * * * * * * * * * * * * * * * * * * * * * * * * * * * * * * * * * * * * //

dimensions      [0 2 -1 0 0 0 0];

internalField   nonuniform List<scalar> 
19257
(
0.19818593
0.19664837
0.19561639
0.19487791
0.19431163
0.19386297
0.19349946
0.19319916
0.19294708
0.19273453
0.19255073
0.19239344
0.19225718
0.19213946
0.19203509
0.19194608
0.19186918
0.19179647
0.19173579
0.19168041
0.19163225
0.19158931
0.19155605
0.19153416
0.19151481
0.19150644
0.19151295
0.19153931
0.19158829
0.19167019
0.1917714
0.19195522
0.18404362
0.15457316
0.11319854
0.097288068
0.072300862
0.059279585
0.057673137
0.037866786
0.020904747
0.021461187
0.025365506
0.018745805
0.0082502382
0.0082357547
0.0069555532
0.0050546885
0.00072250959
0.19815774
0.19670065
0.19570611
0.19497686
0.1944125
0.19396146
0.19359457
0.19329035
0.19303385
0.19281585
0.19262739
0.19246568
0.19232539
0.19220336
0.19209624
0.19200223
0.19192187
0.19184676
0.19178151
0.19172453
0.19167317
0.19162719
0.19159084
0.19156682
0.19154638
0.19153478
0.19153772
0.19156068
0.1916038
0.19167168
0.19178035
0.19194274
0.18139562
0.15182358
0.12730278
0.096793086
0.088445634
0.06472768
0.053158684
0.04127235
0.026797283
0.016288884
0.021413463
0.016909285
0.016333558
0.00870741
0.0057836592
0.0048864373
0.00075722947
0.19826021
0.19685613
0.19585657
0.19512098
0.19454987
0.19409089
0.19371568
0.19340351
0.19313906
0.19291395
0.19271904
0.19255111
0.19240562
0.19227801
0.19216566
0.19206632
0.19198164
0.19190314
0.19183367
0.19177303
0.19171954
0.19167026
0.19163044
0.19160365
0.19158044
0.19156327
0.19156349
0.19158171
0.19161536
0.1916735
0.19178721
0.19192264
0.19215553
0.1487546
0.12033117
0.10335121
0.075827049
0.062303743
0.052724659
0.042223116
0.039422444
0.024291678
0.012231476
0.01341678
0.010171928
0.0084441486
0.0089132859
0.0044987433
0.00073133331
0.19831764
0.19697052
0.19599117
0.19525954
0.19468586
0.19422128
0.19383875
0.19351949
0.19324829
0.19301614
0.19281504
0.19264086
0.19248933
0.19235593
0.19223802
0.19213394
0.19204411
0.19196283
0.19188943
0.19182455
0.19176829
0.19171592
0.19167334
0.19164043
0.19161314
0.19159442
0.19159208
0.19160491
0.19163462
0.19168099
0.19179127
0.19190861
0.19212643
0.15988591
0.1260359
0.09849072
0.085968968
0.065563368
0.048014556
0.04229822
0.019852048
0.018425026
0.021390522
0.018465697
0.012385538
0.0083300134
0.0064384303
0.0033242813
0.00075553689
0.19838101
0.19709288
0.19613253
0.1954045
0.19482902
0.19435917
0.19396924
0.19364268
0.193364
0.19312532
0.19291726
0.19273635
0.19257844
0.19243859
0.19231529
0.19220595
0.19211076
0.19202531
0.19194771
0.19187871
0.19181866
0.19176392
0.19171713
0.19167942
0.19164949
0.19162939
0.19162135
0.19162811
0.19165424
0.19169297
0.19178831
0.19190249
0.1920994
0.15716622
0.12975041
0.10464415
0.081992672
0.064483967
0.058515729
0.037919244
0.046923449
0.026362607
0.012860039
0.013455775
0.010476394
0.0076251961
0.00540052
0.0037530121
0.00079716747
0.19843693
0.19720957
0.196273
0.19555099
0.19497545
0.19450164
0.19410514
0.19377135
0.19348549
0.19323962
0.19302469
0.19283692
0.19267219
0.19252607
0.19239675
0.19228184
0.19218057
0.19209063
0.19200961
0.19193616
0.19187093
0.19181345
0.19176359
0.19172175
0.19168887
0.19166467
0.19165334
0.19165282
0.19167094
0.19171315
0.19178187
0.19190684
0.19207066
0.16349926
0.12914821
0.10508841
0.08416745
0.071504772
0.046394367
0.049021854
0.024187869
0.01908007
0.029496082
0.015322323
0.011194857
0.0082886498
0.005877939
0.0032530857
0.00079498601
0.19849222
0.19732251
0.196412
0.19569911
0.19512469
0.19464779
0.19424581
0.1939052
0.19361222
0.1933585
0.1931366
0.19294175
0.19277021
0.192618
0.19248235
0.19236143
0.19225396
0.19215986
0.19207485
0.19199662
0.19192661
0.1918656
0.19181146
0.19176569
0.19173089
0.19170369
0.19168577
0.19168131
0.19169473
0.19172756
0.19178202
0.19191269
0.19204634
0.16713646
0.13279934
0.10720013
0.084100305
0.066511852
0.062655417
0.035906293
0.0466174
0.020108411
0.014896892
0.014781557
0.01061468
0.007254002
0.004947135
0.0032962574
0.00086818931
0.19854111
0.19743009
0.19654864
0.19584692
0.19527471
0.19479597
0.19438972
0.19404248
0.19374268
0.19348145
0.19325244
0.19305037
0.19287173
0.19271316
0.19257111
0.19244378
0.19233071
0.19223133
0.19214167
0.19205932
0.19198539
0.19191962
0.19186148
0.19181196
0.19177264
0.19174253
0.19172222
0.19171317
0.1917196
0.19174525
0.19179608
0.19190786
0.19202587
0.16860323
0.13679578
0.10913053
0.090332629
0.066656408
0.05359173
0.047654442
0.028134611
0.025037729
0.025862401
0.014850807
0.01104137
0.0073609855
0.0052748008
0.0028789844
0.00086120709
0.19858149
0.19753066
0.19668013
0.19599219
0.195424
0.19494476
0.19453466
0.19418115
0.19387486
0.19360665
0.19337086
0.19316178
0.1929759
0.19281028
0.19266204
0.19252916
0.19240963
0.19230372
0.19220986
0.1921235
0.19204556
0.19197545
0.19191376
0.19186097
0.19181721
0.19178192
0.19175668
0.19174419
0.19174753
0.19176656
0.19181969
0.19188219
0.19202794
0.17261031
0.13844471
0.10946512
0.089105973
0.073200295
0.053037869
0.043946233
0.036635267
0.024547393
0.016116327
0.014433002
0.0098338677
0.0072706475
0.0050403609
0.0030206723
0.00093831575
0.19862102
0.19762658
0.19680671
0.1961333
0.19557027
0.19509123
0.19467811
0.19431928
0.19400682
0.19373219
0.19348959
0.19327399
0.19308132
0.19290895
0.1927545
0.19261612
0.19249042
0.19237813
0.19227923
0.19218882
0.19210676
0.19203226
0.19196586
0.19190854
0.19186193
0.19182382
0.19179431
0.19177638
0.1917728
0.19178588
0.19183453
0.19186627
0.19204412
0.17731053
0.14239643
0.1143253
0.088717995
0.07202987
0.057953551
0.042134005
0.034951317
0.027463917
0.023221947
0.014842909
0.010945109
0.0076604475
0.0048232287
0.0026643475
0.00088322692
0.19865867
0.1977161
0.19692596
0.19626809
0.19571089
0.19523336
0.19481788
0.19445489
0.19413689
0.1938563
0.19360693
0.19338497
0.19318599
0.1930072
0.19284646
0.19270245
0.19257143
0.19245339
0.19234924
0.1922542
0.19216774
0.19208939
0.19201922
0.19195851
0.19190752
0.19186504
0.19183081
0.19180913
0.1918019
0.19181066
0.19184904
0.19186548
0.19205581
0.18063908
0.14370297
0.11664636
0.092022517
0.073354344
0.056243102
0.046784609
0.033191507
0.026383926
0.018759797
0.015120493
0.0097348489
0.0069826159
0.004767601
0.0029091047
0.00090318973
0.19869394
0.19779845
0.19703679
0.19639413
0.19584423
0.19536859
0.194952
0.19458575
0.19426306
0.19397716
0.19372132
0.19349287
0.19328797
0.1931031
0.19293637
0.19278674
0.19265052
0.19252665
0.19241713
0.19231817
0.19222773
0.19214569
0.19207099
0.1920061
0.19195205
0.19190736
0.19186996
0.19184374
0.19183103
0.19183525
0.19186237
0.1918828
0.19205371
0.18605267
0.14722874
0.11736832
0.094711942
0.072908929
0.059773666
0.04429758
0.036154487
0.027525238
0.020138391
0.014670042
0.010407485
0.0074932733
0.0045329822
0.0026695128
0.00093569961
0.19872907
0.19787492
0.19713865
0.19651056
0.19596853
0.195495
0.19507852
0.19470919
0.19438287
0.19409191
0.1938303
0.1935958
0.19338538
0.19319502
0.1930226
0.19286748
0.19272657
0.19259762
0.19248242
0.1923791
0.19228455
0.19219921
0.19212097
0.19205212
0.19199394
0.19194595
0.19190504
0.19187481
0.19185815
0.19185873
0.19187422
0.19192053
0.19200919
0.18964987
0.15020801
0.11975622
0.095408825
0.07575594
0.058125877
0.046171987
0.035901119
0.026326218
0.021095789
0.014335311
0.01162828
0.006547543
0.0047413588
0.0024599456
0.0009102466
0.19876423
0.19794594
0.19723179
0.19661682
0.1960817
0.19561109
0.19519468
0.19482337
0.1944932
0.1941976
0.19393116
0.19369145
0.19347584
0.19328051
0.19310296
0.19294252
0.19279729
0.19266418
0.19254413
0.1924368
0.19233851
0.19224993
0.19216846
0.19209611
0.19203451
0.19198371
0.19194038
0.19190621
0.1918853
0.19188152
0.19188999
0.19193971
0.19198191
0.19218014
0.15290528
0.12170599
0.096499066
0.076486027
0.060018719
0.046271861
0.035404023
0.027890285
0.020474437
0.014731117
0.0097256555
0.0074193298
0.0040923799
0.0028615011
0.0009518973
0.19879883
0.19800985
0.19731479
0.19671089
0.19618201
0.19571418
0.19529753
0.19492496
0.19459143
0.19429162
0.19402123
0.19377726
0.19355726
0.19335767
0.19317564
0.19301023
0.19286073
0.19272387
0.19259944
0.19248817
0.19238651
0.19229488
0.19221083
0.19213545
0.19207085
0.19201754
0.19197238
0.19193488
0.19191
0.19190211
0.19190444
0.19195401
0.19196385
0.1921834
0.15471052
0.122826
0.097704592
0.076742972
0.060083514
0.047031285
0.036005947
0.027437562
0.019882133
0.015682717
0.010289396
0.0071694333
0.0044354059
0.0024619215
0.00088505361
0.19883196
0.19806619
0.1973861
0.19679106
0.1962675
0.19580163
0.19538494
0.19501146
0.19467556
0.19437229
0.19409866
0.19385128
0.19362766
0.1934246
0.19323881
0.1930691
0.19291579
0.19277582
0.19264764
0.19253258
0.19242777
0.19233337
0.19224718
0.19216917
0.1921017
0.19204567
0.19199882
0.19195853
0.19193
0.19191833
0.19191537
0.19196311
0.1919457
0.19218388
0.15712977
0.12411928
0.09899624
0.077849
0.060955543
0.047046862
0.036402786
0.027589927
0.02086073
0.014451951
0.010659045
0.0066465519
0.0043038464
0.0025135096
0.00093908858
0.19886114
0.19811252
0.19744356
0.19685524
0.19633545
0.19587157
0.19545543
0.19508091
0.19474292
0.19443718
0.19416116
0.19391101
0.1936843
0.19347853
0.19329007
0.19311715
0.19296067
0.19281823
0.19268729
0.19256926
0.19246184
0.19236504
0.19227715
0.19219709
0.19212731
0.19206878
0.19202006
0.19197718
0.19194523
0.19193015
0.1919231
0.19196842
0.19193037
0.19218356
0.16057686
0.12734107
0.10088896
0.079952536
0.062291106
0.048339296
0.037147129
0.028255962
0.021040396
0.015224827
0.010544947
0.0071696153
0.0042681684
0.002606498
0.00090593901
0.19888432
0.19814754
0.19748562
0.19690203
0.19638513
0.19592283
0.19550725
0.19513185
0.19479206
0.19448527
0.19420755
0.19395514
0.19372578
0.19351757
0.19332707
0.19315192
0.19299319
0.192849
0.19271619
0.192596
0.19248652
0.19238768
0.19229836
0.19221651
0.19214461
0.19208381
0.19203353
0.19198931
0.19195562
0.19193909
0.19193023
0.19197386
0.19192509
0.19218768
0.16480871
0.13012902
0.10339957
0.081572358
0.063802916
0.049323849
0.037848147
0.028763961
0.021382917
0.015518439
0.010736214
0.0071166137
0.0044477331
0.0026445029
0.00093563358
0.19889936
0.19816909
0.19751096
0.19693007
0.19641474
0.19595288
0.19553737
0.1951617
0.19482136
0.19451363
0.19423477
0.19398128
0.19375055
0.19354071
0.19334878
0.19317235
0.19301239
0.1928674
0.19273382
0.19261245
0.19250194
0.19240214
0.19231227
0.19222956
0.19215629
0.19209388
0.19204274
0.1919986
0.19196541
0.19195033
0.19194337
0.19198854
0.19194421
0.19220991
0.16219067
0.12788297
0.10130354
0.080055694
0.062509182
0.048259536
0.036988254
0.028029261
0.020821797
0.014998813
0.010451754
0.0069436531
0.0042349134
0.0025288971
0.00091555109
0.1989047
0.198176
0.19751877
0.19693825
0.19642295
0.19596126
0.19554587
0.19517002
0.19482974
0.19452154
0.19424208
0.19398823
0.19375732
0.19354727
0.19335507
0.19317831
0.19301805
0.19287324
0.19274011
0.19261889
0.19250853
0.192409
0.19231951
0.19223705
0.19216362
0.19210071
0.19204944
0.19200576
0.1919732
0.19195921
0.19195296
0.19199962
0.19196347
0.19223026
0.15827352
0.12480685
0.098821224
0.078070514
0.060954456
0.047044694
0.036051046
0.027303089
0.02021308
0.014564164
0.010067086
0.0066508809
0.0040222161
0.0023428509
0.00088334727
0.19890007
0.19816949
0.1975109
0.19692988
0.19641433
0.19595259
0.19553727
0.19516165
0.19482168
0.19451386
0.19423443
0.19398066
0.19375015
0.19354072
0.19334909
0.19317286
0.19301305
0.19286862
0.19273582
0.19261445
0.1925037
0.19240384
0.19231401
0.19223148
0.19215794
0.19209461
0.19204272
0.19199836
0.19196467
0.19194902
0.19194062
0.19198444
0.19193926
0.19220629
0.16255747
0.12807199
0.101319
0.080064215
0.062564154
0.048309204
0.037017713
0.02804808
0.02083551
0.014945141
0.010502425
0.0068540443
0.0042609161
0.0025388014
0.00092014316
0.19888542
0.19814831
0.19748537
0.19690173
0.19638467
0.19592213
0.19550661
0.19513163
0.19479268
0.19448593
0.19420744
0.19395479
0.19372562
0.19351758
0.19332722
0.19315227
0.19299374
0.19285039
0.1927186
0.19259781
0.19248748
0.1923881
0.19229852
0.19221673
0.19214383
0.19208076
0.19202886
0.19198449
0.19195067
0.1919341
0.19192346
0.19196495
0.19191547
0.19218048
0.16545282
0.13057866
0.10339053
0.081675627
0.063840908
0.0495471
0.038021624
0.02878137
0.021196861
0.015645849
0.010538113
0.0073256846
0.0044184429
0.0025789324
0.00091449953
0.19886223
0.19811347
0.19744312
0.19685474
0.19633478
0.19587104
0.19545527
0.19508102
0.19474365
0.19443849
0.19416163
0.19391107
0.19368435
0.19347863
0.19329032
0.19311755
0.19296117
0.19281973
0.19268977
0.19257058
0.19246182
0.19236401
0.19227574
0.19219594
0.192125
0.19206366
0.19201338
0.19197086
0.19193927
0.1919245
0.19191536
0.19195856
0.19192094
0.1921775
0.16121742
0.12771437
0.10085088
0.079976503
0.062627359
0.048249886
0.037562356
0.028293754
0.021239024
0.014668132
0.010783083
0.0069975139
0.0041657591
0.0027874246
0.00093775581
0.19883268
0.19806699
0.19738583
0.19679084
0.19626731
0.19580182
0.19538558
0.19501184
0.1946759
0.19437284
0.19409864
0.19385115
0.19362783
0.19342518
0.19323964
0.19306989
0.19291647
0.19277767
0.19265024
0.19253363
0.19242763
0.19233241
0.19224629
0.19216914
0.1921004
0.19204106
0.19199283
0.1919528
0.19192436
0.19191204
0.19190656
0.1919523
0.19193696
0.19217875
0.15816013
0.12457857
0.09902309
0.077449814
0.060888412
0.048029389
0.036369782
0.02767015
0.020192863
0.014735721
0.010929944
0.0064147855
0.0044742269
0.0023089096
0.00092227098
0.19879902
0.19801049
0.1973152
0.19671159
0.19618281
0.19571464
0.195298
0.19492524
0.19459145
0.19429123
0.19402045
0.19377667
0.19355724
0.19335807
0.19317618
0.19301049
0.19286111
0.19272583
0.19260167
0.19248829
0.19238564
0.19229334
0.19220992
0.19213583
0.19206943
0.19201253
0.19196688
0.19192999
0.19190505
0.19189554
0.19189477
0.19194216
0.19195635
0.19217914
0.15611101
0.12342415
0.097016848
0.077016208
0.060198197
0.047255456
0.036062784
0.027212828
0.019846083
0.0162707
0.009149946
0.0074288386
0.0046708148
0.002679961
0.000893633
0.19876412
0.1979463
0.19723248
0.19661766
0.19608237
0.19561136
0.1951948
0.19482371
0.19449268
0.19419627
0.19392997
0.19369054
0.19347545
0.19328039
0.19310311
0.1929422
0.1927974
0.19266616
0.19254579
0.19243608
0.19233697
0.19224751
0.19216728
0.19209651
0.19203273
0.19197883
0.19193616
0.1919026
0.19188111
0.19187435
0.19187911
0.19192775
0.19197612
0.19217647
0.15306518
0.12316396
0.095121497
0.076514549
0.060204039
0.046173421
0.036412173
0.027552537
0.021318009
0.013437759
0.010974921
0.0079534572
0.0032834458
0.0026362148
0.00093472609
0.19872814
0.19787502
0.19713926
0.19651107
0.195969
0.19549503
0.19507844
0.19470979
0.1943828
0.19409035
0.19382893
0.19359471
0.19338466
0.1931946
0.1930228
0.19286711
0.19272706
0.19260025
0.19248402
0.19237838
0.19228304
0.19219697
0.19212076
0.19205335
0.1919924
0.19194185
0.19190221
0.19187172
0.1918532
0.19184981
0.19186244
0.19190823
0.1920068
0.18770772
0.15396979
0.11721021
0.096894536
0.073990652
0.059270794
0.046197181
0.036373315
0.026599111
0.019568388
0.015282807
0.011095425
0.0061360388
0.0054620664
0.0027208027
0.00091731986
0.1986921
0.19779814
0.19703735
0.19639359
0.19584383
0.19536818
0.19495192
0.19458596
0.1942634
0.193976
0.19372006
0.19349157
0.19328689
0.19310252
0.19293679
0.19278658
0.19265172
0.19252981
0.19241801
0.19231667
0.19222523
0.19214274
0.19207063
0.19200628
0.19194847
0.19190171
0.1918657
0.19183901
0.19182388
0.19182417
0.19184899
0.1918699
0.19204822
0.18621462
0.14683174
0.11939163
0.093453834
0.073197073
0.057842998
0.048311318
0.034553157
0.027056191
0.021704253
0.013629165
0.011406543
0.0055265568
0.0041120622
0.0024695756
0.0009469384
0.19865548
0.19771434
0.19692594
0.19626747
0.19570998
0.19523226
0.19481723
0.19445475
0.19413677
0.19385521
0.19360535
0.19338337
0.19318493
0.19300672
0.19284711
0.19270261
0.19257323
0.19245631
0.19234899
0.19225192
0.19216439
0.19208606
0.19201841
0.19195771
0.19190397
0.19186119
0.19182861
0.19180532
0.19179394
0.19179899
0.19183539
0.19185424
0.19205026
0.18190009
0.14510344
0.11881194
0.08726953
0.073558157
0.05862511
0.045135646
0.034920638
0.027852566
0.017414042
0.017940948
0.0082968121
0.0064510452
0.0052375262
0.0028791162
0.00089042571
0.19861697
0.19762413
0.19680721
0.19613433
0.19556996
0.19509001
0.19467723
0.19431917
0.19400588
0.19373037
0.19348742
0.19327246
0.19308087
0.19290918
0.19275554
0.19261698
0.19249311
0.19238098
0.19227857
0.19218575
0.19210288
0.19202932
0.19196558
0.19190794
0.19185801
0.19181966
0.19179131
0.19177156
0.19176466
0.19177486
0.19182178
0.19185564
0.19203786
0.17661523
0.14600145
0.10915715
0.089615711
0.073169613
0.058353533
0.04263122
0.034563238
0.024306328
0.02257059
0.013584609
0.011622757
0.0078044241
0.0038625228
0.0025148968
0.00089414692
0.19857791
0.19752925
0.1966821
0.1959949
0.19542494
0.1949442
0.19453411
0.19418076
0.19387326
0.19360463
0.19336905
0.19316117
0.19297592
0.19281091
0.19266374
0.19253125
0.19241283
0.19230547
0.19220787
0.19211947
0.19204102
0.19197249
0.19191298
0.19185923
0.19181337
0.19177851
0.19175347
0.19173819
0.19173756
0.19175314
0.19180552
0.19187316
0.19202218
0.17434424
0.13994726
0.10557287
0.096612943
0.067817042
0.05517505
0.044056702
0.034984741
0.028667897
0.019416617
0.01281842
0.0093718591
0.0052688251
0.0052236111
0.0033917555
0.00090727457
0.19853687
0.19742896
0.19655154
0.19585006
0.19527581
0.19479635
0.19439035
0.1940421
0.1937411
0.19348009
0.19325142
0.19305065
0.19287243
0.19271386
0.19257261
0.19244634
0.19233318
0.19223072
0.19213814
0.19205438
0.19198057
0.19191689
0.19186106
0.1918104
0.19176803
0.19173783
0.19171731
0.1917055
0.1917091
0.19173341
0.19178456
0.19190091
0.1920219
0.17352062
0.13049995
0.11799287
0.084309712
0.066056359
0.056302778
0.044100048
0.034712048
0.024261096
0.019523691
0.016744285
0.012515462
0.0076263193
0.0046837359
0.0027656703
0.00088284427
0.19848781
0.19732126
0.19641514
0.19570203
0.19512515
0.19464837
0.19424759
0.19390497
0.19361114
0.19335755
0.19313622
0.19294238
0.19277139
0.19261943
0.1924837
0.19236359
0.19225556
0.19215837
0.19207039
0.19199171
0.19192268
0.19186209
0.19180988
0.19176354
0.19172591
0.19169813
0.19168027
0.19167372
0.19168589
0.19171793
0.19177102
0.19190609
0.1920421
0.16341551
0.13530795
0.11242059
0.073520075
0.074831921
0.053551012
0.045795828
0.032225898
0.026909537
0.02006622
0.015363888
0.0067803678
0.0072080284
0.0057715459
0.003504845
0.00084619165
0.19843365
0.19720885
0.19627598
0.19555355
0.19497576
0.19450248
0.19410713
0.19377102
0.19348469
0.19323862
0.19302482
0.19283815
0.19267372
0.19252801
0.19239811
0.19228523
0.1921815
0.19208839
0.19200636
0.19193231
0.19186756
0.1918103
0.19176096
0.1917173
0.19168336
0.19166276
0.19164792
0.19164379
0.19166083
0.19170042
0.19177111
0.19190083
0.19207148
0.16133338
0.14013845
0.094158882
0.089805973
0.072254939
0.053369087
0.040921273
0.031962485
0.026175288
0.018628184
0.012605345
0.019696714
0.0091018737
0.004257548
0.0030257757
0.0008085743
0.19837705
0.19709297
0.19613647
0.1954065
0.19482921
0.19436022
0.19397066
0.19364189
0.19336323
0.19312401
0.19291765
0.19273807
0.19258022
0.19244048
0.19231695
0.19220952
0.19211066
0.19202229
0.19194382
0.19187495
0.19181481
0.1917616
0.19171411
0.19167441
0.19164545
0.1916265
0.19161594
0.19161836
0.19163973
0.19168226
0.19178117
0.19189671
0.19209968
0.16505623
0.12505991
0.098341495
0.09160281
0.05684305
0.05280413
0.041185638
0.039534661
0.023318934
0.025560942
0.011407577
0.0089731978
0.0048384359
0.0047032637
0.0036383701
0.00079211678
0.19831017
0.19696948
0.19599515
0.19526151
0.1946865
0.19422249
0.1938393
0.19351805
0.19324719
0.193015
0.1928156
0.19264273
0.19249122
0.19235756
0.19224031
0.19213755
0.19204235
0.19195953
0.19188592
0.19182028
0.19176349
0.19171446
0.19166962
0.19163405
0.19160838
0.19159208
0.19158546
0.19159217
0.19162225
0.19167254
0.19178338
0.19190334
0.19212245
0.15485964
0.11967861
0.10872004
0.074687042
0.070383216
0.057805731
0.04433985
0.027882824
0.031883735
0.013171107
0.013133632
0.0097566867
0.0074621698
0.0089042492
0.0040742318
0.00075283124
0.19824952
0.19685265
0.19585889
0.19512269
0.19455089
0.19409223
0.19371525
0.19340134
0.19313767
0.19291271
0.19271992
0.1925534
0.19240784
0.19227969
0.19216766
0.19206956
0.19197966
0.19190007
0.19183156
0.19177064
0.19171578
0.19167057
0.1916284
0.19159509
0.19157213
0.19155923
0.19155667
0.19156872
0.19161046
0.19166557
0.19177734
0.19191721
0.18610502
0.15134891
0.12846194
0.099168997
0.076852593
0.067945113
0.045553088
0.038750287
0.037708155
0.022560799
0.025838968
0.019613522
0.0089521517
0.0052818451
0.0051266237
0.0033218476
0.00074694561
0.1981428
0.19669695
0.19570796
0.19497824
0.19441362
0.19396258
0.19359332
0.19328786
0.19303142
0.19281385
0.19262807
0.19246788
0.19232821
0.19220577
0.19209855
0.19200353
0.19191932
0.19184379
0.19177869
0.19172178
0.19167002
0.1916277
0.19159001
0.19155903
0.19153937
0.19152771
0.19152736
0.19154822
0.1915997
0.19166721
0.19177008
0.19192874
0.18494413
0.14397523
0.1211495
0.089571758
0.083344284
0.062788296
0.057563289
0.046352405
0.031838359
0.025720463
0.01150898
0.013005369
0.018630377
0.0080963771
0.0065635863
0.0048417931
0.00073223702
0.19817014
0.19664646
0.19561824
0.19487897
0.19431293
0.19386348
0.19349765
0.19319714
0.19294505
0.19273201
0.19255121
0.19239549
0.19226012
0.19214182
0.19203881
0.19194624
0.19186544
0.19179375
0.1917324
0.19167724
0.19162867
0.19158846
0.19155337
0.19152569
0.19150957
0.19150017
0.19149932
0.19152485
0.19158117
0.19166536
0.19176738
0.19193137
0.17925405
0.14983419
0.11444789
0.099170356
0.080475208
0.058936099
0.048571148
0.039555693
0.030551659
0.022956129
0.022525945
0.011098325
0.0062077939
0.0055557707
0.0079907902
0.013390072
0.00071861571
0.0030025583
0.011046871
0.020855193
0.024081799
0.061125328
0.049826868
0.056166578
0.074852523
0.083980763
0.096761485
0.11794426
0.10662082
0.16067946
0.17064259
0.18991907
0.19268979
0.19417756
0.19450472
0.19410666
0.1933167
0.19256232
0.19197869
0.19148803
0.19112839
0.1908684
0.19067234
0.19053546
0.19043921
0.19036854
0.19031586
0.19027724
0.19025553
0.19023864
0.1902285
0.1902224
0.19022288
0.19023174
0.19024766
0.19027136
0.19030642
0.19035745
0.1904286
0.19052637
0.19065841
0.1908391
0.19109104
0.19144947
0.19198778
0.19254681
0.0027054622
0.015172346
0.023759096
0.044704597
0.04586577
0.079127412
0.085870198
0.092462183
0.10216708
0.11743442
0.1325008
0.15159221
0.14517022
0.18659908
0.19068629
0.15459759
0.19430169
0.19445969
0.19403614
0.1931906
0.1924877
0.19193076
0.19144674
0.19111502
0.19086729
0.19068397
0.19055725
0.19046567
0.1904003
0.19034819
0.19031116
0.19029147
0.19027683
0.19026771
0.19026297
0.19026305
0.19027208
0.19028865
0.19031263
0.19034778
0.19039919
0.19047099
0.19056947
0.19070234
0.19088413
0.19113709
0.19149695
0.19203653
0.19262002
0.0026135512
0.015179921
0.027105138
0.047603249
0.066753048
0.059108449
0.058511819
0.077240164
0.077346959
0.091285544
0.10189421
0.11154994
0.10863688
0.11818314
0.19089219
0.19316524
0.1943041
0.19442935
0.19395518
0.19319932
0.19247927
0.19192431
0.19142677
0.19112234
0.1908847
0.19071184
0.1905851
0.19049445
0.19043311
0.1903808
0.19034623
0.1903272
0.19031441
0.19030554
0.19030233
0.19030214
0.19031123
0.1903284
0.19035273
0.19038813
0.19043999
0.19051253
0.1906118
0.1907456
0.19092858
0.19118273
0.19154408
0.19208536
0.1926766
0.0025214729
0.014926279
0.0277744
0.048573548
0.043991082
0.08274891
0.082206245
0.10632124
0.10933702
0.12821806
0.13552879
0.14326435
0.17896171
0.18730077
0.17717735
0.19332137
0.19433815
0.19438147
0.19391523
0.19314376
0.19244863
0.1919086
0.19141349
0.19113268
0.19090226
0.19074193
0.19061321
0.19052327
0.19046462
0.19041275
0.19038207
0.19036312
0.19035136
0.19034268
0.19034081
0.19034077
0.19034989
0.19036765
0.19039249
0.1904284
0.19048085
0.1905543
0.19065456
0.19078949
0.19097391
0.19122958
0.19159276
0.1921361
0.19274143
0.002432742
0.015081189
0.030768975
0.051862578
0.070134218
0.080608642
0.070335828
0.085638607
0.081735775
0.10065393
0.096646615
0.11416622
0.10990925
0.13045086
0.19105869
0.19327594
0.19435095
0.19434493
0.1938449
0.19308509
0.19241489
0.19187925
0.19140768
0.19114266
0.19091903
0.19077137
0.19064225
0.19055319
0.1904946
0.19044454
0.19041798
0.19039944
0.19038752
0.19037948
0.19037833
0.190379
0.19038824
0.19040652
0.19043208
0.19046875
0.19052192
0.19059638
0.19069782
0.19083408
0.19102013
0.19127755
0.19164286
0.19218867
0.19280727
0.0023509522
0.015014305
0.03161485
0.052952044
0.058551693
0.084275027
0.085471016
0.095546437
0.10658871
0.12051459
0.12179826
0.13815217
0.1558365
0.18628691
0.16606034
0.1932522
0.19424568
0.19429344
0.19378566
0.19303457
0.192368
0.19183839
0.19140923
0.19114926
0.19093647
0.19079651
0.19067093
0.19058362
0.19052353
0.19047677
0.19045307
0.19043601
0.19042287
0.190416
0.19041488
0.1904168
0.19042653
0.19044512
0.19047166
0.19050933
0.19056339
0.19063894
0.19074175
0.19087951
0.1910674
0.19132685
0.19169458
0.19224326
0.19287615
0.0022776103
0.015171996
0.03281327
0.054462595
0.075393684
0.092001111
0.08301832
0.096508541
0.08694463
0.098155757
0.096791494
0.12830979
0.11155108
0.13240721
0.15975762
0.1932041
0.19415574
0.19415681
0.19371052
0.19297642
0.19231598
0.19179293
0.19141243
0.19115325
0.19095265
0.19081486
0.19069723
0.19061256
0.19055216
0.19050944
0.19048642
0.19047211
0.19045762
0.19045177
0.19045064
0.1904541
0.19046495
0.19048361
0.19051135
0.19055028
0.19060541
0.19068211
0.19078647
0.19092594
0.19111586
0.1913776
0.19174805
0.19230002
0.19294774
0.0022151624
0.014946551
0.032791624
0.054755318
0.067691322
0.094262625
0.078172596
0.10781077
0.09265436
0.11162509
0.11175912
0.14936529
0.14499317
0.1624411
0.14141768
0.19320497
0.19407837
0.19406476
0.19361584
0.1929206
0.19227792
0.19175499
0.19141246
0.19115498
0.19096358
0.19082526
0.19071993
0.19063871
0.19058104
0.19054188
0.19051769
0.19050706
0.19049211
0.19048682
0.19048592
0.19049097
0.19050359
0.19052226
0.1905513
0.19059169
0.19064808
0.19072604
0.1908321
0.1909735
0.19116564
0.1914299
0.19180343
0.19235911
0.19302229
0.0021042193
0.015000557
0.033747586
0.055815033
0.071749249
0.095396257
0.07006856
0.09690153
0.084870716
0.11244293
0.093232546
0.12100418
0.12897406
0.15902041
0.14272208
0.17540469
0.19401828
0.1939996
0.19351837
0.19288438
0.19225881
0.19172374
0.19140447
0.19115868
0.19097147
0.19083354
0.19073962
0.19066185
0.19061173
0.19057325
0.19054738
0.19054017
0.19052688
0.19052097
0.19052097
0.19052761
0.19054233
0.19056123
0.19059158
0.19063354
0.19069141
0.19077076
0.19087866
0.19102222
0.19121677
0.19148386
0.19186078
0.19242065
0.19309997
0.0020459976
0.014779137
0.032996697
0.055969001
0.058340835
0.095229982
0.080071646
0.097700569
0.087485394
0.12696913
0.097008329
0.11430231
0.12843441
0.18823301
0.17305654
0.17089053
0.18754237
0.1939407
0.19345094
0.19285158
0.19224753
0.19171041
0.1913953
0.19116766
0.1909795
0.19084569
0.19075781
0.19068208
0.19064434
0.19060325
0.19057627
0.19057122
0.19056218
0.19055471
0.19055609
0.19056438
0.19058117
0.1906007
0.19063235
0.19067592
0.19073548
0.1908164
0.19092623
0.19107219
0.19126936
0.19153959
0.19192018
0.19248471
0.19318045
0.0019646057
0.01479898
0.03506222
0.057024402
0.074198497
0.094329549
0.074040464
0.10079927
0.073327804
0.11148975
0.10002186
0.12096631
0.095377779
0.14319433
0.17737828
0.1844927
0.18299251
0.19386189
0.19338592
0.1928233
0.19222032
0.19171758
0.19139252
0.19117987
0.19098754
0.19086619
0.19077995
0.19070142
0.19067772
0.19063275
0.19060648
0.19060082
0.19059765
0.19058921
0.19059171
0.19060163
0.19062028
0.19064091
0.19067385
0.19071901
0.19078052
0.19086319
0.19097505
0.1911236
0.19132362
0.19159726
0.19198183
0.19255149
0.19326457
0.0019028654
0.014615508
0.035441752
0.05701081
0.046696173
0.09164546
0.064970507
0.10123428
0.076784526
0.099402251
0.11144887
0.17855417
0.10207793
0.11665253
0.14141918
0.19296021
0.19370089
0.19379243
0.19332014
0.1927947
0.19217303
0.19172495
0.19140047
0.19120212
0.19099913
0.19089315
0.19080891
0.19072651
0.19070928
0.19066202
0.19063934
0.19063038
0.1906326
0.190625
0.19062809
0.1906394
0.1906597
0.19068189
0.19071616
0.1907629
0.1908266
0.19091123
0.19102523
0.19117654
0.19137964
0.19165694
0.19204586
0.19262108
0.1933522
0.001821852
0.014829822
0.035793643
0.056815872
0.061141465
0.082769128
0.071373728
0.10114951
0.086790531
0.098123253
0.080641034
0.12550119
0.13664789
0.13645041
0.10988746
0.17725927
0.19361351
0.19361438
0.19322983
0.19273883
0.19212865
0.19171643
0.1913998
0.19122974
0.19101912
0.1909173
0.19083886
0.19075808
0.19073966
0.19069073
0.19067362
0.19066176
0.19066695
0.19066169
0.19066535
0.19067758
0.19069932
0.19072354
0.19075917
0.19080757
0.1908737
0.19096047
0.19107683
0.19123107
0.19143747
0.19171872
0.19211236
0.19269363
0.19344363
0.0017552387
0.014568668
0.035700771
0.056227577
0.068960586
0.088696339
0.063584382
0.077781779
0.073838335
0.10478826
0.073361739
0.08029776
0.091014341
0.16747426
0.12951859
0.14681309
0.19351311
0.19349676
0.19313135
0.1926487
0.19209913
0.19169507
0.19138497
0.1912391
0.19104565
0.19093875
0.19085782
0.19079044
0.1907718
0.19072042
0.19070701
0.19069563
0.19070121
0.19069896
0.19070334
0.19071633
0.19073924
0.19076587
0.190803
0.19085319
0.19092187
0.191011
0.19113001
0.1912873
0.19149718
0.19178271