/*--------------------------------*- C++ -*----------------------------------*\
| =========                 |                                                 |
| \\      /  F ield         | OpenFOAM: The Open Source CFD Toolbox           |
|  \\    /   O peration     | Version:  2506                                  |
|   \\  /    A nd           | Website:  www.openfoam.com                      |
|    \\/     M anipulation  |                                                 |
\*---------------------------------------------------------------------------*/
FoamFile
{
    version     2.0;
    format      ascii;
    arch        "LSB;label=32;scalar=64";
    class       volScalarField;
    location    "2.75";
    object      p;
}
// * * * * * * * * * * * * * * * * * * * * * * * * * * * * * * * * * * * * * //

dimensions      [1 -1 -2 0 0 0 0];

internalField   nonuniform List<scalar> 
19257
(
47044.2
47039.831
47038.782
47039.521
47037.934
47036.802
47036.901
47036.828
47035.866
47035.674
47033.507
47032.177
47030.624
47029.166
47027.267
47027.304
47028.164
47024.675
47023.581
47021.847
47019.503
47014.86
47012.546
47013.368
47009.929
47005.854
47003.45
47003.65
46999.95
46995.245
46993.368
46991.475
46990.169
46987.043
46987.658
46987.541
46985.873
46986.457
46983.334
46982.49
46995.078
46957.404
46935.077
46925.264
46914.836
46885.086
46557.814
46646.634
46066.886
47044.972
47041.454
47038.911
47039.615
47038.499
47036.896
47037.014
47037.224
47036.978
47036.061
47033.721
47032.493
47031.345
47030.28
47029.25
47028.214
47029.576
47026.618
47024.765
47024.008
47021.972
47017.904
47015.178
47016.621
47015.017
47011.504
47009.194
47010.043
47008.303
47005.016
47003.037
47003.18
47005.154
47005.491
47007.511
47010.964
47013.966
47020.908
47026.076
47034.016
47023.928
47022.61
47035.772
47030.774
47015.187
46980.13
46791.631
46856.202
46074.154
47047.636
47040.205
47038.674
47039.681
47038.851
47037.324
47037.148
47037.477
47037.023
47036.069
47034.345
47033.38
47032.701
47031.761
47030.421
47029.172
47030.564
47028.601
47026.655
47025.971
47024.941
47021.064
47018.644
47020.144
47019.786
47016.915
47015.692
47015.714
47016.269
47014.929
47013.39
47014.771
47018.324
47022.456
47026.957
47033.2
47040.151
47050.642
47064.166
47074.268
47087.581
47094.833
47098.827
47116.412
47131.034
47088.476
46958.043
47017.695
46285.205
47047.609
47040.468
47038.178
47039.68
47039.269
47038.001
47037.212
47037.729
47037.242
47036.758
47035.414
47034.465
47033.918
47032.965
47031.643
47030.637
47031.774
47031.151
47029.22
47028.445
47028.055
47024.798
47022.64
47023.742
47024.031
47022.787
47022.145
47021.97
47024.55
47025.084
47024.529
47025.998
47031.243
47038.659
47046.068
47054.734
47064.275
47078.796
47096.397
47114.855
47130.05
47140.367
47164.376
47194.811
47220.516
47210.428
47178.091
47177.243
46500.166
47048.054
47041.131
47037.965
47039.406
47039.829
47038.77
47037.342
47037.853
47037.559
47037.629
47036.377
47035.389
47034.957
47033.748
47033.163
47032.061
47033.027
47033.234
47031.925
47031.097
47030.788
47028.829
47027.05
47027.322
47028.725
47028.887
47028.907
47029.581
47032.171
47035.288
47036.211
47037.892
47043.958
47053.798
47064.78
47075.741
47088.243
47106.314
47128.847
47153.822
47169.735
47196.232
47232.696
47272.593
47312.32
47325.252
47342.846
47347.96
46768.617
47048.316
47041.71
47037.942
47038.602
47039.98
47039.382
47037.845
47038.125
47037.792
47037.924
47037.241
47036.442
47035.986
47034.981
47034.407
47033.453
47033.805
47034.667
47034.941
47034.232
47033.37
47032.569
47031.974
47031.624
47033.747
47034.893
47036.385
47037.752
47040.428
47045.402
47048.291
47050.543
47056.941
47068.119
47082.518
47096.443
47111.448
47130.942
47159.507
47185.749
47215.954
47247.025
47282.734
47335.474
47391.762
47443.124
47504.809
47505.324
47081.543
47048.547
47041.908
47037.8
47038.169
47040.136
47039.881
47038.598
47038.702
47038.47
47038.435
47037.944
47037.401
47037.208
47036.794
47036.059
47035.396
47035.126
47036.824
47038.129
47037.298
47036.417
47036.928
47036.579
47036.32
47039.05
47041.529
47043.976
47046.124
47049.167
47055.087
47060.155
47063.59
47070.493
47082.412
47099.487
47116.549
47134.217
47156.874
47186.355
47222.354
47252.739
47288.956
47340.204
47401.16
47473.871
47552.681
47645.452
47664.228
47384.185
47049.357
47042.687
47038.361
47038.194
47040.212
47040.338
47039.615
47039.259
47039.255
47039.045
47038.888
47038.64
47038.529
47038.424
47037.874
47037.319
47037.377
47039.093
47040.637
47040.503
47040.355
47040.738
47040.929
47041.909
47044.601
47047.825
47051.109
47054.438
47058.36
47064.806
47071.75
47076.784
47084.43
47096.994
47115.455
47135.99
47156.246
47181.417
47213.74
47253.485
47293.212
47339.302
47385.431
47453.905
47542.338
47648.195
47761.586
47826.997
47697.289
47050.616
47042.897
47037.697
47038.307
47040.423
47041.23
47040.565
47039.695
47039.805
47039.562
47039.862
47039.832
47039.667
47039.532
47039.349
47039.354
47039.277
47040.5
47042.991
47043.92
47044.397
47044.652
47045.544
47047.27
47050.619
47054.388
47058.159
47062.579
47067.741
47074.76
47083.175
47089.884
47098.411
47111.715
47130.788
47154.057
47177.407
47205.251
47239.853
47282.866
47329.656
47372.735
47431.577
47510.907
47614.186
47741.014
47879.271
47984.288
47977.686
47051.606
47043.359
47038.069
47038.602
47040.504
47041.653
47041.235
47040.167
47040.07
47040.153
47040.581
47041.056
47041.056
47040.987
47041.096
47041.617
47041.391
47042.321
47045.397
47047.122
47048.3
47048.944
47050.103
47052.497
47056.768
47061.053
47065.036
47070.34
47076.745
47084.642
47094.421
47102.784
47112.043
47126.293
47146.095
47170.941
47197.432
47227.882
47265.344
47311.363
47362.019
47416.466
47479.718
47563.924
47675.458
47815.62
47975.146
48131.635
48239.136
47054.169
47044.442
47038.098
47038.909
47040.328
47041.951
47041.308
47040.557
47040.493
47040.873
47041.081
47041.918
47042.452
47042.644
47042.91
47044.029
47044.189
47044.758
47047.867
47050.301
47052.019
47053.413
47054.696
47057.543
47062.45
47067.618
47071.884
47077.75
47085.193
47094.169
47105.145
47115.246
47125.16
47140.321
47161.253
47187.103
47216.069
47249.083
47289.632
47337.966
47393.664
47451.791
47518.589
47609.293
47731.256
47887.217
48073.869
48274.073
48473.759
47056.021
47045.002
47038.256
47039.113
47040.33
47042.197
47041.764
47041.207
47041.266
47041.962
47041.85
47042.451
47043.357
47043.903
47044.46
47046.04
47046.974
47047.39
47050.246
47053.368
47055.698
47057.976
47059.501
47062.538
47067.836
47074.168
47079.06
47085.257
47093.381
47103.256
47115.11
47127.013
47137.857
47153.636
47175.99
47202.818
47233.138
47268.884
47311.701
47362.898
47423.071
47486.021
47560.039
47654.663
47789.058
47951.626
48157.628
48396.26
48683.155
47058.28
47046.067
47038.244
47038.867
47040.579
47042.071
47042.554
47041.535
47042.556
47043.083
47042.719
47043.096
47044.229
47045.099
47045.8
47047.493
47049.062
47049.747
47052.304
47056.037
47058.866
47062.01
47063.986
47067.256
47072.947
47080.352
47086.138
47092.421
47101.04
47111.774
47124.362
47137.837
47149.947
47166.038
47189.767
47217.984
47249.227
47286.687
47331.781
47385.847
47448.134
47517.611
47596.431
47698.092
47832.56
48010.972
48228.744
48518.94
48870.301
47060.841
47047.147
47038.06
47038.548
47040.695
47042.16
47043.126
47042.306
47043.18
47043.584
47043.55
47044.04
47045.356
47046.577
47047.356
47048.848
47050.913
47052.057
47054.278
47058.32
47061.607
47065.455
47068.067
47071.455
47077.288
47085.472
47092.519
47098.968
47108.048
47119.587
47132.911
47147.528
47161.072
47177.476
47202.177
47232.078
47264.388
47302.843
47349.95
47405.918
47471.278
47545.501
47628.591
47736.25
47875.014
48064.198
48300.919
48622.046
49029.371
47063.603
47048.225
47038.57
47038.524
47040.953
47042.323
47043.046
47042.971
47043.356
47043.564
47043.787
47044.579
47046.231
47047.91
47048.964
47050.227
47052.607
47054.433
47056.501
47060.534
47064.195
47068.471
47071.797
47075.333
47081.201
47089.797
47098.217
47105.009
47114.427
47126.633
47140.72
47156.086
47170.913
47187.81
47213.115
47244.69
47278.4
47317.7
47365.787
47423.664
47491.759
47568.978
47657.779
47769.201
47916.719
48107.189
48362.741
48702.834
49168.844
47066.047
47049.402
47039.13
47038.35
47041.124
47042.358
47042.77
47043.527
47043.882
47043.647
47044.11
47045.206
47046.958
47049.001
47050.335
47051.398
47053.893
47056.412
47058.503
47062.362
47066.235
47070.839
47074.934
47078.692
47084.578
47093.328
47102.949
47110.334
47120.002
47132.776
47147.588
47163.438
47179.214
47196.814
47222.51
47255.47
47290.836
47331.162
47379.71
47438.663
47508.92
47589.507
47682.848
47797.501
47949.597
48146.981
48412.054
48780.326
49285.059
47068.139
47050.531
47039.391
47038.34
47040.807
47042.424
47043.034
47043.931
47044.055
47043.608
47044.559
47046
47047.758
47049.992
47051.575
47052.462
47054.894
47057.922
47060.166
47063.867
47067.842
47072.652
47077.483
47081.518
47087.363
47096.042
47106.521
47114.636
47124.518
47137.814
47153.219
47169.315
47185.681
47204.031
47230.076
47263.973
47300.955
47342.411
47391.154
47450.567
47522.405
47605.65
47702.048
47820.961
47975.667
48179.95
48453.401
48838.954
49372.709
47069.853
47051.734
47039.488
47038.147
47040.674
47042.47
47043.379
47044.268
47043.648
47043.92
47045.173
47046.591
47048.266
47050.605
47052.498
47053.407
47055.714
47059.019
47061.496
47065.124
47069.157
47074.012
47079.423
47083.752
47089.554
47098.024
47108.906
47117.647
47127.687
47141.416
47157.181
47173.227
47189.835
47208.823
47235.134
47269.381
47307.696
47350.279
47398.953
47458.128
47530.723
47615.652
47714.258
47835.714
47993.321
48200.633
48481.544
48878.189
49434.272
47071.114
47052.662
47039.57
47038.09
47040.627
47042.106
47043.07
47043.956
47043.999
47044.606
47045.675
47046.841
47048.369
47050.693
47052.759
47053.755
47056.012
47059.562
47062.268
47065.769
47069.751
47074.61
47080.426
47085.046
47090.805
47099.003
47109.955
47119.098
47129.237
47143.264
47159.108
47174.835
47191.423
47210.897
47237.371
47271.514
47310.7
47354.124
47402.529
47461.071
47533.735
47619.36
47718.923
47841.511
48000.567
48209.75
48493.747
48897.372
49465.137
47071.835
47053.09
47039.645
47038.009
47040.225
47041.919
47043.122
47043.891
47044.466
47045.094
47045.96
47047.033
47048.532
47050.851
47052.947
47053.936
47056.139
47059.853
47062.735
47065.976
47069.702
47074.537
47080.565
47085.439
47091.203
47099.141
47109.992
47119.363
47129.577
47143.792
47159.473
47174.804
47191.349
47211.33
47237.967
47271.79
47311.464
47355.315
47403.454
47461.622
47534.104
47619.615
47719.096
47842.09
48001.782
48211.341
48495.903
48901.412
49472.443
47071.804
47052.995
47039.441
47037.968
47040.078
47041.98
47043.332
47043.844
47044.435
47045.231
47046.01
47047.07
47048.619
47050.913
47052.899
47053.826
47056.024
47059.777
47062.826
47065.88
47069.328
47074.084
47080.085
47085.177
47091.061
47098.845
47109.515
47118.99
47129.286
47143.577
47158.881
47173.843
47190.463
47211.1
47237.91
47271.293
47311.159
47355.082
47403.087
47461.332
47533.546
47618.222
47717.009
47840.249
48000.538
48209.942
48493.523
48896.419
49463.892
47070.91
47052.332
47039.229
47037.959
47040.124
47042.025
47043.004
47043.643
47044.459
47045.33
47045.878
47046.771
47048.331
47050.655
47052.521
47053.344
47055.475
47059.142
47062.274
47065.237
47068.503
47073.164
47078.876
47084.097
47090.11
47097.754
47108.161
47117.539
47127.908
47142.076
47156.692
47171.251
47188.021
47209.392
47236.303
47269.071
47308.676
47352.168
47400.077
47458.684
47530.227
47612.935
47709.986
47833.4
47993.343
48201.429
48481.012
48875.869
49431.13
47069.272
47051.234
47038.982
47037.984
47040.154
47041.986
47043.026
47043.803
47044.666
47045.401
47045.521
47046.137
47047.821
47050.277
47051.985
47052.678
47054.688
47058.172
47061.164
47063.914
47067
47071.509
47076.74
47082.017
47088.02
47095.385
47105.396
47114.51
47124.965
47138.68
47152.321
47166.469
47183.346
47205.261
47231.909
47263.748
47302.425
47344.945
47392.778
47451.489
47521.337
47600.638
47695.521
47817.658
47976.808
48180.752
48450.721
48837.581
49370.852
47067.018
47049.987
47038.818
47038.293
47040.807
47042.56
47043.485
47043.77
47044.069
47044.552
47044.647
47045.37
47047.32
47049.645
47050.905
47051.509
47053.547
47056.822
47059.474
47061.902
47064.821
47069.117
47073.831
47079.184
47084.97
47091.913
47101.448
47110.272
47120.767
47133.596
47146.147
47159.959
47176.927
47199.073
47224.986
47255.461
47292.618
47333.859
47381.664
47440.128
47506.739
47581.389
47673.754
47794.938
47952.836
48145.955
48410.286
48774.427
49282.77
47064.394
47048.777
47038.909
47039.187
47041.483
47042.821
47043.491
47043.116
47043.18
47043.525
47043.642
47044.454
47046.471
47048.385
47049.289
47049.933
47052.026
47055.006
47057.254
47059.395
47062.267
47066.219
47070.471
47075.894
47081.197
47087.664
47096.716
47105.233
47115.502
47126.979
47138.541
47152.166
47169.241
47191.371
47216.143
47244.827
47280.082
47320.329
47368.302
47425.336
47487.084
47557.184
47647.324
47769.82
47917.91
48105.512
48365.961
48696.839
49164.297
47061.869
47047.569
47038.566
47039.014
47041.113
47042.04
47042.667
47042.265
47042.585
47043.046
47043.111
47043.681
47045.34
47046.65
47047.343
47047.99
47050.051
47052.729
47054.676
47056.667
47059.491
47062.909
47066.948
47072.29
47076.83
47082.914
47091.46
47099.534
47109.086
47118.965
47129.876
47143.408
47160.505
47182.263
47205.369
47232.183
47265.427
47305.252
47353.276
47407.354
47463.372
47529.48
47619.044
47738.448
47878.522
48064.827
48287.293
48612.521
49023.3
47059.21
47046.041
47038.504
47038.786
47041.041
47041.277
47041.738
47041.621
47042.337
47042.014
47041.805
47042.315
47043.666
47044.497
47045.285
47046.064
47048.066
47050.581
47052.232
47053.963
47056.395
47059.152
47063.236
47068.184
47071.894
47077.751
47085.768
47093.237
47101.567
47109.957
47120.557
47133.887
47150.78
47171.586
47192.773
47217.504
47249.435
47289.016
47336.415
47385.637
47435.861
47497.964
47588.475
47702.263
47837.807
48012.288
48216.954
48511.499
48861.528
47056.333
47044.353
47038.16
47037.865
47039.748
47040.992
47041.056
47040.777
47041.456
47041.016
47040.79
47041.113
47041.848
47042.489
47043.629
47044.368
47046.29
47048.619
47049.729
47051.038
47052.888
47055.118
47059.325
47063.629
47066.699
47072.306
47079.658
47086.278
47093.052
47100.41
47110.862
47123.676
47140.014
47159.296
47178.528
47201.318
47232.548
47271.591
47317.371
47360.426
47403.845
47465.312
47555.93
47660.295
47792.295
47934.226
48154.737
48391.793
48677.537
47053.787
47043.559
47037.911
47038.018
47038.99
47040.538
47040.246
47040.005
47040.278
47040.086
47039.833
47040.311
47040.84
47041.222
47042.232
47042.767
47044.501
47046.458
47047.026
47047.826
47049.106
47050.939
47055.112
47058.663
47061.401
47066.718
47073.174
47078.565
47083.72
47090.66
47100.912
47112.839
47128.256
47145.798
47162.864
47184.407
47214.46
47253.731
47294.815
47331.127
47369.305
47432.019
47520.075
47615.971
47733.186
47877.815
48065.25
48253.792
48466.359
47051.221
47042.671
47038.137
47039.019
47039.74
47040.208
47039.965
47039.988
47039.718
47039.358
47039.212
47039.648
47040.138
47040.339
47040.896
47041.164
47042.677
47044.013
47044.143
47044.211
47045.054
47046.946
47050.835
47053.529
47055.921
47060.776
47066.137
47070.072
47073.994
47080.92
47090.611
47101.366
47115.751
47131.334
47146.465
47167.048
47195.978
47234.763
47269.137
47297.299
47334.353
47399.176
47480.407
47572.526
47667.42
47810.883
47943.896
48111.642
48227.88
47050.052
47043.106
47038.608
47039.772
47040.369
47040.162
47039.883
47039.776
47038.976
47038.613
47038.758
47039.145
47038.936
47038.945
47039.488
47039.653
47040.695
47041.174
47040.886
47040.315
47041.006
47043.18
47046.47
47048.363
47050.285
47054.442
47058.572
47061.104
47064.526
47071.399
47079.901
47089.316
47102.568
47116.218
47130.103
47149.049
47178.249
47212.558
47241.26
47262.884
47301.875
47365.452
47438.765
47515.42
47610.261
47728.973
47837.034
47960.347
47966.252
47049.081
47043.192
47039.409
47039.529
47039.848
47040.006
47039.927
47039.257
47038.251
47038.352
47038.111
47038.442
47037.93
47037.547
47037.543
47037.718
47038.381
47038.162
47037.386
47036.537
47037.168
47039.357
47042.169
47043.288
47044.52
47047.733
47050.778
47052.281
47055.634
47061.941
47068.92
47077.081
47088.992
47100.973
47113.663
47130.972
47159.661
47187.544
47210.255
47228.241
47268.408
47330.43
47395.363
47456.013
47548.336
47637.838
47757.73
47800.903
47681.241
47048.135
47042.11
47038.797
47038.835
47039.042
47039.594
47039.971
47038.668
47037.953
47037.911
47037.467
47037.465
47037.18
47036.701
47035.742
47036.102
47036.062
47035.587
47034.569
47033.584
47034.05
47035.526
47037.869
47038.211
47038.904
47041.377
47043.011
47043.787
47046.949
47052.382
47057.877
47064.82
47075.27
47085.792
47096.698
47113.214
47138.318
47162.557
47177.033
47194.703
47234.769
47290.721
47341.484
47396.682
47461.557
47541.694
47649.633
47642.93
47372.319
47047.91
47042.171
47039.071
47038.925
47039.051
47039.553
47039.658
47037.939
47037.478
47037.549
47037.261
47036.747
47036.34
47035.621
47034.409
47035.669
47034.557
47033.063
47032.192
47031.248
47031.447
47032.092
47033.601
47033.163
47033.001
47035.193
47035.663
47035.639
47038.135
47042.838
47046.892
47052.657
47061.724
47070.463
47079.445
47094.937
47115.261
47135.8
47142.744
47163.259
47202.635
47250.218
47286.346
47350.524
47380.629
47432.061
47489.164
47481.757
47061.917
47049.413
47042.485
47040.123
47039.366
47039.25
47039.551
47039.13
47037.569
47036.938
47036.492
47036.298
47035.86
47035.384
47034.246
47033.321
47034.478
47032.459
47030.466
47029.228
47028.676
47028.598
47028.939
47029.39
47028.284
47027.308
47028.485
47028.44
47027.744
47029.275
47033.548
47036.024
47040.55
47048.252
47054.844
47062.038
47074.489
47092.281
47105.441
47110.96
47130.687
47169.902
47204.65
47229.255
47271.153
47303.336
47289.167
47332.271
47327.763
46746.4
47048.591
47041.753
47040.526
47039.874
47039.525
47039.384
47038.602
47037.183
47036.698
47035.748
47035.167
47034.84
47034.18
47033.072
47032.521
47032.683
47029.958
47028.381
47026.541
47026.054
47025.535
47025.882
47025.029
47023.417
47022.174
47022.103
47021.226
47020.021
47020.619
47024.277
47025.238
47028.282
47034.29
47038.923
47043.575
47053.313
47068.975
47074.959
47080.038
47096.287
47135.657
47146.416
47181.639
47195.054
47239.663
47187.601
47125.649
47123.75
46467.131
47047.541
47040.424
47039.401
47039.831
47039.642
47039.109
47037.829
47036.585
47036.163
47035.314
47034.465
47034.168
47033.247
47032.028
47031.581
47031.282
47028.04
47026.395
47025.033
47024.298
47022.833
47023.192
47021.242
47018.741
47017.052
47016.473
47014.564
47012.717
47013.084
47014.456
47014.007
47015.755
47019.939
47022.033
47023.548
47032.035
47040.997
47045.092
47046.944
47065.313
47091.808
47096.799
47101.069
47126.809
47134.79
47100.15
46980.248
46951.026
46207.196
47046.297
47040.385
47039.128
47039.659
47039.52
47038.901
47036.973
47036.106
47035.313
47034.552
47033.836
47033.587
47032.801
47031.3
47030.265
47028.912
47026.463
47024.087
47022.889
47022.229
47020.513
47020.397
47017.851
47014.335
47012.369
47011.339
47008.207
47005.517
47006.148
47004.722
47002.572
47003.141
47004.762
47004.462
47003.575
47009.766
47011.896
47014.921
47012.193
47025.828
47038
47041.36
47033.04
47028.113
46981
46946.601
46758.622
46749.417
46080.754
47045.351
47040.52
47038.911
47039.538
47039.316
47038.624
47036.556
47035.981
47034.735
47033.767
47033.405
47032.929
47032.03
47030.316
47029.434
47026.697
47024.194
47022.14
47020.776
47019.57
47017.927
47017.444
47014.192
47010.095
47007.893
47006.393
47001.701
46998.619
46998.797
46994.698
46990.648
46990.294
46988.934
46986.208
46984.078
46985.027
46985.145
46982.233
46977.239
46980.502
46984.026
46965.509
46966.594
46934.55
46964.819
46857.789
46490.135
46501.377
45797.802
47521.935
47455.459
47423.275
47342.114
47322.819
47288.31
47256.334
47228.622
47203.483
47180.08
47157.903
47135.034
47117.707
47103.007
47089.768
47078.29
47064.906
47053.413
47044.243
47040.513
47036.565
47032.79
47029.273
47025.722
47022.58
47022.446
47022.741
47022.996
47023.946
47025.019
47026.627
47027.404
47028.498
47029.398
47029.096
47030.339
47031.877
47032.944
47033.433
47033.368
47034.14
47035.014
47036.262
47037.21
47037.066
47037.546
47036.737
47037.298
47036.431
47255.055
47263.325
47239.391
47243.66
47223.704
47211.322
47194.019
47176.325
47157.935
47140.403
47123.473
47108.429
47092.075
47078.513
47066.476
47053.901
47046.59
47041.025
47036.275
47030.293
47026.229
47024.477
47022.615
47020.73
47019.324
47019.533
47019.733
47020.486
47021.935
47023.488
47025.35
47026.419
47027.604
47028.71
47028.596
47029.927
47031.535
47032.679
47033.15
47033.123
47033.962
47034.851
47036.198
47037.14
47037.164
47037.544
47036.793
47037.212
47036.442
47130.683
47131.806
47134.208
47131.936
47126.515
47120.868
47112.514
47106.137
47096.676
47087.442
47078.571
47068.49
47059.14
47050.322
47042.031
47037.813
47032.05
47027.189
47022.543
47018.461
47016.36
47015.886
47015.541
47015.245
47015.274
47015.974
47016.608
47017.995
47020.059
47021.893
47024.008
47025.344
47026.684
47028.033
47028.11
47029.516
47031.191
47032.422
47032.869
47032.9
47033.792
47034.702
47036.128
47037.047
47037.208
47037.552
47036.848
47037.131
47036.433
46979.987
47017.827
46998.708
47030.614
47027.953
47038.462
47039.506
47040.349
47039.371
47037.528
47034.721
47031.433
47027.649
47023.85
47019.18
47014.436
47011.704
47009.432
47008.285
47007.348
47006.635
47007.345
47008.171
47009.332
47010.991
47012.237
47013.591
47015.557
47018.083
47020.322
47022.608
47024.271
47025.796
47027.39
47027.64
47029.093
47030.847
47032.167
47032.614
47032.688
47033.616
47034.552
47036.044
47036.973
47037.256
47037.605
47036.903
47037.049
47036.425
46904.199
46918.95
46930.66
46940.978
46949.153
46960.225
46968.533
46975.569
46981.315
46985.254
46987.283
46989.484
46990.522
46990.836
46990.86
46991.949
46992.139
46993.257
46995.345
46996.213
46996.732
46998.546
47000.933
47003.788
47006.604
47008.176
47010.331
47013.081
47016.148
47018.624
47021.147
47023.239
47024.931
47026.75
47027.145
47028.633
47030.502
47031.901
47032.382
47032.488
47033.436
47034.396
47035.944
47036.908
47037.303
47037.649
47036.972
47037.019
47036.421
46803.963
46838.104
46839.279
46864.773
46875.588
46891.049
46904.532
46916.025
46926.698
46935.914
46942.796
46949.843
46956.444
46961.916
46964.791
46968.575
46972.201
46976.047
46980.176
46983.577
46986.465
46990.072
46993.935
46998.032
47001.84
47004.035
47006.91
47010.482
47014.208
47016.844
47019.562
47022.224
47024.091
47026.095
47026.621
47028.142
47030.167
47031.639
47032.172
47032.298
47033.256
47034.234
47035.821
47036.835
47037.331
47037.714
47037.058
47037.035
47036.425
46749.376
46744.444
46768.227
46794.814
46812.694
46829.674
46842.166
46857.579
46871.279
46885.895
46897.605
46909.406
46919.483
46930.771
46939.447
46946.768
46952.207
46958.295
46965.232
46971.217
46975.79
46981.818
46987.581
46992.369
46997.013
47000.448
47003.992
47007.923
47012.221
47015.204
47018.044
47021.208
47023.298
47025.437
47026.073
47027.64
47029.839
47031.381
47031.971
47032.112
47033.078
47034.072
47035.682
47036.761
47037.342
47037.792
47037.161
47037.109
47036.433
46643.03
46717.581
46706.512
46736.847
46745.24
46771.002
46783.446
46804.056
46821.306
46840.34
46857.913
46873.693
46884.817
46898.585
46912.413
46925.061
46933.774
46941.866
46950.699
46959.147
46965.201
46973.163
46981.625
46987.489
46992.37
46997.114
47001.658
47005.641
47009.948
47013.613
47016.77
47020.15
47022.481
47024.752
47025.505
47027.147
47029.501
47031.125
47031.77
47031.936
47032.9
47033.912
47035.54
47036.68
47037.341
47037.842
47037.299
47037.273
47036.459
46638.865
46619.036
46651.742
46678.743
46682.66
46716.436
46734.124
46756.665
46775.112
46796.463
46818.656
46840.63
46853.866
46866.536
46883.262
46902.243
46915.465
46925.921
46936.371
46947.514
46956.105
46964.936
46975.033
46982.808
46988.133
46993.547
46999.205
47003.692
47007.705
47011.895
47015.668
47019.182
47021.637
47024.04
47024.941
47026.693
47029.16
47030.868
47031.569
47031.766
47032.722
47033.753
47035.401
47036.6
47037.323
47037.913
47037.458
47037.534
47036.508
46530.44
46610.07
46579.003
46629.738
46642.902
46668.561
46689.298
46712.687
46733.395
46756.076
46776.539
46804.315
46828.768
46845.42
46857.659
46877.595
46896.506
46910.976
46923.191
46935.857
46947.645
46957.933
46968.133
46977.369
46984.34
46990.279
46996.133
47001.737
47005.987
47010.166
47014.538
47018.284
47020.835
47023.307
47024.366
47026.287
47028.822
47030.605
47031.371
47031.601
47032.552
47033.594
47035.273
47036.528
47037.286
47038.01
47037.617
47037.846
47036.574
46515.428
46507.018
46539.048
46571.19
46590.085
46622.066
46639.236
46669.296
46693.42
46721.862
46740.416
46766.535
46795.348
46824.493
46842.128
46857.337
46876.634
46896.367
46911.78
46924.817
46938.196
46951.397
46962.203
46971.332
46980.17
46987.569
46993.009
46999.232
47004.453
47008.842
47013.286
47017.311
47020.092
47022.576
47023.808
47025.927
47028.508
47030.346
47031.174
47031.437
47032.39
47033.454
47035.157
47036.445
47037.24
47038.101
47037.773
47038.171
47036.674
46425.252
46535.538
46471.369
46530.461
46532.237
46582.278
46602.375
46634.465
46654.925
46688.84
46718.554
46743.527
46760.615
46790.853
46822.177
46844.883
46860.15
46881.045
46901.267
46916.271
46929.07
46943.778
46956.884
46966.251
46975.188
46984.758
46990.775
46996.545
47002.679
47007.829
47012.177
47016.259
47019.303
47021.906
47023.302
47025.601
47028.247
47030.092
47030.966
47031.271
47032.236
47033.355
47035.041
47036.337
47037.179
47038.185
47037.923
47038.505
47036.829
46435.711
46429.488
46447.931
46484.1
46502.599
46541.838
46567.18
46605.337
46625.835
46654.042
46690.198
46728.5
46744.042
46762.989
46792.558
46827.316
46849.067
46867.594
46889.294
46908.702
46922.624
46935.953
46950.948
46962.444
46970.876
46981.182
46988.958
46994.861
47000.597
47006.568
47011.338
47015.282
47018.48
47021.266
47022.873
47025.311
47028.022
47029.852
47030.742
47031.103
47032.101
47033.273
47034.93
47036.235
47037.095
47038.265
47038.09
47038.866
47037.063
46308.553
46406.319
46407.645
46463.814
46460.984
46506.077
46524.243
46566.62
46604.008
46634.176
46652.153
46695.268
46735.797
46755.588
46768.855
46805.673
46836.344
46858.488
46877.866
46899.405
46917.003
46930.417
46944.628
46958.562
46968.547
46977.335
46986.745
46993.662
46998.964
47004.956
47010.39
47014.588
47017.71
47020.614
47022.512
47025.062
47027.811
47029.637
47030.516
47030.941
47031.976
47033.178
47034.827
47036.137
47036.97
47038.331
47038.287
47039.31
47037.394
46317.566
46293.206
46311.724
46429.456
46405.634
46469.178
46493.689
46526.73
46563.06
46612.683
46632.327
46660.858
46700.308
46744.103
46763.864
46788.217
46821.298
46849.778
46870.715
46890.581
46910.241
46926.244
46939.689
46954.335
46966.356
46975.322
46984.041
46992.024
46998.076
47003.41
47009.343
47013.904
47017.135
47019.999
47022.137
47024.867
47027.62
47029.434
47030.304
47030.799
47031.857
47033.114
47034.719
47036.017
47036.837
47038.345
47038.523
47039.817
47037.803
46119.172
46386.148
46225.303
46367.964
46371.674
46422.847
46465.213
46509.329
46524.176
46576.979
46616.707
46652.222
46673.874
46719.93
46756.534
46780.172
46809.601
46839.453
46864.769
46885.724
46904.298
46921.366
46936.617
46950.482
46963.839
46974.252
46982.238
46990.149
46996.755
47002.66
47008.163
47013.126
47016.702
47019.53
47021.741
47024.68
47027.444
47029.224
47030.093
47030.679
47031.762
47033.093
47034.628
47035.936
47036.717
47038.346
47038.786
47040.305
47038.245
46194.479
46294.271
46275.988
46322.681
46351.812
46397.066
46425.339
46490.188
46510.805
46548.925
46592.899
46639.644
46665.616
46701.635
46737.166
46775.938
46804.612
46831.236
46857.822
46882.243
46900.506
46917.175
46933.486
46948.505
46961.04
46972.341
46981.661
46988.122
46995.433
47001.894
47007.389
47012.262
47016.204
47019.131
47021.354
47024.431
47027.275
47029.006
47029.855
47030.556
47031.679
47033.043
47034.572
47035.867
47036.609
47038.35
47038.954
47040.584
47038.722
46207.721
46246.354
46233.208
46286.508
46315.422
46386.821
46394.152
46444.739
46489.534
46539.504
46566.241
46622.256
46662.866
46701.981
46732.797
46765.747
46796.287
46826.144
46852.466
46877.181
46897.514
46914.22
46930.911
46946.738
46959.084
46970.366
46979.89
46987.051
46994.276
47001.115
47006.976
47011.334
47015.65
47018.728
47021.147
47024.169
47027.064
47028.789
47029.622
47030.431
47031.589
47033.036
47034.533
47035.789
47036.529
47038.375
47038.96
47040.532
47039.249
46132.837
46172.663
46210.399
46248.996
46269.343
46356.09
46372.323
46425.887
46459.722
46528.714
46562.427
46614.049
46650.368
46694.037
46729.61
46760.186
46789.384
46821.095
46849.351
46873.404
46893.897
46911.855
46929.06
46944.902
46957.709
46968.68
46978.473
46986.265
46993.366
47000.536
47006.562
47010.739
47014.968
47018.476
47021.042
47023.953
47026.806
47028.567
47029.467
47030.314
47031.513
47033.101
47034.468
47035.743
47036.454
47038.402
47038.754
47040.177
47039.601
46073.992
46168.303
46172.853
46259.13
46258.552
46324.42
46345.989
46435.985
46454.982
46526.841
46553.226
46599.985
46640.948
46688.221
46721.273
46755.538
46787.2
46818.619
46847.633
46870.768
46891.413
46910.127
46927.825
46943.355
46956.109
46967.498
46977.509
46985.537
46992.736
46999.856
47006.276
47010.379
47014.337
47018.279
47020.78
47023.741
47026.555
47028.342
47029.37
47030.185
47031.411
47033.142
47034.399
47035.752
47036.385
47038.434
47038.408
47039.635
47039.532
46024.618
46021.342
46158.327
46194.361
46234.636
46327.079
46333.357
46429.698
46437.553
46514.306
46543.372
46597.08
46631.928
46685.58
46720.154
46751.174
46786.819
46821.218
46846.07
46868.015
46890.088
46909.679
46926.876
46942.329
46954.873
46966.622
46977.236
46985.056
46992.275
46999.128
47005.514
47009.997
47014.123
47017.872
47020.58
47023.569
47026.341
47028.151
47029.278
47030.051
47031.313
47033.185
47034.321
47035.757
47036.347
47038.479
47038.057
47039.113
47038.962
46001.395
46117.904
46115.602