/*--------------------------------*- C++ -*----------------------------------*\
| =========                 |                                                 |
| \\      /  F ield         | OpenFOAM: The Open Source CFD Toolbox           |
|  \\    /   O peration     | Version:  2506                                  |
|   \\  /    A nd           | Website:  www.openfoam.com                      |
|    \\/     M anipulation  |                                                 |
\*---------------------------------------------------------------------------*/
FoamFile
{
    version     2.0;
    format      ascii;
    arch        "LSB;label=32;scalar=64";
    class       volVectorField;
    location    "2.75";
    object      wallShearStress;
}
// * * * * * * * * * * * * * * * * * * * * * * * * * * * * * * * * * * * * * //

dimensions      [1 -1 -2 0 0 0 0];

internalField   uniform (0 0 0);

boundaryField
{
    Side
    {
        type            empty;
    }
    Inlet
    {
        type            calculated;
        value           uniform (0 0 0);
    }
    Airfoil
    {
        type            calculated;
        value           nonuniform List<vector> 
117
(
(-5.3401313 -1.9079034 8.8389704e-19)
(-4.998292 -2.1506069 -5.2410773e-19)
(-4.8186422 -2.0772089 6.3291071e-19)
(-4.601213 -2.2892598 -2.4178117e-18)
(-4.459468 -2.115868 -4.4350783e-19)
(-4.2663817 -2.2034286 6.1217582e-19)
(-4.3032221 -1.9241926 -3.1767237e-20)
(-3.9543417 -1.5868835 8.1418347e-19)
(-3.7642157 -1.5852727 3.8891853e-19)
(-3.6720755 -1.3319916 7.7922066e-18)
(-3.8996453 -1.5013886 2.1123418e-19)
(-3.679187 -0.6153933 1.3337889e-19)
(-3.4163783 -0.96741055 -1.0757827e-17)
(-3.8776857 -0.66049429 1.1569137e-17)
(-3.3738569 -0.45712464 -3.2002917e-19)
(-3.7768026 -0.5247777 1.2620066e-17)
(-3.6098954 -0.2216323 -1.3239899e-17)
(-3.5273693 -0.18821244 -3.7673698e-20)
(-3.673366 -0.10765313 -1.5943284e-18)
(-3.6558457 0.011598069 7.5874553e-19)
(-3.6116617 0.10515774 -1.8530041e-18)
(-3.6249072 0.20979999 -3.7002651e-20)
(-3.5773359 0.30316264 -2.6544719e-17)
(-3.6699928 0.41607363 3.8580636e-17)
(-3.5832044 0.58914795 -2.4587319e-17)
(-3.6568991 0.67771667 2.3220952e-17)
(-3.5920123 0.93424785 -1.0092683e-17)
(-3.6603618 0.99122311 7.6569648e-19)
(-3.6836123 1.3139573 0)
(-3.7446075 1.4004039 -7.9151856e-18)
(-3.7702397 1.6701466 -3.8262914e-21)
(-3.8661881 1.7116956 1.2664586e-17)
(-4.0871299 1.9378089 -1.0575564e-17)
(-4.2121794 2.0774734 8.2560987e-18)
(-4.4458798 2.1469434 -4.2110481e-18)
(-4.6163004 2.2729279 -1.9259299e-34)
(-4.8477462 2.2206067 -2.6763953e-18)
(-4.9982096 2.2396873 2.1750634e-18)
(-5.3052936 1.9758856 -9.3377965e-19)
(-5.912879 1.0707483 -2.2260098e-18)
(-6.910019 0.20964322 2.7668399e-18)
(-7.2097521 1.0242804 -5.416678e-35)
(-7.4862927 0.36071189 1.7843261e-18)
(-7.6242916 0.99021452 -1.8924499e-18)
(-7.7275025 0.33432495 3.9286148e-18)
(-7.7090553 1.0199529 -4.2129718e-35)
(-7.9043784 -0.077661611 3.9120452e-35)
(-7.8880271 1.1626971 1.6483172e-18)
(-8.0302542 -0.16763107 -5.6180976e-19)
(-7.8556586 1.3419064 -2.5055771e-20)
(-7.997865 -0.83324742 -1.2191374e-18)
(-8.0435008 0.66622048 1.7408542e-18)
(-7.7976523 0.24392818 5.9390978e-19)
(-7.8565355 0.084293252 -6.236597e-19)
(-7.8727822 -0.084264661 6.6044708e-19)
(-7.6274521 0.64862306 -4.0539878e-21)
(-7.7503404 -0.78557406 -3.3571316e-19)
(-7.5501736 0.89733851 -3.5082793e-19)
(-7.4844353 -1.1862476 5.3147873e-19)
(-7.6613741 0.084970731 -9.3692874e-20)
(-7.3204642 -0.31792399 2.4567832e-36)
(-7.3293838 -0.69807582 3.8647771e-19)
(-7.2706258 -0.39995768 -1.8719338e-19)
(-7.1493711 -0.73074594 -3.7898416e-19)
(-7.0481141 -0.52827553 -1.8423073e-19)
(-6.8013286 -0.62436363 -9.7026835e-20)
(-6.7290173 -1.1136512 1.0478355e-19)
(-6.7238186 -1.0835838 -4.3555417e-19)
(-6.5690874 -1.0309928 -3.7964947e-19)
(-6.4203328 -1.0443814 -6.1577827e-19)
(-6.2307814 -1.1002515 2.3197924e-19)
(-6.1079958 -1.4375845 1.3261035e-20)
(-6.1546436 -1.6297884 6.0185311e-36)
(-6.07813 -1.5933585 1.0266358e-18)
(-5.9166328 -1.620348 -9.1749726e-19)
(-5.7587096 -1.6994405 -4.4277088e-19)
(-5.620429 -1.7824297 1.4767388e-18)
(-5.4860948 -1.9026141 -1.5808252e-18)
(-5.4742255 2.0696672 9.6296497e-35)
(-5.5307426 1.9107189 -6.0185311e-36)
(-5.7315931 1.6017373 5.1160457e-19)
(-5.9307047 1.6377203 -4.9054984e-21)
(-5.9759705 1.604711 -9.1037149e-19)
(-6.0938489 1.2845947 -4.9674559e-19)
(-6.3048371 1.2619802 -2.3297308e-20)
(-6.4027835 1.3737031 -4.1654111e-19)
(-6.3899427 1.2466756 4.6694911e-19)
(-6.5296933 0.86668145 4.3374079e-19)
(-6.7894201 0.7924643 -4.3041202e-21)
(-6.8009689 1.0381987 -4.1519899e-19)
(-7.0546018 0.33231972 -2.2667756e-19)
(-7.1667059 1.0807431 -1.9993283e-19)
(-7.1144089 0.6397147 -3.1885715e-21)
(-7.1665286 0.38079339 -9.2395866e-20)
(-7.4176034 0.18803411 3.5835467e-19)
(-7.4633108 0.63933074 -3.7221934e-19)
(-7.605155 -0.11730981 9.1733234e-20)
(-7.5902398 0.80296451 -7.0762127e-19)
(-7.6199283 -0.29931437 6.9260246e-19)
(-7.7726977 0.30086346 1.0309294e-18)
(-7.7845657 -0.076247373 -6.6707962e-19)
(-7.8436816 -0.18247702 -6.3192281e-19)
(-8.0944192 -0.43327216 5.9790535e-19)
(-8.002273 0.76410443 -3.3854237e-35)
(-7.9308165 -1.4592723 1.2279797e-18)
(-8.0465674 0.74846748 -1.1750051e-18)
(-7.8480796 -1.1172234 1.1782429e-18)
(-7.9310297 0.18927025 -1.1521237e-18)
(-7.7938008 -1.1390621 5.474424e-19)
(-7.8518966 -0.092824548 -2.6779786e-18)
(-7.7240146 -1.0557063 5.141372e-19)
(-7.725897 -0.29499202 2.0137215e-18)
(-7.5862968 -1.066479 -1.9204649e-18)
(-7.4762545 -0.32805509 -9.1524179e-19)
(-7.2064769 -1.074705 -2.6483185e-18)
(-6.9638362 -0.2643963 -3.3259642e-18)
(-5.9803625 -0.96985919 -7.5211657e-19)
)
;
    }
    Outlet
    {
        type            calculated;
        value           uniform (0 0 0);
    }
}


// ************************************************************************* //
