/*--------------------------------*- C++ -*----------------------------------*\
| =========                 |                                                 |
| \\      /  F ield         | OpenFOAM: The Open Source CFD Toolbox           |
|  \\    /   O peration     | Version:  2506                                  |
|   \\  /    A nd           | Website:  www.openfoam.com                      |
|    \\/     M anipulation  |                                                 |
\*---------------------------------------------------------------------------*/
FoamFile
{
    version     2.0;
    format      ascii;
    arch        "LSB;label=32;scalar=64";
    class       volScalarField;
    location    "0.00027";
    object      Co;
}
// * * * * * * * * * * * * * * * * * * * * * * * * * * * * * * * * * * * * * //

dimensions      [0 0 0 0 0 0 0];

internalField   nonuniform List<scalar> 
3452
(
0.020294538
0.010955534
0.018112255
0.019654563
0.021083776
0.011382088
0.014572175
0.015813955
0.017149173
0.018607666
0.020163821
0.021606024
0.011657609
0.0083583356
0.0093534989
0.01038926
0.011585856
0.012823054
0.01402998
0.015292471
0.016604191
0.018010793
0.019529695
0.021157916
0.02265479
0.012213854
0.0040084185
0.0033987046
0.0022244177
0.001307456
0.0018433888
0.003346123
0.0047516419
0.0060868843
0.0074306484
0.008482888
0.0093443117
0.010381324
0.011600759
0.012849038
0.014124157
0.015481968
0.016840674
0.018304354
0.019878603
0.021572521
0.023169851
0.012458274
0.0042152752
0.0036226956
0.002465682
0.0012728343
0.0015599344
0.003244897
0.0052709897
0.0073607403
0.0084924284
0.0085225755
0.0085679103
0.0096226444
0.01133992
0.012914614
0.014618947
0.016334362
0.017939489
0.019671218
0.021455826
0.023348724
0.025097917
0.013542105
0.0043969862
0.0037888843
0.0026529235
0.0013013268
0.0014215741
0.0033506922
0.0059559497
0.0085445653
0.0095217073
0.0085993327
0.0077950916
0.0088018217
0.010787097
0.012724491
0.015112698
0.017239326
0.01901641
0.021005964
0.022996722
0.025081414
0.027021392
0.014573158
0.004743761
0.0045742541
0.003921707
0.0026863356
0.0012987306
0.0015649519
0.0036443486
0.0063852287
0.0091774255
0.010206083
0.0090078541
0.007780722
0.0086532938
0.010796702
0.012967622
0.01568569
0.017989606
0.019806687
0.021894885
0.023977722
0.026137809
0.028171142
0.015157593
0.0048736941
0.0047304802
0.0040661157
0.0027552567
0.0013734114
0.0017311406
0.0038358292
0.0066097191
0.0095226624
0.010646902
0.0093854699
0.0079111621
0.0086776366
0.010955316
0.013240258
0.016105899
0.018503207
0.02033549
0.022474393
0.024614109
0.026813973
0.028905148
0.015550322
0.0047824381
0.0050204529
0.004908757
0.0042579355
0.0028431873
0.0014722558
0.001962924
0.0040785134
0.0068081976
0.0097536545
0.011004388
0.0098793116
0.0083234786
0.0090087725
0.011368077
0.013631863
0.016488022
0.018922985
0.020756396
0.022911073
0.025076271
0.027289526
0.029403282
0.015834436
0.0048495435
0.0051627055
0.0050551896
0.0043686402
0.0028684229
0.0015967393
0.0023015163
0.0044077609
0.0070648087
0.010142512
0.011553546
0.010400772
0.0083999458
0.0087090269
0.011111427
0.013399553
0.01632943
0.018878008
0.02068132
0.022802012
0.024958542
0.027149353
0.029228779
0.015722645
0.0048013631
0.0052012151
0.0051232333
0.0044090085
0.0028673675
0.0017856652
0.0028045564
0.0049035872
0.007200986
0.0097895939
0.011357548
0.010433746
0.00832802
0.0082417446
0.01029884
0.012340772
0.015015177
0.017486941
0.01922588
0.021181606
0.023178985
0.025210565
0.027100517
0.014561985
0.0040620099
0.0044759887
0.0048490168
0.0048465818
0.0042385376
0.0029450799
0.0017023129
0.0021774417
0.0039991803
0.0063745809
0.0093647879
0.010597017
0.0094314642
0.0074500872
0.0075928661
0.0097002813
0.011674851
0.014266276
0.016608926
0.018130357
0.019860707
0.021608274
0.023313864
0.024864023
0.013389087
0.00296846
0.0033388972
0.0037356948
0.0039951071
0.0040164422
0.0036866722
0.0028121815
0.0016630573
0.002024408
0.0038152877
0.0051565973
0.0063025979
0.0075125541
0.0084087379
0.0086168737
0.0085674985
0.0090850594
0.010022543
0.010930942
0.011931279
0.01304069
0.014214717
0.015468167
0.016780568
0.017919123
0.0096941657
0.0026021898
0.0027300232
0.0029903709
0.0031866807
0.0031665058
0.0027387259
0.0017135396
0.0014306833
0.002361376
0.0031951009
0.0039189963
0.0054011477
0.0068276875
0.0041726293
0.0028227665
0.003495767
0.0047868337
0.008672528
0.010744974
0.012540526
0.014311327
0.015930588
0.017505091
0.019171059
0.020782756
0.011183455
0.0033572244
0.0033130409
0.0033486843
0.0035189787
0.0036934662
0.0036920985
0.0032134304
0.0019099368
0.0016248322
0.0029576879
0.0040153193
0.0046237433
0.0058342313
0.007462863
0.0082198677
0.0071291618
0.0057325492
0.0071073175
0.010277388
0.012139721
0.013965307
0.015847591
0.01758488
0.019296544
0.02105106
0.022832836
0.012225839
0.0037110302
0.0039354544
0.0042175975
0.0045234014
0.0046431668
0.0044888496
0.0038793039
0.00247346
0.0011996537
0.0017791453
0.0038465163
0.005664065
0.0071033638
0.0085560584
0.010337265
0.011894528
0.012733067
0.013585939
0.014833806
0.016013212
0.017328795
0.018863922
0.02043579
0.022195266
0.023989105
0.025906875
0.013786453
0.0039658107
0.00429616
0.0047037614
0.0051638336
0.0054913388
0.0055142208
0.0050599185
0.0033491626
0.0019087229
0.0030134275
0.0057223597
0.0075226474
0.0087324939
0.010248699
0.012393465
0.014306816
0.015293419
0.016082556
0.017393677
0.018680168
0.019922198
0.021495729
0.023177296
0.025048823
0.026983811
0.029052897
0.015490039
0.0041439736
0.0044328601
0.004754498
0.0051608818
0.0056197639
0.0059736858
0.0060193995
0.005552792
0.0039414716
0.0024203163
0.0035141726
0.0064352408
0.0081312007
0.009374846
0.010722553
0.012122267
0.013434314
0.014674062
0.016214305
0.017845827
0.01939437
0.020986623
0.022731843
0.024609392
0.026635928
0.028754568
0.030946316
0.016642734
0.0041506407
0.0043577214
0.0046150925
0.0049972243
0.0054508541
0.0058262804
0.0057915983
0.0049451432
0.0029012807
0.0019210886
0.0033089261
0.0055512664
0.0086333053
0.012335075
0.013624782
0.011862778
0.0088703361
0.008577252
0.010821778
0.013360317
0.017117161
0.02022159
0.022037156
0.024344139
0.026755855
0.029152481
0.031428666
0.017056281
0.0040482779
0.0042053073
0.0044411788
0.0048333962
0.0053119327
0.0057384854
0.0057446504
0.0047639999
0.0025883021
0.001792038
0.0033021569
0.0053164618
0.0084629929
0.012393986
0.013813391
0.012301609
0.0092081626
0.008264703
0.0096033724
0.011798361
0.015539749
0.018872427
0.020691922
0.022904216
0.025295965
0.027615223
0.029788478
0.016255977
0.0037494676
0.0039208172
0.0040465146
0.0043135458
0.0048134034
0.0054240209
0.0058857716
0.0058542325
0.0048316248
0.0025951972
0.0024943907
0.0045931014
0.0056978722
0.0083219957
0.012296469
0.013675849
0.013115571
0.01050648
0.0079420276
0.0076120215
0.0088066361
0.011654476
0.015549036
0.017946442
0.020051174
0.022430887
0.02478326
0.026872409
0.0147289
0.0037015043
0.0038482122
0.0039583473
0.0042243346
0.0048087262
0.005453711
0.005748791
0.0056046707
0.0044472915
0.0026289572
0.0031482046
0.0055528411
0.0066220657
0.0088905874
0.012424522
0.013906277
0.013935638
0.012596357
0.010148087
0.0085791152
0.0080695796
0.0092630967
0.01227087
0.014798592
0.016694924
0.01875155
0.020893614
0.022665241
0.012454536
0.0033967303
0.0037268984
0.0040923268
0.0044920391
0.0049164102
0.0053194111
0.0056562459
0.0058876597
0.0058272867
0.0052140366
0.0030448055
0.0025707116
0.0051437889
0.0074512625
0.008361263
0.0093073582
0.011414752
0.013881391
0.015209343
0.015904001
0.016947598
0.018143915
0.019057711
0.020074734
0.021460913
0.022916931
0.02455059
0.026332703
0.027974977
0.015042811
0.0035739612
0.0038821599
0.0042057245
0.00453924
0.0048514993
0.0051247128
0.0053410796
0.0054901549
0.0054341362
0.004851549
0.0030900285
0.0021775673
0.0037735327
0.0061832773
0.0078598921
0.0090296465
0.010470094
0.011920159
0.013281691
0.014369134
0.015729092
0.016987956
0.018561645
0.020020131
0.022112641
0.023520639
0.026465555
0.027422957
0.030380844
0.015704992
0.0033097871
0.0035763743
0.0038361304
0.0040962461
0.0043541163
0.0046182379
0.0048970623
0.0051633572
0.005365016
0.0053128004
0.0047856232
0.0033257344
0.0018749951
0.0025316452
0.0047844652
0.006544463
0.0079829107
0.0098354092
0.011688094
0.013073936
0.014053086
0.01539878
0.016566923
0.017926575
0.019376671
0.021122352
0.022435788
0.025420553
0.026888198
0.029869924
0.015525013
0.0032850817
0.0035807662
0.0038567236
0.0041463696
0.0044253496
0.004722776
0.0050498143
0.0053975531
0.0057401017
0.005837786
0.0054719254
0.0041708752
0.0019517384
0.0018983203
0.0042128177
0.0057501371
0.0073634404
0.010025262
0.012586421
0.013938925
0.014737743
0.016138663
0.017233718
0.018178457
0.019761953
0.021299194
0.02227899
0.025743038
0.027748078
0.030361783
0.016556831
0.0030503504
0.0034364091
0.0037595156
0.0040804263
0.0044364294
0.0047597042
0.0051214553
0.005542879
0.0060225011
0.0064961816
0.0066419231
0.0062018003
0.0049207267
0.0030326108
0.0038514293
0.0063955763
0.0064739016
0.0077496076
0.011015551
0.014340775
0.015513577
0.015894388
0.017045113
0.018675705
0.019854036
0.021455335
0.023186409
0.025103769
0.027000464
0.029566474
0.031511993
0.017158392
0.0027703621
0.0033092287
0.0037101855
0.0040579846
0.0043927236
0.0047692122
0.0051292402
0.0054762127
0.0058519682
0.0062410647
0.0065702891
0.0065882129
0.0060560481
0.0047862584
0.0030555947
0.0037871414
0.005875582
0.0059960801
0.0075995971
0.010538886
0.012736244
0.013701066
0.014833375
0.016729518
0.018438153
0.019999686
0.021898083
0.023738641
0.025818951
0.027737151
0.030357699
0.032089733
0.01765718
0.0026706017
0.002928606
0.0034493991
0.0037914062
0.0041024422
0.0043545002
0.0046376279
0.0049289206
0.0051925613
0.0054614766
0.0057139508
0.0059214037
0.0057918718
0.0048779349
0.0031214339
0.0021854082
0.0024159668
0.0043743494
0.0037293895
0.0047294804
0.01152858
0.016164581
0.016215877
0.015256664
0.016705552
0.018992648
0.02005346
0.0221882
0.02422232
0.026348411
0.0283178
0.031148225
0.032827348
0.018105272
0.0026862817
0.0028526791
0.0033312641
0.0036559822
0.0039381078
0.00419768
0.0044863308
0.0048159064
0.0051516645
0.0055123268
0.005844661
0.0061209913
0.0061402844
0.0055201784
0.0048290249
0.0050797029
0.0068922302
0.0088144755
0.0050911365
0.0050687277
0.011737653
0.016150032
0.016717618
0.016113665
0.017533521
0.020035698
0.02123471
0.02345079
0.025701144
0.027939516
0.03007972
0.033046584
0.035082306
0.019331675
0.0025463208
0.0026930126
0.0027929994
0.0027949686
0.0027704495
0.0029992329
0.0033988651
0.0036778586
0.003932472
0.0042447111
0.0045806959
0.004955961
0.0053337262
0.005710676
0.0060320965
0.0062361495
0.0059389895
0.0051109279
0.0044890315
0.0052232307
0.0073432511
0.008525224
0.005208647
0.0043676446
0.0094639639
0.014477713
0.015937959
0.013969603
0.01397221
0.016797635
0.018095969
0.020486943
0.023003428
0.025320944
0.027537023
0.030484598
0.032590025
0.018029311
0.0025334565
0.0026471667
0.0027320437
0.0027987058
0.0029466899
0.0032238271
0.0035207261
0.0037704912
0.0039850257
0.0042709623
0.0045466725
0.00482456
0.0050988257
0.0053524395
0.0055362163
0.0055965424
0.0054051622
0.0049459691
0.0045299007
0.004767994
0.0055583357
0.0058071574
0.0037800096
0.0029841085
0.0060843305
0.010132319
0.012296185
0.012697355
0.013249205
0.014227045
0.014875251
0.01576427
0.016878268
0.018229755
0.019648484
0.021480723
0.022788504
0.012661849
0.0025942474
0.0027059725
0.0027903655
0.0028843035
0.0030460061
0.0032954887
0.0035642677
0.0038073721
0.0040093088
0.0043079246
0.0045465855
0.0047541923
0.0049215949
0.0050416998
0.0050243165
0.0048374066
0.0044300767
0.0038597967
0.0033525767
0.0031045012
0.0030263669
0.0029545111
0.0019839106
0.0023447453
0.0047794795
0.006745523
0.0083684257
0.00975172
0.011060974
0.012157768
0.013168797
0.014354254
0.01553566
0.016876209
0.018196242
0.019803476
0.020907661
0.011546749
0.0020229604
0.00210291
0.002190141
0.0022936436
0.0023878328
0.0025137547
0.0026513844
0.0027994393
0.0030154824
0.0032254432
0.0033239438
0.0035111639
0.0035941112
0.0035534128
0.0033995552
0.0032781238
0.0032227026
0.0031083855
0.002888084
0.0027325792
0.002927703
0.0034580606
0.0038858205
0.0035833554
0.0019593262
0.0019252541
0.0034636974
0.0037011246
0.0042541038
0.0059068204
0.0080575473
0.0099139969
0.011625105
0.013316738
0.014845781
0.016407372
0.017971878
0.019723666
0.021049945
0.011347754
0.0023979048
0.0025064784
0.0026193919
0.0027388946
0.0028652341
0.0029666641
0.0031096408
0.0032620477
0.0033986343
0.0035675326
0.0037710282
0.0039262603
0.0039637009
0.0041264159
0.0042408949
0.0042334439
0.0042490041
0.0044919283
0.0048708792
0.0052312747
0.0054115241
0.0055528448
0.006076631
0.0070766714
0.0077667782
0.007552092
0.0067660693
0.0060426179
0.0054401235
0.0034640121
0.002813884
0.0056358619
0.0089223651
0.011364992
0.013272609
0.014979546
0.01660067
0.018120761
0.019576365
0.021089285
0.022180562
0.011854532
0.0033296413
0.0034290352
0.0035060538
0.0036447371
0.0038201733
0.0039468113
0.0040941344
0.0043037195
0.0045028805
0.0047968299
0.0050554455
0.0052185706
0.0052740222
0.0054245898
0.0054998872
0.0054686015
0.0056080702
0.0059767387
0.0063511534
0.0066978707
0.0069644191
0.0071238822
0.007738618
0.0090035708
0.0098160583
0.0094329786
0.0086601683
0.008195448
0.007495462
0.005090501
0.0035396473
0.0057368417
0.0093318782
0.011682026
0.013306453
0.014523347
0.015276328
0.015690295
0.015763624
0.015524636
0.014753341
0.0076532858
0.003376932
0.0035914987
0.0037299855
0.0038120847
0.0038649112
0.004032406
0.0041695698
0.0042536078
0.0044330895
0.0046625688
0.0049399879
0.0051894979
0.0053689883
0.0056393891
0.0058723652
0.006266914
0.0062677865
0.0063058294
0.0065864365
0.0068160838
0.0071316098
0.0073116687
0.0073467297
0.0074432526
0.008431763
0.0098688071
0.010660987
0.010721402
0.010328805
0.010435441
0.0103873
0.0093962565
0.0066504369
0.0035933362
0.0037098287
0.0055605987
0.0053962388
0.0040862509
0.0026813261
0.0018640156
0.001649169
0.001637196
0.0014313442
0.00088391497
0.0031727875
0.0034257983
0.0036835026
0.0037964634
0.0038929932
0.0040702487
0.0041728478
0.0042460538
0.0043776672
0.0045486764
0.0048028093
0.0050334458
0.0052561835
0.0054613255
0.0055842761
0.0061484065
0.0065393053
0.0070824228
0.0073477267
0.0076770333
0.007826038
0.0077049742
0.0074029845
0.0075716751
0.008391055
0.0091528415
0.0095111555
0.0098640309
0.010322192
0.01070548
0.011426933
0.012438604
0.012538356
0.011521563
0.01021076
0.0086452655
0.0069604378
0.0053217095
0.0038938521
0.0027363335
0.0019247846
0.0018096953
0.0019439386
0.0012474263
0.0026188595
0.0029624685
0.0033509146
0.0036333447
0.0038998686
0.0041270261
0.0042062073
0.0043678127
0.0044889469
0.0046148139
0.0048233958
0.0050577191
0.0051810318
0.0051200243
0.0050306396
0.0056013873
0.0063662107
0.0070378429
0.0077116221
0.0081825894
0.0084001959
0.0085253532
0.009189449
0.010041973
0.010393027
0.0094828099
0.008613764
0.0090821101
0.0097963972
0.010415778
0.011210532
0.012538466
0.012835382
0.01246885
0.011564067
0.0094678644
0.0064782593
0.0033484419
0.0023301018
0.0036947497
0.0050322961
0.00601977
0.0065405417
0.0037916618
0.0022061781
0.0024509155
0.0028515179
0.0032836877
0.003642
0.0039215239
0.0042396176
0.004608245
0.0048498345
0.0049717259
0.0050809304
0.0051756113
0.0051584201
0.0049374384
0.0047424184
0.0052224307
0.0058640482
0.0065684494
0.0071393519
0.0076877526
0.00823597
0.0089245523
0.0097397634
0.010808569
0.011852484
0.012853301
0.013264627
0.013433832
0.013916957
0.014424548
0.014828601
0.014372581
0.012503498
0.0087974123
0.0041905416
0.00419364
0.0084695143
0.010151415
0.010690344
0.011331181
0.012081439
0.012564887
0.01223659
0.00674677
0.0013299251
0.0014591411
0.0015993169
0.0017270198
0.0018383672
0.0019214695
0.0020004027
0.0021756093
0.002423539
0.002748147
0.0033690416
0.0039892143
0.0044494483
0.0046728815
0.0050202683
0.0052914759
0.0055204375
0.0057673402
0.0052132811
0.0045882516
0.0049804995
0.0058645637
0.0065266472
0.0068069883
0.0070400415
0.0073447087
0.0078802233
0.0089975302
0.010069112
0.011257312
0.01196571
0.012159208
0.013260485
0.014340368
0.015455235
0.016325216
0.017591052
0.019006541
0.019056981
0.016240414
0.01129207
0.0073103673
0.006052083
0.0061095937
0.004481088
0.0027925956
0.0030512433
0.0035320689
0.0023135382
0.00075660068
0.00084022731
0.0010118701
0.001218963
0.0013608334
0.0014986081
0.0016351041
0.0017511863
0.0018315717
0.0018831582
0.0019698908
0.0019546393
0.0019708639
0.0025019645
0.0031185724
0.0036060439
0.0038828001
0.0044615463
0.0050000399
0.005501885
0.006055448
0.006039136
0.0050285685
0.0051866648
0.0061786477
0.0069669051
0.0073051463
0.0074024634
0.0075678238
0.0078558622
0.0084540814
0.0088244373
0.0086911515
0.0085451237
0.0095469138
0.011207995
0.012431805
0.013811254
0.014573509
0.016256108
0.017646722
0.018940912
0.02031654
0.021571409
0.022342363
0.020000487
0.013881827
0.0076850675
0.0036777222
0.0024641658
0.0030682812
0.0024594196
0.00067532601
0.00071770188
0.00090217621
0.001206662
0.0013539937
0.0014537595
0.0015647141
0.0016728311
0.0017631684
0.0018223422
0.0018753737
0.0017704848
0.0016264667
0.0018725777
0.0023068403
0.0026210951
0.0028881764
0.0034015004
0.0040346999
0.00465343
0.0051630893
0.0055653364
0.0047541881
0.0049652548
0.0061050756
0.0070031956
0.0076530025
0.0079435336
0.0081915605
0.0083928534
0.0090162294
0.009422655
0.0092522914
0.0090243131
0.0091728158
0.010191276
0.011715093
0.012985862
0.013722
0.014848587
0.015718277
0.016478193
0.017286583
0.017730565
0.016620159
0.011871322
0.005742037
0.003360648
0.0053284273
0.0074924809
0.0091781538
0.0057890896
0.00053254408
0.00060986453
0.00085588791
0.0011781396
0.0012951053
0.0013677961
0.0014561471
0.0015636026
0.0016559539
0.001721146
0.0017773073
0.0017063977
0.0015978703
0.0017142343
0.0020001787
0.0022101685
0.0023322325
0.0025999028
0.0030854722
0.0035766417
0.0038532892
0.0033522656
0.0026241151
0.0036432709
0.005291637
0.0064047401
0.0073685563
0.0079065138
0.0084455879
0.0087568393
0.0096622668
0.010368354
0.010841509
0.011238898
0.011003614
0.011335833
0.012378769
0.013508621
0.014142305
0.01521456
0.016007832
0.016016112
0.014372567
0.010033129
0.0047408506
0.0048985692
0.0099715759
0.012937618
0.014614372
0.016152383
0.017532736
0.010218245
0.00058624171
0.00056895095
0.0005732415
0.00055231462
0.00064585185
0.00085780902
0.00094658843
0.0010445873
0.0011428167
0.001239029
0.0013042631
0.001343581
0.0013720637
0.0012824666
0.0012142607
0.0013555093
0.0016561703
0.0018873701
0.0021004948
0.002494665
0.0031242729
0.0037284166
0.0043676832
0.0025707646
0.0027350208
0.0058163824
0.0034394131
0.0029923469
0.0053981925
0.0067954396
0.0077356799
0.0083193252
0.0094397927
0.010152608
0.010069474
0.010392452
0.010615713
0.011015806
0.011906633
0.0127166
0.012937448
0.013846068
0.01474993
0.014956488
0.013551895
0.0090636504
0.004988652
0.0063461986
0.010875948
0.013529223
0.015278562
0.017012436
0.018512991
0.010631992
0.0006376455
0.00070590226
0.00071811207
0.00073548037
0.00072975344
0.00087064616
0.0012430096
0.0015506553
0.0018218619
0.0019744611
0.0020607863
0.0020555332
0.0020162166
0.001962857
0.001830393
0.0017022537
0.0017071654
0.0018547092
0.0020395871
0.0022233889
0.0023921705
0.0025962772
0.0027654487
0.0023983665
0.0012381576
0.0016014725
0.0033387974
0.0040312672
0.0041911753
0.0034098569
0.0028293918
0.0047508142
0.0067491543
0.0084219238
0.009799928
0.010609873
0.011133238
0.011686557
0.012941652
0.013859637
0.013968103
0.013436151
0.013527163
0.013371078
0.011481407
0.0073519802
0.0048219401
0.0077963204
0.01313692
0.015534437
0.017433576
0.019831388
0.022136061
0.023870755
0.013464897
0.00067236221
0.00074341696
0.00076867641
0.00079701704
0.00083148839
0.0010371467
0.001389712
0.0016575307
0.0018832491
0.0020137219
0.002068727
0.0020444365
0.0020060592
0.0019618312
0.0018755553
0.0017863395
0.0018336626
0.0020590619
0.00225218
0.0023746033
0.0025493953
0.00272282
0.0028086258
0.0020588785
0.0013970675
0.0021187208
0.0030716395
0.0035430457
0.0037177677
0.0040362135
0.0044408553
0.0050398339
0.0058420145
0.0057126546
0.0034057884
0.0047916286
0.0081540952
0.0096142803
0.011809107
0.013859021
0.015061093
0.015392121
0.015120288
0.013306342
0.00861259
0.0043029147
0.0050797419
0.01004677
0.012945083
0.014945716
0.017224928
0.019160059
0.020854477
0.022320616
0.012683027
0.00078650885
0.00049234651
0.00071372371
0.00078861529
0.00082353101
0.00085472219
0.000853812
0.00093891764
0.0011345649
0.001306375
0.0014881646
0.0016009689
0.0016410772
0.0016223692
0.0016098983
0.001626597
0.0016138128
0.0016180045
0.0017498505
0.0020867463
0.0023330515
0.0025098231
0.0026838697
0.0028806874
0.0030063677
0.0021823126
0.0017186702
0.0027261143
0.0036413481
0.0039311729
0.0039765204
0.0042433235
0.0049544662
0.0054846274
0.0061081535
0.0068081874
0.0078575987
0.0091688516
0.01072254
0.012818232
0.010168071
0.0069778503
0.010719433
0.01273417
0.013086438
0.012809292
0.010462961
0.0059387503
0.0040960546
0.0079259189
0.012943916
0.015262439
0.017630844
0.020260582
0.022595497
0.024683617
0.01366525
0.0010964434
0.00091934385
0.00062305746
0.00067150231
0.00078750302
0.00081490776
0.00079409405
0.00068706525
0.00075326783
0.00088660749
0.0010093472
0.0011214951
0.001199643
0.0012985702
0.0014221736
0.0015788521
0.0017528164
0.0018208187
0.0018112885
0.0019340871
0.0022945509
0.0025552264
0.0027251432
0.0029230866
0.0031499314
0.0032261075
0.0022345748
0.0018318934
0.0030633742
0.0037765357
0.0039862243
0.0041502387
0.0045203945
0.0050231639
0.005628821
0.0045279946
0.0032454696
0.0053113315
0.0073038933
0.0080633617
0.0087756653
0.010164817
0.011323278
0.012323642
0.01323413
0.013895953
0.0141042
0.012848822
0.0086857214
0.0042506753
0.0052121202
0.010429662
0.012947768
0.015085431
0.01770246
0.020014756
0.022185985
0.012412026
0.0011294734
0.0010368528
0.00090680661
0.00075169938
0.00074356326
0.00070647856
0.00066936489
0.00063589779
0.00078716874
0.00098757471
0.0011507671
0.0012544561
0.0013126062
0.0013784137
0.0014576754
0.0015877469
0.0017151564
0.0016799008
0.0015714413
0.0016917507
0.0020279697
0.0022871083
0.0025079056
0.0027276054
0.002952895
0.0031116864
0.0024289791
0.0015800633
0.0021854541
0.0034229774
0.0039587294
0.0043907711
0.0045105836
0.002898903
0.0037635488
0.0067964844
0.0081314538
0.0093832262
0.010097648
0.010253382
0.010837229
0.011912011
0.013041567
0.013889051
0.014555088
0.01508356
0.015282806
0.015107939
0.013086732
0.0080246475
0.0047043001
0.006596472
0.010397601
0.012269013
0.014033616
0.016303339
0.018280769
0.01059627
0.0012979096
0.0011651871
0.001093942
0.0010762626
0.0010060778
0.00089563729
0.00077906319
0.00068344695
0.00068072015
0.0007550109
0.00092874315
0.0010695575
0.0011567217
0.0012081523
0.0012771354
0.0013828932
0.0015610695
0.0017266834
0.0017096947
0.0016469057
0.0018339077
0.0021805515
0.0024175528
0.0026054096
0.002816413
0.0030424849
0.0031645549
0.0021823006
0.0016333454
0.0028969969
0.003958985
0.0044036665
0.0027236036
0.0032274006
0.0059702509
0.0076562174
0.0084477159
0.0091254802
0.0098794136
0.010649671
0.011108925
0.011218714
0.011642608
0.012401529
0.013389562
0.014323936
0.015163832
0.015816481
0.016125878
0.015453668
0.01167322
0.0060136052
0.0039023812
0.0061683
0.0077984072
0.0085673059
0.0097668534
0.010819359
0.0065098694
0.0014230099
0.0014055693
0.0011965297
0.0011096305
0.0011318567
0.0011397206
0.0010838237
0.00098206477
0.00080365587
0.00069112251
0.00073118499
0.00088879263
0.0010298567
0.0011124976
0.0011471894
0.0012046492
0.0012993598
0.0014565746
0.0015382931
0.0014674327
0.0014469411
0.0016781995
0.0021201209
0.0025197402
0.0027764542
0.0030345525
0.0033101305
0.0034105698
0.0020827698
0.0017240284
0.0037348993
0.0023330046
0.0031571261
0.0056839792
0.0071042342
0.0079358942
0.0084924187
0.0090845729
0.0095196603
0.010010359
0.010688971
0.010864181
0.011249533
0.012074601
0.013055081
0.013846088
0.014594039
0.015156055
0.015492156
0.015789367
0.015614363
0.013300281
0.0085350315
0.004226014
0.0045213724
0.0076638823
0.0083101286
0.0084053234
0.0084762735
0.0050674708
0.0017180808
0.0016594463
0.0013248389
0.0011385911
0.0011380433
0.0011623563
0.0010989655
0.0010168069
0.00084972676
0.00071633563
0.00071339669
0.00084463744
0.00099076793
0.0010746348
0.0010313757
0.00092947161
0.00089031403
0.00090487372
0.0008315074
0.00067821942
0.00059650074
0.00088049467
0.0015990943
0.0024043779
0.0028949524
0.0032638034
0.0036451401
0.0037671953
0.002082612
0.0024573704
0.0033833156
0.0034567044
0.0062448323
0.0071884327
0.0075634816
0.0078820238
0.0083216516
0.0088263553
0.0091822096
0.0095956408
0.0098846662
0.010342683
0.010907878
0.0115313
0.01213706
0.012599121
0.012932262
0.013363671
0.013952801
0.0146667
0.015397785
0.015840276
0.014982474
0.011004562
0.0051829119
0.0025294464
0.0032137966
0.0034891224
0.0034121132
0.0022587296
0.0019673447
0.0020652872
0.0020394053
0.0016138491
0.0012837507
0.0011673585
0.0011717417
0.001102526
0.0010294198
0.00086443156
0.00067909844
0.00052554402
0.00051987958
0.00056873396
0.00063167931
0.00069326048
0.00069836583
0.0006630326
0.00064298958
0.00064071308
0.00069958586
0.00089716108
0.0013206994
0.0017574986
0.0020467338
0.0022970812
0.0024397508
0.0024164365
0.0017770803
0.0010673212
0.0020784084
0.0042722391
0.0062226483
0.0070535649
0.0074180813
0.0076668539
0.0077724123
0.0081058803
0.0084777068
0.0087498315
0.0090860844
0.0094770904
0.0099749591
0.010590905
0.011278019
0.011952185
0.012584643
0.013246944
0.014035076
0.014965621
0.015952161
0.016951603
0.017903933
0.018585491
0.017793998
0.01434931
0.0095542288
0.0058105483
0.0042230996
0.0030363741
0.0014900872
0.0020423564
0.0020303036
0.0022342532
0.002326858
0.0019846053
0.0016114108
0.001332157
0.0012452155
0.0011367466
0.0010372898
0.00085599661
0.00065493833
0.00056674593
0.00062810271
0.00068514481
0.00071864936
0.00074021409
0.0007471678
0.00073641006
0.00071660707
0.00073572058
0.00085928421
0.0012014351
0.0017471752
0.0022358886
0.0025619664
0.0029593245
0.0031601837
0.0031358175
0.0029983085
0.0036079678
0.005383708
0.0058132072
0.0065337823
0.00674275
0.0068717455
0.0071621237
0.0074382217
0.007385058
0.0077184442
0.0082890639
0.0087654406
0.0093460369
0.010033932
0.010794724
0.011615921
0.012409244
0.013116556
0.013808781
0.01453293
0.015234287
0.01596079
0.016659069
0.017074204
0.016336751
0.013406767
0.0092565474
0.0061546718
0.0048287003
0.0044484847
0.0025833907
0.00070690026
0.0020062144
0.0020335193
0.0022935506
0.0024279327
0.0021943467
0.0019629908
0.0016925185
0.0014947113
0.0013185106
0.0011297959
0.00088556074
0.000637897
0.00062339367
0.00068106892
0.0007428064
0.00078094842
0.00080643991
0.00083721176
0.00087745501
0.00093860227
0.001149292
0.0015849711
0.002158019
0.0026440019
0.0030687553
0.0035246798
0.0039814078
0.0040728399
0.0041896147
0.0045768455
0.0051321387
0.0062054429
0.0061745982
0.0065526816
0.0069718314
0.0073803401
0.0078192722
0.0081751052
0.0085170006
0.00895411
0.009727651
0.010250565
0.010906339
0.011597441
0.012264293
0.012844207
0.013375973
0.013836962
0.014192617
0.014339492
0.01429032
0.014206767
0.013999678
0.013204495
0.011516366
0.0095885155
0.0081366647
0.0069273887
0.0058021043
0.0047029117
0.0027681569
0.00080429886
0.0019544534
0.0019978945
0.0022749064
0.002443365
0.0022629793
0.0021687706
0.0020908209
0.0019234691
0.001695362
0.0014032879
0.001040595
0.00068953117
0.00070740839
0.00077911658
0.0008429428
0.000891848
0.00094765335
0.001029752
0.0011278855
0.0013807011
0.0019811574
0.0026674576
0.0030288349
0.003316572
0.0038059079
0.0043564798
0.0046685502
0.0046603123
0.0045609612
0.0047824289
0.0057601811
0.0065340971
0.0064883419
0.0063544598
0.0067841727
0.0073714546
0.0077749132
0.0079348079
0.0081908272
0.0084925477
0.0091540751
0.0093917225
0.0096624348
0.0098730574
0.010176692
0.01067588
0.0112015
0.011673723
0.011924597
0.011804516
0.011311019
0.010240556
0.0084612138
0.0061626933
0.0038923105
0.0020609111
0.001537999
0.0027751078
0.0046018524
0.0060547648
0.0072108123
0.0040923998
0.0019027195
0.0019429755
0.0022084342
0.002389301
0.0022561343
0.0022377973
0.0022951559
0.0022791865
0.0021702738
0.0019152678
0.0014639977
0.00098874599
0.00076037361
0.00093380605
0.0010194206
0.0010733753
0.001186499
0.0013760002
0.0016136439
0.0021206899
0.0028118362
0.003299409
0.0034111678
0.003688612
0.0041630767
0.0045270079
0.0048134322
0.0047589435
0.0042728966
0.0045279684
0.0055817468
0.0058652181
0.0059318972
0.0057850827
0.0060710867
0.0063177429
0.006332619
0.006298326
0.006055644
0.005660768
0.0055343534
0.0059279485
0.0059730799
0.0061907779
0.005452262
0.0033250723
0.0017767681
0.002552162
0.0041536416
0.0045850826
0.0044788057
0.0042523512
0.004235857
0.0045018512
0.0048473443
0.0052277196
0.0056555306
0.0061205467
0.0067024333
0.0073133963
0.0079236493
0.0043977885
0.0018681087
0.0018958043
0.0021464625
0.002318704
0.0021961046
0.0022198411
0.0023514082
0.0024230413
0.0024222025
0.0023695945
0.0020857747
0.0016526774
0.001082553
0.0010246602
0.0012933958
0.0014203511
0.0016217622
0.0019424664
0.0022898788
0.0027587144
0.003167228
0.0034153263
0.0035063609
0.0036647692
0.0038792738
0.0040885849
0.0042212941
0.0038216012
0.0028112206
0.0025336332
0.0033194247
0.0035411042
0.0035618656
0.0033495646
0.0034322116
0.003461841
0.003380975
0.0032989299
0.0032152857
0.0029754157
0.0027436341
0.0029087696
0.0032431503
0.0039298476
0.0045211119
0.0033109644
0.0021231142
0.0035136443
0.0061435826
0.0080570416
0.0092728729
0.010252642
0.011322565
0.012569491
0.013865005
0.015144935
0.01647303
0.01789309
0.01939386
0.020903843
0.022448127
0.01217402
0.0018430575
0.0018538276
0.0020992761
0.0022623335
0.0021220879
0.0021612145
0.0023483954
0.0024607072
0.0024848281
0.0025081391
0.0024239843
0.0022906807
0.0018587463
0.0013895172
0.0013120369
0.0014139859
0.0017236594
0.002087207
0.0024661588
0.0027762164
0.0029389985
0.0030087566
0.0028117374
0.0025511868
0.0025053141
0.0026137308
0.0026046355
0.00211953
0.0017364185
0.0020087884
0.0025943923
0.0027042847