/*--------------------------------*- C++ -*----------------------------------*\
  =========                 |
  \\      /  F ield         | OpenFOAM: The Open Source CFD Toolbox
   \\    /   O peration     | Website:  https://openfoam.org
    \\  /    A nd           | Version:  13
     \\/     M anipulation  |
\*---------------------------------------------------------------------------*/
FoamFile
{
    format      ascii;
    class       volVectorField;
    location    "300";
    object      U;
}
// * * * * * * * * * * * * * * * * * * * * * * * * * * * * * * * * * * * * * //

dimensions      [0 1 -1 0 0 0 0];

internalField   nonuniform List<vector> 
19257
(
(58.134353 46.729377 5.1921927e-15)
(77.280907 1.5899095 0)
(59.822417 13.266918 0)
(63.547717 11.062301 -9.4368425e-16)
(65.994499 8.2841382 4.8723409e-15)
(68.556325 7.0418917 -4.9969194e-16)
(70.198297 6.1843236 -3.6727628e-15)
(71.022354 5.4648722 -5.5787322e-16)
(71.402389 4.8787185 5.9719027e-16)
(71.674754 4.4080473 0)
(71.878293 4.0315034 0)
(72.033014 3.7231385 0)
(72.142171 3.4623468 0)
(72.220378 3.2353535 -4.2638406e-16)
(72.275496 3.0335819 -1.3743305e-15)
(72.314655 2.8517632 -1.9702433e-15)
(72.341314 2.6870692 0)
(72.358512 2.5383314 -2.8454918e-16)
(72.368733 2.4055352 -2.1403254e-15)
(72.374542 2.289357 0)
(72.378135 2.1908256 -1.4110946e-15)
(72.381194 2.1111142 1.8938304e-16)
(72.384745 2.0516134 1.397133e-20)
(72.389293 2.0140459 -2.1803737e-16)
(72.395005 2.0004703 1.052219e-15)
(72.401836 2.0131954 -1.2531965e-16)
(72.409547 2.054621 5.3710327e-16)
(72.417681 2.1270721 -1.1504739e-15)
(72.425516 2.2327075 -6.1580498e-16)
(72.432038 2.3735623 1.3177527e-15)
(72.435976 2.551754 -2.6422181e-16)
(72.435898 2.7697925 3.7664918e-16)
(72.430341 3.0309624 -1.0059313e-16)
(72.417878 3.3396457 4.2971278e-16)
(72.397177 3.7017323 4.584754e-16)
(72.36704 4.1246701 0)
(72.326949 4.6182429 0)
(72.2766 5.1936753 -6.9308661e-17)
(72.217036 5.8667203 2.2097287e-16)
(72.151884 6.652045 1.5606311e-16)
(72.088854 7.5812706 3.2932092e-16)
(72.045263 8.6663541 -8.620752e-17)
(72.054554 9.998426 -3.0919097e-16)
(72.19195 11.553182 -1.7265692e-16)
(72.27672 13.551995 1.2111741e-16)
(72.248083 15.153483 1.3042163e-19)
(71.917338 18.054534 -1.841819e-16)
(73.577391 18.282338 -1.2438346e-16)
(76.733158 28.468852 0)
(51.17343 54.576209 0)
(76.626496 5.8735338 -1.4281045e-15)
(61.965974 13.825647 8.9599032e-16)
(64.402715 12.186148 9.3165862e-16)
(67.230635 8.9851825 -8.5694732e-15)
(69.29944 7.4796498 9.8249981e-16)
(70.649183 6.4864331 0)
(71.327282 5.6704615 -4.3944882e-15)
(71.63577 5.0169339 5.8823654e-16)
(71.855196 4.4997023 -6.3103577e-16)
(72.026048 4.0881225 -6.7752697e-16)
(72.156595 3.7541817 7.2805162e-16)
(72.250231 3.4752528 3.1307592e-15)
(72.317246 3.2363827 2.1041528e-15)
(72.363601 3.0279694 1.3582358e-15)
(72.394523 2.8437435 -2.4344571e-15)
(72.413191 2.6796768 5.2363788e-16)
(72.422418 2.5334719 0)
(72.424598 2.4041494 -3.0265299e-16)
(72.422081 2.2916528 3.2536718e-16)
(72.416902 2.1964764 1.2237934e-15)
(72.410629 2.1194631 3.7561285e-16)
(72.404212 2.0617926 -2.0167454e-16)
(72.39805 2.0250452 -1.0825401e-15)
(72.39218 2.011237 2.323225e-16)
(72.386408 2.0227444 0)
(72.380352 2.0621355 -1.3360993e-16)
(72.373418 2.1319725 7.1594209e-16)
(72.364741 2.2346656 1.0738008e-15)
(72.353121 2.3724528 -4.9276288e-16)
(72.337016 2.5475507 -7.0329686e-16)
(72.314598 2.7624418 4.703042e-16)
(72.283844 3.0202559 -5.0283525e-16)
(72.242582 3.3251348 1.0756145e-16)
(72.188503 3.6826548 -2.2958851e-16)
(72.119244 4.1000194 1.22526e-16)
(72.032654 4.5868187 2.6140519e-16)
(71.92634 5.1544585 0)
(71.798909 5.8188906 -2.2207531e-16)
(71.650424 6.5967763 2.3581876e-16)
(71.482924 7.5205627 -2.4910057e-16)
(71.306075 8.6087905 2.6123915e-16)
(71.139233 9.9521494 4.0376464e-16)
(71.052925 11.549631 -4.4178944e-17)
(70.89507 13.662286 -1.2330883e-16)
(70.622252 15.515986 3.1984368e-20)
(69.927883 18.686249 1.3596545e-16)
(71.253153 19.519992 6.1723234e-17)
(74.821849 30.757014 2.236301e-16)
(38.514905 68.082429 0)
(77.213734 8.3266343 0)
(65.007872 13.078127 0)
(65.497696 12.633884 -1.8115293e-15)
(68.460196 9.4724168 9.265319e-15)
(70.156308 7.7907964 -3.8390796e-15)
(71.171895 6.7380202 0)
(71.690266 5.863249 4.3166226e-15)
(71.917315 5.1580603 -4.6244016e-15)
(72.07365 4.601515 -4.9640379e-15)
(72.203075 4.1565572 6.6677927e-16)
(72.303811 3.7946083 -7.1687459e-16)
(72.376695 3.4938174 -3.8559015e-15)
(72.428187 3.23921 -2.4892874e-15)
(72.462228 3.0207403 0)
(72.482105 2.8313443 1.4410605e-15)
(72.490451 2.6658907 5.1679802e-16)
(72.489824 2.5209075 2.7803211e-16)
(72.482507 2.3943608 3.2895797e-15)
(72.470612 2.2853487 -3.2163064e-16)
(72.455949 2.1937306 3.4576317e-16)
(72.439877 2.1198708 0)
(72.423176 2.0645765 1.7969498e-15)
(72.406101 2.0291523 -2.144432e-16)
(72.388541 2.0154433 -9.2100175e-16)
(72.370158 2.0257774 -7.4133628e-16)
(72.350426 2.0628027 -2.6508558e-16)
(72.328627 2.1292686 0)
(72.303774 2.2278301 -1.5229861e-16)
(72.274527 2.3609606 1.6319449e-16)
(72.239137 2.5310333 6.9896115e-16)
(72.195464 2.7405635 -7.4803104e-16)
(72.141037 2.9925675 4.000542e-16)
(72.073064 3.2909424 -4.2765377e-16)
(71.988421 3.640895 -4.5696047e-16)
(71.883706 4.0492469 -3.6586994e-16)
(71.75536 4.52517 -3.9010827e-16)
(71.599254 5.0799203 6.9277199e-17)
(71.411536 5.7292426 -3.6841234e-16)
(71.188777 6.490815 -3.1255674e-16)
(70.928093 7.3969302 0)
(70.631113 8.4706514 -8.6649248e-17)
(70.304662 9.8008878 -1.7846426e-16)
(70.003755 11.403141 -8.8033512e-17)
(69.604621 13.572924 1.625407e-16)
(69.04741 15.611724 3.8099718e-17)
(67.980306 18.971123 -2.1408866e-16)
(68.596286 20.469838 0)
(72.555219 32.732303 -1.7931958e-16)
(43.214704 44.461462 1.5554773e-14)
(76.228821 10.506537 -2.936657e-15)
(68.161036 11.993101 -6.6694064e-15)
(66.964656 12.568749 1.7461961e-15)
(69.699281 9.7829062 -1.7919156e-15)
(71.142807 7.9928147 -3.7288545e-15)
(71.783125 6.9184945 -9.8798126e-16)
(72.101623 6.0255832 1.0558599e-15)
(72.236322 5.2886474 4.5316026e-15)
(72.326155 4.7016161 4.8687763e-15)
(72.409032 4.2270557 0)
(72.476574 3.8372822 0)
(72.524837 3.5132077 -7.5764224e-16)
(72.557071 3.2409497 8.1552414e-16)
(72.575503 3.0104077 0)
(72.581742 2.8139436 0)
(72.577581 2.6455266 5.0891526e-16)
(72.565198 2.5006261 -5.4777348e-16)
(72.546722 2.3761802 -2.358557e-15)
(72.52407 2.2704018 1.2689465e-15)
(72.498811 2.1824395 0)
(72.472053 2.1120951 0)
(72.44435 2.0597171 -1.5787482e-15)
(72.415769 2.0262361 6.3631574e-16)
(72.386039 2.013219 1.1394752e-15)
(72.354672 2.0228372 9.7906087e-16)
(72.321008 2.05772 2.6279387e-16)
(72.28421 2.1207294 -2.8198113e-16)
(72.243184 2.2147267 -6.0492139e-16)
(72.196469 2.3424221 -6.4859395e-16)
(72.142152 2.5063843 0)
(72.077842 2.7092224 -1.860845e-16)
(72.000698 2.9539023 1.9915107e-16)
(71.907411 3.2441194 0)
(71.794171 3.5847242 4.5538336e-16)
(71.65669 3.9821048 4.8635114e-16)
(71.490207 4.4448961 5.1905153e-16)
(71.289091 4.9839923 0)
(71.047358 5.6146385 -7.3652556e-17)
(70.7584 6.3548423 7.7996786e-17)
(70.414947 7.2359866 3.2971967e-16)
(70.011025 8.2841218 2.1595792e-16)
(69.542672 9.5845297 1.3020563e-20)
(69.043391 11.163873 -8.7967152e-17)
(68.411704 13.337192 -1.2068065e-16)
(67.552921 15.501206 -1.8399575e-17)
(66.116494 18.969426 1.0083965e-16)
(65.886719 21.04874 -1.4135788e-16)
(69.744263 34.128123 4.5614888e-17)
(44.316605 47.410203 -2.6225727e-16)
(73.260991 14.890487 -8.2163476e-15)
(70.97561 11.178748 1.2552005e-14)
(68.760692 12.06911 0)
(70.915052 9.8547539 0)
(72.151053 8.0610977 1.8119817e-15)
(72.440194 7.005177 -5.0090254e-20)
(72.537357 6.1405852 -1.0293265e-15)
(72.578315 5.3979139 -3.0673376e-20)
(72.606297 4.7913447 -1.1894368e-15)
(72.641427 4.2928998 5.1194584e-15)
(72.673357 3.8777807 2.0668243e-15)
(72.693742 3.5307971 4.452311e-15)
(72.702864 3.2402293 -7.9931917e-16)
(72.701944 2.9963891 -2.5830834e-15)
(72.691554 2.7913229 -9.2764484e-16)
(72.672596 2.6183837 0)
(72.646639 2.4722222 5.3831264e-16)
(72.615483 2.348887 8.1545331e-20)
(72.580807 2.2457453 -2.4972412e-15)
(72.543948 2.1612088 6.7208608e-16)
(72.505734 2.0944567 1.4468501e-15)
(72.466442 2.0453048 0)
(72.425894 2.0142246 -4.187061e-16)
(72.383622 2.0024063 4.5019888e-16)
(72.338974 2.0117547 9.6795833e-16)
(72.291159 2.0447698 -1.0401255e-15)
(72.239225 2.1043306 0)
(72.181986 2.1934373 0)
(72.117882 2.3150088 1.6084154e-16)
(72.044864 2.4718224 2.2284002e-20)
(71.960339 2.6666261 -1.8498723e-16)
(71.861164 2.9023993 0)
(71.743605 3.1826965 -4.2445266e-16)
(71.603283 3.5120571 0)
(71.435153 3.8964353 0)
(71.23343 4.3438793 -1.0364767e-15)
(70.991184 4.8647765 0)
(70.70055 5.4736441 5.880802e-16)
(70.352113 6.1883334 0)
(69.934766 7.0387387 -6.5944994e-16)
(69.435685 8.0527477 4.3224408e-17)
(68.841616 9.3104784 -2.2294871e-16)
(68.163187 10.84676 0)
(67.314607 12.9803 0)
(66.157019 15.215367 0)
(64.360438 18.710932 0)
(63.197903 21.259619 2.1524081e-16)
(66.647452 34.965405 0)
(55.992956 37.342522 -1.5185967e-14)
(71.819999 16.792885 1.0567626e-14)
(73.449255 10.413477 -5.8680135e-15)
(70.87783 11.220583 -6.2906608e-15)
(72.137514 9.6731408 -6.5756523e-15)
(73.095875 8.0081648 5.2185306e-15)
(73.096552 7.0029397 3.720585e-15)
(72.983283 6.1997752 -1.1069651e-18)
(72.938245 5.4755655 1.0548829e-18)
(72.915502 4.8603711 1.1578871e-15)
(72.904575 4.3447435 -3.7454879e-15)
(72.897887 3.9091666 -2.6902474e-15)
(72.88646 3.5420944 -6.5611691e-19)
(72.868209 3.234437 0)
(72.843743 2.9773857 6.7373221e-15)
(72.81324 2.7629883 3.6312917e-15)
(72.776849 2.5843241 0)
(72.735314 2.4355757 2.6374733e-15)
(72.689843 2.3121645 9.0161286e-20)
(72.641756 2.2107564 -6.1267325e-16)
(72.592132 2.1290742 0)
(72.541535 2.0656643 -3.5557845e-15)
(72.489942 2.0197694 -7.6590208e-16)
(72.436885 1.9913421 0)
(72.38165 1.9811151 4.437867e-16)
(72.323393 1.9906252 -2.3873845e-15)
(72.261175 2.0221301 2.0543976e-15)
(72.193938 2.0784135 1.1045244e-15)
(72.120405 2.1625213 -1.1871682e-15)
(72.038932 2.2775205 1.2753771e-15)
(71.947356 2.4263774 5.1360788e-16)
(71.842919 2.6119995 1.8372618e-16)
(71.722227 2.83743 -1.9711021e-16)
(71.581195 3.1061469 1.2676517e-15)
(71.414966 3.4224434 2.2628909e-16)
(71.217851 3.7918769 0)
(70.983192 4.2219147 3.8826571e-16)
(70.702933 4.7223564 1.3816304e-16)
(70.367571 5.3068507 -5.8881034e-16)
(69.965252 5.9927504 0)
(69.481528 6.8080693 6.6125852e-16)
(68.897571 7.781644 -3.4692627e-16)
(68.192192 8.9872878 -2.2393247e-16)
(67.353871 10.465984 1.7724169e-16)
(66.306557 12.526417 4.0100636e-17)
(64.863995 14.784987 1.3966976e-16)
(62.72598 18.237841 -1.803078e-17)
(60.61187 21.128545 -1.9169535e-16)
(63.311128 35.209833 2.360271e-16)
(63.170661 29.145548 -9.4674048e-15)
(71.237444 16.966123 1.5139685e-14)
(75.595745 9.6281385 5.4534519e-15)
(73.148909 10.161489 5.9190373e-15)
(73.293236 9.2959225 6.2687081e-15)
(73.860341 7.8792555 -3.3395923e-15)
(73.685144 6.9396063 3.5914066e-15)
(73.427087 6.2028282 -5.8090364e-15)
(73.315148 5.5112387 4.1767547e-15)
(73.253204 4.8973407 -4.5036057e-15)
(73.198698 4.3722145 3.6405791e-15)
(73.149677 3.9233646 -3.9258926e-15)
(73.10191 3.5416028 -1.4119157e-15)
(73.052216 3.220112 2.9891231e-19)
(73.000392 2.9513936 -4.9289321e-15)
(72.946465 2.7279378 -8.8685542e-16)
(72.890044 2.5429507 9.56003e-16)
(72.830982 2.3905483 -2.0629003e-15)
(72.769671 2.2658657 -1.112629e-15)
(72.706892 2.1651012 5.9978875e-16)
(72.643397 2.0854155 -6.4696219e-16)
(72.579489 2.0247709 1.3950041e-15)
(72.514861 1.9818405 7.5191518e-16)
(72.44874 1.9560308 -1.2153158e-15)
(72.380129 1.9475638 -6.411122e-20)
(72.307958 1.9575278 1.4103729e-15)
(72.231115 1.9878346 -1.0124956e-15)
(72.148424 2.0410572 -2.1799418e-15)
(72.058528 2.1201765 1.4661557e-15)
(71.959705 2.2283187 -1.5771737e-15)
(71.849694 2.3685867 -1.356728e-15)
(71.725596 2.5440367 1.8228946e-16)
(71.58381 2.7578033 -1.957792e-16)
(71.419954 3.0133412 -8.407109e-16)
(71.228771 3.3147649 4.51038e-16)
(71.004019 3.6672924 0)
(70.738289 4.0778502 0)
(70.422542 4.5556185 0)
(70.045858 5.1133061 3.6886975e-16)
(69.594279 5.7675322 -3.9242689e-16)
(69.050456 6.5441995 -3.3222599e-16)
(68.390374 7.4723901 3.4886653e-16)
(67.58612 8.618897 7.6625256e-16)
(66.605939 10.029424 -1.7874874e-16)
(65.37869 11.992094 -4.0376988e-17)
(63.671216 14.233141 -1.3744436e-16)
(61.216056 17.586212 -1.2865124e-16)
(58.180392 20.691585 9.7075702e-17)
(59.844167 34.87496 -6.0311221e-16)
(67.80729 22.897159 1.3097502e-14)
(71.181324 16.140927 -1.4337222e-14)
(77.192567 8.9044258 -5.1005276e-15)
(75.173981 9.1196307 -5.5378475e-15)
(74.247229 8.8494273 0)
(74.400421 7.724102 3.205965e-15)
(74.195981 6.8346717 1.5605347e-18)
(73.889382 6.1434739 1.8713947e-15)
(73.725868 5.4893658 2.0195973e-15)
(73.623672 4.8881868 -4.3617337e-15)
(73.523373 4.3638609 4.7066267e-15)
(73.427026 3.9113193 1.2707611e-15)
(73.337825 3.5226844 4.114631e-15)
(73.252906 3.1926435 1.4812089e-15)
(73.170646 2.9153349 -4.7968254e-15)
(73.090543 2.6842555 -3.4534194e-15)
(73.011753 2.4931959 -2.7962038e-15)
(72.933318 2.3366104 2.012586e-15)
(72.854742 2.209711 -1.08622e-15)
(72.776115 2.108518 2.3451081e-15)
(72.69775 2.0298273 -6.3261684e-16)
(72.619656 1.9711316 -6.8276642e-16)
(72.541262 1.9305887 2.2115244e-20)
(72.461514 1.9070735 7.9465277e-16)
(72.379126 1.900278 4.2846357e-16)
(72.292769 1.9107909 -1.1629421e-20)
(72.201132 1.9400952 4.982815e-16)
(72.102904 1.9904469 1.6109858e-15)
(71.99664 2.0646452 -2.8924083e-16)
(71.880542 2.1657682 3.1164159e-16)
(71.752265 2.2969744 1.3423753e-15)
(71.608785 2.4614253 -3.6127867e-16)
(71.446325 2.6623441 3.8862936e-16)
(71.260253 2.9031942 2.0900621e-16)
(71.044966 3.1879679 -8.9828035e-16)
(70.793748 3.5216042 2.4111845e-16)
(70.498537 3.9105465 -5.1740072e-16)
(70.149432 4.3633583 -5.5419036e-16)
(69.734283 4.8917935 7.4054228e-17)
(69.237317 5.5115787 2.3664447e-16)
(68.63868 6.2464053 0)
(67.909903 7.1250235 -3.5217231e-16)
(67.017402 8.2068699 2.1663848e-19)
(65.911589 9.5411811 0)
(64.522616 11.388184 0)
(62.572968 13.576563 -1.1971257e-16)
(59.827729 16.784925 2.4699631e-16)
(55.935633 19.987046 1.1580243e-17)
(56.346579 33.990486 3.5818787e-16)
(72.010944 17.821729 -8.2086208e-15)
(71.701102 14.749235 0)
(77.940899 8.5016988 -9.5951045e-15)
(76.587359 8.3667097 1.0485239e-14)
(75.011434 8.3980011 -5.6851411e-15)
(74.848397 7.5110186 6.1574043e-15)
(74.708405 6.6591812 -6.6641208e-15)
(74.411897 5.9980892 3.6059473e-15)
(74.188189 5.3886942 -1.3293762e-19)
(74.026542 4.8170264 0)
(73.872217 4.30804 -4.5577387e-15)
(73.724047 3.8636968 4.9243251e-15)
(73.589492 3.4778341 -5.3229158e-15)
(73.466615 3.1462434 1.4383483e-15)
(73.351999 2.8649068 1.5546966e-15)
(73.243931 2.6288968 -1.6790419e-15)
(73.141005 2.4330656 3.3563644e-19)
(73.041626 2.2725755 0)
(72.94452 2.1430528 -1.0594921e-15)
(72.849048 2.0406406 -1.1446769e-15)
(72.754977 1.9620115 2.4726359e-15)
(72.661949 1.9043604 6.6771754e-16)
(72.569127 1.8654389 6.1821232e-21)
(72.475215 1.8436519 -2.3358524e-15)
(72.378671 1.8381835 0)
(72.277904 1.8491076 9.0749615e-16)
(72.17138 1.8774268 -9.7953279e-16)
(72.057629 1.9249949 0)
(71.935104 1.9943209 5.7039166e-16)
(71.801923 2.0883211 -6.1520256e-16)
(71.655654 2.210109 -9.9532546e-16)
(71.493166 2.3628804 -4.1788796e-20)
(71.310528 2.5499131 -9.6385185e-16)
(71.102892 2.7746819 -4.1536466e-16)
(70.864359 3.0410913 -6.5536874e-20)
(70.587794 3.3538511 7.2184353e-16)
(70.264566 3.7189809 6.4655407e-16)
(69.88401 4.1444514 4.1640825e-16)
(69.432907 4.6410826 0)
(68.89391 5.2236055 -7.9460304e-17)
(68.245004 5.9134985 8.4422915e-17)
(67.4539 6.7386914 4.4517903e-16)
(66.48227 7.7512593 -4.618896e-16)
(65.26516 9.0028354 0)
(63.731601 10.721303 0)
(61.562967 12.826851 1.3716296e-16)
(58.555518 15.855533 1.725182e-19)
(53.892815 19.051905 -1.7777956e-16)
(52.916708 32.605075 0)
(75.882468 13.713596 7.8813387e-15)
(72.638843 13.433821 0)
(78.120238 8.374181 4.5566574e-15)
(77.534635 7.7725647 4.9819441e-15)
(75.809773 7.828767 5.4560677e-15)
(75.417236 7.1393613 -1.1836819e-14)
(75.299875 6.360859 6.4146511e-15)
(74.995663 5.7453752 -3.4752587e-15)
(74.687968 5.1956453 -7.5267176e-15)
(74.445665 4.6731174 4.0718087e-15)
(74.230806 4.1960226 0)
(74.030676 3.7724571 -7.1561002e-15)
(73.850369 3.3994871 2.5799861e-15)
(73.688781 3.074266 8.3745696e-15)
(73.541222 2.7946458 -1.5092089e-15)
(73.404462 2.5576155 1.633589e-15)
(73.276358 2.359462 0)
(73.154874 2.1963513 1.910314e-15)
(73.038191 2.064597 1.4942149e-19)
(72.92504 1.9607357 0)
(72.814592 1.8815638 -1.207456e-15)
(72.706036 1.8241822 -1.1372299e-19)
(72.598242 1.7860921 0)
(72.489706 1.7653359 1.5251459e-15)
(72.378679 1.7606562 2.4728115e-15)
(72.263338 1.7716388 -2.6724321e-15)
(72.141927 1.7987921 0)
(72.012799 1.8435141 0)
(71.874271 1.9079367 0)
(71.724357 1.994708 0)
(71.560529 2.1067897 3.2800984e-16)
(71.379554 2.2473216 -5.9177625e-20)
(71.17737 2.4195745 -2.2236127e-19)
(70.948944 2.6270073 1.2385467e-15)
(70.688114 2.8734419 -8.909857e-16)
(70.387376 3.163388 -4.8029748e-16)
(70.037598 3.5024891 0)
(69.627435 3.8981525 0)
(69.142724 4.3603049 1.496205e-16)
(68.564758 4.9026168 -2.4030684e-16)
(67.86965 5.5444209 8.5378614e-17)
(67.021832 6.3124029 9.0363848e-17)
(65.979032 7.2515492 -9.3983933e-17)
(64.66326 8.4146985 0)
(63.001085 9.9954445 -1.7112447e-16)
(60.635908 11.992132 -1.3898007e-16)
(57.393767 14.813808 -1.2525626e-16)
(52.055697 17.919545 3.4302754e-16)
(49.638613 30.776819 0)
(78.910766 10.90182 7.1474764e-15)
(73.819444 12.16614 -8.1155321e-15)
(78.255574 7.9702406 -8.7607445e-15)
(78.354558 7.0027063 -4.7847875e-15)
(76.744905 7.0652523 5.2169691e-15)
(76.123147 6.5962881 5.6820332e-15)
(75.917857 5.9415084 0)
(75.567585 5.3956124 0)
(75.175822 4.9166257 0)
(74.853959 4.4564249 -3.9379626e-15)
(74.582424 4.0242059 6.3998844e-15)
(74.336101 3.6319895 -6.9334392e-15)
(74.113669 3.2809199 -2.5043409e-15)
(73.914788 2.9698914 -8.0027396e-19)
(73.734879 2.698384 -2.9357045e-15)
(73.569568 2.465232 -1.5895029e-15)
(73.415965 2.2682905 3.4406789e-15)
(73.271706 2.1049053 5.1343944e-19)
(73.134689 1.972263 -6.0455972e-15)
(73.003199 1.8675003 0)
(72.875855 1.7877517 0)
(72.751344 1.7302268 2.5540405e-15)
(72.628196 1.6923545 -2.763437e-15)
(72.504708 1.671958 1.4949066e-15)
(72.378975 1.6674459 -1.6176847e-15)
(72.248993 1.6779848 -6.3794498e-20)
(72.112816 1.7036181 0)
(71.968611 1.7452728 5.1240579e-16)
(71.814523 1.8046475 5.5447658e-16)
(71.648421 1.8840358 -1.1997289e-15)
(71.467664 1.9861479 0)
(71.268922 2.1139702 0)
(71.048015 2.270686 -1.1834073e-19)
(70.799753 2.4596837 -1.6430734e-15)
(70.517742 2.6846784 -1.7456877e-19)
(70.194154 2.9499813 0)
(69.819405 3.260887 -7.7797525e-16)
(69.381546 3.6242617 4.1964635e-16)
(68.86558 4.0491826 6.0296086e-16)
(68.251608 4.5482191 -1.6186155e-16)
(67.514116 5.1386625 0)
(66.614727 5.845586 9.192645e-17)
(65.507895 6.7073704 2.8811475e-16)
(64.104692 7.7767749 4.8354858e-17)
(62.328768 9.2132796 1.5417275e-16)
(59.788208 11.07849 1.2397534e-16)
(56.337937 13.671571 0)
(50.420961 16.618896 -3.3395064e-16)
(46.580912 28.569796 0)
(81.197977 8.5867776 0)
(75.138666 10.554483 0)
(78.534099 7.2933001 2.1069347e-14)
(79.037286 6.2460033 -4.5898697e-15)
(77.607862 6.2766221 0)
(76.78274 5.9714082 -3.3577999e-18)
(76.446512 5.446976 0)
(76.056653 4.9779842 -3.2333207e-15)
(75.615478 4.5684829 -3.5134181e-15)
(75.235778 4.1731526 -3.8150649e-15)
(74.917998 3.7923855 0)
(74.633102 3.4387545 4.4924477e-15)
(74.373776 3.1167358 0)
(74.14032 2.8269389 2.6405386e-15)
(73.92939 2.5700109 -2.860187e-15)
(73.736292 2.346221 1.5504922e-15)
(73.55748 2.154862 -3.3587704e-15)
(73.390321 1.9944879 1.8197821e-15)
(73.232619 1.8632439 -1.9708461e-15)
(73.082391 1.758989 1.0669708e-15)
(72.937819 1.6793484 4.6243652e-15)
(72.797112 1.6218124 -1.2519996e-15)
(72.658435 1.583908 -1.3561812e-15)
(72.519875 1.5633972 0)
(72.379387 1.5584897 0)
(72.234852 1.5680395 3.4472259e-15)
(72.084183 1.5916954 -1.8671436e-15)
(71.925367 1.629938 -1.0115409e-15)
(71.756344 1.6840116 -1.0959527e-15)
(71.574796 1.7557973 1.1875867e-15)
(71.377946 1.8476725 6.435639e-16)
(71.162364 1.9623785 0)
(70.923772 2.1029224 1.5117652e-15)
(70.656838 2.2725486 8.1914911e-16)
(70.354971 2.474815 4.4376244e-16)
(70.010051 2.713809 0)
(69.612097 2.9944765 1.0416202e-15)
(69.148617 3.3231496 -1.4092727e-16)
(68.60387 3.7080885 -6.0891514e-16)
(67.956915 4.1607319 4.9224941e-16)
(67.180816 4.6964441 0)
(66.234792 5.3383653 3.7520343e-16)
(65.070562 6.1188852 -3.9339638e-16)
(63.590132 7.0893258 4.9793801e-17)
(61.714384 8.3769521 -4.5564315e-17)
(59.018269 10.090922 -1.6388664e-16)
(55.385212 12.438066 1.3975346e-16)
(48.981477 15.174178 1.6390395e-16)
(43.795112 26.049031 2.3157688e-16)
(82.762128 6.7218612 6.6516416e-15)
(76.242325 9.0115442 0)
(78.87998 6.5618381 -1.6310918e-14)
(79.572087 5.5275908 0)
(78.272749 5.5047116 0)
(77.307288 5.3094956 -1.060562e-14)
(76.873029 4.9023332 0)
(76.470675 4.5084199 3.1427974e-15)
(76.011357 4.1622483 6.8358832e-15)
(75.592231 3.8285528 1.423939e-18)
(75.235581 3.5013309 -1.7236762e-18)
(74.917185 3.1909011 6.5719895e-15)
(74.62565 2.9034168 2.3781142e-15)
(74.360815 2.6408084 0)
(74.120812 2.4044575 2.8002111e-15)
(73.901234 2.1955657 3.0364981e-15)
(73.6981 2.01457 2.0370088e-19)
(73.508567 1.8611233 1.7850782e-15)
(73.330377 1.7343068 1.9352795e-15)
(73.161418 1.6327337 -2.0979897e-15)
(72.99959 1.5546003 -2.274403e-15)
(72.842696 1.497797 2.465656e-15)
(72.688582 1.4600889 -1.3364214e-15)
(72.53509 1.4393231 1.4487408e-15)
(72.380052 1.4336519 7.856276e-16)
(72.221269 1.4417493 -2.555489e-15)
(72.056565 1.4629709 1.847884e-15)
(71.883767 1.4974083 1.0022588e-15)
(71.700591 1.5458633 0)
(71.504508 1.6097788 0)
(71.292587 1.6911443 -6.4043382e-16)
(71.061298 1.7923806 -6.95351e-16)
(70.806273 1.9162331 -7.5492333e-16)
(70.522058 2.0657205 0)
(70.201883 2.2441749 4.451855e-16)
(69.837379 2.4554119 -2.4182052e-16)
(69.418209 2.7040026 -1.0501083e-15)
(68.931401 2.9957322 4.2723861e-16)
(68.360554 3.3380546 -1.5432071e-16)
(67.68381 3.7412502 -3.3382647e-16)
(66.872982 4.218855 8.9953261e-17)
(65.885245 4.7918056 -4.8053669e-16)
(64.670004 5.4871583 0)
(63.121855 6.3534248 1.5438083e-16)
(61.159372 7.4888396 4.7360696e-17)
(58.326346 9.0342627 1.6925116e-16)
(54.534506 11.121439 -7.6781901e-18)
(47.728699 13.605872 -1.5240857e-17)
(41.315203 23.275944 -2.3295925e-16)
(83.915281 5.2179094 -6.6316685e-15)
(77.086157 7.5320859 2.1944727e-14)
(79.109389 5.753064 7.9374448e-15)
(79.921046 4.8059125 -8.6755692e-15)
(78.78069 4.7401254 -4.7377635e-15)
(77.756537 4.6199784 1.0362299e-14)
(77.252678 4.3138674 0)
(76.840162 3.9912035 3.0741485e-15)
(76.370793 3.7033084 -3.3478042e-15)
(75.920938 3.4273315 7.2854626e-15)
(75.530002 3.1537706 -3.9599194e-15)
(75.182125 2.889354 -2.5002457e-19)
(74.863011 2.6403389 -7.0134878e-15)
(74.570812 2.4095053 2.5384919e-15)
(74.304584 2.1987156 0)
(74.060606 2.0097138 -2.9925842e-15)
(73.834832 1.8437327 1.6238611e-15)
(73.624218 1.7013042 -3.5239688e-15)
(73.426439 1.5823217 2.4836699e-19)
(73.239356 1.4860987 3.6809323e-19)
(73.060667 1.4114141 1.8462879e-19)
(72.887965 1.3566227 -3.6621747e-15)
(72.718822 1.319821 0)
(72.550872 1.299054 -1.4374793e-15)
(72.381807 1.2925476 -1.5602107e-15)
(72.209361 1.2989287 8.4684732e-16)
(72.031297 1.3173691 1.4854295e-19)
(71.845298 1.3476469 9.9902666e-16)
(71.648874 1.3901637 -2.1699792e-15)
(71.439289 1.4459321 0)
(71.213465 1.5165291 0)
(70.967772 1.604001 3.4837026e-16)
(70.697749 1.7107585 3.7900541e-16)
(70.397831 1.8395138 4.1254898e-16)
(70.061091 1.993298 -2.2440254e-16)
(69.678945 2.1755911 -2.8349511e-20)
(69.240753 2.3905433 5.320654e-16)
(68.733121 2.6433577 1.4481062e-16)
(68.139065 2.9406697 -2.1553488e-20)
(67.435933 3.2915664 1.7083817e-16)
(66.594427 3.7078234 -4.6156362e-16)
(65.570006 4.2079503 9.9019754e-17)
(64.310069 4.8142908 4.191658e-16)
(62.703298 5.5712406 -2.139037e-16)
(60.666431 6.5519943 1.7322394e-16)
(57.714215 7.9137678 1.7583023e-16)
(53.786206 9.7297348 -2.545239e-16)
(46.654041 11.931567 -8.3764952e-17)
(39.160463 20.305783 -2.5378182e-16)
(84.789575 3.9649316 6.4315723e-15)
(77.747615 6.0811099 -7.2346977e-15)
(79.300717 4.859124 -3.9330556e-15)
(80.21937 4.0662601 -4.3748691e-18)
(79.229734 3.9763003 9.3564147e-15)
(78.162584 3.9027852 -1.0219496e-14)
(77.586532 3.6828086 2.7868796e-15)
(77.155806 3.4304636 -3.0357693e-15)
(76.680448 3.1991642 -3.3067444e-15)
(76.209293 2.9776948 -3.6013011e-15)
(75.791346 2.7564976 -1.9603421e-15)
(75.419698 2.5389986 -4.226732e-19)
(75.078725 2.3305578 2.3176169e-15)
(74.764301 2.1343768 -2.5193348e-15)
(74.475846 1.952678 2.7361308e-15)
(74.210631 1.7874969 1.4863914e-15)
(73.96485 1.6405184 0)
(73.735347 1.5128654 1.1984464e-19)
(73.519758 1.4050455 3.8075992e-15)
(73.315857 1.3169541 -2.0666331e-15)
(73.121325 1.2479113 1.1221626e-15)
(72.933661 1.1967446 1.2184988e-15)
(72.750325 1.1619258 0)
(72.568776 1.1417733 1.4372576e-15)
(72.386571 1.1346874 2.342242e-15)
(72.201375 1.1393488 1.2181268e-19)
(72.010871 1.1548366 1.8445254e-15)
(71.812612 1.1806975 -2.0053354e-15)
(71.603946 1.2169985 1.0907076e-15)
(71.381983 1.2643649 0)
(71.143528 1.3239665 6.4612517e-16)
(70.884853 1.3974443 -7.0374296e-16)
(70.6014 1.4868167 0)
(70.28749 1.5944184 -4.1808409e-16)
(69.936063 1.7229061 4.5588949e-16)
(69.538358 1.8753557 -7.8368259e-20)
(69.083482 2.0554358 -2.7151403e-16)
(68.557688 2.2677169 -2.9621126e-16)
(67.943487 2.5179789 3.2297048e-16)
(67.21754 2.81407 -3.5162341e-16)
(66.34957 3.1660337 6.6765196e-16)
(65.293623 3.5897715 1.0272657e-16)
(63.995307 4.1034379 -6.5470036e-16)
(62.33875 4.7461437 5.5980867e-17)
(60.239131 5.5703613 -2.8548369e-16)
(57.184735 6.735389 -1.4259093e-16)
(53.141697 8.2713705 6.498091e-17)
(45.74957 10.166464 1.6352635e-16)
(37.339129 17.186365 5.6893899e-16)
(85.467394 2.9103724 -6.5515702e-15)
(78.24839 4.7037935 7.1937527e-15)
(79.403068 3.9243743 7.8620818e-15)
(80.407598 3.310591 4.2802007e-15)
(79.565293 3.2133649 -2.3326372e-15)
(78.4792 3.1700085 7.6606168e-15)
(77.8445 3.0239424 -8.3521322e-15)
(77.40066 2.8397121 9.1069371e-15)
(76.928679 2.6627932 -3.3061311e-15)
(76.447854 2.4917736 -9.1686455e-19)
(76.011757 2.3198836 1.9597495e-15)
(75.623001 2.1482165 -4.2688306e-15)
(75.266423 1.9806313 0)
(74.935648 1.8202984 -2.5259563e-15)
(74.630024 1.6696785 2.7450481e-15)
(74.347794 1.5309274 -1.4927439e-15)
(74.085637 1.4058988 3.2433626e-15)
(73.840446 1.2960188 1.7624867e-15)
(73.609692 1.202185 -3.8304651e-15)
(73.391147 1.1247328 2.0804509e-15)
(73.182518 1.0634398 1.1306673e-15)
(72.981393 1.0175686 -1.2282896e-15)
(72.785218 0.98597232 0)
(72.591377 0.96728332 1.4515002e-15)
(72.39734 0.96012688 -7.8897474e-16)
(72.200665 0.9632851 -8.5825788e-16)
(71.998917 0.97580529 -9.3385326e-16)
(71.789533 0.99708061 5.0835472e-16)
(71.569767 1.02693 9.0050349e-20)
(71.336653 1.0656594 -6.0322379e-16)
(71.086931 1.114062 -6.6716963e-20)
(70.816783 1.1733624 7.1721069e-16)
(70.521543 1.2451475 3.9145915e-16)
(70.195421 1.3313189 4.2755909e-16)
(69.831244 1.4340953 -1.1681952e-15)
(69.420115 1.5560821 7.66353e-16)
(68.950945 1.7004016 0)
(68.409703 1.8709298 0)
(67.778478 2.0725368 0)
(67.033361 2.3117739 0)
(66.143222 2.5969419 -3.9769459e-16)
(65.060973 2.9411846 -1.0758808e-16)
(63.730604 3.3588597 3.4360621e-16)
(62.032917 3.8828064 0)
(59.881526 4.548966 -2.1908849e-16)
(56.741551 5.5059572 0)
(52.603308 6.7554259 6.6806406e-17)
(45.00912 8.3239191 2.657713e-18)
(35.852756 13.959954 -9.2358021e-18)
(85.995839 2.00292 -1.1037207e-16)
(78.608062 3.3943426 7.297717e-15)
(79.418226 2.9666844 -7.9774568e-15)
(80.500314 2.5482478 -2.171273e-15)
(79.805494 2.4620622 2.3645701e-15)
(78.717595 2.4371561 -2.5874672e-15)
(78.033043 2.3513252 0)
(77.577921 2.2303473 1.5394249e-15)
(77.11452 2.1053361 -1.6754594e-15)
(76.632252 1.9812131 0)
(76.185377 1.8553125 0)
(75.785718 1.7275227 -5.4315131e-19)
(75.419751 1.6000359 2.3569159e-15)
(75.078938 1.475618 0)
(74.761976 1.3568295 0)
(74.467872 1.2458585 -4.5528172e-15)
(74.19394 1.1445583 1.650126e-15)
(73.937102 1.0544461 -4.4855641e-15)
(73.694736 0.97663278 2.9257809e-15)
(73.464591 0.91175212 1.0606581e-15)
(73.244492 0.85993138 -2.3059158e-15)
(73.032168 0.82080212 0)
(72.825166 0.79357949 6.8196546e-16)
(72.620924 0.77721106 -1.4834674e-15)
(72.41686 0.77054482 -8.0724445e-16)
(72.210409 0.77247412 0)
(71.99899 0.78204864 4.7855267e-16)
(71.779934 0.79857727 1.042978e-15)
(71.550465 0.82172118 -2.274013e-15)
(71.307642 0.85154353 3.1003844e-16)
(71.048185 0.88850214 -3.3845528e-16)
(70.768196 0.93341341 0)
(70.462898 0.98741495 -4.042578e-16)
(70.126404 1.0519399 3.9175586e-20)
(69.751452 1.1287197 4.8434259e-16)
(69.32905 1.2198322 -2.6541681e-16)
(68.847973 1.3277897 0)
(68.293981 1.4557084 0)
(67.648833 1.6074837 0)
(66.88817 1.7883031 0)
(65.980151 2.0046799 -2.095317e-16)
(64.876811 2.2668741 0)
(63.5207 2.5857083 0)
(61.790407 2.9869579 -3.1314259e-17)
(59.597757 3.4938432 1.1612546e-16)
(56.388771 4.2331867 2.2391361e-17)
(52.174341 5.1916507 6.8935596e-17)
(44.429109 6.4152932 -8.468481e-17)
(34.699993 10.661567 -5.2294376e-16)
(86.40091 1.2132407 6.8198716e-15)
(78.831822 2.160075 -5.6609858e-15)
(79.343231 2.0008326 4.1169373e-15)
(80.501227 1.7771319 -2.2369476e-15)
(79.950775 1.7199683 2.4441561e-15)
(78.871496 1.7099817 -2.6649095e-15)
(78.144375 1.6735379 2.9108117e-15)
(77.680266 1.610889 -3.1704943e-15)
(77.229791 1.5366762 -1.7281754e-15)
(76.753286 1.4578836 1.8837717e-15)
(76.302849 1.3756242 -2.0505553e-15)
(75.898706 1.2897299 -2.2343786e-15)
(75.529727 1.201154 1.214857e-15)
(75.185396 1.1120942 -6.6238909e-16)
(74.863363 1.0250463 1.4397751e-15)
(74.563159 0.9421788 1.5669181e-15)
(74.282659 0.86529095 0)
(74.018909 0.7959054 9.2717251e-16)
(73.769227 0.73523454 -1.5128522e-15)
(73.531385 0.68409468 5.4857128e-16)
(73.303323 0.64285664 5.9678862e-16)
(73.082937 0.6114462 -6.493656e-16)
(72.867961 0.58939347 7.0682587e-16)
(72.655954 0.57592704 -1.9234055e-15)
(72.444333 0.57009701 1.6755859e-15)
(72.230425 0.57090372 4.5649407e-16)
(72.011485 0.57742539 -4.9737324e-16)
(71.784771 0.58894447 -1.0851975e-15)