/*--------------------------------*- C++ -*----------------------------------*\
| =========                 |                                                 |
| \\      /  F ield         | OpenFOAM: The Open Source CFD Toolbox           |
|  \\    /   O peration     | Version:  2506                                  |
|   \\  /    A nd           | Website:  www.openfoam.com                      |
|    \\/     M anipulation  |                                                 |
\*---------------------------------------------------------------------------*/
FoamFile
{
    version     2.0;
    format      ascii;
    arch        "LSB;label=32;scalar=64";
    class       volScalarField;
    location    "1.1";
    object      omega;
}
// * * * * * * * * * * * * * * * * * * * * * * * * * * * * * * * * * * * * * //

dimensions      [0 0 -1 0 0 0 0];

internalField   nonuniform List<scalar> 
1375
(
26.80242
26.756431
24.198177
21.696635
19.96436
18.860066
26.451547
23.922665
21.459651
19.761553
18.684026
18.021679
17.628922
17.409321
17.297228
17.24772
26.148704
23.651797
21.228676
19.564631
18.513097
17.870274
17.492097
17.282988
17.177857
17.132424
17.11806
17.116852
17.131908
17.155569
17.181534
25.844973
23.38182
21.000589
19.371479
18.346022
17.72241
17.358331
17.159192
17.060543
17.018832
17.006381
17.005975
17.022486
17.046038
17.071796
17.099942
17.130107
17.162062
17.19572
17.231084
25.53837
23.109879
20.77267
19.180023
18.18142
17.577275
17.227197
17.037723
16.945185
16.906912
16.896184
16.896588
16.914352
16.937746
16.963288
16.991139
17.020935
17.052466
17.085654
17.120503
17.157076
17.195475
17.235835
17.278307
17.323062
25.228311
22.834337
20.542939
18.988499
18.017973
17.434003
17.098187
16.918304
16.831657
16.796624
16.787333
16.788708
16.807458
16.830653
16.855969
16.883514
16.912931
16.94403
16.976742
17.011071
17.047081
17.084876
17.124591
17.166381
17.210424
17.256908
17.306039
17.358037
17.413144
24.915982
22.555232
20.310702
18.795951
17.854782
17.291897
16.970818
16.800632
16.719782
16.687834
16.679755
16.682283
16.701762
16.724725
16.749797
16.777017
16.806042
16.836696
16.86892
16.902722
16.938165
16.975353
17.014426
17.05554
17.098874
17.14462
17.192988
17.244203
17.298509
17.356176
17.417511
17.482876
17.552692
24.604595
22.274918
20.07719
18.602798
17.691832
17.150758
16.844854
16.684503
16.609407
16.580406
16.573387
16.577232
16.597205
16.619912
16.644723
16.671601
16.700216
16.73041
16.762133
16.7954
16.830272
16.866853
16.90528
16.945712
16.98833
17.033331
17.080934
17.13137
17.184879
17.241716
17.302169
17.36658
17.435359
17.50899
17.588039
17.673219
24.29883
21.997661
19.845381
18.410816
17.530043
17.010972
16.720385
16.569871
16.500433
16.47423
16.468171
16.473456
16.493715
16.516144
16.540674
16.56719
16.595377
16.625097
16.65631
16.689034
16.723332
16.759308
16.797099
16.836863
16.878779
16.923046
16.969876
17.019496
17.072152
17.128109
17.187648
17.25108
17.318785
17.391219
17.468932
17.55261
17.643076
17.741347
17.848528
24.003514
21.727895
19.618686
18.222308
17.370809
16.873262
16.597704
16.456803
16.392824
16.369242
16.364071
16.370857
16.391211
16.413338
16.43756
16.463692
16.491435
16.520666
16.551354
16.583526
16.61725
16.652631
16.689803
16.728918
16.770153
16.813696
16.859755
16.908553
16.960332
17.015345
17.073871
17.136214
17.202742
17.273906
17.35024
17.432401
17.521165
17.617503
17.722478
17.83717
17.962393
18.09831
23.722567
21.469376
19.400141
18.039454
17.215534
16.738417
16.477179
16.34543
16.286604
16.265447
16.261113
16.269394
16.289679
16.311475
16.335356
16.361071
16.38834
16.417057
16.447203
16.478812
16.511957
16.54674
16.583289
16.621753
16.662302
16.705123
16.750417
16.798392
16.849268
16.903291
16.960725
17.021888
17.087153
17.156955
17.231816
17.312383
17.399441
17.493883
17.596689
17.708843
17.830979
17.963098
18.104599
18.255979
23.45833
21.225005
19.192254
17.864181
17.065528
16.607211
16.359198
16.235899
16.181803
16.16286
16.159321
16.169039
16.189131
16.210576
16.234079
16.259342
16.286107
16.314286
16.34387
16.3749
16.407451
16.441628
16.477556
16.515375
16.555242
16.597326
16.64181
16.688893
16.738796
16.79176
16.848054
16.90799
16.971915
17.040266
17.113587
17.192514
17.277823
17.370373
17.471068
17.580742
17.699893
17.828352
17.965386
18.111779
18.277398
18.510183
19.051571
23.210674
20.995258
18.995688
17.697204
16.921422
16.480095
16.244019
16.128332
16.078469
16.061505
16.05871
16.069743
16.089547
16.110623
16.133722
16.158513
16.184762
16.212394
16.241406
16.271846
16.303795
16.337357
16.372646
16.409798
16.448959
16.490283
16.533929
16.580089
16.62897
16.680805
16.735859
16.794432
16.85692
16.923777
16.995536
17.07284
17.156428
17.247128
17.345794
17.453138
17.569435
17.694317
17.827002
17.968577
18.130139
18.363883
18.931813
21.613827
36.306249
22.977124
20.777926
18.808873
17.537602
16.782759
16.356884
16.131593
16.022724
15.976613
15.961417
15.959316
15.971513
15.990962
16.011661
16.034336
16.058635
16.084352
16.111422
16.139853
16.169696
16.201031
16.233957
16.268586
16.305042
16.34346
16.383978
16.426741
16.471917
16.519715
16.570361
16.624134
16.681356
16.742421
16.807763
16.877926
16.953557
17.035413
17.124302
17.220988
17.326047
17.439563
17.560978
17.68946
17.826439
17.984378
18.220279
18.818051
21.661753
36.775174
22.754261
20.570238
18.629771
17.384043
16.648762
16.237182
16.021744
15.919021
15.876246
15.862638
15.86118
15.874372
15.893425
15.913735
15.935969
15.95977
15.984948
16.011453
16.039298
16.068535
16.099238
16.131501
16.165436
16.201161
16.238786
16.278431
16.320239
16.364381
16.411055
16.4605
16.512991
16.568859
16.628482
16.692324
16.760948
16.834991
16.91517
17.002264
17.096966
17.199715
17.310446
17.428408
17.552748
17.685346
17.840027
18.079193
18.711935
21.75442
37.253649
22.538662
20.369609
18.456348
17.235108
16.518547
16.120507
15.91425
15.817136
15.777353
15.765182
15.764311
15.778323
15.796949
15.816858
15.838634
15.861919
15.88655
15.912484
15.939736
15.968356
15.998417
16.03001
16.063235
16.098194
16.134986
16.173723
16.214558
16.257652
16.303198
16.351436
16.402639
16.457138
16.515335
16.577723
16.644855
16.71736
16.795938
16.881293
16.974028
17.074441
17.182267
17.29663
17.416784
17.545035
17.696836
17.940369
18.614223
21.89543
37.756176
22.327268
20.173635
18.286794
17.089512
16.391274
16.00637
15.808869
15.716974
15.67991
15.669039
15.668686
15.683338
15.701503
15.720992
15.742284
15.76503
15.789091
15.814434
15.841075
15.869065
15.898474
15.929384
15.961881
15.996054
16.032003
16.069841
16.1097
16.151747
16.196174
16.243222
16.293184
16.346399
16.403262
16.464246
16.52991
16.600889
16.677861
16.761456
16.852157
16.9501
17.054841
17.165446
17.281312
17.40533
17.5546
17.803537
18.522679
22.026931
38.226688
22.11756
19.979912
18.119356
16.94605
16.266152
15.894291
15.705336
15.618414
15.583874
15.574194
15.57429
15.589404
15.607074
15.626112
15.646891
15.669073
15.692541
15.71727
15.743279
15.770618
15.799352
15.829555
15.861301
15.894667
15.929751
15.966673
16.005568
16.046596
16.089956
16.135886
16.184671
16.236637
16.292203
16.351855
16.416139
16.485672
16.561076
16.642855
16.731379
16.826634
16.928044
17.034656
17.146083
17.265933
17.413038
17.668803
18.435793
22.13688
38.664629
21.908385
19.787694
17.953609
16.804419
16.142938
15.784079
15.603514
15.521373
15.489221
15.480541
15.481129
15.4965
15.513632
15.532178
15.552404
15.573993
15.596844
15.620938
15.646297
15.672964
15.701
15.730471
15.761445
15.794
15.828231
15.864259
15.902219
15.942262
15.984576
16.029398
16.07702
16.127786
16.182109
16.240469
16.303407
16.371499
16.445311
16.525233
16.61146
16.703841
16.801705
16.904137
17.011054
17.12686
17.272272
17.536065
18.354871
22.267647
39.107047
21.699742
19.597451
17.790104
16.665006
16.021812
15.675766
15.503357
15.425782
15.395861
15.38801
15.389132
15.404561
15.421113
15.439117
15.458744
15.4797
15.501903
15.525336
15.550023
15.576005
15.603332
15.632066
15.662273
15.694025
15.727416
15.762564
15.799606
15.838698
15.880026
15.923813
15.97034
16.019943
16.073028
16.130057
16.191568
16.25812
16.33022
16.408162
16.491973
16.581361
16.675577
16.773755
16.876193
16.988136
17.132486
17.405571
18.281788
22.424827
39.511301
21.492032
19.409444
17.629243
16.528139
15.902953
15.569388
15.404816
15.331562
15.303695
15.296531
15.29821
15.313528
15.329472
15.346897
15.365883
15.386166
15.40768
15.430416
15.454402
15.479678
15.50629
15.534291
15.563741
15.594708
15.627279
15.661565
15.697703
15.735853
15.776205
15.81898
15.86444
15.9129
15.964747
16.020431
16.080478
16.145411
16.215662
16.291463
16.372725
16.459013
16.549548
16.643528
16.741673
16.850241
16.99417
17.278425
18.219304
22.597519
39.872984
21.285959
19.223792
17.471251
16.394006
15.786452
15.46495
15.307842
15.238637
15.212637
15.206052
15.208288
15.223362
15.238692
15.255513
15.273836
15.293422
15.314221
15.336238
15.359502
15.384058
15.409951
15.437225
15.465933
15.496136
15.527911
15.561355
15.596597
15.633799
15.673154
15.71488
15.759229
15.8065
15.857069
15.911377
15.969913
16.033145
16.101433
16.174947
16.253554
16.336739
16.423656
16.513603
16.6077
16.71319
16.857615
17.155439
18.167553
22.777033
40.249142
21.082891
19.041483
17.316876
16.26308
15.672558
15.362545
15.21244
15.14696
15.122621
15.116523
15.119278
15.134
15.148715
15.164928
15.182583
15.201468
15.221553
15.24285
15.265393
15.289225
15.314393
15.340938
15.368906
15.39835
15.42934
15.461968
15.496349
15.532632
15.571
15.61166
15.654861
15.700894
15.750114
15.802924
15.85978
15.92114
15.987346
16.058513
16.134446
16.214534
16.297905
16.384007
16.474366
16.577279
16.723376
17.037931
18.127742
22.971268
40.668985
20.884482
18.863716
17.166726
16.135635
15.561372
15.262178
15.118573
15.056473
15.033589
15.027899
15.0311
15.045389
15.059494
15.075099
15.092095
15.110294
15.129679
15.150268
15.172101
15.195218
15.219663
15.245479
15.272706
15.301391
15.331599
15.363414
15.396939
15.432301
15.469665
15.50924
15.551269
15.596032
15.643862
15.695148
15.750311
15.809771
15.873818
15.94253
16.015668
16.092582
16.172401
16.254742
16.341611
16.442579
16.59153
16.927
18.113644
23.197625
41.123618
20.691846
18.690732
17.02059
16.011372
15.452635
15.16366
15.026105
14.96709
14.945483
14.940134
14.943709
14.957505
14.971008
14.986016
15.002372
15.019907
15.038616
15.058524
15.079666
15.102085
15.125821
15.150907
15.177383
15.205295
15.234701
15.265679
15.298327
15.332758
15.369118
15.407596
15.448427
15.491889
15.538314
15.588075
15.641549
15.699086
15.760944
15.827186
15.897509
15.971227
16.047476
16.126085
16.209665
16.30913
16.462565
16.823789
18.110298
23.479738
41.603328
20.505559
18.522349
16.878002
15.889835
15.346001
15.066766
14.934905
14.878742
14.858276
14.853222
14.857105
14.870369
14.883285
14.897712
14.913446
14.930344
14.948407
14.967656
14.98813
15.009867
15.032905
15.057277
15.083007
15.110142
15.138747
15.168884
15.200638
15.234121
15.269464
15.306837
15.346459
15.388609
15.433615
15.481837
15.533627
15.58927
15.648958
15.712692
15.78011
15.850521
15.923131
15.998011
16.078431
16.177023
16.336989
16.731149
18.14766
23.857963
42.16006
20.325734
18.358409
16.738564
15.770637
15.241181
14.971311
14.844866
14.79137
14.771938
14.767145
14.771279
14.783983
14.796326
14.810184
14.825323
14.841613
14.859052
14.877665
14.897486
14.918549
14.940888
14.964543
14.989542
15.015909
15.043705
15.073007
15.103877
15.136404
15.170721
15.206995
15.245431
15.2863
15.329919
15.37663
15.426766
15.480546
15.538068
15.599213
15.663564
15.730436
15.799175
15.870269
15.947855
16.046542
16.215354
16.651571
18.2298
24.343598
42.797771
20.151802
18.198475
16.601829
15.653427
15.137952
14.877181
14.755957
14.704984
14.686501
14.681945
14.686275
14.698383
14.71016
14.723461
14.738011
14.753705
14.770539
14.788525
14.807696
14.828085
14.849719
14.872639
14.896886
14.922491
14.949488
14.977946
15.007948
15.039551
15.072857
15.108049
15.145334
15.184961
15.227233
15.272471
15.32098
15.372916
15.428284
15.486812
15.548006
15.611204
15.675965
15.743291
15.818363
15.918189
16.099659
16.592196
18.369267
24.959085
43.548344
19.982191
18.041194
16.46676
15.537462
15.035807
14.784033
14.667934
14.619404
14.601811
14.597473
14.601955
14.613424
14.624625
14.637357
14.651315
14.666404
14.68262
14.699968
14.718474
14.738169
14.75908
14.781243
14.804715
14.829534
14.85573
14.883366
14.912509
14.943214
14.975564
15.009711
15.045869
15.084284
15.125228
15.169013
15.215894
15.265952
15.319098
15.374935
15.432872
15.49228
15.553014
15.6167
15.689808
15.792515
15.991546
16.550456
18.578149
25.701306
44.376683
19.816055
17.886789
16.33398
15.423416
14.93541
14.692536
14.581469
14.535308
14.51857
14.514435
14.519031
14.529835
14.540456
14.552605
14.565957
14.580427
14.596006
14.612701
14.630528
14.649513
14.669692
14.691101
14.713788
14.737805
14.763194
14.790003
14.818303
14.848132
14.879554
14.912714
14.947804
14.985041
15.024699
15.06706
15.11231
15.160473
15.21134
15.264419
15.319049
15.374647
15.431412
15.491728
15.563571
15.670965
15.892337
16.551294
18.872227
26.589474
45.291134
19.647199
17.728385
16.197708
15.306649
14.832872
14.599245
14.493363
14.449606
14.433721
14.429807
14.43448
14.444575
14.454598
14.466139
14.478855
14.492672
14.507579
14.523581
14.540694
14.55894
14.578359
14.598991
14.620867
14.644056
14.668603
14.694529
14.721913
14.750816
14.78127
14.813401
14.847384
14.883403
14.921732
14.962614
15.006146
15.052303
15.100775
15.150971
15.202184
15.253934
15.306821
15.364084
15.435749
15.552242
15.811127
16.587403
19.271829
27.604659
46.187762
19.495124
17.58994
16.079289
15.204998
14.743424
14.517714
14.416239
14.374495
14.359329
14.355573
14.360265
14.369714
14.379215
14.390222
14.402374
14.415606
14.429905
14.445281
14.461751
14.479339
14.498085
14.518029
14.539206
14.561667
14.585464
14.610611
14.637151
14.665174
14.694726
14.725882
14.758818
14.793725
14.830823
14.870345
14.912331
14.956672
15.002988
15.050619
15.098878
15.147408
15.197114
15.252097
15.324196
15.447998
15.725307
16.662659
19.718554
28.638879
47.056627
19.236872
17.348554
15.873259
15.029499
14.589808
14.378003
14.284084
14.24569
14.231638
14.228194
14.232774
14.241111
14.249709
14.259787
14.270972
14.2832
14.296457
14.310754
14.326112
14.342563
14.360143
14.378903
14.398882
14.420101
14.442603
14.466398
14.491478
14.517954
14.545885
14.575305
14.606415
14.639404
14.67443
14.711665
14.751072
14.792377
14.835123
14.878578
14.922079
14.965691
15.011216
15.064715
15.14256
15.300172
15.701459
16.998068
20.928804
30.939029
48.754735
)
;

boundaryField
{
    Side
    {
        type            empty;
    }
    Inlet
    {
        type            fixedValue;
        value           uniform 60.24606;
    }
    Airfoil
    {
        type            omegaWallFunction;
        blending        binomial;
        n               2;
        value           nonuniform List<scalar> 0();
    }
    Outlet
    {
        type            inletOutlet;
        inletValue      uniform 60.24606;
        value           nonuniform List<scalar> 
49
(
19.236872
17.348554
15.873259
15.029499
14.589808
14.378003
14.284084
14.24569
14.231638
14.228194
14.232774
14.241111
14.249709
14.259787
14.270972
14.2832
14.296457
14.310754
14.326112
14.342563
14.360143
14.378903
14.398882
14.420101
14.442603
14.466398
14.491478
14.517954
14.545885
14.575305
14.606415
14.639404
14.67443
14.711665
14.751072
14.792377
14.835123
14.878578
14.922079
14.965691
15.011216
15.064715
15.14256
15.300172
15.701459
16.998068
20.928804
30.939029
48.754735
)
;
    }
    procBoundary6to5
    {
        type            processor;
        value           nonuniform List<scalar> 
61
(
27.06662
24.482237
21.942431
20.174644
19.041967
18.177283
18.177283
17.76911
17.53832
17.418718
17.364745
17.231287
17.231287
17.22921
17.242648
17.26635
17.292507
17.209962
17.209962
17.240481
17.272845
17.306958
17.342821
17.268216
17.268216
17.307213
17.348208
17.391349
17.4368
17.370285
17.370285
17.420171
17.472939
17.528837
17.471638
17.471638
17.533838
17.600129
17.670959
17.627472
17.627472
17.707821
17.794472
17.765384
17.765384
17.865567
17.974956
17.965811
17.965811
18.094168
18.23395
18.244403
18.244403
18.400967
18.426029
18.426029
18.65891
19.177035
21.568309
21.568309
35.84662
)
;
    }
    procBoundary6to12
    {
        type            processor;
        value           uniform 27.11937;
    }
    procBoundary6to13
    {
        type            processor;
        value           nonuniform List<scalar> 
34
(
24.26937
26.488787
26.488787
26.1769
25.865185
25.552262
25.237677
24.92263
24.609981
24.303887
24.00928
23.730426
23.469366
23.225591
22.996544
22.77824
22.565954
22.355781
22.145289
21.933212
21.719405
21.505002
21.292159
21.083113
20.879574
20.683169
20.4951
20.315511
20.143616
19.977755
19.817007
19.654818
19.508772
19.257914
)
;
    }
}


// ************************************************************************* //
