/*--------------------------------*- C++ -*----------------------------------*\
| =========                 |                                                 |
| \\      /  F ield         | OpenFOAM: The Open Source CFD Toolbox           |
|  \\    /   O peration     | Version:  2506                                  |
|   \\  /    A nd           | Website:  www.openfoam.com                      |
|    \\/     M anipulation  |                                                 |
\*---------------------------------------------------------------------------*/
FoamFile
{
    version     2.0;
    format      ascii;
    arch        "LSB;label=32;scalar=64";
    class       volScalarField;
    location    "0.45";
    object      k;
}
// * * * * * * * * * * * * * * * * * * * * * * * * * * * * * * * * * * * * * //

dimensions      [0 2 -2 0 0 0 0];

internalField   nonuniform List<scalar> 
1375
(
13.261345
10.988427
9.5346829
9.3197008
13.755688
10.958205
9.5689029
9.3297607
8.7762883
8.7042494
8.2927478
8.3667343
8.0320134
7.8486446
7.713019
7.6055936
14.319109
10.96777
9.5880097
9.3994477
8.8048748
8.9674334
8.4297935
8.3782165
8.0153054
7.8948872
7.7304881
7.6367516
7.5258413
7.4677013
7.4098796
7.3531847
7.3049372
7.2627645
7.2264749
7.2035248
7.1855402
7.1741279
14.924466
10.944741
9.7180325
9.5844325
8.9082224
9.0468995
8.4434465
8.3340449
7.9811934
7.866263
7.717496
7.6296368
7.538333
7.466317
7.4096517
7.3563642
7.3085583
7.2674652
7.2255919
7.1971681
7.1778848
7.1675665
7.1581822
7.1561198
7.1529759
7.1549722
7.1584285
7.1652127
7.1719466
7.1812252
7.193121
7.2065048
7.223113
7.242491
15.50697
10.794896
9.9239928
9.6614971
9.0923128
9.0005613
8.4323337
8.3056744
7.9685235
7.8671063
7.7327284
7.6424266
7.5424641
7.476862
7.4199064
7.3588233
7.3080091
7.2646434
7.2237633
7.1894856
7.1700952
7.1560352
7.1463679
7.1425655
7.1399635
7.1411056
7.143592
7.1504666
7.1551455
7.1632804
7.1736875
7.1859898
7.2011783
7.2190695
7.2404629
7.2657421
7.296144
7.3321702
7.3754891
7.4277543
7.490786
7.5675816
7.6620651
7.779929
7.930268
8.129179
8.4046785
8.8188379
9.5233305
16.102583
10.557005
9.9175737
9.6229184
9.1231217
8.8964211
8.4286226
8.324346
7.990843
7.925915
7.7773788
7.6995414
7.5678445
7.5011773
7.4318045
7.3660643
7.312736
7.2650201
7.2199027
7.1891891
7.1645138
7.1498056
7.1356727
7.1314023
7.1272463
7.1267964
7.1288724
7.1349805
7.1384658
7.1455262
7.1551404
7.1660893
7.1799083
7.1963638
7.2161959
7.2397812
7.2682508
7.3021386
7.3431016
7.3927033
7.4528025
7.5262538
7.6169536
7.730227
7.8750285
8.0670472
8.3336702
8.7356314
9.4225711
16.81165
10.553116
9.8627097
9.5239393
9.1110353
8.8885902
8.4400905
8.3894536
8.0752572
7.9613585
7.7868118
7.7108952
7.5871862
7.4964997
7.4370534
7.3718075
7.3216768
7.2761894
7.2225486
7.1784573
7.1565394
7.14718
7.1300249
7.1237601
7.1162289
7.1141795
7.1151776
7.119586
7.1220913
7.1281965
7.137019
7.1467122
7.1592992
7.1743491
7.1926934
7.2146822
7.2412922
7.2731838
7.3119313
7.3590159
7.4163515
7.4866881
7.5738166
7.6828693
7.8226133
8.0082146
8.2665025
8.6569347
9.3281107
17.473316
10.487295
9.8616138
9.4731328
9.1206949
8.9288024
8.5284503
8.5254686
8.1597521
7.9896846
7.7993558
7.7111462
7.5874731
7.5120834
7.4513366
7.366934
7.320283
7.2761197
7.2214822
7.1720578
7.150396
7.1365716
7.1195014
7.1129971
7.1038841
7.1016292
7.1014407
7.1043126
7.1061591
7.1115711
7.1193136
7.1278013
7.1391757
7.1529442
7.1698791
7.1903581
7.2151913
7.2452259
7.2818869
7.3265957
7.3813289
7.4487599
7.5325602
7.6376994
7.772774
7.9524185
8.2029038
8.5826403
9.2393261
18.295927
10.613893
9.9185274
9.4904956
9.175043
9.0499007
8.6833667
8.5776743
8.1638389
7.994356
7.8052936
7.7360372
7.5890401
7.5439895
7.4541584
7.3778884
7.3235104
7.2649822
7.2151353
7.1746908
7.1466593
7.1264848
7.107355
7.1005462
7.0912198
7.0885396
7.0871117
7.0891168
7.0908766
7.0954724
7.1018151
7.109375
7.1195467
7.1321112
7.1476827
7.1667256
7.1899119
7.2182127
7.2528955
7.2953722
7.3476614
7.4123838
7.4930568
7.5945696
7.7253058
7.8993925
8.142627
8.5124299
9.1560018
19.090507
10.501423
10.075786
9.5872097
9.2232227
9.1293568
8.6987272
8.5505348
8.1554588
7.9908879
7.8145359
7.7459452
7.6015026
7.5392251
7.4517649
7.3894774
7.3255
7.2684261
7.2160939
7.1709597
7.1369871
7.116287
7.0969879
7.0906012
7.0796708
7.0763253
7.0732993
7.0748251
7.0760292
7.0794191
7.0843972
7.0912968
7.1003583
7.1117655
7.1260665
7.143742
7.1654121
7.1920874
7.2249033
7.265289
7.3152917
7.377471
7.4552143
7.5533838
7.6800621
7.8489598
8.0854401
8.4459251
9.0777306
19.868857
10.384815
10.120537
9.6340539
9.2446993
9.1110657
8.6966636
8.5150501
8.1609627
7.9993755
7.8323441
7.7457019
7.6295612
7.5417163
7.457735
7.3896869
7.3247365
7.2745749
7.217379
7.162973
7.1231
7.1065181
7.0882678
7.0799805
7.0680649
7.0643641
7.0600917
7.0612259
7.0609539
7.0633554
7.0673341
7.0735435
7.0815388
7.0919023
7.1050126
7.1213775
7.1416608
7.1668
7.1978621
7.2362943
7.284156
7.3439251
7.4189407
7.5139958
7.6368773
7.8009387
8.0311449
8.3826708
9.003693
20.722359
10.312505
10.116303
9.6758467
9.2683636
9.0496762
8.6948942
8.5136364
8.1797224
8.0253065
7.8603473
7.7702901
7.6490022
7.5483965
7.4725966
7.3976368
7.3263043
7.2733236
7.2102811
7.1543221
7.1231904
7.1001886
7.0788853
7.0687545
7.0567999
7.0525993
7.0470035
7.0470134
7.0457206
7.04758
7.0507134
7.056081
7.0630994
7.0725034
7.0844964
7.0996315
7.1186282
7.1422995
7.171721
7.2083295
7.2541728
7.3116627
7.384142
7.4762803
7.5956007
7.7551662
7.9795709
8.3227729
8.9338093
21.672504
10.268219
10.090197
9.6800179
9.2651261
9.0206089
8.7190121
8.5277799
8.2245502
8.073714
7.892423
7.8109321
7.6546596
7.5681474
7.4805703
7.3981352
7.3282849
7.2686243
7.2087905
7.1555668
7.120391
7.0928768
7.0679376
7.0588911
7.0457238
7.0406718
7.0336914
7.0326438
7.0308596
7.0321393
7.0343963
7.0388976
7.0450889
7.0535212
7.0644796
7.0784887
7.0962444
7.1185198
7.1464208
7.1813133
7.2252614
7.2806134
7.3507306
7.4401243
7.5560983
7.7114918
7.9305677
8.2661296
8.8681274
22.568917
10.484352
10.092466
9.6470258
9.3043577
9.033196
8.7804479
8.5779582
8.2905117
8.1141855
7.9289866
7.8368537
7.6659682
7.5883947
7.4796216
7.3986628
7.3320489
7.2658326
7.2117386
7.1528039
7.1124749
7.0842747
7.058008
7.0494174
7.0335667
7.0281087
7.0202765
7.0185162
7.0164154
7.0167964
7.0183132
7.0220754
7.0274544
7.0349214
7.0449438
7.0578799
7.0744417
7.0954018
7.121884
7.1551688
7.1973442
7.2506938
7.3186008
7.4054215
7.5182608
7.6697825
7.883931
23.340299
10.674289
10.143651
9.6586707
9.4040256
9.1064558
8.8242424
8.6037348
8.3125199
8.1351563
7.9642719
7.8524357
7.6839362
7.5854169
7.4819041
7.4089189
7.3346816
7.2671233
7.2082686
7.1467052
7.1036396
7.0764473
7.0489919
7.038452
7.0212696
7.0154676
7.0071443
7.0046258
7.0019606
7.0015959
7.0025836
7.0055943
7.0101374
7.0167234
7.0258839
7.0377657
7.0531947
7.0729257
7.0980676
7.1298517
7.1703667
7.2218445
7.2876813
7.3720956
7.4820026
7.6299319
24.063088
11.023237
10.23798
9.698761
9.462516
9.1252764
8.8485243
8.6080373
8.3214542
8.1551536
7.985892
7.8563303
7.6958723
7.5848235
7.4968784
7.4188614
7.3343019
7.2687098
7.1998714
7.1398689
7.0974032
7.0670237
7.0392923
7.0263891
7.0099145
7.0030215
6.9945021
6.9908689
6.9874605
6.9869292
6.9871163
6.9893412
6.9931446
6.9989557
7.0072502
7.0181325
7.0324906
7.051075
7.0749437
7.1053302
7.1442881
7.194014
7.2579105
7.3400723
7.4472474
24.839214
11.119521
10.210674
9.6955324
9.4724097
9.1339241
8.8777015
8.6158313
8.3342645
8.1764845
7.9983437
7.859939
7.7074073
7.5931928
7.5075229
7.4171439
7.3371646
7.2675072
7.1916826
7.1363884
7.0899208
7.0553772
7.0295558
7.0148587
6.9987252
6.9910082
6.982169
6.9772572
6.9733565
6.9726644
6.9717074
6.9733186
6.9764551
6.9815308
6.9889951
6.9989281
7.0122835
7.029796
7.0524584
7.081546
7.1190443
7.1671438
7.2292279
7.3092761
25.848263
11.40796
10.236471
9.6787571
9.5142195
9.1492622
8.9019418
8.6288936
8.3658734
8.2047005
8.0150543
7.8672306
7.7211011
7.6024182
7.5068374
7.4202462
7.3407175
7.2622814
7.192081
7.1314601
7.0795787
7.0452873
7.0201834
7.0034043
6.9869969
6.9796414
6.9695746
6.9638926
6.9597256
6.9579718
6.9564091
6.9575525
6.9599134
6.9643251
6.9710443
6.9800647
6.9924982
7.0090014
7.0305345
7.0584197
7.0945519
7.1411501
7.2015473
26.543811
11.294123
10.14828
9.6685993
9.5472852
9.1366586
8.9127765
8.6468065
8.4168932
8.2325841
8.0358976
7.8763366
7.7323298
7.607644
7.5144729
7.4271498
7.3405371
7.2605041
7.1904871
7.1220696
7.071276
7.0379456
7.0096738
6.9916125
6.9752031
6.9682413
6.9564866
6.9509261
6.9457425
6.9428883
6.9414224
6.9419096
6.9434689
6.9473214
6.953338
6.961521
6.973109
6.9886592
7.0091489
7.0359206
7.0707793
7.1159884
28.149941
12.278927
10.226877
9.6480539
9.5155698
9.1042137
8.9210811
8.6686014
8.4599819
8.2533566
8.0624691
7.8907263
7.7451847
7.6193909
7.5307941
7.4326736
7.3445867
7.2606944
7.1835449
7.115413
7.0663189
7.0302808
6.9984229
6.9803592
6.9634215
6.956036
6.9432956
6.937671
6.9314169
6.9279295
6.9266434
6.9262906
6.9272196
6.9305251
6.9358574
6.9433142
6.9541133
6.9687759
6.9883055
7.0140401
7.0477201
28.086186
12.172411
10.184579
9.6360417
9.466242
9.0994995
8.9357839
8.6755688
8.4786841
8.2742293
8.095678
7.9120226
7.764277
7.638422
7.5472563
7.4414106
7.3540412
7.2612996
7.1814286
7.1137573
7.0596396
7.0219498
6.9881556
6.9697019
6.9510983
6.9432296
6.9301884
6.9236184
6.9171
6.9134303
6.9116247
6.9106905
6.9111849
6.9138685
6.9185601
6.9253903
6.9354479
6.9493011
6.9679449
6.9927176
28.941841
13.497715
10.233441
9.5872134
9.4369577
9.1070344
8.9608652
8.6843524
8.5002763
8.3020119
8.1297871
7.9401371
7.7884677
7.6578167
7.5606696
7.4527566
7.3587299
7.2688669
7.1815935
7.1094836
7.0513741
7.0140588
6.9787939
6.9588294
6.9385066
6.9304309
6.9169068
6.9091517
6.9031505
6.899013
6.8963854
6.8951559
6.8952824
6.8973192
6.9014185
6.9076751
6.917054
6.9301769
6.9480064
29.162702
13.419136
10.174858
9.53833
9.4205976
9.1171825
8.9776726
8.7008781
8.5360667
8.3341206
8.1629008
7.977404
7.8187646
7.6776096
7.5710637
7.4613604
7.3649597
7.2731798
7.1786774
7.1027899
7.0446949
7.0053054
6.9692006
6.9474132
6.9262726
6.9177872
6.9036265
6.8948518
6.8894537
6.8845093
6.8811817
6.879704
6.8794825
6.8809201
6.8844683
6.8901729
6.8989361
6.9114055
30.09303
14.237691
10.208775
9.5120285
9.4343432
9.1405335
8.9958278
8.7338756
8.5779741
8.3644042
8.1918787
8.0118732
7.8439695
7.6896477
7.5775558
7.4693056
7.3723822
7.2673266
7.1736901
7.0990002
7.0381529
6.9948252
6.9590692
6.9353101
6.9143734
6.9051014
6.8906024
6.8810398
6.8755841
6.8699748
6.866178
6.8643098
6.8637787
6.8647031
6.8677287
6.8729087
6.8811081
30.434975
14.063963
10.156086
9.5140961
9.4757951
9.1559066
9.0308063
8.7650623
8.6117645
8.3936514
8.2207558
8.0388958
7.869842
7.7056368
7.5886922
7.4831572
7.3721395
7.257732
7.1734684
7.0961394
7.0305177
6.9845001
6.9485458
6.9225756
6.9024496
6.8922796
6.8776879
6.8674794
6.8613902
6.8553858
6.8512944
6.8489365
6.8481052
6.8486021
6.8511391
6.8558346
31.294799
14.765017
10.232315
9.5021091
9.5469514
9.1798766
9.075217
8.7874291
8.6281706
8.4168166
8.2414408
8.0540517
7.8861057
7.7202037
7.6065026
7.49402
7.3724068
7.2592056
7.1741193
7.0919611
7.0232867
6.9746057
6.9374081
6.9098288
6.8902586
6.8792503
6.864542
6.8538314
6.8468586
6.8406753
6.8363813
6.8335461
6.8323966
6.8325344
6.8346363
6.8388936
31.625413
14.529528
10.16849
9.49889
9.5385611
9.1991633
9.0926379
8.8045913
8.6485984
8.4437509
8.2701505
8.0779811
7.912785
7.7429159
7.6219297
7.4927802
7.3754891
7.2706619
7.1736262
7.0865821
7.0169916
6.9645157
6.9259667
6.8975834
6.8776561
6.8658741
6.8509399
6.8398911
6.8321348
6.8258324
6.8213774
6.8181306
6.8166434
6.8164759
6.8182094
32.253781
15.108815
10.210643
9.4713028
9.5330592
9.2157034
9.0908452
8.8213868
8.6665634
8.4653114
8.296446
8.0991296
7.9248407
7.7527249
7.6314421
7.4950945
7.384965
7.2820177
7.1731521
7.0822175
7.0104348
6.9539164
6.9150209
6.8862749
6.8648475
6.8522444
6.8369056
6.8254679
6.8173238
6.8108815
6.8062237
6.8026599
6.8008471
6.8004041
32.773207
14.940696
10.121628
9.4608783
9.5049011
9.2407486
9.1021925
8.8477366
8.69782
8.4932992
8.3265253
8.120886
7.9437144
7.7653839
7.630932
7.4991844
7.4009136
7.2850961
7.1726911
7.0782496
7.0007527
6.943303
6.9041848
6.8750717
6.8518443
6.8384515
6.8226009
6.8106469
6.8024523
6.7957746
6.7908424
6.7870517
6.7849628
33.284464
15.830152
10.264291
9.4335596
9.5267514
9.2873532
9.1380039
8.8930936
8.7287598
8.5174079
8.3375981
8.1272459
7.9489734
7.7760009
7.6406765
7.5133729
7.4026559
7.2807298
7.1719939
7.0746373
6.9899022
6.9337924
6.8931833
6.8632291
6.8384242
6.8241704
6.8079531
6.7955223
6.7874211
6.780474
6.7751946
33.819497
15.802592
10.192126
9.4847063
9.5286673
9.3650907
9.2220781
8.963189
8.7757314
8.5523361
8.3562666
8.1473152
7.9747473
7.7996374
7.6562547
7.5327395
7.4117456
7.2832044
7.1697099
7.0691248
6.9814292
6.925555
6.8823339
6.8509805
6.8249135
6.8093371
6.7929705
6.7801939
6.7720151
6.7648401
33.700652
17.236722
10.488403
9.4653031
9.5401482
9.4244179
9.2687569
9.0243633
8.8156893
8.5857153
8.3792592
8.1754202
7.9966653
7.8240309
7.679762
7.5441113
7.4133108
7.2842965
7.1668796
7.0648021
6.9759517
6.9164422
6.8703918
6.838184
6.8110876
6.7938364
6.7775278
6.7645928
6.7560803
34.164308
20.110446
11.067811
9.5886401
9.5257689
9.4622391
9.3261585
9.1019623
8.8826083
8.6491713
8.4392513
8.2358057
8.0474536
7.8657885
7.701847
7.5521169
7.4168333
7.2890055
7.1691806
7.0666294
6.9778764
6.9094708
6.8592417
6.8261898
6.7978786
6.7784529
6.7618337
19.044272
20.415477
22.358841
17.771291
18.524026
19.115367
19.336721
19.922353
20.235924
10.214149
10.357845
10.466762
10.500709
10.724381
10.955199
9.1385993
9.2209335
9.3223002
9.4274226
9.525985
9.6013418
9.1248324
9.1987905
9.2859013
9.377848
9.4694598
9.5397587
9.1577779
9.2344703
9.3077636
9.3736784
9.4259111
9.4742422
9.0750757
9.1544078
9.218016
9.2611252
9.2921485
9.3305975
8.9185232
8.9935872
9.0517591
9.0815026
9.0963472
9.1185048
8.7903365
8.8442517
8.8704184
8.8835145
8.897869
8.5744657
8.6276303
8.6540402
8.6654899
8.6714061
8.3552347
8.4070251
8.4365519
8.4514009
8.4590655
8.1546464
8.1950421
8.2180454
8.237958
8.2429861
7.9588765
7.9864249
8.0104346
8.0325158
8.0452862
7.7788659
7.8021435
7.8206928
7.8356878
7.8524955
7.613409
7.6321536
7.6551159
7.6782983
7.6897502
7.492168
7.5100835
7.5262768
7.5383056
7.3544328
7.3748048
7.3900796
7.4020947
7.2223295
7.241688
7.2567677
7.2727831
7.1203157
7.1356922
7.1521422
7.0166357
7.0366598
7.0540896
6.9342927
6.9536993
6.9685936
6.8811936
6.8954704
6.8314758
6.8448473
6.7992703
6.8122113
6.7832326
6.7625516
)
;

boundaryField
{
    Side
    {
        type            empty;
    }
    Inlet
    {
        type            turbulentIntensityKineticEnergyInlet;
        intensity       0.03;
        value           nonuniform List<scalar> 9(12.046355 12.046407 12.046767 12.047173 12.046632 12.045442 12.044539 12.043331 12.041146);
    }
    Airfoil
    {
        type            kqRWallFunction;
        value           nonuniform List<scalar> 
33
(
13.261345
13.755688
14.319109
14.924466
15.50697
16.102583
16.81165
17.473316
18.295927
19.090507
19.868857
20.722359
21.672504
22.568917
23.340299
24.063088
24.839214
25.848263
26.543811
28.149941
28.086186
28.941841
29.162702
30.09303
30.434975
31.294799
31.625413
32.253781
32.773207
33.284464
33.819497
33.700652
34.164308
)
;
    }
    Outlet
    {
        type            inletOutlet;
        inletValue      nonuniform List<scalar> 0();
        value           nonuniform List<scalar> 0();
    }
    procBoundary1to0
    {
        type            processor;
        value           nonuniform List<scalar> 
53
(
12.781087
10.880398
9.4847713
9.3456256
8.7587266
8.7587266
8.567051
8.2256835
8.2396803
7.9927077
7.7636507
7.6717435
7.5791271
7.5153504
7.5153504
7.4487204
7.3954026
7.3473267
7.3018949
7.2635596
7.2314777
7.2074687
7.1914407
7.1798766
7.166604
7.166604
7.1662745
7.1645109
7.1677848
7.1728028
7.1803247
7.1891044
7.1997195
7.212938
7.2275742
7.2455786
7.2665673
7.2655151
7.2655151
7.2926286
7.3250297
7.3633477
7.4091732
7.4642528
7.5304173
7.6107952
7.7093477
7.8321091
7.9884544
8.1948247
8.4798582
8.9070566
9.6307403
)
;
    }
    procBoundary1to2
    {
        type            processor;
        value           nonuniform List<scalar> 
75
(
8.2124579
8.805767
8.2124579
7.8395313
7.8395313
7.59187
7.59187
7.4139182
7.4139182
7.2796055
7.2796055
7.1748196
7.1748196
7.0916336
7.0916336
7.0252946
7.0252946
6.9718728
6.9718728
6.928469
6.928469
6.8929744
6.8929744
6.8635072
6.8635072
6.8460711
6.8220664
6.8220664
6.801837
6.801837
6.7842665
6.7712422
6.7842665
6.7689263
6.7712422
6.7592377
6.7592377
6.7487217
6.7486756
6.7487217
6.7395761
6.7486756
6.7456243
17.937987
17.192585
10.088468
9.053985
9.0415899
9.0718254
8.9867891
8.8390231
8.7235063
8.7235063
8.5174828
8.3123087
8.1182392
7.934709
7.7574152
7.5966235
7.4708613
7.4708613
7.3336712
7.2025656
7.1026741
7.1026741
6.9974878
6.9134934
6.8643034
6.8643034
6.816553
6.7857196
6.7698006
6.7698006
6.7478339
6.7456243
)
;
    }
    procBoundary1to8
    {
        type            processor;
        value           nonuniform List<scalar> 8(30.87607 19.120556 20.812036 24.692163 22.570508 24.692163 27.478596 30.87607);
    }
}


// ************************************************************************* //
