/*--------------------------------*- C++ -*----------------------------------*\
| =========                 |                                                 |
| \\      /  F ield         | OpenFOAM: The Open Source CFD Toolbox           |
|  \\    /   O peration     | Version:  2506                                  |
|   \\  /    A nd           | Website:  www.openfoam.com                      |
|    \\/     M anipulation  |                                                 |
\*---------------------------------------------------------------------------*/
FoamFile
{
    version     2.0;
    format      ascii;
    arch        "LSB;label=32;scalar=64";
    class       volScalarField;
    location    "0.7";
    object      omega;
}
// * * * * * * * * * * * * * * * * * * * * * * * * * * * * * * * * * * * * * //

dimensions      [0 0 -1 0 0 0 0];

internalField   nonuniform List<scalar> 
1376
(
41.561892
38.096125
33.636466
29.919677
40.786385
37.347234
32.987265
29.382463
26.7706
24.943104
23.668287
22.779985
22.167736
21.755499
40.040967
36.63261
32.367596
28.869121
26.34556
24.585112
23.360873
22.511465
21.929557
21.540967
21.291348
21.139854
21.056348
21.018091
21.006635
39.317681
35.94843
31.777706
28.382152
25.943417
24.24672
23.069789
22.256052
21.701519
21.334091
21.100742
20.96159
20.887101
20.854824
20.846289
20.848127
20.866858
20.895409
20.929246
38.607655
35.28676
31.213504
27.920155
25.56426
23.928834
22.796346
22.015136
21.484837
21.135779
20.91649
20.788075
20.721486
20.694328
20.688
20.692413
20.71384
20.743555
20.778173
20.816773
20.858813
20.903998
20.952202
37.90457
34.638797
30.667989
27.477867
25.204041
23.628474
22.53855
21.78757
21.278995
20.945895
20.738635
20.619407
20.559568
20.536639
20.532033
20.53931
20.562951
20.593686
20.629
20.668095
20.710487
20.755928
20.804329
20.855703
20.91015
20.967855
21.029089
37.207084
33.997934
30.133294
27.04746
24.855469
23.33931
22.291379
21.569752
21.081679
20.763129
20.566526
20.455293
20.401205
20.381754
20.378577
20.388799
20.414252
20.445884
20.481802
20.521306
20.563968
20.609584
20.658097
20.709551
20.764064
20.821828
20.883097
20.9482
21.017539
21.091577
36.519454
33.362416
29.603517
26.621026
24.510084
23.053316
22.047933
21.356308
20.889119
20.585109
20.398827
20.295042
20.246071
20.229596
20.227693
20.240808
20.267722
20.300122
20.336558
20.376395
20.419256
20.464976
20.513538
20.565008
20.619519
20.677267
20.738508
20.803567
20.872836
20.946771
21.025908
21.110868
21.2024
35.849905
32.735957
29.076814
26.193284
24.160994
22.763248
21.801501
21.141659
20.697146
20.409037
20.23383
20.137678
20.09364
20.07996
20.079256
20.095204
20.123278
20.156322
20.193188
20.233291
20.276296
20.322069
20.370619
20.422043
20.476497
20.534175
20.595329
20.660273
20.7294
20.803169
20.882102
20.966817
21.058041
21.156649
21.263683
35.207456
32.126148
28.556217
25.763686
23.805416
22.465115
21.547745
20.921803
20.502518
20.232571
20.069996
19.98227
19.943433
19.932436
19.933112
19.951814
19.980785
20.014346
20.051552
20.091861
20.134967
20.180757
20.229267
20.280612
20.334957
20.39251
20.453521
20.518299
20.587224
20.660751
20.73941
20.823816
20.914699
21.012903
21.11945
21.235571
21.362698
21.502505
34.598982
31.54173
28.048672
25.33696
23.446081
22.159955
21.286464
20.695833
20.304099
20.054653
19.906488
19.828241
19.795026
19.786484
19.789263
19.810434
19.84009
19.874058
19.911521
19.951971
19.995134
20.040924
20.089379
20.140623
20.194834
20.252222
20.313045
20.377607
20.446282
20.519518
20.597848
20.681883
20.772341
20.870067
20.976082
21.091577
21.217973
21.356939
21.510534
21.681433
34.02758
30.990239
27.563281
24.922177
23.091048
21.854194
21.022242
20.466653
20.103484
19.875992
19.743506
19.675528
19.648161
19.64191
19.647619
19.670858
19.701054
19.735344
19.772996
19.813538
19.856724
19.902481
19.950859
20.001986
20.056044
20.113248
20.173853
20.238164
20.306552
20.379458
20.457405
20.541007
20.630986
20.728187
20.833611
20.948426
21.074021
21.212048
21.364536
21.534121
21.724333
21.939887
33.492354
30.475653
27.107854
24.529373
22.750968
21.557728
20.763261
20.240307
19.904654
19.698906
19.582207
19.524553
19.502885
19.498811
19.508066
19.532945
19.563599
19.598151
19.635936
19.676523
19.719693
19.765387
19.813662
19.864649
19.918529
19.975521
20.035885
20.099925
20.168003
20.240556
20.318099
20.401241
20.4907
20.587332
20.692109
20.806172
20.930887
21.067883
21.219144
21.387276
21.575751
21.789165
22.032944
32.989589
29.99792
26.686509
24.165805
22.434913
21.280053
20.518167
20.023716
19.712501
19.526437
19.424229
19.376033
19.359518
19.357485
19.370484
19.396616
19.427685
19.462464
19.500343
19.540935
19.58405
19.62965
19.677792
19.728609
19.78228
19.83903
19.899121
19.962862
20.030617
20.10281
20.179943
20.262616
20.351541
20.447554
20.55163
20.664898
20.788681
20.924573
21.074501
21.241013
21.427576
21.63868
21.879515
22.155136
22.46929
32.514067
29.553057
26.298019
23.833003
22.146632
21.0263
20.292455
19.82181
19.530811
19.361089
19.270979
19.230667
19.218524
19.218219
19.234777
19.261854
19.29331
19.32829
19.366237
19.406804
19.449833
19.495302
19.543276
19.59389
19.647325
19.703804
19.763592
19.827005
19.89441
19.966232
20.04296
20.125165
20.213544
20.308926
20.41227
20.524696
20.64749
20.782197
20.930722
21.09553
21.280012
21.4886
21.726326
21.997863
22.306628
22.662487
32.060227
29.134339
25.93644
23.526556
21.883477
20.795505
20.086466
19.635658
19.360801
19.203851
19.123129
19.088926
19.079806
19.081462
19.10089
19.128695
19.1605
19.19565
19.233635
19.27415
19.317066
19.362376
19.410153
19.460535
19.513704
19.569886
19.62935
19.692412
19.759443
19.830861
19.907155
19.988892
20.076739
20.171499
20.274115
20.385676
20.507445
20.640926
20.787989
20.951016
21.133282
21.339191
21.573632
21.840953
22.144198
22.493592
22.957375
24.011581
31.622973
28.734066
25.593279
23.238322
21.63829
20.581927
19.896071
19.462638
19.201018
19.054023
18.980398
18.95067
18.943486
18.947253
18.968795
18.997168
19.029278
19.064567
19.102563
19.142996
19.185768
19.230888
19.278443
19.32857
19.381453
19.437317
19.496433
19.559117
19.625738
19.696722
19.77256
19.853804
19.941108
20.035245
20.137129
20.247819
20.368548
20.500788
20.646356
20.807583
20.987615
21.190749
21.42177
21.684711
21.982313
22.325252
22.784971
23.856366
31.191172
31.198005
28.345323
25.260324
22.959734
21.402772
20.378107
19.715131
19.298181
19.048405
18.909778
18.841796
18.815412
18.809548
18.81543
18.838496
18.867307
18.899664
18.935047
18.973016
19.013337
19.055937
19.100844
19.148149
19.197994
19.250565
19.306088
19.364832
19.427111
19.493299
19.563821
19.639154
19.719861
19.80658
19.900064
20.001198
20.111006
20.230678
20.361651
20.505727
20.665179
20.843054
21.043455
21.27101
21.529463
21.8213
22.157715
22.613189
23.703407
31.366689
30.7818
27.96291
24.931482
22.684196
21.170187
20.177618
19.538003
19.137784
18.89973
18.769038
18.706122
18.682541
18.677756
18.685787
18.709973
18.739121
18.771655
18.807073
18.844969
18.885142
18.927538
18.972198
19.019225
19.068765
19.121003
19.176162
19.234507
19.296356
19.36208
19.4321
19.50689
19.586997
19.67306
19.765823
19.866143
19.975013
20.093602
20.223298
20.365879
20.523614
20.699468
20.897275
21.121392
21.375304
21.661296
21.991054
22.442227
23.551614
31.398977
30.371684
27.583987
24.603941
22.408543
20.936969
19.976734
19.361158
18.978438
18.752699
18.630244
18.57242
18.551541
18.547817
18.558115
18.583154
18.612556
18.6452
18.680592
18.718361
18.758339
18.800493
18.844877
18.891598
18.940806
18.992685
19.047456
19.105383
19.166779
19.232005
19.301476
19.375667
19.455116
19.540443
19.632384
19.73179
19.839637
19.95707
20.085465
20.226574
20.382654
20.556591
20.752
20.972811
21.222182
21.502349
21.82546
22.272217
23.399463
31.340936
29.965753
27.207445
24.277615
22.132792
20.702805
19.774751
19.183632
18.819117
18.606403
18.492695
18.440208
18.42212
18.419536
18.43224
18.45793
18.487514
18.520206
18.555515
18.593104
18.632838
18.674708
18.71878
18.765168
18.81402
18.865519
18.919883
18.977373
19.038288
19.102985
19.171873
19.245409
19.324128
19.408636
19.499654
19.59802
19.704724
19.820909
19.947945
20.08757
20.242022
20.41414
20.60731
20.824993
21.06993
21.344353
21.660956
22.103357
23.249802
31.411083
29.563062
26.8334
23.954164
21.859111
20.469722
19.573272
19.006524
18.660462
18.461134
18.356463
18.309445
18.294223
18.292858
18.30802
18.334186
18.363885
18.396564
18.431739
18.469106
18.508556
18.550105
18.593831
18.639857
18.688331
18.73943
18.79337
18.850401
18.910816
18.974958
19.043227
19.116065
19.193985
19.277591
19.367577
19.464797
19.570247
19.685081
19.810675
19.948773
20.101601
20.27192
20.462895
20.677625
20.918283
21.187061
21.497387
21.935725
23.103841
31.656128
29.163997
26.463031
23.635946
21.590413
20.240664
19.374923
18.831932
18.503967
18.317827
18.22203
18.180351
18.168
18.167791
18.185352
18.211834
18.241582
18.274185
18.309177
18.346284
18.385424
18.426625
18.46998
18.515619
18.563694
18.614379
18.667878
18.724436
18.784334
18.847899
18.915512
18.987609
19.064685
19.147322
19.23622
19.332207
19.436294
19.549674
19.673748
19.810277
19.961441
20.12994
20.318734
20.530557
20.767112
21.030318
21.334458
21.76906
22.96074
31.6717
28.770306
26.098367
23.325281
21.329244
20.018219
19.182099
18.661855
18.351122
18.177449
18.089966
18.053258
18.043307
18.04457
18.064159
18.090822
18.120554
18.153023
18.187784
18.224601
18.263409
18.304245
18.347212
18.392445
18.440102
18.490356
18.543402
18.59947
18.658831
18.721799
18.788736
18.86006
18.936259
19.017905
19.105676
19.200405
19.303079
19.414933
19.537423
19.672314
19.821782
19.988402
20.17494
20.383826
20.616341
20.874077
21.172059
21.603148
22.820067
31.677297
28.384576
25.741683
23.023737
21.07697
19.803746
18.996101
18.497419
18.20278
18.04056
17.960594
17.928273
17.920174
17.923225
17.944356
17.971099
18.000766
18.033056
18.067555
18.104061
18.142524
18.18299
18.22556
18.270374
18.317595
18.367397
18.419969
18.475528
18.534332
18.596678
18.662914
18.733448
18.808754
18.889398
18.976048
19.069522
19.17082
19.281136
19.401984
19.535199
19.682905
19.847577
20.031792
20.237597
20.465983
20.718302
21.010229
21.438303
22.684389
31.91394
28.009446
25.395136
22.732058
20.83378
19.597334
18.817042
18.338746
18.059036
17.90721
17.833907
17.805318
17.798648
17.803638
17.825862
17.852621
17.882189
17.914273
17.948492
17.984675
18.022788
18.062879
18.10505
18.149438
18.196205
18.24553
18.297602
18.352627
18.410846
18.472544
18.538059
18.607785
18.682189
18.761831
18.84738
18.939644
19.039603
19.148464
19.267715
19.399186
19.545068
19.707727
19.889479
20.092083
20.316154
20.562955
20.848976
21.27471
22.554164
31.995968
27.646735
25.060281
22.450307
20.599053
19.3982
18.644185
18.185224
17.919419
17.777061
17.709668
17.684243
17.678732
17.685672
17.708636
17.735368
17.764821
17.796687
17.830621
17.866475
17.904231
17.943943
17.98571
18.029663
18.075956
18.124768
18.176295
18.230744
18.288347
18.349368
18.414131
18.483024
18.556512
18.63516
18.719624
18.81071
18.909398
19.01687
19.134587
19.264379
19.408415
19.568951
19.748119
19.947331
20.166861
20.408028
20.688304
21.112608
22.430042
32.107172
27.296782
24.737521
22.177977
20.371828
19.205285
18.476548
18.036028
17.783296
17.649668
17.587578
17.564885
17.560375
17.569207
17.59265
17.619327
17.648657
17.680311
17.713964
17.749491
17.786882
17.826198
17.867541
17.911036
17.956832
18.005103
18.056036
18.109851
18.166782
18.227082
18.291059
18.359091
18.431639
18.509265
18.592641
18.682574
18.780022
18.886158
19.00243
19.130628
19.272851
19.431235
19.607674
19.803263
20.018084
20.25351
20.528195
20.951843
22.313478
32.440642
26.95841
24.425818
21.913825
20.150809
19.017361
18.313046
17.89027
17.649998
17.52457
17.467348
17.447101
17.443517
17.45417
17.477905
17.504503
17.533699
17.565135
17.598509
17.633707
17.670726
17.709633
17.750527
17.793532
17.838792
17.886478
17.93678
17.989911
18.04611
18.105631
18.168767
18.235884
18.307443
18.384009
18.466267
18.555024
18.651238
18.75607
18.870954
18.997619
19.138059
19.294276
19.467929
19.659803
19.869731
20.09935
20.368657
20.792529
22.202511
32.679639
18.152948
17.747361
17.519093
17.401476
17.348808
17.330819
17.328123
17.340523
17.364408
17.390905
17.419946
17.451154
17.48424
17.519096
17.555727
17.594198
17.63461
17.677088
17.721777
17.768842
17.818467
17.870864
17.926269
17.984942
18.047174
18.113325
18.183843
18.259298
18.340381
18.427907
18.522843
18.626357
18.739856
18.865002
19.003678
19.157711
19.328521
19.516608
19.721616
19.94547
20.209691
20.63478
22.094523
32.743597
17.214208
17.228267
17.252189
17.278555
17.307411
17.338362
17.371136
17.405632
17.441854
17.479865
17.519768
17.561689
17.60577
17.65217
17.701071
17.752681
17.807235
17.864998
17.926277
17.991413
18.060846
18.135139
18.214987
18.301215
18.394811
18.496938
18.608985
18.732555
18.8694
19.021174
19.189085
19.373374
19.57353
19.791801
20.051327
20.478526
21.990059
32.892098
17.226719
17.259154
17.293268
17.329061
17.366592
17.405966
17.447305
17.490753
17.536467
17.584617
17.635399
17.689046
17.745848
17.806121
17.870218
17.938558
18.011673
18.090246
18.175126
18.2673
18.367934
18.478412
18.600296
18.735188
18.884574
19.049471
19.229922
19.425328
19.638284
19.893604
20.323889
21.892038
33.168444
17.254317
17.293148
17.333896
17.3767
17.421713
17.469104
17.519069
17.571842
17.627696
17.686942
17.749962
17.817188
17.889134
17.966455
18.049964
18.140641
18.239678
18.348465
18.468497
18.601261
18.748069
18.909752
19.08623
19.27691
19.484799
19.736444
20.171095
21.802422
33.441123
17.354596
17.403764
17.455672
17.510591
17.568858
17.630849
17.697005
17.767829
17.843928
17.926076
18.015232
18.112602
18.219579
18.337596
18.468019
18.61203
18.770295
18.942621
19.128454
19.331378
19.579835
20.020349
21.720576
33.628392
17.452052
17.513075
17.578204
17.647933
17.722866
17.803722
17.891431
17.987147
18.092207
18.208035
18.335907
18.476899
18.631536
18.799512
18.980351
19.178288
19.423871
19.871683
21.645884
33.869349
17.603401
17.683013
17.76931
17.863369
17.966496
18.080079
18.205293
18.343099
18.493891
18.657273
18.832915
19.025764
19.268513
19.724887
21.587682
34.159214
17.741122
17.842343
17.953655
18.076166
18.210711
18.357542
18.51615
18.686383
18.874026
19.114056
19.580432
21.536634
34.453761
17.948215
18.079503
18.222321
18.376079
18.54081
18.723177
18.960637
19.438563
21.49083
34.662365
18.236766
18.396048
18.573237
18.808481
19.299599
21.453015
34.855813
18.657915
19.164466
21.428779
35.116318
21.409691
35.402969
41.481535
)
;

boundaryField
{
    Side
    {
        type            empty;
    }
    Inlet
    {
        type            fixedValue;
        value           uniform 60.24606;
    }
    Airfoil
    {
        type            omegaWallFunction;
        blending        binomial;
        n               2;
        value           nonuniform List<scalar> 0();
    }
    Outlet
    {
        type            inletOutlet;
        inletValue      nonuniform List<scalar> 0();
        value           nonuniform List<scalar> 0();
    }
    procBoundary12to4
    {
        type            processor;
        value           uniform 42.260145;
    }
    procBoundary12to5
    {
        type            processor;
        value           nonuniform List<scalar> 
30
(
40.729987
39.995723
39.27185
38.555344
37.847428
37.152955
36.478679
35.831084
35.21465
34.63089
34.078378
33.553607
33.052179
32.569802
32.103049
31.649439
31.207288
30.775532
30.353518
29.941099
29.538733
29.147121
28.766909
28.39849
28.041522
27.69474
27.356133
27.023571
37.923494
40.729987
)
;
    }
    procBoundary12to6
    {
        type            processor;
        value           uniform 26.629661;
    }
    procBoundary12to11
    {
        type            processor;
        value           nonuniform List<scalar> 
65
(
42.371842
38.877709
34.311227
30.475997
27.215057
27.215057
25.317022
23.988674
23.058899
22.414118
21.976481
21.487722
21.487722
21.322551
21.229091
21.184175
21.168946
21.006431
21.006431
21.021987
21.049205
21.082183
20.967283
20.967283
21.008903
21.053768
21.101713
21.00342
21.00342
21.05774
21.115345
21.176493
21.09418
21.09418
21.163532
21.237624
21.170868
21.170868
21.256036
21.347831
21.301388
21.301388
21.408864
21.380384
21.380384
21.508162
21.648722
21.657098
21.657098
21.82922
21.873263
21.873263
22.090818
22.18646
22.18646
22.312585
22.312585
22.632071
22.83149
22.83149
23.130629
23.130629
24.169266
31.106248
31.106248
)
;
    }
    procBoundary12to13
    {
        type            processor;
        value           nonuniform List<scalar> 
60
(
24.123468
21.656629
19.93502
18.833575
18.833575
17.995906
17.607027
17.390384
17.28026
17.231892
17.216034
17.216034
17.10179
17.117383
17.141236
17.167427
17.196056
17.196056
17.116181
17.148236
17.181936
17.217276
17.217276
17.143014
17.1813
17.221457
17.26362
17.307942
17.307942
17.24114
17.289544
17.340637
17.394699
17.394699
17.336593
17.396721
17.460894
17.529595
17.529595
17.485428
17.563814
17.648697
17.648697
17.620043
17.719344
17.828385
17.828385
17.820856
17.948934
18.087809
18.087809
18.097739
18.251787
18.424175
18.424175
18.509111
19.033647
19.033647
21.398169
35.707699
)
;
    }
}


// ************************************************************************* //
