/*--------------------------------*- C++ -*----------------------------------*\
| =========                 |                                                 |
| \\      /  F ield         | OpenFOAM: The Open Source CFD Toolbox           |
|  \\    /   O peration     | Version:  2506                                  |
|   \\  /    A nd           | Website:  www.openfoam.com                      |
|    \\/     M anipulation  |                                                 |
\*---------------------------------------------------------------------------*/
FoamFile
{
    version     2.0;
    format      ascii;
    arch        "LSB;label=32;scalar=64";
    class       volVectorField;
    location    "0.3";
    object      U;
}
// * * * * * * * * * * * * * * * * * * * * * * * * * * * * * * * * * * * * * //

dimensions      [0 1 -1 0 0 0 0];

internalField   nonuniform List<vector> 
1376
(
(89.281325 0.01197975 0)
(89.262915 -0.0053427352 0)
(89.439506 -0.0012970664 0)
(89.609011 0.0036377571 -1.0972585e-18)
(89.77556 0.0051144303 1.0448288e-18)
(89.944867 0.0048219484 0)
(90.117503 -0.0012467421 0)
(90.285045 -0.0023829579 0)
(90.434877 -0.0014224296 0)
(90.576359 -0.0030919993 0)
(90.698398 -0.0043781333 0)
(90.230642 -0.016126782 0)
(90.308968 -0.01070442 0)
(90.386941 -0.0042701037 0)
(90.474398 -0.0030559714 0)
(90.57786 -0.0036478484 0)
(90.69386 -0.0095338342 0)
(90.807352 -0.009448525 0)
(90.90427 -0.0077486371 0)
(91.005874 -0.0092189852 0)
(91.07256 -0.0099595922 0)
(91.6138 -0.01578867 0)
(91.599687 -0.011259533 -9.8861201e-19)
(91.578497 -0.0067376326 1.8761894e-18)
(91.579312 -0.0067390575 -3.7918835e-23)
(91.593855 -0.0083716283 -8.5102243e-19)
(91.625726 -0.014183833 0)
(91.660887 -0.013675155 -7.7602674e-19)
(91.684011 -0.012146348 7.384278e-19)
(91.726312 -0.012786901 0)
(91.711522 -0.014003707 0)
(92.723011 -0.012241211 0)
(92.686878 -0.0065423006 0)
(92.63652 -0.0013492704 0)
(92.585863 -0.003380314 0)
(92.551598 -0.0066484909 -7.9402037e-19)
(92.530958 -0.014146961 1.5114497e-18)
(92.511925 -0.012746472 -1.4370305e-18)
(92.482237 -0.01163155 6.8495326e-19)
(92.466411 -0.011903823 3.2577423e-19)
(92.406923 -0.015729391 -3.0979535e-19)
(93.326575 -0.0080646176 0)
(93.308148 -0.0011587497 -1.6964071e-18)
(93.275508 0.0042515344 1.6165304e-18)
(93.233358 0.001813897 0)
(93.195261 -0.002504464 7.3498841e-19)
(93.164179 -0.010468492 -1.3997989e-18)
(93.13318 -0.0091644843 6.6606861e-19)
(93.09278 -0.0086777922 6.3462009e-19)
(93.059343 -0.008023087 -3.0197819e-19)
(92.983043 -0.015501717 -3.6282632e-24)
(93.59433 -0.0058515128 -1.6372192e-18)
(93.593031 0.00071977939 0)
(93.582967 0.007773193 0)
(93.562852 0.0057267604 1.4269761e-18)
(93.540546 0.001043915 -6.3022754e-23)
(93.520478 -0.0074774515 -1.296919e-18)
(93.499178 -0.0057502038 0)
(93.469721 -0.0054482294 5.8801395e-19)
(93.441084 -0.004182296 -7.4164949e-24)
(93.377655 -0.014020339 -5.3262961e-19)
(93.703813 -0.0060093867 1.5295912e-18)
(93.712772 0.0029486762 0)
(93.714415 0.0098874966 1.3884733e-18)
(93.711917 0.0081137293 -1.3167652e-18)
(93.705638 0.0033392342 1.259472e-18)
(93.698634 -0.0050273888 -1.2012986e-18)
(93.68983 -0.0034624745 0)
(93.674593 -0.0030992378 0)
(93.656689 -0.001167941 0)
(93.614334 -0.012389191 0)
(93.745032 -0.00575691 2.8381126e-18)
(93.7577 0.0024420457 -1.3540727e-18)
(93.76766 0.011335684 1.290799e-18)
(93.774734 0.0088843387 0)
(93.778787 0.004304375 1.1719918e-18)
(93.781547 -0.0045143459 -1.11885e-18)
(93.781688 -0.0016770487 0)
(93.77719 -0.0015362479 0)
(93.768767 0.00099887822 0)
(93.744665 -0.011021367 0)
(93.757727 -0.0060058914 0)
(93.770435 0.0027787105 -2.5094835e-18)
(93.783963 0.010774797 8.4722277e-23)
(93.797211 0.0090808619 2.2791504e-18)
(93.807664 0.004586639 -1.0860588e-18)
(93.815684 -0.0037153963 1.0345494e-18)
(93.822268 -0.0011548087 0)
(93.824351 -0.0006044056 -9.3653256e-19)
(93.822246 0.0020390509 4.4441202e-19)
(93.810958 -0.0097512856 5.6352854e-24)
(93.757504 -0.0065085898 -2.4445465e-18)
(93.7692 0.0022368829 2.3268949e-18)
(93.783994 0.010452309 0)
(93.800608 0.0085641688 0)
(93.814761 0.0041737017 0)
(93.82586 -0.0038437215 0)
(93.835388 -0.00095842247 9.1447356e-19)
(93.841948 -0.00058163694 -1.5418194e-23)
(93.844789 0.0025571707 -8.276403e-19)
(93.840307 -0.0088636288 -3.9331614e-19)
(93.751096 -0.006810836 0)
(93.76206 0.0019147852 0)
(93.777163 0.0097579069 0)
(93.795369 0.0076193527 0)
(93.811515 0.003464128 1.8692906e-18)
(93.824248 -0.0042625249 -1.7810612e-18)
(93.835318 -0.00110348 0)
(93.844233 -0.00070405319 -8.0878847e-19)
(93.8499 0.0026782836 7.6771664e-19)
(93.849641 -0.0086638605 -3.6497214e-19)
(93.729314 -0.016879078 -2.2095328e-18)
(93.741728 -0.0069266075 6.3800473e-23)
(93.752769 0.0015726939 4.0058236e-18)
(93.768106 0.0088484226 -1.9074006e-18)
(93.786898 0.0064036592 1.8191909e-18)
(93.803926 0.0024001318 -3.4698742e-18)
(93.817416 -0.0047052763 1.6531707e-18)
(93.8292 -0.0016618897 0)
(93.839249 -0.001059297 0)
(93.84569 0.0025987562 0)
(93.849377 -0.0081265926 0)
(93.71809 -0.018034193 4.1004382e-18)
(93.731128 -0.0073022737 0)
(93.743322 0.0010101483 3.7180778e-18)
(93.759352 0.0077649693 -3.5417532e-18)
(93.778199 0.0049858636 -1.6888791e-18)
(93.795318 0.0012081056 1.6106343e-18)
(93.809075 -0.0053213205 -1.5347463e-18)
(93.821115 -0.0022940597 1.4622788e-18)
(93.831528 -0.0014858755 6.9700629e-19)
(93.838479 0.0016869208 -6.6420422e-19)
(93.844266 -0.007463018 6.324041e-19)
(93.707122 -0.019569021 0)
(93.720863 -0.0079812497 0)
(93.73507 0.00016691296 0)
(93.752347 0.0065475562 0)
(93.770976 0.0034677901 0)
(93.787685 -9.1207892e-05 0)
(93.801472 -0.0059756573 0)
(93.813536 -0.0031005953 0)
(93.823818 -0.0019235624 1.294648e-18)
(93.830941 0.0007665049 -1.2335014e-18)
(93.837688 -0.0074089642 0)
(93.699434 -0.02088359 0)
(93.713249 -0.0090880346 0)
(93.729286 -0.0013301045 0)
(93.747879 0.0050388897 0)
(93.766213 0.0018777042 0)
(93.782372 -0.0014016339 0)
(93.796127 -0.0066619336 0)
(93.808068 -0.0039800772 0)
(93.817913 -0.0024065912 0)
(93.824939 -0.00013917572 0)
(93.831893 -0.0075379724 5.4555831e-19)
(93.697611 -0.02176197 6.551916e-18)
(93.711408 -0.010422686 -3.1223054e-18)
(93.728118 -0.0031506307 0)
(93.746998 0.0033180913 0)
(93.764712 0.00015963832 2.7068176e-18)
(93.780436 -0.0027970949 -1.0813637e-22)
(93.794201 -0.0074188106 -8.516637e-23)
(93.805809 -0.0048546136 -2.3447132e-18)
(93.814927 -0.0028758471 1.1175639e-18)
(93.82171 -0.0010753226 -1.0647003e-18)
(93.82845 -0.0079388383 5.0694648e-19)
(93.702657 -0.022446968 -6.0848581e-18)
(93.71659 -0.012233566 5.8012318e-18)
(93.733028 -0.0051127557 0)
(93.750975 0.0016851569 0)
(93.767525 -0.001466439 2.5147299e-18)
(93.782802 -0.0041419141 -2.3973519e-18)
(93.796467 -0.0082247652 0)
(93.807385 -0.0057365992 -2.1794355e-18)
(93.815524 -0.0033274579 3.1160632e-18)
(93.821978 -0.001921072 -9.8957041e-19)
(93.828289 -0.0084225213 4.7126098e-19)
(93.713836 -0.023850486 0)
(93.727523 -0.01436881 -5.3906547e-18)
(93.743406 -0.0069660106 5.1380528e-18)
(93.760035 -0.00010816132 0)
(93.775074 -0.003141706 0)
(93.789584 -0.0055077584 0)
(93.802713 -0.0090617607 0)
(93.812594 -0.0064343686 0)
(93.819731 -0.0037358124 0)
(93.825898 -0.0025900584 0)
(93.831618 -0.0091654431 0)
(93.727833 -0.025769728 -5.2569786e-18)
(93.740465 -0.016421647 0)
(93.756311 -0.0080071228 4.7740753e-18)
(93.772517 -0.0013293893 -4.5563367e-18)
(93.786486 -0.0045362297 -4.3447485e-18)
(93.799866 -0.0066125264 6.2134663e-18)
(93.811734 -0.0097602241 -3.9515151e-18)
(93.820275 -0.0070134029 1.884258e-18)
(93.826611 -0.0040168102 -1.7954066e-18)
(93.832658 -0.0032907901 8.5561771e-19)
(93.837898 -0.010036741 1.6306109e-18)
(93.741046 -0.028350545 0)
(93.753201 -0.019335585 0)
(93.769228 -0.010024154 0)
(93.785416 -0.0032556524 0)
(93.799064 -0.0060201386 0)
(93.811395 -0.0074284592 0)
(93.82148 -0.010045504 -3.6756655e-18)
(93.828561 -0.0074249546 3.5046756e-18)
(93.834403 -0.0042684486 -1.6695423e-18)
(93.840569 -0.0039890826 1.5918638e-18)
(93.845666 -0.010912908 0)
(93.75083 -0.030880773 0)
(93.763759 -0.020881553 0)
(93.780697 -0.010832787 4.1263584e-18)
(93.796979 -0.0049782115 -7.879899e-18)
(93.810413 -0.0072220158 3.7589274e-18)
(93.821415 -0.0080723279 -3.5854787e-18)
(93.829479 -0.0099036847 3.4200006e-18)
(93.835445 -0.0074580447 0)
(93.841315 -0.0045247892 0)
(93.847867 -0.0049448715 0)
(93.853078 -0.011846813 0)
(93.758654 -0.033674334 0)
(93.772991 -0.023901284 -8.0398077e-18)
(93.790406 -0.012611719 7.6783562e-18)
(93.806254 -0.0084790888 0)
(93.818802 -0.0081050869 -3.4982742e-18)
(93.827941 -0.008138121 3.3375426e-18)
(93.83434 -0.0093691393 0)
(93.839963 -0.0076516927 0)
(93.846437 -0.0049751911 0)
(93.853482 -0.0060904977 0)
(93.858747 -0.012799447 1.3155967e-18)
(93.766043 -0.037611535 7.8380362e-18)
(93.781571 -0.026460006 -7.4809743e-18)
(93.797944 -0.014962158 0)
(93.812197 -0.010303951 6.823112e-18)
(93.823581 -0.0086126267 -6.5124828e-18)
(93.831567 -0.0079936427 -3.1066778e-18)
(93.837425 -0.0083663294 5.9231249e-18)
(93.843222 -0.0078398905 -2.8225737e-18)
(93.850064 -0.005580555 0)
(93.857006 -0.0075644261 0)
(93.862069 -0.013757906 0)
(93.772894 -0.039477165 7.283717e-18)
(93.786745 -0.027985254 -1.6592116e-22)
(93.801427 -0.017804357 -1.8447812e-22)
(93.815054 -0.011592726 -2.077924e-22)
(93.826617 -0.0095045086 -6.0627007e-18)
(93.834937 -0.0077296505 5.7860982e-18)
(93.841027 -0.0077124032 -5.5177446e-18)
(93.846696 -0.0082186554 0)
(93.852833 -0.0063677326 2.5091456e-18)
(93.858739 -0.0089385997 -2.3950688e-18)
(93.86341 -0.014601066 0)
(93.782416 -0.043552971 6.7836228e-18)
(93.793497 -0.030633282 0)
(93.805446 -0.022051995 -6.1913168e-18)
(93.817685 -0.013309162 1.9120401e-22)
(93.828694 -0.011479614 1.8489811e-22)
(93.837364 -0.0076597295 1.0779082e-17)
(93.844023 -0.0067919624 -7.6366465e-23)
(93.849639 -0.0076930562 -4.9053885e-18)
(93.854834 -0.006714858 0)
(93.859531 -0.010335227 0)
(93.863889 -0.015401479 -1.0643973e-18)
(93.784253 -0.059688773 -1.3227618e-17)
(93.791786 -0.040958065 0)
(93.799272 -0.030014693 0)
(93.809153 -0.023061249 0)
(93.820515 -0.013478503 0)
(93.831253 -0.013041704 -5.2604309e-18)
(93.840167 -0.0081357846 5.0238086e-18)
(93.846884 -0.0068003122 0)
(93.852255 -0.0078607493 4.5759925e-18)
(93.856723 -0.0072608378 -4.3670493e-18)
(93.860365 -0.011064928 0)
(93.864302 -0.016300809 0)
(93.793699 -0.056567378 1.2316201e-17)
(93.798754 -0.042537818 0)
(93.804912 -0.03396275 1.1243309e-17)
(93.814162 -0.026698474 -1.0740752e-17)
(93.824516 -0.017588939 0)
(93.834943 -0.01480972 0)
(93.843763 -0.0085835973 4.6865531e-18)
(93.849759 -0.0062365129 -8.9491442e-18)
(93.854636 -0.0066898474 4.2698614e-18)
(93.858729 -0.0069246464 4.0771491e-18)
(93.861537 -0.011673697 -3.8895656e-18)
(93.864727 -0.017379001 0)
(93.802749 -0.056638476 0)
(93.806944 -0.042732098 -1.0977991e-17)
(93.813091 -0.034700024 1.0482074e-17)
(93.820887 -0.024007494 -1.0020792e-17)
(93.829409 -0.020573476 9.5745795e-18)
(93.839079 -0.015873777 -9.1499275e-18)
(93.847258 -0.0085389231 8.7492097e-18)
(93.85252 -0.0068213741 4.1777769e-18)
(93.856736 -0.0070602752 -3.9867161e-18)
(93.860481 -0.0070544741 0)
(93.862816 -0.011635294 1.8171792e-18)
(93.86541 -0.018510449 -1.7314076e-18)
(93.811081 -0.054033857 1.0677675e-17)
(93.815502 -0.0451542 -1.0212071e-17)
(93.822045 -0.033996199 0)
(93.828007 -0.029314411 0)
(93.833972 -0.024378047 0)
(93.841471 -0.018530662 0)
(93.849125 -0.0088217332 0)
(93.855583 -0.005817134 0)
(93.860828 -0.0048766908 0)
(93.863779 -0.0071093224 0)
(93.864147 -0.012168091 0)
(93.865485 -0.018273571 0)
(93.821896 -0.056958618 -1.988429e-17)
(93.825098 -0.047081917 1.9036122e-17)
(93.830698 -0.036206326 0)
(93.836191 -0.029707988 -8.7415589e-18)
(93.841039 -0.0238628 8.348705e-18)
(93.847492 -0.018598845 0)
(93.853872 -0.010241666 -7.6331403e-18)
(93.858458 -0.0084104928 7.2933621e-18)
(93.86298 -0.0061303508 6.9740996e-18)
(93.865037 -0.0071470648 -6.6358685e-18)
(93.864809 -0.01053772 3.153689e-18)
(93.865765 -0.02010186 -3.0171766e-18)
(93.832481 -0.051109667 0)
(93.834351 -0.048227444 0)
(93.838423 -0.041135688 0)
(93.84176 -0.029368003 0)
(93.846289 -0.029565029 0)
(93.853817 -0.021590279 0)
(93.858697 -0.0089894389 0)
(93.861171 -0.0062058453 0)
(93.864535 -0.0038847321 -6.527592e-18)
(93.865622 -0.0061774179 6.2165873e-18)
(93.865475 -0.0092432207 0)
(93.866492 -0.019738328 0)
(93.841518 -0.059470368 0)
(93.842598 -0.054090371 0)
(93.846068 -0.053152126 0)
(93.852221 -0.036481075 -1.5980606e-17)
(93.85467 -0.037997726 1.532198e-17)
(93.856352 -0.031271525 1.4609238e-17)
(93.858757 -0.016158679 -2.7977594e-17)
(93.859702 -0.0095318285 1.3366483e-17)
(93.861616 -0.008615529 0)
(93.865238 -0.004410616 0)
(93.866494 -0.006346112 0)
(93.867085 -0.0092471085 0)
(93.868176 -0.02097522 -2.6586061e-18)
(93.856425 -0.061523098 0)
(93.856732 -0.058884968 -1.6131352e-17)
(93.859562 -0.057758868 1.5529236e-17)
(93.863048 -0.044748405 -1.4932179e-17)
(93.866589 -0.034157428 1.7507809e-22)
(93.866498 -0.027514102 1.414384e-22)
(93.8643 -0.015675412 1.3046835e-17)
(93.862889 -0.0092746419 -1.2478176e-17)
(93.864109 -0.0086042395 1.1920484e-17)
(93.865643 -0.0035503663 0)
(93.865818 -0.0059331495 -5.4809552e-18)
(93.866727 -0.0074516444 8.9822529e-25)
(93.868992 -0.019482924 4.9944704e-18)
(93.874484 -0.064334222 -1.5866224e-17)
(93.875602 -0.062736793 1.5073534e-17)
(93.875487 -0.059296262 -1.4451891e-17)
(93.872863 -0.044842615 1.3963004e-17)
(93.872018 -0.041206211 -1.3439469e-17)
(93.871315 -0.021455109 1.2794223e-17)
(93.868781 -0.0093105144 0)
(93.867867 -0.0072523196 0)
(93.86792 -0.0073874963 1.1144408e-17)
(93.867807 -0.00402265 -1.0667797e-17)
(93.868033 -0.0057467166 0)
(93.869291 -0.010620616 -4.9042468e-18)
(93.871869 -0.020901254 4.6990926e-18)
(93.893339 -0.066911997 0)
(93.889914 -0.080917614 0)
(93.888345 -0.058016763 0)
(93.889833 -0.051798969 -2.7064319e-17)
(93.887096 -0.049668218 2.6025159e-17)
(93.879849 -0.032917969 0)
(93.875872 -0.014414883 0)
(93.875545 -0.011926962 -1.1519445e-17)
(93.876227 -0.0083913833 1.0934931e-17)
(93.874315 -0.0083024158 -1.0502007e-17)
(93.869573 -0.0051504683 1.0117595e-17)
(93.86749 -0.0047430956 4.8306723e-18)
(93.870327 -0.0095993643 -4.6123417e-18)
(93.875098 -0.018222336 0)
(93.90836 -0.067448037 0)
(93.906887 -0.065499576 -2.765533e-17)
(93.901288 -0.080228108 2.6750343e-17)
(93.898427 -0.047958294 2.5814393e-17)
(93.897476 -0.029102161 -4.9204896e-17)
(93.892454 -0.028313915 4.7033462e-17)
(93.887004 -0.014625767 -2.2721442e-17)
(93.886564 -0.0098292521 1.0850682e-17)
(93.884612 -0.0076477347 -1.0332736e-17)
(93.87975 -0.0041945116 -9.9246938e-18)
(93.87336 0.0023610374 9.549013e-18)
(93.871621 -0.0080985526 0)
(93.873983 -0.013803238 4.3480627e-18)
(93.878148 -0.024119195 -8.3584307e-18)
(93.923943 -0.070432541 2.7229581e-17)
(93.917983 -0.071327468 0)
(93.911832 -0.057637775 0)
(93.906575 -0.047796159 -2.4255169e-17)
(93.905944 -0.031259769 2.321286e-17)
(93.904785 -0.024370048 0)
(93.902133 -0.017246688 -2.122914e-17)
(93.898355 -0.012126393 4.0768572e-17)
(93.893285 -0.0052330166 -1.9547522e-17)
(93.88653 -0.0019495177 0)
(93.879516 -0.0046379892 0)
(93.874907 -0.0069778731 -8.6479037e-18)
(93.87388 -0.013672136 1.2364953e-17)
(93.876226 -0.019801676 -3.9332929e-18)
(93.942023 -0.066823985 0)
(93.939262 -0.061631381 2.5560484e-17)
(93.933246 -0.045508426 -4.9021224e-17)
(93.923088 -0.064464898 2.3680022e-17)
(93.920098 -0.037536596 0)
(93.919921 -0.029379693 0)
(93.916556 -0.02309369 0)
(93.911058 -0.015817297 2.0046743e-17)
(93.905546 -0.0075888355 -3.8510606e-17)
(93.899515 -0.00050962301 -4.9974562e-22)
(93.892805 0.0048840639 -5.526835e-22)
(93.885292 0.0030745733 1.6995875e-17)
(93.877906 -0.0024596497 0)
(93.87361 -0.010528351 0)
(93.874601 -0.022391224 0)
(93.944701 -0.079470873 -7.3259904e-22)
(93.943553 -0.048215977 4.8325392e-17)
(93.942008 -0.049398044 0)
(93.936798 -0.053932611 0)
(93.931068 -0.040535878 0)
(93.929308 -0.025591998 0)
(93.925768 -0.021518702 0)
(93.919108 -0.015425176 0)
(93.911324 -0.011005593 -1.818745e-17)
(93.902229 -0.0050268503 1.7469319e-17)
(93.893049 -0.0001289203 0)
(93.885953 -0.0003392045 -1.6126798e-17)
(93.880986 -0.0016294081 7.7512363e-18)
(93.879518 -0.0061855569 -1.4531309e-22)
(93.881459 -0.014656405 7.0736363e-18)
(93.961208 -0.054585506 0)
(93.954162 -0.04850751 0)
(93.947595 -0.039176657 4.5443327e-17)
(93.944704 -0.041560048 7.0743969e-22)
(93.940763 -0.038563589 -4.1845654e-17)
(93.934802 -0.036090376 0)
(93.930848 -0.020586164 0)
(93.927307 -0.016232395 0)
(93.921502 -0.01225211 0)
(93.913633 -0.0030482119 -1.7214463e-17)
(93.903767 0.0010169753 3.3106436e-17)
(93.893 0.0074206053 -1.592386e-17)
(93.884578 0.0076550659 0)
(93.880114 -0.00072996034 0)
(93.880999 -0.0098799846 7.0024494e-18)
(93.884382 -0.015803152 -6.7515044e-18)
(93.963122 -0.055516848 -4.7588048e-17)
(93.960539 -0.05228091 0)
(93.958044 -0.046012069 0)
(93.955393 -0.0414971 4.2649311e-17)
(93.951999 -0.036696711 -4.1038441e-17)
(93.946938 -0.043749975 -3.9564656e-17)
(93.941958 -0.0360983 3.8181552e-17)
(93.938193 -0.028197859 3.6727359e-17)
(93.933399 -0.026184491 -3.5271263e-17)
(93.925671 -0.021157393 0)
(93.916092 -0.011409698 -3.2716515e-17)
(93.906957 -0.0032165603 4.7243288e-17)
(93.898397 -0.00057412752 6.8643193e-22)
(93.890387 -0.001163816 5.8246174e-22)
(93.884986 -0.0070921811 -2.8101519e-17)
(93.883639 -0.012415337 1.3430176e-17)
(93.884495 -0.015177997 0)
(93.952338 -0.042944819 3.8183982e-22)
(93.948967 -0.037533279 -4.3360851e-17)
(93.946738 -0.030807256 -4.1978573e-17)
(93.94576 -0.02820009 4.0402225e-17)
(93.944632 -0.028035707 0)
(93.942414 -0.030499379 0)
(93.938438 -0.028143321 0)
(93.933624 -0.022145712 0)
(93.927782 -0.01519314 -3.3515484e-17)
(93.919558 -0.0084571273 3.2301175e-17)
(93.910427 -0.0020919199 0)
(93.903016 0.0011873552 3.0042962e-17)
(93.897072 0.0025634284 -2.8919781e-17)
(93.891869 0.00088118406 -1.3925293e-17)
(93.888238 -0.0020217991 1.3427079e-17)
(93.88691 -0.0051231594 0)
(93.888986 -0.010281578 0)
(93.950904 -0.041724267 8.7149999e-17)
(93.947373 -0.036491007 7.6086667e-22)
(93.943127 -0.040626936 -8.1764206e-17)
(93.940112 -0.044441149 7.9238633e-17)
(93.938477 -0.049566448 -7.6386658e-17)
(93.936592 -0.051981266 -3.6736553e-17)
(93.933432 -0.049672847 3.5471424e-17)
(93.92965 -0.042325488 0)
(93.925237 -0.032607482 0)
(93.919496 -0.025915237 -3.1958089e-17)
(93.914467 -0.023550327 3.0889567e-17)
(93.910984 -0.023245062 -2.9774992e-17)
(93.907184 -0.021990826 -1.2863773e-21)
(93.902051 -0.021514235 2.7631937e-17)
(93.896339 -0.022288978 0)
(93.891274 -0.020382694 0)
(93.888277 -0.020113418 0)
(93.888408 -0.023657914 0)
(93.957718 -0.024944679 8.523894e-17)
(93.95504 -0.027634287 -8.2457925e-17)
(93.952171 -0.028740363 7.9737848e-17)
(93.94901 -0.033835648 0)
(93.945026 -0.040008745 7.4668903e-17)
(93.941088 -0.038183667 -7.2353034e-17)
(93.937783 -0.033907213 -6.9901644e-17)
(93.933323 -0.030921986 6.750132e-17)
(93.927684 -0.03330849 0)
(93.924842 -0.015594399 0)
(93.923138 -0.029143264 0)
(93.920692 -0.032156687 0)
(93.918019 -0.028937531 0)
(93.915442 -0.021764399 0)
(93.91155 -0.016725308 0)
(93.905786 -0.0094775219 0)
(93.900239 -0.0036808002 0)
(93.898573 -0.0043800956 -1.1924883e-17)
(93.90038 -0.0066300766 1.1474866e-17)
(93.982861 -0.041677806 -8.2522484e-17)
(93.979071 -0.041681596 0)
(93.975799 -0.042651463 0)
(93.972668 -0.04728635 -7.5414036e-17)
(93.968989 -0.046868409 7.304733e-17)
(93.964567 -0.051332901 0)
(93.959724 -0.051931949 0)
(93.955467 -0.053447245 6.6666056e-17)
(93.951873 -0.053874722 -6.4492967e-17)
(93.947362 -0.056800867 0)
(93.941813 -0.062203524 0)
(93.936653 -0.065253934 0)
(93.930896 -0.062265672 5.6629413e-17)
(93.923438 -0.056468634 -5.4820076e-17)
(93.915848 -0.046115008 0)
(93.909863 -0.037547993 0)
(93.904896 -0.032215284 0)
(93.901559 -0.032811663 0)
(93.90227 -0.028836817 0)
(93.904941 -0.031990875 0)
(94.037993 -0.0056950006 1.118455e-21)
(94.035655 -0.0078250266 1.0745895e-21)
(94.03338 -0.012327236 -1.5562044e-16)
(94.030321 -0.018530641 7.5544074e-17)
(94.026489 -0.023005928 0)
(94.022596 -0.02759053 -7.1491294e-17)
(94.018588 -0.033601076 1.3888434e-16)
(94.014412 -0.036606547 6.4570924e-23)
(94.010526 -0.036021312 -6.5555892e-17)
(94.006974 -0.035081373 -6.3594762e-17)
(94.002961 -0.03588368 1.2329368e-16)
(93.997753 -0.034882436 -1.1962716e-16)
(93.991379 -0.033357991 5.8058718e-17)
(93.983804 -0.028161306 0)
(93.975435 -0.025398915 0)
(93.967309 -0.020919411 0)
(93.960061 -0.020506886 -2.5750251e-17)
(93.954513 -0.018219772 4.9977874e-17)
(93.951155 -0.021239947 -2.4246441e-17)
(93.949534 -0.019213526 -2.3520305e-17)
(93.948975 -0.012883189 3.4087239e-17)
(93.948211 -0.015471736 -2.1899001e-17)
(94.098462 -0.050334943 -2.49854e-21)
(94.096328 -0.056514785 1.5532803e-16)
(94.094714 -0.060071778 0)
(94.093796 -0.063386349 0)
(94.093606 -0.064994367 0)
(94.093495 -0.065021325 0)
(94.092602 -0.062378334 0)
(94.09025 -0.06198408 0)
(94.087035 -0.054309753 0)
(94.083978 -0.04723556 0)
(94.080672 -0.048662912 0)
(94.076774 -0.045680439 -5.9219426e-17)
(94.071894 -0.046740077 -1.1410817e-21)
(94.066181 -0.051061096 5.6070156e-17)
(94.060062 -0.055454906 0)
(94.053187 -0.06140821 0)
(94.04564 -0.064899595 5.1593494e-17)
(94.039073 -0.064592733 -5.0227369e-17)
(94.03454 -0.062921181 -4.8807413e-17)
(94.030544 -0.057945759 2.3680608e-17)
(94.026639 -0.053898223 2.2987906e-17)
(94.022419 -0.039024876 0)
(94.016638 -0.049112818 -1.0834065e-17)
(94.109913 -0.0076711621 -1.5588479e-16)
(94.106537 -0.011894603 1.5064604e-16)
(94.099524 -0.014763263 -1.4990212e-16)
(94.098355 -0.018846241 7.1833136e-22)
(94.100608 -0.023162212 1.4059551e-16)
(94.10397 -0.026040189 0)
(94.108935 -0.025960013 0)
(94.11051 -0.020985969 0)
(94.115163 -0.017485962 -1.286e-16)
(94.120989 -0.015885034 1.2498234e-16)
(94.119833 -0.011868616 0)
(94.116211 -0.010225672 0)
(94.108242 -0.011971129 0)
(94.10256 -0.014283301 1.1483295e-16)
(94.098643 -0.022892164 -1.6635525e-16)
(94.103632 -0.028156073 5.4138119e-17)
(94.106312 -0.036394567 0)
(94.096722 -0.035030541 -5.1403264e-17)
(94.087698 -0.034023777 5.0663344e-17)
(94.083956 -0.031587195 0)
(94.081097 -0.027004267 4.7952652e-17)
(94.076386 -0.02189484 -4.6886457e-17)
(94.075592 -0.016022278 0)
(94.07353 -0.014633405 0)
(94.068815 -0.015366094 0)
(94.675491 -0.063396011 0)
(94.679468 -0.080211062 0)
(94.688308 -0.01119822 -1.4612002e-16)
(94.694963 -0.041626689 2.8263425e-21)
(94.684962 -0.07721317 1.385212e-16)
(94.669536 -0.0060298953 1.3811382e-16)
(94.666442 -0.047558465 -2.4108109e-21)
(94.670225 -0.039350116 -2.5976425e-16)
(94.677652 -0.038106884 1.2876887e-16)
(94.6827 -0.014684396 0)
(94.677037 -0.06773319 -1.2120919e-16)
(94.678931 -0.071619794 -4.1053514e-22)
(94.680199 -0.040748569 2.3491332e-16)
(94.673923 -0.13637936 -1.1443164e-16)
(94.660433 -0.059638866 1.1291974e-16)
(94.6422 -0.0087011207 -1.1110083e-16)
(94.628999 -0.052552679 -1.0939661e-16)
(94.625652 -0.10757673 1.0596507e-16)
(94.631877 -0.020760726 0)
(94.633626 -0.12746168 -5.068865e-17)
(94.623392 -0.10069846 9.8712187e-17)
(94.609293 -0.067487757 -4.8700661e-17)
(94.596113 -0.13588066 0)
(94.587213 -0.13628137 4.6701881e-17)
(94.577396 -0.11650237 -4.5569755e-17)
(94.56463 -0.0090030791 0)
(94.557431 -0.06734993 2.1718983e-17)
(90.840011 -0.0075851728 0)
(91.21766 -0.014150066 1.1427318e-17)
(91.845563 -0.018289768 3.3352829e-19)
(92.514676 -0.019486058 -9.9685928e-18)
(93.055387 -0.018450927 -8.7945134e-24)
(93.421127 -0.016406759 1.7372895e-17)
(93.639308 -0.014467602 -1.6469538e-17)
(93.758856 -0.013061202 0)
(93.8191 -0.01220705 4.417044e-19)
(93.845413 -0.01172742 4.1200529e-19)
(93.853666 -0.011701365 1.9274568e-19)
(93.85364 -0.012004686 -1.8049501e-19)
(93.84876 -0.012486801 -6.7414647e-19)
(93.843076 -0.012989904 -2.0154958e-17)
(93.838557 -0.013512552 1.8233007e-17)
(93.836473 -0.014020022 -5.6784563e-19)
(93.837154 -0.014663843 -3.3477076e-17)
(93.841212 -0.015295683 3.0829259e-17)
(93.847644 -0.015901189 -1.0133653e-18)
(93.854989 -0.016545716 -2.7167966e-17)
(93.861526 -0.017102691 2.5414061e-17)
(93.866127 -0.017626104 -1.8432438e-18)
(93.86863 -0.018140555 -2.2082492e-17)
(93.869702 -0.018775592 2.0675708e-17)
(93.870297 -0.019910066 1.209898e-18)
(93.870679 -0.02117902 0)
(93.870767 -0.02248599 5.3127039e-19)
(93.871019 -0.024229076 9.9504067e-19)
(93.8707 -0.024627816 0)
(93.870701 -0.025831937 0)
(93.871373 -0.025845154 0)
(93.872868 -0.027312427 3.0998297e-18)
(93.87468 -0.026883533 -1.4601828e-18)
(93.877678 -0.02847028 -9.627723e-18)
(93.881588 -0.026700935 1.0382629e-17)
(93.883508 -0.027140069 4.9000155e-18)
(93.881413 -0.021125248 9.2428919e-18)
(93.880075 -0.027678255 -2.182974e-18)
(93.886346 -0.024737571 -8.2927211e-18)
(93.88899 -0.025360857 0)
(93.886629 -0.024744843 0)
(93.892649 -0.018959966 0)
(93.890453 -0.027226072 0)
(93.902852 -0.011817752 6.5605108e-18)
(93.908664 -0.033151119 1.577753e-18)
(93.949657 -0.012121233 1.0666007e-17)
(94.011769 -0.035358496 2.3602223e-17)
(94.072871 -0.016603616 3.5874578e-19)
(94.561025 -0.061482067 -3.40163e-17)
(90.987855 -0.0078565401 0)
(91.371054 -0.015367892 0)
(91.992476 -0.019729247 -3.1497152e-19)
(92.634844 -0.020830437 0)
(93.141865 -0.019758253 -2.7692543e-19)
(93.478197 -0.017874119 -1.0377392e-18)
(93.676261 -0.016089821 -7.2891206e-19)
(93.78331 -0.0147566 -9.099733e-19)
(93.836244 -0.013961532 0)
(93.858759 -0.013548767 -7.9684897e-19)
(93.865155 -0.013421114 -2.372676e-17)
(93.864348 -0.0136783 2.259689e-17)
(93.859428 -0.014000459 -2.0978017e-17)
(93.854376 -0.014548363 1.963908e-17)
(93.850898 -0.015199434 1.8954237e-17)
(93.849696 -0.015679854 -5.1696919e-17)
(93.851221 -0.016885162 3.2297817e-17)
(93.855814 -0.017598541 0)
(93.862235 -0.018439706 -2.8668203e-17)
(93.869026 -0.019257083 2.6326066e-17)
(93.874703 -0.020003665 -5.8234038e-19)
(93.878514 -0.020785998 -2.2544702e-17)
(93.880633 -0.021551213 4.3609978e-17)
(93.881786 -0.022698162 -2.0752395e-17)
(93.882562 -0.023981132 -2.9910044e-19)
(93.882869 -0.025294008 0)
(93.882617 -0.026974851 -1.7651947e-17)
(93.882432 -0.029304379 3.0528924e-17)
(93.882013 -0.03062825 -1.4838693e-17)
(93.881808 -0.032346181 0)
(93.882348 -0.033081699 0)
(93.883159 -0.034510344 -1.2342687e-17)
(93.884958 -0.03412044 1.2710156e-17)
(93.887533 -0.035856751 -1.2312081e-17)
(93.890381 -0.034638698 1.0319474e-17)
(93.890746 -0.038121157 0)
(93.890064 -0.033123785 1.1512247e-18)
(93.89028 -0.037515159 2.1793078e-18)
(93.893419 -0.035490144 0)
(93.894347 -0.033464181 3.9208038e-18)
(93.891572 -0.031588782 -3.7218961e-18)
(93.897424 -0.026512189 0)
(93.89342 -0.030833791 3.3960668e-18)
(93.904595 -0.01345879 -3.2608889e-18)
(93.91103 -0.028476381 1.5706819e-18)
(93.949829 -0.013939262 -3.0240427e-18)
(94.008311 -0.039825886 -1.0187351e-17)
(94.073254 -0.017419923 -5.6949564e-18)
(94.561393 -0.048761473 1.1152978e-17)
(91.140833 -0.0061498804 0)
(91.526109 -0.015846632 -1.2658081e-18)
(92.138308 -0.020077254 1.073462e-17)
(92.753166 -0.020809986 -8.983233e-18)
(93.228404 -0.019511896 0)
(93.538292 -0.017539382 -1.4895102e-17)
(93.718641 -0.0157449 4.5715576e-17)
(93.814976 -0.014494313 -2.7160875e-17)
(93.861726 -0.01382276 0)
(93.880804 -0.013544005 7.7168889e-19)
(93.885614 -0.013509471 2.1758251e-17)
(93.884001 -0.013801634 -2.044197e-17)
(93.879151 -0.014145553 2.0446205e-17)
(93.8747 -0.01464395 6.0800569e-24)
(93.87213 -0.015282777 -1.8538842e-17)
(93.871566 -0.015861967 -3.3769469e-17)
(93.874085 -0.017019411 3.1713945e-17)
(93.879141 -0.017780841 0)
(93.885493 -0.01888716 4.3563029e-19)
(93.891733 -0.019988996 4.0844928e-19)
(93.896695 -0.021125404 3.8298345e-19)
(93.899994 -0.02232161 2.2626487e-17)
(93.901972 -0.023624817 -2.1560183e-17)
(93.903206 -0.024934424 3.1596607e-19)
(93.903966 -0.026557661 -1.866598e-17)
(93.904183 -0.027919392 1.7807046e-17)
(93.903714 -0.029665234 -1.6469819e-17)
(93.903165 -0.031507146 1.2274844e-19)
(93.902479 -0.03316785 1.56744e-17)
(93.901736 -0.035764354 1.3000304e-17)
(93.901537 -0.037515276 -1.303822e-17)
(93.901278 -0.039755837 0)
(93.902278 -0.040103379 3.6126951e-19)
(93.903785 -0.043283709 -1.0888112e-17)
(93.904781 -0.041899672 -6.4178241e-19)
(93.90333 -0.044339705 -2.6000338e-22)
(93.90371 -0.042747426 7.4499169e-18)
(93.904799 -0.046952193 0)
(93.904111 -0.044568425 0)
(93.902794 -0.042025082 -3.9022887e-18)
(93.90021 -0.039576539 3.9410992e-18)
(93.90381 -0.034662878 -1.1052434e-19)
(93.897141 -0.037078744 -3.0423179e-23)
(93.906709 -0.02131023 -6.4688067e-18)
(93.912498 -0.037761719 0)
(93.950777 -0.018912085 0)
(94.009503 -0.050805328 0)
(94.071282 -0.018904972 5.2287903e-18)
(94.554795 -0.031438535 1.7160755e-18)
(91.288684 -0.0019623456 0)
(91.672303 -0.014927881 3.5918563e-18)
(92.272705 -0.018355318 1.1318579e-18)
(92.861202 -0.018531826 2.1385073e-18)
(93.308054 -0.016934392 -1.614595e-17)
(93.595951 -0.014848839 1.3321628e-17)
(93.762288 -0.013086367 0)
(93.850541 -0.011933597 -1.6887717e-18)
(93.892818 -0.011371672 2.5434801e-17)
(93.909536 -0.011229978 4.3872055e-23)
(93.91349 -0.011323852 -2.1129115e-17)
(93.911589 -0.011922016 -1.3262535e-18)
(93.907181 -0.01254007 1.9937276e-17)
(93.903569 -0.01327806 -1.6384749e-17)
(93.901963 -0.013846469 1.9828605e-17)
(93.902335 -0.015289269 -4.7673246e-17)
(93.90606 -0.01626841 6.2258721e-17)
(93.911709 -0.017558568 -5.6634163e-17)
(93.918079 -0.019032956 2.7444527e-17)
(93.923848 -0.020568866 2.5765416e-17)
(93.928167 -0.022192409 -2.4789237e-23)
(93.930934 -0.023902746 -4.3998576e-17)
(93.932526 -0.025363311 2.6648917e-18)
(93.933409 -0.026937214 4.0016229e-17)
(93.933822 -0.028335515 -1.8815638e-17)
(93.933829 -0.030088627 2.2109864e-18)
(93.933309 -0.03134995 0)
(93.932666 -0.033215627 -1.9503811e-18)
(93.931869 -0.03541475 -9.1669484e-19)
(93.930652 -0.038130068 1.4651131e-17)
(93.929405 -0.040718578 -1.296685e-17)
(93.928181 -0.044614632 0)
(93.928 -0.046449294 0)
(93.927205 -0.050276892 0)
(93.926115 -0.0524885 6.39299e-19)
(93.923672 -0.053096919 2.4135742e-18)
(93.923043 -0.052659396 2.8547262e-18)