/*--------------------------------*- C++ -*----------------------------------*\
| =========                 |                                                 |
| \\      /  F ield         | OpenFOAM: The Open Source CFD Toolbox           |
|  \\    /   O peration     | Version:  2506                                  |
|   \\  /    A nd           | Website:  www.openfoam.com                      |
|    \\/     M anipulation  |                                                 |
\*---------------------------------------------------------------------------*/
FoamFile
{
    version     2.0;
    format      ascii;
    arch        "LSB;label=32;scalar=64";
    class       volScalarField;
    location    "0.009";
    object      Ma;
}
// * * * * * * * * * * * * * * * * * * * * * * * * * * * * * * * * * * * * * //

dimensions      [0 0 0 0 0 0 0];

internalField   nonuniform List<scalar> 
13761
(
0.6295946
0.63226877
0.63476804
0.6371016
0.63927835
0.64130727
0.643197
0.64495571
0.64659148
0.6481121
0.64952493
0.65083663
0.65205214
0.65317247
0.65418914
0.65506489
0.65565634
0.65547139
0.65350843
0.64893751
0.6416304
0.63185624
0.62000556
0.60642768
0.59135012
0.57485442
0.55687429
0.53719753
0.51544712
0.49101906
0.46299815
0.43000825
0.38992877
0.33965816
0.27599897
0.20014609
0.11966218
0.040159808
0.59090864
0.59492993
0.59872236
0.60229364
0.60565192
0.60880558
0.61176347
0.61453434
0.61712709
0.61955057
0.62181369
0.62392506
0.62589335
0.62772691
0.62943363
0.63102132
0.63249748
0.63386926
0.6351431
0.63632393
0.63741318
0.63840439
0.63926985
0.63991175
0.63999285
0.63868844
0.63501689
0.62856758
0.61948199
0.60813656
0.59491937
0.58011039
0.56383798
0.54607126
0.52662269
0.50513213
0.48100846
0.4533492
0.42079697
0.38127
0.33176407
0.269305
0.19525775
0.11683926
0.039263621
0.57645542
0.58033721
0.58399783
0.58744476
0.59068589
0.59372931
0.59658358
0.59925718
0.60175871
0.60409676
0.60627995
0.60831659
0.61021508
0.6119835
0.61362947
0.61516055
0.616584
0.61790672
0.61913499
0.62027366
0.62132444
0.62228226
0.62312535
0.62378332
0.62402358
0.62321299
0.62036402
0.61479918
0.6064619
0.59567068
0.58283746
0.56829536
0.55222597
0.53464081
0.51538295
0.49411365
0.47025821
0.44293006
0.41079411
0.37181363
0.32309546
0.26191444
0.18981809
0.1136584
0.038236229
0.56190142
0.56563693
0.56915902
0.57247494
0.57559234
0.57851907
0.58126341
0.58383357
0.58623789
0.58848467
0.59058225
0.59253868
0.59436208
0.59606026
0.59764058
0.59911035
0.60047658
0.60174593
0.60292449
0.60401701
0.60502537
0.60594544
0.60675932
0.6074134
0.60774239
0.607277
0.60512966
0.60044104
0.59290868
0.5827342
0.57032501
0.55606178
0.5401838
0.5227521
0.5036468
0.48255577
0.45892463
0.43188605
0.40013121
0.36167519
0.31375179
0.25391263
0.1838957
0.11016444
0.037093921
0.547292
0.55087726
0.55425697
0.55743817
0.56042828
0.56323493
0.56586614
0.56832986
0.57063415
0.57278706
0.57479663
0.57667065
0.57841695
0.58004308
0.58155612
0.58296312
0.58427083
0.58548568
0.58661352
0.58765898
0.58862401
0.58950514
0.59028706
0.59092674
0.59130156
0.59106569
0.58947875
0.58561552
0.57893025
0.56944572
0.55752044
0.54356696
0.52788294
0.51058536
0.49159851
0.47064282
0.44718884
0.42039245
0.3889755
0.35101284
0.30388256
0.2454401
0.17761069
0.10643979
0.035868691
0.52903155
0.53266832
0.53610155
0.53933721
0.54238214
0.54524356
0.54792883
0.55044573
0.55280194
0.55500527
0.55706345
0.55898428
0.56077524
0.56244387
0.56399745
0.56544278
0.56678665
0.56803555
0.56919562
0.57027251
0.57127069
0.57219211
0.57303377
0.57378215
0.57440111
0.5747952
0.57470525
0.57353889
0.5704065
0.56457752
0.55585404
0.54448859
0.5308958
0.51542522
0.49825409
0.479358
0.45849671
0.43517125
0.40856557
0.37743772
0.3399317
0.29358994
0.23659589
0.17104688
0.10253906
0.034579854
0.51459003
0.51806634
0.52134735
0.52443886
0.52734751
0.53008027
0.53264429
0.53504706
0.537296
0.53939864
0.54136243
0.54319485
0.54490313
0.54649449
0.54797593
0.54935398
0.55063514
0.55182562
0.55293135
0.55395769
0.55490895
0.55578706
0.55658931
0.55730345
0.55789799
0.55829503
0.55829399
0.55742723
0.5549013
0.54989156
0.5419799
0.53125672
0.51809381
0.50287497
0.48583701
0.46701272
0.44620826
0.42296164
0.39649074
0.36559677
0.32850479
0.28294453
0.22745021
0.16426401
0.098501117
0.033241497
0.49669088
0.50019996
0.50351676
0.50664653
0.5095949
0.51236831
0.51497349
0.51741733
0.51970705
0.5218498
0.52385282
0.52572326
0.52746831
0.5290949
0.53060997
0.53202019
0.53333186
0.53455117
0.53568408
0.53673624
0.53771278
0.5386178
0.53945319
0.54021641
0.54089615
0.54146409
0.54185389
0.54190414
0.54124239
0.5391907
0.53491741
0.52783048
0.51782387
0.50517284
0.49026376
0.47338391
0.45462573
0.43384824
0.41063342
0.3842401
0.35352156
0.31679882
0.27201546
0.2180744
0.15732236
0.094364495
0.031867179
0.48254366
0.48588654
0.48904559
0.49202591
0.49483295
0.4974729
0.49995226
0.50227766
0.50445604
0.50649425
0.50839925
0.51017789
0.51183707
0.5133834
0.51482354
0.51616387
0.51741039
0.51856904
0.51964549
0.52064512
0.52157284
0.52243256
0.52322602
0.52395084
0.52459636
0.52513648
0.52551266
0.52558968
0.52506394
0.52336546
0.51971442
0.51341721
0.50417486
0.49211852
0.47759347
0.46091661
0.44223626
0.42146824
0.39824524
0.37187518
0.34127425
0.30487812
0.26087388
0.20854267
0.15028286
0.090167156
0.030470077
0.46513329
0.46849193
0.47167098
0.47467464
0.47750787
0.48017589
0.48268467
0.48504046
0.4872496
0.48931875
0.49125449
0.49306345
0.49475219
0.49632731
0.49779513
0.499162
0.500434
0.50161686
0.50271624
0.50373756
0.50468592
0.50556599
0.50638146
0.50713397
0.50782119
0.5084329
0.50894461
0.50930312
0.50939092
0.50895294
0.50750821
0.50435501
0.4987686
0.49029649
0.47890186
0.46484231
0.44843196
0.42986186
0.40910396
0.38584684
0.35945597
0.32892367
0.29282236
0.24961342
0.19895191
0.14322309
0.085956828
0.029066373
0.44800093
0.45136412
0.45455308
0.45757102
0.46042202
0.46311083
0.46564247
0.46802267
0.4702574
0.47235274
0.47431505
0.4761506
0.47786573
0.47946671
0.48095981
0.48235105
0.48364649
0.48485192
0.48597279
0.48701448
0.48798214
0.48888063
0.48971437
0.49048682
0.49119949
0.49185004
0.49242858
0.49291173
0.49325003
0.49333807
0.49295477
0.49168771
0.48891589
0.48393318
0.47619069
0.46549173
0.45197123
0.43590167
0.41749385
0.39676813
0.37347079
0.3470329
0.31653779
0.28071983
0.23834196
0.18941106
0.13622733
0.081784492
0.027673378
0.43117598
0.43453162
0.43771939
0.4407416
0.44360135
0.44630256
0.44884977
0.4512478
0.45350211
0.45561841
0.45760249
0.45946041
0.46119815
0.46282173
0.46433712
0.46575027
0.46706693
0.46829283
0.46943349
0.47049407
0.47147969
0.47239523
0.47324528
0.47403402
0.47476472
0.4754387
0.47605358
0.47659965
0.47705436
0.4773708
0.47745202
0.47710074
0.47595561
0.47346697
0.46897276
0.46188149
0.45186984
0.43893798
0.42328195
0.40510271
0.38445362
0.36113557
0.33465154
0.30419143
0.26867715
0.22719109
0.18004672
0.12938987
0.07770637
0.026309983
0.41802145
0.42119589
0.42421117
0.42706952
0.42977392
0.43232813
0.43473649
0.4370036
0.43913465
0.44113507
0.44301036
0.44476628
0.44640851
0.44794274
0.44937465
0.45070988
0.45195387
0.45311206
0.45418967
0.4551916
0.45612269
0.45698755
0.45779054
0.45853558
0.45922571
0.4598621
0.46044225
0.46095658
0.46138304
0.46167654
0.461746
0.46141105
0.46034788
0.45806511
0.45395228
0.44741352
0.43804162
0.42571352
0.41052845
0.3926487
0.37213996
0.34884955
0.32235554
0.2919687
0.25681962
0.21631087
0.17099552
0.12280933
0.073780849
0.024995748
0.40186068
0.40500856
0.40800457
0.41085
0.41354702
0.41609854
0.41850814
0.42077998
0.42291844
0.42492846
0.42681517
0.4285838
0.4302398
0.43178851
0.43323535
0.43458566
0.43584477
0.43701782
0.43810994
0.43912606
0.44007082
0.44094878
0.44176428
0.44252145
0.44322394
0.44387459
0.44447436
0.44502064
0.44550386
0.44590229
0.44617205
0.4462262
0.44589644
0.44488663
0.44275129
0.43892911
0.43284143
0.42403541
0.41229099
0.39760859
0.3800919
0.35979847
0.33661063
0.31018138
0.27995238
0.24527384
0.20584573
0.16238099
0.11657297
0.070060014
0.023748313
0.38607727
0.38918479
0.39214842
0.3949685
0.39764636
0.40018412
0.4025846
0.40485127
0.4069881
0.4089993
0.41088956
0.41266378
0.41432691
0.41588409
0.4173404
0.41870092
0.41997069
0.42115474
0.4222579
0.42328499
0.42424066
0.42512925
0.42595505
0.42672216
0.4274344
0.42809523
0.42870722
0.42927112
0.42978419
0.43023676
0.43060727
0.43085259
0.43088863
0.4305558
0.42957854
0.42754704
0.42394286
0.41821379
0.40988896
0.39868103
0.38450413
0.36739635
0.34739272
0.32439962
0.29814248
0.26819755
0.23413032
0.19589318
0.15427845
0.11073176
0.066575381
0.022579134
0.37069885
0.37375255
0.37667083
0.37945315
0.38209993
0.38461246
0.38699285
0.38924382
0.39136873
0.3933714
0.39525587
0.39702664
0.39868837
0.40024578
0.40170377
0.40306714
0.40434072
0.40552928
0.40663756
0.4076701
0.40863146
0.409526
0.41035781
0.41113089
0.4118491
0.412516
0.41313478
0.41370778
0.41423555
0.41471511
0.41513667
0.41547862
0.41569826
0.41571331
0.41537048
0.41440961
0.41244865
0.40900504
0.40355514
0.3956272
0.38489244
0.37119799
0.35452105
0.33486838
0.3121634
0.28620058
0.25668774
0.22338651
0.18644306
0.14666327
0.10526147
0.063312924
0.021484289
0.3557501
0.35873711
0.36159796
0.36433095
0.36693562
0.36941239
0.37176255
0.37398813
0.37609178
0.37807671
0.37994661
0.38170532
0.38335716
0.38490656
0.38635803
0.38771622
0.38898571
0.39017108
0.39127685
0.39230751
0.39326737
0.39416074
0.39499174
0.3957642
0.39648194
0.39714853
0.39776736
0.39834135
0.39887265
0.39936154
0.39980485
0.40019257
0.40050296
0.40069332
0.40068249
0.40032152
0.39936183
0.39744301
0.39411202
0.38887247
0.38126117
0.37092729
0.35767082
0.34141942
0.32215323
0.29980978
0.27424862
0.24530012
0.2128939
0.1773137
0.13933898
0.099988108
0.060150994
0.020415994
0.34125044
0.34415864
0.34695061
0.34962367
0.35217625
0.35460792
0.35691912
0.3591111
0.36118584
0.36314588
0.3649943
0.36673464
0.36837057
0.36990619
0.37134575
0.37269352
0.37395393
0.3751313
0.37623
0.37725429
0.37820843
0.37909649
0.37992253
0.38069045
0.38140387
0.38206636
0.38268131
0.38325187
0.38378077
0.38426991
0.38471937
0.38512571
0.38547867
0.38575617
0.38591526
0.38587514
0.38548972
0.38451902
0.3826196
0.3793627
0.37427688
0.36691257
0.35691062
0.3440415
0.328197
0.30933683
0.28741233
0.26234279
0.23406693
0.20264997
0.16846663
0.1322509
0.094864114
0.057059365
0.019363752
0.32721515
0.3300326
0.33274472
0.33534765
0.33783884
0.34021679
0.34248113
0.34463229
0.34667151
0.34860069
0.35042228
0.35213926
0.35375499
0.355273
0.35669721
0.35803164
0.35928037
0.36044759
0.36153741
0.36255395
0.36350124
0.3643833
0.36520396
0.36596705
0.36667622
0.36733486
0.36794633
0.36851378
0.36904014
0.3695279
0.36997875
0.37039251
0.37076544
0.37108693
0.37133449
0.37146467
0.3713966
0.37098607
0.36999979
0.36810813
0.36490284
0.35993509
0.35277138
0.34305336
0.33053572
0.3150876
0.29665642
0.27520866
0.25071692
0.2232099
0.19285419
0.1600757
0.12555332
0.090023087
0.054135108
0.018367177
0.31637295
0.3189942
0.32151695
0.32393751
0.32625344
0.32846332
0.33056679
0.3325643
0.33445704
0.33624685
0.33793608
0.33952757
0.34102455
0.34243036
0.34374874
0.3449835
0.3461385
0.34721769
0.34822497
0.34916419
0.35003916
0.35085364
0.35161123
0.35231551
0.35296987
0.35357751
0.35414154
0.35466488
0.35515024
0.35559991
0.35601532
0.35639604
0.35673801
0.35703026
0.35724975
0.35735245
0.3572571
0.35682079
0.35581569
0.35392389
0.35075506
0.3458811
0.33888575
0.32941748
0.31722539
0.30216701
0.28418522
0.26326328
0.23941989
0.21275469
0.18350477
0.15211882
0.11921941
0.085444536
0.051366509
0.017422489
0.30319122
0.3057103
0.30814254
0.31048314
0.31272851
0.31487633
0.31692521
0.31887482
0.32072559
0.32247865
0.32413575
0.32569913
0.3271715
0.32855591
0.32985553
0.33107388
0.33221456
0.33328121
0.33427753
0.33520718
0.33607377
0.33688087
0.33763198
0.33833047
0.33897967
0.33958275
0.34014268
0.34066234
0.34114445
0.34159151
0.34200557
0.34238784
0.34273763
0.34305056
0.34331524
0.34350806
0.34358423
0.34346193
0.3429991
0.34197251
0.34007455
0.33693087
0.33213273
0.32528169
0.31603715
0.30415012
0.28947531
0.27195757
0.25159796
0.22845406
0.20267917
0.17455638
0.14453841
0.11319535
0.081088535
0.048729787
0.016521704
0.29049712
0.29290225
0.29523317
0.29748395
0.29964994
0.30172766
0.30371484
0.30561012
0.30741318
0.30912438
0.31074479
0.31227606
0.3137203
0.31508004
0.31635816
0.31755765
0.31868179
0.31973397
0.32071759
0.32163611
0.32249295
0.32329149
0.32403503
0.32472685
0.32537008
0.32596782
0.326523
0.32703839
0.32751666
0.32796032
0.32837165
0.32875252
0.32910389
0.32942481
0.32971059
0.32994935
0.33011687
0.33016752
0.33001871
0.32952896
0.32847902
0.32657054
0.32344383
0.31870841
0.31198399
0.30294374
0.29134609
0.27704947
0.2600057
0.24023391
0.2178238
0.19296763
0.16597609
0.13729453
0.10744568
0.076930013
0.046210961
0.015660572
0.27829959
0.28057812
0.28279623
0.28494672
0.28702381
0.28902294
0.29094071
0.29277489
0.29452414
0.29618807
0.29776699
0.29926188
0.30067424
0.30200604
0.30325965
0.30443774
0.30554309
0.30657878
0.30754795
0.30845376
0.30929946
0.31008819
0.31082312
0.3115073
0.31214379
0.31273548
0.31328525
0.31379581
0.31426973
0.31470947
0.31511735
0.31549546
0.31584544
0.31616807
0.31646212
0.31672254
0.31693698
0.31708053
0.31710662
0.31693183
0.31641499
0.31534046
0.31341843
0.3103029
0.30562089
0.29901044
0.29016044
0.27884066
0.26491802
0.24835468
0.22918743
0.20753189
0.18360755
0.15773933
0.13035847
0.10194567
0.072952023
0.043800704
0.014836241
0.2666073
0.26874563
0.27083845
0.27287734
0.27485524
0.27676649
0.27860659
0.2803722
0.28206108
0.28367186
0.2852041
0.28665801
0.28803444
0.28933477
0.29056078
0.29171465
0.29279885
0.29381596
0.29476881
0.29566033
0.29649343
0.29727113
0.29799633
0.29867196
0.29930086
0.29988585
0.30042959
0.30093476
0.30140387
0.30183927
0.30224325
0.30261793
0.30296521
0.30328656
0.30358252
0.3038516
0.3040884
0.30428005
0.30440091
0.30440343
0.30420322
0.30365934
0.30255952
0.30062198
0.29751377
0.29287883
0.28637362
0.27770413
0.26665414
0.25310228
0.23702321
0.21847032
0.19757974
0.17458893
0.14982771
0.12370958
0.096677781
0.069142456
0.041492343
0.014046695
0.2554293
0.2574127
0.25936667
0.26128154
0.26314903
0.2649622
0.26671545
0.26840434
0.27002553
0.27157675
0.27305658
0.27446447
0.27580053
0.27706547
0.27826048
0.27938719
0.28044756
0.28144386
0.28237844
0.28325392
0.28407297
0.28483829
0.28555264
0.28621872
0.28683921
0.28741673
0.28795389
0.28845314
0.28891695
0.28934763
0.28974735
0.29011821
0.29046216
0.29078092
0.29107577
0.29134704
0.29159298
0.2918078
0.29197814
0.29207754
0.29205743
0.29183241
0.29126173
0.29013633
0.28818219
0.28507894
0.28048701
0.27408135
0.26558586
0.25480016
0.24161665
0.22602354
0.20808942
0.18796628
0.16590248
0.14222631
0.11733169
0.091628561
0.065492133
0.039280813
0.013290394
0.24477554
0.24658795
0.24838825
0.25016548
0.25191011
0.25361398
0.25527021
0.25687324
0.25841864
0.25990305
0.26132412
0.26268035
0.26397108
0.26519628
0.26635648
0.26745272
0.26848642
0.26945933
0.2703735
0.27123107
0.27203441
0.27278597
0.27348823
0.2741437
0.27475486
0.27532418
0.27585406
0.27634688
0.27680493
0.27723045
0.27762558
0.27799231
0.27833256
0.27864812
0.27894054
0.27921091
0.27945936
0.27968389
0.27987831
0.28002869
0.2801078
0.28006597
0.27981679
0.2792197
0.27806882
0.27609771
0.2729983
0.26844721
0.26213781
0.25381246
0.24328763
0.23047074
0.21536378
0.19804891
0.17869004
0.15754105
0.13492435
0.11121361
0.086788819
0.061994755
0.037162616
0.012566266
0.23628121
0.23791161
0.23953624
0.24114427
0.2427263
0.2442742
0.24578116
0.24724161
0.24865108
0.25000614
0.25130438
0.25254418
0.25372472
0.25484581
0.25590782
0.25691159
0.25785832
0.25874957
0.25958714
0.26037297
0.26110918
0.26179801
0.26244169
0.26304252
0.26360277
0.26412467
0.26461045
0.26506227
0.26548222
0.26587236
0.26623466
0.26657093
0.26688294
0.26717231
0.26744043
0.26768823
0.26791563
0.26812035
0.26829583
0.26842756
0.26848747
0.2684248
0.26815213
0.26752917
0.26635325
0.26436545
0.26126979
0.25675888
0.25054438
0.24238734
0.23212165
0.21967015
0.20504839
0.18835035
0.16974849
0.1494982
0.12791307
0.10534655
0.082151367
0.058645355
0.035134933
0.011873412
0.22650374
0.22794665
0.22940221
0.23085847
0.23230472
0.23373161
0.23513105
0.23649621
0.2378215
0.23910238
0.24033534
0.24151782
0.24264808
0.24372514
0.24474863
0.24571872
0.24663604
0.24750159
0.2483167
0.24908296
0.24980205
0.2504759
0.25110649
0.25169585
0.25224606
0.25275917
0.25323722
0.25368222
0.25409616
0.25448094
0.25483844
0.25517046
0.25547866
0.25576465
0.2560299
0.25627564
0.25650266
0.25671065
0.25689708
0.25705499
0.25716927
0.25721101
0.25712834
0.25683289
0.25618472
0.2549845
0.25298084
0.24988974
0.24541958
0.23930018
0.23131123
0.22130415
0.20921724
0.19507885
0.17899308
0.1611381
0.14176776
0.12118493
0.099723157
0.077710269
0.055439801
0.03319537
0.011211047
0.21726853
0.21850495
0.21977352
0.22106125
0.22235628
0.22364797
0.22492698
0.22618524
0.22741586
0.22861317
0.22977255
0.23089035
0.23196388
0.23299123
0.23397123
0.23490332
0.23578747
0.23662408
0.23741395
0.23815817
0.23885809
0.2395152
0.24013118
0.24070779
0.24124685
0.24175022
0.24221975
0.24265728
0.24306464
0.24344363
0.24379598
0.24412341
0.24442754
0.2447099
0.24497195
0.24521501
0.24544018
0.24564807
0.2458382
0.24600775
0.24614936
0.24624733
0.24627186
0.24617
0.24585252
0.24517995
0.24395645
0.24193824
0.23885324
0.23442542
0.22840251
0.22058264
0.21083459
0.19911165
0.18545409
0.16997436
0.15285404
0.13434311
0.11473253
0.094336505
0.073459866
0.052374025
0.031341506
0.010578358
0.20859042
0.20959996
0.21066218
0.2117631
0.21288981
0.21403054
0.21517467
0.21631284
0.21743693
0.21853999
0.21961623
0.22066089
0.22167019
0.22264127
0.22357201
0.22446106
0.22530765
0.22611153
0.22687287
0.22759225
0.22827053
0.22890883
0.22950842
0.23007075
0.23059738
0.2310899
0.23154997
0.23197925
0.2323794
0.23275205
0.23309883
0.23342131
0.23372106
0.23399954
0.23425813
0.23449817
0.23472085
0.23492712
0.23511744
0.23529113
0.23544512
0.23557161
0.23565431
0.23566254
0.23554229
0.23520354
0.2345075
0.23326199
0.23123097
0.22815421
0.22377111
0.21784699
0.21019807
0.20071003
0.18935048
0.1761705
0.16128927
0.14488982
0.12721655
0.10854779
0.089179093
0.069393997
0.049443565
0.029570654
0.0099744282
0.20124723
0.2020823
0.20297661
0.20391633
0.20488861
0.20588172
0.20688502
0.20788911
0.20888577
0.20986794
0.21082969
0.21176612
0.21267325
0.21354804
0.21438816
0.21519206
0.21595872
0.21668767
0.21737887
0.21803264
0.21864964
0.21923074
0.219777
0.22028965
0.22077003
0.22121953
0.22163962
0.22203176
0.22239743
0.22273809
0.22305522
0.22335022
0.2236245
0.2238794
0.22411616
0.22433599
0.22453995
0.22472886
0.22490304
0.22506163
0.22520126
0.22531373
0.22538212
0.2253749
0.22523703
0.22487782
0.22415936
0.22289338
0.22085164
0.21778582
0.21345049
0.20762825
0.2001529
0.19092635
0.17992967
0.16722355
0.15293236
0.13723892
0.12038084
0.10262344
0.08424432
0.065507223
0.046644381
0.027880331
0.0093984054
0.19346412
0.19405013
0.19471661
0.19544908
0.19623381
0.19705801
0.1979099
0.19877882
0.19965526
0.20053091
0.20139854
0.20225207
0.20308639
0.20389735
0.20468167
0.20543682
0.206161
0.20685297
0.20751202
0.20813789
0.20873065
0.20929072
0.20981877
0.21031562
0.21078229
0.21121992
0.2116297
0.2120129
0.2123708
0.21270471
0.21301594
0.21330579
0.21357553
0.21382642
0.21405966
0.21427639
0.21447767
0.21466446
0.21483746
0.21499683
0.21514154
0.21526793
0.2153674
0.21542239
0.21540052
0.21524578
0.21486697
0.21412729
0.21284257
0.21079259
0.20774085
0.20345694
0.19774028
0.19044165
0.18147839
0.17084405
0.15860766
0.14489735
0.12989436
0.11382853
0.09695207
0.079525454
0.061793924
0.043972246
0.026267871
0.0088493314
0.18626962
0.1865839
0.18700019
0.18750373
0.18808019
0.18871587
0.18939801
0.1901148
0.19085546
0.19161039
0.19237109
0.19313019
0.19388139
0.19461939
0.1953398
0.19603912
0.19671458
0.19736413
0.19798631
0.19858016
0.19914516
0.19968118
0.20018839
0.20066724
0.20111833
0.20154247
0.20194061
0.20231373
0.20266293
0.20298932
0.20329402
0.20357821
0.20384302
0.20408958
0.20431904
0.20453245
0.20473084
0.20491516
0.20508625
0.2052447
0.20539053
0.20552251
0.20563674
0.20572416
0.20576662
0.20573089
0.20556007
0.20516261
0.20440304
0.20310159
0.20104618
0.19801215
0.19378384
0.18817702
0.18105876
0.172361
0.16208863
0.15031774
0.13717888
0.12285051
0.10755398
0.091528419
0.075017908
0.058250419
0.041424492
0.024731636
0.0083266323
0.17968392
0.17970351
0.17984653
0.18009833
0.18044433
0.18087029
0.18136259
0.18190841
0.18249586
0.18311406
0.18375325
0.18440474
0.18506096
0.18571538
0.18636247
0.18699759
0.187617
0.18821769
0.18879735
0.18935426
0.18988722
0.19039549
0.19087867
0.19133674
0.1917699
0.19217855
0.19256331
0.1929249
0.19326415
0.19358197
0.19387929
0.19415711
0.19441641
0.19465822
0.19488352
0.19509333
0.19528859
0.19547021
0.19563903
0.19579579
0.19594097
0.19607445
0.19619482
0.19629789
0.19637421
0.19640497
0.19635618
0.19617012
0.19575505
0.19497714
0.19366124
0.19160359
0.18859131
0.18442325
0.17893102
0.17199725
0.1635675
0.1536569
0.14234741
0.12977072
0.11610147
0.10155196
0.08634821
0.070718588
0.054874772
0.039000136
0.023271311
0.0078303127
0.17342996
0.17327645
0.17325301
0.17334528
0.17353884
0.17381956
0.1741738
0.17458871
0.17505227
0.17555346
0.17608233
0.17662998
0.17718859
0.17775142
0.17831264
0.17886738
0.17941163
0.1799421
0.18045623
0.18095206
0.18142811
0.18188341
0.18231733
0.18272962
0.18312026
0.18348945
0.18383761
0.18416527
0.18447308
0.18476178
0.18503215
0.18528502
0.18552126
0.18574174
0.18594733
0.18613892
0.18631736
0.18648343
0.18663788
0.18678136
0.18691422
0.18703623
0.1871458
0.18723845
0.1873043
0.18732398
0.18726269
0.18706203
0.18663027
0.18583546
0.18450736
0.18245063
0.17946412
0.17536086
0.16998774
0.16324217
0.15508232
0.14553249
0.13467932
0.12265466
0.1096285
0.09580374
0.081393563
0.066611272
0.051653216
0.036688577
0.021880088
0.0073578963
0.16778443
0.1673117
0.16698948
0.16680414
0.16674156
0.1667875
0.16692788
0.16714908
0.16743812
0.16778289
0.16817217
0.16859577
0.16904459
0.16951053
0.16998657
0.17046664
0.17094555
0.17141902
0.17188351
0.17233616
0.17277476
0.17319758
0.17360339
0.17399135
0.17436096
0.174712
0.17504446
0.17535857
0.17565468
0.17593326
0.1761949
0.17644023
0.17666992
0.17688472
0.17708538
0.17727264
0.17744728
0.17761004
0.17776163
0.17790269
0.17803376
0.17815512
0.17826639
0.17836581
0.17844863
0.17850454
0.17851358
0.17844024
0.17822551
0.17777787
0.1769675
0.1756293
0.17357643
0.17061942
0.16658508
0.16133502
0.15478055
0.14689152
0.13770032
0.12729727
0.11581345
0.10341369
0.090291386
0.076647208
0.062680187
0.04857228
0.034479409
0.020551285
0.0069069568
0.16278735
0.16197422
0.16133039
0.1608436
0.16050061
0.16028757
0.16019038
0.16019502
0.16028782
0.16045572
0.16068642
0.1609685
0.16129155
0.16164617
0.16202402
0.16241775
0.162821
0.16322831
0.16363508
0.16403749
0.16443243
0.16481737
0.16519037
0.16554994
0.165895
0.16622483
0.166539
0.1668373
0.16711978
0.1673866
0.16763809
0.16787466
0.16809679
0.16830506
0.16850004
0.16868239
0.16885273
0.16901175
0.16916007
0.16929832
0.16942706
0.16954673
0.16965751
0.16975891
0.16984897
0.16992268
0.16996933
0.16996836
0.1698836
0.16965555
0.16919311
0.16836886
0.16702302
0.16497741
0.16205402
0.15809313
0.15297035
0.14661011
0.13899291
0.13015821
0.120199
0.10924487
0.097454969
0.0850131
0.072107806
0.058924505
0.045631603
0.032372602
0.019285035
0.0064776042
0.15728478
0.15629824
0.1554871
0.15483964
0.15434298
0.15398354
0.15374738
0.15362051
0.1535892
0.15364028
0.15376127
0.1539405
0.15416732
0.15443203
0.15472597
0.15504151
0.15537196
0.15571156
0.15605539
0.15639935
0.15674003
0.15707465
0.157401
0.15771733
0.15802233
0.15831508
0.15859493
0.15886149
0.15911459
0.15935427
0.15958065
0.15979403
0.15999474
0.16018321
0.16035992
0.1605254
0.16068017
0.16082481
0.16095987
0.16108587
0.16120329
0.1613125
0.16141357
0.16150591
0.16158736
0.16165266
0.16169066
0.16168028
0.16158475
0.1613442
0.16086816
0.16003188
0.15868117
0.1566465
0.15376121
0.14987859
0.14488763
0.13872491
0.13138064
0.12290027
0.11337859
0.10294293
0.091746397
0.079963198
0.067770119
0.055339643
0.042827422
0.03036534
0.018079562
0.006069202
0.15326195
0.1519144
0.15075798
0.14978311
0.14897858
0.14833193
0.14782986
0.14745854
0.14720402
0.14705253
0.14699076
0.147006
0.14708637
0.1472209
0.1473996
0.1476135
0.14785463
0.14811595
0.1483914
0.14867576
0.14896459
0.14925421
0.14954157
0.14982417
0.15010004
0.15036764
0.1506258
0.1508737
0.15111073
0.15133658
0.15155108
0.15175422
0.15194615
0.15212707
0.15229728
0.15245714
0.15260708
0.15274753
0.15287896
0.15300183
0.15311659
0.15322363
0.15332325
0.15341543
0.15349944
0.15357298
0.15363048
0.15366044
0.15364123
0.15353556
0.15328338
0.15279505
0.15194878
0.15059613
0.14857632
0.14573382
0.14193449
0.13707995
0.13111807
0.1240477
0.11591934
0.10682869
0.096900202
0.086280618
0.07513463
0.063627664
0.051919926
0.040155075
0.028454139
0.016932696
0.0056809843
0.1499202
0.14819729
0.14667777
0.14535482
0.14421955
0.1432613
0.14246805
0.14182674
0.14132372
0.14094506
0.14067693
0.14050587
0.14041895
0.14040404
0.14044986
0.1405461
0.14068344
0.14085357
0.14104912
0.14126367
0.14149169
0.14172844
0.14196992
0.1422128
0.14245433
0.14269229
0.14292489
0.14315077
0.14336888
0.14357844
0.14377895
0.14397009
0.1441517
0.14432377
0.1444864
0.14463975
0.14478408
0.14491971
0.14504697
0.14516624
0.14527791
0.14538234
0.14547987
0.14557068
0.1456547
0.14573107
0.14579731
0.14584761
0.14587007
0.1458426
0.14572744
0.14546452
0.14496531
0.1441112
0.14275974
0.14075887
0.13796399
0.13425301
0.12953946
0.12378159
0.11698593
0.10920703
0.10054071
0.091108022
0.081049115
0.070519279
0.059673005
0.048658852
0.037609225
0.026635015
0.01584196
0.0053120851
0.14516092
0.14326477
0.14157651
0.14009019
0.13879762
0.13768874
0.13675194
0.13597447
0.13534283
0.13484315
0.13446153
0.13418435
0.13399847
0.13389147
0.13385177
0.13386871
0.13393261
0.13403481
0.13416759
0.13432417
0.13449869
0.13468609
0.13488207
0.13508301
0.1352859
0.13548825
0.13568806
0.13588373
0.13607402
0.13625797
0.1364349
0.13660433
0.13676596
0.13691964
0.13706533
0.1372031
0.13733308
0.13745551
0.13757061
0.1376787
0.13778007
0.13787501
0.13796378
0.13804652
0.13812304
0.13819239
0.13825191
0.13829553
0.13831099
0.13827579
0.13815182
0.13787911
0.1373705
0.13651085
0.13516383
0.13318611
0.13044374
0.12682618
0.12225811
0.11670725
0.11018682
0.10275458
0.094505714
0.08555743
0.07604311
0.06610882
0.055898543
0.045549809
0.035184462
0.024903946
0.014804857
0.0049616273
0.14281321
0.14053232
0.13846618
0.1366123
0.13496559
0.1335186
0.13226188
0.13118427
0.13027336
0.12951583
0.12889786
0.1284055
0.12802496
0.12774291
0.12754662
0.12742418
0.1273646
0.12735783
0.12739481
0.12746748
0.12756869
0.12769225
0.12783275
0.12798559
0.12814686
0.12831327
0.12848209
0.12865108
0.12881843
0.12898268
0.12914271
0.12929764
0.12944686
0.1295899
0.1297265
0.12985649
0.12997982
0.13009654
0.13020677
0.13031066
0.13040843
0.1305003
0.13058651
0.13066723
0.13074254
0.13081216
0.13087504
0.13092836
0.13096579
0.13097474
0.13093233
0.13080022
0.13051873
0.1300023
0.12913951
0.12780029
0.12585002
0.12316509
0.11964596
0.11522771
0.10988661
0.10364169
0.09655302
0.08871457
0.08023927
0.07125367
0.061894803
0.052296587
0.042586113
0.032875324
0.023256877
0.013818864
0.0046287207
0.14115468
0.13848715
0.1360363
0.13380339
0.13178689
0.12998259
0.12838383
0.12698179
0.12576582
0.12472385
0.12384277
0.12310885
0.12250808
0.12202656
0.1216507
0.1213675
0.12116473
0.12103101
0.12095593
0.12093005
0.12094492
0.12099305
0.12106785
0.1211636
0.12127539
0.12139901
0.12153088
0.12166802
0.12180795
0.12194865
0.12208846
0.12222606
0.12236042
0.12249076
0.12261649
0.12273719
0.12285258
0.12296252
0.12306694
0.12316587
0.12325939
0.12334763
0.12343074
0.12350889
0.1235822
0.12365066
0.12371394
0.12377086
0.12381843
0.12385012
0.12385301
0.12380391
0.12366434
0.12337514
0.12285257
0.12198914
0.12066121
0.11874273
0.11612016
0.11270438
0.10844009
0.10331126
0.097341804
0.090593386
0.083158144
0.075144439
0.06667194
0.057868879
0.048859553
0.039761193
0.030676454
0.021689823
0.01288151
0.0043125022
0.13712811
0.13429218
0.13167483
0.12927833
0.12710211
0.12514289
0.1233948
0.1218497
0.1204975
0.11932651
0.11832386
0.11747592
0.11676869
0.11618811
0.11572039
0.11535225
0.11507111
0.11486525
0.11472385
0.11463709
0.11459614
0.1145931
0.11462106
0.11467393
0.11474648
0.11483419
0.11493321
0.1150403
0.11515273
0.11526826
0.11538504
0.11550155
0.11561661
0.11572927
0.11583879
0.11594465
0.11604645
0.11614392
0.11623691
0.11632536
0.11640926
0.11648867
0.11656369
0.11663439
0.11670085
0.116763
0.11682042
0.11687183
0.1169141
0.11694045
0.11693771
0.11688244
0.11673614
0.11644034
0.11591337
0.11505192
0.11373883
0.11185655
0.10930122
0.10599357
0.10188715
0.096972799
0.091278489
0.084866739
0.077827361
0.070263905
0.062289163
0.054022818
0.045579985
0.037068586
0.02858259
0.020198893
0.011990388
0.0040121312
0.13644516
0.1332307
0.13023024
0.12744991
0.12489299
0.12255991
0.12044829
0.11855314
0.11686702
0.11538043
0.11408212
0.11295951
0.11199911
0.11118692
0.11050878
0.10995071
0.10949915
0.1091412
0.10886476
0.10865863
0.1085126
0.10841742
0.10836484
0.10834753
0.1083591
0.10839394
0.10844725
0.10851487
0.10859331
0.10867959
0.10877125
0.10886623
0.10896283
0.1090597
0.10915573
0.10925005
0.10934201
0.10943108
0.10951692
0.10959926
0.10967795
0.10975291
0.10982413
0.10989164
0.10995545
0.11001557
0.11007188
0.11012388
0.1101702
0.11020754
0.11022895
0.110221
0.11016006
0.11000779
0.10970657
0.10917706
0.10832028
0.10702566
0.10518398
0.10270071
0.099505822
0.095560968
0.090863006
0.085443206
0.079364298
0.07271333
0.065588838
0.058096799
0.05034862
0.042450656
0.034502059
0.02658867
0.018780334
0.011143179
0.0037267981
0.13283938
0.1294643
0.12630334
0.12336364
0.12064951
0.11816237
0.11590081
0.11386071
0.1120354
0.110416