/*--------------------------------*- C++ -*----------------------------------*\
| =========                 |                                                 |
| \\      /  F ield         | OpenFOAM: The Open Source CFD Toolbox           |
|  \\    /   O peration     | Version:  2506                                  |
|   \\  /    A nd           | Website:  www.openfoam.com                      |
|    \\/     M anipulation  |                                                 |
\*---------------------------------------------------------------------------*/
FoamFile
{
    version     2.0;
    format      ascii;
    arch        "LSB;label=32;scalar=64";
    class       volScalarField;
    location    "1.75";
    object      omega;
}
// * * * * * * * * * * * * * * * * * * * * * * * * * * * * * * * * * * * * * //

dimensions      [0 0 -1 0 0 0 0];

internalField   nonuniform List<scalar> 
1376
(
56.810208
52.021087
49.002699
46.924159
45.3815
44.183882
43.226259
42.444508
41.796286
41.25261
40.791947
40.398852
40.060762
39.768023
39.513516
39.292062
39.097594
38.926526
38.775685
38.642786
38.524994
38.421118
38.329579
38.247966
38.176949
38.116984
38.067693
38.026701
37.996956
37.984655
37.99549
38.027138
38.084055
38.184354
38.338846
38.585284
38.92781
39.512879
40.323347
41.625466
43.890968
47.517111
52.787749
63.314565
82.251529
112.75697
184.78335
697.08286
1351.6951
56.725195
52.169897
49.255584
47.19426
45.646722
44.437409
43.465595
42.668809
42.005976
41.448289
40.974555
40.568794
40.219065
39.91556
39.651135
39.420122
39.21682
39.037804
38.879441
38.739511
38.61542
38.505249
38.407826
38.321093
38.244979
38.180537
38.126526
38.080911
38.047086
38.030029
38.034123
38.059244
38.111479
38.199401
38.346463
38.556185
38.890109
39.447623
40.33406
41.483155
43.482424
46.688573
51.813171
62.709983
77.774081
100.50291
152.39625
666.94822
1329.5163
57.084387
52.648054
49.695225
47.597826
46.01744
44.777225
43.77702
42.954415
42.268304
41.689397
41.196398
40.77314
40.407599
40.089748
39.812093
39.568618
39.354321
39.165208
38.997255
38.848572
38.716487
38.59878
38.494379
38.401298
38.319144
38.248824
38.188843
38.138514
38.099965
38.077049
38.072208
38.091705
38.136662
38.213035
38.338385
38.542758
38.850013
39.298143
40.035827
41.191153
42.972559
45.737777
51.933733
60.312245
71.576413
94.12336
151.12575
690.63146
1310.7944
57.274271
53.000091
50.088784
47.984866
46.382968
45.117896
44.092991
43.246687
42.538354
41.938657
41.42659
40.985703
40.604022
40.27128
39.97993
39.723788
39.497941
39.298
39.120015
38.962018
38.821362
38.696008
38.584163
38.484252
38.39586
38.319207
38.253209
38.197705
38.15398
38.125168
38.112953
38.125933
38.16064
38.232206
38.344289
38.52912
38.814772
39.255241
39.90784
40.956774
42.59037
45.573249
49.564974
57.594127
71.626506
90.936251
157.9825
638.78692
1292.6277
57.489715
53.383168
50.506803
48.394739
46.771453
45.480999
44.430283
43.558935
42.827007
42.205391
41.672981
41.213227
40.814048
40.465198
40.159155
39.88935
39.650805
39.43911
39.250446
39.082461
38.932563
38.798709
38.678864
38.57163
38.476459
38.393143
38.320917
38.259562
38.209924
38.17446
38.154498
38.160234
38.189802
38.248271
38.352316
38.512744
38.77676
39.201158
39.813453
40.793694
42.449887
44.716256
49.750251
57.012016
67.429681
85.924485
135.88121
479.44151
1278.0995
57.68215
53.749203
50.922824
48.811769
47.171507
45.857758
44.782047
43.885954
43.130218
42.486108
41.932632
41.453287
41.035753
40.670058
40.348367
40.063991
39.812068
39.58803
39.388001
39.20935
39.049717
38.906807
38.778414
38.663303
38.56075
38.470271
38.391108
38.323147
38.267502
38.225896
38.200166
38.19578
38.217051
38.269485
38.359371
38.509279
38.750933
39.122876
39.713783
40.642151
42.100311
44.469877
48.144745
55.009636
66.327548
82.635259
130.15446
472.99013
1264.5813
57.864112
54.106185
51.337459
49.233757
47.580645
46.246041
45.146516
44.226126
43.44644
42.779504
42.204423
41.704924
41.268491
40.885174
40.547094
40.247655
39.981745
39.744555
39.532524
39.342584
39.172431
39.019825
38.88256
38.759167
38.648569
38.550557
38.464458
38.389831
38.327773
38.279348
38.246765
38.233697
38.249839
38.290097
38.369963
38.508678
38.715308
39.088321
39.612479
40.425384
41.860423
43.981546
48.06647
53.882478
63.57832
81.611806
124.75281
432.70945
1251.0364
58.030628
54.445925
51.742949
49.653989
47.993131
46.640725
45.519262
44.575536
43.772434
43.082863
42.486059
41.966063
41.510309
41.108935
40.753968
40.438821
40.158219
39.907452
39.682906
39.481215
39.300151
39.137367
38.990603
38.858474
38.739842
38.63411
38.540641
38.45893
38.389969
38.335235
38.295897
38.27436
38.282164
38.312484
38.383172
38.507745
38.711967
39.006414
39.545521
40.330447
41.586892
43.678386
47.262626
54.143974
61.320789
80.130102
111.09572
366.23018
1238.7015
58.182277
54.766822
52.135031
50.06705
48.403402
47.036671
45.895528
44.929945
44.104379
43.392554
42.774171
42.233637
41.758583
41.339027
40.966914
40.635754
40.340227
40.075531
39.837926
39.624176
39.431952
39.25873
39.102189
38.96098
38.833751
38.719877
38.618904
38.530172
38.454291
38.392479
38.34577
38.318321
38.31476
38.33796
38.396923
38.505765
38.702333
38.986602
39.442453
40.210003
41.395564
43.691002
46.624865
52.107987
60.32388
75.645236
115.49236
338.32435
1226.1617
58.319375
55.066567
52.508565
50.466863
48.804988
47.427615
46.269476
45.284076
44.437434
43.704337
43.065106
42.504425
42.010217
41.572445
41.183112
40.835897
40.525228
40.246557
39.995939
39.769949
39.566109
39.382156
39.215736
39.065236
38.929438
38.807393
38.698688
38.602627
38.51956
38.450784
38.397129
38.363418
38.346844
38.365327
38.4154
38.513297
38.667787
38.975232
39.381792
40.056192
41.136199
42.87642
46.362009
52.02292
59.597051
72.712636
117.8418
290.68411
1213.287
58.440611
55.338701
52.856121
50.845963
49.190696
47.806651
46.63458
45.631734
44.765983
44.013041
43.353982
42.77401
42.26111
41.805465
41.399225
41.036185
40.710612
40.417985
40.15425
39.916085
39.700747
39.506094
39.329787
39.169929
39.025327
38.894994
38.778565
38.675287
38.585309
38.509601
38.449176
38.407901
38.381695
38.394537
38.435489
38.515608
38.676369
38.907417
39.321282
40.031078
41.092271
42.785894
45.783715
50.686615
59.640828
71.320459
107.45668
279.3864
1200.4507
58.548094
55.58586
53.176788
51.19975
49.554412
48.167243
46.984476
45.966598
45.083707
44.312641
43.635248
43.037028
42.506466
42.033871
41.611411
41.232908
40.892802
40.586494
40.309945
40.059855
39.833265
39.62807
39.442017
39.273061
39.119931
38.981593
38.857482
38.74693
38.649997
38.567482
38.500543
38.451864
38.418052
38.423525
38.453501
38.526576
38.65568
38.898034
39.282294
39.839445
40.922197
42.57458
45.733434
50.200774
57.267671
70.720216
102.22005
275.26208
1187.8624
58.641111
55.803675
53.464243
51.521903
49.889781
48.502626
47.312093
46.281933
45.384357
44.597203
43.903168
43.288138
42.741122
42.25261
41.81494
41.421896
41.068044
40.748736
40.459978
40.198398
39.961069
39.745735
39.550277
39.372596
39.211184
39.065165
38.933776
38.816259
38.712722
38.623775
38.550515
38.494478
38.456606
38.450074
38.47149
38.535847
38.660217
38.866934
39.219857
39.847912
40.718826
42.325312
44.900641
49.740298
56.357627
71.336259
100.12067
251.56297
1175.7267
58.72025
55.993029
53.71806
51.80952
50.191958
48.807111
47.611208
46.571123
45.661049
44.859977
44.151268
43.521306
42.959425
42.456454
42.004882
41.598516
41.231961
40.900565
40.60044
40.328167
40.080836
39.856013
39.651715
39.465882
39.296715
39.143408
39.005192
38.881161
38.771388
38.676404
38.597295
38.534689
38.493789
38.472938
38.491393
38.545109
38.660174
38.867193
39.189195
39.731676
40.665329
42.197762
45.082752
49.335425
56.074427
66.627443
103.7338
250.13966
1164.4524
58.785991
56.1527
53.934269
52.057107
50.454521
49.073901
47.875242
46.827817
45.907512
45.094638
44.373223
43.730374
43.155571
42.639943
42.176118
41.757958
41.380101
41.037921
40.727583
40.445682
40.189368
39.956061
39.743787
39.550582
39.374428
39.214456
39.070017
38.940096
38.824673
38.724249
38.63981
38.571687
38.526006
38.49562
38.508804
38.556612
38.65716
38.842587
39.172999
39.686436
40.520044
41.933841
44.474985
48.519289
55.170914
66.865229
94.289184
256.85842
1154.2139
58.838949
56.282893
54.112586
52.263387
50.674706
49.298924
48.098947
47.046259
46.117845
45.295275
44.563318
43.909706
43.324106
42.797846
42.323676
41.895457
41.50794
41.156546
40.837455
40.547293
40.28327
40.042703
39.823573
39.624011
39.441887
39.276171
39.126326
38.991342
38.871009
38.765827
38.676637
38.603592
38.553675
38.514486
38.523672
38.563471
38.657183
38.830704
39.123682
39.615573
40.44514
41.837892
44.226745
48.323574
54.473431
66.935591
93.900581
229.36573
1145.4551
58.879611
56.383576
54.251619
52.424898
50.848146
49.476967
48.276858
47.220544
46.286285
45.456478
44.71653
44.054526
43.460398
42.92569
42.44323
42.006876
41.611549
41.252749
40.926617
40.629795
40.359536
40.113112
39.888403
39.683612
39.49657
39.32611
39.171765
39.032636
38.908356
38.799344
38.706237
38.629138
38.575484
38.529422
38.534759
38.568386
38.652312
38.812554
39.092054
39.560103
40.328966
41.645761
44.027784
47.917152
54.586736
65.109128
96.115597
234.34653
1138.3731
58.908315
56.454954
54.350608
52.540555
50.972941
49.605512
48.405715
47.347057
46.408844
45.574136
44.828724
44.16083
43.560524
43.019567
42.530948
42.088558
41.68741
41.323119
40.99179
40.69007
40.415214
40.164478
39.935668
39.72704
39.536404
39.36248
39.204813
39.062627
38.935524
38.823826
38.728017
38.648185
38.592129
38.542079
38.545307
38.575121
38.654021
38.809442
39.083118
39.542806
40.314805
41.624124
43.949015
47.935844
54.15019
65.671966
92.703458
237.58676
1133.2005
58.925302
56.497122
54.409
52.608868
51.046792
49.681592
48.48173
47.421728
46.481411
45.644109
44.895673
44.224412
43.620391
43.075611
42.583294
42.13734
41.732749
41.365212
41.030789
40.726091
40.448409
40.195008
39.963679
39.752753
39.560048
39.384197
39.224705
39.080904
38.952478
38.83967
38.742884
38.662355
38.606059
38.556453
38.56034
38.591666
38.673987
38.835406
39.119419
39.597313
40.394917
41.753192
44.187271
48.210632
54.70623
66.005086
95.296565
238.48239
1130.2491
58.930837
56.51044
54.426944
52.629319
51.068368
49.703746
48.503691
47.443265
46.502169
45.663874
44.914242
44.241723
43.636584
43.090966
42.597962
42.151343
41.746022
41.377715
41.042458
40.736836
40.458248
40.204021
39.971966
38.05945
38.191166
38.347267
38.533468
38.756243
39.02412
39.347951
39.742804
40.228922
40.836292
41.609842
42.62333
44.013046
46.066693
49.457939
37.557749
37.54779
37.547968
37.55996
37.579196
37.608122
37.643871
37.687521
37.740391
37.8037
37.875495
37.961649
38.063509
38.182906
38.323768
38.490308
38.687912
38.923511
39.205812
39.546077
39.959543
40.467165
41.099877
41.903858
42.95488
44.392962
46.514511
49.995167
41.291262
40.040845
39.161368
38.638363
38.260824
38.013894
37.849694
37.743645
37.671748
37.626272
37.604354
37.597357
37.60455
37.622165
37.647478
37.681511
37.722379
37.771758
37.830477
37.899709
37.978404
38.072052
38.182263
38.310493
38.461186
38.638796
38.848618
39.097735
39.395379
39.753094
40.186441
40.717151
41.377027
42.213598
43.304973
44.795112
46.990055
50.571037
238.58241
146.37764
100.72828
81.816603
63.437519
53.659297
49.403507
45.291434
43.177554
40.700515
39.666338
39.04998
38.53316
38.238355
38.01039
37.873712
37.782549
37.713726
37.676134
37.657256
37.656483
37.665834
37.687549
37.717403
37.754862
37.801758
37.856773
37.922222
37.997469
38.084038
38.185968
38.304902
38.442745
38.60396
38.793117
39.015907
39.279407
39.59335
39.969587
40.424207
40.979669
41.668643
42.540193
43.674972
45.221279
47.495423
51.185573
1527.6955
831.13797
238.79789
144.54483
102.64771
81.228327
61.886079
53.422458
49.291166
44.950773
41.842995
40.408369
39.462824
38.876977
38.485716
38.22704
38.022914
37.886371
37.804263
37.746288
37.71613
37.706317
37.712069
37.727743
37.75438
37.787683
37.831728
37.884153
37.945012
38.015983
38.098253
38.193171
38.303709
38.431583
38.579852
38.752268
38.953674
39.190132
39.469023
39.800317
40.19625
40.673551
41.255509
41.975708
42.884895
44.066443
45.673397
48.033206
51.844574
1496.304
815.43351
204.37367
131.86843
96.384432
82.715266
63.079923
54.153169
48.156666
44.985726
42.007844
40.395362
39.367008
38.839659
38.465944
38.210285
38.025291
37.906774
37.83114
37.78416
37.758496
37.754644
37.766509
37.789203
37.8207
37.86034
37.909557
37.968339
38.035575
38.113296
38.203133
38.306091
38.425366
38.562813
38.721908
38.906168
39.120739
39.371749
39.667187
40.016987
40.433882
40.935403
41.545617
42.299384
43.249132
44.481092
46.153464
48.605997
52.551549
1464.4932
789.18446
185.52156
125.19935
86.102983
83.499291
64.820512
54.873298
47.379371
44.539016
41.793616
40.473545
39.34537
38.800455
38.436336
38.203596
38.031759
37.929641
37.864823
37.824086
37.807166
37.80771
37.824135
37.852581
37.889039
37.934407
37.989303
38.054079
38.1281
38.213223
38.311074
38.422634
38.551433
38.699055
38.869475
39.066204
39.294886
39.561503
39.874413
40.243924
40.683311
41.210762
41.8512
42.640973
43.634381
44.920727
46.663822
49.216838
53.311417
1432.6714
776.37014
183.82394
122.90018
85.581849
76.699661
63.837134
51.23722
45.729175
43.380116
41.672498
40.078079
39.334567
38.715093
38.405299
38.190555
38.045387
37.952592
37.894067
37.861188
37.852117
37.860271
37.88292
37.917106
37.959114
38.010146
38.071468
38.142567
38.223316
38.316097
38.422022
38.543007
38.681831
38.84044
39.022817
39.232818
39.476457
39.759706
40.091293
40.481876
40.945285
41.500531
42.173388
43.001773
44.042082
45.387128
47.20682
49.868844
54.127943
1402.3983
763.4701
185.36504
115.23869
87.37085
74.185988
58.351951
48.356901
45.205962
42.561563
40.786045
39.713188
39.100419
38.647303
38.381241
38.190001
38.053679
37.977768
37.927005
37.899908
37.898653
37.914044
37.942607
37.982503
38.030343
38.08768
38.155482
38.233405
38.321603
38.422442
38.537151
38.667711
38.816682
38.987117
39.182002
39.406255
39.665684
39.966645
40.318069
40.731201
41.22029
41.805296
42.512988
43.382779
44.473402
45.881712
47.7843
50.564144
55.003006
1372.69
764.14267
187.40712
112.88486
83.245563
69.396776
55.482962
47.959256
44.190602
41.991154
40.605859
39.62557
39.016758
38.636469
38.352567
38.180848
38.067825
38.000798
37.96098
37.941817
37.946934
37.969341
38.004303
38.048813
38.102956
38.167231
38.241907
38.326407
38.422616
38.532156
38.655943
38.796684
38.956647
39.139025
39.347129
39.586729
39.862751
40.182392
40.55472
40.991699
41.50819
42.12489
42.869736
43.78368
44.928073
46.404009
48.395473
51.299794
55.928378
)
;

boundaryField
{
    Side
    {
        type            empty;
    }
    Inlet
    {
        type            fixedValue;
        value           uniform 60.24606;
    }
    Airfoil
    {
        type            omegaWallFunction;
        blending        binomial;
        n               2;
        value           nonuniform List<scalar> 
25
(
1351.6951
1329.5163
1310.7944
1292.6277
1278.0995
1264.5813
1251.0364
1238.7015
1226.1617
1213.287
1200.4507
1187.8624
1175.7267
1164.4524
1154.2139
1145.4551
1138.3731
1133.2005
1130.2491
1527.6955
1496.304
1464.4932
1432.6714
1402.3983
1372.69
)
;
    }
    Outlet
    {
        type            inletOutlet;
        inletValue      nonuniform List<scalar> 0();
        value           nonuniform List<scalar> 0();
    }
    procBoundary7to0
    {
        type            processor;
        value           nonuniform List<scalar> 
50
(
39.760451
39.567306
39.391114
39.231307
39.087302
38.958878
38.846116
38.749376
38.66891
38.613039
38.565036
38.570471
38.604561
38.69147
38.860371
39.156348
39.653034
40.482369
41.894933
44.422317
48.550836
55.152333
66.93263
97.526724
251.78516
1129.5471
58.925327
56.497165
54.408984
52.608813
51.046634
49.681807
48.481789
47.421992
46.48178
45.64421
44.895257
44.223559
43.619479
43.074971
42.583029
42.137507
41.733312
41.366127
41.031909
40.727179
40.44938
40.195846
39.760451
39.964425
)
;
    }
    procBoundary7to8
    {
        type            processor;
        value           nonuniform List<scalar> 
53
(
37.939917
38.062934
38.209417
38.384827
38.595506
38.849786
39.158203
39.535611
40.001633
40.585359
41.330557
42.309139
43.653865
45.644563
48.95403
37.516445
37.498211
37.49046
37.497847
37.513045
37.534726
37.566273
37.604719
37.652799
37.709976
37.775341
37.854356
37.948479
37.948479
41.509076
40.030517
39.126759
38.652811
38.269851
38.025916
37.839166
37.721383
37.632979
37.589823
37.589823
230.94023
146.1901
96.286878
86.144734
66.989832
55.863708
49.931668
48.195991
44.631111
44.631111
1559.3895
817.94206
817.94206
)
;
    }
}


// ************************************************************************* //
