/*--------------------------------*- C++ -*----------------------------------*\
| =========                 |                                                 |
| \\      /  F ield         | OpenFOAM: The Open Source CFD Toolbox           |
|  \\    /   O peration     | Version:  2506                                  |
|   \\  /    A nd           | Website:  www.openfoam.com                      |
|    \\/     M anipulation  |                                                 |
\*---------------------------------------------------------------------------*/
FoamFile
{
    version     2.0;
    format      ascii;
    arch        "LSB;label=32;scalar=64";
    class       surfaceScalarField;
    location    "0.00013";
    object      phi;
}
// * * * * * * * * * * * * * * * * * * * * * * * * * * * * * * * * * * * * * //

dimensions      [1 0 -1 0 0 0 0];

oriented        oriented;

internalField   nonuniform List<scalar> 
26945
(
0.003184837
-1.541467
1.5414695
0.003182536
-1.4207075
1.4207098
0.0031804174
-1.3094087
1.3094108
0.0031784616
-1.2068295
1.2068314
0.0031766662
-1.1122858
1.1122876
0.0031750004
-1.0251483
1.02515
0.0031734732
-0.94483814
0.94483963
0.0031720638
-0.8708187
0.87082009
0.0031707645
-0.80259858
0.80259988
0.0031695694
-0.7397225
0.7397237
0.0031684624
-0.68177239
0.68177352
0.003167446
-0.62836161
0.62836265
0.0031665107
-0.57913577
0.57913673
0.0031656467
-0.53376613
0.53376701
0.0031648456
-0.49195046
0.49195127
0.0031641192
-0.45341058
0.45341132
0.0031634343
-0.41789026
0.41789096
0.0031628135
-0.38515268
0.38515332
0.0031622368
-0.35497978
0.35498039
0.0031617068
-0.32717024
0.32717079
0.0031612182
-0.30154004
0.30154054
0.0031607673
-0.27791665
0.27791711
0.0031603549
-0.2561453
0.25614571
0.0031599715
-0.23607814
0.23607852
0.0031596191
-0.21758366
0.21758401
0.0031592939
-0.2005386
0.20053893
0.0031589944
-0.18482823
0.18482852
0.0031587193
-0.17034818
0.17034845
0.003158466
-0.15700298
0.15700323
0.0031582302
-0.14470387
0.1447041
0.0031580098
-0.1333677
0.13336791
0.0031578083
-0.12291923
0.12291943
0.0031576204
-0.11329007
0.11329025
0.0031574399
-0.10441429
0.10441446
0.0031570958
-0.096234517
0.096234664
0.0031521553
-0.088695781
0.088695925
0.0031014021
-0.081747267
0.081747083
0.002802641
-0.075340106
0.075336486
0.0014394752
-0.069422964
0.06941578
-0.0038565356
-0.063935582
0.063924629
-0.012650428
-0.058809133
0.05877958
-0.017954233
-0.054199858
0.0542848
-0.014595909
-0.05013721
0.050336921
-0.0039532887
-0.046734078
0.047203039
0.009618259
-0.043551048
0.043984665
0.016241464
-0.040907024
0.041336089
0.0087534201
-0.038177819
0.038481078
-0.0036588923
-0.035725583
0.035783647
-0.0084957617
-0.033008245
0.033067611
-0.010015445
-0.030391675
0.030163825
-0.0099268341
-0.027686441
0.027534208
-0.0072659693
-0.025516876
0.025425454
-0.0033544085
-0.023547825
0.023530804
0.00058474596
-0.021806732
0.021813029
0.0043723407
-0.020221536
0.020230315
0.0078203876
-0.018713069
0.018723353
0.010741769
-0.017302601
0.01734522
0.011977397
-0.016007625
0.016020146
0.012000595
-0.014793579
0.014815683
0.0097267057
-0.01362564
0.013663098
-0.0093044915
-0.012159858
0.012339395
-0.03048915
-0.010021482
0.010455254
-0.035452072
-0.0091036489
0.0095782897
-0.035421506
-0.0082730918
0.0088953418
-0.03532686
-0.0075971472
0.0082523256
-0.035239297
-0.0069611327
0.0076653819
-0.034702649
-0.0063966652
0.0071384263
-0.033564981
-0.0059284439
0.0066667527
-0.031806335
-0.0054883159
0.0061948152
-0.030160426
-0.0050733773
0.0057415419
-0.029368236
-0.0047183716
0.0053266032
-0.029304931
-0.0043659839
0.0049210442
-0.029482075
-0.0040556182
0.0045444227
-0.029146073
-0.0037468687
0.0041974603
-0.028461082
-0.0034821795
0.0038784791
-0.02805929
-0.0032163696
0.0035779875
-0.02797736
-0.002976626
0.0033041605
-0.027346068
-0.0027474367
0.0030455543
-0.025853627
-0.0025486948
0.0028149968
-0.024676491
-0.0023570827
0.0025964436
-0.025016183
-0.0021849917
0.0023934789
-0.025894535
-0.0020139012
0.0022029493
-0.025523051
-0.0018574023
0.0020294763
-0.022382952
-0.0017164587
0.001874802
-0.017392006
-0.0015856491
0.0017335591
-0.014183991
-0.0014699044
0.0016027208
-0.020226636
-0.0013537389
0.0014737066
-0.030552027
-0.0012373004
0.0013467295
-0.036417494
-0.0011300137
0.0012312428
-0.03856713
-0.0010348
0.0011280207
-0.033769026
-0.00095570692
0.0010443941
-0.026158998
-0.00089072506
0.00097025879
-0.021696235
-0.00082485562
0.00089981587
-0.017496486
-0.00076264377
0.0008303468
-0.0078936045
-0.00070543043
0.0007685468
0.0068020427
-0.00065564744
0.00071085982
0.019567658
-0.00060958231
0.00065651991
0.027426509
-0.00056153637
0.00060171383
0.031801594
-0.00051827284
0.0005537417
0.034294444
-0.00047669567
0.00050890388
0.035786308
-0.00043966305
0.00046928999
0.036573122
-0.00040393674
0.00043211344
0.036506161
-0.00037325333
0.00039918662
0.033256912
-0.00034040623
0.00036589612
-0.00025811896
0.00028138894
0.0030405126
0.003035432
-1.4207024
0.0030307417
-1.309404
0.0030264274
-1.2068252
0.0030224423
-1.1122818
0.0030187778
-1.0251447
0.003015399
-0.94483476
0.0030122805
-0.87081565
0.0030094048
-0.80259569
0.0030067599
-0.73971986
0.0030043188
-0.68176995
0.0030020719
-0.62835935
0.0029999976
-0.57913367
0.0029980897
-0.5337642
0.0029963329
-0.4919487
0.0029947082
-0.45340894
0.0029932126
-0.41788874
0.002991831
-0.38515128
0.0029905632
-0.3549785
0.0029893941
-0.32716906
0.0029883113
-0.30153894
0.0029873191
-0.27791565
0.0029864008
-0.25614438
0.0029855546
-0.23607729
0.0029847758
-0.21758287
0.0029840577
-0.20053788
0.0029833972
-0.18482756
0.0029827888
-0.17034756
0.0029822283
-0.15700241
0.0029817072
-0.14470335
0.0029812261
-0.13336722
0.0029807825
-0.12291879
0.0029803727
-0.11328967
0.0029799893
-0.10441392
0.0029794264
-0.096234171
0.0029739829
-0.088695456
0.0029200956
-0.081746793
0.0026044386
-0.075339114
0.0011454985
-0.069424119
-0.004383863
-0.063942662
-0.013316171
-0.058838508
-0.018485659
-0.054247195
-0.014912062
-0.050126915
-0.0042769745
-0.046576676
0.0090149614
-0.043227672
0.015141105
-0.040478484
0.0067075065
-0.03785197
-0.0053858482
-0.035491056
-0.0098884299
-0.032825079
-0.010923551
-0.030209172
-0.0099973238
-0.027720589
-0.0069599741
-0.025590388
-0.0031075907
-0.023626115
0.00070131044
-0.021846661
0.004429398
-0.020224658
0.0077569121
-0.018699507
0.010283793
-0.017251336
0.011341964
-0.015955466
0.011197652
-0.014735992
0.0055108843
-0.013573027
-0.015919078
-0.011905872
-0.033492843
-0.0098110425
-0.035183155
-0.0089391301
-0.034810867
-0.0080636392
-0.034812727
-0.0073745786
-0.034767589
-0.0067005776
-0.03426892
-0.0061092394
-0.033360049
-0.0056128821
-0.031870067
-0.0051485243
-0.030446739
-0.0047294534
-0.029763989
-0.004363061
-0.029762995
-0.0040096266
-0.029998099
-0.0037185755
-0.029763187
-0.0034316125
-0.0292405
-0.0031820573
-0.029018238
-0.0029406658
-0.029068967
-0.0027192506
-0.028427721
-0.0025091589
-0.026171927
-0.0023273078
-0.02359042
-0.0021488211
-0.022195253
-0.0019919449
-0.02169827
-0.0018316353
-0.02092437
-0.0016920968
-0.019531314
-0.001571338
-0.017444141
-0.0014552375
-0.015642317
-0.0013557164
-0.018796496
-0.0012502883
-0.024743524
-0.0011438282
-0.028278414
-0.0010402688
-0.029326511
-0.00095263734
-0.025220572
-0.00088226284
-0.019486437
-0.00082603466
-0.016414188
-0.00076576787
-0.013057761
-0.00070935045
-0.0053372992
-0.00065670381
0.0061711014
-0.00061157771
0.016072017
-0.00056911571
0.02202148
-0.00052364454
0.0252117
-0.0004828849
0.027189743
-0.000443833
0.028478872
-0.00040955372
0.029363861
-0.00037673584
0.029224449
-0.00034848362
0.025460444
-0.00032041554
-0.00024452851
0.0029173352
-1.4206944
0.0029099229
-1.3093966
0.002903083
-1.2068183
0.002896782
-1.1122755
0.0028909751
-1.0251389
0.0028856213
-0.94482941
0.0028806907
-0.87081073
0.002876146
-0.80259123
0.00287195
-0.73971566
0.0028680912
-0.68176608
0.0028645354
-0.62835579
0.0028612511
-0.57913039
0.0028582314
-0.53376117
0.0028554445
-0.49194589
0.002852875
-0.45340635
0.0028505041
-0.41788636
0.0028483218
-0.38514909
0.0028463141
-0.35497649
0.0028444536
-0.32716719
0.0028427512
-0.30153724
0.0028411778
-0.27791408
0.0028397194
-0.25614291
0.0028383863
-0.23607594
0.0028371529
-0.21758163
0.002836017
-0.20053673
0.0028349705
-0.1848265
0.0028340068
-0.17034659
0.0028331187
-0.15700152
0.0028322968
-0.14470253
0.0028315371
-0.13336646
0.0028308378
-0.1229181
0.0028301916
-0.11328902
0.0028295896
-0.10441333
0.002828866
-0.096233627
0.0028235603
-0.088694982
0.0027699186
-0.081746585
0.0024550306
-0.075339484
0.00098666338
-0.069425573
-0.0045977786
-0.063950983
-0.013614497
-0.0589173
-0.018902315
-0.054411485
-0.015546964
-0.05026211
-0.0051179454
-0.04662022
0.007739614
-0.043137923
0.013622893
-0.040205567
0.0050347085
-0.037524105
-0.0064516032
-0.035123104
-0.010412601
-0.032541934
-0.011452795
-0.02995954
-0.010295946
-0.027467341
-0.0071655846
-0.025430426
-0.0033738069
-0.023511087
0.00037978309
-0.021759521
0.0040298796
-0.020141547
0.007211697
-0.018612419
0.0095308293
-0.017208781
0.010539097
-0.015876752
0.010356513
-0.01464526
0.0027985501
-0.013494662
-0.019123271
-0.011671972
-0.035275025
-0.0096698032
-0.036843416
-0.0088083037
-0.03682346
-0.0079173376
-0.037334909
-0.0072238448
-0.037702331
-0.0065465455
-0.037693032
-0.0059440255
-0.037389415
-0.0054333943
-0.036691603
-0.004949596
-0.036162984
-0.004523943
-0.036265663
-0.0041305025
-0.036771245
-0.0037612616
-0.037148954
-0.0034520299
-0.036958192
-0.0031631134
-0.036474388
-0.0029057733
-0.036223713
-0.0026726161
-0.03634004
-0.0024479742
-0.036477479
-0.0022500373
-0.036230716
-0.0020688997
-0.036113231
-0.0019039642
-0.036860938
-0.0017527903
-0.037566636
-0.001608976
-0.03604562
-0.0014836062
-0.032075738
-0.0013771372
-0.027321051
-0.0012811434
-0.024126055
-0.0011933532
-0.029054615
-0.0010987672
-0.038060864
-0.00099669247
-0.04338827
-0.00090318259
-0.045304533
-0.0008229534
-0.040353778
-0.00076309007
-0.032513819
-0.00071873074
-0.027440865
-0.00066899819
-0.022164764
-0.0006212119
-0.010866768
-0.00057678308
0.0059948278
-0.00054000188
0.020594808
-0.00050478056
0.029692836
-0.0004627759
0.034658676
-0.00042601766
0.037555741
-0.00039053276
0.039340868
-0.00035962098
0.040441391
-0.00032947543
0.040766696
-0.00030438861
0.037764841
-0.00028135717
-0.00022675257
0.002826791
-1.4206832
0.0028164523
-1.3093863
0.0028069318
-1.2068088
0.0027981573
-1.1122667
0.002790062
-1.0251308
0.0027826021
-0.94482195
0.0027757257
-0.87080385
0.0027693932
-0.80258491
0.0027635582
-0.7397099
0.0027581735
-0.68176071
0.0027532128
-0.62835082
0.002748648
-0.57912582
0.0027444355
-0.53375696
0.0027405473
-0.49194199
0.0027369666
-0.45340277
0.0027336721
-0.41788306
0.002730636
-0.38514605
0.0027278295
-0.35497367
0.0027252525
-0.3271646
0.0027228661
-0.30153484
0.0027206693
-0.27791187
0.0027186513
-0.25614088
0.0027167864
-0.23607407
0.0027150684
-0.2175799
0.0027134858
-0.20053514
0.0027120266
-0.18482504
0.002710683
-0.17034525
0.0027094452
-0.15700028
0.0027083021
-0.14470139
0.0027072451
-0.13336541
0.0027062721
-0.12291712
0.0027053736
-0.11328813
0.0027045381
-0.10441251
0.0027036225
-0.096232868
0.0026982521
-0.088694269
0.0026447987
-0.081745971
0.0023294073
-0.075339298
0.00082317952
-0.069427418
-0.004958295
-0.063964675
-0.014065649
-0.059003908
-0.019217771
-0.054619357
-0.015814984
-0.050519539
-0.00542194
-0.046914633
0.0072060755
-0.043223409
0.012829812
-0.04004493
0.0029694535
-0.037271936
-0.0085555597
-0.034735358
-0.011333816
-0.032242889
-0.012019874
-0.029748916
-0.010665658
-0.027308531
-0.0074595651
-0.025271143
-0.0036447104
-0.023360357
0.00020103094
-0.021624424
0.0038296962
-0.020016497
0.0069628758
-0.018492557
0.0093399475
-0.017090327
0.010396956
-0.015771483
0.010274184
-0.014547583
0.0011299351
-0.013403223
-0.021054106
-0.011414716
-0.035424122
-0.0094310507
-0.036458804
-0.0086155364
-0.036430502
-0.0077643174
-0.036974064
-0.0070857239
-0.037298432
-0.0064182365
-0.037257034
-0.0058250543
-0.036919994
-0.0053124935
-0.036132817
-0.0048234402
-0.035642706
-0.0043984453
-0.036050968
-0.0039949665
-0.036826242
-0.0036291515
-0.037245332
-0.0033109413
-0.036785325
-0.0030179669
-0.035926838
-0.0027548542
-0.035610256
-0.0025241613
-0.036159407
-0.002297373
-0.036825286
-0.0020995724
-0.037000009
-0.0019168818
-0.037740527
-0.0017541437
-0.039288937
-0.0016015837
-0.040358916
-0.00146429
-0.039198724
-0.0013438241
-0.034997918
-0.0012345791
-0.029354481
-0.001148875
-0.02547894
-0.0010628052
-0.03106141
-0.00097509663
-0.041555641
-0.00087552241
-0.047843292
-0.00079101603
-0.050190613
-0.00071768265
-0.044989086
-0.0006636314
-0.036289991
-0.0006224288
-0.030298384
-0.00057988389
-0.024405112
-0.00053600302
-0.011611211
-0.00049746433
0.0074764661
-0.00046245174
0.023526629
-0.0004361361
0.033465567
-0.00040025101
0.03871415
-0.00036964563
0.041784412
-0.00033918159
0.043729937
-0.00031356697
0.044912034
-0.00028806633
0.045302535
-0.00026711446
0.042370299
-0.00024725751
-0.0002014327
0.0027625867
-1.4206686
0.002749131
-1.3093728
0.0027367266
-1.2067964
0.0027252894
-1.1122553
0.0027147588
-1.0251203
0.0027050468
-0.94481224
0.0026960946
-0.8707949
0.0026878435
-0.80257666
0.0026802416
-0.73970231
0.0026732308
-0.68175377
0.0026667751
-0.62834442
0.0026608225
-0.57911986
0.0026553362
-0.53375145
0.0026502804
-0.49193693
0.002645621
-0.45339811
0.0026413227
-0.41787877
0.0026373587
-0.38514208
0.0026337117
-0.35497002
0.0026303471
-0.32716123
0.0026272514
-0.30153174
0.0026243979
-0.27790901
0.0026217611
-0.25613824
0.002619332
-0.23607164
0.0026170955
-0.21757766
0.002615033
-0.20053308
0.0026131339
-0.18482314
0.0026113841
-0.17034349
0.0026097718
-0.15699866
0.002608282
-0.14469989
0.0026069072
-0.13336403
0.0026056418
-0.12291586
0.0026044723
-0.11328696
0.0026033902
-0.10441143
0.0026022682
-0.096231878
0.0025967866
-0.088693367
0.0025434852
-0.081745168
0.0022266786
-0.075338782
0.0006772867
-0.069427804
-0.0053351868
-0.063975253
-0.014593773
-0.059091371
-0.019651062
-0.0548226
-0.016045016
-0.050786773
-0.0056269348
-0.047297944
0.0068923527
-0.043529915
0.01245197
-0.040145036
0.0019991683
-0.037233975
-0.0099835794
-0.03458695
-0.012696803
-0.03203848
-0.013021913
-0.029498795
-0.011215536
-0.027120339
-0.0077311151
-0.025133058
-0.0039585488
-0.023250916
-0.0001338628
-0.021545618
0.0035725898
-0.019930184
0.0066279525
-0.018412991
0.008872904
-0.017005825
0.0099414205
-0.015692923
0.0098262247
-0.014459107
-0.00055754625
-0.013317056
-0.022739363
-0.011193133
-0.03577261
-0.0090623964
-0.036460851
-0.0082499346
-0.036405236
-0.0074556158
-0.036823534
-0.0068143735
-0.037087591
-0.0061963138
-0.037086724
-0.0056494338
-0.036764124
-0.0051708928
-0.036026844
-0.0047110211
-0.035610324
-0.004306755
-0.036117998
-0.0039301549
-0.037010964
-0.0035689806
-0.037504243
-0.0032676335
-0.037083821
-0.0029837728
-0.036157948
-0.0027174525
-0.035671231
-0.0024993784
-0.036132706
-0.0022813417
-0.036820204
-0.0020793747
-0.037257569
-0.0019043759
-0.038565888
-0.0017424966
-0.040645934
-0.0015879697
-0.041996103
-0.0014524542
-0.040823137
-0.0013313571
-0.03607058
-0.0012201426
-0.029490612
-0.0011351997
-0.02497631
-0.0010490059
-0.03142637
-0.00096264908
-0.043282567
-0.00086470888
-0.050206525
-0.00078084915
-0.052798342
-0.00070771878
-0.047423845
-0.00065344392
-0.038188357
-0.0006111216
-0.031588554
-0.00056951053
-0.025228058
-0.00052526528
-0.011530382
-0.0004875796
0.0086548202
-0.00045239034
0.025271203
-0.00042740956
0.035576572
-0.00039215205
0.040925549
-0.00036238084
0.04409674
-0.0003324835
0.046159752
-0.00030752211
0.047364795
-0.0002823657
0.047866498
-0.00026197834
0.044991811
-0.00024260889
-0.00019789035
0.002723775
-1.4206503
0.0027069582
-1.309356
0.0026914666
-1.2067809
0.0026771836
-1.112241
0.00266402
-1.0251071
0.0026518893
-0.94480011
0.0026407098
-0.87078372
0.0026304062
-0.80256636
0.0026209041
-0.73969281
0.0026121549
-0.68174503
0.0026040851
-0.62833638
0.0025966491
-0.57911249
0.0025898013
-0.53374466
0.0025834863
-0.49193063
0.0025776616
-0.45339228
0.0025722954
-0.41787338
0.0025673517
-0.38513713
0.0025627946
-0.35496546
0.0025585936
-0.32715703
0.0025547181
-0.30152786
0.0025511469
-0.27790544
0.0025478602
-0.25613496
0.002544829
-0.23606861
0.0025420344
-0.21757487
0.0025394592
-0.2005305
0.0025370859
-0.18482076
0.0025349001
-0.1703413
0.002532885
-0.15699664
0.0025310258
-0.14469803
0.0025293084
-0.13336232
0.0025277289
-0.12291428
0.0025262699
-0.11328551
0.0025249187
-0.10441009
0.0025235667
-0.096230639
0.0025179483
-0.088692236
0.0024647759
-0.081744141
0.0021457118
-0.075337915
0.00053360192
-0.069427822
-0.0058174129
-0.063986622
-0.015308593
-0.059196749
-0.020243089
-0.055046381
-0.016335262
-0.051072498
-0.0055697368
-0.047695893
0.0069674927
-0.043868099
0.012364477
-0.040403684
0.0013606023
-0.037361113
-0.01088944
-0.034662823
-0.013470783
-0.032101001
-0.013676565
-0.029493909
-0.011693703
-0.02710266
-0.0081128883
-0.025088853
-0.0042107586
-0.02317869
-0.00022635769
-0.021481697
0.0034525517
-0.019872916
0.0064653654
-0.018359929
0.0087974209
-0.016957414
0.010074439
-0.015639296
0.010107174
-0.014388236
-9.7608782e-05
-0.013247837
-0.022635724
-0.011107232
-0.036135504
-0.008759108
-0.036794148
-0.0078962952
-0.036532975
-0.0070770111
-0.036680969
-0.0064539155
-0.03673337
-0.0058533273
-0.036511384
-0.0053308503
-0.035919537
-0.0048849536
-0.035090886
-0.0044488741
-0.034582202
-0.0040707433
-0.034949543
-0.0037194982
-0.03579947
-0.0033837879
-0.036335412
-0.0031064158
-0.036088321
-0.0028443526
-0.035279215
-0.0025916489
-0.034724049
-0.0023911691
-0.034963032
-0.0021902098
-0.035440741
-0.001997432
-0.035554806
-0.0018355728
-0.036198241
-0.0016812927
-0.037816102
-0.001535901
-0.039028342
-0.0014063118
-0.038011959
-0.0012904849
-0.033707165
-0.0011855538
-0.027619454
-0.0011025913
-0.02341945
-0.0010206341
-0.029140539
-0.00093731022
-0.040090691
-0.00084473919
-0.046914776
-0.00076384588
-0.049650171
-0.00069265161
-0.044829253
-0.00063947263
-0.036342242
-0.00059819087
-0.030559518
-0.00055731621
-0.025092511
-0.00051420783
-0.012557624
-0.00047702957
0.0067204532
-0.00044323232
0.023195448
-0.0004180955
0.033297087
-0.00038326858
0.038545778
-0.00035391403
0.041600405
-0.000324586
0.043539284
-0.00030005267
0.044703383
-0.00027538615
0.045112775
-0.0002554159
0.042219946
-0.00023645948
-0.00019242868
0.0027095728
0.0026891649
-1.3093356
0.0026703415
-1.2067621
0.0026530048
-1.1122237
0.0026370158
-1.0250911
0.002622286
-0.94478538
0.002608713
-0.87077015
0.0025961948
-0.80255384
0.0025846673
-0.73968128
0.0025740387
-0.6817344
0.002564242
-0.62832659
0.0025552156
-0.57910348
0.0025468878
-0.53373636
0.0025392164
-0.49192301
0.0025321491
-0.45338527
0.0025256376
-0.41786692
0.0025196244
-0.38513115
0.0025140923
-0.35495995
0.0025089911
-0.32715194
0.0025042924
-0.30152317
0.0024999575
-0.2779011
0.0024959613
-0.25613096
0.002492279
-0.23606492
0.002488886
-0.21757147
0.002485759
-0.20052737
0.0024828767
-0.18481788
0.0024802225
-0.17033864
0.0024777753
-0.15699419
0.0024755169
-0.14469578
0.002473434
-0.13336024
0.0024715148
-0.12291236
0.0024697448
-0.11328374
0.0024681078
-0.10440846
0.0024664914
-0.096229138
0.0024607597
-0.088690838
0.0024076759
-0.081742877
0.0020854999
-0.07533688
0.00039680895
-0.069427567
-0.0063496105
-0.063999901
-0.016115173
-0.059307335
-0.020932662
-0.055271785
-0.016705614
-0.051367659
-0.0056826816
-0.04812581
0.0071481798
-0.044218894
0.012753786
-0.04067414
0.0010497999
-0.037576378
-0.011752631
-0.034814822
-0.014212629
-0.032249415
-0.01419449
-0.029611802
-0.012074303
-0.027246947
-0.0084153494
-0.025238668
-0.0045020777
-0.023289278
-0.00043637885
-0.021566839
0.0033257775
-0.019939052
0.0063626295
-0.018413301
0.0087200022
-0.016989667
0.010105858
-0.015667972
0.010258286
-0.014406233
0.0010304145
-0.013262481
-0.021705475
-0.011253628
-0.0363923
-0.0087593572
-0.03729038
-0.0078316373
-0.037125354
-0.0069482978
-0.037556304
-0.0063053118
-0.037657076
-0.0056700827
-0.037487632
-0.0051261462
-0.036995132
-0.0046800508
-0.036077434
-0.0042352488
-0.035547901
-0.0038630244
-0.036021592
-0.0035012214
-0.036884824
-0.0031906229
-0.037370108
-0.0029150419
-0.037065113
-0.0026671413
-0.036149981
-0.0024266442
-0.035491974
-0.0022367982
-0.035568312
-0.0020468032
-0.03593286
-0.0018650923
-0.036088988
-0.0017140053
-0.036890365
-0.0015686142
-0.038636161
-0.0014351608
-0.039886598
-0.0013127741
-0.038834202
-0.0012051075
-0.034262341
-0.0011076922
-0.0277293
-0.0010306095
-0.023213762
-0.00095453081
-0.02912641
-0.00087650407
-0.040472369
-0.00078972106
-0.047571742
-0.0007139958
-0.050458875
-0.00064681475
-0.045606385
-0.00059714777
-0.036689199
-0.00055940347
-0.030490514
-0.00052161215
-0.02491929
-0.00048146985
-0.012356551
-0.00044637849
0.0071346225
-0.00041473065
0.023866036
-0.00039130529
0.034085105
-0.00035835649
0.039382192
-0.00033078484
0.042480402
-0.00030320274
0.044477553
-0.00028020872
0.04565234
-0.00025699358
0.046095034
-0.00023835567
0.043210114
-0.00022081395
-0.00018022582
0.0026951494
-1.3093113
0.0026727567
-1.2067397
0.0026521218
-1.1122031
0.0026331077
-1.0250721
0.0026155783
-0.94476785
0.0025994185
-0.87075399
0.0025845264
-0.80253895
0.0025708019
-0.73966756
0.0025581541
-0.68172175
0.0025464939
-0.62831493
0.0025357517
-0.57909273
0.0025258493
-0.53372646
0.0025167285
-0.4919139
0.0025083116
-0.45337686
0.0025005569
-0.41785919
0.0024934122
-0.38512404
0.0024868259
-0.3549534
0.0024807526
-0.3271459
0.0024751613
-0.30151761
0.0024700015
-0.27789598
0.0024652495
-0.25612623
0.0024608694
-0.23606057
0.0024568319
-0.21756745
0.0024531101
-0.20052366
0.0024496806
-0.18481446
0.00244652
-0.17033548
0.0024436087
-0.15699128
0.0024409227
-0.14469309
0.0024384437
-0.13335776
0.0024361606
-0.12291008
0.0024340555
-0.11328164
0.0024321094
-0.10440652
0.0024302144
-0.096227353
0.0024243273
-0.088689195
0.0023712722
-0.081741379
0.00204494
-0.075335612
0.00025515852
-0.069427201
-0.0070016487
-0.064013711
-0.017110883
-0.059431878
-0.021776645
-0.055503996
-0.017131354
-0.051661032
-0.0057012582
-0.048534637
0.0073924415
-0.044565964
0.013197841
-0.040958371
0.00096979512
-0.037812154
-0.012454491
-0.035013178
-0.014933759
-0.032435677
-0.014751923
-0.029788054
-0.012369815
-0.027434994
-0.0085655622
-0.025411909
-0.004676024
-0.023444325
-0.00057997131
-0.021715877
0.003279271
-0.02007392
0.0063419428
-0.018536233
0.0088198288
-0.017096107
0.010440918
-0.015761564
0.010747703
-0.014492669
0.0023871414
-0.013344964
-0.020583539
-0.011442841
-0.035952724
-0.0090307481
-0.037152751
-0.0080663795
-0.036997293
-0.0071124186
-0.03750325
-0.0064314684
-0.037601399
-0.0057594216
-0.037407794
-0.0051701457
-0.036957293
-0.0047039455
-0.03604996
-0.0042331723
-0.035583647
-0.0038526893
-0.036149208
-0.0034694098
-0.037102464
-0.00315058
-0.037664758
-0.0028661927
-0.037418595
-0.002614199
-0.036501879
-0.0023695429
-0.035777535
-0.0021798581
-0.03584375
-0.0019862848
-0.036218459
-0.0018067336
-0.036358796
-0.0016555481
-0.037159246
-0.001512753
-0.038958565
-0.0013813052
-0.040263172
-0.0012617311
-0.039351551
-0.0011570142
-0.034766556
-0.0010607259
-0.02793072
-0.00098754014
-0.023159316
-0.00091282334
-0.028907321
-0.00083763628
-0.040395772
-0.00075281404
-0.047923324
-0.00068020361
-0.051116861
-0.00061508044
-0.046465691
-0.00056758848
-0.03711353
-0.00053174983
-0.030466492
-0.00049632945
-0.024915595
-0.00045765298
-0.012538793
-0.00042412362
0.0071299586
-0.00039319199
0.024330089
-0.00037174445
0.034680983
-0.00034021424
0.040012867
-0.00031410779
0.043139423
-0.00028785924
0.045160956
-0.00026616207
0.046351718
-0.00024416427
0.046818876
-0.00022656316
0.043948773
-0.00020998533
-0.00017198457
0.00272451
-1.3092828
0.0026982748
-1.2067134
0.0026740915
-1.1121789
0.0026517977
-1.0250498
0.0026312539
-0.9447473
0.0026123179
-0.87073505
0.0025948714
-0.8025215
0.0025787865
-0.73965147
0.0025639567
-0.68170692
0.0025502977
-0.62830127
0.0025377023
-0.57908014
0.0025261005
-0.53371486
0.0025154009
-0.4919032
0.0025055433
-0.45336701
0.0024964591
-0.41785011
0.0024880832
-0.38511566
0.0024803606
-0.35494568
0.0024732528
-0.3271388
0.0024666895
-0.30151106
0.0024606525
-0.27788995
0.0024550803
-0.25612068
0.0024499452
-0.23605545
0.0024452135
-0.21756274
0.0024408524
-0.20051932
0.0024368328
-0.18481045
0.0024331299
-0.1703318
0.0024297179
-0.15698788
0.0024265699
-0.14468995
0.0024236639
-0.13335487
0.0024209896
-0.12290741
0.0024185223
-0.11327917
0.0024162428
-0.10440425
0.0024140579
-0.09622526
0.0024080004
-0.088687277
0.002354925
-0.08173961
0.0020235584
-0.075334077
0.00010984085
-0.069426408
-0.0077427585
-0.064028682
-0.018239979
-0.059569607
-0.022737669
-0.055727056
-0.017656704
-0.051975101
-0.0057679626
-0.048953927
0.0077235774
-0.04489761
0.013766456
-0.041233535
0.00080867696
-0.038033466
-0.013255891
-0.035222616
-0.015661728
-0.032644689
-0.015318377
-0.029968662
-0.012674334
-0.027636359
-0.0087239268
-0.025595018
-0.004768127
-0.023599833
-0.00056214091
-0.021865804
0.0033640592
-0.020210961
0.006460877
-0.018660052
0.0089878346
-0.017212499
0.010766117
-0.015866268
0.011186675
-0.014583585
0.0025252727
-0.013427551
-0.020518568
-0.011515165
-0.035592242
-0.0094173871
-0.036796534
-0.0085011045
-0.036836354
-0.0075663138
-0.037552145
-0.0068495797
-0.037702748
-0.0061571438
-0.037500229
-0.005517233
-0.037096329
-0.0049984759
-0.036217342
-0.0044856145
-0.035799034
-0.0040611876
-0.036465752
-0.0036516437
-0.037550136
-0.0032930015
-0.038218594
-0.0029827199
-0.038009445
-0.0027072497
-0.037054968
-0.0024492743
-0.036262014
-0.0022410869
-0.036243739
-0.0020321464
-0.036569491
-0.0018475904
-0.036717792
-0.001683693
-0.037561392
-0.0015355063
-0.039433465
-0.0013985504
-0.040799131
-0.0012749731
-0.039999438
-0.0011673686
-0.035303402
-0.0010659938
-0.027972303
-0.00099273005
-0.022761785
-0.00091492233
-0.028585459
-0.00083889168
-0.04060674
-0.00075153005
-0.048633084
-0.00067847626
-0.052073326
-0.00061203648
-0.047476294
-0.00056420679
-0.037614795
-0.00052794094
-0.030447364
-0.00049336462
-0.02479629
-0.00045389306
-0.012407449
-0.00042041315
0.0075347469
-0.00038813899
0.025116053
-0.00036812699
0.035603994
-0.00033676982
0.04098176
-0.00031108434
0.044173798
-0.0002850964
0.046209372
-0.00026379622
0.0474475
-0.00024207665
0.047955353
-0.00022475765
0.045140547
-0.00020838088
-0.00017127729
0.0027770153
-1.3092498
0.0027466181
-1.2066831
0.0027186066
-1.1121509
0.0026927895
-1.025024
0.0026689973
-0.94472351
0.0026470688
-0.87071312
0.0026268538
-0.80250129
0.002608223
-0.73963284
0.0025910568
-0.68168975
0.0025752339
-0.62828544
0.0025606553
-0.57906556
0.0025472105
-0.53370141
0.0025348197
-0.49189081
0.0025234059
-0.45335559
0.0025128739
-0.41783957
0.0025031773
-0.38510597
0.002494241
-0.35493674
0.0024859972
-0.32713056
0.002478405
-0.30150347
0.0024714059
-0.27788295
0.002464953
-0.25611423
0.0024590074
-0.2360495
0.0024535268
-0.21755726
0.0024484757
-0.20051427
0.0024438207
-0.1848058
0.0024395311
-0.17032751
0.0024355783
-0.15698393
0.0024319333
-0.14468632
0.0024285702
-0.13335152
0.0024254718
-0.12290432
0.0024226155
-0.11327633
0.0024199746
-0.10440163
0.002417468
-0.096222839
0.0024112035
-0.088685043
0.0023580142
-0.08173758
0.0020206781
-0.075332239
-4.5599085e-05
-0.069425121
-0.0086033028
-0.064045224
-0.019522562
-0.059718422
-0.023800093
-0.055934232
-0.018216878
-0.052308759
-0.0058886721
-0.049362714
0.0080536404
-0.045218683
0.0145232
-0.041483529
0.00090834382
-0.03824342
-0.013988923
-0.035397911
-0.016420631
-0.032819254
-0.015900763
-0.030134148
-0.012993394
-0.027844157
-0.0089211165
-0.02579324
-0.0049407294
-0.023768789
-0.00064392344
-0.022030193
0.0033869865
-0.020365644
0.0065545245
-0.018801534
0.009210207
-0.017338609
0.011202557
-0.015980855
0.011719515
-0.01467977
0.00066272859
-0.013502307
-0.022603757
-0.011384188
-0.035084624
-0.0096342684
-0.035868819
-0.0087655786
-0.03603738
-0.0079354425
-0.036595785
-0.0072352965
-0.036832737
-0.0065662969
-0.036807747
-0.0059450333
-0.036469532
-0.0054066983
-0.035684177
-0.0048886026
-0.035383349
-0.0044446774
-0.036126146
-0.0040231995
-0.037361635
-0.0036410541
-0.038201841
-0.0033061745
-0.038058129
-0.0030071439
-0.037090157
-0.0027256808
-0.036316697
-0.0024959036
-0.03638965
-0.0022665795
-0.036777011
-0.0020616877
-0.036974125
-0.0018797007
-0.037818501
-0.0017151292
-0.039738082
-0.0015582366
-0.041190055
-0.0014205947
-0.040598059
-0.0012993054
-0.035967885
-0.0011837093
-0.028352896
-0.0011019611
-0.022864544
-0.0010138763
-0.028363616
-0.00092952889
-0.040513229
-0.00083225504
-0.049041246
-0.00075121166
-0.052784031
-0.00067682826
-0.048390506
-0.00062336239
-0.038030441
-0.00058209834
-0.030304925
-0.00054431339
-0.024634572
-0.000499664
-0.012503502
-0.00046263209
0.007555741
-0.00042560968
0.025627019
-0.00040366554
0.036233389
-0.00036910672
0.04164499
-0.00034088254
0.044871382
-0.00031251589
0.046916103
-0.00028927031
0.048177714
-0.00026577533
0.048698798
-0.00024687669
0.045915472
-0.00022905965
-0.00018858573
0.002852542
0.0028176769
-1.2066482
0.0027855395
-1.1121187
0.0027559192
-1.0249944
0.0027286197
-0.94469621
0.0027034562
-0.87068796
0.0026802682
-0.8024781
0.0026588961
-0.73961147
0.002639198
-0.68167006
0.0026210419
-0.62826729
0.0026043074
-0.57904882
0.0025888891
-0.53368599
0.0025746768
-0.49187659
0.002561572
-0.45334249
0.0025494968
-0.4178275
0.0025383703
-0.38509484
0.0025281103
-0.35492648
0.0025186573
-0.32712111
0.0025099457
-0.30149475
0.0025019147
-0.27787492
0.0024945141
-0.25610683
0.0024876924
-0.23604268
0.002481405
-0.21755097
0.0024756097
-0.20050848
0.0024702689
-0.18480046
0.0024653474
-0.17032259
0.0024608124
-0.15697939
0.0024566301
-0.14468214
0.0024527724
-0.13334767
0.0024492175
-0.12290077
0.0024459409
-0.11327306
0.0024429139
-0.10439861
0.0024400433
-0.096220062
0.0024335555
-0.088682482
0.002380112
-0.081735233
0.0020359497
-0.075330102
-0.00021091958
-0.069423558
-0.00958393
-0.064063452