/*--------------------------------*- C++ -*----------------------------------*\
| =========                 |                                                 |
| \\      /  F ield         | OpenFOAM: The Open Source CFD Toolbox           |
|  \\    /   O peration     | Version:  2506                                  |
|   \\  /    A nd           | Website:  www.openfoam.com                      |
|    \\/     M anipulation  |                                                 |
\*---------------------------------------------------------------------------*/
FoamFile
{
    version     2.0;
    format      ascii;
    arch        "LSB;label=32;scalar=64";
    class       volVectorField;
    location    "0.00029";
    object      wallShearStress;
}
// * * * * * * * * * * * * * * * * * * * * * * * * * * * * * * * * * * * * * //

dimensions      [1 -1 -2 0 0 0 0];

internalField   uniform (0 0 0);

boundaryField
{
    Side
    {
        type            empty;
    }
    Inlet
    {
        type            calculated;
        value           nonuniform List<vector> 0();
    }
    Airfoil
    {
        type            calculated;
        value           nonuniform List<vector> 
29
(
(-3760.4458 36.1289 2.1623281e-18)
(-3722.7717 79.290306 8.2978614e-23)
(-3726.5329 11.756249 -9.2471908e-23)
(-3859.7144 -142.30762 9.2461481e-23)
(-4076.4234 -25.467325 2.3541332e-18)
(-4127.0648 286.56136 -7.386673e-23)
(-4260.5597 349.63344 -1.8882197e-18)
(-3640.4031 961.59578 0)
(-2901.5771 858.76148 -9.9524347e-19)
(-585.62878 209.24742 1.551573e-23)
(-948.24967 -204.4661 5.7364379e-19)
(156.85411 -991.56191 5.2871574e-18)
(446.68042 -1192.0751 7.5407194e-18)
(-725.08768 -1037.626 2.3112407e-18)
(-622.24718 -288.88944 0)
(-587.82574 -313.09829 -4.4922226e-23)
(-442.84783 -491.54087 4.3898364e-23)
(95.600841 -950.95871 -2.6812838e-18)
(-129.65045 -988.52836 4.8360568e-18)
(-659.30465 -611.94257 -2.2099197e-18)
(-656.37122 -465.83312 1.4434823e-18)
(-628.72517 -342.42773 4.0948231e-23)
(-640.383 -413.40962 2.8841083e-18)
(-607.26737 -520.15832 -4.6356258e-18)
(-617.68162 -538.53008 1.4056954e-18)
(-629.53666 -490.04343 8.9591765e-23)
(-585.48395 -473.37252 -4.301699e-23)
(-537.26209 -471.46316 3.9831248e-18)
(-430.76082 -453.77567 -1.4011893e-35)
)
;
    }
    Outlet
    {
        type            calculated;
        value           nonuniform List<vector> 0();
    }
    procBoundary41to5
    {
        type            processor;
        value           uniform (0 0 0);
    }
    procBoundary41to9
    {
        type            processor;
        value           uniform (0 0 0);
    }
    procBoundary41to13
    {
        type            processor;
        value           uniform (0 0 0);
    }
    procBoundary41to17
    {
        type            processor;
        value           uniform (0 0 0);
    }
    procBoundary41to37
    {
        type            processor;
        value           uniform (0 0 0);
    }
    procBoundary41to49
    {
        type            processor;
        value           uniform (0 0 0);
    }
}


// ************************************************************************* //
