/*--------------------------------*- C++ -*----------------------------------*\
| =========                 |                                                 |
| \\      /  F ield         | OpenFOAM: The Open Source CFD Toolbox           |
|  \\    /   O peration     | Version:  2506                                  |
|   \\  /    A nd           | Website:  www.openfoam.com                      |
|    \\/     M anipulation  |                                                 |
\*---------------------------------------------------------------------------*/
FoamFile
{
    version     2.0;
    format      ascii;
    arch        "LSB;label=32;scalar=64";
    class       volScalarField;
    location    "0.00029";
    object      yPlus;
}
// * * * * * * * * * * * * * * * * * * * * * * * * * * * * * * * * * * * * * //

dimensions      [0 0 0 0 0 0 0];

internalField   uniform 0;

boundaryField
{
    Side
    {
        type            empty;
    }
    Inlet
    {
        type            calculated;
        value           nonuniform List<scalar> 0();
    }
    Airfoil
    {
        type            calculated;
        value           nonuniform List<scalar> 
29
(
12.3145
12.405418
12.525256
12.416757
12.835552
13.424554
13.503679
13.556543
12.614694
5.8225578
6.3820712
4.3934782
6.8191075
6.350269
4.2827351
4.0079652
3.8878906
5.0694576
5.0836403
4.6328384
4.4520602
4.2275838
4.3590029
4.4100486
4.5213784
4.4310213
4.2934725
4.210066
3.911106
)
;
    }
    Outlet
    {
        type            calculated;
        value           nonuniform List<scalar> 0();
    }
    procBoundary41to5
    {
        type            processor;
        value           uniform 0;
    }
    procBoundary41to9
    {
        type            processor;
        value           uniform 0;
    }
    procBoundary41to13
    {
        type            processor;
        value           uniform 0;
    }
    procBoundary41to17
    {
        type            processor;
        value           uniform 0;
    }
    procBoundary41to37
    {
        type            processor;
        value           uniform 0;
    }
    procBoundary41to49
    {
        type            processor;
        value           uniform 0;
    }
}


// ************************************************************************* //
