/*--------------------------------*- C++ -*----------------------------------*\
| =========                 |                                                 |
| \\      /  F ield         | OpenFOAM: The Open Source CFD Toolbox           |
|  \\    /   O peration     | Version:  2506                                  |
|   \\  /    A nd           | Website:  www.openfoam.com                      |
|    \\/     M anipulation  |                                                 |
\*---------------------------------------------------------------------------*/
FoamFile
{
    version     2.0;
    format      ascii;
    arch        "LSB;label=32;scalar=64";
    class       volScalarField;
    location    "0.0215";
    object      p;
}
// * * * * * * * * * * * * * * * * * * * * * * * * * * * * * * * * * * * * * //

dimensions      [1 -1 -2 0 0 0 0];

internalField   nonuniform List<scalar> 
192657
(
46960.25
47138.576
46973.159
47120.535
47006.086
47093.719
46998.95
46932.347
46716.752
46468.455
46281.148
46372.762
46813.833
47271.229
47200.302
46748.509
46687.835
46821.92
46680.606
46587.742
46632.843
46546.244
46496.461
46480.71
46415.321
46377.162
46329.267
46273.571
46224.123
46164.76
46105.744
46041.717
45974.481
45903.558
45826.715
45747.452
45663.808
45574.369
45479.012
45378.322
45272.264
45160.828
45043.682
44920.542
44791.18
44655.358
44512.989
44364.055
44208.715
44047.23
43879.954
43707.367
43530.061
43348.77
43164.313
42977.601
42789.628
42601.426
42414.064
42228.597
42046.044
41867.362
41693.424
41525.001
41362.742
41207.173
41058.693
40917.575
40783.978
40657.953
40539.456
40428.361
40324.473
40227.537
40137.256
40053.298
39975.306
39902.911
39835.733
39773.401
39715.497
39661.767
39611.793
39565.263
39521.869
39481.317
39443.361
39407.768
39374.323
39342.838
39313.156
39285.139
39258.678
39233.689
39210.121
39187.966
39167.267
39148.136
39130.769
39115.425
39102.389
39091.533
39082.065
39073.5
39066.294
39060.649
39056.515
39053.761
39052.209
39051.66
39051.919
39052.802
39054.146
39055.813
39057.687
39059.678
39061.713
39063.74
39065.72
39067.626
39069.441
39071.153
39072.758
39074.254
39075.644
39076.93
39078.117
39079.21
39080.214
39081.134
39081.976
39082.744
39083.443
39084.075
39084.645
39085.156
39085.611
39086.013
39086.364
39086.667
39086.925
39087.139
39087.312
39087.448
39087.549
39087.625
39087.685
39087.739
39087.793
46960.119
47138.747
46973.089
47120.587
47006.124
47093.897
46999.601
46933.7
46719.007
46470.74
46281.837
46369.857
46808.993
47268.304
47203.639
46751.498
46686.639
46821.514
46682.226
46587.682
46632.908
46547.107
46496.655
46481.182
46415.892
46377.629
46329.927
46274.228
46224.852
46165.589
46106.654
46042.754
45975.624
45904.843
45828.139
45749.028
45665.562
45576.31
45481.133
45380.635
45274.768
45163.521
45046.57
44923.617
44794.43
44658.76
44516.511
44367.654
44212.336
44050.806
43883.404
43710.596
43532.962
43351.222
43166.185
42978.754
42789.917
42600.703
42412.185
42225.425
42041.449
41861.229
41685.653
41515.511
41351.47
41194.078
41043.751
40900.784
40765.351
40637.521
40517.265
40404.469
40298.952
40200.469
40108.733
40023.422
39944.187
39870.669
39802.496
39739.299
39680.703
39626.404
39576.041
39529.261
39485.849
39445.479
39407.911
39372.928
39340.326
39309.928
39281.583
39255.159
39230.541
39207.63
39186.341
39166.588
39148.289
39131.348
39115.647
39101.025
39087.317
39074.278
39061.887
39050.255
39039.519
39029.585
39020.351
39011.775
39003.842
38996.549
38989.894
38983.873
38978.474
38973.68
38969.463
38965.789
38962.621
38959.915
38957.63
38955.722
38954.148
38952.869
38951.845
38951.043
38950.43
38949.978
38949.659
38949.453
38949.338
38949.296
38949.312
38949.373
38949.467
38949.585
38949.718
38949.86
38950.004
38950.146
38950.282
38950.408
38950.522
38950.621
38950.702
38950.763
38950.801
38950.823
38950.834
38950.842
38950.847
46959.98
47138.925
46973.016
47120.64
47006.164
47094.079
47000.27
46935.09
46721.335
46473.114
46282.575
46366.898
46803.974
47265.263
47207.007
46754.658
46685.418
46821.073
46683.9
46587.634
46632.964
46548.001
46496.859
46481.665
46416.483
46378.109
46330.605
46274.904
46225.602
46166.441
46107.589
46043.819
45976.797
45906.159
45829.598
45750.641
45667.357
45578.295
45483.299
45383.006
45277.324
45166.276
45049.526
44926.768
44797.763
44662.253
44520.134
44371.365
44216.082
44054.52
43887.005
43713.992
43536.045
43353.872
43168.272
42980.137
42790.45
42600.238
42410.576
42222.53
42037.137
41855.381
41678.164
41506.297
41340.464
41181.234
41029.042
40884.204
40746.911
40617.249
40495.205
40380.681
40273.506
40173.451
40080.238
39993.557
39913.071
39838.43
39769.274
39705.247
39645.992
39591.188
39540.498
39493.607
39450.256
39410.166
39373.096
39338.819
39307.154
39277.913
39250.935
39226.073
39203.197
39182.186
39162.925
39145.307
39129.227
39114.588
39101.299
39089.271
39078.451
39068.74
39060.25
39053.117
39047.425
39043.032
39039.723
39037.323
39035.67
39034.618
39034.04
39033.824
39033.878
39034.126
39034.508
39034.977
39035.497
39036.042
39036.593
39037.136
39037.662
39038.166
39038.644
39039.094
39039.516
39039.909
39040.276
39040.616
39040.931
39041.221
39041.489
39041.734
39041.959
39042.164
39042.349
39042.517
39042.666
39042.799
39042.916
39043.017
39043.103
39043.174
39043.231
39043.274
39043.304
39043.323
39043.337
39043.347
39043.356
46959.833
47139.11
46972.942
47120.695
47006.205
47094.262
47000.956
46936.514
46723.734
46475.575
46283.368
46363.892
46798.779
47262.098
47210.405
46757.99
46684.175
46820.594
46685.626
46587.599
46633.008
46548.926
46497.074
46482.159
46417.095
46378.602
46331.303
46275.601
46226.371
46167.316
46108.547
46044.91
45977.998
45907.507
45831.091
45752.291
45669.191
45580.323
45485.513
45385.425
45279.934
45169.091
45052.549
44929.992
44801.177
44665.836
44523.857
44375.186
44219.948
44058.368
43890.755
43717.552
43539.309
43356.72
43170.573
42981.752
42791.231
42600.037
42409.243
42219.922
42033.119
41849.832
41670.975
41497.379
41329.746
41168.666
41014.595
40867.865
40728.689
40597.17
40473.31
40357.027
40248.166
40146.508
40051.791
39963.714
39881.956
39806.175
39736.026
39671.162
39611.242
39555.941
39504.941
39457.939
39414.663
39374.848
39338.25
39304.644
39273.83
39245.616
39219.823
39196.286
39174.85
39155.368
39137.698
39121.705
39107.261
39094.235
39082.505
39071.949
39062.465
39053.917
39046.409
39039.959
39034.454
39029.77
39025.754
39022.31
39019.358
39016.828
39014.667
39012.83
39011.278
39009.977
39008.897
39008.01
39007.291
39006.718
39006.27
39005.93
39005.68
39005.506
39005.396
39005.338
39005.323
39005.343
39005.389
39005.457
39005.54
39005.635
39005.736
39005.841
39005.947
39006.052
39006.154
39006.251
39006.342
39006.426
39006.502
39006.569
39006.627
39006.675
39006.713
39006.74
39006.757
39006.766
39006.77
39006.772
39006.772
46959.677
47139.303
46972.864
47120.752
47006.248
47094.448
47001.659
46937.974
46726.207
46478.129
46284.217
46360.84
46793.399
47258.804
47213.844
46761.491
46682.91
46820.075
46687.408
46587.579
46633.041
46549.883
46497.301
46482.663
46417.727
46379.11
46332.021
46276.317
46227.16
46168.213
46109.529
46046.029
45979.229
45908.887
45832.619
45753.978
45671.065
45582.394
45487.781
45387.89
45282.6
45171.968
45055.639
44933.29
44804.672
44669.509
44527.678
44379.116
44223.936
44062.349
43894.653
43721.274
43542.751
43359.763
43173.086
42983.594
42792.257
42600.094
42408.182
42217.596
42029.391
41844.574
41664.079
41488.749
41319.308
41156.366
41000.397
40851.756
40710.673
40577.269
40451.565
40333.491
40222.91
40119.615
40023.358
39933.853
39850.787
39773.834
39702.658
39636.922
39576.297
39520.46
39469.102
39421.924
39378.65
39339.012
39302.763
39269.668
39239.51
39212.08
39187.182
39164.63
39144.248
39125.867
39109.326
39094.472
39081.16
39069.256
39058.631
39049.169
39040.776
39033.358
39027.055
39021.885
39017.633
39014.212
39011.449
39009.241
39007.495
39006.131
39005.077
39004.276
39003.679
39003.244
39002.938
39002.733
39002.606
39002.539
39002.519
39002.534
39002.577
39002.641
39002.719
39002.808
39002.905
39003.006
39003.11
39003.215
39003.319
39003.422
39003.521
39003.617
39003.709
39003.795
39003.876
39003.95
39004.019
39004.08
39004.135
39004.183
39004.224
39004.257
39004.282
39004.3
39004.311
39004.317
39004.319
39004.32
39004.32
46959.511
47139.504
46972.784
47120.81
47006.293
47094.636
47002.38
46939.47
46728.757
46480.779
46285.126
46357.744
46787.832
47255.372
47217.331
46765.153
46681.626
46819.513
46689.244
46587.575
46633.06
46550.873
46497.54
46483.178
46418.38
46379.632
46332.759
46277.055
46227.971
46169.135
46110.536
46047.176
45980.49
45910.3
45834.183
45755.702
45672.98
45584.508
45490.099
45390.406
45285.324
45174.907
45058.797
44936.662
44808.248
44673.271
44531.597
44383.155
44228.044
44066.463
43898.697
43725.157
43546.369
43362.998
43175.809
42985.663
42793.524
42600.407
42407.389
42215.549
42025.948
41839.607
41657.472
41480.406
41309.148
41144.331
40986.449
40835.875
40692.86
40557.544
40429.963
40310.066
40197.728
40092.758
39994.921
39903.942
39819.524
39741.348
39669.09
39602.422
39541.021
39484.568
39432.755
39385.286
39341.876
39302.253
39266.158
39233.345
39203.577
39176.631
39152.29
39130.352
39110.619
39092.907
39077.039
39062.847
39050.175
39038.876
39028.814
39019.861
39011.91
39004.875
38998.86
38993.894
38989.741
38986.297
38983.397
38980.949
38978.887
38977.152
38975.696
38974.477
38973.459
38972.611
38971.908
38971.329
38970.853
38970.467
38970.155
38969.907
38969.713
38969.564
38969.453
38969.374
38969.321
38969.29
38969.276
38969.277
38969.29
38969.311
38969.339
38969.372
38969.408
38969.446
38969.484
38969.522
38969.559
38969.593
38969.625
38969.653
38969.678
38969.698
38969.713
38969.723
38969.728
38969.73
38969.729
38969.727
38969.725
46959.337
47139.713
46972.702
47120.87
47006.339
47094.825
47003.118
46941.003
46731.384
46483.528
46286.101
46354.609
46782.071
47251.793
47220.866
46768.979
46680.324
46818.905
46691.138
46587.59
46633.065
46551.898
46497.792
46483.704
46419.055
46380.169
46333.518
46277.814
46228.803
46170.08
46111.569
46048.351
45981.782
45911.747
45835.783
45757.466
45674.938
45586.668
45492.467
45392.975
45288.105
45177.908
45062.023
44940.109
44811.907
44677.123
44535.616
44387.303
44232.271
44070.71
43902.886
43729.201
43550.163
43366.425
43178.739
42987.955
42795.03
42600.974
42406.863
42213.778
42022.789
41834.928
41651.153
41472.345
41299.263
41132.558
40972.745
40820.218
40675.247
40537.99
40408.5
40286.743
40172.609
40065.921
39966.457
39873.954
39788.125
39708.663
39635.25
39567.567
39505.292
39448.11
39395.713
39347.798
39304.075
39264.262
39228.088
39195.292
39165.623
39138.841
39114.713
39093.02
39073.553
39056.113
39040.514
39026.579
39014.147
39003.066
38993.199
38984.419
38976.62
38969.724
38963.807
38958.912
38954.821
38951.45
38948.636
38946.284
38944.322
38942.687
38941.325
38940.19
38939.244
38938.453
38937.793
38937.242
38936.783
38936.4
38936.083
38935.82
38935.604
38935.426
38935.282
38935.166
38935.074
38935.002
38934.948
38934.908
38934.88
38934.863
38934.853
38934.851
38934.854
38934.861
38934.871
38934.883
38934.896
38934.909
38934.922
38934.934
38934.945
38934.954
38934.961
38934.964
38934.965
38934.964
38934.961
38934.959
38934.956
46959.152
47139.932
46972.617
47120.931
47006.388
47095.016
47003.875
46942.572
46734.091
46486.38
46287.144
46351.437
46776.112
47248.058
47224.442
46772.975
46679.005
46818.248
46693.09
46587.625
46633.054
46552.957
46498.058
46484.24
46419.753
46380.721
46334.298
46278.596
46229.657
46171.052
46112.628
46049.556
45983.106
45913.228
45837.42
45759.269
45676.938
45588.872
45494.887
45395.598
45290.945
45180.973
45065.318
44943.631
44815.647
44681.065
44539.733
44391.56
44236.619
44075.088
43907.22
43733.403
43554.13
43370.042
43181.874
42990.469
42796.773
42601.792
42406.6
42212.281
42019.911
41830.533
41645.119
41464.566
41289.651
41121.045
40959.285
40804.783
40657.83
40518.602
40387.171
40263.517
40147.545
40039.092
39937.949
39843.863
39756.557
39675.733
39601.079
39532.279
39469.014
39410.969
39357.83
39309.292
39265.055
39224.826
39188.323
39155.272
39125.407
39098.475
39074.232
39052.446
39032.898
39015.381
38999.703
38985.681
38973.152
38961.961
38951.969
38943.049
38935.093
38928.022
38921.886
38916.748
38912.398
38908.774
38905.708
38903.101
38900.884
38898.997
38897.389
38896.017
38894.845
38893.843
38892.984
38892.249
38891.619
38891.079
38890.616
38890.22
38889.88
38889.589
38889.341
38889.13
38888.951
38888.8
38888.673
38888.568
38888.481
38888.409
38888.351
38888.305
38888.269
38888.24
38888.219
38888.204
38888.193
38888.185
38888.181
38888.178
38888.176
38888.174
38888.173
38888.171
38888.168
38888.164
38888.161
38888.157
38888.153
46958.957
47140.159
46972.529
47120.995
47006.439
47095.208
47004.65
46944.179
46736.879
46489.339
46288.26
46348.233
46769.949
47244.157
47228.054
46777.149
46677.674
46817.538
46695.1
46587.683
46633.026
46554.052
46498.338
46484.787
46420.475
46381.289
46335.1
46279.401
46230.535
46172.048
46113.713
46050.791
45984.462
45914.745
45839.096
45761.113
45678.982
45591.125
45497.358
45398.277
45293.844
45184.103
45068.684
44947.229
44819.471
44685.098
44543.95
44395.926
44241.086
44079.597
43911.699
43737.764
43558.271
43373.847
43185.215
42993.204
42798.752
42602.86
42406.599
42211.057
42017.313
41826.421
41639.368
41457.065
41280.309
41109.79
40946.065
40789.567
40640.607
40499.378
40365.97
40240.38
40122.526
40012.26
39909.381
39813.649
39724.793
39642.522
39566.529
39496.5
39432.116
39373.059
39319.011
39269.66
39224.698
39183.822
39146.739
39113.165
39082.823
39055.449
39030.79
39008.608
38988.676
38970.784
38954.734
38940.344
38927.447
38915.889
38905.532
38896.25
38887.935
38880.508
38874.004
38868.504
38863.817
38859.894
38856.564
38853.72
38851.289
38849.207
38847.421
38845.886
38844.563
38843.422
38842.435
38841.58
38840.837
38840.191
38839.63
38839.14
38838.714
38838.342
38838.019
38837.737
38837.492
38837.28
38837.097
38836.939
38836.803
38836.687
38836.588
38836.504
38836.433
38836.375
38836.326
38836.286
38836.253
38836.226
38836.205
38836.188
38836.174
38836.164
38836.155
38836.147
38836.141
38836.135
38836.13
38836.126
38836.122
46958.75
47140.397
46972.439
47121.059
47006.491
47095.402
47005.444
46945.822
46739.751
46492.409
46289.453
46345.003
46763.572
47240.084
47231.693
46781.512
46676.333
46816.774
46697.17
46587.766
46632.979
46555.184
46498.635
46485.345
46421.222
46381.874
46335.925
46280.229
46231.435
46173.072
46114.827
46052.058
45985.852
45916.298
45840.81
45762.999
45681.071
45593.427
45499.88
45401.013
45296.806
45187.299
45072.121
44950.905
44823.379
44689.223
44548.267
44400.401
44245.673
44084.238
43916.322
43742.282
43562.585
43377.84
43188.758
42996.157
42800.965
42604.176
42406.859
42210.102
42014.992
41822.59
41633.898
41449.842
41271.236
41098.791
40933.084
40774.569
40623.574
40480.314
40344.895
40217.328
40097.548
39985.416
39880.743
39783.297
39692.814
39609.006
39531.571
39460.193
39394.554
39334.33
39279.2
39228.845
39182.948
39141.199
39103.296
39068.947
39037.867
39009.786
38984.445
38961.601
38941.025
38922.503
38905.838
38890.845
38877.359
38865.226
38854.308
38844.481
38835.636
38827.692
38820.668
38814.664
38809.506
38805.156
38801.447
38798.257
38795.509
38793.136
38791.084
38789.305
38787.759
38786.413
38785.238
38784.211
38783.311
38782.521
38781.828
38781.218
38780.681
38780.208
38779.792
38779.426
38779.105
38778.822
38778.575
38778.358
38778.169
38778.005
38777.863
38777.74
38777.634
38777.544
38777.468
38777.403
38777.349
38777.303
38777.266
38777.235
38777.211
38777.191
38777.175
38777.163
38777.153
38777.145
38777.139
38777.135
38777.13
46958.532
47140.644
46972.345
47121.125
47006.547
47095.597
47006.256
46947.503
46742.708
46495.593
46290.73
46341.751
46756.967
47235.832
47235.355
46786.074
46674.985
46815.951
46699.301
46587.878
46632.911
46556.354
46498.949
46485.913
46421.994
46382.475
46336.772
46281.083
46232.36
46174.123
46115.969
46053.356
45987.277
45917.888
45842.565
45764.927
45683.206
45595.78
45502.456
45403.807
45299.829
45190.562
45075.63
44954.659
44827.372
44693.44
44552.685
44404.987
44250.381
44089.011
43921.089
43746.959
43567.07
43382.02
43192.504
42999.328
42803.41
42605.738
42407.378
42209.417
42012.947
41819.04
41628.708
41442.894
41262.431
41088.047
40920.34
40759.785
40606.731
40461.408
40323.942
40194.358
40072.604
39958.554
39852.026
39752.797
39660.606
39575.171
39496.187
39423.341
39356.309
39294.765
39238.383
39186.837
39139.804
39096.969
39058.024
39022.668
38990.616
38961.591
38935.333
38911.598
38890.153
38870.787
38853.301
38837.512
38823.254
38810.377
38798.742
38788.226
38778.719
38770.139
38762.491
38755.886
38750.181
38745.338
38741.2
38737.629
38734.538
38731.858
38729.529
38727.5
38725.728
38724.178
38722.817
38721.622
38720.568
38719.639
38718.817
38718.09
38717.446
38716.876
38716.371
38715.923
38715.527
38715.176
38714.866
38714.593
38714.352
38714.141
38713.956
38713.795
38713.655
38713.534
38713.43
38713.341
38713.266
38713.202
38713.149
38713.105
38713.069
38713.04
38713.018
38713
38712.987
38712.978
38712.971
38712.966
38712.96
46958.302
47140.902
46972.248
47121.193
47006.604
47095.792
47007.087
46949.221
46745.753
46498.897
46292.093
46338.484
46750.123
47231.4
47239.031
46790.843
46673.637
46815.066
46701.491
46588.02
46632.823
46557.563
46499.281
46486.491
46422.793
46383.094
46337.644
46281.962
46233.31
46175.203
46117.14
46054.687
45988.738
45919.517
45844.362
45766.9
45685.389
45598.186
45505.084
45406.661
45302.917
45193.893
45079.213
44958.493
44831.451
44697.751
44557.205
44409.683
44255.21
44093.917
43926
43751.793
43571.728
43386.387
43196.452
43002.716
42806.087
42607.546
42408.153
42208.998
42011.176
41815.767
41623.796
41436.221
41253.891
41077.556
40907.832
40745.216
40590.074
40442.658
40303.109
40171.468
40047.693
39931.671
39823.228
39722.145
39628.168
39541.012
39460.376
39385.943
39317.385
39254.375
39196.579
39143.668
39095.314
39051.197
39011.005
38974.437
38941.203
38911.027
38883.649
38858.822
38836.318
38815.924
38797.443
38780.695
38765.514
38751.75
38739.266
38727.938
38717.658
38708.339
38699.972
38692.675
38686.34
38680.925
38676.292
38672.28
38668.796
38665.762
38663.116
38660.802
38658.773
38656.991
38655.421
38654.036
38652.811
38651.726
38650.764
38649.909
38649.149
38648.473
38647.872
38647.337
38646.861
38646.438
38646.063
38645.73
38645.436
38645.176
38644.947
38644.747
38644.572
38644.419
38644.287
38644.174
38644.077
38643.994
38643.925
38643.867
38643.82
38643.782
38643.753
38643.73
38643.714
38643.703
38643.695
38643.689
38643.684
46958.059
47141.171
46972.148
47121.263
47006.664
47095.988
47007.937
46950.976
46748.887
46502.324
46293.55
46335.209
46743.029
47226.782
47242.711
46795.831
46672.292
46814.115
46703.742
46588.196
46632.711
46558.812
46499.632
46487.079
46423.618
46383.731
46338.54
46282.867
46234.285
46176.312
46118.341
46056.052
45990.235
45921.186
45846.201
45768.917
45687.621
45600.646
45507.765
45409.58
45306.07
45197.294
45082.871
44962.407
44835.618
44702.156
44561.828
44414.491
44260.16
44098.955
43931.057
43756.785
43576.557
43390.939
43200.601
43006.32
42808.995
42609.597
42409.185
42208.846
42009.678
41812.771
41619.161
41429.82
41245.616
41067.316
40895.558
40730.858
40573.603
40424.063
40282.395
40148.654
40022.813
39904.766
39794.348
39691.343
39595.501
39506.537
39424.149
39348.016
39277.81
39213.196
39153.838
39099.402
39049.559
39003.985
38962.368
38924.406
38889.808
38858.301
38829.625
38803.537
38779.809
38758.231
38738.609
38720.762
38704.527
38689.755
38676.31
38664.068
38652.918
38642.773
38633.61
38625.543
38618.511
38612.46
38607.278
38602.782
38598.867
38595.45
38592.461
38589.839
38587.536
38585.506
38583.714
38582.129
38580.724
38579.476
38578.366
38577.378
38576.497
38575.712
38575.011
38574.386
38573.828
38573.331
38572.888
38572.494
38572.145
38571.835
38571.562
38571.321
38571.11
38570.925
38570.764
38570.626
38570.506
38570.405
38570.319
38570.247
38570.189
38570.141
38570.105
38570.077
38570.058
38570.045
38570.036
38570.029
38570.024
46957.802
47141.451
46972.044
47121.333
47006.727
47096.183
47008.806
46952.769
46752.111
46505.879
46295.105
46331.933
46735.676
47221.975
47246.385
46801.046
46670.959
46813.094
46706.053
46588.41
46632.573
46560.1
46500.004
46487.677
46424.473
46384.386
46339.461
46283.8
46235.287
46177.452
46119.574
46057.453
45991.769
45922.895
45848.085
45770.982
45689.903
45603.161
45510.499
45412.567
45309.289
45200.766
45086.605
44966.404
44839.873
44706.657
44566.554
44419.413
44265.234
44104.126
43936.259
43761.935
43581.557
43395.678
43204.951
43010.14
42812.133
42611.892
42410.472
42208.958
42008.452
41810.051
41614.801
41423.691
41237.603
41057.326
40883.516
40716.71
40557.316
40405.62
40261.797
40125.917
39997.963
39877.84
39765.387
39660.396
39562.615
39471.761
39387.528
39309.593
39237.625
39171.284
39110.232
39054.133
39002.654
38955.472
38912.275
38872.762
38836.646
38803.654
38773.531
38746.036
38720.944
38698.049
38677.158
38658.093
38640.693
38624.809
38610.304
38597.057
38584.954
38573.905
38563.874
38554.967
38547.17
38540.417
38534.63
38529.602
38525.214
38521.377
38518.012
38515.056
38512.453
38510.155
38508.122
38506.321
38504.721
38503.298
38502.03
38500.899
38499.889
38498.988
38498.181
38497.461
38496.817
38496.241
38495.728
38495.27
38494.862
38494.501
38494.18
38493.897
38493.648
38493.43
38493.24
38493.075
38492.932
38492.811
38492.707
38492.621
38492.55
38492.493
38492.449
38492.416
38492.393
38492.378
38492.368
38492.361
38492.355
46957.532
47141.744
46971.937
47121.406
47006.792
47096.379
47009.694
46954.599
46755.428
46509.566
46296.765
46328.665
46728.054
47216.972
47250.043
46806.498
46669.644
46812
46708.422
46588.665
46632.41
46561.429
46500.399
46488.285
46425.356
46385.061
46340.408
46284.761
46236.316
46178.623
46120.839
46058.889
45993.343
45924.646
45850.014
45773.094
45692.237
45605.733
45513.289
45415.621
45312.578
45204.312
45090.418
44970.484
44844.218
44711.256
44571.386
44424.448
44270.431
44109.432
43941.607
43767.243
43586.73
43400.603
43209.502
43014.175
42815.5
42614.43
42412.013
42209.334
42007.497
41807.604
41610.715
41417.831
41229.852
41047.584
40871.705
40702.772
40541.211
40387.329
40241.316
40103.256
39973.145
39850.894
39736.353
39629.312
39529.524
39436.703
39350.542
39270.715
39196.886
39128.714
39065.856
39007.974
38954.736
38905.821
38860.915
38819.722
38781.959
38747.355
38715.66
38686.637
38660.065
38635.74
38613.473
38593.089
38574.426
38557.338
38541.69
38527.356
38514.226
38502.204
38491.242
38481.431
38472.806
38465.292
38458.845
38453.239
38448.34
38444.047
38440.278
38436.961
38434.035
38431.448
38429.157
38427.124
38425.317
38423.706
38422.27
38420.988
38419.842
38418.817
38417.899
38417.078
38416.343
38415.685
38415.097
38414.572
38414.104
38413.688
38413.318
38412.991
38412.703
38412.449
38412.227
38412.035
38411.868
38411.725
38411.604
38411.503
38411.419
38411.352
38411.299
38411.26
38411.234
38411.216
38411.205
38411.197
38411.191
46957.246
47142.048
46971.826
47121.48
47006.861
47096.575
47010.601
46956.467
46758.839
46513.389
46298.536
46325.412
46720.155
47211.762
47253.675
46812.198
46668.358
46810.827
46710.848
46588.965
46632.217
46562.799
46500.817
46488.903
46426.27
46385.756
46341.381
46285.752
46237.374
46179.826
46122.137
46060.362
45994.957
45926.44
45851.989
45775.256
45694.623
45608.363
45516.148
45418.731
45315.94
45207.932
45094.31
44974.65
44848.656
44715.954
44576.325
44429.599
44275.753
44114.874
43947.101
43772.711
43592.075
43405.715
43214.252
43018.424
42819.095
42617.208
42413.807
42209.972
42006.81
41805.43
41606.901
41412.238
41222.359
41038.088
40860.122
40689.04
40525.287
40369.187
40220.949
40080.67
39948.358
39823.933
39707.25
39598.103
39496.245
39401.391
39313.23
39231.434
39155.662
39085.57
39020.815
38961.057
38905.963
38855.214
38808.499
38765.525
38726.012
38689.696
38656.33
38625.682
38597.535
38571.69
38547.959
38526.17
38506.164
38487.795
38470.928
38455.439
38441.214
38428.156
38416.207
38405.435
38395.922
38387.589
38380.426
38374.197
38368.744
38363.961
38359.755
38356.048
38352.775
38349.878
38347.31
38345.028
38342.997
38341.187
38339.571
38338.126
38336.834
38335.678
38334.642
38333.713
38332.882
38332.137
38331.471
38330.875
38330.343
38329.869
38329.447
38329.074
38328.744
38328.453
38328.198
38327.976
38327.784
38327.619
38327.478
38327.361
38327.263
38327.185
38327.123
38327.078
38327.047
38327.027
38327.014
38327.006
38326.999
46956.945
47142.366
46971.712
47121.555
47006.932
47096.769
47011.527
46958.371
46762.345
46517.353
46300.426
46322.184
46711.971
47206.334
47257.272
46818.155
46667.111
46809.57
46713.329
46589.315
46631.995
46564.21
46501.262
46489.529
46427.215
46386.472
46342.381
46286.773
46238.461
46181.063
46123.47
46061.874
45996.613
45928.279
45854.013
45777.469
45697.065
45611.052
45519.075
45421.9
45319.379
45211.628
45098.285
44978.904
44853.187
44720.752
44581.372
44434.867
44281.201
44120.452
43952.744
43778.339
43597.593
43411.012
43219.203
43022.887
42822.918
42620.227
42415.852
42210.871
42006.391
41803.527
41603.358
41406.912
41215.124
41028.836
40848.766
40675.512
40509.54
40351.193
40200.695
40058.16
39923.605
39796.96
39678.086
39566.782
39462.799
39365.854
39275.632
39191.803
39114.024
39041.947
38975.227
38913.523
38856.504
38803.849
38755.253
38710.425
38669.091
38630.991
38595.882
38563.538
38533.747
38506.311
38481.049
38457.789
38436.374
38416.661
38398.514
38381.81
38366.435
38352.287
38339.3
38327.518
38317.061
38307.855
38299.922
38293.024
38286.98
38281.67
38276.995
38272.871
38269.225
38265.996
38263.13
38260.582
38258.312
38256.288
38254.479
38252.862
38251.415
38250.118
38248.956
38247.915
38246.981
38246.144
38245.394
38244.723
38244.123
38243.588
38243.112
38242.689
38242.315
38241.985
38241.695
38241.442
38241.223
38241.034
38240.872
38240.737
38240.625
38240.534
38240.464
38240.411
38240.376
38240.353
38240.338
38240.329
38240.322
46956.628
47142.697
46971.593
47121.632
47007.007
47096.962
47012.472
46960.312
46765.949
46521.462
46302.441
46318.989
46703.493
47200.676
47260.823
46824.379
46665.916
46808.221
46715.862
46589.719
46631.74
46565.663
46501.734
46490.165
46428.192
46387.209
46343.409
46287.826
46239.578
46182.334
46124.838
46063.425
45998.311
45930.164
45856.086
45779.734
45699.562
45613.803
45522.069
45425.132
45322.898
45215.405
45102.342
44983.247
44857.813
44725.652
44586.528
44440.253
44286.777
44126.167
43958.534
43784.126
43603.284
43416.496
43224.354
43027.565
42826.968
42623.486
42418.148
42212.029
42006.237
41801.893
41600.083
41401.85
41208.144
41019.826
40837.634
40662.186
40493.969
40333.344
40180.553
40035.724
39898.886
39769.979
39648.87
39535.361
39429.206
39330.121
39237.79
39151.881
39072.047
38997.94
38929.211
38865.519
38806.533
38751.932
38701.415
38654.694
38611.497
38571.571
38534.677
38500.594
38469.114
38440.044
38413.206
38388.43
38365.563
38344.46
38324.989
38307.025
38290.454
38275.174
38261.107
38248.278
38236.824
38226.699
38217.945
38210.335
38203.659
38197.788
38192.614
38188.045
38184.001
38180.417
38177.233
38174.401
38171.876
38169.623
38167.61
38165.808
38164.195
38162.75
38161.454
38160.292
38159.249
38158.314
38157.476
38156.726
38156.055
38155.455
38154.921
38154.446
38154.025
38153.653
38153.327
38153.041
38152.792
38152.578
38152.394
38152.24
38152.112
38152.008
38151.927
38151.868
38151.826
38151.8
38151.784
38151.773
38151.766
46956.293
47143.041
46971.47
47121.711
47007.086
47097.154
47013.436
46962.288
46769.652
46525.721
46304.59
46315.838
46694.716
47194.775
47264.314
46830.88
46664.788
46806.773
46718.444
46590.183
46631.451
46567.157
46502.235
46490.808
46429.204
46387.969
46344.466
46288.912
46240.726
46183.642
46126.242
46065.016
46000.054
45932.097
45858.21
45782.053
45702.117
45616.616
45525.131
45428.436
45326.488
45219.267
45106.486
44987.681
44862.537
44730.657
44591.797
44445.759
44292.482
44132.022
43964.475
43790.076
43609.148
43422.166
43229.705
43032.455
42831.244
42626.983
42420.694
42213.445
42006.348
41800.525
41597.074
41397.048
41201.416
41011.054
40826.722
40649.058
40478.57
40315.637
40160.52
40013.361
39874.202
39742.993
39619.607
39503.853
39395.485
39294.221
39199.745
39111.722
39029.805
38953.642
38882.885
38817.189
38756.224
38699.671
38647.227
38598.608
38553.544
38511.785
38473.098
38437.265
38404.083
38373.364
38344.931
38318.62
38294.278
38271.764
38250.944
38231.695
38213.902
38197.461
38182.289
38168.387
38155.898
38144.816
38135.195
38126.834
38119.493
38113.029
38107.326
38102.285
38097.821
38093.86
38090.339
38087.205
38084.41
38081.914
38079.683
38077.686
38075.897
38074.294
38072.856
38071.565
38070.408
38069.369
38068.438
38067.604
38066.857
38066.19
38065.595
38065.065
38064.595
38064.179
38063.813
38063.492
38063.212
38062.97
38062.764
38062.589
38062.444
38062.326
38062.234
38062.166
38062.119
38062.089
38062.071
38062.059
38062.05
46955.939
47143.4
46971.343
47121.791
47007.168
47097.344
47014.419
46964.301
46773.454
46530.134
46306.881
46312.739
46685.634
47188.617
47267.735
46837.667
46663.741
46805.217
46721.073
46590.713
46631.126
46568.693
46502.768
46491.461
46430.249
46388.752
46345.551
46290.032
46241.907
46184.986
46127.685
46066.65
46001.842
45934.078
45860.388
45784.428
45704.731
45619.493
45528.263
45431.825
45330.139
45223.218
45110.718
44992.208
44867.361
44735.768
44597.179
44451.386
44298.317
44138.016
43970.566
43796.187
43615.187
43428.024
43235.256
43037.559
42835.747
42630.718
42423.487
42215.118
42006.72
41799.422
41594.328
41392.505
41194.936
41002.517
40816.027
40636.125
40463.339
40298.069
40140.593
39991.068
39849.552
39716.003
39590.304
39472.267
39361.654
39258.18
39161.533
39071.376
38987.362
38909.138
38836.355
38768.667
38705.742
38647.262
38592.923
38542.44
38495.546
38451.992
38411.546
38373.993
38339.135
38306.786
38276.774
38248.939
38223.129
38199.206
38177.038
38156.503
38137.485
38119.879
38103.596
38088.616
38075.073
38063.013
38052.491
38043.349
38035.316
38028.234