/*--------------------------------*- C++ -*----------------------------------*\
| =========                 |                                                 |
| \\      /  F ield         | OpenFOAM: The Open Source CFD Toolbox           |
|  \\    /   O peration     | Version:  2506                                  |
|   \\  /    A nd           | Website:  www.openfoam.com                      |
|    \\/     M anipulation  |                                                 |
\*---------------------------------------------------------------------------*/
FoamFile
{
    version     2.0;
    format      ascii;
    arch        "LSB;label=32;scalar=64";
    class       volScalarField;
    location    "0.015";
    object      p;
}
// * * * * * * * * * * * * * * * * * * * * * * * * * * * * * * * * * * * * * //

dimensions      [1 -1 -2 0 0 0 0];

internalField   nonuniform List<scalar> 
13761
(
46935.113
46934.97
46935.225
46935.745
46936.153
46936.368
46936.486
46936.576
47136.166
46936.664
47136.157
46936.751
47136.193
46936.839
47136.256
46936.914
47136.283
46936.983
47136.229
46937.077
47136.254
46937.199
47136.354
46937.308
46984.139
47136.4
46937.37
46984.323
47136.36
46937.414
46984.514
47136.338
46937.427
46984.634
47136.304
46937.404
46984.714
47136.35
46937.433
46984.737
47136.49
46937.47
46984.706
47136.568
46937.485
47094.012
46984.64
47136.522
46937.481
47093.987
46984.5
47136.423
46937.408
47093.943
46984.387
47136.391
46937.235
47093.903
46984.366
47136.386
46936.736
47093.893
46984.465
47136.381
46936.253
47093.898
46984.573
47136.392
46936.057
47093.921
46984.63
47136.369
47093.943
46984.552
47136.323
47006.813
47093.953
46984.453
47136.186
47006.842
47094.051
46984.509
47136.032
47006.867
47094.132
46984.647
47135.946
47006.885
47094.516
46984.75
47135.885
47006.895
47094.823
46984.825
47135.846
47006.907
47094.895
46984.836
47135.843
47006.93
47094.684
46984.832
47135.846
47006.964
47094.316
46984.836
47025.047
47007.006
47094.007
46984.762
47025.094
47007.054
47093.846
46984.678
47025.14
47007.102
47093.793
46984.784
47025.187
47007.149
47093.79
46985.042
47025.233
47007.192
47093.801
46985.239
47025.279
47007.23
47093.811
46985.344
47025.326
47007.264
47093.808
46985.418
46990.503
47025.372
47007.297
47093.807
46985.442
46990.54
47025.418
47007.33
47093.806
46990.578
47025.464
47007.365
47093.813
46990.616
47025.511
47007.399
47093.831
46990.654
47025.558
47007.431
47093.836
46990.693
47025.605
47007.461
47093.919
46990.732
47025.652
47007.489
47093.994
46984.19
46990.771
47025.699
47007.51
47094.33
46984.256
46990.811
47025.746
47007.524
47094.613
46984.321
46990.851
47025.794
47007.543
47094.692
46984.387
46990.891
47025.841
47007.574
46984.452
46990.932
47025.888
47007.616
46984.517
46990.973
47025.934
47007.665
46984.582
46991.014
47025.98
47007.718
46963.975
46984.647
46991.056
47026.027
47007.77
46964.137
46984.711
46991.098
47026.073
47007.821
46964.3
46984.776
46991.14
47026.12
47007.871
46964.462
46984.84
46991.182
47026.168
47007.918
46964.624
46984.904
46991.225
47026.216
46964.786
46984.968
46991.268
47026.264
46964.947
46985.032
46991.311
47026.312
46928.574
46965.109
46985.095
46991.355
47026.36
46929.002
46965.27
46985.159
46991.398
47026.408
46929.43
46965.43
46985.222
46991.442
47026.455
46929.857
46965.59
46985.285
46991.486
47026.501
46930.283
46965.75
46985.347
46991.531
47026.547
46930.708
46965.909
46985.41
46991.576
47026.592
46931.133
46966.069
46985.472
46991.62
46847.211
46931.557
46966.228
46985.534
46991.666
46848.196
46931.981
46966.386
46985.596
46991.711
46849.181
46932.404
46966.544
46985.657
46991.757
46850.165
46932.825
46966.702
46985.718
46991.803
46851.147
46933.246
46966.859
46985.779
46991.85
46852.129
46933.667
46967.015
46985.84
46991.896
46688.384
46853.109
46934.086
46967.172
46985.9
46991.943
46690.145
46854.087
46934.505
46967.328
46985.96
46991.99
46691.907
46855.065
46934.922
46967.483
46986.02
46693.67
46856.041
46935.339
46967.638
46986.08
46695.435
46857.016
46935.755
46967.793
46986.139
46697.202
46857.99
46936.169
46967.947
46986.198
46698.97
46858.962
46936.583
46968.101
46986.256
46450.415
46700.74
46859.934
46936.996
46968.254
46986.315
46452.659
46702.513
46860.903
46937.408
46968.406
46986.373
46454.915
46704.287
46861.872
46937.818
46968.558
46986.431
46457.183
46706.064
46862.838
46938.227
46968.71
46459.462
46707.842
46863.804
46938.635
46968.861
46461.752
46709.623
46864.767
46939.041
46969.011
46206.061
46464.054
46711.405
46865.729
46939.447
46969.161
46207.292
46466.366
46713.189
46866.689
46939.85
46969.311
46208.554
46468.689
46714.975
46867.647
46940.253
46969.46
46209.847
46471.022
46716.762
46868.604
46940.654
46969.608
46211.17
46473.364
46718.549
46869.558
46941.053
46969.756
46212.524
46475.716
46720.336
46870.51
46941.451
46129.592
46213.909
46478.076
46722.124
46871.46
46941.847
46127.959
46215.325
46480.445
46723.91
46872.408
46942.242
46126.362
46216.771
46482.821
46725.696
46873.354
46942.635
46124.801
46218.249
46485.206
46727.481
46874.298
46943.027
46123.275
46219.757
46487.598
46729.266
46875.24
46943.417
46389.165
46121.786
46221.298
46489.999
46731.049
46876.179
46943.805
46383.409
46120.335
46222.87
46492.406
46732.832
46877.116
46944.192
46377.688
46118.922
46224.476
46494.821
46734.615
46878.051
46371.999
46117.549
46226.114
46497.243
46736.396
46878.983
46366.341
46116.216
46227.785
46499.671
46738.176
46879.913
46360.713
46114.924
46229.489
46502.106
46739.956
46880.84
46959.075
46355.116
46113.671
46231.225
46504.548
46741.733
46881.765
46951.789
46349.554
46112.458
46232.992
46506.998
46743.51
46882.686
46944.455
46344.029
46111.285
46234.79
46509.454
46745.284
46883.605
46937.079
46338.545
46110.151
46236.618
46511.917
46747.057
46884.521
46929.667
46333.102
46109.056
46238.474
46514.388
46748.828
47324.383
46922.221
46327.699
46108
46240.36
46516.866
46750.597
47323.174
46914.744
46322.337
46106.984
46242.274
46519.353
46752.364
47321.863
46907.233
46317.015
46106.008
46244.218
46521.846
46754.129
47320.455
46899.684
46311.734
46105.072
46246.191
46524.347
46755.892
47318.95
46892.088
46306.495
46104.177
46248.191
46526.856
46757.652
47026.972
47317.34
46884.436
46301.296
46103.325
46250.219
46529.371
46759.411
47032.212
47315.615
46876.721
46296.138
46102.515
46252.274
46531.893
47037.406
47313.764
46868.943
46291.02
46101.747
46254.355
46534.422
47042.57
47311.784
46861.109
46285.943
46101.022
46256.462
46536.958
46749.186
47047.723
47309.674
46853.231
46280.909
46100.339
46258.593
46539.501
46750.104
47052.876
47307.437
46845.325
46275.92
46099.698
46260.748
46542.05
46751.086
47058.027
47305.073
46837.404
46270.976
46099.101
46262.926
46544.606
46752.133
47063.163
47302.581
46829.474
46266.078
46098.547
46265.128
46547.166
46753.246
47068.275
47299.959
46821.531
46261.227
46098.038
46267.351
46549.731
46849.957
46754.426
47073.36
47297.206
46813.566
46256.422
46097.574
46269.595
46847.098
46755.674
47078.42
47294.325
46805.572
46251.663
46097.154
46271.86
46844.272
46756.996
47083.454
47291.318
46797.549
46246.949
46096.78
46274.147
46841.474
46758.398
47088.456
47288.184
46789.501
46242.283
46096.449
46276.455
46966.754
46838.707
46759.888
47093.416
47284.922
46781.441
46237.665
46096.163
46278.786
46967.607
46835.98
46761.467
47098.326
47281.529
46773.375
46233.097
46095.92
46281.139
46968.38
46833.302
46763.135
47103.181
47278.005
46765.31
46228.58
46095.721
46283.515
46969.073
46830.686
46764.887
47107.978
47274.35
46757.246
46224.116
46095.566
46768.251
46969.688
46828.144
46766.725
47112.716
47270.563
46749.18
46219.705
46095.454
46770.195
46970.217
46825.685
46768.652
47117.396
47266.646
46741.112
46215.347
46095.388
46772.191
46970.651
46823.312
46770.667
47122.017
47262.597
46733.039
46211.042
46095.368
46774.233
46970.978
46821.013
46772.775
47126.583
47258.414
46724.963
46206.788
46095.399
46700.928
46776.312
46971.187
46818.769
46774.98
47131.094
47254.094
46716.883
46202.585
46095.479
46700.323
46778.423
46971.283
46816.567
46777.282
47135.555
47249.635
46708.8
46198.435
46095.609
46699.747
46780.562
46971.248
46814.404
46779.679
47139.971
47245.036
46700.714
46194.338
46699.206
46782.731
46971.083
46812.285
46782.17
47144.345
47240.294
46692.627
46190.294
46688.638
46698.701
46784.937
46970.793
46810.22
46784.759
47148.679
47235.404
46684.541
46186.305
46688.293
46698.231
46787.182
46970.377
46808.214
46787.445
47152.971
47230.364
46676.462
46182.372
46687.962
46697.791
46789.472
46969.834
46806.271
46790.231
47157.22
47225.176
46668.395
46178.496
46687.642
46697.38
46791.816
46969.165
46804.386
46793.12
47161.428
47219.844
46660.343
46174.677
46626.137
46687.327
46696.999
46794.214
46968.37
46802.555
46796.117
47165.595
47214.377
46652.308
46170.917
46626.579
46687.017
46696.645
46796.666
46967.45
46800.77
46799.221
47169.721
47208.778
46644.29
46627.036
46686.72
46696.323
46799.169
46966.403
46799.023
46802.426
47173.803
47203.054
46636.287
46571.339
46627.511
46686.448
46696.042
46801.717
46965.228
46797.309
46805.717
47177.833
47197.212
46628.302
46571.371
46628.014
46686.218
46695.804
46804.302
46963.928
46795.626
46809.08
47181.805
47191.263
46620.333
46571.416
46628.554
46686.037
46695.625
46806.921
46962.507
46793.978
46812.503
47185.706
47185.217
46612.38
46527.693
46571.482
46629.137
46685.902
46695.5
46809.57
46960.974
46792.373
46815.98
47189.525
47179.079
46604.442
46527.473
46571.578
46629.76
46685.799
46695.437
46812.251
46959.342
46790.82
46819.509
47193.254
47172.852
46527.257
46571.715
46630.414
46685.715
46695.459
46814.966
46957.626
46789.325
46823.097
47196.888
47166.536
46474.527
46527.04
46571.893
46631.086
46685.639
46695.566
46817.716
46955.84
46787.886
46826.751
47200.424
47160.129
46474.379
46526.818
46572.111
46631.768
46685.571
46695.752
46820.5
46953.992
46786.5
46830.476
47203.861
47153.625
46474.232
46526.587
46572.357
46632.452
46685.502
46696.017
46823.314
46952.086
46785.164
46834.275
47207.192
47147.021
46420.598
46474.082
46526.341
46572.621
46633.132
46685.429
46696.356
46826.151
46950.122
46783.877
46838.146
47210.414
47140.311
46420.319
46473.928
46526.079
46572.892
46633.801
46685.354
46696.757
46828.999
46948.098
46782.643
46842.088
47213.525
47133.494
46364.851
46420.067
46473.77
46525.801
46573.16
46634.457
46685.282
46697.208
46831.845
46946.013
46781.465
46846.098
47216.52
46364.401
46419.847
46473.608
46525.507
46573.415
46635.092
46685.217
46697.7
46834.674
46943.868
46780.347
46850.173
47219.394
46364.004
46419.651
46473.442
46525.199
46573.653
46635.705
46685.148
46698.231
46837.479
46941.663
46779.289
46854.306
47222.141
46309.274
46363.657
46419.479
46473.274
46524.88
46573.87
46636.294
46685.053
46698.801
46840.255
46939.401
46778.287
46858.491
47224.761
46308.877
46363.358
46419.326
46473.105
46524.553
46574.071
46636.854
46684.911
46699.414
46843.002
46937.084
46777.336
46862.72
47227.251
46254.347
46308.542
46363.106
46419.193
46472.939
46524.224
46574.258
46637.374
46684.715
46700.071
46845.727
46934.713
46776.435
46866.987
47229.611
46253.872
46308.296
46362.878
46419.074
46472.778
46523.896
46574.438
46637.846
46684.483
46700.773
46848.438
46932.294
46775.585
46871.286
46253.463
46308.095
46362.673
46418.971
46472.625
46523.573
46574.61
46638.263
46684.252
46701.523
46851.147
46929.836
46774.794
46875.611
46203.824
46253.146
46307.951
46362.482
46418.883
46472.484
46523.26
46574.78
46638.63
46684.053
46702.32
46853.866
46927.348
46774.067
46879.959
46203.143
46252.895
46307.844
46362.306
46418.812
46472.362
46522.959
46574.945
46638.954
46683.903
46703.164
46856.602
46924.837
46773.412
46884.332
46148.686
46202.552
46252.714
46307.78
46362.134
46418.76
46472.268
46522.677
46575.111
46639.254
46683.797
46704.051
46859.361
46922.304
46772.836
46888.734
46147.517
46202.048
46252.583
46307.745
46361.974
46418.728
46472.207
46522.42
46575.279
46639.537
46683.715
46704.976
46862.139
46919.739
46772.343
46893.164
46085.479
46146.451
46201.65
46252.532
46307.743
46361.833
46418.72
46472.186
46522.197
46575.457
46639.811
46683.645
46705.934
46864.928
46917.125
46771.943
46083.881
46145.494
46201.385
46252.528
46307.782
46361.718
46418.735
46472.208
46522.015
46575.654
46640.084
46683.582
46706.924
46867.713
46914.441
46771.64
46020.252
46082.395
46144.607
46201.22
46252.594
46307.864
46361.618
46418.779
46472.272
46521.88
46575.88
46640.342
46683.53
46707.947
46870.479
46911.677
46771.438
45957.91
46018.331
46080.964
46143.877
46201.146
46252.716
46307.968
46361.53
46418.853
46472.383
46521.788
46576.142
46640.562
46683.495
46709.018
46873.212
46908.833
46771.332
45955.771
46016.514
46079.575
46143.243
46201.158
46252.906
46308.089
46361.45
46418.956
46472.544
46521.752
46576.446
46640.736
46683.468
46710.151
46875.902
46905.925
46771.324
45892.793
45953.716
46014.77
46078.313
46142.73
46201.232
46253.094
46308.218
46361.376
46419.084
46472.752
46521.76
46576.796
46640.857
46683.436
46711.363
46878.544
46902.981
46771.411
45829.078
45890.464
45951.688
46013.064
46077.143
46142.302
46201.386
46253.331
46308.336
46361.308
46419.236
46473
46521.812
46577.197
46640.927
46683.377
46712.648
46881.132
46900.038
45826.407
45888.235
45949.629
46011.435
46076.13
46141.99
46201.606
46253.607
46308.465
46361.248
46419.41
46473.285
46521.902
46577.646
46640.96
46683.265
46714.017
46883.658
46897.126
45761.341
45823.843
45885.997
45947.764
46009.955
46075.264
46141.771
46201.917
46253.901
46308.615
46361.21
46419.603
46473.601
46522.03
46578.137
46640.972
46683.074
46715.469
46886.115
46894.259
45696.502
45758.359
45821.418
45883.862
45945.936
46008.593
46074.546
46141.638
46202.201
46254.245
46308.785
46361.196
46419.819
46473.944
46522.189
46578.663
46640.989
46682.798
46716.99
46888.494
46891.431
45633.469
45693.134
45755.486
45818.947
45881.801
45944.194
46007.398
46073.907
46141.584
46202.499
46254.608
46308.969
46361.196
46420.057
46474.311
46522.374
46579.222
46641.022
46682.437
46718.569
46890.786
46888.621
45629.609
45689.877
45752.733
45816.568
45879.698
45942.548
46006.368
46073.387
46141.624
46202.848
46254.985
46309.134
46361.202
46420.321
46474.699
46522.583
46579.813
46641.084
46682.01
46720.199
46892.985
45567.688
45625.858
45686.673
45749.965
45814.217
45877.731
45941.044
46005.405
46072.968
46141.735
46203.178
46255.345
46309.279
46361.212
46420.611
46475.112
46522.821
46580.441
46641.186
46681.521
46721.883
46895.086
45506.075
45563.35
45622.316
45683.647
45747.288
45811.904
45875.902
45939.646
46004.545
46072.644
46141.817
46203.51
46255.676
46309.421
46361.23
46420.927
46475.551
46523.089
46581.113
46641.33
46680.974
46723.624
46897.09
45444.558
45501.024
45559.162
45618.864
45680.707
45744.72
45809.722
45874.195
45938.424
46003.808
46072.399
46141.942
46203.838
46256.009
46309.571
46361.259
46421.272
46476.022
46523.389
46581.836
46641.519
46680.377
46725.423
46899.001
45331.896
45383.82
45438.658
45496.127
45555.061
45615.469
45677.814
45742.215
45807.66
45872.555
45937.346
46003.214
46072.237
46142.152
46204.158
46256.341
46309.725
46361.308
46421.65
46476.522
46523.721
46582.613
46641.754
46679.736
46727.277
46900.828
45275.605
45324.854
45377.305
45433
45491.309
45551.081
45612.163
45675.022
45739.803
45805.684
45871.061
45936.35
46002.728
46072.141
46142.341
46204.467
46256.684
46309.882
46361.373
46422.064
46477.05
46524.087
46583.446
46642.029
46679.059
46729.189
46902.578
45221.571
45268.163
45317.885
45370.978
45427.543
45486.614
45547.278
45609.007
45672.35
45737.523
45803.818
45869.673
45935.494
46002.386
46072.079
46142.525
46204.744
46257.023
46310.029
46361.448
46422.511
46477.6
46524.485
46584.335
46642.342
46678.359
46731.171
45129.107
45169.761
45213.739
45260.796
45311.077
45364.885
45422.219
45482.103
45543.596
45605.964
45669.751
45735.354
45802.143
45868.49
45934.793
46002.114
46072.04
46142.714
46205.001
46257.345
46310.161
46361.53
46422.989
46478.17
46524.91
46585.273
46642.689
46677.648
46733.239
45081.799
45120.167
45161.428
45205.992
45253.546
45304.55
45359.088
45417.08
45477.807
45540.069
45603.074
45667.3
45733.309
45800.586
45867.5
45934.275
46001.916
46072.079
46142.911
46205.236
46257.636
46310.284
46361.626
46423.497
46478.757
46525.357
46586.255
46643.068
46676.937
46735.392
45002.934
45036.46
45072.519
45111.359
45153.339
45198.435
45246.537
45298.205
45353.387
45412.142
45473.684
45536.688
45600.272
45664.976
45731.429
45799.193
45866.641
45933.813
46001.792
46072.155
46143.14
46205.457
46257.926
46310.413
46361.741
46424.032
46479.362
46525.821
46587.273
46643.473
46676.235
46737.612
44905.665
44932.419
44961.447
44992.811
45026.77
45063.288
45102.763
45145.4
45190.987
45239.752
45292.052
45347.944
45407.481
45469.767
45533.391
45597.555
45662.739
45729.659
45797.937
45865.9
45933.525
46001.778
46072.245
46143.403
46205.667
46258.214
46310.553
46361.881
46424.592
46479.979
46526.296
46588.32
46643.896
46675.54
46739.873
44825.276
44846.383
44869.363
44894.405
44921.518
44950.954
44982.741
45017.148
45054.247
45094.427
45137.635
45183.758
45233.204
45286.126
45342.749
45403.007
45465.9
45530.059
45594.839
45660.65
45728.082
45796.862
45865.294
45933.279
46001.821
46072.35
46143.62
46205.858
46258.492
46310.699
46362.043
46425.178
46480.608
46526.779
46589.391
46644.332
46674.85
44758.629
44775.089
44793.254
44813.104
44834.456
44857.745
44883.118
44910.632
44940.479
44972.748
45007.685
45045.456
45086.3
45129.962
45176.75
45226.851
45280.41
45337.753
45398.666
45462.08
45526.888
45592.308
45658.716
45726.652
45795.913
45864.775
45933.157
46001.903
46072.48
46143.778
46206.012
46258.761
46310.854
46362.225
46425.779
46481.241
46527.263
46590.478
46644.78
46674.158
44669.933
44680.025
44690.941
44702.811
44715.863
44730.114
44745.49
44762.213
44780.691
44800.781
44822.444
44846.127
44871.891
44899.823
44930.128
44962.92
44998.458
45036.896
45078.331
45122.514
45169.989
45220.727
45274.992
45332.952
45394.386
45458.341
45523.819
45589.879
45656.855
45725.363
45795.138
45864.454
45933.128
46002.015
46072.597
46143.912
46206.152
46259.021
46311.023
46362.425
46426.401
46481.874
46527.744
46591.575
46645.24
46673.462
44594.737
44599.413
44604.468
44610.042
44616.09
44622.499
44629.612
44637.494
44646.16
44655.588
44665.844
44676.845
44688.87
44702.158
44716.642
44732.247
44749.277
44768.039
44788.369
44810.425
44834.536
44860.712
44889.072
44919.877
44953.252
44989.439
45028.489
45070.426
45115.277
45163.426
45214.79
45269.755
45328.262
45390.205
45454.734
45520.861
45587.602
45655.211
45724.248
45794.526
45864.28
45933.197
46002.186
46072.729
46144.041
46206.286
46259.273
46311.208
46362.647
46427.04
46482.504
46528.216
46592.675
46645.711
46672.769
44534.154
44534.15
44534.146
44534.141
44534.137
44534.133
44534.128
44534.124
44534.12
44534.116
44534.113
44534.11
44534.108
44534.106
44534.105
44534.105
44534.105
44534.107
44534.109
44534.113
44534.117
44534.123
44534.131
44534.14
44534.15
44534.163
44534.178
44534.195
44534.215
44534.238
44534.264
44534.294
44534.328
44534.366
44534.409
44534.457
44534.51
44534.569
44534.633
44534.702
44534.776
44534.854
44534.935
44535.018
44535.1
44535.182
44535.261
44535.34
44535.417
44535.491
44535.563
44535.658
44535.849
44536.177
44536.656
44537.43
44538.58
44539.923
44541.635
44544.005
44546.71
44549.296
44551.72
44554.239
44556.974
44559.896
44563.072
44566.589
44570.368
44574.504
44578.97
44583.766
44588.984
44594.636
44600.683
44607.243
44614.611
44622.751
44631.565
44641.104
44651.445
44662.538
44674.78
44688.348
44703.082
44718.937
44736.283
44755.302
44775.932
44798.451
44822.967
44849.561
44878.419
44909.784
44943.776
44980.608
45020.226
45062.705
45108.279
45157.084
45209.112
45264.721
45323.75
45386.184
45451.276
45518.051
45585.49
45653.74
45723.333
45794.099
45864.229
45933.337
46002.355
46072.881
46144.191
46206.419
46259.536
46311.416
46362.903
46427.687
46483.131
46528.675
46593.77
46646.183
46672.085
44519.555
44519.551
44519.547
44519.544
44519.54
44519.536
44519.533
44519.529
44519.526
44519.524
44519.522
44519.521
44519.521
44519.521
44519.522
44519.525
44519.528
44519.532
44519.538
44519.545
44519.554
44519.565
44519.578
44519.593
44519.61
44519.63
44519.653
44519.679
44519.709
44519.743
44519.782
44519.826
44519.876
44519.932
44519.995
44520.065
44520.145
44520.232
44520.33
44520.437
44520.554
44520.681
44520.817
44520.962
44521.117
44521.281
44521.456
44521.644
44521.848
44522.071
44522.318
44522.617
44523.051
44523.653
44524.394
44525.347
44526.564
44528.168
44529.728
44530.762
44531.875
44533.545
44535.73
44538.203
44540.993
44544.072
44547.353
44550.918
44554.749
44558.801
44563.309
44568.265
44573.588
44579.194
44585.263
44592.03
44599.582
44607.87
44616.81
44626.489
44636.854
44648.138
44660.663
44674.516
44689.469
44705.601
44723.274
44742.566
44763.56
44786.535
44811.419
44838.465
44867.887
44899.86
44934.46
44971.889
45012.056
45055.191
45101.475
45150.913
45203.634
45259.823
45319.354
45382.264
45447.928
45515.318
45583.478
45652.455
45722.62
45793.806
45864.255
45933.555
46002.571
46073.03
46144.352
46206.554
46259.821
46311.654
46363.202
46428.338
46483.751
46529.113
46594.852
46646.641
44504.499
44504.494
44504.489
44504.485
44504.48
44504.475
44504.471
44504.466
44504.462
44504.458
44504.454
44504.451
44504.449
44504.447
44504.445
44504.445
44504.445
44504.446
44504.448
44504.452
44504.456
44504.462
44504.47
44504.48
44504.491
44504.505
44504.521
44504.54
44504.561
44504.587
44504.616
44504.649
44504.687
44504.731
44504.78
44504.835
44504.898
44504.968
44505.046
44505.132
44505.227
44505.33
44505.441
44505.56
44505.687
44505.821
44505.964
44506.118
44506.284
44506.467
44506.674
44506.926
44507.306
44507.805
44508.461
44509.358
44510.423
44511.645
44513.08
44514.813
44516.604
44518.548
44520.739
44523.179
44525.801
44528.685
44531.856
44535.251
44539.022
44543.091
44547.61
44552.547
44557.802
44563.467
44569.787
44576.797
44584.473
44592.838
44601.92
44611.719
44622.173
44633.759
44646.577
44660.652
44675.797
44692.247
44710.277
44729.878
44751.261
44774.646
44799.937
44827.515
44857.521
44890.098
44925.282
44963.282
45004.077
45047.943
45094.87
45144.963
45198.362
45255.065
45315.079
45378.494
45444.712
45512.722
45581.66
45651.384
45722.099
45793.669
45864.36
45933.803
46002.808
46073.159
46144.488
46206.684
46260.117
46311.925
46363.544
46428.997
46484.361
46529.526
46595.916
46647.073
44483.925
44483.92
44483.915
44483.911
44483.906
44483.901
44483.896
44483.891
44483.887
44483.883
44483.879
44483.876
44483.873
44483.87
44483.869
44483.868
44483.868
44483.868
44483.87
44483.872
44483.876
44483.882
44483.888
44483.896
44483.906
44483.918
44483.932
44483.949
44483.968
44483.99
44484.016
44484.045
44484.078
44484.116
44484.159
44484.208
44484.262
44484.322
44484.389
44484.463
44484.543
44484.629
44484.72
44484.816
44484.915
44485.016
44485.119
44485.222
44485.326
44485.427
44485.527
44485.649
44485.868
44486.263
44486.825
44487.729
44489.028
44490.732
44492.842
44495.417
44498.107
44500.546
44502.918
44505.625
44508.542
44511.608
44514.984
44518.592
44522.505
44526.823
44531.477
44536.442
44541.786
44547.692
44554.26
44561.442
44569.251
44577.737
44586.987
44596.84
44607.523
44619.428
44632.515
44646.752
44662.111
44678.927
44697.335
44717.26
44739.044
44762.837
44788.618
44816.767
44847.313
44880.449
44916.218
44954.803
44996.281
45040.867
45088.414
45139.211
45193.242
45250.449
45310.931
45374.86
45441.612
45510.333
45580.056
45650.493
45721.753
45793.691
45864.567
45934.088
46003.035
46073.258
46144.574
46206.809
46260.416
46312.227
46363.921
46429.656
46484.961
46529.912
46596.957
46647.474
44467.642
44467.638
44467.634
44467.63
44467.626
44467.622
44467.619
44467.615
44467.612
44467.61
44467.608
44467.607
44467.606
44467.607
44467.608
44467.61
44467.614
44467.618
44467.624
44467.632
44467.641
44467.652
44467.665
44467.68
44467.698
44467.719
44467.742
44467.769
44467.8
44467.835
44467.874
44467.919
44467.969
44468.026
44468.09
44468.162
44468.242
44468.332
44468.431
44468.541
44468.661
44468.792
44468.933
44469.086
44469.249
44469.425
44469.614
44469.821
44470.05
44470.303
44470.587
44470.928
44471.421
44472.083
44472.953
44474.034
44475.453
44477.052
44478.545
44479.933
44481.553
44483.769
44486.376
44489.054
44492.005
44495.237
44498.713
44502.489
44506.526
44510.863
44515.455
44520.441
44525.935
44532.014
44538.698
44546.018
44553.952
44562.615
44571.975
44581.939
44592.936
44605.111
44618.423
44632.811
44648.438
44665.663
44684.428
44704.698
44726.916
44751.144
44777.466
44806.157
44837.218
44870.903
44907.27
44946.501
44988.67
45033.926
45082.151
45133.651
45188.253
45245.982
45306.944
45371.366
45438.702
45508.141
45578.646
45649.776
45721.55
45793.833
45864.886
45934.409
46003.251
46073.313
46144.603
46206.94
46260.724
46312.559
46364.329
46430.311
46485.55
46530.277
46597.97
46647.856
44452.824
44452.819
44452.815
44452.811
44452.806
44452.802
44452.798
44452.794
44452.79
44452.787
44452.785
44452.783
44452.782
44452.782
44452.782
44452.784
44452.786
44452.791
44452.796
44452.803
44452.812
44452.823
44452.836
44452.851
44452.869
44452.891
44452.915
44452.944
44452.977
44453.015
44453.058
44453.107
44453.163
44453.226
44453.298
44453.379
44453.469
44453.57
44453.683
44453.807
44453.943
44454.091
44454.251
44454.423
44454.607
44454.805
44455.017
44455.247
44455.5
44455.779
44456.089
44456.443
44456.933
44457.538
44458.317
44459.361
44460.57
44461.923
44463.395
44465.052
44466.795
44468.802
44471.112
44473.625
44476.37
44479.398
44482.676
44486.398
44490.447
44494.759
44499.41
44504.464
44510.095
44516.291
44523.09
44530.523
44538.595
44547.412
44556.868
44567.074
44578.384
44590.798
44604.309
44618.881
44634.847
44652.474
44671.574
44692.238
44714.906
44739.587
44766.431
44795.617
44827.208
44861.465
44898.438
44938.346
44981.193
45027.089
45076.045
45128.209
45183.35
45241.627
45303.093
45368.042
45436.005
45506.175
45577.447
45649.255
45721.509
45794.097
45865.291
45934.803
46003.48
46073.343
46144.6
46207.096
46261.046
46312.921
46364.758
46430.958
46486.126
46530.629
46598.949
46648.231
44432.817
44432.811
44432.807
44432.802
44432.798
44432.793
44432.788
44432.783
44432.779
44432.775
44432.772
44432.769
44432.767
44432.766
44432.765
44432.765
44432.766
44432.768
44432.771
44432.776
44432.782
44432.789
44432.799
44432.81
44432.824
44432.84
44432.859
44432.882
44432.907
44432.937
44432.971
44433.01
44433.055
44433.106
44433.163
44433.229
44433.302
44433.384
44433.475
44433.577
44433.689
44433.81
44433.943
44434.085
44434.237
44434.398
44434.569
44434.749
44434.939
44435.137
44435.346
44435.592
44435.938
44436.483
44437.184
44438.25
44439.703
44441.395
44443.425
44445.88
44448.316
44450.673
44453.22
44456.02
44459.02
44462.297
44465.899
44469.694
44473.797
44478.217
44483.03
44488.319
44494.121
44500.483
44507.449
44514.986
44523.204
44532.098
44541.729
44552.256
44563.839
44576.495
44590.196
44605.013
44621.348
44639.329
44658.765
44679.868
44702.981
44728.103
44755.427
44785.103
44817.261
44852.116
44889.729
44930.314
44973.827
45020.397
45070.08
45122.865
45178.563
45237.416
45299.427
45364.928
45433.535
45504.455
45576.454
45648.909
45721.598
45794.458
45865.74
45935.197
46003.707
46073.383
46144.592
46207.26
46261.389
46313.315
46365.215
46431.596
46486.694
46530.974
46599.898
44415.781
44415.777
44415.773
44415.769
44415.766
44415.762
44415.758
44415.755
44415.752
44415.75
44415.748
44415.747
44415.747
44415.748
44415.75
44415.752
44415.756
44415.762
44415.769
44415.777
44415.787
44415.8
44415.814
44415.831
44415.851
44415.874
44415.9
44415.93
44415.965
44416.003
44416.047
44416.097
44416.153
44416.216
44416.287
44416.367
44416.456
44416.555
44416.665
44416.786
44416.919
44417.064
44417.221
44417.39
44417.572
44417.766
44417.974
44418.198
44418.44
44418.701
44418.984
44419.311
44419.785
44420.415
44421.302
44422.414
44423.848
44425.59
44427.376
44429.181
44431.336
44433.838
44436.459
44439.287
44442.381
44445.711
44449.338
44453.226
44457.375
44461.914
44466.865
44472.302
44478.216
44484.735
44491.826
44499.469
44507.818
44516.814
44526.644
44537.486
44549.328
44562.226
44576.133
44591.254
44607.949
44626.237
44646.027
44667.58
44691.105
44716.655
44744.461
44774.667
44807.413
44842.881
44881.15
44922.391
44966.573
45013.858
45064.221
45117.597
45173.908
45233.346
45295.919
45362.017
45431.287
45502.909
45575.629
45648.732
45721.828
45794.885
45866.235
45935.576
46003.915
46073.441
46144.587
46207.42
46261.77
46313.746
46365.709
46432.221
46487.258
46531.315
46600.824
44401.345
44401.34
44401.336
44401.332
44401.328
44401.324
44401.32
44401.316
44401.313
44401.31
44401.308
44401.306
44401.306
44401.306
44401.307
44401.309
44401.312
44401.317
44401.323
44401.33
44401.34
44401.352
44401.365
44401.382
44401.401
44401.424
44401.45
44401.479
44401.514
44401.553
44401.597
44401.648
44401.706
44401.771
44401.844
44401.927
44402.019
44402.122
44402.237
44402.363
44402.502
44402.654
44402.819
44402.996
44403.187
44403.391
44403.613
44403.853
44404.119
44404.415
44404.748
44405.132
44405.665
44406.331
44407.205
44408.336
44409.706
44411.233
44412.823
44414.544
44416.464
44418.673
44421.132
44423.858
44426.813
44430.002
44433.455
44437.239
44441.342
44445.89
44450.914
44456.413
44462.455
44469.053
44476.194
44483.958
44492.414
44501.574
44511.628
44522.755
44534.856
44547.953
44562.117
44577.567
44594.587
44613.166
44633.331
44655.314
44679.22
44705.242
44733.569
44764.34
44797.673
44833.762
44872.679
44914.574
44959.444
45007.449
45058.446
45112.446
45169.422
45229.453
45292.602
45359.317
45429.248
45501.553
45574.983
45648.703
45722.199
45795.387
45866.749
45935.974
46004.125
46073.496
46144.55
46207.559
46262.186
46314.221
46366.247
46432.836
46487.824
46531.653
46601.735
44382.14
44382.134
44382.13
44382.125
44382.12
44382.116
44382.111
44382.106
44382.102
44382.099
44382.096
44382.093
44382.091
44382.09
44382.09
44382.09
44382.092
44382.094
44382.099
44382.104
44382.111
44382.12
44382.131
44382.144
44382.16
44382.178
44382.199
44382.224
44382.253
44382.286
44382.324
44382.367
44382.417
44382.473
44382.536
44382.608