/*--------------------------------*- C++ -*----------------------------------*\
| =========                 |                                                 |
| \\      /  F ield         | OpenFOAM: The Open Source CFD Toolbox           |
|  \\    /   O peration     | Version:  2506                                  |
|   \\  /    A nd           | Website:  www.openfoam.com                      |
|    \\/     M anipulation  |                                                 |
\*---------------------------------------------------------------------------*/
FoamFile
{
    version     2.0;
    format      ascii;
    arch        "LSB;label=32;scalar=64";
    class       volVectorField;
    location    "0.011";
    object      wallShearStress;
}
// * * * * * * * * * * * * * * * * * * * * * * * * * * * * * * * * * * * * * //

dimensions      [1 -1 -2 0 0 0 0];

internalField   uniform (0 0 0);

boundaryField
{
    Side
    {
        type            empty;
    }
    Inlet
    {
        type            calculated;
        value           uniform (0 0 0);
    }
    Airfoil
    {
        type            calculated;
        value           nonuniform List<vector> 
145
(
(-0.050526988 -1.52742 4.7809959e-17)
(-0.0075383177 0.23607565 -2.63605e-37)
(-0.053080478 1.6490958 -2.3975559e-24)
(-0.13546197 2.1844066 0)
(-0.28043129 3.0694224 2.3893757e-17)
(-0.47648607 3.9339107 -1.4579807e-21)
(-0.7418141 4.9284874 -4.7734873e-17)
(-1.0500275 5.83206 -1.4534292e-21)
(-1.4040923 6.6993546 -4.765011e-17)
(-1.7904499 7.4847802 -4.7605336e-17)
(-2.2089128 8.2139836 3.9088752e-24)
(-2.6523329 8.8782079 5.7959032e-21)
(-3.1157132 9.478472 -9.4825302e-17)
(-3.5929092 10.011862 -9.4670341e-17)
(-4.0794184 10.480755 -1.8900704e-16)
(-4.5650878 10.873203 -5.7624864e-21)
(-5.0403541 11.184025 -9.4140228e-17)
(-5.5036605 11.441215 -5.7009679e-21)
(-5.9590369 11.658611 5.7542262e-21)
(-6.4039973 11.835511 -9.3510017e-17)
(-6.8333799 11.969328 5.6971482e-21)
(-7.2508867 12.072773 3.981611e-33)
(-7.6559393 12.149314 5.6552554e-21)
(-8.0557013 12.213463 -5.6485364e-21)
(-8.4481124 12.26386 0)
(-8.8415989 12.313934 -1.8376585e-16)
(-9.2313036 12.357229 -1.8316653e-16)
(-9.6265799 12.406529 1.1072685e-20)
(-10.020062 12.452094 1.8190197e-16)
(-10.416394 12.499794 0)
(-10.809041 12.541876 9.4488968e-37)
(-11.197811 12.578612 -1.2535258e-37)
(-11.577859 12.605201 3.6592669e-33)
(-11.946835 12.619705 1.7859912e-16)
(-12.299585 12.616975 -2.4074124e-35)
(-12.635595 12.599383 4.4952767e-23)
(-12.955433 12.568792 2.4074124e-35)
(-13.259905 12.526894 1.7586995e-16)
(-13.548772 12.474231 5.3430828e-21)
(-13.82095 12.410491 -5.3284761e-21)
(-14.079453 12.339035 1.2843522e-32)
(-14.321856 12.258245 -2.4074124e-35)
(-14.551224 12.171147 -1.7245998e-16)
(-14.767707 12.078302 -1.7176661e-16)
(-14.971017 11.979644 -5.1260599e-24)
(-15.162635 11.876724 -1.7044115e-16)
(-15.34329 11.770193 -1.6975746e-16)
(-15.512751 11.660095 5.1582067e-21)
(-15.671996 11.547208 -5.1424962e-21)
(-15.821781 11.432259 2.1869191e-33)
(-15.961868 11.315045 -2.4436852e-38)
(-16.092686 11.196015 9.8252712e-24)
(-16.214135 11.075055 -5.058644e-21)
(-16.328298 10.953783 -1.6517271e-16)
(-16.433773 10.831504 -3.2907293e-16)
(-16.53467 10.710934 2.4074124e-35)
(-16.627571 10.589696 -1.6326332e-16)
(-16.716672 10.470507 1.6263126e-16)
(-16.798306 10.350837 3.6358062e-24)
(-16.877153 10.233637 4.9244835e-21)
(-16.948707 10.115782 -4.9093912e-21)
(-17.018429 10.000552 -4.8848069e-21)
(-17.08047 9.8847239 2.6248377e-24)
(-17.142555 9.7725467 1.5897025e-16)
(-17.19485 9.6579273 -1.5834946e-16)
(-17.251244 9.5490034 -3.1547142e-16)
(-17.294646 9.4360673 4.7939119e-21)
(-17.344293 9.3295978 -4.7775505e-21)
(-17.381909 9.2196195 -1.55905e-16)
(-17.42404 9.1149001 1.5530278e-16)
(-17.455966 9.0076087 1.546922e-16)
(-17.491436 8.9048262 -4.7020911e-21)
(-17.517951 8.8000781 1.5348397e-16)
(-17.546679 8.6989597 -1.528817e-16)
(-17.567268 8.5962509 -1.5228056e-16)
(-17.58842 8.4963608 -1.5168089e-16)
(-17.606325 8.3979854 -3.0216393e-16)
(-17.626872 8.303285 4.5916405e-21)
(-17.643994 8.2091961 -1.5429437e-24)
(-17.660932 8.1171642 -1.4929818e-16)
(-17.676082 8.0263711 4.5372244e-21)
(-17.689737 7.9368842 -4.5205633e-21)
(-17.703366 7.8493008 1.4751883e-16)
(-17.714314 7.7623686 -8.9675205e-21)
(-17.726654 7.6778205 4.4664158e-21)
(-17.735546 7.5934889 -1.0285576e-38)
(-17.746462 7.5116688 -4.4292187e-21)
(-17.754716 7.4303106 -1.4456573e-16)
(-17.764597 7.3511564 2.8796882e-16)
(-17.772787 7.2727693 4.3756207e-21)
(-17.783182 7.1966935 -1.1605421e-24)
(-17.792392 7.1214838 -4.3425174e-21)
(-17.804935 7.0488975 1.4165024e-16)
(-17.817297 6.9774629 1.4106926e-16)
(-17.835245 6.9093664 -1.1122245e-32)
(-17.854906 6.84306 -1.398832e-16)
(-17.886338 6.7821497 0)
(-17.927036 6.7256379 2.7740046e-16)
(-18.009333 6.6851498 1.3812253e-16)
(-18.138685 6.6626955 -1.3756697e-16)
(-18.168405 6.5720273 -2.3870339e-24)
(-17.996226 6.3869907 0)
(-17.795914 6.2054061 -1.3585195e-16)
(-17.615089 6.0431385 -1.3530699e-16)
(-17.445627 5.8960746 -2.6952166e-16)
(-17.282353 5.7613607 8.192337e-21)
(-17.140542 5.6431359 -8.1598823e-21)
(-17.004994 5.5355195 4.0635804e-21)
(-16.890947 5.4427569 0)
(-16.78418 5.3596274 -2.0147393e-21)
(-16.699131 5.2902132 -2.7466822e-25)
(-16.622176 5.2297509 2.0000018e-21)
(-16.569619 5.182997 2.6112217e-16)
(-16.526545 5.1449919 1.984329e-21)
(-16.513339 5.1218476 -2.5904062e-16)
(-16.513002 5.1081441 1.9679993e-21)
(-16.54872 5.1109291 1.2842477e-16)
(-16.595859 5.1226678 1.9519696e-21)
(-16.68111 5.1515165 -1.9438751e-21)
(-16.848882 5.2115577 1.9360513e-21)
(-17.038417 5.2841567 1.2632438e-16)
(-17.371868 5.4081499 -1.9185794e-21)
(-17.673625 5.528566 -1.2521112e-16)
(-18.539647 5.8361578 -6.0185311e-36)
(-18.13942 5.7473736 -2.4809578e-16)
(-24.116137 7.7048204 -7.3259768e-24)
(-19.67847 5.0048498 6.5276131e-17)
(-13.296117 3.3874938 1.2879258e-16)
(-15.175602 3.8906448 2.5387642e-16)
(-15.60572 4.0276734 1.2506253e-16)
(-15.759095 4.0885467 0)
(-15.901829 4.1432154 -1.8519744e-21)
(-16.016608 4.1870211 1.8237812e-21)
(-16.134122 4.2276796 -2.0912612e-24)
(-16.245517 4.2625187 1.1595802e-16)
(-16.374085 4.2974026 -1.7443748e-21)
(-16.481023 4.3218023 1.124592e-16)
(-16.589006 4.3413684 1.6899355e-21)
(-16.688515 4.3533413 1.0910294e-16)
(-16.782607 4.3583174 -2.1494539e-16)
(-16.866183 4.3547705 1.0587104e-16)
(-16.945607 4.3442547 3.1830823e-21)
(-17.009387 4.323749 -1.5683929e-21)
(-17.065308 4.2952742 2.0253611e-16)
(-17.099403 4.2554048 -4.3152868e-33)
)
;
    }
    Outlet
    {
        type            calculated;
        value           nonuniform List<vector> 0();
    }
    procBoundary1to0
    {
        type            processor;
        value           uniform (0 0 0);
    }
    procBoundary1to2
    {
        type            processor;
        value           uniform (0 0 0);
    }
    procBoundary1to8
    {
        type            processor;
        value           uniform (0 0 0);
    }
}


// ************************************************************************* //
