/*--------------------------------*- C++ -*----------------------------------*\
| =========                 |                                                 |
| \\      /  F ield         | OpenFOAM: The Open Source CFD Toolbox           |
|  \\    /   O peration     | Version:  2506                                  |
|   \\  /    A nd           | Website:  www.openfoam.com                      |
|    \\/     M anipulation  |                                                 |
\*---------------------------------------------------------------------------*/
FoamFile
{
    version     2.0;
    format      ascii;
    arch        "LSB;label=32;scalar=64";
    class       surfaceScalarField;
    location    "0.012";
    object      phi;
}
// * * * * * * * * * * * * * * * * * * * * * * * * * * * * * * * * * * * * * //

dimensions      [1 0 -1 0 0 0 0];

oriented        oriented;

internalField   nonuniform List<scalar> 
27023
(
0.0024804984
-0.00010377825
0.0022842711
-9.6046696e-05
0.0021043393
-8.9427673e-05
0.0019391912
-8.387304e-05
0.0017876064
-7.9260633e-05
0.0016482182
-7.5298232e-05
0.0015197443
-7.1859926e-05
0.0014010059
-6.8817284e-05
0.0012908724
-6.6078822e-05
0.0011881695
-6.3535532e-05
0.0010918196
-6.1097468e-05
0.0010010452
-5.8705578e-05
0.00091529182
-5.6314278e-05
0.00083418909
-5.387872e-05
0.00075746657
-5.1387138e-05
0.00068496278
-4.881465e-05
0.00061656138
-4.6196904e-05
0.00055218527
-4.3563001e-05
0.00049176862
-4.093904e-05
0.00043519824
-3.8377982e-05
0.00038236019
-3.5883795e-05
0.0003331646
-3.3436002e-05
0.00028750272
-3.1031371e-05
0.00024529028
-2.8633576e-05
0.00020649505
-2.6188581e-05
0.00017113784
-2.3661685e-05
0.00013927089
-2.1062513e-05
0.00011096938
-1.8432968e-05
8.6258944e-05
-1.5852664e-05
6.5092115e-05
-1.3393923e-05
4.7380578e-05
-1.1085196e-05
3.2968041e-05
-8.9593828e-06
2.1609128e-05
-7.0374056e-06
1.3016309e-05
-5.322065e-06
6.8680967e-06
-3.819728e-06
2.8505767e-06
-2.5167705e-06
6.6278889e-07
-1.3974743e-06
-4.443905e-07
0.0052727833
0.00018005349
0.0049321687
0.00016969012
0.0046154366
0.00015789467
0.0043235129
0.00014607498
0.0040540777
0.00013573158
0.0038048055
0.00012667433
0.0035731452
0.00011904455
0.0033568407
0.0001125345
0.0031535294
0.00010726403
0.0029612441
0.00010285076
0.0027778991
9.9459948e-05
0.0026020557
9.6567321e-05
0.00243285
9.3889362e-05
0.0022697037
9.1266835e-05
0.0021122795
8.8587024e-05
0.0019603666
8.581445e-05
0.0018138882
8.292565e-05
0.0016728542
7.9921085e-05
0.0015373276
7.6809697e-05
0.0014074071
7.3597063e-05
0.0012832458
7.0277469e-05
0.0011649763
6.6878366e-05
0.0010527641
6.3396592e-05
0.00094667482
5.9891593e-05
0.00084671072
5.6402549e-05
0.00075281397
5.2958675e-05
0.00066481593
4.9622843e-05
0.00058253818
4.6395937e-05
0.0005058564
4.3249233e-05
0.00043464914
4.0178404e-05
0.00036888194
3.7137295e-05
0.00030864117
3.4054847e-05
0.00025410465
3.0878277e-05
0.00020544089
2.7603756e-05
0.00016274409
2.4266998e-05
0.0001259335
2.0960129e-05
9.476611e-05
1.7776239e-05
6.8924992e-05
1.475791e-05
4.8011113e-05
1.195678e-05
3.1567052e-05
9.4090249e-06
1.9120909e-05
7.1252837e-06
1.0186118e-05
5.1190609e-06
4.3012341e-06
3.3720096e-06
1.0372995e-06
1.8703004e-06
5.9287317e-07
0.0041522262
0.00057984541
0.0037923914
0.00052968266
0.0034667626
0.00048368296
0.0031714928
0.0004415053
0.0029042619
0.00040312132
0.0026625914
0.00036849878
0.0024444391
0.00033734383
0.0022474524
0.00030966017
0.0020699116
0.00028493505
0.001909401
0.0002634825
0.0017647141
0.00024425895
0.0016326945
0.00022869024
0.001510927
0.00021575148
0.00139761
0.00020467037
0.0012914323
0.00019484284
0.001191428
0.00018588904
0.0010969004
0.00017751465
0.0010073442
0.00016953135
0.00092238862
0.00016181069
0.00084177786
0.00015424715
0.00076535326
0.00014673423
0.00069300998
0.00013924955
0.00062470914
0.00013171998
0.00056040754
0.0001242131
0.00050005761
0.00011676842
0.00044361025
0.00010942042
0.00039095735
0.00010228705
0.00034199319
9.5370503e-05
0.00029662801
8.8622302e-05
0.00025475973
8.2054067e-05
0.00021630018
7.5602179e-05
0.00018120571
6.9154375e-05
0.00014946547
6.262187e-05
0.00012108868
5.5983844e-05
9.6078644e-05
4.9279016e-05
7.4393587e-05
4.2647251e-05
5.5933262e-05
3.6237562e-05
4.0578833e-05
3.0113509e-05
2.8147922e-05
2.438823e-05
1.8394155e-05
1.9162777e-05
1.1046802e-05
1.4473764e-05
5.8081276e-06
1.0355311e-05
2.3976051e-06
6.7800151e-06
5.5046886e-07
3.714799e-06
1.1452216e-06
0.0048510733
0.0010384125
0.0044209166
0.00095993479
0.0040186918
0.00088598093
0.0036429536
0.00081729808
0.0032935177
0.00075259619
0.0029699289
0.00069211472
0.0026716988
0.00063559202
0.0023981534
0.00058321687
0.002148473
0.00053462185
0.0019218997
0.00049005879
0.0017170849
0.0004490749
0.0015338299
0.00041194495
0.0013708367
0.00037874374
0.0012262637
0.00034924179
0.0010980479
0.0003230576
0.00098406942
0.0002998669
0.00088234617
0.00027923897
0.00079112232
0.00026075714
0.0007089199
0.00024401707
0.00063453489
0.0002286367
0.00056701303
0.0002142621
0.00050556302
0.00020070555
0.00044955233
0.00018773749
0.00039842083
0.00017535096
0.00035169095
0.00016350499
0.00030895956
0.00015215786
0.000269857
0.00014139572
0.00023408019
0.00013115273
0.00020140572
0.00012130207
0.00017165498
0.00011180945
0.00014471049
0.0001025511
0.00012050546
9.336325e-05
9.8983625e-05
8.4147274e-05
8.0057943e-05
7.4912662e-05
6.3600499e-05
6.573941e-05
4.9425461e-05
5.6824863e-05
3.7358576e-05
4.8306904e-05
2.7275219e-05
4.0199098e-05
1.9061761e-05
3.2603731e-05
1.2570282e-05
2.5656706e-05
7.6357761e-06
1.9409735e-05
4.0829788e-06
1.3911858e-05
1.7331073e-06
9.1335209e-06
4.2162579e-07
5.0298558e-06
1.5673621e-06
0.0047809388
0.0014401378
0.0044050932
0.0013359435
0.0040527723
0.0012384572
0.0037230868
0.0011471306
0.0034142332
0.0010615879
0.0031250541
0.00098142224
0.0028541604
0.00090660384
0.0026008963
0.00083658824
0.0023640698
0.00077154477
0.0021435049
0.00071070943
0.0019378238
0.00065483149
0.0017477441
0.00060209085
0.0015736003
0.00055294479
0.0014152067
0.00050768498
0.001271938
0.00046636859
0.0011427785
0.00042906243
0.0010264736
0.00039557401
0.00092165266
0.00036560348
0.00082694636
0.00033874425
0.00074109202
0.00031450869
0.00066299884
0.00029236973
0.00059174061
0.00027197614
0.00052658851
0.00025289981
0.00046693332
0.00023501502
0.00041227948
0.00021816626
0.00036222382
0.00020222008
0.00031639387
0.00018723122
0.00027448394
0.00017306758
0.00023625826
0.00015953191
0.00020150842
0.00014656297
0.00017006585
0.00013399675
0.00014180153
0.00012163025
0.00011660421
0.00010934679
9.4349978e-05
9.7168794e-05
7.4898563e-05
8.5192383e-05
5.8109519e-05
7.3615235e-05
4.3855443e-05
6.2562079e-05
3.2006549e-05
5.2048853e-05
2.2368695e-05
4.2242389e-05
1.4743951e-05
3.3281502e-05
8.9397563e-06
2.5214876e-05
4.7498332e-06
1.8100017e-05
1.9870678e-06
1.189457e-05
4.6669234e-07
6.5484398e-06
2.0350007e-06
0.0052442461
0.0019780386
0.004843745
0.0018407656
0.0044681005
0.0017117009
0.0041163883
0.0015902684
0.0037874413
0.0014761645
0.0034800134
0.0013690922
0.0031930096
0.0012684931
0.0029253187
0.0011743537
0.00267588
0.0010860786
0.0024437975
0.0010036725
0.0022279392
0.00092660754
0.0020278588
0.00085494692
0.0018418239
0.00078815659
0.0016687625
0.00072603327
0.0015081718
0.00066829967
0.0013598589
0.00061470236
0.0012236562
0.00056528372
0.0010992871
0.00051995942
0.00098626832
0.00047863697
0.00088389682
0.0004411287
0.00079130053
0.00040711672
0.00070752958
0.00037615107
0.00063161043
0.00034790475
0.00056266459
0.00032185406
0.00049989221
0.00029779503
0.00044261336
0.00027545191
0.00039026726
0.00025457231
0.00034235152
0.00023515243
0.0002984563
0.00021696767
0.0002582659
0.00019972664
0.00022151071
0.00018332195
0.00018798225
0.00016752857
0.00015753648
0.00015207889
0.00013008033
0.00013680546
0.00010555645
0.0001216948
8.393931e-05
0.00010681138
6.5161479e-05
9.239464e-05
4.9163485e-05
7.8561455e-05
3.5859134e-05
6.535441e-05
2.5047097e-05
5.3055497e-05
1.6507848e-05
4.1821725e-05
1.00176e-05
3.1705986e-05
5.3407465e-06
2.2777686e-05
2.2525227e-06
1.4983551e-05
5.3961116e-07
8.2620559e-06
2.57519e-06
0.0050618405
0.0023901587
0.0046776558
0.0022251049
0.0043195609
0.002069938
0.0039858992
0.0019240602
0.0036750392
0.0017871436
0.0033854518
0.0016587884
0.0031156998
0.0015383443
0.0028645008
0.0014256427
0.0026305903
0.0013200703
0.0024129082
0.0012214273
0.0022102912
0.0011292892
0.0020218399
0.0010434554
0.0018465698
0.00096347701
0.0016834859
0.00088916108
0.0015317327
0.00082009088
0.0013906566
0.00075581094
0.0012597479
0.00069621994
0.0011386155
0.00064111508
0.0010269003
0.00059037157
0.0009242027
0.0005438426
0.00083004204
0.00050129096
0.00074386274
0.00046234181
0.00066502729
0.00042674981
0.00059291538
0.00039397417
0.0005269075
0.0003638099
0.00046644384
0.00033592162
0.00041104069
0.00030998067
0.00036024336
0.00028595431
0.00031367217
0.00026354279
0.00027103078
0.00024237146
0.00023205933
0.00022229631
0.00019655491
0.00020303549
0.00016437847
0.00018425742
0.00013543773
0.00016574796
0.00010966093
0.00014747303
8.6982513e-05
0.00012949099
6.7388273e-05
0.00011198984
5.0800484e-05
9.515005e-05
3.7016742e-05
7.9138816e-05
2.5824996e-05
6.4247814e-05
1.6994543e-05
5.0652658e-05
1.0291122e-05
3.8409847e-05
5.4688674e-06
2.7600326e-05
2.2936726e-06
1.8159106e-05
5.4354857e-07
1.0012512e-05
3.1191328e-06
0.0053921504
0.0030046645
0.0049842859
0.0027981682
0.0046048317
0.0026046922
0.0042516402
0.0024232515
0.0039228846
0.0022529271
0.0036168497
0.0020932797
0.0033319768
0.001943753
0.0030667759
0.0018036279
0.0028199165
0.0016725765
0.0025901679
0.0015498854
0.0023764674
0.0014351871
0.0021777804
0.0013280288
0.0019931547
0.0012281278
0.0018216929
0.0011349798
0.001662485
0.001048405
0.0015146542
0.00096795309
0.001377411
0.00089308133
0.0012500388
0.00082361541
0.0011319458
0.00075922815
0.0010226399
0.00069969449
0.00092168591
0.00064481113
0.00082865905
0.00059433018
0.00074312019
0.00054789127
0.00066457045
0.00050530859
0.00059251505
0.00046603738
0.00052643085
0.0004299008
0.00046582374
0.00039653457
0.00041025183
0.00036555764
0.00035928506
0.00033692548
0.0003125581
0.00031027361
0.00026978321
0.00028514964
0.00023070835
0.00026137402
0.00019513781
0.00023860838
0.00016293622
0.00021646102
0.00013400362
0.00019468213
0.00010824745
0.00017323053
8.5574778e-05
0.00015216467
6.6045268e-05
0.0001315202
4.9623298e-05
0.00011157266
3.6047489e-05
9.271518e-05
2.5078301e-05
7.5217413e-05
1.6462994e-05
5.9268421e-05
9.9497428e-06
4.492338e-05
5.2811591e-06
3.2269539e-05
2.2151784e-06
2.1225647e-05
5.2632594e-07
1.1701898e-05
3.6457368e-06
0.0052447779
0.0034377135
0.0048435525
0.003199553
0.004471359
0.0029770316
0.0041257818
0.0027689618
0.0038047497
0.0025740805
0.0035064406
0.0023916989
0.0032292894
0.0022210039
0.0029718173
0.00206119
0.0027325911
0.0019118837
0.0025102563
0.0017722928
0.0023036019
0.0016419063
0.0021115494
0.0015201389
0.0019331184
0.0014066099
0.0017674349
0.0013007084
0.0016136598
0.0012022197
0.0014710115
0.0011106359
0.0013387636
0.001025359
0.0012161957
0.00094620882
0.0011026398
0.00087280568
0.00099749143
0.00080486114
0.00090021287
0.00074210504
0.00081032243
0.00068423351
0.00072737932
0.00063084516
0.00065093012
0.00058176686
0.00058055152
0.0005364236
0.0005157995
0.00049465929
0.00045625162
0.00045608793
0.00040152536
0.00042028857
0.00035124056
0.00038721427
0.000305077
0.00035644059
0.00026279388
0.00032743566
0.000224188
0.00029998232
0.00018910422
0.00027369417
0.00015742451
0.00024814232
0.00012904449
0.00022306344
0.00010386079
0.00019841519
8.1897503e-05
0.00017412871
6.3176834e-05
0.0001502414
4.7424785e-05
0.00012732512
3.4412331e-05
0.00010572788
2.3911671e-05
8.5718264e-05
1.5676794e-05
6.7503305e-05
9.4617086e-06
5.1138588e-05
5.0138722e-06
3.6717061e-05
2.0983611e-06
2.4140823e-05
4.9653758e-07
1.3303389e-05
4.1424496e-06
0.0055826452
0.0041595025
0.0051509211
0.0038696014
0.0047514795
0.0035991446
0.0043817547
0.0033468934
0.0040393253
0.0031115161
0.0037219715
0.0028915482
0.0034275744
0.0026861995
0.0031543733
0.002494299
0.0029009131
0.0023147349
0.0026658776
0.0021469954
0.0024479659
0.0019902728
0.0022458826
0.0018440507
0.0020584184
0.0017076575
0.0018844721
0.0015806046
0.001723068
0.0014621552
0.0015732859
0.0013520395
0.001434293
0.0012496618
0.0013053589
0.0011543216
0.0011858005
0.0010657917
0.0010750009
0.00098362631
0.00097239311
0.00090748667
0.00087745591
0.00083705726
0.00078970714
0.00077199494
0.0007087016
0.00071186135
0.00063398721
0.00065649023
0.00056515029
0.00060526811
0.00050176555
0.00055805046
0.00044343508
0.00051442389
0.00038980269
0.00047392563
0.00034051445
0.00043650654
0.00029527281
0.00040168563
0.00025385436
0.000368857
0.00021606908
0.00033776997
0.00018177533
0.00030798988
0.00015087276
0.00027904641
0.00012327483
0.00025066259
9.8887983e-05
0.00022280292
7.7782941e-05
0.00019523446
5.9908689e-05
0.00016811613
4.4887369e-05
0.00014234683
3.2511003e-05
0.00011810446
2.2550249e-05
9.5679206e-05
1.4759583e-05
7.529409e-05
8.8947538e-06
5.7003678e-05
4.7074745e-06
4.0904271e-05
1.9684364e-06
2.6879916e-05
4.6576116e-07
1.4806139e-05
4.6083715e-06
0.0059091053
0.0049693246
0.0054484966
0.004620296
0.0050227574
0.0042955101
0.0046291073
0.0039929496
0.0042650846
0.0037110579
0.0039284216
0.0034483085
0.0036170612
0.0032030265
0.0033289129
0.0029744549
0.0030619128
0.0027613958
0.0028142623
0.0025624727
0.002584533
0.0023768028
0.0023715659
0.0022033099
0.002174242
0.0020414372
0.0019914342
0.001890521
0.0018220538
0.0017500346
0.0016651359
0.0016191171
0.0015197822
0.0014974317
0.0013851624
0.0013843154
0.001260509
0.0012790043
0.0011450763
0.0011812495
0.0010381824
0.0010905415
0.00093921137
0.0010064758
0.00084761185
0.00092867193
0.00076289176
0.0008567277
0.00068461219
0.00079015149
0.00061234158
0.00072876968
0.00054569439
0.00067192267
0.0004842772
0.00061947387
0.00042772171
0.00057098458
0.00037569694
0.00052595482
0.00032787031
0.00048433686
0.00028396378
0.00044559534
0.00024377345
0.00040904989
0.00020713235
0.00037441325
0.00017391971
0.00034120415
0.00014405007
0.00030891739
0.00011744692
0.00027726667
9.4027629e-05
0.00024622294
7.3902832e-05
0.00021535976
5.6809166e-05
0.00018521024
4.2487104e-05
0.00015666918
3.0719162e-05
0.00012987263
2.1272187e-05
0.00010512631
1.3901162e-05
8.2665226e-05
8.3645476e-06
6.2540379e-05
4.4203179e-06
4.4848778e-05
1.8453806e-06
2.945511e-05
4.358142e-07
1.6215962e-05
5.0442109e-06
0.0062885839
0.0058786298
0.0057946521
0.0054634532
0.0053384797
0.0050766489
0.0049172449
0.0047169102
0.0045281339
0.0043822119
0.0041685078
0.0040708223
0.0038359827
0.0037809598
0.0035285726
0.0035105516
0.0032445438
0.0032585881
0.0029821635
0.0030238705
0.002739564
0.002805157
0.0025149477
0.0026014952
0.0023068654
0.0024114603
0.0021141462
0.0022342172
0.0019357228
0.0020689987
0.0017705163
0.0019152893
0.0016175028
0.0017721734
0.0014757343
0.0016392378
0.00134439
0.0015156925
0.0012227601
0.0014006627
0.0011101655
0.0012938687
0.0010059692
0.0011947587
0.00090957176
0.0011028909
0.00082041837
0.0010178403
0.00073800456
0.00093915405
0.00066187877
0.00086628775
0.00059160117
0.00079905604
0.00052678217
0.00073674898
0.00046703017
0.000679232
0.00041198366
0.00062603623
0.00036132317
0.00057661962
0.00031473571
0.00053092798
0.00027197179
0.00048836233
0.00023286601
0.0004481582
0.0001972953
0.00040998601
0.00016517335
0.00037332767
0.00013642241
0.00033766957
0.00011094233
0.0003027476
8.8690128e-05
0.00026847584
6.9673509e-05
0.00023437677
5.3493088e-05
0.00020139105
3.9950374e-05
0.000170212
2.8841184e-05
0.00014098201
1.9940743e-05
0.00011402667
1.301161e-05
8.9594479e-05
7.8184228e-06
6.7733552e-05
4.1265878e-06
4.8540649e-05
1.7209506e-06
3.1860743e-05
4.060306e-07
1.7530904e-05
5.450248e-06
0.0061300063
0.0064007974
0.0056461133
0.0059475455
0.0051984249
0.0055245204
0.0047850451
0.0051304582
0.0044035631
0.004763848
0.0040514996
0.0044230267
0.0037263911
0.004106197
0.0034258819
0.0038111778
0.0031479304
0.0035366458
0.0028909644
0.0032809324
0.002653569
0.0030426386
0.0024341918
0.0028209495
0.0022312861
0.002614435
0.0020435045
0.0024220605
0.0018697565
0.0022428018
0.0017090697
0.0020760251
0.0015605131
0.0019207735
0.00142314
0.0017766491
0.0012960628
0.0016428031
0.0011784955
0.0015182589
0.0010697124
0.0014026766
0.00096906287
0.0012954294
0.00087595307
0.0011960186
0.00078983978
0.0011039686
0.00071022974
0.0010187766
0.00063668258
0.00093984529
0.00056877321
0.00086697401
0.00050613037
0.00079939895
0.00044838414
0.00073698413
0.00039519546
0.00067922979
0.00034626604
0.00062555315
0.00030130147
0.00057589595
0.00026006311
0.00052960352
0.0002223845
0.00048583913
0.00018813057
0.00044424178
0.00015719767
0.00040426196
0.00012949632
0.00036537197
0.00010492971
0.00032731491
8.3678817e-05
0.00028972723
6.5566443e-05
0.00025248949
5.0222253e-05
0.00021673544
3.7424208e-05
0.00018301013
2.6958684e-05
0.00015144754
1.8599666e-05
0.00012238559
1.211156e-05
9.6082529e-05
7.263322e-06
7.2581664e-05
3.8262376e-06
5.1977469e-05
1.5924613e-06
3.4094136e-05
3.7466713e-07
1.8748388e-05
5.8249251e-06
0.0064895576
0.0074360337
0.0059793091
0.0069112569
0.0055060921
0.0064209571
0.0050675755
0.0059632163
0.0046618805
0.0055363182
0.0042871516
0.0051387284
0.0039413138
0.004769003
0.003622328
0.0044253091
0.0033281845
0.0041054365
0.0030567283
0.0038082065
0.002805963
0.0035317921
0.002574278
0.0032744083
0.0023602852
0.0030350183
0.002162636
0.0028121522
0.0019799672
0.0026047901
0.0018110284
0.0024117948
0.0016547335
0.0022323683
0.0015101606
0.0020653893
0.0013764495
0.0019103978
0.0012528024
0.0017664831
0.0011384884
0.0016326014
0.0010328032
0.0015083863
0.00093509796
0.0013931555
0.00084477458
0.0012863598
0.00076128672
0.0011874714
0.00068414077
0.0010959351
0.00061289727
0.0010110992
0.00054713269
0.00093274718
0.00048647492
0.00086006389
0.00043055303
0.00079291188
0.0003790284
0.00073075938
0.00033160613
0.00067297949
0.0002880072
0.00061949843
0.00024802346
0.00056959007
0.00021153621
0.00052232884
0.00017845937
0.00047732039
0.00014871719
0.0004340057
0.00012221967
0.00039187047
9.8866527e-05
0.00035066891
7.8713062e-05
0.00030988109
6.14998e-05
0.00026970308
4.6983889e-05
0.00023125141
3.4923756e-05
0.00019507022
2.5096309e-05
0.00016127461
1.727387e-05
0.00013020771
1.1222753e-05
0.00010213335
6.7159644e-06
7.7088143e-05
3.5310733e-06
5.51622e-05
1.4669419e-06
3.6157845e-05
3.4446274e-07
1.9870545e-05
6.1694153e-06
0.0068261482
0.0085711166
0.0062917051
0.0079707074
0.0057954033
0.0074077711
0.0053353739
0.0068811822
0.0049093116
0.006389459
0.0045150452
0.0059307505
0.0041506831
0.0055032428
0.0038142395
0.0051055858
0.0035036119
0.0047360636
0.0032169187
0.0043922451
0.0029524205
0.0040728093
0.0027083905
0.0037759166
0.0024831468
0.0034997369
0.0022751559
0.0032430852
0.0020830976
0.0030042786
0.0019057651
0.0027821835
0.0017420251
0.0025755892
0.0015907991
0.0023836428
0.0014511033
0.002205128
0.0013220121
0.0020395267
0.0012026895
0.0018858387
0.0010923964
0.001742923
0.00099044108
0.0016103661
0.00089619546
0.0014874221
0.00080908227
0.0013734906
0.00072857222
0.0012679963
0.00065418482
0.0011703348
0.00058549161
0.0010798026
0.00052208157
0.00099616563
0.00046359816
0.00091855424
0.00040969142
0.00084682432
0.00036004459
0.00078041092
0.00031438378
0.00071864424
0.00027244552
0.00066143999
0.00023402736
0.00060801087
0.00019900793
0.00055735052
0.00016730693
0.00050902301
0.00013888133
0.00046243263
0.00011370182
0.00041705075
9.1730012e-05
0.00037264126
7.2943146e-05
0.00032866817
5.688215e-05
0.00028576434
4.3354289e-05
0.00024477915
3.2141475e-05
0.00020628295
2.3032069e-05
0.00017038355
1.5807012e-05
0.00013743253
1.0239941e-05
0.00010770021
6.1120677e-06
8.1217287e-05
3.2039272e-06
5.8068524e-05
1.3272467e-06
3.8034001e-05
3.1044583e-07
2.0887102e-05
6.4803167e-06
0.0071737265
0.0098084404
0.0066162367
0.0091288528
0.0060972317
0.0084899398
0.005614704
0.0078905087
0.0051669184
0.0073291611
0.0047520121
0.0068045436
0.0043680135
0.0063149129
0.0040130729
0.0058583336
0.0036854959
0.0054333
0.003383468
0.0050382164
0.0031050144
0.004670812
0.0028481741
0.0043297522
0.0026112271
0.0040129562
0.0023926633
0.0037183837
0.0021910424
0.0034447806
0.0020049935
0.0031903941
0.001833223
0.0029540136
0.0016745712
0.0027342942
0.0015280081
0.0025302534
0.0013926319
0.0023405462
0.0012675932
0.0021646023
0.0011521049
0.0020013593
0.0010454487
0.0018496072
0.00094693765
0.0017089011
0.00085594296
0.0015784373
0.00077188871
0.0014575622
0.00069425044
0.0013456491
0.00062255426
0.0012420432
0.00055637912
0.0011459879
0.00049532134
0.0010572319
0.00043902919
0.00097485339
0.00038715756
0.00089870178
0.00033939659
0.00082817674
0.00029548351
0.00076256151
0.00025517722
0.00070174965
0.00021831364
0.00064487748
0.00018482014
0.00059084617
0.00015466322
0.00053918184
0.00012781527
0.0004892817
0.00010421106
0.00044065595
8.3805838e-05
0.00039304687
6.6425972e-05
0.00034604837
5.1629331e-05
0.00030056105
3.921255e-05
0.00025719619
2.8959456e-05
0.00021653594
2.0665803e-05
0.00017867711
1.4120353e-05
0.00014397771
9.105573e-06
0.00011271467
5.4088193e-06
8.4913787e-05
2.8233775e-06
6.0653948e-05
1.1646332e-06
3.9692639e-05
2.7141605e-07
2.1780283e-05
6.7515307e-06
0.0074989778
0.011156113
0.0069181666
0.010389519
0.0063778223
0.0096694442
0.005875281
0.0089927096
0.0054084157
0.0083575852
0.0049753871
0.0077623848
0.0045742274
0.007205883
0.0042029405
0.0066863651
0.0038595882
0.0062018374
0.0035423385
0.0057506881
0.003249538
0.0053311425
0.0029796452
0.0049408184
0.0027309844
0.0045785156
0.0025018078
0.004242225
0.0022904966
0.0039297777
0.0020956426
0.0036397086
0.0019160268
0.0033700762
0.0017504849
0.0031196148
0.0015978847
0.0028869474
0.0014571443
0.0026710411
0.0013272941
0.0024704382
0.0012074449
0.0022844883
0.0010968028
0.0021120334
0.00099466233
0.0019517755
0.00090035693
0.0018032303
0.00081327788
0.0016655366
0.00073286478
0.0015379925
0.00065860716
0.0014199211
0.00059004528
0.001310617
0.00052677195
0.0012092711
0.00046839993
0.0011156119
0.00041459418
0.0010286658
0.00036502809
0.00094827332
0.00031940979
0.00087379957
0.00027749731
0.00080447772
0.00023907416
0.0007401759
0.00020400216
0.00067995195
0.00017222831
0.000622622
0.00014371184
0.00056769975
0.00011838171
0.00051461285
9.6114044e-05
0.00046292426
7.7035368e-05
0.00041212583
6.0765031e-05
0.00036231886
4.7029111e-05
0.00031429688
3.5576123e-05
0.00026864911
2.6167484e-05
0.00022594424
1.8593924e-05
0.00018625046
1.2647497e-05
0.00014992368
8.118163e-06
0.00011724374
4.7998946e-06
8.8231749e-05
2.4938485e-06
6.2959858e-05
1.0238047e-06
4.1162698e-05
2.372317e-07
2.2566952e-05
6.9885551e-06
0.0078519827
0.012627648
0.0072442993
0.011764083
0.0066802407
0.010953841
0.0061562353
0.010193693
0.0056691991
0.0094799705
0.0052166564
0.0088103355
0.0047967828
0.0081824503
0.0044078912
0.0075949515
0.0040481435
0.007046276
0.0037157414
0.0065343895
0.0034089566
0.0060576101
0.0031260101
0.0056142138
0.0028651809
0.0052017605
0.0026248638
0.0048189344
0.0024035452
0.0044636349
0.0021997207
0.0041336839
0.0020119061
0.0038275962
0.0018387657
0.0035432819
0.0016791112
0.0032793274
0.0015318808
0.0030342296
0.0013960906
0.0028068773
0.0012708478
0.0025957217
0.0011553075
0.0024000644
0.0010486991
0.002218673
0.0009503322
0.0020501692
0.00085955532
0.0018940304
0.00077577408
0.0017493376
0.0006984468
0.0016153364
0.00062708011
0.0014913018
0.00056122956
0.0013764792
0.00050049822
0.0012700121
0.00044450629
0.0011716118
0.00039292221
0.0010802564
0.00034542365
0.00099577725
0.00030172638
0.00091750138
0.00026160047
0.00084460736
0.00022485168
0.00077692781
0.00019136888
0.00071343728
0.00016112376
0.0006528691
0.00013409233
0.00059473262
0.00011020868
0.00053849757
8.9360465e-05
0.00048377301
7.1503365e-05
0.00042998332
5.6311107e-05
0.0003775111
4.3521003e-05
0.00032708706
3.2877623e-05
0.0002792921
2.4147128e-05
0.00023467461
1.7127806e-05
0.00019326907
1.1627117e-05
0.00015542422
7.4472227e-06
0.00012142325
4.3944394e-06
9.1284242e-05
2.27936e-06
6.5074709e-05
9.3443986e-07
4.2507187e-05
2.1616955e-07
2.3284919e-05
7.2046095e-06
0.0082046904
0.014237174
0.0075675897
0.013265063
0.0069772544
0.012354707
0.0064301465
0.011501214
0.0059229751
0.010701109
0.0054526316
0.0099505395
0.0050163207
0.0092468544
0.0046117579
0.0085872048
0.0042370385
0.0079698477
0.0038903396
0.0073931379
0.0035697974
0.0068550816
0.0032737025
0.0063538422
0.0030005512
0.0058874901
0.0027488636
0.0054535611
0.0025170372
0.0050508626
0.0023035029
0.0046772605
0.002106834
0.0043304343
0.0019257184
0.0040087845
0.001758949
0.0037101161
0.0016053708
0.0034329634
0.0014638937
0.0031757581
0.0013334998
0.0029373167
0.0012132795
0.0027159822
0.0011023976
0.0025109814
0.0010001082
0.002320993
0.00090574829
0.0021445556
0.00081869342
0.0019811079
0.0007383724
0.0018296779
0.00066425907
0.001689466
0.00059587408
0.0015597004
0.00053278391
0.0014395806
0.00047460424
0.001328201
0.00042096909
0.0012252545
0.00037156381
0.0011296678
0.00032608603
0.00104126
0.00028427271
0.00095931875
0.00024591535
0.0008829681
0.00021084138
0.00081200447
0.00017895891
0.00074532194
0.00015025094
0.00068157864
0.0001247051
0.00062027964
0.00010227897
0.00056092432
8.2892915e-05
0.00050315952
6.6363179e-05
0.00044651297
5.2282367e-05
0.00039159197
4.0416531e-05
0.00033895248
3.0532868e-05
0.00028917562
2.2414779e-05
0.00024279207
1.5882174e-05
0.00019980148
1.0762268e-05
0.00016054358
6.8779644e-06
0.00012530729
4.0485111e-06
9.411325e-05
2.0946659e-06
6.7028237e-05
8.5660449e-07
4.3744931e-05
1.9768109e-07
2.394365e-05
7.4020696e-06
0.0079198236
0.014908945
0.0072996511
0.013885552
0.006726087
0.012928562
0.0061951783
0.01203239
0.0057034663
0.011193066
0.005247843
0.010406388
0.0048255247
0.0096693791
0.0044342452
0.008978674
0.0040720965
0.0083321709
0.0037373073
0.0077280878
0.0034281352
0.0071644014
0.0031427925
0.0066393205
0.0028795521
0.006150854
0.0026369081
0.005696317
0.0024134639
0.0052744078
0.0022078174
0.0048829976
0.0020185362
0.0045197965
0.0018442275
0.0041831653
0.0016836569
0.0038707509
0.0015357294
0.003580948
0.0013994547
0.0033120834
0.0012738997
0.0030629165
0.0011582073
0.0028317141
0.0010515659
0.0026176573
0.00095324024
0.0024193486
0.00086257657
0.0022352451
0.00077896081
0.0020647458
0.00070183639
0.0019068211
0.00063069458
0.0017606237
0.00056507475
0.0016253336
0.00050456111
0.0015001052
0.00044878324
0.0013839879
0.00039738667
0.0012766585
0.00035006438
0.0011769961
0.00030652007
0.0010848092
0.00026650148
0.00099934138
0.00022981757
0.00091965531
0.00019632771
0.00084549708
0.00016598801
0.00077566368
0.00013883468
0.00070873358
0.00011487736
0.00064423793
9.4045741e-05
0.00058175667
7.6176487e-05
0.00052102895
6.1035159e-05
0.00046165441
4.8131943e-05
0.0004044949
3.7242788e-05
0.0003498416
2.8148648e-05
0.00029826921
2.0657837e-05
0.00025028257
1.4615232e-05
0.00020584334
9.8770124e-06
0.00016528121
6.2893183e-06
0.00012889437
3.6868008e-06
9.6715234e-05
1.8992397e-06
6.8815062e-05
7.7316804e-07
4.4870203e-05
1.7729734e-07
2.4538878e-05
7.5791688e-06
0.0082763377
0.016714772
0.0076233597
0.015562268
0.0070208833
0.014488345
0.0064644743
0.013485262
0.0059503617
0.012546771
0.0054751695
0.011668505
0.0050357451
0.010846039
0.004629095
0.010076237
0.0042526313
0.0093553286
0.0039042586
0.0086807187
0.0035821447
0.0080503625
0.0032845411
0.0074621524
0.0030098416
0.0069141549
0.0027565384
0.0064042802
0.0025231383
0.0059298286
0.0023081524
0.0054894943
0.0021102189
0.0050810215
0.0019280885
0.0047020079
0.0017605377
0.0043507884
0.001606395
0.004024958
0.0014645461
0.003722854
0.0013339647
0.0034427154
0.0012137035
0.0031832224
0.0011029151
0.0029425417
0.0010008137
0.0027197928
0.00090669179
0.0025135002
0.00081992261
0.0023220397
0.00073991712
0.0021447729
0.00066613881
0.0019806178
0.00059809778
0.0018286802
0.00053534732
0.0016880969
0.00047748571
0.0015579775
0.00042415528
0.001437327
0.00037501723
0.0013258035
0.00032978164
0.0012222373
0.00028817458
0.0011264208
0.00024996978
0.0010375498
0.00021500656
0.00095462141
0.00018317556
0.00087733031
0.00015445012
0.00080439078
0.00012885615
0.00073432868
0.00010636865
0.00066672609
8.687068e-05
0.00060125496
7.0334014e-05
0.00053756558
5.6343495e-05
0.00047564472
4.4474214e-05
0.00041636379
3.4459313e-05
0.00035985605
2.607519e-05
0.00030665287
1.9141756e-05
0.00025721543
1.3527932e-05
0.00021145667
9.1178389e-06
0.00016969066
5.7827197e-06
0.0001322289
3.3735236e-06
9.9123585e-05
1.7293253e-06
7.0458773e-05
7.0040236e-07
4.5898466e-05
1.5972988e-07
2.5079018e-05
7.7385596e-06
0.0086698655
0.018702219
0.00797967
0.017405349
0.0073443805
0.016197907
0.0067592944
0.015073751
0.0062196946
0.014025154
0.0057214746
0.013045259
0.0052611944
0.012129031
0.0048358634
0.011271596
0.0044426958
0.010469613
0.0040791955
0.0097190192
0.0037432198
0.0090168686
0.0034329337
0.0083608082
0.0031466039
0.0077486281
0.0028824723
0.0071784199
0.0026389113
0.0066479626
0.0024145314
0.0061543186
0.0022080039
0.0056961212
0.0020179878
0.0052711272
0.0018431592
0.0048769167
0.0016822601
0.004511759
0.0015341682
0.0041731136
0.0013978635
0.0038592154
0.0012724086
0.0035682205
0.0011569199
0.0032987555
0.0010505847
0.0030489157
0.00095263659
0.0028177747
0.00086238349
0.0026037825
0.00077921019
0.002405238
0.00070254439
0.0022214601
0.0006318675
0.0020513127
0.00056670812
0.0018938547
0.00050664009
0.0017481775
0.00045127907
0.0016133488
0.00040028354
0.001488331
0.00035332719
0.0013727668
0.00031012847
0.0012654415
0.00027042236
0.0011661314
0.00023399323
0.0010739825
0.00020069917
0.00098791836
0.00017046373
0.00090756793
0.00014330589
0.00083155032
0.00011927425
0.00075836136
9.833579e-05
0.00068766532
8.0344189e-05
0.00061924677
6.5135405e-05
0.00055277444
5.2259488e-05
0.00048852033
4.1367566e-05
0.00042725541
3.2166584e-05
0.0003690566
2.4424885e-05
0.00031439407
1.7975071e-05
0.00026366461
1.2713196e-05
0.00021671789
8.5582342e-06
0.00017384486
5.412015e-06
0.00013537454