/*--------------------------------*- C++ -*----------------------------------*\
| =========                 |                                                 |
| \\      /  F ield         | OpenFOAM: The Open Source CFD Toolbox           |
|  \\    /   O peration     | Version:  2506                                  |
|   \\  /    A nd           | Website:  www.openfoam.com                      |
|    \\/     M anipulation  |                                                 |
\*---------------------------------------------------------------------------*/
FoamFile
{
    version     2.0;
    format      ascii;
    arch        "LSB;label=32;scalar=64";
    class       volScalarField;
    location    "0.00033";
    object      Ma;
}
// * * * * * * * * * * * * * * * * * * * * * * * * * * * * * * * * * * * * * //

dimensions      [0 0 0 0 0 0 0];

internalField   nonuniform List<scalar> 
3474
(
7.1384215
7.3561719
7.3179053
7.1798106
6.7774266
6.1046726
5.5617973
5.3880604
5.5495526
5.710125
5.6799023
5.3274162
4.833973
4.5724978
4.6669122
4.8873877
4.9903244
5.0068747
5.0194314
5.1396607
5.2157561
5.092306
4.8630985
4.6739772
4.5954692
4.5947221
4.5949111
4.5411605
4.3984578
4.1170347
3.609564
2.947797
2.5396974
2.2678947
1.9546449
1.4031189
0.98470734
0.76304149
0.73098923
0.72484897
0.72668295
0.71424311
0.74205454
0.71741909
0.76877351
0.89821065
1.0848972
1.3083151
1.17639
0.66533015
0.33343186
0.30169359
0.17754564
0.27585522
0.20753577
4.589498
4.8999754
4.8672195
4.8186497
4.7635975
4.7197902
4.7028799
4.7119458
4.742716
4.7854512
4.8264137
4.8481394
4.8380132
4.7996731
4.7683976
4.7823329
4.8226248
4.8309203
4.8013303
4.7697248
4.7560976
4.7263655
4.6820823
4.6186001
4.5210817
4.3886406
4.2079645
3.9461022
3.5563144
2.9009967
2.2500987
1.8378015
1.6220231
1.2914116
1.0979294
1.0000263
0.96774733
0.94616468
0.95870271
0.95434221
0.95408039
0.98219449
1.0234469
1.1160977
1.2231438
1.3584156
1.4563505
1.3665656
0.8552904
0.4601419
0.36567802
0.38306629
0.29156019
0.26942318
0.23417148
4.3235774
4.7074592
4.7189252
4.7206171
4.727465
4.7314715
4.7354199
4.732494
4.7239159
4.7062674
4.6884485
4.6722281
4.6657692
4.6632881
4.6565778
4.6352456
4.6078527
4.5760917
4.5449551
4.5002204
4.4401109
4.3530924
4.2244931
4.0225423
3.69949
3.1735911
2.671581
2.1548332
1.7432343
1.5206409
1.3717054
1.3004014
1.2520707
1.2030679
1.174235
1.1675872
1.1876744
1.2175967
1.2327058
1.2650105
1.2910791
1.3371037
1.385118
1.5036714
1.5737878
1.6052684
1.5289555
1.0878435
0.62846342
0.498692
0.48502206
0.42020536
0.44321487
0.54011953
0.48336916
4.0699569
4.4613328
4.4705759
4.4593312
4.4581095
4.4448042
4.4365748
4.4133617
4.3870979
4.3443992
4.305008
4.2560481
4.2130693
4.158221
4.0936766
3.9947728
3.8727159
3.7279932
3.5654654
3.362649
3.1348406
2.8582877
2.5584177
2.2327203
1.953915
1.7738754
1.6159899
1.5341052
1.467183
1.4419359
1.426565
1.4234978
1.4302075
1.4513985
1.4732314
1.48192
1.520589
1.5656217
1.5877591
1.6227987
1.6656603
1.7138159
1.7365567
1.7745483
1.7547744
1.6775737
1.4015992
0.80750614
0.59335834
0.55981747
0.55840963
0.67255273
0.69365754
0.47928016
0.3693161
0.47194323
3.0133826
3.274788
3.2437569
3.2289904
3.2002285
3.1728172
3.1267078
3.069602
2.9903349
2.9012246
2.8143669
2.7316071
2.6627992
2.5940738
2.518866
2.4261337
2.3404894
2.2540538
2.1820069
2.0956748
2.0123983
1.9236105
1.8507353
1.7790091
1.7334085
1.6886398
1.6627217
1.6501775
1.6526274
1.6981942
1.7326849
1.7761911
1.7949617
1.8129578
1.8251221
1.8383693
1.8637574
1.9093151
1.9300013
1.9489465
1.9580438
1.9599097
1.9217985
1.859875
1.764147
1.5589151
0.92611341
0.6810063
0.62741034
0.65704038
0.73512453
0.66095256
0.39503664
0.47878476
0.51461214
0.49406292
2.1552016
2.3178008
2.3085373
2.2961345
2.2863245
2.272737
2.2603486
2.2435091
2.2271508
2.2067306
2.1878889
2.1663293
2.1490352
2.1298036
2.1133291
2.0916452
2.0722689
2.0491738
2.029842
2.0039352
1.9799002
1.9517438
1.9348206
1.9252152
1.9335868
1.9531147
1.983646
2.0123164
2.0386116
2.0616535
2.0868246
2.1073562
2.124402
2.1298907
2.1317035
2.1315872
2.1244986
2.131499
2.1158642
2.0959429
2.0641849
2.0137584
1.9321933
1.7921412
1.4580862
0.99860732
0.75280307
0.69405637
0.75160009
0.6633137
0.41677453
0.48312997
0.53658879
0.53557478
0.5105858
0.48922416
2.0917297
2.2571129
2.2599919
2.2555965
2.2545871
2.2503793
2.2474925
2.2411726
2.2360981
2.2287008
2.2234955
2.2174508
2.2149152
2.2128541
2.2128362
2.2119167
2.213517
2.2152965
2.2210102
2.2251165
2.2341761
2.2438189
2.2585336
2.2668513
2.2730616
2.2799996
2.2881411
2.2934729
2.3023609
2.3123802
2.321522
2.3266531
2.3217027
2.3041139
2.2794597
2.246922
2.2086098
2.1679248
2.1231613
2.0772712
2.0148833
1.9080477
1.6959666
1.2956612
0.97069462
0.84567679
0.79750126
0.82214075
0.35878159
0.45376959
0.52376228
0.53471186
0.53910829
0.5257692
0.51226658
0.49463073
0.45834722
2.2527369
2.4442899
2.4485559
2.4489066
2.4493921
2.4499295
2.4513759
2.4534223
2.4571516
2.4613762
2.466627
2.4705631
2.4741278
2.4766024
2.4796051
2.4809622
2.481745
2.4814712
2.4809677
2.4788223
2.4752806
2.4694137
2.461275
2.4515411
2.440457
2.4311708
2.4203931
2.410892
2.4055261
2.3988663
2.3926441
2.3795487
2.3566003
2.318801
2.2787676
2.2291649
2.1651229
2.0624616
1.8857292
1.7079842
1.5570976
1.356658
1.1347999
1.0027345
0.94966089
0.94232444
0.59870323
0.35856227
0.49896291
0.51814827
0.52838939
0.53429038
0.5385493
0.5259583
0.51250246
0.49330742
0.45878374
2.3962752
2.6249834
2.6300922
2.6288575
2.6288596
2.6277476
2.627037
2.6253112
2.6232956
2.6199245
2.6172385
2.6144803
2.6130474
2.6103001
2.606812
2.601557
2.5955253
2.587708
2.5794201
2.5680999
2.5550508
2.5387312
2.5205956
2.4993456
2.4775763
2.456135
2.4358663
2.4173836
2.4042837
2.3892221
2.3728109
2.3473593
2.3100073
2.2516885
2.1812417
2.0784914
1.9047812
1.5836097
1.3381424
1.2388568
1.1848073
1.1261417
1.0915323
1.0444405
0.78361269
0.30075986
0.45518185
0.49954399
0.51116511
0.51804822
0.52851207
0.53419446
0.5384026
0.5258308
0.51240312
0.49336808
0.45879062
2.4201791
2.6719105
2.6777246
2.6745152
2.6735175
2.6700864
2.6675652
2.6623358
2.6578238
2.6510876
2.6462176
2.6398564
2.6353943
2.6299675
2.6249966
2.6155038
2.6057882
2.5942678
2.5834024
2.5685677
2.5523183
2.5313322
2.5079014
2.479532
2.4494727
2.4150716
2.3793727
2.3394434
2.2984112
2.2494947
2.1923845
2.1228587
2.0380991
1.9348731
1.8246459
1.6909469
1.5095198
1.3155474
1.2482047
1.2216077
1.1978824
1.0933605
0.68927845
0.32597422
0.44467286
0.49173515
0.49511991
0.49972417
0.50777589
0.52053059
0.52780505
0.53415786
0.53836526
0.52593715
0.51243965
0.49338501
0.4588125
2.3985774
2.6533419
2.6608092
2.6587623
2.6597539
2.6570182
2.6541161
2.6451452
2.6347946
2.6199084
2.607578
2.5954106
2.5886434
2.5799509
2.5684472
2.5483634
2.5278694
2.5062284
2.4852255
2.4566243
2.4257757
2.3866142
2.3454103
2.2955979
2.2398508
2.1730594
2.1017323
2.0286649
1.9576447
1.8827186
1.8209208
1.7660118
1.7301433
1.6843482
1.657578
1.5675908
1.4319633
1.2779561
1.123479
0.69989387
0.34310055
0.39643477
0.46690992
0.48787337
0.49131123
0.49263758
0.49313678
0.501068
0.50802643
0.51935787
0.52837705
0.53399112
0.53824056
0.5259421
0.51236663
0.49336588
0.45881149
0.45204078
2.2109551
2.4679952
2.472794
2.4620411
2.4573855
2.4473269
2.4405083
2.4277429
2.4170935
2.4006523
2.387653
2.370958
2.3591462
2.3423865
2.326793
2.301737
2.2792171
2.25259
2.2311546
2.2019922
2.1786283
2.1485201
2.1251297
2.0915113
2.0656621
2.0211985
1.9795587
1.8890804
1.8105482
1.7326606
1.6824045
1.6337403
1.5954515
1.5082827
1.3294893
0.8719451
0.37344642
0.34615855
0.42116028
0.4788998
0.49545348
0.49297028
0.48870513
0.48824159
0.49139523
0.49274767
0.49322017
0.50048683
0.508134
0.51955453
0.5279779
0.53384905
0.53806908
0.52588368
0.5122758
0.49333339
0.45876047
0.45189647
1.9783516
2.2871645
2.2990275
2.2985846
2.2976031
2.295197
2.2901446
2.2811391
2.2678081
2.2516454
2.2367408
2.2237151
2.2139283
2.2025837
2.1892336
2.1684978
2.1486321
2.1291797
2.1145873
2.0936356
2.0767953
2.0534302
2.036204
2.0054263
1.9727636
1.8749359
1.6975943
1.415081
1.0517638
0.71761081
0.56844184
0.4520434
0.37154232
0.39205493
0.43686665
0.47208933
0.48099915
0.48167162
0.48881281
0.49340674
0.49589517
0.4914559
0.48860359
0.48807139
0.49111859
0.49234909
0.49286191
0.50050626
0.50797337
0.51951315
0.52779116
0.53367697
0.53790512
0.52583002
0.51219561
0.4933057
0.45873727
0.45178691
1.748297
2.0531508
2.0612107
2.042408
2.0320262
2.0102778
1.9897165
1.958762
1.9233547
1.8753933
1.8158472
1.739713
1.6449641
1.5274087
1.3919478
1.250396
1.127604
1.0285519
0.92045523
0.77969624
0.6423401
0.544684
0.45843318
0.36719785
0.32790435
0.33958058
0.38381601
0.4320682
0.46010911
0.47605384
0.48721635
0.49567369
0.50087757
0.50221974
0.49256073
0.48623863
0.48159066
0.4813732
0.48877346
0.49364883
0.49581448
0.49132353
0.48843801
0.48791766
0.49102237
0.49228801
0.492716
0.50030883
0.50775512
0.51936383
0.52764784
0.53353957
0.53778063
0.52580336
0.51215069
0.49330189
0.45874856
0.4517385
0.3434727
0.38364709
0.38156708
0.3833816
0.38471647
0.38800389
0.39300661
0.39795448
0.40630294
0.41253979
0.42425003
0.43151303
0.44441967
0.44966006
0.45807682
0.45704772
0.46105617
0.45839403
0.46380579
0.46222406
0.46541804
0.46440223
0.46557694
0.46614723
0.46858778
0.47062568
0.4748572
0.47671824
0.4799965
0.48321533
0.48938627
0.49638066
0.50110601
0.50278831
0.49275729
0.48576865
0.48122372
0.48132372
0.48910053
0.49350171
0.49566368
0.49130997
0.48834277
0.48781648
0.49094063
0.49222033
0.49257641
0.50020222
0.50766358
0.51925644
0.52754332
0.53346142
0.53770928
0.52584501
0.51213474
0.49332226
0.45876792
0.45168628
0.45872394
0.50176312
0.5039065
0.5042877
0.50432995
0.5044744
0.50406053
0.50336193
0.50175835
0.4999142
0.49776865
0.49615378
0.49456926
0.49295638
0.48992891
0.48558324
0.48049029
0.47625646
0.47280316
0.4700211
0.46765936
0.46637228
0.46571497
0.46621424
0.46856861
0.47143304
0.47500877
0.47718254
0.47966376
0.48300777
0.48900232
0.49608023
0.50124282
0.50317501
0.49284874
0.48547408
0.48088481
0.4811891
0.48924057
0.49344699
0.49547679
0.49131501
0.48827755
0.48773136
0.49087069
0.49216426
0.49246929
0.50009795
0.50755897
0.51913675
0.52742681
0.53335935
0.5376079
0.52584247
0.51209743
0.49333014
0.45881209
0.45165789
0.45813344
0.50116035
0.50318358
0.50347788
0.50333602
0.50331416
0.50273269
0.5019486
0.50043676
0.49883869
0.49709003
0.4959339
0.49470595
0.49331585
0.49033104
0.48587265
0.48054379
0.47632249
0.47304476
0.47076172
0.46868322
0.46710756
0.46621462
0.46646461
0.46804535
0.47076291
0.47425604
0.47683396
0.4794001
0.48329807
0.48928266
0.49619926
0.50099412
0.50268955
0.49273183
0.48571635
0.48109398
0.48122365
0.48900128
0.4932839
0.49546573
0.49130996
0.48823306
0.48766097
0.49081522
0.49212315
0.49245604
0.50004099
0.50750467
0.51906276
0.52734947
0.53328366
0.5375239
0.52582131
0.51204533
0.4933187
0.45881715
0.45159336
0.4579925
0.50099428
0.50313918
0.50377137
0.50381998
0.50403807
0.50364454
0.50284707
0.50118369
0.49936112
0.49740826
0.49601533
0.49462794
0.49325127
0.4904359
0.48607699
0.4807422
0.47633085
0.47287876
0.47038887
0.46821515
0.46668128
0.46569571
0.4659693
0.46764913
0.47065488
0.47414351
0.47684814
0.47927953
0.48331247
0.48915285
0.49617468
0.50101858
0.50274253
0.49269379
0.48560966
0.48092409
0.4810123
0.48888451
0.49331094
0.49549246
0.49122831
0.48815838
0.48759856
0.49075192
0.49205791
0.49240509
0.49999395
0.50744012
0.51901332
0.52729134
0.53324251
0.53748567
0.52589045
0.51204962
0.49335411
0.45883489
0.45149983
0.45743298
0.50045515
0.50238223
0.50248914
0.50230118
0.50208667
0.50146006
0.50075652
0.49963365
0.49853295
0.49734815
0.49659038
0.49564306
0.49421408
0.4910587
0.48643887
0.48087423
0.47621966
0.47280447
0.47082122
0.469314
0.46750615
0.46628246
0.46622679
0.46673283
0.46937603
0.47295579
0.47628218
0.47888556
0.48352269
0.48948857
0.4963629
0.50086705
0.50232321
0.49258113
0.48590214
0.48101909
0.48082038
0.48819293
0.49312112
0.49551048
0.49123174
0.48802965
0.48742421
0.49060983
0.49194966
0.49225755
0.49985325
0.50724798
0.51886048
0.52714079
0.53310796
0.53735905
0.52590816
0.51201611
0.49338038
0.45886335
0.45142551
0.45706761
0.50005505
0.50190564
0.5018796
0.50159471
0.50133963
0.50072143
0.50011845
0.49912701
0.49815573
0.4970992
0.49646469
0.49553652
0.49399767
0.49084223
0.48644715
0.48115226
0.47661358
0.47318034
0.47118701
0.46967661
0.4678216
0.46644289
0.46624374
0.46658488
0.46875636
0.47239963
0.47562295
0.47869125
0.48331787
0.48971363
0.49638538
0.5007652
0.50210918
0.49250322
0.48592804
0.48104632
0.48080932
0.48788654
0.49280485
0.49534597
0.49144232
0.48795342
0.4872806
0.49048338
0.4918691
0.49215873
0.49969594
0.50707887
0.5186922
0.52697334
0.53294603
0.53719619
0.52584908
0.5119267
0.49334137
0.45884075
0.45131595
0.45669467
0.49962864
0.50136456
0.50124131
0.50082168
0.50047374
0.49990862
0.49935909
0.49847148
0.49767818
0.49675483
0.4961021
0.49504327
0.49338782
0.49024178
0.48617119
0.48143987
0.47734637
0.47392799
0.47190684
0.47021843
0.46823777
0.46659416
0.46624397
0.46645498
0.46833378
0.47186458
0.4751022
0.4784513
0.48329723
0.48986105
0.49642589
0.50063634
0.50185348
0.49248428
0.48597817
0.48115669
0.48086185
0.48763957
0.49256312
0.49520173
0.49162103
0.48792488
0.48719768
0.49039244
0.49181164
0.49209823
0.49958176
0.50693881
0.51855149
0.52684008
0.53281935
0.53707111
0.52579702
0.51185356
0.49330912
0.45884881
0.45126808
0.45709304
0.50007801
0.50190064
0.50176837
0.50136193
0.50101559
0.50032603
0.49965251
0.49854989
0.49756784
0.49658422
0.4961596
0.49541481
0.49389635
0.49050793
0.48584479
0.48053866
0.47604679
0.47278209
0.47099083
0.4698178
0.46776509
0.46650764
0.4663841
0.46676347
0.4689306
0.47234401
0.47554312
0.47841186
0.48300271
0.4891506
0.49597358
0.50045451
0.50188661
0.49235284
0.48576666
0.48105061
0.48091142
0.4877693
0.49237323
0.49492189
0.49151098
0.48787725
0.48714303
0.49026743
0.49168921
0.49202444
0.49944488
0.50680524
0.51839089
0.52668447
0.53267185
0.53692296
0.52572007
0.51175703
0.49326067
0.45885098
0.4512272
0.45684828
0.49975432
0.50149536
0.50130155
0.5008692
0.50048035
0.49988924
0.49931012
0.49844779
0.49761461
0.49671905
0.49609477
0.49506611
0.49321489
0.48974816
0.4853056
0.48033843
0.4760568
0.47273591
0.47092851
0.46978292
0.46814185
0.46682471
0.46650808
0.46667691
0.46870883
0.47237253
0.47535289
0.47831983
0.48265075
0.48910639
0.49575572
0.5001923
0.50163118
0.49226853
0.48568015
0.48102092
0.4808789
0.48761697
0.49214443
0.49469114
0.49145892
0.48778174
0.4870248
0.49012314
0.49157268
0.49189693
0.49926411
0.50660295
0.51821369
0.52651138
0.53251168
0.5367704
0.52568632
0.51168161
0.4932296
0.45883209
0.45111452
0.46498813
0.45683098
0.4998986
0.5017506
0.50175946
0.50158937
0.50145163
0.50108789
0.5005599
0.4996965
0.49853425
0.49736082
0.49654155
0.49569701
0.49376083
0.49011676
0.48513758
0.47954342
0.47449112
0.47101381
0.46921795
0.46821339
0.46751525
0.46643794
0.46644131
0.46676933
0.46906227
0.47315816
0.47582656
0.47833074
0.48205166
0.48844753
0.49532272
0.50013978
0.50184814
0.49217971
0.48534144
0.48071375
0.48076305
0.48780008
0.49205492
0.49448692
0.49130513
0.48770134
0.486952
0.4900134
0.49148859
0.49177273
0.49908478
0.50643254
0.51807052
0.52635286
0.53236497
0.53662603
0.52564362
0.51160193
0.49318448
0.45879
0.45100096
0.4647042
0.45480689
0.49781753
0.49961977
0.49950525
0.49911229
0.49880896
0.49821048
0.49766551
0.49682601
0.49609198
0.49534227
0.49495053
0.49418988
0.49276307
0.48989718
0.48598364
0.4813821
0.47738312
0.47428319
0.47255429
0.47094832
0.46873676
0.46668344
0.46597905
0.46585665
0.46690224
0.47051455
0.47352787
0.47786022
0.4826996
0.48997131
0.49592338
0.4997638
0.50075899
0.49211217
0.48568619
0.48095856
0.48047085
0.48658479
0.49177744
0.49464744
0.49166988
0.48748024
0.48665162
0.48987324
0.49138368
0.49147687
0.49890022
0.50613773
0.51785498
0.52613603
0.53216659
0.53643683
0.52559913
0.51149351
0.49310739
0.45873383
0.45084991
0.46440603
0.45414228
0.49698605
0.49849465
0.49798947
0.49713427
0.49646172
0.49573226
0.49533778
0.49490472
0.49474086
0.49449022
0.49433438
0.49357588
0.49215228
0.48942277
0.48601645
0.48220593
0.47881861
0.47592803
0.47414583
0.47231191
0.46964319
0.46725869
0.46619337
0.46574422
0.46605995
0.46947603
0.4724328
0.47768282
0.48286492
0.49066655
0.49607595
0.49943638
0.50011125
0.4920704
0.48583831
0.48114397
0.48039216
0.48603525
0.49164574
0.49467532
0.49167433
0.48736812
0.48651314
0.48977028
0.49126503
0.49127597
0.49874432
0.50592196
0.51765014
0.52592719
0.53195876
0.53622908
0.5255074
0.51136729
0.49302224
0.45865446
0.45067845
0.46405073
0.45468972
0.4976544
0.49935638
0.4991361
0.49862456
0.49820763
0.49752731
0.49695403
0.49613702
0.49548559
0.49478321
0.49437112
0.49354944
0.49205224
0.48924305
0.48552709
0.48118459
0.47746608
0.47450576
0.47283778
0.47127754
0.46905048
0.46692937
0.46608367
0.46584571
0.46664761
0.47013254
0.47314719
0.47766208
0.48252219
0.48982775
0.49573502
0.49950754
0.50047115
0.49199079
0.48557509
0.48086851
0.48032056
0.48632147
0.49159712
0.494504
0.4915401
0.4873481
0.48650332
0.48973358
0.49122511
0.49125521
0.49864713
0.50585051
0.51754232
0.52582448
0.5318658
0.53613603
0.52551801
0.51136723
0.49305919
0.45870372
0.45063402
0.46373687
0.45503742
0.49802733
0.49976396
0.49958739
0.4991421
0.49878018
0.49814252
0.4975734
0.49668129
0.49588386
0.49505252
0.49463998
0.4938638
0.49233326
0.48929331
0.48525971
0.480635
0.47665969
0.4735808
0.47188195
0.47048853
0.46835586
0.46648084
0.46585004
0.46579516
0.46703586
0.47057811
0.47365264
0.47760675
0.48227671
0.48926371
0.49546105
0.49945236
0.50056693
0.49184202
0.48532933
0.48068537
0.48030493
0.48653087
0.49144729
0.49424542
0.491483
0.48730454
0.48644186
0.48965768
0.49116324
0.49121743
0.49855933
0.50578016
0.51745682
0.52573317
0.53179441
0.53607302
0.52556683
0.51140342
0.49315233
0.45883046
0.45068076
0.46357167
0.45485765
0.49780104
0.49947196
0.49926138
0.49868514
0.49827216
0.49765287
0.49712048
0.49630515
0.49560508
0.49481974
0.49436629
0.49350052
0.49191243
0.48883156
0.48488793
0.48047046
0.47665814
0.47355515
0.47182643
0.47041819
0.4684103
0.46650242
0.46581539
0.46570196
0.46680775
0.47041094
0.47343835
0.47744573
0.48200008
0.48909902
0.49516856
0.49906543
0.50015305
0.49167622
0.48524295
0.48066306
0.48020829
0.48613744
0.49117799
0.49404353
0.49145025
0.48714183
0.48626392
0.48947924
0.49099066
0.49108199
0.49841367
0.50562972
0.51728355
0.52555105
0.53161748
0.53589638
0.52548591
0.5113108
0.49312612
0.45886568
0.45065197
0.46338348
0.45495676
0.49787344
0.49951015
0.49923195
0.49862539
0.49818452
0.49757657
0.49704797
0.49631168
0.49566531
0.49502405
0.49470142
0.49387724
0.49218168
0.48891513
0.48472744
0.48012917
0.47607117
0.47291543
0.47121687
0.47008821
0.46812032
0.46637949
0.46574462
0.46564475
0.46682317
0.47058865
0.47339912
0.47733693
0.48174631
0.48886889
0.49495246
0.49895389
0.50012437
0.49157604
0.48505072
0.48045734
0.48003894
0.48608698
0.49103714
0.4938423
0.49124375
0.48699514
0.48610014
0.48928553
0.49082013
0.4909015
0.49823614
0.50542975
0.51707842
0.52532448
0.53138919
0.53565509
0.5252932
0.51110073
0.49295915
0.45885596
0.4505034
0.4630376
0.45560212
0.49842577
0.49994971
0.49963822
0.49894678
0.49838084
0.49777339
0.49726267
0.49666829
0.49612284
0.49555757
0.49498764
0.49368157
0.49154178
0.4882754
0.48436659
0.48011451
0.47612216
0.47271909
0.47075728
0.46941344
0.46759985
0.46619211
0.4657602
0.46578442
0.46735967
0.47092995
0.47373894
0.47723135
0.48160741
0.48840954
0.49474829
0.49893675
0.50025259
0.49155261
0.48490936
0.48029301
0.47996818
0.48621734
0.49100871
0.49373367
0.49110415
0.48690874
0.48601342
0.48920573
0.49075332
0.49080846
0.49813054
0.50530371
0.51696385
0.52519093
0.53125863
0.53551239
0.52519456
0.51096637
0.4928612
0.45889025
0.45041785
0.46276985
0.45545036
0.49822563
0.4996938
0.49928259
0.49856247
0.49791271
0.49734183
0.49688023
0.49649714
0.49616458
0.49582076
0.49528176
0.49396231
0.49164781
0.48825464
0.48428514
0.48013091
0.47606169
0.47260544
0.47057553
0.46937071
0.46767773
0.46634805
0.46585558
0.46577056
0.46704328
0.47100353
0.47364339
0.47733501
0.48137559
0.48851371
0.49465617
0.49880896
0.5001226
0.49158243
0.48493472
0.48032798
0.47993729
0.48597922
0.49090984
0.49369309
0.49113315
0.48685418
0.48594557
0.48914697
0.49071192
0.49071917
0.49805509
0.5051968
0.51686713
0.52508841
0.53116495
0.5354179
0.52517926
0.51090596
0.49282591
0.45896926
0.45033833
0.46260615
0.45532509
0.49806814
0.49947513
0.49899779
0.49818669
0.49750284
0.49685877
0.4963722
0.49593758
0.49562212
0.49528897
0.49480505
0.49350126
0.49131568
0.4880811
0.48427365
0.48018698
0.47623108
0.47286595
0.47088381
0.46953423
0.46765343
0.46620613
0.46568486
0.46559961
0.46679342
0.47063189
0.47333768
0.47708807
0.48130252
0.48838881
0.4945032
0.4985843
0.49986254
0.49153773
0.48484946
0.4802375
0.4797654
0.48564831
0.49073127
0.49357288
0.49108774
0.48671893
0.48579484
0.48902361
0.49060512
0.49058706
0.49794465
0.50506149
0.51674671
0.52496697
0.53105453
0.53531166
0.52515396
0.51083942
0.49280435
0.45902585
0.4502588
0.46249962
0.45471459
0.49757579
0.49911505
0.49877587
0.49812646
0.49756545
0.49701106
0.49659276
0.49608378
0.49560621
0.49497931
0.4942976
0.49294361
0.49083641
0.48784426
0.48430145
0.48027019
0.47639708
0.47305567
0.47097702
0.46941098
0.46744179
0.4657941
0.46513907
0.46500812
0.46614236
0.4699879
0.47289358
0.47692942
0.48135011
0.48853628
0.49451935
0.4984618
0.49961425
0.49122741
0.48471824
0.48004867
0.47949366
0.48529958
0.49056771
0.49348498
0.49096383
0.48650335
0.48557778
0.48884247
0.49043227
0.49038054
0.49776884
0.50484441
0.51655453
0.52477377
0.53087624
0.53513748
0.52506279
0.51071553
0.4927109
0.45903113
0.45008588
0.46229749
0.49338057
0.45375867
0.49673659
0.498337
0.49810201
0.49748213
0.49701698
0.49643537
0.49592974
0.49525935
0.49469628
0.49407362
0.49362435
0.49262083
0.4909527
0.48808989
0.48444575
0.48030283
0.47647985
0.47329749
0.47139213
0.46982813
0.4676887
0.46572453
0.46496209
0.46479081
0.46572319
0.46941637
0.47241893
0.47672522
0.48138056
0.48863776
0.49441163
0.49813992
0.4991707
0.49100416
0.48463444
0.47997986
0.47932289
0.48491916
0.49036093
0.49335449
0.49088247
0.4863139
0.48537554
0.48867502
0.49028003
0.49017663
0.49759614
0.50463539
0.51636939
0.52458871
0.53070801
0.53497484
0.52501326
0.51062354
0.49265451
0.45907625
0.44990405
0.46206614
0.49315321
0.45365798
0.49661814
0.49822036
0.49784435
0.49717975
0.49664986
0.49604868
0.49559669
0.4949988
0.4945218
0.49401438
0.49370381
0.49284359
0.49116539
0.4881139
0.48430155
0.48011198
0.47628981
0.4731119
0.47123912
0.46974197
0.46761985
0.46564561
0.46484795
0.4646182
0.46544335
0.4692694
0.47212026
0.47657659
0.48117755
0.48866024
0.4943431
0.49804218
0.49903633
0.49085501
0.48450101
0.47987355
0.47921671
0.48474962
0.49015362
0.49317822
0.49084695
0.4861765
0.48521122
0.48852187
0.49013946
0.49000272
0.49740256
0.50443503
0.51617835
0.52439951
0.53053253
0.53480194
0.52494849
0.51051252
0.49257956
0.45911131
0.44972289
0.46185244
0.49297356
0.45313228
0.49607905
0.49758037
0.49719041
0.49642748
0.4958267
0.49520941
0.4947382
0.49422573
0.49389963
0.49359493
0.4933472
0.49239513
0.49065018
0.48785218
0.4843783
0.48046612
0.47681035
0.47371554
0.47179352
0.47017017
0.46788134
0.46583404
0.4649476
0.46461585
0.4650986
0.46897011
0.471696
0.47648218
0.48110378
0.48887643
0.49425772
0.49781125
0.49869986
0.49084783
0.48453681
0.47994753
0.47921114
0.48448589
0.48995525
0.49302905
0.49087601
0.48608514
0.48509256
0.48841056
0.49004543
0.48989246
0.4972667
0.5042941
0.51603755
0.52425687
0.530401
0.53466887
0.52489405
0.51042001
0.49251376
0.45913809
0.4495495
0.4616213
0.49274203
0.45219346
0.49515802
0.49669645
0.49632943
0.49564493
0.49508925
0.49453375
0.49416344
0.49374761
0.49348783
0.49313554
0.49269506
0.49156286
0.48981356
0.48734514
0.48441241
0.48093807
0.47757069
0.47453015
0.47245011
0.47056624
0.46813013
0.46604141
0.46504671
0.4646117
0.4648792
0.46850129
0.47135624
0.47646795
0.48120726
0.4890046
0.4941699
0.49749504
0.49825954
0.49074596
0.48458835
0.48005678
0.47922853
0.48421524
0.48979369
0.49291759
0.49088765
0.48600752
0.48500206
0.48831881
0.48995289
0.48981264
0.49717137
0.50419069
0.51593442
0.52415188
0.53031113
0.53458459
0.52491031
0.51040447
0.49253012
0.45925057
0.44946124
0.46145199
0.49252828
0.45179097
0.49481387
0.49638355
0.49592871
0.49524795
0.4946478
0.49406021
0.49368959
0.49324396
0.49296661
0.49258624
0.49225567
0.49132587
0.48969302
0.48712326
0.4841363
0.48074227
0.47759731
0.47467156
0.47265596
0.47071061
0.46821593
0.46608772
0.46512476
0.46473527
0.46498066
0.46844558
0.47123679
0.4763037
0.48111696
0.48879323
0.49393602
0.49715897
0.49791099
0.49061705
0.48452044
0.48005002
0.47919871
0.48405792
0.48961155
0.49269205
0.49071468
0.48592028
0.4849188
0.48817899
0.48983219
0.48972963
0.49703656
0.5040851
0.51581917
0.52403143
0.53020128
0.53447642
0.52490236
0.51036652
0.49254483
0.45936246
0.44942075
0.46136132
0.45204794
0.49504594
0.49654272
0.49603336
0.49533994
0.4946856
0.49412459
0.49376211
0.49342626
0.49318359
0.49274662
0.49214871
0.4909327
0.48908182
0.48654698
0.48382625
0.48083803
0.4778131
0.47478733
0.47249749
0.4703181
0.46773333
0.46576428
0.46481975
0.46444711
0.46482959
0.4681646
0.47094045
0.47603349
0.48087045
0.48849469
0.49373024
0.49705906
0.49787642
0.49066276
0.48435172
0.47981183
0.47891337
0.48373857
0.48940096
0.49250937
0.49063587
0.48576492
0.4847245
0.48800053
0.48967429
0.48954253
0.49683765
0.50386283
0.51562464
0.52382853
0.530012
0.53428734
0.52481597
0.51022513
0.49243173
0.45935872
0.45138469
0.49446014
0.49601699
0.49557615
0.49496575
0.49440179
0.49387906
0.493523
0.49317655
0.49290594
0.49248549
0.49201309
0.49094168
0.48917283
0.48669134
0.48388484
0.48071601
0.47761839
0.47463189
0.47240884
0.4702931
0.46773301
0.46570164
0.46473787
0.46435887
0.46475541
0.46814434
0.47083373
0.47594011
0.48071058
0.48840979
0.49351571
0.49684298
0.49764386
0.49053487
0.48431458
0.47982594
0.47890114
0.48356449
0.48921551
0.49232405
0.49057715
0.48571951
0.48466311
0.48788653
0.4895588
0.48941857
0.49668718
0.50370683
0.51546293
0.52366027
0.52984614
0.53412013
0.52473638
0.51009504
0.45121773
0.49425174
0.49576888
0.49527407
0.49458601
0.49395451
0.49338867
0.49302085
0.49270267
0.49251684
0.49222718
0.49186693
0.49089241
0.48913721
0.48654808
0.48355239
0.48026586
0.47716122
0.47428268
0.47227707
0.47040444
0.46796607
0.46589477
0.46489626
0.46445443
0.46470139
0.46823241
0.47085873
0.47595928
0.48046626
0.48818659
0.4931353
0.4965344
0.49734804
0.49037529
0.48420507
0.47976851
0.47885027
0.48345085
0.48909451
0.49218838
0.49044757
0.48562645
0.48457574
0.48778557
0.48945267
0.48931038
0.49658392
0.50359167
0.51532888
0.52351615
0.52970452
0.53397459
0.5246352
0.45134656
0.49438056
0.49588383
0.49537884
0.49463102
0.49395412
0.49337706
0.49299217
0.49265828
0.49247962
0.49220283
0.49182585
0.49078638
0.48899337
0.48632486
0.48325289
0.47987661
0.47666843
0.47368931
0.47161683
0.4697716
0.46745841
0.46559671
0.46475454
0.46444595
0.46490491
0.46836346
0.47098102
0.47585884
0.4802721
0.48767223
0.49278738
0.49622111
0.49711897
0.49011806
0.48398745
0.47968101
0.47881041
0.4833234
0.48882902
0.49189791
0.49034765
0.48551477
0.48446012
0.48762514
0.48930736
0.48918019
0.49639914
0.50342201
0.51515626
0.52334408
0.52954721
0.45109274
0.49417858
0.49574687
0.49535787
0.49470967
0.49414171
0.49358032
0.49317959
0.49273686
0.49243094
0.49197071
0.49145444
0.49030671
0.48853895
0.485991
0.48310008
0.47979775
0.47659328
0.47352932
0.47130705
0.46927067
0.46691219
0.46517545
0.46448493
0.46434613
0.49694902
0.48995849
0.48380475
0.47951594
0.47865952
0.48321626
0.48870112
0.49172291
0.49014935
0.48539521
0.48435941
0.4875067
0.48919018
0.4890812
0.49625162
0.50327549
0.51499236
0.52317035
0.52938312
0.45141202
0.49443518
0.49593789
0.49558348
0.49487267
0.49428679
0.4937301
0.49331451
0.4928764
0.49250929
0.49206126
0.49147117
0.49014421
0.48818997
0.48554719
0.48260122
0.4793799
0.47610594
0.47295479
0.47068258
0.46883125
0.46670678
0.4651927
0.49608684
0.50312597
0.51483081
0.45040436
0.49343259
0.49490225
0.49430171
0.49351673
0.49278932
0.49218905
0.49183059
0.49158938
0.49145856
0.49114303
0.49062328
0.4894401
0.4875715
0.4851372
0.48256791
0.47977954
0.47692944
0.47403757
0.4484502
0.4915657
0.49310659
0.49276723
0.49202272
0.49144694
0.49082556
0.49047326
0.49011231
0.48995453
0.48963636
0.48918033
0.48806935
0.48659906
0.48472982
0.48267342
0.48013281
0.47756092
0.44725875
0.49055429
0.49227146
0.49204645
0.49157097
0.49115333
0.49066543
0.49030644
0.48982541
0.48952065
0.48908164
0.48867285
0.48781569
0.48664087
0.48479351
0.48254567
0.47983875
0.44621768
0.48954362
0.49127346
0.49115618
0.49073011
0.49035713
0.48989498
0.48954445
0.48914083
0.48882545
0.4883895
0.48777935
0.48675568
0.48551136
0.48395999
0.48227983
0.44556705
0.48888618
0.490619
0.49054619
0.49012848
0.48979145
0.48934986
0.48899195
0.48849216
0.48811079
0.48771397
0.48738329
0.48655857
0.48553106
0.48408904
0.44473551
0.48833111
0.49031267
0.49041635
0.49025896
0.49015047
0.48975995
0.48937185
0.48873476
0.48812963
0.48741348
0.48684775
0.48609159
0.48523776
0.44820093
0.49140593
0.4930228
0.49280183
0.4921998
0.49173441
0.49118131
0.49075442
0.49015434
0.48968098
0.48913107
0.48858051
0.48738246
0.44953646
0.49258464
0.49400876
0.49341202
0.49262132
0.49183276
0.49124897
0.49089784
0.4906491
0.49046587
0.49004818
0.48930472
0.44971478
0.49269806
0.49406028
0.49344153
0.49255932
0.4917462
0.49117663
0.490815
0.49071235
0.49063598
0.49046756
0.45037702
0.49349815
0.49470479
0.49380091
0.49267612
0.4917291
0.49102705
0.49082696
0.49101015
0.49122001
0.44807163
0.49128666
0.49282017
0.49228607
0.49157004
0.49091089
0.49034633
0.48998354
0.48966325
0.44738806
0.49062869
0.49216187
0.49168233
0.49104015
0.49035887
0.48985344
0.48950779
0.44818784
0.49131845
0.49250382
0.49157026
0.49047012
0.48954419
0.44681301
0.49007909