/*--------------------------------*- C++ -*----------------------------------*\
| =========                 |                                                 |
| \\      /  F ield         | OpenFOAM: The Open Source CFD Toolbox           |
|  \\    /   O peration     | Version:  2506                                  |
|   \\  /    A nd           | Website:  www.openfoam.com                      |
|    \\/     M anipulation  |                                                 |
\*---------------------------------------------------------------------------*/
FoamFile
{
    version     2.0;
    format      ascii;
    arch        "LSB;label=32;scalar=64";
    class       volVectorField;
    location    "1.3";
    object      U;
}
// * * * * * * * * * * * * * * * * * * * * * * * * * * * * * * * * * * * * * //

dimensions      [0 1 -1 0 0 0 0];

internalField   nonuniform List<vector> 
1375
(
(91.135575 0.0098677755 0)
(91.030783 0.012621525 0)
(90.893023 0.011156008 0)
(90.734881 0.0068570695 0)
(90.558339 0.0075826373 0)
(90.39016 0.015325845 0)
(90.243287 0.032253003 1.0269736e-18)
(90.108528 0.043180682 -1.079128e-18)
(89.958106 0.037928077 0)
(91.527717 0.014245882 0)
(91.485048 0.019691421 0)
(91.381496 0.019011218 0)
(91.266578 0.016149033 0)
(91.147838 0.016825615 0)
(91.057272 0.023533116 0)
(90.997576 0.037809013 0)
(90.949358 0.049390325 0)
(90.876533 0.049698816 0)
(90.755863 0.028656113 0)
(92.174792 0.017933042 0)
(92.20442 0.021348059 0)
(92.164935 0.02412259 7.2589143e-19)
(92.121183 0.02133146 -7.6056486e-19)
(92.085489 0.02146106 0)
(92.075902 0.024877272 -8.3857601e-19)
(92.094237 0.040299622 -6.2006257e-24)
(92.136764 0.051985664 1.8419228e-18)
(92.152389 0.051385452 -9.7023731e-19)
(92.143931 0.033157888 0)
(92.868431 0.018228599 -3.0441001e-19)
(92.942011 0.020916668 3.1968588e-19)
(92.954837 0.024589108 6.7300842e-19)
(92.966044 0.021978109 -1.4158472e-18)
(92.978919 0.020502211 1.4880362e-18)
(93.012293 0.022362698 -7.8030327e-19)
(93.073804 0.034187195 0)
(93.150066 0.045743632 0)
(93.21147 0.049731213 0)
(93.247014 0.033999398 0)
(93.436941 0.016947824 -5.6466675e-19)
(93.520809 0.017203676 -2.9659811e-19)
(93.54927 0.022819352 6.2375841e-19)
(93.57773 0.019859672 6.552291e-19)
(93.604556 0.018115705 -1.3770461e-18)
(93.640351 0.017918348 7.2281006e-19)
(93.693151 0.027866117 0)
(93.758218 0.039330974 1.5890572e-18)
(93.814605 0.043661601 -1.6659468e-18)
(93.846575 0.028995974 0)
(93.82389 0.015006599 -5.2350788e-19)
(93.890914 0.013556543 1.06312e-24)
(93.915016 0.020539064 5.779682e-19)
(93.937568 0.017736443 0)
(93.956139 0.015747317 -1.2758605e-18)
(93.977001 0.014403631 -2.8535246e-24)
(94.008495 0.02328319 1.4053885e-18)
(94.052599 0.034195442 0)
(94.092227 0.039810378 0)
(94.110098 0.026624769 1.6116198e-18)
(94.055422 0.0130956 0)
(94.099779 0.010789537 0)
(94.113979 0.018950271 0)
(94.125127 0.01636961 0)
(94.131916 0.014840948 -1.1830073e-18)
(94.138215 0.012095227 1.2437756e-18)
(94.152372 0.020654693 -1.3036843e-18)
(94.180601 0.030489381 1.3637392e-18)
(94.207957 0.037126563 0)
(94.217644 0.026863526 -1.5050008e-18)
(94.182099 0.011624011 0)
(94.207897 0.0091761227 0)
(94.213575 0.018239205 0)
(94.215816 0.016382949 0)
(94.213365 0.014069276 -1.091661e-18)
(94.210548 0.012104843 1.1484889e-18)
(94.213679 0.018416964 0)
(94.231557 0.02787819 1.2644086e-18)
(94.251503 0.034994738 -1.3204895e-18)
(94.257753 0.027420593 -2.788392e-18)
(94.245232 0.010393255 8.3213754e-19)
(94.258475 0.0090121043 4.3654006e-19)
(94.259412 0.017456081 -9.2090707e-19)
(94.25704 0.016343773 0)
(94.24615 0.015287961 1.0123325e-18)
(94.238197 0.012611155 -1.0587804e-18)
(94.237445 0.017540286 2.2312538e-18)
(94.247659 0.025457484 1.1780045e-23)
(94.262864 0.033206974 -2.4488725e-18)
(94.267529 0.027106015 0)
(94.272397 0.0095448261 3.8599833e-19)
(94.278403 0.0079796595 -8.1431417e-19)
(94.277362 0.018573332 3.1725217e-24)
(94.270768 0.017476573 8.9880039e-19)
(94.256194 0.016899332 0)
(94.245251 0.012889724 0)
(94.242531 0.01750288 0)
(94.248129 0.023919622 0)
(94.259451 0.031721938 2.2715428e-18)
(94.263032 0.027358936 -2.3980157e-18)
(94.28008 0.0089451321 3.586199e-19)
(94.282267 0.0081812342 7.5526472e-19)
(94.279545 0.019028142 -7.9619796e-19)
(94.271207 0.018987101 0)
(94.256083 0.018832553 -1.7456775e-18)
(94.243363 0.01377721 1.8251727e-18)
(94.23903 0.017670837 0)
(94.241614 0.022776375 0)
(94.249314 0.030375343 0)
(94.251768 0.027939494 0)
(94.277605 0.0083477682 0)
(94.277763 0.0084893758 0)
(94.273908 0.020069437 0)
(94.265847 0.020795868 0)
(94.251952 0.020767552 1.6213265e-18)
(94.238085 0.0151568 -3.3890434e-18)
(94.232302 0.018257723 1.7868305e-18)
(94.232683 0.021975176 -1.8781828e-18)
(94.236536 0.029212693 3.9090835e-18)
(94.237415 0.028111635 9.0089864e-24)
(94.235561 0.021616069 -2.1798459e-18)
(94.270687 0.0080473596 0)
(94.269327 0.0088727418 -6.5372529e-19)
(94.265351 0.021273489 6.8576093e-19)
(94.259088 0.021534402 1.4385798e-18)
(94.246461 0.023667577 -1.5061042e-18)
(94.232488 0.016452217 1.5756045e-18)
(94.225164 0.019344661 -1.6481685e-18)
(94.223903 0.022386033 -3.4531995e-18)
(94.223983 0.027936797 3.639162e-18)
(94.222475 0.029558198 0)
(94.220876 0.023338741 0)
(94.262801 0.0079934631 0)
(94.260415 0.0098490165 -1.2128797e-18)
(94.257203 0.021245806 1.2739937e-18)
(94.252526 0.023888036 0)
(94.241175 0.025667521 0)
(94.227819 0.018317551 0)
(94.219971 0.020256129 0)
(94.21669 0.021724969 0)
(94.213672 0.028816021 0)
(94.209554 0.030480356 0)
(94.206844 0.025895108 -3.7562661e-18)
(94.256357 0.0080641706 -5.3703002e-19)
(94.253815 0.010371721 0)
(94.250874 0.022103032 0)
(94.247395 0.025047011 0)
(94.237523 0.028182226 0)
(94.224773 0.020279579 0)
(94.217136 0.021983776 0)
(94.212813 0.023043263 0)
(94.20755 0.028423427 0)
(94.20088 0.031644789 0)
(94.196894 0.027576178 0)
(94.252736 0.0082324009 -4.9860099e-19)
(94.250566 0.011174218 -1.046387e-18)
(94.247517 0.022526283 1.0991159e-18)
(94.244758 0.026442384 -2.3086764e-18)
(94.236616 0.030414779 3.5322614e-25)
(94.224397 0.022359174 -6.8373009e-24)
(94.217277 0.023487275 2.6583587e-18)
(94.213219 0.0243517 0)
(94.207216 0.029131727 0)
(94.197933 0.033419838 -3.0687574e-18)
(94.191864 0.029201188 -2.5701624e-23)
(94.252958 0.0085509306 -4.6362092e-19)
(94.251275 0.011741936 -9.7278314e-19)
(94.247792 0.023123744 3.0626186e-18)
(94.245381 0.027919172 -2.1460149e-18)
(94.23927 0.032518346 0)
(94.22752 0.024505996 -2.3492321e-18)
(94.220567 0.024821882 2.4689461e-18)
(94.217454 0.025835349 0)
(94.212576 0.030122399 0)
(94.201126 0.035840233 5.6992985e-18)
(94.192038 0.031656567 -5.9897527e-18)
(94.257143 0.0091603711 0)
(94.255616 0.012410046 0)
(94.251659 0.023621782 0)
(94.24951 0.029142765 0)
(94.245669 0.034292682 0)
(94.234519 0.02725025 0)
(94.226716 0.025939741 0)
(94.224288 0.027442832 0)
(94.22165 0.030732811 5.0675531e-18)
(94.209504 0.039140543 -5.2963691e-18)
(94.196973 0.035164942 0)
(94.264607 0.0099885975 -5.0764596e-25)
(94.26255 0.013154755 8.4064125e-19)
(94.258298 0.024196424 -1.7609782e-18)
(94.25634 0.030515012 1.8540806e-18)
(94.254571 0.036440341 -3.8909483e-18)
(94.245005 0.029144382 6.0914697e-18)
(94.235281 0.027596378 -4.2518762e-18)
(94.232475 0.029216537 -4.4846877e-18)
(94.231091 0.030995537 4.7160033e-18)
(94.220523 0.042667248 0)
(94.204818 0.040204492 5.1559948e-18)
(94.27364 0.011230187 0)
(94.270345 0.014220003 1.5627272e-18)
(94.265907 0.024582265 -1.6323885e-18)
(94.264188 0.030190952 3.4409655e-18)
(94.264145 0.039249229 -3.6272895e-18)
(94.258026 0.031981207 0)
(94.24573 0.02947806 0)
(94.240645 0.03102742 0)
(94.238256 0.031342816 0)
(94.230085 0.045645068 0)
(94.21358 0.046242402 4.78876e-18)
(94.282289 0.013215374 0)
(94.277663 0.015236903 0)
(94.273098 0.025432173 0)
(94.271467 0.032535165 0)
(94.271951 0.037240614 3.3533206e-18)
(94.269705 0.035623612 -3.5274227e-18)
(94.2561 0.032154586 3.6822426e-18)
(94.24754 0.033595704 -7.7345803e-18)
(94.243302 0.034327522 4.067817e-18)
(94.2372 0.04649477 0)
(94.224506 0.052698267 -8.9105994e-18)
(94.289356 0.014946033 -1.2929609e-18)
(94.283724 0.016932418 0)
(94.278519 0.025748067 0)
(94.276549 0.032380371 0)
(94.276775 0.038379015 0)
(94.276606 0.038458822 3.288791e-18)
(94.265251 0.03733314 -3.4295472e-18)
(94.253828 0.036259079 0)
(94.247937 0.036142892 7.5555752e-18)
(94.242814 0.045779364 -7.9254127e-18)
(94.233611 0.058260636 0)
(94.29433 0.017994491 0)
(94.288442 0.017953438 0)
(94.282374 0.026894265 0)
(94.279324 0.033499136 -2.7554453e-18)
(94.279079 0.038080114 5.7714817e-18)
(94.279693 0.041023982 -3.0398881e-18)
(94.272308 0.039500207 -6.3932793e-18)
(94.25956 0.040723807 6.6891717e-18)
(94.251825 0.040253532 0)
(94.245768 0.046384702 -7.3647072e-18)
(94.23796 0.061384399 7.7129479e-18)
(94.296849 0.019824803 0)
(94.291444 0.020282948 -2.3518191e-18)
(94.285184 0.027824085 2.4587772e-18)
(94.28114 0.034614955 0)
(94.280239 0.038437091 -5.3754457e-18)
(94.28052 0.041762222 5.6652672e-18)
(94.275842 0.046875203 -5.9589111e-18)
(94.264459 0.045730697 -3.1496546e-23)
(94.256209 0.04192954 5.6289139e-24)
(94.249903 0.047922095 9.6828488e-24)
(94.242175 0.063523003 7.1689332e-18)
(94.297737 0.021822661 1.0477504e-18)
(94.292902 0.022864332 0)
(94.287379 0.02946784 0)
(94.283487 0.035865378 -4.8008542e-18)
(94.281898 0.03833086 1.2367745e-23)
(94.281453 0.04461132 1.063783e-17)
(94.277649 0.046717871 3.1884584e-23)
(94.267474 0.049287909 3.0466617e-23)
(94.260345 0.046626565 -6.0866679e-18)
(94.255401 0.052207782 0)
(94.248099 0.06220691 0)
(94.298568 0.023280821 0)
(94.294645 0.024678482 0)
(94.290109 0.030523649 -4.2868639e-18)
(94.285742 0.037214087 4.4856878e-18)
(94.282357 0.038837608 0)
(94.280761 0.044547387 4.9442791e-18)
(94.279721 0.056670715 -5.183197e-18)
(94.271198 0.056010502 0)
(94.263981 0.048046185 0)
(94.260058 0.054249154 0)
(94.255757 0.064315275 0)
(94.249227 0.062814178 1.3019416e-17)
(94.300616 0.026455144 0)
(94.297241 0.026237537 -3.8242434e-18)
(94.292793 0.032043318 4.003052e-18)
(94.287563 0.039528538 4.1845222e-18)
(94.283235 0.042080371 -8.7326802e-18)
(94.281649 0.04775256 4.5613135e-18)
(94.282881 0.050677344 0)
(94.276305 0.056522988 0)
(94.267548 0.055512182 -1.0544503e-17)
(94.264006 0.056396527 1.1058357e-17)
(94.26084 0.063097857 0)
(94.258285 0.063211979 -1.2181246e-17)
(94.304395 0.027404623 -1.707527e-18)
(94.30145 0.029114979 1.7872606e-18)
(94.296247 0.035167334 0)
(94.290014 0.04109824 -3.9096554e-18)
(94.284739 0.041903038 4.0794958e-18)
(94.28201 0.049005903 8.5829889e-18)
(94.281945 0.055911209 -9.0553314e-18)
(94.280916 0.06645979 9.4338324e-18)
(94.273875 0.05957955 -9.8373044e-18)
(94.27016 0.054025233 1.032348e-17)
(94.267041 0.066797543 -1.0794021e-17)
(94.262528 0.071947125 -1.1317284e-17)
(94.307229 0.030303241 0)
(94.304345 0.030913877 0)
(94.298838 0.038040777 0)
(94.291667 0.042359519 0)
(94.285561 0.04507454 0)
(94.282418 0.051114425 0)
(94.282311 0.056849939 0)
(94.284296 0.058867875 0)
(94.28148 0.0642945 0)
(94.277315 0.063822698 0)
(94.274852 0.058120942 -1.0083566e-17)
(94.267747 0.075867276 2.0951039e-17)
(94.309782 0.033034893 -2.9886726e-18)
(94.305835 0.036791961 3.1261289e-18)
(94.299821 0.042510472 -6.5341692e-18)
(94.29303 0.044321875 6.8259827e-18)
(94.288856 0.047601694 7.1408478e-18)
(94.287165 0.052432453 -7.4588934e-18)
(94.286309 0.057811828 0)
(94.286245 0.063719422 8.2604456e-18)
(94.285365 0.066105666 -8.5951357e-18)
(94.282702 0.063884367 0)
(94.281429 0.067707253 1.8890381e-17)
(94.278335 0.07728543 -1.9664478e-17)
(94.309292 0.034902872 0)
(94.306559 0.038247968 0)
(94.303922 0.045350218 6.1282367e-18)
(94.298736 0.049460962 -6.3914244e-18)
(94.294316 0.046718532 0)
(94.292831 0.04939851 0)
(94.29136 0.058972162 0)
(94.289705 0.064080555 0)
(94.288266 0.068406685 0)
(94.285355 0.06672065 0)
(94.283666 0.066378063 0)
(94.283156 0.071887157 0)
(94.309688 0.037920973 2.6220832e-18)
(94.308094 0.042801491 0)
(94.307152 0.046061149 0)
(94.306108 0.048616348 0)
(94.300301 0.053667246 0)
(94.296682 0.054780758 1.3111943e-17)
(94.29482 0.05832253 -2.7437796e-17)
(94.293064 0.067118559 1.4377041e-17)
(94.291883 0.072490453 1.5046043e-17)
(94.288666 0.071798103 -1.5636305e-17)
(94.28554 0.072183414 0)
(94.284923 0.075738025 0)
(94.286442 0.082974713 0)
(94.31248 0.03569382 4.9123765e-18)
(94.311174 0.043860218 1.4728023e-23)
(94.308217 0.047319057 -5.3828536e-18)
(94.306606 0.050200541 0)
(94.304204 0.053903569 1.1773082e-17)
(94.300131 0.057716412 -1.2287506e-17)
(94.297787 0.058408497 1.2833389e-17)
(94.295896 0.068918167 -6.1435666e-23)
(94.295163 0.073974085 -2.8554067e-23)
(94.295001 0.07370959 -1.4713949e-17)
(94.293827 0.076477571 1.5226031e-17)
(94.293239 0.074659088 -1.5948681e-17)
(94.294126 0.087152588 0)
(94.314459 0.037280643 4.6431882e-18)
(94.314446 0.043860533 -4.8566038e-18)
(94.311349 0.052781178 0)
(94.308788 0.052511927 -1.058386e-17)
(94.306842 0.055536163 1.1055927e-17)
(94.303145 0.060559503 0)
(94.300923 0.06200658 0)
(94.300262 0.070929245 1.253289e-17)
(94.299789 0.075237709 -1.3112452e-17)
(94.300175 0.075652761 1.3692494e-17)
(94.300734 0.075508125 -1.419765e-17)
(94.300042 0.076289433 1.4869547e-17)
(94.301014 0.079763717 -1.5592197e-17)
(94.316533 0.03851607 0)
(94.316488 0.044666085 -4.5774007e-18)
(94.314242 0.051696675 4.7596881e-18)
(94.310508 0.055752871 9.9162059e-18)
(94.308442 0.057787038 -1.0328543e-17)
(94.307622 0.061943688 1.0754842e-17)
(94.307588 0.064230228 -1.122049e-17)
(94.307961 0.067175724 0)
(94.306151 0.07802026 0)
(94.305055 0.077075246 2.5659988e-17)
(94.305742 0.077490053 -2.6875495e-17)
(94.306578 0.079868063 0)
(94.30696 0.084263228 0)
(94.306931 0.083360313 0)
(94.318669 0.039181473 5.9051815e-26)
(94.316779 0.046411443 4.299372e-18)
(94.315573 0.055359596 0)
(94.312448 0.060339772 9.344955e-18)
(94.309209 0.057273148 -9.7093701e-18)
(94.308379 0.058275787 -1.0187747e-17)
(94.308549 0.061341969 1.0701648e-17)
(94.309159 0.067022435 -2.2302238e-17)
(94.310279 0.077644911 4.6491584e-17)
(94.312177 0.079437476 -4.8371304e-17)
(94.314412 0.07652321 2.5149106e-17)
(94.315765 0.078366742 2.6260804e-17)
(94.316277 0.080892834 -2.7493906e-17)
(94.316773 0.086379416 0)
(94.318372 0.042457897 -3.8794087e-18)
(94.31885 0.050416856 1.2146989e-17)
(94.320173 0.056085523 -8.4481627e-18)
(94.31851 0.061821581 0)
(94.314571 0.065489722 0)
(94.312971 0.063854984 -1.9161432e-17)
(94.31228 0.061948882 3.9842371e-17)
(94.312034 0.06366894 -2.0824886e-17)
(94.316443 0.071432711 0)
(94.321354 0.075306815 2.2548975e-17)
(94.322715 0.076649023 -2.3434524e-17)
(94.322005 0.078180501 0)
(94.322283 0.081334099 0)
(94.324915 0.086858269 -2.6485881e-17)
(94.322302 0.03833291 0)
(94.320767 0.043331558 0)
(94.319765 0.054075589 0)
(94.31779 0.064614052 1.6606435e-17)
(94.316848 0.063215278 -4.5126997e-23)
(94.316931 0.060167082 -7.835782e-23)
(94.316779 0.059194252 -3.7788149e-17)
(94.316137 0.058585738 1.9633259e-17)
(94.318989 0.064160599 0)
(94.322465 0.067585254 0)
(94.32315 0.070864368 0)
(94.324259 0.078647751 2.3267383e-17)
(94.329665 0.078738077 -4.7933181e-17)
(94.331854 0.075226613 2.506655e-17)
(94.331662 0.086502821 0)
(94.325826 0.049656669 6.9744764e-18)
(94.323229 0.054315234 -2.0587589e-23)
(94.322727 0.058142806 7.5476623e-18)
(94.323792 0.069682392 -1.572566e-17)
(94.324244 0.070586106 0)
(94.324047 0.067979292 1.7209856e-17)
(94.32228 0.061758825 -1.7757373e-17)
(94.321568 0.062123889 0)
(94.32259 0.061354405 0)
(94.323867 0.062873268 0)
(94.326535 0.068219373 0)
(94.330925 0.070514532 0)
(94.331963 0.072053347 0)
(94.330882 0.076943593 4.6880496e-17)
(94.330399 0.083196226 -9.734287e-17)
(94.325644 0.039019041 -6.6528736e-18)
(94.323713 0.044237773 6.8944141e-18)
(94.322505 0.046507187 0)
(94.324535 0.058550966 0)
(94.328573 0.063897383 -1.5513026e-17)
(94.329261 0.063105049 3.2287249e-17)
(94.328472 0.061150762 -1.6792815e-17)
(94.328315 0.059101267 0)
(94.328716 0.057227491 0)
(94.328594 0.051128863 0)
(94.328102 0.057583568 0)
(94.328043 0.065448067 -4.0690654e-17)
(94.328321 0.069168129 1.113836e-22)
(94.328215 0.068487442 4.4264066e-17)
(94.329522 0.075851222 0)
(94.331249 0.079925453 0)
(94.332332 0.05289294 0)
(94.33078 0.057351805 1.320889e-17)
(94.327662 0.058352662 -2.7307417e-17)
(94.326979 0.059325964 1.9187979e-23)
(94.327437 0.062066874 5.6112986e-24)
(94.328707 0.070004459 4.6499239e-17)
(94.332997 0.069302195 -3.2000312e-17)
(94.335676 0.068940408 0)
(94.336067 0.068287907 -3.44997e-17)
(94.333985 0.066886278 3.5832545e-17)
(94.332573 0.067251636 3.7453907e-17)
(94.332627 0.067657371 -3.9303626e-17)
(94.333174 0.070363474 -4.0658e-17)
(94.33512 0.075892869 4.1885397e-17)
(94.338428 0.075989211 0)
(94.339403 0.076371794 0)
(94.339579 0.081966283 -4.7185815e-17)
(94.333327 0.033914482 -6.0890529e-18)
(94.33236 0.041414831 0)
(94.331192 0.048588531 1.312776e-17)
(94.329935 0.051528543 -1.356588e-17)
(94.329534 0.050093584 -2.8322407e-17)
(94.330336 0.048018934 2.9564371e-17)
(94.332679 0.045749786 0)
(94.334752 0.050277126 3.166007e-17)
(94.336331 0.055256033 -3.2680482e-17)
(94.336749 0.056876974 0)
(94.336025 0.058768387 0)
(94.335773 0.057963461 0)
(94.336717 0.054549518 0)
(94.337744 0.056515674 3.9165974e-17)
(94.338012 0.057236983 -4.0452186e-17)
(94.337794 0.057796186 -4.2273623e-17)
(94.339328 0.062488376 8.7743357e-17)
(94.330354 0.054277577 0)
(94.329728 0.056087072 0)
(94.33061 0.059234148 0)
(94.332682 0.061928667 0)
(94.333954 0.063037438 2.7190433e-17)
(94.335208 0.063809853 1.9442581e-23)
(94.336489 0.062923345 -2.9247024e-17)
(94.33789 0.062556369 3.034066e-17)
(94.339233 0.062975854 -3.1485452e-17)
(94.341036 0.066713385 0)
(94.343512 0.074807077 0)
(94.344635 0.074920567 3.4472303e-17)
(94.344648 0.074559543 -3.580476e-17)
(94.344263 0.077090006 -7.455538e-17)
(94.344138 0.079439822 7.6868996e-17)
(94.344056 0.079771513 -8.0026755e-17)
(94.344272 0.082756949 -2.246477e-24)
(94.34503 0.085404238 8.6424174e-17)
(94.33751 0.02904804 1.1330332e-17)
(94.33493 0.031293508 -1.1718888e-17)
(94.333081 0.031789637 0)
(94.33224 0.032047803 0)
(94.332051 0.032757661 0)
(94.332332 0.032731363 0)
(94.332839 0.032351784 0)
(94.332997 0.032651712 0)
(94.332895 0.032715458 0)
(94.333409 0.033133421 0)
(94.335519 0.039718052 0)
(94.337288 0.04753244 6.6533433e-17)
(94.339377 0.052695656 -6.8528106e-17)
(94.341592 0.050029592 -7.0279696e-17)
(94.342404 0.052648537 7.2302533e-17)
(94.342191 0.05268275 0)
(94.343116 0.051293053 7.8712156e-17)
(94.346475 0.048533462 -8.0791329e-17)
(94.34888 0.045677549 -8.3263775e-17)
(94.343333 0.067536724 0)
(94.343785 0.066294886 0)
(94.344097 0.066476659 0)
(94.344251 0.065432896 0)
(94.344427 0.063817767 0)
(94.344477 0.064565017 0)
(94.344477 0.063860964 -5.4217389e-17)
(94.344567 0.063490791 5.5789689e-17)
(94.344643 0.06327215 0)
(94.344779 0.062038471 0)
(94.34579 0.055254635 0)
(94.348694 0.061645404 -6.3247386e-17)
(94.351794 0.067595484 6.4766022e-17)
(94.353167 0.07086719 0)
(94.353025 0.076282228 0)
(94.354886 0.089480833 7.1656627e-17)
(94.357876 0.083774812 -7.3280249e-17)
(94.358494 0.080541032 0)
(94.358597 0.081988193 0)
(94.360107 0.07487229 8.0977962e-17)
(94.340474 0.018341079 -1.6242987e-23)
(94.340018 0.018490795 3.351307e-17)
(94.339308 0.020387246 -2.305186e-17)
(94.338285 0.023155832 -2.3769601e-17)
(94.336975 0.022795939 4.8912039e-17)
(94.335603 0.023502885 -2.509245e-17)
(94.334941 0.0238395 0)
(94.334877 0.023710981 0)
(94.335286 0.023705868 0)
(94.335963 0.023021961 5.7262088e-17)
(94.336751 0.021554308 -1.1799649e-16)
(94.337941 0.019911811 1.2140596e-16)
(94.3392 0.019052132 -6.2709071e-17)
(94.34049 0.019983349 -6.4608413e-17)
(94.343379 0.026265827 -1.860496e-22)
(94.346414 0.029907506 1.3648335e-16)
(94.348401 0.034393601 -7.0341046e-17)
(94.351103 0.039382666 0)
(94.353458 0.037783698 7.3257791e-17)
(94.353853 0.037814472 -1.5024988e-16)
(94.353756 0.038002473 -3.178194e-23)
(94.355695 0.035388497 1.6147935e-16)
(94.338182 0.073093109 1.0606651e-17)
(94.337903 0.07344994 0)
(94.337492 0.074921391 2.2425539e-17)
(94.33736 0.075804937 2.300729e-17)
(94.337341 0.076414723 -4.7783483e-17)
(94.337488 0.074793652 -4.9544853e-17)
(94.338226 0.06991132 5.077011e-17)
(94.339168 0.064764335 0)
(94.340232 0.063194722 0)
(94.341551 0.062567571 5.5142082e-17)
(94.342827 0.059232354 2.2427658e-22)
(94.343992 0.060782474 -5.8358927e-17)
(94.345184 0.058183982 0)
(94.34664 0.057491865 0)
(94.348348 0.057180027 0)
(94.350137 0.055642056 0)
(94.352353 0.060825 0)
(94.354433 0.061331822 0)
(94.355623 0.066838234 0)
(94.356624 0.068074302 0)
(94.358244 0.06998032 0)
(94.359596 0.067889592 1.5188118e-16)
(94.360352 0.067330668 -3.1286776e-16)
(94.325041 0.010116028 0)
(94.326085 0.010550305 0)
(94.326977 0.015026251 0)
(94.327878 0.011857415 -4.6093103e-17)
(94.328933 0.014917539 4.732673e-17)
(94.330973 0.016791614 0)
(94.333824 0.014322149 4.9603479e-17)
(94.336691 0.013192685 -5.0834279e-17)
(94.339008 0.010736864 0)
(94.340875 0.010653881 5.3510355e-17)
(94.342568 0.0091766912 -1.6461522e-16)
(94.344159 0.008189752 1.1253807e-16)
(94.34566 0.0073217073 0)
(94.347171 0.0066627267 0)
(94.348895 0.0052374925 0)
(94.351253 0.0032751142 1.2432752e-16)
(94.354231 0.0016204749 -1.2723801e-16)
(94.357336 0.0013693772 0)
(94.360402 0.0032639644 0)
(94.363698 0.0063299883 0)
(94.367535 0.0092666074 1.4014544e-16)
(94.371804 0.0097538761 -3.2442906e-22)
(94.376265 0.0083783212 -1.4661861e-16)
(94.380538 0.0071396057 1.4980054e-16)
(94.383936 0.006678923 -1.5317313e-16)
(94.40279 0.081143511 -2.157299e-17)
(94.403109 0.080334422 0)
(94.403422 0.080905106 -4.5101567e-17)
(94.403963 0.078595265 4.6103463e-17)
(94.405404 0.06720772 0)
(94.407716 0.057161369 -4.7754963e-17)
(94.409372 0.054855988 9.7464902e-17)
(94.410241 0.053935763 -4.9790745e-17)
(94.410664 0.053383675 0)
(94.410881 0.054976373 1.0334659e-16)
(94.410965 0.055225998 -1.0670812e-16)
(94.410983 0.056236563 -1.1060094e-16)
(94.411097 0.056970861 1.1274425e-16)
(94.411749 0.054936584 -1.1471198e-16)
(94.413516 0.050591369 2.3344431e-16)
(94.416198 0.041501552 4.1060431e-22)
(94.418916 0.030827137 -1.2134838e-16)
(94.421254 0.023063891 0)
(94.423098 0.01506453 1.2650511e-16)
(94.424522 0.011804665 -2.5839465e-16)
(94.425584 0.0091476275 -2.2040473e-22)
(94.426398 0.0090730008 1.34285e-16)
(94.427057 0.0095646909 1.3580217e-16)
(94.42727 0.010436669 1.8057875e-22)
(94.426257 0.016095741 -1.4492708e-16)
(94.423181 0.028034126 0)
(94.419994 0.041136971 1.5011208e-16)
(91.255081 0.011537858 0)
(91.642827 0.017072049 -1.12318e-17)
(92.278174 0.020164946 -3.2787657e-19)
(92.945413 0.019792434 9.7993747e-18)
(93.485411 0.017419202 -7.6909075e-25)
(93.849831 0.014434827 -1.708496e-17)
(94.0667 0.011812494 1.6203973e-17)
(94.184786 0.0099032348 0)
(94.243318 0.0088510198 -4.3216555e-19)
(94.267898 0.0082356674 -4.0606541e-19)
(94.274793 0.0080929932 -1.900732e-19)
(94.273373 0.0085128392 1.7684909e-19)
(94.267877 0.0092531274 0)
(94.261808 0.0099116017 1.9710219e-17)
(94.256833 0.010936806 -1.7916965e-17)
(94.254674 0.012051075 5.5767524e-19)
(94.256392 0.013588142 3.2877052e-17)
(94.262332 0.0150025 -3.0290109e-17)
(94.271345 0.016765168 9.9611203e-19)
(94.281322 0.018541725 2.6723132e-17)
(94.289843 0.020298599 -2.5018325e-17)
(94.295649 0.021870308 1.8164573e-18)
(94.298822 0.023270138 2.1782632e-17)
(94.300282 0.02416448 -2.0406659e-17)
(94.301091 0.025776826 -1.1946746e-18)
(94.302065 0.026163165 0)
(94.303814 0.028412419 -5.2459011e-19)
(94.306574 0.027968128 1.4777181e-17)
(94.30974 0.030261974 -1.4777162e-17)
(94.312253 0.029087233 0)
(94.311586 0.031059387 0)
(94.310759 0.031716509 -3.0584307e-18)
(94.312408 0.033282111 1.4271735e-18)
(94.314865 0.034224356 1.0814631e-17)
(94.317678 0.035591217 -1.0193234e-17)
(94.3207 0.032473451 -4.8245063e-18)
(94.319942 0.038518799 -9.0617923e-18)
(94.325393 0.033907644 2.155255e-18)
(94.328423 0.04217317 8.1786855e-18)
(94.327506 0.034712078 0)
(94.333045 0.049343916 0)
(94.334709 0.031901876 7.0160533e-18)
(94.332446 0.057137867 0)
(94.340344 0.032652461 -6.4472885e-18)
(94.343471 0.067302855 -1.5353494e-18)
(94.340678 0.018412355 -1.0480027e-17)
(94.337632 0.073481518 -2.3017975e-17)
(94.324452 0.01150785 -3.5134529e-19)
(94.402727 0.079230313 3.3704799e-17)
(91.377286 0.01039066 0)
(91.763682 0.016441661 0)
(92.389268 0.019624931 3.0957713e-19)
(93.031546 0.019607974 0)
(93.541761 0.017538651 2.7222055e-19)
(93.88129 0.014747219 1.0204064e-18)
(94.081741 0.01220288 3.1305845e-17)
(94.190455 0.010327179 -2.7742459e-17)
(94.24447 0.0092081135 0)
(94.267581 0.0087488559 7.8466785e-19)
(94.274044 0.0087173278 2.3360725e-17)
(94.27343 0.0088887557 -2.2132782e-17)
(94.26851 0.0096690928 2.0561109e-17)
(94.263448 0.010370543 -1.9248244e-17)
(94.26031 0.011452812 -1.8598434e-17)
(94.259799 0.012655325 5.0783254e-17)
(94.263393 0.014314075 -3.1747249e-17)
(94.270523 0.015642606 0)
(94.279725 0.016965442 2.8231123e-17)
(94.288683 0.018137014 -2.5954406e-17)
(94.295313 0.019283995 5.7484622e-19)
(94.299107 0.019998807 2.2272658e-17)
(94.300993 0.0209982 -4.3072296e-17)
(94.302143 0.022125784 2.0484297e-17)
(94.303246 0.023971738 2.9530157e-19)
(94.304493 0.02489339 0)
(94.305714 0.026229724 1.7418254e-17)
(94.307413 0.02658874 -3.013294e-17)
(94.310615 0.027726803 1.4673057e-17)
(94.313427 0.027193409 0)
(94.313537 0.028547181 0)
(94.312384 0.029648469 1.2319598e-17)
(94.313414 0.031687375 -1.2449723e-17)
(94.315879 0.031642623 1.0755312e-17)
(94.318732 0.033191128 -1.016586e-17)
(94.322104 0.030781752 0)
(94.322262 0.03505604 -1.1342144e-18)
(94.32755 0.030618655 -2.149993e-18)
(94.330329 0.038810473 0)
(94.330026 0.031554039 -3.8549704e-18)
(94.334296 0.047620394 3.6633698e-18)
(94.337161 0.028426989 0)
(94.335782 0.050963178 -3.3355959e-18)
(94.342512 0.033346616 3.2043022e-18)
(94.343794 0.06715615 -1.5263568e-18)
(94.340901 0.018759508 2.9657517e-18)
(94.33702 0.073317998 1.0079558e-17)
(94.322873 0.013118862 5.538613e-18)
(94.402217 0.065374363 -1.0956239e-17)
(91.499354 0.0080103318 0)
(91.886397 0.014453929 1.2441477e-18)
(92.50222 0.018048495 -1.0550093e-17)
(93.119485 0.018665102 8.8289018e-18)
(93.599155 0.017255605 0)
(93.913683 0.015059764 1.4643063e-17)
(94.098035 0.013030479 -1.5594863e-17)
(94.197741 0.011555963 -8.6152249e-19)
(94.247248 0.010684489 0)
(94.268464 0.010292522 -7.5620073e-19)
(94.274619 0.010328394 -2.1324829e-17)
(94.274543 0.010698051 2.0058453e-17)
(94.270729 0.011439445 -2.007517e-17)
(94.267434 0.01231514 1.5301263e-23)
(94.266103 0.013233211 1.8267598e-17)
(94.266833 0.014962577 3.3294954e-17)
(94.27105 0.016283632 -3.122872e-17)
(94.277532 0.017791601 0)
(94.284992 0.019075118 -4.2959979e-19)
(94.291786 0.019774615 -4.0309704e-19)
(94.296841 0.02022984 -3.7806624e-19)
(94.300084 0.020823698 -2.2325877e-17)
(94.302124 0.021190783 2.1255428e-17)
(94.30373 0.021583471 -3.1133421e-19)
(94.305302 0.022223826 -2.9203825e-19)
(94.306622 0.022968695 -1.7547177e-17)
(94.307407 0.024039027 3.2694567e-17)
(94.308411 0.025015349 -1.2075069e-19)
(94.311117 0.025148922 -1.5428502e-17)
(94.313923 0.025447647 -1.2808232e-17)
(94.315534 0.025401965 1.2839383e-17)
(94.315463 0.024955571 -1.8861146e-19)
(94.315988 0.028868783 -3.5505932e-19)
(94.317514 0.02891768 1.0709341e-17)
(94.319884 0.032267114 -9.4725467e-18)
(94.323252 0.028697326 9.553539e-18)
(94.324016 0.034049121 -7.3420644e-18)
(94.328764 0.030411709 0)
(94.331922 0.037262149 0)
(94.333356 0.0313181 3.842118e-18)
(94.336048 0.046917097 -3.879441e-18)
(94.339547 0.025819193 1.0890198e-19)
(94.340634 0.0519829 3.3224372e-18)
(94.344796 0.037254571 3.1915186e-18)
(94.3434 0.067508751 0)
(94.34121 0.018373876 0)
(94.33666 0.075403958 0)
(94.323359 0.014415871 -5.1591846e-18)
(94.400974 0.12287353 -1.6987966e-18)
(91.613739 0.0064090948 0)
(92.004057 0.012802637 -3.5300412e-18)
(92.610954 0.016510961 -1.1125253e-18)
(93.203764 0.017436676 -2.1017757e-18)
(93.654268 0.016501901 1.5868353e-17)
(93.945603 0.014894467 -1.3093302e-17)
(94.115201 0.013471081 2.8201399e-17)
(94.20653 0.012560577 -2.6556369e-17)
(94.251625 0.012194914 -2.498742e-17)
(94.270819 0.012231876 5.7331623e-24)
(94.276532 0.01258906 2.0700486e-17)
(94.276817 0.013265476 1.3004925e-18)
(94.273975 0.014285061 -1.9595647e-17)
(94.27182 0.015376657 1.6119844e-17)
(94.271163 0.016188995 -1.9516894e-17)
(94.272214 0.017373045 4.6937656e-17)
(94.276065 0.018432272 -6.1327416e-17)
(94.281549 0.019048336 5.5790488e-17)
(94.287672 0.019527805 -3.8789707e-23)
(94.293359 0.020108175 -5.072729e-17)
(94.297862 0.020495694 3.9130024e-23)
(94.301053 0.020930519 4.3245298e-17)
(94.30337 0.02146052 -2.6203222e-18)
(94.305403 0.022500225 -3.9386333e-17)
(94.307356 0.023571355 1.8498599e-17)
(94.308806 0.024011002 -2.1722615e-18)
(94.309551 0.024682461 0)
(94.310385 0.02569485 1.9156279e-18)
(94.312416 0.025692276 8.9931927e-19)
(94.314629 0.025816502 -1.4382658e-17)
(94.316966 0.027168509 1.2769032e-17)
(94.318504 0.026753167 0)
(94.319371 0.030072111 0)
(94.320158 0.0283171 0)
(94.321806 0.032220391 -1.0680552e-17)
(94.324739 0.029643623 7.1241415e-18)
(94.325982 0.034693618 -2.8071741e-18)
(94.330212 0.031352409 -2.1241779e-18)
(94.333882 0.037300966 -2.0123571e-18)
(94.336758 0.032898731 0)
(94.338015 0.045616172 -1.5904357e-18)
(94.341669 0.029471973 -1.0826797e-19)
(94.346252 0.062818889 -3.314963e-18)
(94.345878 0.028319036 3.1577758e-18)
(94.34277 0.065879972 -4.5323346e-18)
(94.341845 0.019235469 4.3812132e-18)
(94.336243 0.07574962 0)
(94.32517 0.01604682 0)
(94.399871 0.057657519 1.3478484e-18)
(91.717068 0.003033084 2.3501978e-18)
(92.111813 0.0090360751 7.271767e-24)
(92.710704 0.012429556 1.058318e-17)
(93.281047 0.013254388 -6.016203e-18)
(93.705747 0.012455659 0)
(93.976944 0.01116814 1.256338e-17)
(94.133683 0.010142099 -1.1870187e-17)
(94.21748 0.0096586324 -2.8817049e-17)
(94.258327 0.0097220233 2.4164581e-17)
(94.275296 0.01020297 -2.277611e-17)
(94.280099 0.010730105 4.3026011e-17)
(94.279977 0.011683298 -1.7771332e-17)
(94.277215 0.012583659 0)
(94.275184 0.013560899 6.5282909e-24)
(94.274571 0.014292287 5.6455678e-24)