/*--------------------------------*- C++ -*----------------------------------*\
| =========                 |                                                 |
| \\      /  F ield         | OpenFOAM: The Open Source CFD Toolbox           |
|  \\    /   O peration     | Version:  2506                                  |
|   \\  /    A nd           | Website:  www.openfoam.com                      |
|    \\/     M anipulation  |                                                 |
\*---------------------------------------------------------------------------*/
FoamFile
{
    version     2.0;
    format      ascii;
    arch        "LSB;label=32;scalar=64";
    class       volVectorField;
    location    "2.991";
    object      U;
}
// * * * * * * * * * * * * * * * * * * * * * * * * * * * * * * * * * * * * * //

dimensions      [0 1 -1 0 0 0 0];

internalField   nonuniform List<vector> 
1375
(
(94.386502 0.0052147295 -5.5091185e-17)
(94.422349 0.048784776 4.8017325e-17)
(94.381173 0.013218675 7.5333205e-17)
(94.39276 0.045557175 3.286336e-17)
(94.386477 0.0059322652 5.7368119e-17)
(94.422786 0.049424843 -4.9996724e-17)
(94.397333 0.041206123 4.4530257e-17)
(94.380806 0.014643034 -3.9027016e-17)
(94.392725 0.047036443 -3.4298345e-17)
(94.386312 0.0065763724 -5.9577257e-17)
(94.423147 0.049988478 0)
(94.413706 0.042953552 0)
(94.394442 0.02606452 -5.3041565e-17)
(94.396922 0.04312602 1.4275767e-23)
(94.380386 0.015957557 8.1306678e-17)
(94.392617 0.048184354 -7.112744e-17)
(94.38604 0.0071957149 6.2093902e-17)
(94.42344 0.050487941 -5.409751e-17)
(94.417016 0.041222277 0)
(94.412713 0.04553168 0)
(94.393545 0.027723999 5.5200025e-17)
(94.396433 0.045156701 -4.8353021e-17)
(94.379903 0.017166088 -8.2605278e-20)
(94.392439 0.049238574 7.4017144e-17)
(94.385689 0.0078174071 6.4552198e-17)
(94.423669 0.050928969 1.1258596e-16)
(94.431805 0.056764549 8.4572271e-17)
(94.415433 0.043517169 0)
(94.411653 0.04793189 6.5351326e-17)
(94.392637 0.029258197 0)
(94.395879 0.047150034 -5.0242244e-17)
(94.379355 0.018270334 -8.794734e-17)
(94.392194 0.050242536 0)
(94.385271 0.0084145456 -6.7107007e-17)
(94.423836 0.051328639 -5.8595572e-17)
(94.460336 0.07763937 -5.6472532e-17)
(94.440781 0.064225851 3.8926765e-19)
(94.429894 0.059555417 -8.814393e-17)
(94.413836 0.045720455 0)
(94.410548 0.050088711 -6.7886304e-17)
(94.39173 0.030685432 0)
(94.395297 0.048845342 1.5666029e-16)
(94.378758 0.019278195 9.1344289e-17)
(94.391895 0.051188483 1.1711931e-19)
(94.384803 0.00894207 3.4793989e-25)
(94.423945 0.05171992 -2.975235e-20)
(94.475933 0.093037264 -6.6024625e-17)
(94.45728 0.080927924 5.9251046e-17)
(94.438265 0.066939834 -4.0522317e-19)
(94.427975 0.062120109 9.1396651e-17)
(94.412232 0.047773047 0)
(94.409411 0.052022085 -7.0520284e-17)
(94.390823 0.032014712 1.289813e-24)
(94.394705 0.050283536 -2.1749145e-16)
(94.378145 0.020201963 3.5530706e-23)
(94.391549 0.052074926 4.0625187e-20)
(94.384303 0.0093862618 7.2614689e-17)
(94.423996 0.0521473 1.5478704e-20)
(94.494432 0.11458361 0)
(94.472151 0.0963191 6.9658355e-17)
(94.454261 0.083923394 1.1280604e-23)
(94.435784 0.069415158 -6.3156861e-19)
(94.426063 0.064474768 -9.4794588e-17)
(94.410642 0.049641267 0)
(94.40824 0.053823879 7.3595303e-17)
(94.389918 0.033256129 -1.2591258e-19)
(94.394092 0.051572724 1.1302331e-16)
(94.377532 0.021054445 9.6673832e-20)
(94.391158 0.052907098 -8.662262e-17)
(94.383784 0.0097700771 -7.5575073e-17)
(94.423992 0.052654555 1.3190627e-16)
(94.511484 0.13865162 3.5752118e-19)
(94.489905 0.11801055 -6.3378314e-19)
(94.468451 0.099287031 2.8046805e-19)
(94.451289 0.086650843 -6.3704948e-17)
(94.433348 0.071672383 2.1875957e-19)
(94.424164 0.066641103 0)
(94.409083 0.051324852 0)
(94.407038 0.055546114 7.6359575e-17)
(94.389017 0.034419394 -1.3418949e-16)
(94.393452 0.052763212 1.1477471e-19)
(94.376928 0.021845214 -1.029142e-16)
(94.390728 0.053693278 9.001017e-17)
(94.383254 0.010126447 0)
(94.423929 0.053275053 -1.3724648e-16)
(94.528874 0.16852137 4.1865187e-19)
(94.506066 0.14202945 0)
(94.485497 0.12108946 0)
(94.464846 0.1019659 0)
(94.448377 0.089129735 6.5981926e-17)
(94.430967 0.073732498 1.1624362e-16)
(94.422284 0.068639129 -3.6870189e-24)
(94.407569 0.052846024 1.7646534e-19)
(94.405818 0.057177357 -7.9417573e-17)
(94.38812 0.035509513 1.3943508e-16)
(94.392787 0.053868162 -1.223685e-16)
(94.376331 0.022581097 2.0908592e-19)
(94.390266 0.054440528 -4.5719981e-20)
(94.382724 0.010483769 1.6359121e-16)
(94.423804 0.054024208 1.4276763e-16)
(94.545181 0.20312239 0)
(94.522492 0.17184343 0)
(94.500833 0.14503061 0)
(94.481226 0.12384816 8.7423761e-17)
(94.461352 0.10437868 3.0344741e-19)
(94.445537 0.091378205 0)
(94.428653 0.075613484 -1.2119437e-16)
(94.420429 0.070474416 -2.0862313e-19)
(94.406097 0.054232502 -9.4011875e-17)
(94.404599 0.058685707 1.6139273e-19)
(94.387232 0.036548168 0)
(94.392102 0.054891153 1.2719337e-16)
(94.375755 0.023267967 -1.1138016e-16)
(94.389777 0.055152698 0)
(94.382207 0.010840404 -1.7021705e-16)
(94.423618 0.054889977 -1.4854671e-16)
(94.537736 0.20622952 5.1054236e-19)
(94.516362 0.17475911 1.1619109e-16)
(94.495798 0.14768896 -1.0313675e-16)
(94.477102 0.12631356 -9.1412478e-17)
(94.457977 0.10654749 0)
(94.442778 0.093413803 -1.4327417e-16)
(94.426412 0.077325137 4.929327e-19)
(94.418606 0.072150992 1.1098927e-16)
(94.404679 0.055504071 9.7867969e-17)
(94.403394 0.060054403 8.6014389e-17)
(94.386358 0.037537825 1.5099932e-16)
(94.391401 0.055835268 0)
(94.375188 0.023910701 1.1584786e-16)
(94.389269 0.055831791 9.8990038e-20)
(94.381715 0.011192935 -2.1618224e-20)
(94.423377 0.055839119 -1.886479e-20)
(94.552436 0.24690084 0)
(94.53063 0.20890862 0)
(94.510495 0.17730775 9.1986724e-22)
(94.490971 0.15003647 1.0753241e-16)
(94.473133 0.12851119 0)
(94.454729 0.10849326 0)
(94.440107 0.09525323 1.4900806e-16)
(94.424251 0.078878742 -2.567875e-19)
(94.416825 0.073674055 2.2649946e-19)
(94.403312 0.056670932 1.0192964e-16)
(94.402214 0.061285767 -8.9743368e-17)
(94.385506 0.038464303 1.3419387e-22)
(94.390689 0.056704298 1.3456703e-19)
(94.374658 0.024513411 0)
(94.388745 0.056479288 0)
(94.381254 0.011540553 0)
(94.423091 0.056840027 0)
(94.565633 0.29373454 9.1122635e-17)
(94.544286 0.24924464 -6.247323e-19)
(94.523868 0.2112057 0)
(94.504896 0.17952644 -1.2647238e-16)
(94.486356 0.15210332 -1.1221401e-16)
(94.469324 0.1304653 9.941438e-17)
(94.451613 0.11023583 8.7945627e-17)
(94.437529 0.096912378 3.0346871e-19)
(94.422173 0.080285691 -2.6768608e-19)
(94.415092 0.075051879 -1.2072992e-16)
(94.401988 0.05774015 -1.0599727e-16)
(94.401062 0.062391922 -1.8223166e-19)
(94.384684 0.039322543 -1.6356827e-16)
(94.389968 0.057503119 -7.005582e-20)
(94.374131 0.025078961 -6.1316559e-20)
(94.38821 0.05709726 5.3605927e-20)
(94.380829 0.011887618 -2.3405351e-20)
(94.422765 0.057869986 -2.0417172e-20)
(94.576698 0.34765836 0)
(94.556393 0.29558377 0)
(94.536571 0.25119861 -8.2946628e-17)
(94.517452 0.21316445 -5.8103187e-19)
(94.499567 0.18145054 0)
(94.481956 0.15391831 1.1673613e-16)
(94.465679 0.13219914 -1.0379198e-16)
(94.448631 0.11179423 -9.1429492e-17)
(94.435046 0.0984066 0)
(94.420181 0.081557627 -2.7920567e-19)
(94.413411 0.076295604 2.4586481e-19)
(94.400716 0.058719123 -2.1621842e-19)
(94.399934 0.063389207 1.8989299e-19)
(94.383897 0.040113557 0)
(94.389243 0.058237505 -1.4934556e-16)
(94.373659 0.025609151 -6.383882e-20)
(94.387667 0.05768801 0)
(94.380441 0.012232724 0)
(94.422406 0.058907052 0)
(94.566367 0.34884644 -1.1040795e-16)
(94.547717 0.29703713 0)
(94.529305 0.2528015 -8.2413804e-22)
(94.511393 0.21481596 0)
(94.494518 0.18310496 1.3884116e-16)
(94.47778 0.15550156 1.2304858e-16)
(94.462206 0.13372903 0)
(94.445789 0.11318174 1.9244373e-16)
(94.432665 0.09974691 1.6980974e-16)
(94.418276 0.082703103 0)
(94.411785 0.077416214 0)
(94.399498 0.059613273 1.1299086e-19)
(94.398834 0.064291232 -2.0308689e-16)
(94.383147 0.040842694 -8.6919239e-20)
(94.388519 0.058912564 7.5976918e-20)
(94.373182 0.026106161 -6.6540145e-20)
(94.387119 0.058254305 2.9060141e-20)
(94.380089 0.012572232 -2.5354632e-20)
(94.422021 0.059930964 -1.8103388e-16)
(94.572951 0.40921834 -2.6186059e-16)
(94.556749 0.34966083 2.3365763e-16)
(94.539614 0.29815085 0)
(94.522496 0.25409872 9.259206e-17)
(94.505699 0.21619683 0)
(94.489757 0.18451914 8.9292131e-22)
(94.473834 0.15687691 -1.2918163e-16)
(94.45891 0.13507417 0)
(94.443092 0.11441401 -2.0171938e-16)
(94.430389 0.10094598 -1.7785767e-16)
(94.416463 0.083732842 0)
(94.410218 0.07842661 0)
(94.398348 0.060430752 1.1808347e-19)
(94.397765 0.06510974 2.119865e-16)
(94.382438 0.041516637 1.8577694e-16)
(94.3878 0.059533097 1.6253101e-16)
(94.372766 0.026580176 -6.9351854e-20)
(94.386568 0.058798052 6.0538108e-20)
(94.379774 0.012903983 0)
(94.421615 0.060926598 1.5716402e-24)
(94.574918 0.47715296 0)
(94.562459 0.40922033 -5.4642945e-19)
(94.547839 0.35014579 -1.2373881e-16)
(94.53208 0.29896158 -4.3175233e-19)
(94.516143 0.25512068 7.6710654e-19)
(94.500369 0.2173323 -6.8044017e-19)
(94.485285 0.18571428 -3.0825897e-16)
(94.470118 0.15806189 0)
(94.455793 0.13624965 2.3533036e-19)
(94.440539 0.11550331 3.4935414e-24)
(94.428221 0.10201504 1.867546e-16)
(94.414741 0.084656627 1.6069117e-19)
(94.408712 0.079338826 1.4450858e-16)
(94.397221 0.061175678 0)
(94.396728 0.065855471 1.0842643e-19)
(94.381755 0.042137806 -9.4737429e-20)
(94.387087 0.060106216 1.6970709e-16)
(94.372343 0.02704522 -1.4814822e-16)
(94.386017 0.059321413 0)
(94.379494 0.013226264 2.2520479e-16)
(94.42119 0.061885502 1.9596475e-16)
(94.563814 0.47631001 6.6962354e-19)
(94.552944 0.40901872 3.0439734e-16)
(94.539719 0.35040893 -1.3545481e-16)
(94.525185 0.29954726 -1.2013542e-16)
(94.510302 0.25592279 -2.1236349e-16)
(94.49545 0.21826121 -3.6748589e-19)
(94.481138 0.18671681 1.6581475e-16)
(94.466664 0.1590746 -1.4620622e-16)
(94.452879 0.1372668 1.2898847e-16)
(94.438151 0.11645764 0)
(94.426177 0.10295783 1.9504233e-19)
(94.413125 0.085474987 -1.7061465e-19)
(94.407278 0.080155614 -1.5303775e-16)
(94.39624 0.061849793 -2.6791944e-16)
(94.395751 0.066509803 -2.3379031e-16)
(94.381156 0.042706494 -2.0438416e-16)
(94.386396 0.060619334 -1.7809236e-16)
(94.371966 0.027487906 -3.7917269e-20)
(94.385477 0.059814437 -2.700646e-16)
(94.379263 0.013532747 -4.2961562e-20)
(94.420793 0.062805434 2.0401764e-16)
(90.315165 0.061447266 0)
(90.228497 0.064878051 0)
(90.140882 0.066457551 0)
(90.053455 0.066551515 -1.3161667e-18)
(89.969063 0.066546293 1.3812903e-18)
(89.891532 0.067812444 2.8993637e-18)
(89.823618 0.070744167 1.1901535e-22)
(89.766025 0.074849319 -6.3860475e-18)
(89.717936 0.079417661 6.7013993e-18)
(89.677973 0.08376051 -3.5159376e-18)
(89.644651 0.087488355 0)
(89.616642 0.090396793 0)
(89.592868 0.092658524 0)
(89.572228 0.094303254 0)
(89.553108 0.095546435 0)
(89.532449 0.096369812 0)
(89.505273 0.096773034 0)
(89.466644 0.096892975 0)
(89.414251 0.096973011 -5.4142858e-18)
(89.346559 0.097205075 5.6776094e-18)
(91.81129 0.062568078 2.1101217e-18)
(91.83578 0.066179068 -2.2145143e-18)
(91.86276 0.067474157 0)
(91.891704 0.067338732 0)
(91.923713 0.067102003 0)
(91.960581 0.068084703 0)
(92.003267 0.070680079 0)
(92.050856 0.074839531 0)
(92.101166 0.080264479 -3.1024767e-18)
(92.1518 0.086592679 3.254827e-18)
(92.20011 0.093652551 0)
(92.243455 0.10160337 0)
(92.279487 0.1109841 0)
(92.305998 0.12239256 0)
(92.320696 0.13634235 0)
(92.320707 0.15351216 4.336936e-18)
(92.302268 0.17476407 -4.5479481e-18)
(92.261131 0.2010534 -4.7704378e-18)
(92.195109 0.23385283 5.0017587e-18)
(92.103753 0.27464094 0)
(91.978961 0.32376034 -5.5012528e-18)
(91.791929 0.38191838 5.7663576e-18)
(92.978499 0.057207967 0)
(93.033411 0.060043536 -2.0516736e-18)
(93.086108 0.061113396 -5.1440277e-23)
(93.134953 0.060477688 2.2589621e-18)
(93.179705 0.059658058 0)
(93.22077 0.059743276 0)
(93.258461 0.060957756 0)
(93.292112 0.063601505 0)
(93.320492 0.067782023 0)
(93.342233 0.072297618 0)
(93.355766 0.077135691 0)
(93.359528 0.082200901 0)
(93.352162 0.087754969 0)
(93.332647 0.094210218 0)
(93.299805 0.10192983 0)
(93.251766 0.11116975 0)
(93.185633 0.12240469 0)
(93.098202 0.13648215 -4.4106101e-18)
(92.988367 0.15504445 4.6239786e-18)
(92.856416 0.18062149 0)
(92.69412 0.21608754 0)
(92.471267 0.26376769 0)
(93.654905 0.051411802 0)
(93.693662 0.054408318 0)
(93.72771 0.055780726 0)
(93.755671 0.055751083 0)
(93.777032 0.05555579 0)
(93.79214 0.05635953 -2.302645e-18)
(93.801551 0.058807442 2.4155239e-18)
(93.805369 0.063031204 0)
(93.803341 0.068853427 0)
(93.794851 0.07599703 -2.7881901e-18)
(93.778995 0.084310862 5.8488131e-18)
(93.754721 0.093924269 -6.1344642e-18)
(93.720942 0.10533815 3.2167622e-18)
(93.676802 0.11912048 -3.3738605e-18)
(93.621238 0.13596025 3.5378074e-18)
(93.552104 0.15660465 0)
(93.466324 0.18181291 0)
(93.361546 0.21270632 4.0795768e-18)
(93.236076 0.25109743 -4.2765883e-18)
(93.090407 0.29932065 0)
(92.917607 0.35847192 0)
(92.692015 0.4256 0)
(92.386782 0.50290448 5.1672164e-18)
(93.984979 0.047665941 -3.1726954e-23)
(94.003289 0.050979602 3.520916e-18)
(94.017398 0.052849378 -1.8469549e-18)
(94.026137 0.053455192 -1.9377083e-18)
(94.028884 0.053934262 2.0327404e-18)
(94.025743 0.055280221 0)
(94.017147 0.058011599 0)
(94.003445 0.062576669 0)
(93.984975 0.068744453 0)
(93.961056 0.076008872 0)
(93.931177 0.084350064 0)
(93.894385 0.093842097 0)
(93.848552 0.10477132 0)
(93.794191 0.11770087 0)
(93.72955 0.13334379 0)
(93.653187 0.15236152 6.8682057e-18)
(93.562448 0.17562422 -1.4402153e-17)
(93.454523 0.20469231 -1.2251878e-21)
(93.328577 0.24245703 -1.4413733e-21)
(93.185493 0.29313794 8.2975123e-18)
(93.018857 0.35953584 -8.7001964e-18)
(92.804416 0.44023334 -3.1539149e-21)
(92.519946 0.54441247 -4.0550612e-21)
(94.133544 0.04586402 -1.5548868e-18)
(94.138137 0.049486427 0)
(94.139487 0.05183658 0)
(94.136397 0.053115092 0)
(94.128469 0.054415001 3.7666922e-18)
(94.116129 0.056709188 -3.9510679e-18)
(94.099227 0.06052759 0)
(94.075766 0.066011165 0)
(94.049692 0.073244954 0)
(94.018781 0.082065044 0)
(93.982574 0.092396515 0)
(93.940163 0.10445242 0)
(93.89048 0.11859913 0)
(93.832606 0.13552853 0)
(93.765481 0.15607672 6.0651217e-18)
(93.687597 0.18096293 -6.3586744e-18)
(93.59639 0.2109936 0)
(93.489188 0.24749124 6.9903708e-18)
(93.365436 0.29309291 -7.3270006e-18)
(93.226256 0.35144488 0)
(93.065668 0.42343127 0)
(92.862239 0.50628955 8.4404325e-18)
(92.600888 0.61332102 -8.8428274e-18)
(94.193911 0.045310953 5.3529245e-23)
(94.190665 0.049266093 -6.0483518e-18)
(94.185621 0.052235117 6.3449663e-18)
(94.176252 0.054263501 -3.3279103e-18)
(94.16162 0.056184335 3.4909704e-18)
(94.143665 0.059115534 -3.6616692e-18)
(94.121378 0.063657914 0)
(94.095191 0.069850291 0)
(94.065319 0.077814356 0)
(94.031237 0.087465936 0)
(93.992383 0.098769278 0)
(93.947908 0.11194207 0)
(93.896825 0.12737992 0)
(93.838201 0.14580806 5.3579441e-18)
(93.771127 0.16815462 5.4324101e-22)
(93.694201 0.1953399 -5.8892608e-18)
(93.605099 0.22845563 0)
(93.501479 0.2693206 0)
(93.383121 0.32139204 -6.7854751e-18)
(93.251118 0.38882617 7.1110461e-18)
(93.099532 0.47196076 0)
(92.910098 0.56852189 0)
(92.67492 0.69418182 8.187177e-18)
(94.212552 0.045757219 0)
(94.204502 0.049951631 2.8040936e-18)
(94.194532 0.053338785 -5.8828612e-18)
(94.181449 0.056063754 6.1708327e-18)
(94.16458 0.058790784 9.2538036e-23)
(94.143913 0.062510195 -3.3944396e-18)
(94.119565 0.067854017 0)
(94.091719 0.074901576 -3.7339857e-18)
(94.06029 0.083802518 -1.7637092e-22)
(94.024998 0.094601379 4.1064159e-18)
(93.985291 0.1073232 0)
(93.940369 0.12222981 0)
(93.889319 0.1397697 -4.7347032e-18)
(93.83128 0.1606902 4.9637862e-18)
(93.765419 0.18591108 -5.2045101e-18)
(93.690456 0.21634028 5.455556e-18)
(93.604316 0.25300641 -5.719572e-18)
(93.505084 0.29776158 1.1989812e-17)
(93.392943 0.35422324 9.6443998e-22)
(93.268903 0.42633868 -6.5848029e-18)
(93.127207 0.51418612 -6.9020017e-18)
(92.95314 0.61752804 7.2308314e-18)
(92.744736 0.75410554 0)
(94.210804 0.04678714 0)
(94.200174 0.05127195 0)
(94.187901 0.055131891 2.7279278e-18)
(94.173002 0.05850355 -5.7225251e-18)
(94.154767 0.061976688 3.0009867e-18)
(94.13301 0.066455492 0)
(94.107892 0.072545999 3.3010116e-18)
(94.079485 0.080396427 -3.4616726e-18)
(94.0477 0.090191247 -3.6302637e-18)
(94.012293 0.10202288 3.8065403e-18)
(93.972758 0.11599532 0)
(93.92837 0.13241263 0)
(93.878312 0.15178428 0)
(93.821826 0.17491513 -4.6001571e-18)
(93.758179 0.20279301 -4.277985e-22)
(93.686229 0.23641191 1.0109659e-17)
(93.604179 0.27689449 -5.2980203e-18)
(93.510575 0.32626704 0)
(93.405962 0.3881778 -5.8202155e-18)
(93.291194 0.4659912 -9.5638288e-22)
(93.161032 0.55954049 6.3900105e-18)
(93.004689 0.67060288 0)
(92.824688 0.81720091 7.0156677e-18)
(94.200661 0.048266919 0)
(94.188736 0.053032591 0)
(94.175349 0.057347568 0)
(94.159617 0.06134034 0)
(94.140869 0.065559479 0)
(94.11889 0.070823388 0)
(94.093776 0.077690039 0)
(94.065561 0.086381445 0)
(94.03416 0.097112575 -6.7319591e-18)
(93.99935 0.11002382 7.0582815e-18)
(93.960678 0.12528495 0)
(93.917505 0.14323364 -7.7589695e-18)
(93.869119 0.16441285 -5.4597069e-22)
(93.814875 0.18964394 1.7052936e-17)
(93.754151 0.21992378 7.5088043e-22)
(93.68596 0.25626259 8.8953138e-22)
(93.60881 0.29985373 1.0595801e-21)
(93.521722 0.35287891 -1.0288424e-17)
(93.42549 0.41887698 0)
(93.320723 0.50057714 0)
(93.202964 0.59790411 0)
(93.065226 0.71426011 -1.2401404e-17)
(92.912795 0.86592449 1.2988035e-17)
(94.17579 0.055090559 0)
(94.161958 0.059853082 0)
(94.145991 0.064460435 -4.924218e-18)
(94.127274 0.06941988 5.1638779e-18)
(94.105584 0.075465855 0)
(94.080964 0.08312158 -5.6784038e-18)
(94.053424 0.092659198 1.190789e-17)
(94.022889 0.10432511 -1.2485254e-17)
(93.989159 0.11831018 6.5447929e-18)
(93.951843 0.13484432 0)
(93.910394 0.15430489 0)
(93.864211 0.1772723 0)
(93.812776 0.20458641 0)
(93.755582 0.23724284 0)
(93.691812 0.2762507 0)
(93.620319 0.32286588 0)
(93.540593 0.37934692 0)
(93.45359 0.44895252 0)
(93.359723 0.53385608 0)
(93.255577 0.63443406 -1.0962964e-17)
(93.137475 0.75517848 1.1481672e-17)
(93.011938 0.90949071 0)
(94.164292 0.05737043 -4.1545035e-18)
(94.150395 0.062577616 0)
(94.134537 0.067794331 -4.5689476e-18)
(94.116164 0.073487051 -1.2446914e-22)
(94.095055 0.080311987 1.0047233e-17)
(94.071211 0.088763893 -1.0534548e-17)
(94.044628 0.099147935 5.5223529e-18)
(94.015241 0.11173843 0)
(93.982879 0.12676975 0)
(93.947214 0.14451843 6.3625306e-18)
(93.907792 0.16539253 -6.6688315e-18)
(93.864131 0.18999624 6.9901739e-18)
(93.815833 0.21916984 -7.3256129e-18)
(93.762507 0.25388341 0)
(93.703512 0.29512846 0)
(93.63805 0.34420176 0)
(93.566022 0.40332046 0)
(93.488449 0.47530405 9.2532891e-18)
(93.405642 0.56185547 1.0927814e-21)
(93.315355 0.66386019 -1.0151833e-17)
(93.21646 0.78612151 0)
(93.115545 0.93874444 0)
(93.023455 1.127382 0)
(94.155858 0.059823332 0)
(94.142101 0.06547422 4.0435307e-18)
(94.126535 0.071294658 -4.2398134e-18)
(94.108669 0.077712121 0)
(94.088289 0.085311997 0)
(94.065368 0.094561702 0)
(94.039895 0.10579172 0)
(94.011816 0.1193012 0)
(93.980997 0.13536235 0)
(93.947174 0.15429067 0)
(93.909991 0.17652087 0)
(93.869089 0.20267241 0)
(93.82419 0.23357224 0)
(93.775026 0.2701507 0)
(93.721145 0.31338101 0)
(93.662095 0.36458301 0)
(93.598115 0.42584209 0)
(93.530235 0.49950079 0)
(93.458798 0.58695131 0)
(93.382709 0.68949936 0)
(93.302591 0.81161059 0)
(93.224442 0.9603462 0)
(93.15603 1.1385839 0)
(94.151549 0.062421168 0)
(94.138052 0.068514542 0)
(94.122884 0.07493051 0)
(94.105616 0.082058141 0)
(94.086048 0.09041837 0)
(94.064136 0.10045242 4.5339081e-18)
(94.039867 0.11250681 -4.7524096e-18)
(94.013203 0.12689803 -9.9629082e-18)
(93.984044 0.14392612 2.0883711e-17)
(93.952196 0.16393382 -2.1886569e-17)
(93.917398 0.18737185 1.1467715e-17)
(93.879409 0.21485851 0)
(93.838069 0.24718478 0)
(93.793226 0.28522021 0)
(93.744623 0.32990201 1.3820612e-17)
(93.692121 0.38251771 -1.4476485e-17)
(93.636209 0.44492295 -1.5164239e-17)
(93.577894 0.51898884 1.5880772e-17)
(93.517655 0.60589864 0)
(93.455371 0.70714716 0)
(93.392689 0.82642069 0)
(93.334745 0.96828908 1.9088407e-17)
(93.287251 1.1340699 -1.9979162e-17)
(94.152251 0.065146059 -3.3232808e-18)
(94.139133 0.07168097 -6.9684258e-18)
(94.124475 0.078683552 -1.5392504e-22)
(94.107914 0.086506347 1.531611e-17)
(94.089265 0.095612748 2.0443586e-22)
(94.06848 0.10642076 -8.4139271e-18)
(94.045549 0.1192836 0)
(94.020453 0.13452927 0)
(93.993132 0.15247811 0)
(93.963459 0.17349201 0)
(93.93127 0.19802987 0)
(93.896436 0.22669695 0)
(93.858905 0.26023524 0)
(93.818645 0.29944728 1.2228405e-17)
(93.775589 0.34522425 -1.2808083e-17)
(93.729867 0.39877169 -1.3415567e-17)
(93.682134 0.46166417 -8.8573456e-22)
(93.633376 0.53536239 1.4711356e-17)
(93.584259 0.62089844 -1.5404516e-17)
(93.535385 0.71972508 -1.0149648e-21)
(93.488866 0.83459247 3.3763725e-17)
(93.448954 0.96823521 -3.5339711e-17)
(93.420011 1.1211221 3.698431e-17)
(94.158539 0.067956437 -6.1719436e-18)
(94.14596 0.074924027 -1.1879818e-22)
(94.131977 0.082491658 6.7818699e-18)
(94.116283 0.09097788 0)
(94.098718 0.10079551 0)
(94.079236 0.11233711 -7.808478e-18)
(94.057835 0.12595217 1.6365771e-17)
(94.034517 0.14197261 -1.7149529e-17)
(94.009262 0.16072885 1.7969529e-17)
(93.982006 0.18258953 3.4455004e-22)
(93.952676 0.20800753 -9.8620782e-18)
(93.921244 0.23755721 0)
(93.887759 0.27191494 0)
(93.852296 0.31180562 1.1335104e-17)
(93.814966 0.35805098 5.913522e-22)
(93.776104 0.41172117 -1.2430819e-17)
(93.736465 0.47408656 1.301684e-17)
(93.69702 0.54625991 -1.3627657e-17)
(93.658613 0.62911706 1.4267001e-17)
(93.622299 0.72388211 -1.4933163e-17)
(93.590276 0.832404 -1.5629878e-17)
(93.566007 0.95614941 3.2712038e-17)
(93.552929 1.0950938 1.0754142e-22)
(94.169991 0.070803936 -5.7321089e-18)
(94.158132 0.078193125 1.2016202e-17)
(94.145011 0.086302123 1.2038219e-22)
(94.130377 0.095418453 -6.5994106e-18)
(94.114098 0.10591176 0)
(94.096137 0.11814684 0)
(94.076504 0.13246348 0)
(94.055226 0.14919161 0)
(94.032321 0.16866369 0)
(94.007789 0.19124487 0)
(93.981637 0.2173711 0)
(93.953929 0.2475732 9.580354e-18)
(93.924799 0.28245348 -1.0033205e-17)
(93.894425 0.32265374 0)
(93.863064 0.36890503 0)
(93.831199 0.422108 -1.1519515e-17)
(93.799628 0.48324029 1.2059249e-17)
(93.769311 0.5531255 1.2623905e-17)
(93.741217 0.6324572 -1.3212482e-17)
(93.716613 0.72213196 0)
(93.697564 0.82324155 0)
(93.686854 0.93641246 -1.5138671e-17)
(93.687224 1.0612962 1.5836872e-17)
(93.700882 1.1969366 0)
(94.184419 0.073604314 5.3245575e-18)
(94.173361 0.081385703 0)
(94.161188 0.089989614 0)
(94.147701 0.099674243 0)
(94.132798 0.11076871 0)
(94.116456 0.12360801 0)
(94.098701 0.13851666 -7.0478695e-18)
(94.079586 0.15581404 7.3829667e-18)
(94.059166 0.17582324 -7.7337817e-18)
(94.037498 0.19889396 1.6200531e-17)
(94.014663 0.22543241 -8.4833735e-18)
(93.990801 0.2559131 8.8842236e-18)
(93.966119 0.2908565 -9.3025555e-18)
(93.940885 0.33081338 0)
(93.915466 0.37640282 -1.0197247e-17)
(93.890433 0.42833849 1.0674177e-17)
(93.866593 0.48733321 1.1172908e-17)
(93.844884 0.55396547 -1.1692911e-17)
(93.826327 0.62872435 1.2236295e-17)
(93.812222 0.71216152 1.8348183e-22)
(93.804385 0.80479124 5.7493405e-23)
(93.805029 0.90670175 -1.2301521e-22)
(93.816319 1.0173259 -1.4653785e-17)
(93.840079 1.1356325 0)
(94.198369 0.076367927 0)
(94.188041 0.084516205 0)
(94.176746 0.093573887 0)
(94.164334 0.10377227 1.1381806e-17)
(94.150733 0.11540215 -1.1923806e-17)
(94.135938 0.12876893 0)
(94.119995 0.14417693 0)
(94.102981 0.16192743 1.3704331e-17)
(94.084987 0.18232469 3.5101773e-22)
(94.066121 0.20569361 -1.5029888e-17)
(94.046525 0.2324002 0)
(94.026401 0.26285391 -1.6478528e-17)
(94.006016 0.29748951 -4.665175e-22)
(93.985703 0.33676051 -4.8167627e-22)
(93.965904 0.38116015 -4.8375939e-22)
(93.947228 0.43121531 -4.6596067e-22)
(93.930459 0.48740853 2.0702119e-17)
(93.916491 0.55010591 2.1661928e-17)
(93.906322 0.61958751 2.2914099e-22)
(93.901164 0.69609549 -2.3707084e-17)
(93.902538 0.7797328 2.4796069e-17)
(93.912172 0.87025113 -5.1923547e-22)
(93.931726 0.96694413 -9.3211156e-22)
(93.962598 1.068737 -5.6696289e-17)
(94.209237 0.079095111 0)
(94.199526 0.08757002 -9.6337649e-18)
(94.188997 0.097019901 2.0184873e-17)
(94.177546 0.10765081 -1.0572144e-17)
(94.16513 0.11971799 1.1074078e-17)
(94.151768 0.13349563 2.1538818e-22)
(94.137525 0.14926174 -1.214698e-17)
(94.122501 0.16729204 0)
(94.106819 0.18786371 -1.3319779e-17)
(94.09063 0.21126797 2.7891587e-17)
(94.074123 0.23782138 3.1991662e-22)
(94.057546 0.267863 3.3322718e-22)
(94.041207 0.30174073 -1.5996935e-17)
(94.025485 0.33980758 0)
(94.010854 0.3824275 1.7520619e-17)
(93.997925 0.42995518 -1.8332448e-17)
(93.98743 0.48267987 0)
(93.980193 0.5407861 0)
(93.977128 0.60436445 2.0986521e-17)
(93.97929 0.67341306 -2.1948295e-17)
(93.9879 0.74776433 0)
(94.004269 0.82697505 0)
(94.029617 0.91027398 0)
(94.064937 0.99660616 0)
(94.111083 1.0847352 0)
(94.217031 0.081856583 8.5477094e-18)
(94.207943 0.090623168 -1.790755e-17)
(94.198193 0.10041013 9.3784041e-18)
(94.187717 0.11139953 -9.8226049e-18)
(94.176503 0.12381461 1.0286696e-17)
(94.16459 0.1378967 0)
(94.152064 0.15389229 1.127933e-17)
(94.139044 0.17204566 -1.1809124e-17)
(94.12568 0.19260033 0)
(94.112153 0.21580629 -1.2941534e-17)
(94.098687 0.24192457 1.3545459e-17)
(94.085557 0.27122182 0)
(94.073096 0.30395994 0)
(94.061697 0.34039188 0)
(94.05184 0.38075772 0)
(94.0441 0.42526182 0)
(94.039139 0.47403512 0)
(94.037686 0.52711183 0)
(94.040529 0.58442752 1.9433577e-17)
(94.048535 0.64580699 -2.0319019e-17)
(94.062645 0.71092016 0)
(94.083812 0.77922788 0)
(94.112885 0.84995694 0)
(94.15051 0.92212891 0)
(94.197182 0.99463886 -2.5329397e-17)
(94.22332 0.084551032 0)
(94.214956 0.093548817 8.3242302e-18)
(94.206087 0.10359055 -8.7172692e-18)
(94.196684 0.11483347 0)
(94.186763 0.12746988 -9.5578244e-18)
(94.176384 0.14170763 -1.413115e-22)
(94.165649 0.15775832 1.047539e-17)
(94.154693 0.17583062 0)
(94.143685 0.19612962 -1.147698e-17)
(94.132827 0.2188595 2.4022284e-17)
(94.122361 0.24422339 -2.5137859e-17)
(94.112574 0.27241697 2.6302368e-17)
(94.103801 0.3036204 1.4527245e-22)
(94.096433 0.33799291 -1.4392869e-17)
(94.090923 0.37566428 0)
(94.087789 0.41671512 -1.5744315e-17)
(94.087608 0.46115259 3.9041483e-23)
(94.090994 0.50889527 1.7213687e-17)
(94.098593 0.55976681 0)
(94.111078 0.6134848 0)
(94.129139 0.66963829 0)
(94.153434 0.72766348 0)
(94.184509 0.78683446 0)
(94.222734 0.84628829 0)
(94.268342 0.90508894 2.3413297e-17)
(94.229407 0.087158088 7.3930927e-18)
(94.221868 0.096324857 -7.7412181e-18)
(94.213976 0.10653983 0)
(94.205734 0.11793469 0)
(94.197181 0.13066944 0)
(94.188393 0.14491745 9.2977487e-18)
(94.179486 0.16085411 -9.731069e-18)
(94.170607 0.17865022 2.0367591e-17)
(94.161935 0.19846959 -2.1312456e-17)
(94.153682 0.22046825 2.2299246e-17)
(94.146094 0.24479163 -2.3328652e-17)
(94.139456 0.27156839 -2.4403227e-17)
(94.134091 0.30090401 2.5523877e-17)
(94.130362 0.33287462 2.6693026e-17)
(94.128678 0.3675178 -5.5824032e-17)
(94.129487 0.40481788 2.9182951e-17)
(94.133268 0.44469087 0)
(94.140517 0.48697463 3.1887625e-17)
(94.151732 0.53142349 -3.3326062e-17)
(94.167408 0.5777024 0)
(94.18802 0.62537843 -3.6382031e-17)
(94.213989 0.67391228 3.8006384e-17)
(94.245628 0.72265862 0)
(94.283103 0.7708898 0)
(94.326467 0.81784719 0)
(94.375754 0.86278488 -4.5176709e-17)
(94.235724 0.089551062 -6.8792068e-18)
(94.229075 0.098805246 1.4403322e-17)
(94.222217 0.10909075 -3.0153731e-17)
(94.21518 0.12051405 -1.5303713e-22)
(94.20802 0.13320307 3.3030677e-17)
(94.200829 0.14729615 -1.728259e-17)
(94.19373 0.16293207 0)
(94.186877 0.18024305 0)
(94.180451 0.19935086 0)
(94.174662 0.22036402 0)
(94.169751 0.24337374 0)
(94.165984 0.26844878 0)
(94.163659 0.29563009 0)
(94.163099 0.32492507 -2.4754612e-17)
(94.164654 0.35629987 5.1754784e-17)
(94.168695 0.38966963 -2.7047487e-17)
(94.175602 0.42488963 -2.8266124e-17)
(94.185752 0.46174986 2.9536058e-17)
(94.199508 0.49997268 3.0857407e-17)
(94.217208 0.53921209 -3.2234255e-17)
(94.239155 0.57905323 3.3665355e-17)
(94.265586 0.61901213 -3.515651e-17)
(94.296643 0.65854134 0)
(94.332352 0.69705154 0)
(94.372654 0.73395141 0)
(94.417464 0.76867809 -4.1730554e-17)
(94.236582 0.10096622 -1.068048e-22)
(94.230788 0.1112187 1.4027607e-17)
(94.22497 0.12254661 0)
(94.219198 0.1350473 0)
(94.213572 0.14882492 -1.6067392e-17)
(94.20822 0.16398193 1.6807448e-17)
(94.203294 0.1806124 0)
(94.198971 0.19879725 0)
(94.19545 0.21860047 0)
(94.192953 0.24006513 0)
(94.191723 0.26320922 0)
(94.192017 0.2880214 0)
(94.194112 0.31445651 -2.2959435e-17)
(94.198293 0.34243014 4.7986135e-17)
(94.204852 0.371813 -2.5069728e-17)
(94.214072 0.4024266 0)
(94.226224 0.43404139 0)
(94.241553 0.46637744 0)
(94.260269 0.4991072 0)
(94.28254 0.53185889 0)
(94.308471 0.56422025 0)
(94.338085 0.59574603 3.3936553e-17)
(94.371319 0.62597674 -3.5414515e-17)
(94.408054 0.65446832 -3.6946536e-17)
(94.448144 0.68081172 7.7080833e-17)
(94.491357 0.70461251 -2.4188475e-21)
(94.244302 0.10270407 -2.4959568e-17)
(94.239582 0.11280998 1.305656e-17)
(94.234974 0.12391133 0)
(94.230559 0.1360762 0)
(94.226438 0.14937625 0)
(94.222737 0.16387947 1.5625992e-17)
(94.219601 0.17964396 -3.2677949e-17)
(94.217197 0.19671315 1.7082411e-17)
(94.215705 0.21511196 -1.7857477e-17)
(94.215321 0.23484341 1.8665245e-17)
(94.216254 0.25588544 0)
(94.21872 0.27818777 0)
(94.222942 0.30166889 -2.1297001e-17)
(94.22914 0.32621311 2.2248137e-17)
(94.23753 0.35166816 -2.3237811e-17)
(94.248311 0.37784412 2.4268411e-17)
(94.261662 0.4045141 0)
(94.277729 0.43141697 -2.645479e-17)
(94.296625 0.45826182 2.7614897e-17)
(94.31842 0.48473291 0)
(94.343127 0.5104946 -3.0071868e-17)
(94.370696 0.53519889 1.2221962e-21)
(94.401013 0.55850054 3.2726056e-17)
(94.433933 0.5800786 -3.4127905e-17)
(94.469289 0.59964758 1.7475455e-21)
(94.506837 0.61693798 3.7097483e-17)
(94.252167 0.10394603 0)
(94.248507 0.11379215 1.2158039e-17)
(94.245077 0.12453941 -1.2714697e-17)
(94.241958 0.13622841 0)
(94.23925 0.14890071 0)