/*--------------------------------*- C++ -*----------------------------------*\
| =========                 |                                                 |
| \\      /  F ield         | OpenFOAM: The Open Source CFD Toolbox           |
|  \\    /   O peration     | Version:  2506                                  |
|   \\  /    A nd           | Website:  www.openfoam.com                      |
|    \\/     M anipulation  |                                                 |
\*---------------------------------------------------------------------------*/
FoamFile
{
    version     2.0;
    format      ascii;
    arch        "LSB;label=32;scalar=64";
    class       volScalarField;
    location    "0.0345";
    object      rho;
}
// * * * * * * * * * * * * * * * * * * * * * * * * * * * * * * * * * * * * * //

dimensions      [1 -3 0 0 0 0 0];

internalField   nonuniform List<scalar> 
13761
(
0.54911705
0.54807001
0.54709116
0.54617702
0.54532413
0.54452911
0.54378859
0.54309941
0.54245858
0.54186309
0.54130994
0.5407956
0.54031491
0.5398571
0.5393924
0.53882769
0.53791851
0.53636976
0.53427691
0.53197807
0.5297066
0.52758669
0.52566968
0.52396291
0.52245253
0.52111724
0.51993506
0.51888658
0.5179556
0.51712882
0.51639672
0.51575373
0.51519894
0.51473793
0.51438759
0.51416928
0.5140746
0.51405292
0.5642212
0.56267567
0.5612171
0.55984296
0.55855029
0.557336
0.55619687
0.55512952
0.55413071
0.55319706
0.55232522
0.55151186
0.55075375
0.55004767
0.54939059
0.54877965
0.548212
0.54768475
0.54719463
0.54673697
0.54630283
0.54586965
0.54537091
0.54462281
0.54332496
0.54142245
0.53920823
0.5369566
0.53482698
0.53289177
0.53116822
0.5296458
0.52830327
0.52711752
0.52606777
0.52513655
0.52430966
0.5235769
0.52293246
0.5223753
0.52191182
0.52155912
0.52133997
0.52124512
0.52122374
0.56976482
0.56829558
0.56690925
0.56560342
0.56437524
0.56322175
0.56213988
0.56112643
0.56017823
0.55929208
0.55846477
0.55769313
0.55697409
0.55630456
0.55568166
0.55510265
0.55456481
0.5540654
0.55360134
0.55316838
0.55275884
0.55235492
0.55190789
0.55128257
0.55021145
0.54852781
0.54643075
0.54421727
0.54208573
0.54013483
0.53839528
0.5368616
0.53551331
0.53432632
0.53327835
0.53235058
0.53152768
0.53079865
0.53015727
0.52960227
0.52914038
0.52878902
0.52857133
0.52847741
0.52845678
0.57525387
0.57386185
0.57254866
0.571312
0.57014914
0.56905721
0.56803329
0.56707431
0.56617723
0.56533901
0.56455658
0.56382693
0.5631471
0.56251418
0.56192541
0.5613782
0.56086996
0.56039809
0.55995971
0.55955089
0.55916489
0.55878712
0.55838075
0.55784648
0.55696473
0.55551017
0.55356254
0.55140885
0.54928478
0.54732051
0.54556448
0.5440186
0.54266417
0.54147637
0.54043145
0.5395091
0.53869274
0.53797051
0.53733552
0.5367864
0.53632974
0.53598343
0.53576979
0.53567811
0.53565847
0.58066867
0.57935369
0.57811351
0.57694588
0.57584818
0.57481768
0.57385155
0.57294689
0.57210079
0.57131034
0.57057265
0.56988483
0.56924408
0.56864765
0.5680929
0.56757738
0.56709865
0.56665425
0.56624147
0.56585667
0.56549379
0.56514049
0.56476793
0.56430229
0.56357166
0.56233919
0.56057071
0.55850397
0.55640143
0.55442844
0.55265614
0.55109697
0.54973544
0.54854658
0.54750521
0.54658943
0.54578129
0.54506783
0.54444151
0.54390048
0.54345131
0.54311172
0.54290338
0.54281446
0.54279588
0.58730451
0.58599284
0.58475398
0.58358592
0.58248647
0.5814531
0.5804832
0.57957408
0.57872296
0.57792709
0.5771837
0.57649004
0.57584337
0.57524106
0.57468048
0.57415915
0.57367476
0.57322498
0.57280752
0.57241982
0.5720585
0.57171802
0.57138767
0.57104405
0.57063104
0.57001698
0.56898429
0.56741479
0.56546529
0.56340334
0.56142923
0.55964184
0.55806811
0.5566979
0.55550687
0.55446871
0.55355988
0.55276095
0.55205779
0.55144198
0.55091127
0.55047176
0.5501414
0.54993982
0.54985439
0.549837
0.59244566
0.59121278
0.59004864
0.58895132
0.58791869
0.58694834
0.58603779
0.58518447
0.58438575
0.58363902
0.58294164
0.58229102
0.58168458
0.58111982
0.58059426
0.58010557
0.57965156
0.57923005
0.57883888
0.57847564
0.57813717
0.57781839
0.57750974
0.57719163
0.57682013
0.57629466
0.57543062
0.57406517
0.57226231
0.57026526
0.56830197
0.5665028
0.56491383
0.56353308
0.56233821
0.56130221
0.56039999
0.55961054
0.55891842
0.55831426
0.55779517
0.5573669
0.55704691
0.55685317
0.55677164
0.55675547
0.59869603
0.59747358
0.59631753
0.59522627
0.5941979
0.59323038
0.59232143
0.59146866
0.59066965
0.58992191
0.58922295
0.58857031
0.58796152
0.58739415
0.58686586
0.5863743
0.58591728
0.58549276
0.58509868
0.584733
0.58439347
0.58407713
0.58377926
0.58349119
0.58319604
0.58285828
0.58240015
0.58167183
0.58049987
0.57886626
0.57696202
0.57502664
0.57322228
0.57161874
0.57022583
0.56902512
0.56798969
0.56709315
0.56631288
0.56563211
0.56504031
0.56453388
0.56411819
0.56380968
0.56362476
0.56354751
0.56353263
0.60352334
0.60237955
0.6012982
0.60027771
0.59931626
0.59841191
0.59756248
0.59676571
0.59601932
0.59532093
0.59466823
0.59405887
0.59349054
0.59296095
0.5924679
0.5920092
0.59158279
0.59118675
0.59081915
0.59047808
0.59016144
0.58986643
0.58958863
0.58932011
0.58904591
0.58873642
0.58833014
0.58770769
0.58670688
0.58525313
0.58346933
0.58158402
0.5797854
0.57817038
0.57676458
0.57555609
0.57451928
0.57362698
0.57285509
0.57218536
0.57160617
0.57111294
0.57071056
0.57041432
0.57023852
0.57016563
0.57015198
0.60935191
0.60822448
0.60715684
0.60614779
0.60519576
0.60429903
0.60345572
0.60266379
0.60192109
0.60122548
0.60057471
0.59996661
0.59939897
0.59886963
0.59837644
0.59791734
0.59749028
0.59709332
0.59672468
0.59638255
0.59606515
0.5957705
0.59549597
0.59523741
0.59498745
0.59473257
0.59444738
0.59408189
0.59354095
0.59268335
0.59140599
0.58976473
0.58795481
0.58617783
0.58455781
0.5831401
0.5819224
0.58088224
0.57999238
0.57922762
0.57856835
0.57800176
0.57752242
0.57713429
0.57685186
0.57668594
0.57661782
0.57660547
0.6149512
0.61384424
0.6127942
0.61180015
0.61086089
0.60997491
0.60914056
0.60835609
0.60761954
0.6069289
0.60628216
0.6056772
0.60511198
0.60458444
0.60409256
0.60363433
0.60320781
0.60281111
0.60244241
0.60210005
0.60178235
0.60148764
0.60121406
0.60095914
0.60071895
0.60048659
0.60024966
0.5999858
0.59965323
0.59917507
0.59843278
0.59731649
0.59582957
0.59411974
0.5923846
0.59077032
0.58934435
0.58811731
0.58707215
0.58618284
0.58542356
0.5847736
0.58421897
0.58375341
0.58338006
0.58311168
0.58295622
0.58289298
0.58288192
0.62031503
0.6192327
0.61820416
0.6172288
0.61630569
0.61543364
0.61461124
0.61383691
0.61310901
0.61242568
0.61178505
0.61118522
0.61062422
0.61010013
0.60961105
0.60915507
0.60873033
0.60833503
0.6079674
0.60762575
0.60730854
0.6070142
0.60674119
0.60648775
0.60625155
0.60602887
0.60581319
0.60559299
0.60534816
0.60504283
0.6046136
0.60396216
0.60298476
0.60165173
0.6000613
0.59839024
0.59679676
0.59536966
0.59413532
0.59308463
0.59219431
0.59143886
0.59079671
0.5902531
0.5898007
0.58944197
0.58918755
0.58904227
0.58898377
0.58897392
0.6243849
0.62338188
0.62242901
0.62152566
0.6206709
0.6198636
0.6191024
0.6183858
0.61771227
0.61708006
0.61648742
0.61593258
0.61541372
0.61492904
0.61447678
0.61405516
0.61366246
0.61329702
0.61295717
0.61264138
0.6123482
0.61207618
0.61182389
0.61158967
0.61137133
0.61116532
0.61096544
0.61076089
0.61053327
0.61025104
0.60986066
0.60928037
0.60841803
0.60722806
0.60576719
0.60418075
0.60262606
0.60120875
0.59997203
0.59891708
0.59802531
0.59727254
0.59663711
0.59610361
0.59566403
0.59531979
0.59507961
0.59494419
0.59489021
0.5948816
0.62929657
0.62832295
0.62739639
0.62651655
0.62568272
0.62489397
0.62414921
0.62344711
0.62278627
0.62216521
0.62158232
0.62103595
0.62052445
0.62004612
0.61959933
0.61918242
0.61879377
0.61843178
0.61809492
0.61778167
0.61749061
0.6172204
0.61696971
0.6167372
0.61652134
0.61632004
0.6161299
0.61594501
0.61575515
0.61554326
0.61528102
0.61492219
0.61439792
0.61362871
0.61256471
0.61123343
0.60974657
0.608249
0.60685536
0.60562432
0.6045688
0.60367677
0.60292663
0.60229752
0.60177387
0.60134721
0.60101817
0.6007925
0.60066745
0.60061811
0.60061057
0.63396402
0.63302321
0.63212647
0.63127362
0.63046421
0.62969752
0.62897262
0.62828843
0.62764369
0.62703703
0.62646705
0.62593222
0.62543099
0.6249618
0.62452308
0.62411329
0.62373091
0.62337443
0.62304238
0.62273336
0.62244598
0.62217892
0.62193097
0.62170092
0.62148752
0.62128937
0.62110446
0.62092956
0.62075899
0.62058302
0.62038566
0.62014107
0.61980849
0.61932897
0.61863455
0.61767748
0.61646767
0.61508748
0.61366242
0.61230745
0.61109263
0.61004281
0.60915367
0.60840767
0.60778553
0.60727214
0.60685904
0.60654565
0.6063353
0.60622043
0.60617569
0.60616925
0.63838547
0.6374802
0.63661596
0.63579286
0.63501064
0.6342688
0.63356663
0.6329032
0.63227746
0.63168819
0.6311341
0.63061385
0.63012598
0.62966903
0.62924154
0.62884202
0.62846902
0.62812112
0.62779692
0.62749503
0.62721415
0.62695299
0.62671035
0.62648508
0.62627608
0.6260822
0.62590211
0.62573392
0.62557451
0.6254184
0.62525629
0.62507306
0.62484482
0.62453497
0.62409222
0.62345835
0.62259045
0.62148941
0.62021545
0.61887308
0.61757048
0.61638376
0.61534795
0.61446703
0.61372847
0.61311558
0.61261417
0.612216
0.61191932
0.6117241
0.61161928
0.61157889
0.61157349
0.64256212
0.64169437
0.64086463
0.64007321
0.63932011
0.63860502
0.63792742
0.63728658
0.63668161
0.63611149
0.63557505
0.63507106
0.63459826
0.63415528
0.63374076
0.63335332
0.63299158
0.63265421
0.63233986
0.63204724
0.63177509
0.63152217
0.63128731
0.63106937
0.63086731
0.63068009
0.63050665
0.63034571
0.63019545
0.63005285
0.62991258
0.62976564
0.62959764
0.62938621
0.629098
0.62868762
0.62810481
0.62731222
0.62630711
0.62513452
0.62388022
0.62264147
0.62149514
0.62048348
0.61961826
0.61889265
0.61829314
0.61780728
0.61742687
0.61714894
0.61696957
0.6168749
0.61683888
0.61683447
0.64649794
0.6456692
0.6448754
0.64411707
0.64339442
0.64270736
0.64205554
0.64143842
0.64085525
0.64030518
0.6397872
0.6393002
0.63884299
0.63841437
0.63801306
0.63763777
0.63728721
0.63696008
0.63665513
0.63637114
0.63610688
0.6358612
0.63563296
0.63542106
0.63522449
0.63504228
0.63487348
0.6347171
0.63457197
0.63443631
0.6343072
0.63417944
0.63404433
0.63388803
0.63368944
0.63341778
0.63303236
0.63248943
0.63175706
0.6308319
0.62974948
0.62858056
0.62741048
0.62631274
0.62533334
0.6244904
0.62378258
0.62320025
0.62273281
0.62237258
0.62211446
0.62195146
0.62186634
0.62183434
0.62183084
0.65019745
0.64940881
0.648652
0.64792777
0.64723654
0.6465784
0.64595322
0.64536059
0.64479997
0.64427061
0.64377167
0.64330217
0.64286105
0.64244718
0.64205944
0.6416966
0.64135746
0.64104084
0.64074551
0.64047033
0.64021415
0.63997588
0.63975441
0.63954875
0.63935787
0.63918084
0.63901681
0.63886488
0.63872415
0.63859351
0.63847126
0.63835453
0.63823825
0.63811393
0.63796826
0.63778118
0.63752406
0.63716003
0.6366507
0.63596893
0.63511217
0.63411005
0.63302208
0.63192253
0.63087944
0.62993965
0.62912561
0.62844092
0.62787958
0.62743335
0.62709452
0.62685667
0.6267089
0.62663303
0.62660485
0.62660211
0.65291917
0.65220016
0.65151079
0.65085169
0.65022317
0.64962524
0.64905772
0.64852018
0.64801205
0.64753261
0.64708103
0.64665638
0.64625765
0.64588378
0.6455337
0.64520627
0.64490039
0.64461494
0.64434882
0.64410094
0.64387028
0.64365582
0.64345656
0.64327158
0.64309996
0.64294085
0.64279347
0.64265701
0.64253063
0.64241328
0.64230333
0.64219794
0.64209215
0.64197769
0.64184167
0.64166498
0.64142082
0.64107559
0.64059534
0.63995711
0.63915966
0.63822897
0.63721625
0.63618636
0.6352012
0.63430648
0.63352714
0.63287059
0.63233417
0.63191148
0.63159526
0.63137684
0.63124358
0.63117552
0.63115048
0.6311484
0.65620749
0.65552682
0.65487288
0.65424646
0.65364806
0.65307788
0.65253589
0.65202186
0.65153535
0.65107578
0.65064246
0.65023457
0.64985125
0.64949153
0.64915443
0.64883893
0.64854401
0.64826861
0.64801172
0.64777232
0.64754943
0.64734209
0.64714939
0.6469704
0.6468043
0.64665025
0.64650748
0.64637528
0.64625291
0.6461396
0.64603434
0.64593556
0.64584046
0.64574417
0.64563858
0.64551125
0.6453439
0.64511134
0.64478279
0.64432811
0.64372799
0.64298259
0.64211563
0.64117216
0.64020941
0.63928327
0.6384372
0.63769721
0.63707327
0.63656545
0.63616879
0.63587586
0.63567681
0.63555664
0.63549613
0.63547411
0.63547258
0.65928153
0.65863966
0.65802157
0.65742827
0.65686039
0.65631833
0.65580224
0.65531203
0.65484743
0.654408
0.65399319
0.6536023
0.65323458
0.6528892
0.65256526
0.65226184
0.65197801
0.6517128
0.65146526
0.65123445
0.65101944
0.65081933
0.65063325
0.65046036
0.65029984
0.65015092
0.65001286
0.64988494
0.64976654
0.64965697
0.64955553
0.64946125
0.6493726
0.64928682
0.6491991
0.64910152
0.64898201
0.64882307
0.64860098
0.64828746
0.64785571
0.64728952
0.64659054
0.64578094
0.64490118
0.64400226
0.64313473
0.64233924
0.64164168
0.64105372
0.64057706
0.6402079
0.63993845
0.63975749
0.63964956
0.63959524
0.63957564
0.63957454
0.66214956
0.66154684
0.66096497
0.66040511
0.6598681
0.65935447
0.65886454
0.6583984
0.65795593
0.65753686
0.65714073
0.65676702
0.65641506
0.65608414
0.65577348
0.65548224
0.65520958
0.65495464
0.65471652
0.65449435
0.65428728
0.65409445
0.65391505
0.65374828
0.65359339
0.65344962
0.65331629
0.65319272
0.65307828
0.65297237
0.6528744
0.6527837
0.65269936
0.65261986
0.65254248
0.65246247
0.65237209
0.65225962
0.65210827
0.65189572
0.65159592
0.65118504
0.65064962
0.64999263
0.64923521
0.64841426
0.6475757
0.64676537
0.6460209
0.64536753
0.64481746
0.64437359
0.64403256
0.64378627
0.64362283
0.64352599
0.64347786
0.64346063
0.64345981
0.66482007
0.66425682
0.66371147
0.66318535
0.66267945
0.66219452
0.661731
0.66128915
0.660869
0.66047043
0.66009315
0.65973672
0.65940062
0.65908426
0.65878694
0.65850796
0.65824654
0.65800188
0.65777322
0.65755973
0.6573606
0.65717508
0.65700236
0.65684173
0.65669246
0.65655386
0.65642526
0.65630603
0.65619556
0.65609328
0.65599867
0.65591118
0.65583017
0.65575478
0.65568352
0.65561369
0.65554061
0.65545668
0.65535053
0.65520608
0.65500227
0.65471514
0.65432353
0.65381639
0.65319791
0.65248844
0.65172204
0.65094045
0.6501853
0.64949137
0.64888253
0.64837115
0.6479605
0.64764741
0.64742358
0.64727649
0.64719046
0.6471479
0.64713289
0.64713238
0.66730159
0.66677809
0.66626954
0.66577744
0.66530293
0.66484692
0.66441004
0.66399267
0.66359502
0.6632171
0.66285877
0.66251973
0.66219959
0.66189785
0.66161394
0.66134723
0.66109707
0.66086274
0.66064352
0.66043869
0.66024752
0.66006927
0.65990325
0.65974873
0.65960507
0.65947161
0.65934772
0.6592328
0.65912629
0.65902764
0.65893633
0.6588519
0.65877384
0.65870156
0.65863423
0.65857037
0.65850731
0.65844042
0.65836226
0.6582618
0.65812363
0.65792791
0.65765262
0.65727898
0.65679817
0.65621539
0.65555043
0.65483491
0.65410707
0.65340482
0.65276013
0.65219531
0.65172218
0.6513441
0.65105773
0.65085471
0.65072237
0.65064548
0.65060778
0.65059461
0.65059436
0.66960257
0.6691191
0.66864765
0.66818983
0.66774698
0.66732014
0.66691011
0.66651743
0.66614245
0.66578534
0.66544609
0.66512454
0.66482043
0.66453337
0.6642629
0.66400851
0.66376962
0.66354561
0.66333584
0.66313966
0.66295641
0.66278542
0.66262604
0.66247762
0.66233953
0.66221117
0.66209195
0.66198132
0.66187872
0.66178366
0.66169565
0.66161421
0.66153893
0.66146934
0.66140491
0.66134481
0.66128758
0.66123057
0.66116921
0.66109621
0.66100088
0.66086844
0.66068025
0.66041607
0.66005939
0.65960327
0.6590539
0.65843048
0.65776268
0.65708557
0.65643383
0.65583668
0.65531468
0.65487887
0.6545321
0.65427104
0.65408702
0.65396784
0.65389875
0.65386509
0.65385344
0.65385334
0.6712881
0.67085406
0.67043084
0.67001994
0.66962254
0.6692396
0.66887183
0.66851973
0.6681836
0.66786356
0.66755963
0.66727163
0.66699933
0.66674236
0.66650031
0.66627271
0.66605902
0.66585869
0.66567115
0.66549579
0.66533203
0.66517926
0.66503688
0.66490433
0.66478104
0.66466645
0.66456005
0.66446133
0.66436982
0.66428504
0.66420657
0.66413399
0.66406692
0.66400494
0.66394754
0.66389391
0.66384261
0.66379101
0.66373458
0.66366618
0.66357547
0.66344831
0.66326717
0.66301356
0.66267297
0.66224024
0.66172233
0.66113799
0.66051505
0.65988588
0.65928218
0.65873059
0.65824988
0.65784997
0.65753319
0.65729589
0.65712942
0.65702194
0.65695988
0.6569295
0.65691902
0.65691908
0.67329321
0.67289685
0.67250855
0.67212991
0.67176226
0.67140671
0.67106412
0.67073512
0.67042017
0.67011954
0.66983335
0.6695616
0.66930414
0.66906074
0.66883109
0.66861481
0.66841146
0.66822058
0.66804166
0.66787418
0.66771761
0.66757141
0.66743505
0.66730799
0.66718972
0.66707972
0.66697751
0.66688263
0.66679461
0.66671303
0.66663749
0.66656758
0.66650294
0.66644323
0.66638806
0.66633695
0.66628911
0.66624311
0.66619632
0.66614427
0.66608
0.66599346
0.66587118
0.66569671
0.66545319
0.66512798
0.66471748
0.66422936
0.66368187
0.66310119
0.66251724
0.66195905
0.6614508
0.6610095
0.66064387
0.66035568
0.66014091
0.65999103
0.65989477
0.65983923
0.65981228
0.65980305
0.65980317
0.67514208
0.67478376
0.67443073
0.67408472
0.67374719
0.67341936
0.67310224
0.67279663
0.67250312
0.67222212
0.67195388
0.67169852
0.67145604
0.67122631
0.67100914
0.67080424
0.67061127
0.67042985
0.67025956
0.67009996
0.66995057
0.66981092
0.66968054
0.66955894
0.66944565
0.6693402
0.66924214
0.66915104
0.66906648
0.66898806
0.66891539
0.66884812
0.66878588
0.66872835
0.66867523
0.66862615
0.66858067
0.668538
0.66849672
0.66845422
0.66840608
0.66834548
0.66826275
0.66814501
0.6679769
0.66774308
0.66743267
0.66704345
0.66658365
0.66607104
0.66553026
0.66498901
0.66447375
0.66400647
0.66360235
0.66326905
0.66300764
0.66281391
0.66267955
0.6625937
0.6625447
0.662521
0.66251302
0.66251323
0.6768421
0.6765222
0.67620484
0.67589186
0.67558484
0.67528513
0.67499387
0.67471198
0.67444021
0.67417911
0.67392907
0.67369032
0.67346299
0.67324708
0.6730425
0.67284907
0.67266656
0.67249465
0.67233303
0.67218131
0.67203911
0.67190601
0.67178158
0.67166541
0.67155707
0.67145613
0.67136219
0.67127484
0.6711937
0.6711184
0.67104857
0.67098388
0.670924
0.67086862
0.67081746
0.67077022
0.6707266
0.67068614
0.67064808
0.670611
0.6705723
0.67052764
0.67047034
0.67039107
0.6702776
0.67011558
0.66989114
0.669595
0.66922618
0.66879337
0.66831381
0.6678107
0.66730961
0.66683473
0.66640585
0.66603649
0.66573316
0.66549631
0.66532156
0.66520087
0.66512403
0.66508032
0.66505925
0.6650522
0.66505248
0.6781192
0.67783797
0.67755847
0.67728241
0.67701126
0.67674628
0.67648852
0.67623887
0.67599801
0.67576645
0.67554459
0.67533265
0.67513075
0.67493893
0.67475711
0.67458516
0.67442285
0.67426996
0.67412617
0.67399117
0.67386463
0.67374616
0.6736354
0.67353199
0.67343555
0.67334569
0.67326206
0.6731843
0.67311208
0.67304506
0.67298292
0.67292536
0.6728721
0.67282285
0.67277737
0.6727354
0.67269664
0.67266067
0.67262672
0.67259338
0.67255807
0.67251649
0.67246216
0.67238608
0.67227663
0.67212049
0.67190516
0.67162284
0.67127364
0.67086661
0.67041844
0.66995093
0.66948771
0.66905079
0.66865796
0.66832114
0.66804575
0.66783169
0.66767446
0.66756631
0.66749773
0.66745886
0.6674402
0.66743402
0.66743434
0.6795815
0.67933681
0.67909129
0.67884669
0.67860459
0.67836637
0.67813322
0.67790612
0.6776859
0.67747321
0.67726855
0.6770723
0.67688468
0.67670584
0.67653582
0.67637458
0.67622201
0.67607794
0.67594217
0.67581444
0.67569448
0.675582
0.67547667
0.67537818
0.6752862
0.6752004
0.67512046
0.67504606
0.67497688
0.67491262
0.67485299
0.67479771
0.67474652
0.67469916
0.67465539
0.67461498
0.6745777
0.67454328
0.6745113
0.67448101
0.67445099
0.67441868
0.67437985
0.67432819
0.67425505
0.67414944
0.673999
0.67379255
0.67352365
0.67319335
0.67281096
0.67239259
0.6719587
0.67153106
0.67112967
0.67077045
0.6704638
0.67021419
0.670021
0.66987967
0.66978282
0.66972161
0.66968702
0.66967046
0.66966502
0.66966537
0.68091535
0.6807077
0.68049666
0.68028406
0.68007157
0.67986066
0.67965263
0.67944859
0.67924947
0.67905608
0.67886903
0.67868882
0.6785158
0.67835023
0.67819226
0.67804195
0.67789929
0.67776422
0.67763659
0.67751623
0.67740296
0.67729652
0.67719667
0.67710314
0.67701565
0.67693392
0.67685766
0.67678659
0.67672043
0.6766589
0.67660175
0.67654871
0.67649955
0.67645402
0.67641191
0.676373
0.67633709
0.67630397
0.67627339
0.67624494
0.67621788
0.67619079
0.67616112
0.67612472
0.67607547
0.67600505
0.6759031
0.67575821
0.67556044
0.67530457
0.6749925
0.67463368
0.67424361
0.67384147
0.67344728
0.67307914
0.67275124
0.6724726
0.67224679
0.67207275
0.67194596
0.6718594
0.67180488
0.67177418
0.67175955
0.67175479
0.67175515
0.68212672
0.68195657
0.68178055
0.68160053
0.68141824
0.68123524
0.68105291
0.68087248
0.68069502
0.68052142
0.68035244
0.68018869
0.68003065
0.6798787
0.67973308
0.67959397
0.67946147
0.67933558
0.67921628
0.67910346
0.678997
0.67889673
0.67880246
0.67871397
0.67863105
0.67855345
0.67848093
0.67841324
0.67835014
0.67829139
0.67823674
0.67818597
0.67813885
0.67809517
0.67805472
0.67801731
0.67798275
0.67795086
0.67792146
0.67789431
0.677869
0.67784481
0.67782031
0.67779297
0.67775873
0.67771165
0.67764378
0.67754534
0.67740588
0.6772166
0.6769734
0.6766789
0.67634262
0.67597941
0.6756072
0.67524435
0.6749072
0.67460833
0.6743555
0.67415146
0.67399484
0.67388114
0.67380377
0.67375517
0.67372788
0.67371491
0.67371072
0.67371109
0.68308902
0.68294857
0.68280173
0.68265027
0.68249581
0.68233982
0.68218363
0.68202841
0.68187517
0.68172479
0.68157799
0.68143537
0.68129743
0.68116453
0.68103695
0.68091489
0.68079845
0.68068768
0.68058259
0.68048311
0.68038915
0.68030058
0.68021726
0.680139
0.68006561
0.67999691
0.67993268
0.67987272
0.6798168
0.67976473
0.6797163
0.6796713
0.67962955
0.67959085
0.67955503
0.67952192
0.67949134
0.67946315
0.67943717
0.67941318
0.67939079
0.67936926
0.67934718
0.67932203
0.67928984
0.67924486
0.6791795
0.6790846
0.67895058
0.67876974
0.67853898
0.67826153
0.67794689
0.67760925
0.67726531
0.6769319
0.67662371
0.67635184
0.67612289
0.67593892
0.67579827
0.67569654
0.67562756
0.67558436
0.67556018
0.67554874
0.67554508
0.67554545
0.68411037
0.68400602
0.68389296
0.68377298
0.68364773
0.68351877
0.6833875
0.68325518
0.68312293
0.68299173
0.68286243
0.68273575
0.68261229
0.68249252
0.68237685
0.68226555
0.68215885
0.68205689
0.68195974
0.68186744
0.68177996
0.68169723
0.68161918
0.68154568
0.6814766
0.68141178
0.68135106
0.68129426
0.68124122
0.68119174
0.68114566
0.68110279
0.68106295
0.68102599
0.68099174
0.68096004
0.68093075
0.68090371
0.6808788
0.68085585
0.68083465
0.68081483
0.68079564
0.68077567
0.68075243
0.68072205
0.68067897
0.68061596
0.68052446
0.68039574
0.68022313
0.68000442
0.67974336
0.67944935
0.6791359
0.67881854
0.67851262
0.67823132
0.67798436
0.67777734
0.67761169
0.67748553
0.6773946
0.67733312
0.67729472
0.67727329
0.67726317
0.67725997
0.67726033
0.68502555
0.68495781
0.68487914
0.6847913
0.68469598
0.68459477
0.68448914
0.68438043
0.68426985
0.68415851
0.68404733
0.68393715
0.68382869
0.68372255
0.68361921
0.68351907
0.68342246
0.6833296
0.68324067
0.68315576
0.68307495
0.68299824
0.68292561
0.68285699
0.6827923
0.68273144
0.68267429
0.68262072
0.68257058
0.68252373
0.68248001
0.68243927
0.68240137
0.68236615
0.68233347
0.68230318
0.68227516
0.68224928
0.6822254
0.68220341
0.68218317
0.68216447
0.68214694
0.68212983
0.68211174
0.68209021
0.68206146
0.68202014
0.6819594
0.68187123
0.68174775
0.68158321
0.68137623
0.68113095
0.68085663
0.68056609
0.68027372
0.67999349
0.67973718
0.67951327
0.67932643
0.67917757
0.67906465
0.67898355
0.67892891
0.67889489
0.67887596
0.67886707
0.67886428
0.67886463
0.68580856
0.68576485
0.68570982
0.68564514
0.68557243
0.68549321
0.68540887
0.68532072
0.68522993
0.68513756
0.68504453
0.68495167
0.68485969
0.68476918
0.68468066
0.68459453
0.68451113
0.68443072
0.68435349
0.68427959
0.6842091
0.68414205
0.68407845
0.68401828
0.68396149
0.68390799
0.6838577
0.68381052
0.68376632
0.683725
0.68368642
0.68365046
0.68361699
0.68358589
0.68355702
0.68353028
0.68350554
0.68348269
0.68346163
0.68344224
0.68342441
0.68340793
0.68339243
0.68337717
0.68336074
0.68334073
0.68331346
0.68327379
0.68321523
0.68313035
0.68301203
0.68285543
0.68265985
0.68242976
0.68217421
0.68190532
0.68163639
0.68138007
0.68114686
0.68094413
0.68077572
0.68064209
0.68054109
0.6804688
0.68042022
0.68039005
0.68037331
0.68036547
0.68036303
0.68036335
0.68656264
0.68655443
0.68653283
0.68649951
0.68645607
0.68640404
0.68634488
0.68627995
0.6862105
0.68613767
0.6860625
0.68598591
0.6859087
0.68583159
0.68575518
0.68568
0.68560648
0.68553496
0.68546574
0.68539902
0.68533499
0.68527374
0.68521535
0.68515985
0.68510724
0.6850575
0.68501058
0.68496643
0.68492495
0.68488607
0.68484969
0.6848157
0.684784
0.68475448
0.68472704
0.68470158
0.68467799
0.68465618
0.68463604
0.68461749
0.68460042
0.68458474
0.68457023
0.68455654
0.68454292
0.68452797
0.68450933
0.68448341
0.68444529
0.68438885
0.68430723
0.68419403
0.68404522
0.68386073
0.68364526
0.6834076
0.68315916
0.6829122
0.68267816
0.68246634
0.68228311
0.68213159
0.68201186
0.68192172
0.68185742
0.68181436
0.68178768
0.68177297
0.68176608
0.68176396
0.68176426
0.68722415
0.68725191
0.68726435
0.68726307
0.68724965
0.68722563
0.68719248
0.68715161
0.68710432
0.68705184
0.68699529
0.68693569
0.68687394
0.68681086
0.68674715
0.68668344
0.68662027
0.68655807
0.68649722
0.68643803
0.68638074
0.68632555
0.68627258
0.68622194
0.68617368
0.68612784
0.68608441
0.68604337
0.68600469
0.68596832
0.68593418
0.6859022
0.6858723
0.6858444
0.68581842
0.68579425
0.68577182
0.68575105
0.68573184
0.68571412
0.6856978
0.6856828
0.68566903
0.68565629
0.68564421
0.68563204
0.68561841
0.68560099
0.68557632
0.68553968
0.68548533
0.68540693
0.68529881
0.68515765
0.68498394
0.6847825
0.68456187
0.68433271
0.68410628
0.68389291
0.68370079
0.6835354
0.68339922
0.68329205
0.68321164
0.68315446
0.68311626
0.68309265
0.68307968
0.68307361
0.68307176
0.68307204
0.68786109
0.68790812
0.68793955
0.6879569
0.68796168
0.68795538
0.68793943
0.68791517
0.6878839
0.6878468
0.68780497
0.68775943
0.68771107
0.68766071
0.68760907
0.68755678
0.68750438
0.68745235
0.68740107
0.68735088
0.68730203
0.68725475
0.6872092
0.68716549
0.6871237
0.68708391
0.68704611
0.68701033
0.68697654
0.68694472
0.68691481
0.68688676
0.68686052
0.68683602
0.68681317
0.68679193
0.68677221
0.68675394
0.68673706
0.68672149
0.68670717
0.68669402
0.68668195
0.68667077
0.68666012
0.68664926
0.6866368
0.68662049
0.68659697
0.68656176
0.68650946
0.68643428
0.6863312
0.68619755
0.68603429
0.68584634
0.68564188
0.68543089
0.68522367
0.68502949
0.68485557
0.68470655
0.6845844
0.68448865
0.68441708
0.68436636
0.68433259
0.68431178
0.68430038
0.68429508
0.68429348
0.68429374
0.68838563
0.68846769
0.68853241
0.68858123
0.68861561
0.68863701
0.68864685
0.68864652
0.68863734
0.68862056
0.68859736
0.68856883
0.68853596
0.68849966
0.68846075
0.68841995
0.68837791
0.68833518
0.68829226
0.68824956
0.68820742
0.68816613
0.68812593
0.688087
0.68804949
0.68801349
0.68797909
0.68794634
0.68791525
0.68788583
0.68785806
0.68783193
0.6878074
0.68778442
0.68776294
0.6877429
0.68772426
0.68770696
0.68769093
0.68767612
0.68766247
0.68764993
0.68763843
0.68762788
0.6876181
0.68760873
0.68759902
0.68758762
0.68757231
0.68754987
0.68751605
0.68746579
0.68739381
0.68729572
0.68716945
0.68701632
0.68684129
0.68665217
0.68645825
0.68626893
0.68609249
0.68593526
0.68580117
0.68569172
0.68560624
0.68554256
0.68549757
0.68546768
0.68544931
0.68543927
0.68543461
0.68543322
0.68543347
0.68882895
0.68894639
0.68904492
0.68912586
0.68919059
0.68924051
0.68927703
0.68930154
0.68931537
0.68931984
0.68931616
0.6893055
0.68928895
0.68926748
0.68924202
0.68921338
0.68918231
0.68914946
0.6891154
0.68908064
0.68904561
0.68901067
0.68897614
0.68894227
0.68890926
0.68887728
0.68884646
0.68881688
0.68878862
0.68876172
0.6887362
0.68871206
0.6886893
0.6886679
0.68864783
0.68862905
0.68861153
0.68859522
0.68858007
0.68856604
0.68855308
0.68854115
0.6885302
0.68852016
0.68851097
0.68850244
0.68849421
0.68848553
0.68847508
0.68846069
0.68843928
0.6884068
0.68835857
0.68828979
0.68819665
0.68807759
0.68793426
0.68777161
0.68759704
0.68741917
0.68724653
0.68708653
0.68694466
0.68682424
0.68672636
0.68665023
0.68659372
0.68655391
0.68652756
0.68651141
0.68650262
0.68649856
0.68649737
0.68649759
0.68934744
0.68948019
0.68959382
0.68968958
0.68976882
0.68983288
0.68988313
0.68992092
0.68994757
0.68996436
0.68997249
0.68997312
0.68996733
0.68995611
0.68994037
0.68992094
0.68989858
0.68987395
0.68984765
0.68982019
0.68979201
0.68976352
0.68973502
0.6897068
0.68967908
0.68965205
0.68962584
0.68960057
0.68957633
0.68955316
0.68953112
0.68951023
0.68949048
0.68947188
0.68945441
0.68943804
0.68942275
0.68940852
0.68939529
0.68938305
0.68937175
0.68936135
0.68935182
0.6893431
0.68933512
0.68932771
0.68932049
0.68931274
0.68930314
0.6892896
0.68926916
0.68923801
0.68919181
0.68912622
0.68903796
0.68892596
0.68879211
0.68864127
0.68848046
0.68831762
0.68816048
0.68801562
0.68788781
0.68777981
0.68769238
0.68762461
0.68757446
0.68753924
0.68751598
0.68750176
0.68749402
0.68749047
0.68748943
0.68748964
0.68967391
0.68984118
0.68998796
0.69011537
0.69022466
0.69031708
0.69039398
0.69045666
0.69050646
0.69054467
0.69057255
0.6905913
0.69060207
0.69060594
0.69060389
0.69059686
0.69058568
0.69057111
0.69055383
0.69053445
0.69051351
0.69049146
0.69046871
0.6904456
0.69042243
0.69039943
0.69037681
0.69035472
0.6903333
0.69031263
0.69029281
0.69027388
0.69025587
0.69023882
0.69022271
0.69020756
0.69019335
0.69018007
0.69016769
0.69015619
0.69014554
0.69013571
0.69012669
0.69011843
0.69011089
0.69010399
0.69009758
0.69009127
0.69008434
0.69007551
0.69006276
0.69004325
0.69001342
0.68996925
0.68990684
0.68982342
0.68971831
0.6895936
0.68945403
0.68930622
0.68915746
0.68901474
0.68888387
0.68876897
0.68867231
0.68859439
0.68853422
0.68848985
0.68845879
0.68843833
0.68842587
0.68841911
0.68841604
0.68841515
0.68841534
0.69013072
0.690311
0.69047059
0.69061057
0.69073214
0.69083653
0.69092503
0.69099894
0.69105956
0.69110817
0.69114601
0.69117429
0.69119415
0.69120666
0.69121282
0.69121357
0.69120974
0.69120213
0.69119141
0.69117821
0.69116308
0.69114649
0.69112887
0.69111057
0.6910919
0.69107311
0.69105443
0.69103601