/*--------------------------------*- C++ -*----------------------------------*\
| =========                 |                                                 |
| \\      /  F ield         | OpenFOAM: The Open Source CFD Toolbox           |
|  \\    /   O peration     | Version:  2506                                  |
|   \\  /    A nd           | Website:  www.openfoam.com                      |
|    \\/     M anipulation  |                                                 |
\*---------------------------------------------------------------------------*/
FoamFile
{
    version     2.0;
    format      ascii;
    arch        "LSB;label=32;scalar=64";
    class       volScalarField;
    location    "0.005";
    object      omega;
}
// * * * * * * * * * * * * * * * * * * * * * * * * * * * * * * * * * * * * * //

dimensions      [0 0 -1 0 0 0 0];

internalField   nonuniform List<scalar> 
13761
(
3.187863e+08
53421107
17291641
8131606.5
4868538
3342975
2455896.6
1875714.9
1473826
1184688.6
970058.69
806402.01
678751.44
3.1876614e+08
53418713
17293926
8135980.2
4872672.4
3345487.5
2456801.7
1875472.7
1472793.8
1183178.3
968262.07
804454.27
676776.19
575338.08
493413.07
426343.7
370810.56
324388.63
285278.32
252099.24
223768.5
199438.9
178433.25
160197.6
144276.11
130280.9
3.1872534e+08
53412043
17292205
8135465.2
4872397.2
3345151.4
2456279.2
1874751.3
1471962
1182325.9
967463.98
803765.04
676231.05
574955.87
493206.96
426298.92
370888.15
324551.77
285498.29
252354.06
224041.42
199718.05
178713.04
160484.88
144587.59
130632.65
118301.37
107330.77
97502.008
88634.358
80578.124
73223.545
3.1869739e+08
53407703
17291504
8135774
4872684.7
3344919.2
2455370.3
1873191.4
1469835
1179737.8
964532.3
800616.93
673000.65
571774.51
490191.57
423550.96
368479.76
322523.5
283865.36
251116.27
223187.92
199226.57
178542.86
160565.24
144833.91
130989.91
118731.43
107805.2
97999.229
89143.027
81107.627
73768.188
67027.943
60818.627
55096.92
49837.271
2.889443e+08
48335959
15448117
6955529.6
3896505.8
2541553.8
1827087.1
1386728
1085540.4
868109.14
706345.77
583396.53
488264.95
413432.81
353654.01
305223.45
265483.97
232508.38
204885.23
181549.79
161681.72
144648.03
129946.3
117149.46
105912.82
95954.589
87040.814
78976.218
71600.436
64786.866
58442.995
52524.557
47022.997
41956.688
37364.412
33304.1
29833.646
26995.535
24772.636
22631.283
20485.443
18923.24
17922.766
17742.087
17755.048
17769.264
17765.039
17721.672
17651.463
17611.742
17653.014
17862.056
2.8921314e+08
48380958
15462882
6963109.4
3901864.4
2545969.2
1830839.9
1389940.6
1088353.2
870641.14
708675.28
585570.41
490310.68
415366.93
355487.96
306963.2
267131.51
234057.73
206320.72
182853.08
162835.33
145637.52
130761.32
117798.97
106414.55
96325.203
87291.651
79122.07
71663.301
64794.442
58429.705
52509.38
47010.897
41945.068
37350.397
33282.061
29794.141
26932.522
24690.369
22699.523
20626.824
19066.96
17976.44
17736.954
17743.743
17756.774
17752.024
17708.213
17638.369
17599.315
17639.474
17846.274
18069.244
18124.905
17973.558
17866.375
17865.533
17877.227
17656.862
17339.385
17173.677
17107.159
2.8948136e+08
48425942
15477528
6970272.3
3906590.5
2549682.5
1833940.6
1392597.6
1090694.7
872747.76
710583.54
587293.47
491855.68
416743.22
356707.72
308042.1
268083.98
234896
207055.71
183490.24
163372.84
146069.67
131083.53
118011.59
106525.94
96354.239
87270
79077.55
71612.427
64747.273
58390.096
52481.685
46996.882
41941.801
37348.107
33269.206
29768.424
26886.49
24622.283
22741.441
20768.187
19208.942
18045.878
17734.483
17732.164
17744.074
17738.897
17694.78
17624.971
17586.184
17624.917
17829.357
18053.98
18112.16
17964.491
17859.641
17859.801
17872.833
17655.413
17335.244
17166.689
17099.223
17078.32
17293.49
17460.981
17374.779
17268.911
2.8974605e+08
48470341
15491748
6976782.7
3910468.9
2552477.6
1836161.4
1394478.9
1092412.9
874433.51
712316.7
589111.8
493763.23
418718.61
358713.3
310030.14
270005.65
236709.72
208728.78
184999.41
164706.23
147224.56
132063.08
118824.63
107186.53
96879.877
87678.307
79390.004
71853.502
64938.529
58547.092
52614.457
47110.256
42036.324
37421.603
33315.227
29776.281
26862.703
24573.041
22758.26
20905.726
19349.232
18132.213
17733.174
17720.602
17731.421
17725.964
17681.901
17611.958
17572.885
17609.663
17811.429
18038.15
18099.743
17955.484
17852.082
17853.927
17868.836
17654.676
17330.868
17159.41
17091.262
17067.472
17277.566
17452.087
17374.299
17258.51
17679.983
18071.047
18065.565
17534.525
2.9001468e+08
48515210
15505811
6983003.3
3914110.2
2555257.1
1838668.2
1396893.7
1094750.1
876641.5
714330.38
590883.67
495277.12
419987.35
359768.11
310912.09
270758.33
237372.81
209333.93
185567.7
165247.21
147737.98
132542.77
119262.34
107574.99
97214.792
87959.539
79622.366
72046.022
65101.908
58690.883
52745.056
47230.075
42144.031
37512.872
33382.942
29809.995
26849.713
24539.815
22763.299
21039.008
19493.714
18236.487
17732.789
17709.279
17718.987
17713.279
17669.597
17599.474
17559.527
17593.597
17792.035
18021.822
18087.931
17947.282
17844.308
17848.418
17865.733
17654.768
17327.043
17152.689
17084.218
17056.652
17260.362
17442.778
17375.224
17251.111
17649.951
18058.694
18064.214
17542.64
17247.418
17173.024
17144.821
2.9027482e+08
48558324
15518485
6987171.6
3914989
2554955.6
1838251.2
1396856.1
1095296.2
877799.88
716026
592983.64
497617.77
422401.36
362128.96
313138.04
272807.66
239232.21
211007.29
187067.54
166588.78
148935.72
133608.82
120206.42
108405.29
97939.183
88586.749
80162.723
72511.405
65504.901
59043.348
53056.574
47506.714
42387.816
37722.102
33553.072
29934.302
26918.44
24543.505
22768.442
21175.531
19654.317
18367.864
17741.979
17698.317
17706.707
17700.904
17658.116
17587.885
17546.227
17576.19
17769.398
18003.909
18076.55
17940.446
17836.7
17843.178
17863.752
17657.284
17324.729
17147.29
17078.702
17046.443
17241.624
17433.387
17378.157
17245.625
17619.361
18045.415
18063.136
17551.189
17248.461
17171.84
17143.581
17114.11
17089.913
17084.806
2.9050152e+08
48595666
15529280
6990283.4
3914771.2
2553214.7
1835994.9
1394663.6
1093455.9
876431.56
715160.31
592614.24
497734.3
422992.2
363130.28
314447.39
274297.11
240779.21
212523.24
188497.35
167904.16
150127.33
134679.1
121163.94
109260.96
98704.074
89271.219
80776.272
73062.797
66002.139
59493.295
53464.254
47874.603
42715.499
38006.559
33789.502
30116.915
27040.613
24599.579
22784.1
21300.029
19820.098
18514.901
17764.142
17688.135
17694.609
17688.524
17646.736
17576.634
17533.157
17558.649
17745.044
17984.701
18064.7
17933.998
17829.377
17838.134
17862.323
17661.156
17323.282
17143.084
17074.863
17037.319
17221.892
17424.081
17381.736
17240.79
17589.997
18031.739
18062.811
17560.473
17249.882
17170.273
17141.873
17113.31
17089.012
17083.691
17092.52
17100.667
2.9072951e+08
48633337
15540871
6994909.9
3916453.8
2553207
1834957
1393053.8
1091618.9
874620.77
713538.52
591267.71
496691.33
422245.68
362678.29
314294.36
274457.28
241250.42
213256.99
189412.2
168919.52
151174.39
135705.07
122133.03
110152.74
99510.473
89992.986
81419.778
73637.318
66517.701
59958.939
53886.673
48257.229
43058.243
38306.336
34041.361
30315.238
27179.799
24675.165
22805.776
21393.434
19980.413
18667.164
17801.308
17678.763
17682.681
17675.861
17634.863
17565.113
17520.336
17542.221
17721.589
17964.907
18051.723
17926.985
17822.382
17833.426
17861.107
17665.998
17321.942
17139.666
17072.557
17029.41
17201.855
17415.07
17384.562
17236.221
17562.701
18017.985
18062.539
17570.091
17251.87
17168.924
17140.306
17112.191
17087.773
17082.124
17091.413
17099.637
17094.715
17111.213
2.9095536e+08
48671294
15553098
7000447
3919409.6
2554793.7
1835608.3
1393022.9
1091131
873850.86
712620.81
590312.83
495787.09
421455.88
362042.23
313827.67
274153.42
241095.74
213246.69
189548.9
169181.64
151535.5
136137.5
122609.92
110649.83
100007.71
90475.513
81878.122
74066.909
66917.8
60331.164
54233.286
48579.443
43354.929
38573.566
34272.961
30503.991
27318.609
24758.3
22836.51
21454.518
20131.048
18825.863
17856.58
17670.195
17670.725
17662.756
17622.189
17552.959
17507.568
17527.558
17701.456
17945.354
18037.485
17918.952
17815.599
17829.232
17860.081
17668.134
17320.321
17136.593
17071.289
17022.599
17182.221
17406.636
17386.517
17232.204
17537.501
18004.282
18061.845
17579.533
17254.131
17167.694
17138.839
17111.295
17086.735
17080.685
17089.863
17098.263
17093.531
17110.306
17101.675
2.9118529e+08
48709872
15565524
7006220.4
3922732.7
2556894.9
1836915.9
1393734.1
1091381.8
873772.47
712329
589887.4
495286.07
420927.77
361532
313378
273798.8
240859.01
213141.89
189583.79
169367.4
151853.51
136553.2
123086.68
111154.23
100512.65
90961.427
82332.817
74484.512
67297.212
60674.342
54543.574
48860.119
43608.065
38799.272
34469.126
30666.523
27442.035
24836.82
22869.013
21482.836
20262.328
18991.843
17931.114
17662.929
17658.452
17649.119
17608.403
17539.772
17494.46
17514.666
17685.719
17927.066
18022.088
17909.546
17808.724
17825.667
17859.277
17667.817
17317.95
17133.317
17070.51
17016.725
17164.01
17399.14
17387.543
17229.031
17514.555
17990.786
18060.366
17588.222
17256.346
17166.457
17137.387
17110.531
17085.763
17079.353
17088.558
17097.159
17091.853
17109.173
17100.613
17138.82
17175.972
2.9141446e+08
48748400
15578098
7012160.4
3926275.6
2559281.7
1838565.2
1394832.6
1092054.8
874116.14
712422.84
589809.22
495099.89
420677.2
361248.67
313086.79
273524.56
240626.61
212970.74
189483.67
169341.53
151915.61
136710.1
123328.43
111462.43
100863.86
91331.277
82699.843
74832.87
67617.804
60964.321
54804.58
49095.853
43821.89
38992.519
34640.475
30812.329
27557.063
24915.106
22906.98
21499.199
20369.701
19158.473
18023.31
17658.266
17645.763
17634.932
17593.33
17525.175
17480.528
17502.809
17673.116
17910.429
18005.681
17898.532
17801.305
17822.625
17858.678
17666.786
17313.987
17129.307
17069.876
17011.582
17148.133
17392.853
17387.686
17226.506
17493.999
17977.685
18057.969
17595.948
17258.319
17165.164
17135.919
17109.783
17084.774
17078.133
17087.449
17096.238
17090.291
17108.393
17099.16
17137.207
17174.649
17158.996
2.916495e+08
48787722
15590858
7018238.6
3929979.3
2561861.6
1840432.7
1396169.1
1092983
874728.2
712788.02
589980.98
495127.65
420611.39
361127.09
312933.92
273357.63
240461.59
212823.67
189368.87
169268.81
151887.91
136729.21
123401.46
111592.85
101051.64
91572.529
82985.769
75149.972
67949.523
61293.599
55116.581
49380.095
44073.033
39209.491
34824.381
30964.147
27676.011
24998.056
22949.602
21505.604
20447.879
19314.557
18129.63
17657.648
17632.588
17620.216
17577.143
17509.116
17465.442
17490.989
17661.723
17894.989
17988.33
17885.852
17792.911
17819.721
17858.145
17665.079
17307.711
17124.107
17069.062
17006.896
17134.82
17387.636
17387.56
17224.215
17475.835
17965.158
18054.585
17603
17260.074
17163.838
17134.517
17109.095
17083.819
17077.053
17086.386
17095.393
17088.79
17107.823
17097.828
17134.897
17172.889
17157.424
17229.82
2.9188116e+08
48826724
15603649
7024381.4
3933776.6
2564567
1842448.1
1397672.7
1094096.5
875543.08
713370.25
590378.84
495377.42
420740.89
361164.09
312906.63
273291.32
240375.21
212733.51
189290.28
169217.18
151878.8
136779.7
123519.45
111775.26
101282.28
91824.928
83238.715
75391.604
68176.732
61509.114
55325.395
49585.663
44275.001
39403.44
35003.4
31120.959
27804.122
25091.505
23002.746
21520.27
20497.926
19452.586
18246.842
17662.5
17618.624
17604.812
17560.118
17491.958
17449.27
17478.511
17650.384
17879.814
17969.859
17871.599
17783.327
17816.381
17857.316
17662.16
17299.002
17117.447
17067.543
17002.303
17123.398
17382.743
17387.189
17221.671
17459.677
17953.43
18051.307
17609.983
17261.91
17162.589
17133.296
17108.516
17082.941
17076.099
17085.293
17094.558
17087.263
17107.312
17096.534
17132.676
17171.412
17155.246
17228.525
17273.998
17201.269
2.9211704e+08
48866206
15616555
7030638.7
3937715
2567418.8
1844595.9
1399284.3
1095291.7
876411.72
713977.64
590774.53
495603.26
420834.97
361162.56
312843.09
273189.99
240254.23
212605.82
189165.7
169103.29
151781.39
136701.06
123463.35
111750.6
101306.59
91921.481
83412.602
75629.442
68455.843
61802.871
55606.978
49838.692
44494.588
39592.773
35168
31263.907
27924.141
25183.473
23059.553
21539.396
20522.306
19568.165
18373.505
17674.635
17603.533
17588.412
17542.436
17474.369
17432.676
17465.573
17639.063
17864.111
17949.97
17855.983
17772.606
17812.028
17855.449
17656.615
17288.238
17109.252
17064.562
16997.334
17112.625
17377.131
17386.114
17218.195
17444.65
17942.62
18050.516
17617.42
17264.174
17161.505
17132.296
17108.068
17082.154
17075.189
17084.084
17093.723
17085.742
17106.834
17095.25
17130.553
17170.143
17153.196
17226.847
17272.833
17200.138
17268.234
2.9235006e+08
48905360
15629432
7036861.2
3941617.2
2570264.8
1846792.7
1401009
1096664.4
877521.39
714886.95
591527.13
496228.96
421353.37
361585.35
313176.76
273442.68
240437.77
212734.01
189253.19
169164.14
151827.87
136742.6
123505.39
111792.82
101339.5
91933.604
83405.627
75615.506
68446.794
61810.683
55646.241
49914.435
44601.901
39719.911
35301.479
31392.211
28038.26
25275.365
23121.008
21565.161
20532.565
19659.586
18507.624
17696.411
17587.485
17570.888
17524.245
17457.08
17416.926
17453.365
17628.505
17847.929
17928.838
17839.421
17761.055
17806.388
17851.821
17647.562
17275.75
17099.48
17059.311
16991.402
17101.23
17369.963
17383.489
17212.79
17429.691
17932.539
18050.904
17625.387
17266.597
17160.614
17131.491
17107.742
17081.399
17074.204
17082.735
17093.108
17084.322
17106.385
17094.019
17128.491
17168.924
17151.2
17225.264
17271.31
17198.549
17266.211
17367.002
2.925834e+08
48944641
15642369
7043186.7
3945654.9
2573241.4
1849079.5
1402766.7
1098009.2
878539.47
715638.57
592056.43
496572.41
421544.75
361657.92
313163.64
273375.44
240339.57
212621.63
189139.01
169058.05
151738.22
136676.74
123468.89
111788.38
101373.37
92008.655
83516.413
75751.504
68598.493
61969.244
55800.902
50053.54
44722.622
39827.494
35403.227
31491.712
28133.237
25358.624
23182.521
21595.718
20537.593
19727.403
18646.249
17731.026
17571.622
17552.916
17506.225
17440.973
17403.315
17443.002
17619.092
17832.517
17908.055
17822.563
17748.949
17799.755
17846.868
17635.898
17261.826
17088.014
17051.259
16983.847
17088.372
17361.206
17378.951
17203.976
17413.438
17922.812
18052.465
17633.528
17267.782
17159.871
17130.758
17107.437
17080.585
17073.13
17081.326
17092.865
17083.08
17105.941
17092.883
17126.517
17167.65
17149.136
17223.752
17270.038
17197.02
17263.696
17365.624
17281.837
2.9281587e+08
48983778
15655237
7049425.9
3949592
2576148.6
1851371.6
1404618.9
1099533.4
879816
716724.87
592993.81
497391.01
422265.94
362295.56
313725.7
273865.16
240759.04
212971.77
189419.98
169269.71
151880.93
136753.02
123486.53
111764.05
101323.67
91947.166
83454.7
75698.33
68559.504
61947.74
55800.508
50085.548
44788.582
39918.596
35506.825
31597.237
28233.333
25446.734
23250.481
21633.969
20543.762
19773.491
18783.756
17782.213
17558.303
17536.632
17489.811
17427.02
17392.483
17434.554
17610.406
17819.965
17891.422
17806.427
17736.198
17792.842
17842.575
17625.393
17247.223
17074.684
17040.434
16974.003
17073.985
17352.497
17374.155
17190.006
17394.04
17912.799
18055.304
17641.455
17267.966
17159.16
17129.942
17107.052
17079.725
17072.068
17079.941
17092.794
17082.038
17105.474
17091.824
17124.611
17166.288
17147.011
17222.06
17268.889
17195.533
17261.241
17363.608
17282.243
2.9304952e+08
49022998
15668195
7055749.5
3953604.4
2579109.2
1853676.6
1406435.4
1100974
880960.66
717628.36
593695.61
497923.33
422657.57
362573.74
313916.21
273992.67
240847.38
213042.3
189489.22
169346.93
151972.03
136861.05
123610.46
111897.05
101456.99
92074.003
83570.697
75801.665
68650.592
62028.594
55873.217
50147.604
44840.285
39968.013
35563.733
31666.522
28312.458
25527.309
23320.592
21680.401
20559.525
19804.455
18913.634
17853.277
17550.501
17524.955
17477.621
17416.733
17384.362
17427.157
17601.613
17811.265
17882.61
17793.381
17722.683
17786.071
17840.197
17620.881
17234.417
17059.905
17027.961
16961.604
17058.842
17346.399
17372.193
17170.459
17369.39
17901.48
18058.617
17649.076
17268.189
17158.401
17128.962
17106.514
17078.898
17071.108
17078.685
17092.754
17081.14
17104.952
17090.778
17122.777
17164.882
17144.875
17220.063
17267.76
17194.075
17259.037
17361.502
17282.86
17232.592
2.9328068e+08
49061897
15681066
7061978.3
3957519.2
2582014.9
1856002.2
1408350.1
1102572
882302.75
718755.31
594636.7
498700.87
423289.31
363074.18
314297.5
274265.86
241022.92
213130.21
189501.33
169301.71
151887.08
136751.51
123489.6
111775.62
101342.84
91972.451
83485.093
75733.918
68601.665
61998.764
55862.444
50158.035
44876.515
40029.523
35644.109
31757.396
28406.468
25617.568
23399.054
21736.782
20586.048
19826.515
19028.803
17945.037
17549.326
17518.916
17471.985
17411.132
17378.618
17419.756
17591.763
17804.958
17880.053
17786.674
17709.389
17779.111
17839.014
17621.197
17228.019
17046.462
17017.647
16948.034
17043.954
17343.399
17372.546
17149.956
17338.037
17887.579
18060.463
17656.641
17268.788
17157.623
17127.776
17105.693
17078.173
17070.292
17077.673
17092.689
17080.262
17104.344
17089.779
17121.076
17163.496
17142.813
17217.953
17266.608
17192.659
17257.06
17359.304
17283.481
17231.609
17370.19
2.9351389e+08
49101100
15693926
7068125.8
3961314.3
2584792.4
1858227.1
1410207.5
1104155.8
883670.09
719945.78
595681.91
499628.27
424123.1
363834.74
315000.44
274921.13
241633.81
213698.88
190029.19
169786.66
152326.73
137143.35
123830.97
112065.46
101582.26
92163.993
83632.058
75840.075
68671.353
62037.555
55878.11
50160.089
44874.41
40029.162
35654.066
31785.555
28455.383
25683.065
23469.374
21796.201
20620.841
19844.669
19125.318
18054.874
17553.947
17516.488
17471.075
17409.66
17374.813
17411.865
17579.919
17798.756
17879.418
17785.356
17699.037
17771.27
17838.005
17625.805
17227.809
17039.634
17013.887
16938.14
17029.761
17341.731
17375.907
17138.518
17301.813
17870.073
18060.585
17664.365
17270.058
17156.903
17126.364
17104.482
17077.591
17069.564
17076.899
17092.515
17079.278
17103.654
17088.952
17119.532
17162.217
17141.007
17215.942
17265.362
17191.304
17255.192
17357.015
17283.826
17230.327
17368.463
17483.213
2.9374526e+08
49140135
15706840
7074355.4
3965196.8
2587618
1860421.7
1411952
1105560
884805.48
720856.88
596397.16
500168.31
424505.41
364076.52
315120.93
274943.27
241586.37
213605.6
189906.49
169646.15
152177.43
136993.56
123688.6
111936.4
101470.1
92071.207
83560.818
75791.984
68644.646
62022.756
55869.792
50156.773
44879.02
40051.531
35700.407
31855.674
28541.42
25769.164
23548.244
21860.993
20662.197
19863.311
19200.835
18176.69
17566.128
17515.365
17471.785
17409.766
17372.305
17403.851
17565.164
17790.821
17878.866
17785.209
17693.494
17762.126
17836.093
17635.356
17232.697
17038.898
17013.868
16935.329
17016.147
17339.648
17383.485
17137.062
17268.42
17848.864
18059.852
17672.109
17272.388
17156.312
17124.75
17102.906
17077.087
17068.777
17076.283
17092.132
17078.113
17102.865
17088.312
17118.151
17161.152
17139.626
17213.923
17263.987
17189.931
17253.367
17354.798
17283.919
17229.205
17366.321
17481.631
17401.407
2.9397701e+08
49179152
15719555
7080251.6
3968679.8
2590152.4
1862577.6
1413916.8
1107368.2
886455.35
722350.21
597745.03
501388.22
425617.16
365098.43
316067.04
275821.25
242396.12
214345.15
190577.16
170250.24
152716.84
137468.57
124097.98
112279.49
101746.98
92281.251
83701.621
75859.722
68648.756
61991.34
55823.999
50110.046
44838.421
40019.163
35677.372
31844.3
28548.286
25805.488
23605.108
21920.829
20707.381
19886.18
19258.039
18302.783
17588.217
17514.67
17473.11
17409.693
17370.391
17396.462
17547.603
17780.145
17877.642
17784.964
17691.227
17751.91
17831.872
17649.868
17245.562
17040.353
17015.446
16935.426
17002.853
17335.517
17391.864
17138.469
17246.546
17825.374
18056.584
17679.461
17276.149
17155.857
17122.925
17101.105
17076.537
17067.821
17075.746
17091.47
17076.835
17101.894
17087.765
17116.905
17160.302
17138.613
17211.657
17262.439
17188.436
17251.683
17352.798
17283.92
17228.111
17364.095
17479.448
17401.709
2.9420887e+08
49218186
15732386
7086306.2
3972296.3
2592673.3
1864484.4
1415419.9
1108586
887455.31
723168.53
598402.2
501898.39
425993.09
365353.75
316217.28
275884.26
242391.57
214293.59
190493.1
170145.12
152600.67
137351.46
123990.12
112189.54
101682.04
92247.231
83702.806
75896.705
68706.428
62049.692
55871.935
50145.066
44864.508
40044.353
35710.837
31892.598
28611.766
25875.376
23672.918
21983.037
20756.026
19913.605
19298.582
18425.049
17623.007
17513.652
17473.122
17409.214
17368.503
17390.185
17531.337
17767.614
17874.836
17784.374
17690.052
17742.048
17825.189
17665.83
17263.918
17044.243
17019.984
16936.856
16989.776
17327.724
17395.951
17144.421
17236.267
17802.427
18048.944
17685.98
17281.352
17155.469
17120.858
17099.326
17075.866
17066.643
17075.165
17090.526
17075.721
17100.65
17087.171
17115.691
17159.558
17137.769
17209.025
17260.611
17187.007
17250.181
17351.03
17283.895
17226.918
17361.821
17477.288
17402.009
17203.128
2.9444379e+08
49257560
15745067
7091996.6
3975467.7
2594892.9
1866406.8
1417252.1
1110339.1
889099.62
724686.38
599792.18
503169.74
427160.33
366432.55
317221.56
276823.37
243268.54
215105.46
191238.82
170823.58
153209.05
137884.33
124439.49
112545.09
101930.64
92385.463
83740.542
75861.2
68632.946
61961.415
55782.57
50062.249
44792.376
39985.133
35665.912
31863.32
28600.013
25886.461
23710.743
22034.941
20805.268
19945.983
19328.932
18538.085
17672.562
17511.87
17472.488
17408.243
17366.02
17384.819
17522.442
17755.995
17869.378
17783.185
17688.885
17735.295
17819.393
17673.653
17274.274
17046.39
17026.688
16939.674
16977.244
17315.71
17396.457
17155.58
17231.699
17782.696
18036.709
17691.533
17287.51
17155.108
17118.634
17097.766
17075.019
17065.192
17074.422
17089.367
17075.013
17099.092
17086.329
17114.404
17158.757
17136.894
17206.102
17258.463
17186.044
17248.665
17349.443
17283.807
17225.555
17359.438
17475.108
17402.267
17204.501
17076.866
2.9467499e+08
49296552
15757888
7097907.8
3978840.9
2597120.2
1868015.4
1418477.4
1111307.6
889884.05
725327.98
600315.11
503588.79
427484.75
366668.46
317374.21
276900
243281.33
215072.77
191176.77
170746.38
153130.48
137818.01
124399.34
112547.5
101997.5
92522.879
83936.549
76086.391
68853.922
62157.14
55946.069
50194.722
44898.943
40072.317
35740.398
31931.206
28665.435
25947.309
23768.604
22092.344
20857.749
19983.458
19355.486
18638.552
17736.617
17508.917
17470.841
17406.007
17361.981
17379.61
17519.35
17746.882
17860.102
17779.934
17686.739
17732.661
17817.78
17674.051
17274.765
17046.172
17030.484
16940.731
16966.021
17300.849
17395.977
17167.138
17228.863
17766.906
18021.947
17696.401
17293.878
17154.807
17116.538
17096.434
17073.929
17063.502
17073.458
17088.011
17074.622
17097.281
17085.104
17112.982
17157.712
17135.799
17203.133
17256.107
17185.523
17246.839
17347.926
17283.632
17223.935
17356.88
17472.878
17402.48
17205.711
17077.046
2.9490774e+08
49335590
15770404
7103323
3981636.2
2598950
1869618.8
1420100.1
1112957.4
891506.27
726874.09
601757.31
504918.12
428705.24
367791.14
318411.34
277861.1
244170.89
215889.5
191920.94
171418.77
153731.5
138347.36
124855.24
112924.4
102283.07
92711.347
84035.513
76115.741
68842.019
62127.178
55908.927
50155.671
44861.543
40039.88
35715.728
31916.381
28663.012
25964.611
23803.502
22139.507
20908.292
20024.696
19382.839
18724.529
17811.771
17504.157
17465.91
17400.397
17355.083
17373.746
17517.339
17739.056
17845.947
17771.812
17682.144
17731.773
17817.678
17673.15
17273.362
17045.164
17030.608
16940.43
16956.646
17286.278
17393.72
17171.928
17226.13
17754.01
18008.346
17700.955
17299.793
17154.637
17115.122
17095.423
17072.66
17061.83
17072.247
17086.411
17074.367
17095.467
17083.816
17111.354
17156.284
17134.337
17200.389
17253.736
17185.164
17244.398
17346.329
17283.566
17222.032
17354.126
17470.631
17402.588
17206.964
17077.549
17021.552
2.9513914e+08
49374498
15783161
7109128.7
3984850.3
2600989
1871033.9
1421140.1
1113755.1
892138.95
727387.12
602175.92
505254.59
428964.5
367975.88
318525.79
277913.05
244172.42
215856.62
191866.19
171352.65
153663.31
138285.86
124809.53
112905.43
102305.88
92788.999
84168.867
76294.339
69047.014
62339.056
56112.306
50338.792
45017.046
40165.527
35814.836
31996.274
28731.19
26024.085
23857.356
22190.902
20958.62
20068.231
19412.427
18795.138
17892.371
17497.304
17454.585
17388.984
17344.328
17366.681
17514.312
17730.349
17826.397
17756.384
17673.745
17730.844
17817.525
17671.066
17269.942
17042.295
17029.775
16939.011
16948.837
17274.893
17389.303
17172.131
17222.594
17742.539
17998.809
17705.417
17304.973
17154.736
17114.717
17095.019
17071.533
17060.633
17070.842
17084.561
17074.158
17093.977
17083.176
17109.513
17154.499
17132.481
17197.989
17251.554
17184.805
17241.144
17344.56
17283.636
17220.168
17351.264
17468.356
17402.571
17208.202
17078.169
17021.121
17015.394
2.9536915e+08
49413077
15795449
7114289.2
3987310.4
2602433.6
1872259.7
1422419.7
1115098.9
893490.82
728699.5
603423.17
506428.04
430064.93
369007.16
319491.13
278813.32
245007.5
216625.89
192571.58
171997.04
154249.51
138816.16
125285.32
113326.67
102669.83
93092.421
84411.884
76479.92
69180.89
62430.727
56175.326
50385.459
45055.157
40198.03
35841.239
32015.583
28745.134
26037.701
23877.945
22222.767
20999.673
20110.081
19443.475
18849.601
17971.975
17488.235
17435.201
17370.943
17330.252
17358.292
17509.018
17719.008
17802.857
17733.962
17661.536
17728.945
17816.864
17666.233
17261.281
17035.502
17026.638
16935.063
16941.84
17267.027
17384.663
17171.782
17217.428
17731.279
17993.395
17709.876
17309.423
17155.287
17114.729
17095.006
17070.977
17060.167
17069.393
17082.57
17073.953
17092.92
17083.129
17107.608
17152.542
17130.432
17195.897
17249.691
17184.363
17237.323
17342.644
17283.95
17219.107
17348.473
17465.984
17402.395
17209.31
17078.737
17020.689
17014.725
2.9559742e+08
49451605
15808175
7120081.7
3990486.3
2604408
1873595.6
1423372.7
1115803.8
894024.52
729106.18
603727.58
506644.63
430204.22
369079.76
319509.82
278793.34
244961.99
216564.48
192501.08
171922.48
154174.76
138744.19
125218.23
113265.86
102616.32
93047.547
84377.864
76459.57
69176.434
62441.645
56195.798
50409.549
45079.192
40220.506
35861.672
32033.368
28759.371
26048.828
23889.394
22240.738
21028.978
20146.63
19474.152
18889.46
18047.091
17481.297
17410.646
17350.042
17315.695
17348.693
17500.098
17704.254
17780.061
17710.71
17647.586
17724.938
17814.333
17655.831
17245.667
17024.192
17019.74
16927.871
16935.102
17261.048
17381.448
17170.859
17209.913
17719.358
17990.239
17714.256
17313.119
17155.947
17114.814
17095.191
17070.921
17060.133
17067.993
17080.607
17073.739
17092.177
17083.294
17105.843
17150.675
17128.704
17194.005
17248.135
17184.002
17233.806
17340.722
17284.597
17218.939
17345.9
17463.431
17401.965
17210.238
17079.174
17020.453
17013.951
17029.657
2.9582748e+08
49490136
15820466
7125180.3
3992813.9
2605670.8
1874608.7
1424426.5
1116923.3
895165.98
730231.83
604816.83
507689.35
431202.04
370029.25
320407.81
279635.62
245746.4
217291.2
193171.93
172540.25
154742.74
139265.89
125697.42
113706.58
103022.85
93424.219
84728.697
76787.629
69483.072
62726.057
56455.498
50640.602
45276.909
40381.344
35985.373
32123.728
28823.111
26093.675
23923.052
22270.259
21059.666
20181.804
19506.518
18922.187
18119.221
17482.978
17389.701
17334.561
17304.45
17338.302
17486.773
17687.353
17765.387
17696.576
17634.938
17717.684
17808.099
17640.823
17229.627
17011.548
17009.767
16918.989
16928.557
17255.322
17380.102
17168.712
17199.917
17706.315
17987.609
17718.323
17316.069
17156.042
17114.815
17095.787
17071.044
17060.229
17066.743
17078.836
17073.547
17091.589
17083.878
17104.406
17149.113
17127.783
17192.171
17246.836
17183.97
17231.49
17339.086
17285.51
17219.018
17343.522
17460.665
17401.391
17211.066
17079.514
17020.242
17013.376
17028.933
2.9605768e+08
49528987
15833240
7130911.1
3995862.2
2607497.5
1875814
1425280.3
1117554.5
895640.19
730584.29
605067.8
507852.66
431289.9
370054.88
320386.7
279582.28
245672.1
217204.63
193079.66
172447.07
154652.24
139180.87
125620.06
113638.51
102965.37
93378.434
84695.317
76766.846
69474.677
62730.325
56475.008
50677.164
45330.367
40448.161
36057.892
32191.835
28877.856
26130.464
23943.395
22282.916
21078.427
20212.535
19541.339
18954.222
18190.945
17498.641
17378.14
17327.655
17298.218
17328.446
17470.522
17672.138
17761.098
17693.327
17625.511
17707.067
17797.969
17629.976
17224.125
17004.114
17000.886
16912.392
16922.481
17248.844
17379.964
17165.297
17187.952
17691.839
17984.454
17722.057
17318.55
17155.973
17114.759
17096.693
17071.487
17060.603
17065.965
17077.52
17073.437
17091.014
17084.829
17103.498
17147.894
17127.523
17190.276
17245.831
17184.104
17230.345
17338.001
17286.438
17219.287
17341.156
17457.78
17400.876
17211.931
17079.871
17019.996
17012.804
17028.139
17030.071
2.9628933e+08
49567878
15845666
7136099.1
3998247
2608744.7
1876711.4
1426128.9
1118415.8
896507.82
731447.51
605922.07
508696.93
432122.71
370871.88
321179.53
280343.74
246396.96
217889.33
193721.95
173045.72
155206.73
139691.1
126085.97
114059.44
103338.18
93696.69
84955.657
76970.27
69626.466
62837.924
56545.778
50718.717
45350.297
40454.084
36057.261
32191.005
28880.869
26138.794
23956.863
22301.119
21102.363
20246.172
19581.625
18990.181
18262.866
17529.198
17372.808
17324.827
17295.414
17321.373
17455.93
17662.487
17760.92
17693.528
17619.545
17695.401
17787.652
17628.497
17225.513
17002.997
16997.299
16910.227
16917.13
17241.348
17380.163
17161.698
17174.834
17675.655
17980.115
17725.694
17320.945
17155.817
17114.553
17097.135
17072.273
17061.321
17065.805
17076.965
17073.435
17090.412
17085.812
17103.126
17146.946
17127.521
17188.304
17245.131
17184.307
17229.78
17337.428
17287.182
17219.37
17338.63
17454.966
17400.52
17212.956
17080.362
17019.807
17012.206
17027.487
17029.602
2.9652203e+08
49606896
15858336
7141718.2
4001158.6
2610422.1
1877786.5
1426883
1118973
896925.68
731754.71
606135.06
508827.22
432181.16
370871.24
321135.75
280269.59
246303.19
217785.02
193615.06
172943.46
155115.68
139617.21
126034.82