/*--------------------------------*- C++ -*----------------------------------*\
| =========                 |                                                 |
| \\      /  F ield         | OpenFOAM: The Open Source CFD Toolbox           |
|  \\    /   O peration     | Version:  2506                                  |
|   \\  /    A nd           | Website:  www.openfoam.com                      |
|    \\/     M anipulation  |                                                 |
\*---------------------------------------------------------------------------*/
FoamFile
{
    version     2.0;
    format      ascii;
    arch        "LSB;label=32;scalar=64";
    class       volScalarField;
    location    "2.25";
    object      nut;
}
// * * * * * * * * * * * * * * * * * * * * * * * * * * * * * * * * * * * * * //

dimensions      [0 2 -1 0 0 0 0];

internalField   nonuniform List<scalar> 
19257
(
0.19816743
0.19664236
0.1956155
0.19487602
0.19430893
0.19386154
0.19349846
0.19319874
0.19294691
0.1927349
0.19255489
0.19239788
0.19226124
0.19214375
0.19203922
0.19194808
0.19186716
0.19179707
0.19173433
0.19168009
0.1916296
0.19158633
0.19155306
0.19153151
0.19151529
0.19150558
0.1915066
0.19153134
0.19158199
0.19165853
0.19176642
0.19195521
0.18340983
0.14698629
0.12207843
0.09823737
0.067888098
0.06568963
0.057703609
0.04449412
0.039528263
0.021511197
0.029849213
0.018764409
0.0099041744
0.0098819281
0.0082359043
0.0059222525
0.00073981239
0.19814049
0.19669235
0.19570517
0.19497508
0.19440904
0.19395982
0.1935936
0.1932895
0.19303323
0.19281612
0.19263169
0.19247076
0.19232978
0.19220806
0.19209993
0.19200419
0.19192084
0.19184782
0.19178145
0.19172433
0.19167215
0.1916255
0.1915897
0.19156573
0.19154774
0.1915347
0.19153047
0.19155234
0.1916039
0.19166549
0.19177107
0.19193867
0.18516035
0.15633226
0.12129531
0.097098374
0.088045428
0.060807055
0.04996394
0.041259446
0.037131024
0.025017975
0.018919768
0.01193618
0.013726069
0.010857857
0.006820188
0.004259977
0.00074582178
0.19824562
0.19684801
0.19585602
0.19511922
0.19454594
0.19408874
0.19371464
0.19340268
0.1931397
0.19291434
0.19272342
0.19255634
0.19240965
0.19228243
0.19216954
0.19206916
0.19198125
0.19190375
0.19183446
0.19177343
0.19171907
0.19166938
0.19162894
0.19160176
0.19158208
0.19156626
0.1915574
0.19157215
0.191617
0.19166693
0.19177596
0.19191508
0.18468233
0.15192886
0.12261326
0.097455529
0.079093199
0.066572459
0.05150215
0.044166822
0.027331834
0.020869189
0.024169065
0.015168553
0.011129005
0.0071326101
0.0087715262
0.004679231
0.00071479973
0.19830449
0.19696488
0.1959913
0.19525789
0.1946816
0.19421848
0.19383792
0.19351913
0.19324929
0.19301633
0.19281863
0.19264533
0.19249312
0.19236021
0.19224264
0.19213754
0.19204458
0.19196288
0.19189
0.19182527
0.19176849
0.19171511
0.19167025
0.19163969
0.19161631
0.19159661
0.19158637
0.19159681
0.19162874
0.19167329
0.19178451
0.19190281
0.19211771
0.15639091
0.12824785
0.10597376
0.079734344
0.06496065
0.054216816
0.039114267
0.043435846
0.025640527
0.019739973
0.015873529
0.010280999
0.0094375494
0.0064274061
0.0033880602
0.000779655
0.19836975
0.19708861
0.19613251
0.19540287
0.19482456
0.19435571
0.19396853
0.19364287
0.19336562
0.19312513
0.19292014
0.19274017
0.19258205
0.19244302
0.19232056
0.19221012
0.1921121
0.19202568
0.19194889
0.19187966
0.19181957
0.19176356
0.19171455
0.19167822
0.19165128
0.19162896
0.19161828
0.19162482
0.19164734
0.19168395
0.19177909
0.19189656
0.19209326
0.16082072
0.12347471
0.097078341
0.086979982
0.067220817
0.052619134
0.043249317
0.029335256
0.024631031
0.017602708
0.017247979
0.012258606
0.0078509472
0.0054371131
0.0037427879
0.0007830923
0.19842866
0.19720538
0.19627301
0.1955499
0.19497135
0.19449765
0.19410431
0.19377183
0.1934872
0.19323955
0.19302681
0.1928401
0.19267572
0.19253032
0.19240209
0.19228633
0.19218327
0.19209172
0.19200994
0.19193641
0.1918732
0.19181484
0.19176123
0.19171989
0.19168912
0.19166478
0.1916516
0.191651
0.19166707
0.19170411
0.19177353
0.19190243
0.19206545
0.15985933
0.13733086
0.10838671
0.079879884
0.067523749
0.055403142
0.041556991
0.033648359
0.02740214
0.017308576
0.012364292
0.010822021
0.007219589
0.0056748044
0.0034357107
0.00079745579
0.1984831
0.19731816
0.1964127
0.19569843
0.19512101
0.19464371
0.1942446
0.19390519
0.19361327
0.19335888
0.19313787
0.19294428
0.19277347
0.19262157
0.19248691
0.192366
0.19225782
0.19216033
0.19207438
0.19199735
0.19192885
0.19186749
0.19181119
0.19176429
0.1917299
0.19170181
0.19168365
0.19167968
0.19169115
0.19172016
0.19177225
0.1919083
0.19204536
0.17082396
0.12771889
0.10482615
0.0882562
0.068586366
0.054691956
0.045459503
0.031609107
0.024881141
0.024088457
0.014319491
0.013819311
0.0079782931
0.0042793361
0.0030794627
0.0008643253
0.19853201
0.19742563
0.19654894
0.19584597
0.19527125
0.1947922
0.19438773
0.194042
0.19374307
0.19348196
0.19325287
0.19305216
0.19287442
0.19271617
0.19257477
0.19244859
0.19233477
0.19223228
0.19214139
0.19205997
0.19198679
0.19192117
0.19186256
0.19181215
0.19177121
0.19173989
0.19171897
0.19171004
0.19171525
0.19173678
0.19178563
0.19190262
0.19202027
0.16763117
0.14012577
0.10893218
0.084823176
0.068209438
0.05415718
0.044522664
0.034094311
0.025952622
0.019538423
0.013292043
0.0098386863
0.0072060577
0.0054122191
0.0032195729
0.00086053282
0.19857716
0.1975277
0.1966803
0.19599058
0.19542101
0.19494077
0.19453188
0.19418053
0.19387485
0.19360728
0.19337082
0.19316264
0.192978
0.19281297
0.19266502
0.19253334
0.19241419
0.19230658
0.19220967
0.19212365
0.19204578
0.19197637
0.1919139
0.19185949
0.19181479
0.19177932
0.19175384
0.19174139
0.19174273
0.19175715
0.1918069
0.19187606
0.19202156
0.17490108
0.13704919
0.11041272
0.089892057
0.072281221
0.056620229
0.042927194
0.036545518
0.02356705
0.022916002
0.015341465
0.0096080896
0.0080862164
0.00438758
0.0027970972
0.00093479168
0.19861722
0.19762353
0.19680538
0.19613115
0.19556705
0.19508695
0.19467537
0.19431851
0.19400687
0.19373296
0.19348967
0.19327389
0.19308239
0.19291089
0.19275703
0.192619
0.19249354
0.19238114
0.19227883
0.19218827
0.19210614
0.19203259
0.1919665
0.191908
0.19185896
0.19182007
0.19179036
0.19177247
0.19176837
0.19177844
0.19182272
0.19185815
0.19203898
0.17816021
0.14329304
0.11262848
0.08977461
0.069272036
0.058188656
0.0447741
0.034577876
0.028034115
0.017069099
0.016516922
0.010273602
0.0071923042
0.0055370556
0.0026809789
0.00088003632
0.19865467
0.19771263
0.19692369
0.19626561
0.19570772
0.19522951
0.19481576
0.19445439
0.19413722
0.193857
0.19360711
0.19338467
0.19318632
0.19300835
0.19284862
0.19270487
0.19257359
0.19245556
0.19234841
0.19225287
0.19216622
0.19208824
0.19201898
0.19195756
0.19190444
0.19186081
0.19182675
0.19180436
0.19179618
0.19180286
0.19183741
0.19185702
0.19205179
0.18234837
0.14469456
0.1159612
0.091530525
0.075138898
0.055577664
0.045950197
0.034710013
0.027084005
0.020553671
0.014143276
0.011441694
0.0066690426
0.0043312458
0.0027757136
0.00091460703
0.19869171
0.19779636
0.19703558
0.19639218
0.19584157
0.19536584
0.19495024
0.19458549
0.19426354
0.19397773
0.19372196
0.19349319
0.1932883
0.19310433
0.1929388
0.19278953
0.19265301
0.19252955
0.19241766
0.19231721
0.19222666
0.19214449
0.19207089
0.19200569
0.19194908
0.19190197
0.19186445
0.19183799
0.19182454
0.19182728
0.19185148
0.19187428
0.19205216
0.18671893
0.14885732
0.1174737
0.092713602
0.074273141
0.059733654
0.045575301
0.035524523
0.027283118
0.01947426
0.013856442
0.011391148
0.0072828651
0.0047169968
0.0026700454
0.00092844681
0.19872872
0.19787429
0.19713822
0.19650911
0.19596644
0.19549322
0.19507674
0.19470902
0.19438241
0.19409132
0.19383072
0.19359653
0.19338598
0.19319621
0.19302503
0.19287055
0.19272928
0.19260076
0.19248452
0.19237929
0.19228461
0.19219873
0.19212162
0.19205306
0.19199301
0.19194213
0.19190082
0.19187063
0.19185323
0.19185261
0.1918656
0.19191216
0.19201525
0.18913884
0.15136272
0.11993382
0.09535686
0.073916774
0.060334825
0.046115536
0.035720763
0.027493856
0.021062316
0.014540201
0.009945533
0.0073836747
0.0041611774
0.0026033215
0.00091484727
0.1987647
0.19794596
0.19723185
0.19661606
0.19608054
0.19560963
0.19519269
0.1948225
0.19449214
0.19419688
0.19393176
0.19369252
0.19347658
0.19328129
0.19310498
0.19294572
0.19280023
0.19266714
0.19254661
0.19243701
0.19233842
0.19224907
0.19216845
0.19209659
0.19203351
0.19197951
0.19193471
0.1919007
0.19187904
0.1918741
0.19188095
0.19193095
0.19198584
0.19218052
0.15369203
0.12170743
0.096166193
0.076716242
0.0595064
0.047545006
0.035877337
0.026582971
0.021022375
0.014954125
0.010012127
0.0073045334
0.0043536432
0.0027675396
0.00094259093
0.19879943
0.19801029
0.19731533
0.19671071
0.19618161
0.19571313
0.19529658
0.19492491
0.19459119
0.1942919
0.1940225
0.1937789
0.19355838
0.19335829
0.19317721
0.19301335
0.1928637
0.19272645
0.19260222
0.19248902
0.19238695
0.1922947
0.19221103
0.19213606
0.19207016
0.19201361
0.19196585
0.19192823
0.19190269
0.19189403
0.19189526
0.19194586
0.1919671
0.19218538
0.15583793
0.12324913
0.097211944
0.07683429
0.060827296
0.047208449
0.036247421
0.027733437
0.019684526
0.015641558
0.010345828
0.0065209812
0.0045308359
0.0024218607
0.00089891504
0.19883254
0.19806648
0.19738623
0.1967908
0.19626719
0.19580145
0.19538573
0.19501196
0.19467603
0.19437368
0.19410087
0.19385359
0.19362924
0.19342516
0.19323992
0.19307208
0.19291871
0.19277779
0.19265001
0.19253356
0.19242832
0.19233363
0.1922477
0.19217014
0.19210146
0.1920424
0.19199212
0.19195155
0.19192277
0.191911
0.19190773
0.19195705
0.19195008
0.19218792
0.15778968
0.12472661
0.098914549
0.077877106
0.061276061
0.047877999
0.036422398
0.027577185
0.020635084
0.014408159
0.010888815
0.0069559323
0.0041478319
0.0025859201
0.0009378005
0.19886152
0.19811271
0.19744308
0.19685476
0.1963354
0.19587204
0.19545643
0.19508199
0.19474418
0.19443928
0.19416372
0.19391369
0.1936865
0.19347953
0.19329115
0.19312015
0.19296376
0.19281994
0.19268944
0.19257045
0.19246239
0.19236527
0.19227724
0.19219749
0.19212654
0.19206547
0.19201326
0.19197029
0.19193869
0.19192371
0.19191647
0.19196347
0.19193498
0.19218791
0.16134313
0.12809822
0.10104008
0.080037654
0.062897383
0.048704732
0.037586367
0.027962506
0.021178784
0.015110224
0.010511331
0.0070872147
0.0043261466
0.0026106427
0.00090271203
0.1988843
0.19814728
0.19748487
0.1969016
0.1963854
0.19592349
0.195508
0.19513337
0.19479424
0.19448711
0.19420944
0.19395751
0.19372816
0.19351899
0.19332843
0.19315521
0.19299658
0.1928506
0.19271809
0.19259734
0.19248721
0.19238834
0.19229892
0.19221773
0.19214513
0.19208238
0.19202859
0.19198391
0.1919506
0.19193381
0.19192462
0.19197016
0.19193087
0.19219288
0.16487174
0.13087405
0.10363542
0.081757883
0.064231771
0.049909377
0.037975539
0.028822263
0.021189909
0.015583637
0.010652525
0.0072030125
0.0044175934
0.0026420023
0.00093933216
0.19889878
0.1981683
0.19751003
0.1969297
0.19641531
0.19595427
0.19553875
0.1951639
0.19482429
0.19451592
0.19423707
0.1939839
0.19375302
0.19354227
0.19335031
0.19317578
0.1930158
0.19286852
0.19273478
0.19261298
0.19250158
0.19240167
0.19231154
0.19222995
0.19215717
0.19209426
0.1920405
0.19199607
0.19196362
0.19194847
0.19194129
0.19198883
0.19195403
0.19221924
0.16147891
0.12830464
0.10166959
0.080309716
0.062871595
0.048655139
0.037213033
0.027942338
0.02077723
0.014941842
0.010501714
0.0068785604
0.0042542739
0.002537317
0.00091265738
0.19890364
0.19817499
0.19751786
0.19693825
0.19642412
0.19596295
0.19554727
0.195172
0.19483203
0.19452355
0.19424415
0.19399047
0.19375911
0.19354808
0.19335597
0.19318134
0.19302123
0.19287383
0.19273984
0.19261778
0.19250599
0.19240578
0.19231557
0.19223422
0.19216191
0.19209933
0.19204604
0.19200226
0.19197098
0.19195745
0.19195188
0.19200174
0.19197567
0.19224182
0.15723526
0.12502576
0.099178528
0.078321793
0.061238789
0.047384309
0.036182953
0.027232073
0.02012753
0.014553732
0.010070836
0.0066548076
0.0040205547
0.0023548172
0.00088972706
0.19889886
0.19816871
0.19751047
0.19693024
0.19641562
0.1959545
0.19553897
0.19516397
0.194824
0.19451578
0.19423664
0.19398309
0.1937519
0.1935413
0.19334969
0.19317534
0.19301537
0.19286815
0.19273436
0.19261251
0.19250089
0.19240079
0.19231059
0.19222921
0.19215664
0.19209325
0.19203876
0.19199343
0.19196049
0.19194542
0.19193848
0.19198565
0.19195038
0.19221639
0.16108927
0.12821542
0.101874
0.080520691
0.062942773
0.048677326
0.037195323
0.027987558
0.020728047
0.015000585
0.010419468
0.0069536512
0.004240596
0.0024765022
0.00090524226
0.19888461
0.198148
0.19748566
0.19690238
0.19638616
0.19592492
0.1955091
0.19513399
0.19479416
0.19448673
0.19420874
0.1939567
0.19372711
0.19351787
0.19332749
0.19315418
0.1929951
0.19284898
0.19271651
0.19259593
0.19248549
0.19238631
0.19229685
0.19221613
0.19214407
0.19208081
0.19202611
0.19198015
0.19194648
0.19193049
0.19192178
0.19196682
0.19192672
0.19219028
0.16342375
0.13042233
0.10400791
0.082331346
0.064325705
0.049783838
0.038049634
0.02877436
0.021205818
0.015380721
0.010869206
0.0071498519
0.0045294702
0.0027561606
0.00094347024
0.19886221
0.19811398
0.19744423
0.19685603
0.19633658
0.19587401
0.19545777
0.19508253
0.19474398
0.19443826
0.19416235
0.19391253
0.19368539
0.19347838
0.19329005
0.19311864
0.1929614
0.19281732
0.19268703
0.19256854
0.19246015
0.19236278
0.19227502
0.19219597
0.19212548
0.19206368
0.19201031
0.19196574
0.19193424
0.19192076
0.19191446
0.19196108
0.19193256
0.19218727
0.15879275
0.12734959
0.10150179
0.080318195
0.063073651
0.048652829
0.037406973
0.027849492
0.021068476
0.015049209
0.010277461
0.0068053604
0.0040955675
0.0025940781
0.00092983229
0.19883364
0.19806857
0.19738782
0.1967922
0.19626821
0.19580325
0.19538718
0.1950121
0.19467527
0.19437181
0.19409895
0.19385243
0.19362818
0.19342405
0.19323875
0.19307013
0.19291555
0.19277437
0.19264706
0.19253137
0.19242568
0.19233063
0.1922452
0.19216847
0.19210024
0.19204064
0.19198914
0.1919467
0.19191836
0.19190833
0.19190597
0.19195504
0.19194833
0.19218804
0.15560438
0.1241118
0.09936043
0.078942511
0.060902215
0.047955973
0.036015498
0.027959142
0.019963588
0.015136906
0.01080633
0.0077301046
0.0044456224
0.0023163008
0.00088510307
0.19880082
0.19801295
0.19731737
0.19671159
0.19618168
0.19571369
0.19529782
0.19492471
0.1945902
0.19428995
0.1940209
0.19377808
0.19355729
0.19335688
0.19317547
0.19301045
0.19285959
0.19272218
0.19259825
0.19248563
0.19238316
0.19229125
0.19220894
0.19213493
0.19206931
0.19201221
0.19196287
0.19192322
0.1918989
0.19189263
0.1918954
0.19194591
0.19196694
0.19184035
0.15261083
0.12347788
0.098577071
0.076713622
0.061936037
0.046022587
0.036852712
0.026895887
0.021004732
0.013944884
0.009891587
0.0060036087
0.0043958651
0.0029067066
0.00094510242
0.19876558
0.19794855
0.19723453
0.19661696
0.19608049
0.19561005
0.19519342
0.19482309
0.19449178
0.19419545
0.19393057
0.19369205
0.1934754
0.19327942
0.19310262
0.19294205
0.19279563
0.19266234
0.19254219
0.19243315
0.19233412
0.19224548
0.19216637
0.19209519
0.19203252
0.19197831
0.19193166
0.19189569
0.19187572
0.19187304
0.19188115
0.19193192
0.19198654
0.18758686
0.15211552
0.12194115
0.096383936
0.078546311
0.058288685
0.048732756
0.034370242
0.027576635
0.019916126
0.015133692
0.011491275
0.0072440629
0.0042632754
0.0023645325
0.00090396266
0.19872847
0.19787763
0.19714244
0.19651166
0.19596839
0.19549483
0.1950783
0.19470945
0.19438165
0.19408993
0.19383011
0.19359655
0.19338467
0.19319406
0.19302239
0.19286662
0.1927249
0.19259634
0.19248047
0.19237523
0.19227992
0.19219506
0.19211939
0.19205153
0.19199231
0.19194099
0.19189695
0.1918648
0.19184952
0.19185102
0.19186651
0.19191173
0.19201685
0.18546004
0.14909628
0.11950209
0.097778844
0.073714201
0.062266057
0.043217909
0.037987172
0.02652237
0.018718545
0.01621138
0.0088982316
0.0077849054
0.0040336593
0.0029031935
0.00095760866
0.19869105
0.19780029
0.19704086
0.19639557
0.19584502
0.19536822
0.19495184
0.19458599
0.19426258
0.19397596
0.19372171
0.19349357
0.19328739
0.19310267
0.19293628
0.19278581
0.19264935
0.19252577
0.19241436
0.19231338
0.1922224
0.19214194
0.19207009
0.19200545
0.19194935
0.19190121
0.19186042
0.19183297
0.19182224
0.19182661
0.19185374
0.19187572
0.19205415
0.18119348
0.14568862
0.12060765
0.092284321
0.076984684
0.055185513
0.050021046
0.031386492
0.026900672
0.023870525
0.01344482
0.010967047
0.0057440585
0.0057507296
0.002466117
0.00089596293
0.19865412
0.19771656
0.19692959
0.19626977
0.19571167
0.19523252
0.194817
0.1944549
0.19413634
0.19385552
0.19360779
0.19338536
0.19318558
0.19300697
0.19284655
0.19270142
0.19256997
0.19245154
0.19234532
0.19224938
0.1921631
0.19208645
0.19201794
0.19195743
0.1919056
0.19186034
0.19182319
0.19180099
0.19179581
0.19180472
0.19184273
0.19186212
0.19205553
0.17575685
0.14688239
0.1138104
0.094112269
0.070416205
0.061335092
0.040179814
0.040786077
0.024339422
0.015750313
0.013584153
0.010738818
0.0080776116
0.0039132669
0.0028678512
0.00093849128
0.19861712
0.19762743
0.19681101
0.19613672
0.19557123
0.19509023
0.1946769
0.19431857
0.19400594
0.19373123
0.19349012
0.19327415
0.19308134
0.19290909
0.19275465
0.19261518
0.19248955
0.19237672
0.19227554
0.1921837
0.1921016
0.19202965
0.19196576
0.19190874
0.19185972
0.19181831
0.19178611
0.19176929
0.19176813
0.19178027
0.19182824
0.19186442
0.19204543
0.17665974
0.14044085
0.11297512
0.09017329
0.073599611
0.053844163
0.050503592
0.028855122
0.021961351
0.025631245
0.018144699
0.008979801
0.0069340624
0.0060016228
0.0029143582
0.00085901793
0.19857639
0.19753077
0.19668429
0.19599615
0.19542515
0.19494341
0.19453337
0.19417986
0.19387307
0.19360582
0.19337133
0.19316206
0.19297598
0.19281042
0.19266225
0.19252879
0.19240869
0.19230169
0.19220557
0.19211846
0.19204142
0.19197322
0.19191233
0.19185971
0.19181569
0.19177707
0.19174857
0.19173751
0.19174233
0.19176042
0.19181284
0.19188262
0.19202968
0.17129135
0.13468248
0.11437948
0.088211069
0.070082028
0.058074152
0.037085942
0.041740145
0.028012457
0.015957108
0.011905814
0.010091106
0.0074461615
0.0042424124
0.002729665
0.00092321649
0.19853125
0.19742831
0.19655225
0.19585123
0.19527555
0.19479479
0.19438866
0.19404061
0.1937405
0.1934811
0.1932531
0.19305074
0.19287176
0.19271292
0.192571
0.19244392
0.19232968
0.19222744
0.19213622
0.19205444
0.19198177
0.19191748
0.19186132
0.19181222
0.19177048
0.19173647
0.19171346
0.19170728
0.19171614
0.19174023
0.19179194
0.19190929
0.19203354
0.16533245
0.13879869
0.10869748
0.086495334
0.071496073
0.05111013
0.050766152
0.028624226
0.018087648
0.01719553
0.014743496
0.011223454
0.0069276533
0.006130465
0.0032633446
0.00088653373
0.19848384
0.19732096
0.19641683
0.19570428
0.19512533
0.19464677
0.19424494
0.19390299
0.19361007
0.19335843
0.1931371
0.1929418
0.19277047
0.19261831
0.19248223
0.19236105
0.19225301
0.19215578
0.19206957
0.19199227
0.19192314
0.19186423
0.19181258
0.19176696
0.19172703
0.19169567
0.19167908
0.19167898
0.1916925
0.19172415
0.19177978
0.1919154
0.19205758
0.1635456
0.13261946
0.10517813
0.090630305
0.065061621
0.05904646
0.037848987
0.029772111
0.035411637
0.015165652
0.014157477
0.010562404
0.0079882193
0.0042767168
0.0030319792
0.00082572674
0.19843259
0.19720741
0.19627789
0.19555646
0.19497617
0.19450106
0.194104
0.1937688
0.19348407
0.19323923
0.19302441
0.19283671
0.19267237
0.19252676
0.19239695
0.19228131
0.19217873
0.19208724
0.19200591
0.19193229
0.19186761
0.19181295
0.19176467
0.19172202
0.19168634
0.19165928
0.19164569
0.19164973
0.19166947
0.19170644
0.19178173
0.19190946
0.19208677
0.15936442
0.12985304
0.11177823
0.079834507
0.069472931
0.053762827
0.036659973
0.034384942
0.023788108
0.013236354
0.012677116
0.010482103
0.007961744
0.0057635379
0.0030745054
0.00084149967
0.19837462
0.19709159
0.19613921
0.19540996
0.19482987
0.19435887
0.19396738
0.19363969
0.193363
0.19312513
0.19291703
0.19273623
0.19257902
0.19243951
0.19231559
0.19220559
0.19210819
0.19202137
0.19194457
0.19187518
0.19181493
0.19176428
0.19171756
0.19167858
0.19164716
0.19162324
0.19161635
0.1916245
0.19164781
0.19168658
0.1917907
0.19191016
0.19140718
0.15653622
0.13357428
0.099189417
0.083201084
0.069492532
0.049458463
0.052394252
0.029283933
0.017968028
0.018621373
0.016790397
0.010827026
0.0077637787
0.0056475746
0.0038258867
0.00076250612
0.198312
0.196971
0.19600023
0.19526579
0.19468741
0.19422115
0.19383647
0.19351634
0.1932471
0.19301662
0.19281548
0.19264154
0.19249089
0.19235716
0.19223872
0.19213434
0.19204125
0.19195942
0.19188637
0.19182135
0.1917645
0.19171705
0.19167449
0.19163727
0.19160807
0.19158995
0.19159019
0.19160109
0.19162666
0.1916743
0.19179391
0.19191955
0.18972363
0.15870047
0.12410877
0.10342275
0.087683966
0.066138011
0.051444757
0.037563797
0.021934762
0.026456947
0.019347405
0.016903465
0.012672789
0.0092736604
0.0061712365
0.0032932681
0.00078133097
0.19825496
0.19685803
0.19586686
0.1951282
0.19455235
0.19409107
0.19371292
0.19340036
0.19313819
0.19291423
0.19272013
0.19255305
0.19240821
0.19227949
0.19216574
0.19206693
0.19197828
0.19190049
0.19183131
0.19177059
0.19171773
0.19167215
0.19163474
0.19159955
0.19156994
0.1915575
0.1915674
0.19158193
0.19160501
0.19166653
0.19178608
0.19194046
0.1837743
0.15255931
0.12675353
0.10179329
0.078307833
0.060513209
0.054993666
0.036134248
0.042146953
0.029115025
0.013929023
0.012470067
0.01082575
0.007601647
0.0081666619
0.0049507591
0.00073384376
0.19814573
0.19670238
0.19571616
0.1949842
0.19441547
0.19396162
0.19359158
0.19328713
0.1930325
0.19281548
0.19262828
0.19246805
0.19232848
0.19220558
0.19209666
0.19200271
0.19191831
0.19184448
0.19177912
0.19172126
0.19167152
0.19162944
0.19159557
0.19156346
0.19153693
0.19152841
0.19154109
0.19156236
0.19158417
0.19166605
0.19179062
0.19195947
0.18899969
0.14960639
0.11875702
0.097229587
0.083950971
0.063811701
0.058983774
0.038615321
0.037093533
0.018443224
0.017710537
0.015741293
0.011655079
0.0085708271
0.0068816097
0.0042676858
0.00073197628
0.19817033
0.19665268
0.19562699
0.1948856
0.19431518
0.19386286
0.19349693
0.19319687
0.19294656
0.19273397
0.1925513
0.19239586
0.19226078
0.1921411
0.19203734
0.19194686
0.19186602
0.19179554
0.19173297
0.19167754
0.19163042
0.1915907
0.19155908
0.19152882
0.19150617
0.19150379
0.19151489
0.1915391
0.19156931
0.19166412
0.19178897
0.19196484
0.18485369
0.15180788
0.11948331
0.10230726
0.077978054
0.07078838
0.042654872
0.036301709
0.024474743
0.029057772
0.020777231
0.019109144
0.019406295
0.010222477
0.0095807748
0.0060654171
0.00073220784
0.0030204857
0.011107073
0.02070146
0.025928222
0.057580677
0.054294373
0.059121482
0.076135809
0.08806971
0.094774645
0.10320013
0.11836377
0.12563024
0.14348384
0.19000736
0.19265883
0.19427915
0.19455638
0.19408999
0.19332771
0.19258439
0.19197188
0.19148774
0.19110999
0.19083204
0.19064443
0.19051161
0.19041528
0.1903461
0.19031095
0.19027632
0.19025636
0.19023966
0.19023045
0.1902224
0.19022208
0.1902308
0.19024608
0.19026983
0.19030495
0.19035544
0.19042558
0.19052192
0.19065351
0.19083607
0.19109011
0.19145133
0.19198979
0.19254404
0.0027152493
0.015119643
0.024601682
0.044208506
0.051003576
0.076560619
0.089951469
0.095814702
0.10684065
0.12285443
0.13721766
0.17176292
0.18143931
0.18707537
0.18998855
0.19318979
0.19439
0.19447427
0.19398178
0.19318566
0.19248802
0.19192473
0.19146291
0.19111732
0.19085585
0.19066664
0.19053722
0.19044621
0.19037862
0.190347
0.19031281
0.19029654
0.19028061
0.1902709
0.19026174
0.19026172
0.19027085
0.19028695
0.19031137
0.19034666
0.19039765
0.19046821
0.19056528
0.19069757
0.19088115
0.19113625
0.19149886
0.19203858
0.19261682
0.002618988
0.015075535
0.026213176
0.041894637
0.066047117
0.055642535
0.060657776
0.075969459
0.079640954
0.090654264
0.088975404
0.11145913
0.12660018
0.15200087
0.19088684
0.19331491
0.19436988
0.19442784
0.19384361
0.19315061
0.19249357
0.19191729
0.19146821
0.19114125
0.19088968
0.19069515
0.19056606
0.19047937
0.19041299
0.19038395
0.19034981
0.19033475
0.19031945
0.19031063
0.19030049
0.19030038
0.19030959
0.19032641
0.19035175
0.1903873
0.19043888
0.19051002
0.19060789
0.19074097
0.19092569
0.19118195
0.19154603
0.19208738
0.19267306
0.0024999892
0.014926917
0.026269803
0.045803365
0.049758089
0.082713081
0.088639993
0.1052485
0.12010685
0.1312447
0.15924445
0.15633062
0.15567829
0.17164484
0.1549405
0.19343719
0.19437779
0.19436557
0.19384112
0.19312848
0.19246432
0.19190833
0.19148104
0.19116093
0.19091011
0.19071922
0.1905943
0.19051086
0.19044701
0.19042062
0.19038682
0.19037031
0.1903557
0.19034939
0.1903389
0.19033863
0.19034786
0.19036525
0.19039178
0.19042776
0.19048013
0.19055206
0.19065092
0.19078505
0.1909711
0.19122885
0.19159472
0.19213807
0.19273759
0.0024131112
0.01503099
0.027807688
0.047484278
0.068399399
0.082394906
0.069938882
0.087009545
0.077163695
0.099240639
0.10230687
0.10383319
0.11775169
0.15774167
0.19081763
0.19331405
0.19435255
0.19429049
0.19378964
0.19312301
0.19243782
0.19189099
0.19149414
0.19116948
0.19092025
0.1907402
0.19062172
0.19054059
0.19048129
0.19045639
0.19042321
0.19040301
0.19038942
0.19038672
0.19037697
0.1903766
0.19038591
0.19040375
0.19043158
0.19046819
0.19052154
0.19059445
0.19069446
0.19082985
0.19101736
0.19127688
0.1916448
0.19219047
0.19280311
0.0023276285
0.014927649
0.027987099
0.047537725
0.061338289
0.088370684
0.082743133
0.1013568
0.098076946
0.11407015
0.13158123
0.17222056
0.17895558
0.16406488
0.14444513
0.18667794
0.19421918
0.19422518
0.19374977
0.19310243
0.19240872
0.19187612
0.19149192
0.19116777
0.19092915
0.1907589
0.19064725
0.19056778
0.19051441
0.19048962
0.19045798
0.19043412
0.19042159
0.19042229
0.19041472
0.19041442
0.19042395
0.19044221
0.1904713
0.19050878
0.19056328
0.19063738
0.19073868
0.19087553
0.19106469
0.19132622
0.19169643
0.19224479
0.19287163
0.0022221011
0.015159302
0.029778353
0.049026696
0.07039431
0.091334576
0.082343389
0.10047367
0.084933292
0.099698976
0.08950549
0.10075723
0.1181601
0.16919128
0.1686651
0.19297266
0.1941364
0.19418201
0.1936904
0.19304184
0.19238235
0.1918645
0.19147384
0.1911579
0.190943
0.19077517
0.19066945
0.19059137
0.19054455
0.19051929
0.19049061
0.19046509
0.19045315
0.19045638
0.19045202
0.19045222
0.1904621
0.19048088
0.19051106
0.19054968
0.19060548
0.190681
0.19078371
0.19092223
0.19111322
0.19137698
0.19174975
0.1923012
0.19294281
0.0021327601
0.015136946
0.030872495
0.049381715
0.060167309
0.092586745
0.077937036
0.10747863
0.099537055
0.12027448
0.10041399
0.12771852
0.13478256
0.15682019
0.15316964
0.18816513
0.19400169
0.19412821
0.19361093
0.19294497
0.19235993
0.19187627
0.19145461
0.1911475
0.19095732
0.19079164
0.19069
0.19061277
0.19057201
0.190546
0.19052092
0.19049704
0.19048529
0.19048942
0.19048872
0.19049013
0.19050049
0.19051991
0.19055102
0.190591
0.19064827
0.19072536
0.19082971
0.19097004
0.19116311
0.19142931
0.19180496
0.1923598
0.19301688
0.0020566999
0.015491667
0.033607632
0.051479795
0.061890746
0.09375908
0.070369086
0.10770111
0.084180455
0.12337266
0.10926642
0.11059302
0.09639775
0.14804152
0.19069608
0.19280209
0.1938938
0.19405557
0.19356357
0.19286676
0.19232715
0.19188403
0.19145152
0.19115364
0.19096365
0.19081096
0.19071175
0.19063528
0.1905981
0.19057136
0.19055025
0.19053018
0.19051863
0.19052176
0.19052467
0.19052804
0.19053909
0.19055932
0.19059125
0.19063276
0.19069163
0.19077049
0.19087669
0.19101902
0.19121441
0.19148327
0.19186213
0.19242069
0.19309401
0.0019986515
0.015296033
0.032838367
0.053013456
0.054709086
0.09425995
0.074165422
0.10016997
0.079997161
0.11733428
0.11167282
0.16531288
0.12681437
0.13101302
0.15247263
0.19277734
0.19379668
0.19394356
0.19350101
0.19283965
0.19228465
0.1918711
0.19145691
0.19117891
0.19096409
0.19083224
0.1907352
0.19066134
0.19062541
0.19059725
0.19058007
0.19056405
0.19055285
0.19055411
0.1905598
0.1905659
0.19057802
0.1905992
0.19063192
0.1906751
0.19073565
0.1908164
0.19092472
0.19106928
0.19126721
0.19153898
0.19192133
0.19248401
0.19317387
0.0019415093
0.015613438
0.036008447
0.055605214
0.070329092
0.094881974
0.074622037
0.11323275
0.087440385
0.092146701
0.079430575
0.1433564
0.12434359
0.15560482
0.12856158
0.17066832
0.19373824
0.19378635
0.19340096
0.19282311
0.1922627
0.19184935
0.19145165
0.19119704
0.19097178
0.19085443
0.19076033
0.19069156
0.19065631
0.19062538
0.19061167
0.19059836
0.19058758
0.19058723
0.19059456
0.19060381
0.19061743
0.19063978
0.19067329
0.19071825
0.19078055
0.19086333
0.190974
0.19112103
0.19132172
0.19159666
0.19198278
0.19254999
0.19325727
0.0018887037
0.013738007
0.036330298
0.051561904
0.062772912
0.094363196
0.06825217
0.12160386
0.10392079
0.10949117
0.076356703
0.10506994
0.12217692
0.18733077
0.1344254
0.12858474
0.17950812
0.19368758
0.19324753
0.19275876
0.19223136
0.19182866
0.19144587
0.19118917
0.19098867
0.19087574
0.19078667
0.19072358
0.19068985
0.1906564
0.19064436
0.19063246
0.1906226
0.19062133
0.19062942
0.19064171
0.19065729
0.19068107
0.19071551
0.19076231
0.19082648
0.19091146
0.1910246
0.19117436
0.19137804
0.19165639
0.19204658
0.19261877
0.19334402
0.0018170896
0.011157194
0.037764724
0.039698045
0.045638679
0.084236916
0.055064667
0.081636274
0.069816828
0.13529672
0.10583028
0.099342719
0.091889366
0.13591614
0.16808835
0.15365922
0.14916201
0.16566317
0.19315233
0.19267695
0.1921732
0.19176641
0.19144378
0.19118203
0.19100784
0.19089226
0.19081229
0.19075443
0.19072207
0.19068927
0.1906763
0.19066556
0.19065835
0.19065642
0.19066472
0.19067962
0.19069744
0.19072296
0.19075861
0.19080728
0.19087344
0.19096081
0.19107652
0.19122925
0.19143621
0.19171827
0.19211278
0.19269049
0.19343437
0.00186093
0.014833011
0.022977339
0.031182702
0.078054616
0.091188004
0.068337683
0.071328367
0.058606313
0.090756217
0.1333774
0.14179506
0.10534284
0.10927815
0.12590063
0.19263688
0.16454829
0.18154948
0.17873829
0.19267512
0.19215534
0.19166238
0.19142216
0.19119166
0.19103045
0.190905
0.19083499
0.19078246
0.19075022
0.1907221
0.19070664
0.19069738
0.19069534
0.19069259
0.1907007
0.1907178
0.19073786
0.19076542
0.19080271
0.19085326
0.19092154
0.19101141
0.19112984
0.19128579
0.19149634
0.1917824
0.19218153