/*--------------------------------*- C++ -*----------------------------------*\
| =========                 |                                                 |
| \\      /  F ield         | OpenFOAM: The Open Source CFD Toolbox           |
|  \\    /   O peration     | Version:  2506                                  |
|   \\  /    A nd           | Website:  www.openfoam.com                      |
|    \\/     M anipulation  |                                                 |
\*---------------------------------------------------------------------------*/
FoamFile
{
    version     2.0;
    format      ascii;
    arch        "LSB;label=32;scalar=64";
    class       volScalarField;
    location    "0.026";
    object      nut;
}
// * * * * * * * * * * * * * * * * * * * * * * * * * * * * * * * * * * * * * //

dimensions      [0 2 -1 0 0 0 0];

internalField   nonuniform List<scalar> 
13761
(
8.9866205e-11
1.0879674e-10
1.1706327e-09
1.1079748e-08
6.174981e-08
2.4434091e-07
7.6345518e-07
2.0018496e-06
4.5522074e-06
9.1596512e-06
1.6459486e-05
2.6697872e-05
3.9549019e-05
5.440391e-05
7.0595499e-05
8.7785404e-05
0.00010568938
0.00012421253
0.00014336442
0.00016331664
0.00018422004
0.00020618447
0.00022918611
0.00025318032
0.00027789346
0.00030311171
0.00032887924
0.00035555204
0.00038364592
0.00041332182
0.00044384204
0.00047403815
0.00050316928
0.00053077495
0.00055678718
0.00058076737
0.00060153744
0.00061861618
0.00062870308
0.00062942578
0.00061919375
0.00059599724
0.00055942977
0.00051079894
0.00044522468
0.00035879135
0.00025335785
0.00014448179
6.048311e-05
2.0393229e-05
9.8710499e-06
7.6945405e-06
6.3111061e-06
5.1901338e-06
4.6417838e-06
4.4983573e-06
4.4776607e-06
4.4865369e-06
4.4890631e-06
4.4486989e-06
4.3801649e-06
4.3296149e-06
4.2487949e-06
4.1188552e-06
4.0509289e-06
4.075981e-06
4.0972896e-06
4.0690377e-06
4.0731317e-06
4.2376136e-06
4.6499808e-06
4.9016476e-06
4.8815857e-06
4.7267788e-06
4.4631652e-06
4.2122334e-06
4.0521379e-06
4.0128974e-06
4.0238266e-06
4.0480891e-06
4.0476673e-06
4.0522184e-06
4.0756565e-06
4.0841414e-06
4.0696844e-06
4.04316e-06
4.0316112e-06
4.0720491e-06
4.1632572e-06
4.2646078e-06
4.2729509e-06
4.2293631e-06
4.1179549e-06
3.9869703e-06
3.9066959e-06
3.8754847e-06
3.8592141e-06
3.8572331e-06
3.8639765e-06
3.8505835e-06
3.8238503e-06
3.812363e-06
3.7856251e-06
3.7693126e-06
3.7929605e-06
3.7942173e-06
3.7333637e-06
3.6625911e-06
3.6520253e-06
3.686016e-06
3.7388198e-06
3.7966995e-06
3.8407226e-06
3.8550706e-06
3.8604579e-06
3.8760804e-06
3.8829174e-06
3.8742196e-06
3.8640764e-06
3.860003e-06
3.8603275e-06
3.8617964e-06
3.8636081e-06
3.8644879e-06
3.865004e-06
3.8661292e-06
3.867038e-06
3.8670358e-06
3.8667979e-06
3.8666754e-06
3.866647e-06
3.8667254e-06
3.8666949e-06
3.8666409e-06
3.8666623e-06
3.8667248e-06
3.866699e-06
3.8667558e-06
1.3751342e-10
1.2255162e-10
2.8333918e-10
1.8254511e-09
9.8190851e-09
3.9537363e-08
1.2792044e-07
3.5109412e-07
8.466922e-07
1.8363365e-06
3.6390694e-06
6.6657269e-06
1.1369756e-05
1.8222712e-05
2.7450342e-05
3.899243e-05
5.2596129e-05
6.7958679e-05
8.482302e-05
0.00010301893
0.00012244922
0.00014304937
0.0001647338
0.00018741771
0.00021085419
0.00023470997
0.00025912622
0.00028450309
0.00031134838
0.00033991467
0.00037016224
0.00040186604
0.00043461372
0.00046777715
0.00050049749
0.00053155978
0.00055930015
0.00058224835
0.0005985374
0.00060451697
0.00059821661
0.00057692927
0.00054008724
0.00048828643
0.00041460634
0.00031783206
0.00020520906
0.00010110868
3.5470913e-05
1.2369153e-05
8.1328264e-06
6.9239112e-06
5.6678544e-06
4.8418767e-06
4.5378514e-06
4.461939e-06
4.4725379e-06
4.4915597e-06
4.481393e-06
4.4269594e-06
4.3575875e-06
4.3099308e-06
4.2319898e-06
4.1048e-06
4.0510965e-06
4.0818553e-06
4.0978448e-06
4.0662544e-06
4.0855682e-06
4.2849518e-06
4.7078093e-06
4.9151866e-06
4.8763568e-06
4.7044031e-06
4.4370766e-06
4.1951834e-06
4.0474563e-06
4.015239e-06
4.0285849e-06
4.0509098e-06
4.0493731e-06
4.0550107e-06
4.0791764e-06
4.0860866e-06
4.070699e-06
4.046624e-06
4.0370601e-06
4.0779639e-06
4.1679057e-06
4.2663749e-06
4.2725042e-06
4.2268445e-06
4.1142658e-06
3.9842603e-06
3.9053533e-06
3.8748898e-06
3.8592454e-06
3.8574992e-06
3.8635876e-06
3.8497115e-06
3.8230759e-06
3.8114191e-06
3.784638e-06
3.7692392e-06
3.7930248e-06
3.7931229e-06
3.7316844e-06
3.6611228e-06
3.6513236e-06
3.6859222e-06
3.739039e-06
3.7969628e-06
3.8408549e-06
3.8551695e-06
3.8605678e-06
3.876229e-06
3.8829569e-06
3.8741995e-06
3.8640599e-06
3.859964e-06
3.860338e-06
3.8617641e-06
3.8636016e-06
3.8644629e-06
3.86499e-06
3.8661225e-06
3.8670411e-06
3.8670364e-06
3.8668113e-06
3.8666856e-06
3.8666507e-06
3.8667121e-06
3.8666454e-06
3.866634e-06
3.8666979e-06
3.8667035e-06
3.866677e-06
3.8668419e-06
1.2101311e-10
1.0565226e-10
2.1213861e-10
1.266812e-09
6.7097667e-09
2.6655099e-08
8.455587e-08
2.2607062e-07
5.3021623e-07
1.1256767e-06
2.2182997e-06
4.1354944e-06
7.3733428e-06
1.2592443e-05
2.0445753e-05
3.1231935e-05
4.4766472e-05
6.0557836e-05
7.8041782e-05
9.6763809e-05
0.00011642272
0.0001368356
0.00015788866
0.00017949929
0.00020179743
0.00022496606
0.00024916787
0.00027458759
0.0003014255
0.0003298217
0.00035981354
0.00039129896
0.00042397504
0.00045727831
0.00049033376
0.00052185911
0.00055008964
0.00057400958
0.00058980585
0.00059523991
0.00058750185
0.00056421193
0.00052568934
0.00047239121
0.00039981061
0.00030568915
0.00019446229
9.1064882e-05
2.9877171e-05
1.1068952e-05
7.8767497e-06
6.6276083e-06
5.4239873e-06
4.7280588e-06
4.4878366e-06
4.4537259e-06
4.4791789e-06
4.486635e-06
4.4677977e-06
4.4062052e-06
4.3412815e-06
4.3025098e-06
4.2291194e-06
4.1064057e-06
4.0602674e-06
4.0788526e-06
4.0855753e-06
4.0607914e-06
4.091021e-06
4.3084588e-06
4.7373258e-06
4.9223709e-06
4.8759955e-06
4.6958512e-06
4.4276295e-06
4.1906315e-06
4.0476407e-06
4.0184064e-06
4.0321198e-06
4.0534387e-06
4.0513842e-06
4.0574574e-06
4.0822031e-06
4.0884393e-06
4.0743684e-06
4.0523232e-06
4.0424799e-06
4.0815508e-06
4.1696345e-06
4.2669461e-06
4.2724218e-06
4.2259976e-06
4.1131923e-06
3.983755e-06
3.9050379e-06
3.8747418e-06
3.8595261e-06
3.8577114e-06
3.863188e-06
3.8491421e-06
3.8225359e-06
3.8107776e-06
3.7839953e-06
3.7690627e-06
3.7927475e-06
3.7922801e-06
3.7305052e-06
3.659898e-06
3.6504311e-06
3.6851097e-06
3.7384858e-06
3.7967203e-06
3.840834e-06
3.8551635e-06
3.8606411e-06
3.876322e-06
3.8829665e-06
3.8742697e-06
3.8640933e-06
3.8599226e-06
3.8602805e-06
3.861711e-06
3.8635921e-06
3.8644534e-06
3.8649884e-06
3.8661227e-06
3.8670643e-06
3.8670567e-06
3.8668214e-06
3.8666926e-06
3.866648e-06
3.8666734e-06
3.8665916e-06
3.8666485e-06
3.8667372e-06
3.8666675e-06
3.8666599e-06
3.8669532e-06
1.2019397e-10
1.036272e-10
1.8141116e-10
9.8433595e-10
5.1611605e-09
2.0557287e-08
6.5435179e-08
1.7516187e-07
4.099616e-07
8.6537619e-07
1.690378e-06
3.1183723e-06
5.5117117e-06
9.4033323e-06
1.5456183e-05
2.4231013e-05
3.5859114e-05
4.9961632e-05
6.591091e-05
8.31561e-05
0.00010135982
0.00012038013
0.00014022079
0.00016094784
0.00018266786
0.0002055017
0.00022956688
0.00025497189
0.00028181157
0.00031014479
0.00033997284
0.00037120375
0.00040359604
0.00043669797
0.00046982711
0.0005018622
0.00053106642
0.00055597677
0.00057299685
0.00057963569
0.00057324998
0.00055191053
0.00051556686
0.00046393768
0.00039279229
0.00029899342
0.00018642514
8.4165311e-05
2.6395558e-05
1.011865e-05
7.478373e-06
6.3132572e-06
5.2566682e-06
4.6709479e-06
4.4776361e-06
4.454661e-06
4.4673192e-06
4.4614591e-06
4.4418719e-06
4.3857273e-06
4.321762e-06
4.285189e-06
4.2142996e-06
4.0955255e-06
4.059791e-06
4.0788571e-06
4.0800447e-06
4.0547264e-06
4.0958293e-06
4.3351117e-06
4.7691592e-06
4.9292414e-06
4.873737e-06
4.6852794e-06
4.4166227e-06
4.1853638e-06
4.0484302e-06
4.021759e-06
4.036112e-06
4.0564385e-06
4.0538732e-06
4.0603403e-06
4.085446e-06
4.0910257e-06
4.0795141e-06
4.0585689e-06
4.0480935e-06
4.0852415e-06
4.1715101e-06
4.2675246e-06
4.2721604e-06
4.2248448e-06
4.1118369e-06
3.9829547e-06
3.9045292e-06
3.8745208e-06
3.8597705e-06
3.8578932e-06
3.8627279e-06
3.8483904e-06
3.8218647e-06
3.8099926e-06
3.78322e-06
3.7689055e-06
3.7925856e-06
3.7913038e-06
3.7290631e-06
3.6584912e-06
3.6495328e-06
3.6845578e-06
3.7382008e-06
3.7966018e-06
3.8408143e-06
3.8551876e-06
3.8607155e-06
3.8764276e-06
3.8830001e-06
3.874317e-06
3.8641034e-06
3.8598746e-06
3.860213e-06
3.8616773e-06
3.8635836e-06
3.8644403e-06
3.864989e-06
3.8661287e-06
3.8670776e-06
3.8670677e-06
3.8668313e-06
3.8667011e-06
3.8666245e-06
3.8666078e-06
3.8665547e-06
3.8666794e-06
3.8667738e-06
3.8666323e-06
3.8666652e-06
1.2493324e-10
1.084965e-10
2.0854593e-10
1.2092925e-09
6.4007807e-09
2.5490675e-08
8.0797413e-08
2.1435245e-07
4.9435055e-07
1.0218905e-06
1.9434394e-06
3.475128e-06
5.9427676e-06
9.83216e-06
1.578755e-05
2.4431385e-05
3.6017159e-05
5.0237108e-05
6.643013e-05
8.3958785e-05
0.0001024241
0.00012165789
0.00014164793
0.00016246506
0.00018421177
0.00020700377
0.0002309558
0.00025615818
0.00028265353
0.00031057936
0.00033997251
0.00037075318
0.0004026735
0.00043524034
0.0004676188
0.00049855846
0.00052673065
0.0005499806
0.0005657401
0.00057160189
0.00056482767
0.00054297553
0.00050632471
0.00045411236
0.00038261834
0.00028815093
0.00017427238
7.4135011e-05
2.2592146e-05
9.436481e-06
7.1907848e-06
6.0651692e-06
5.1431807e-06
4.6819244e-06
4.5049316e-06
4.4396692e-06
4.4197039e-06
4.4246238e-06
4.4193991e-06
4.3649475e-06
4.3015147e-06
4.2717218e-06
4.2066479e-06
4.0925385e-06
4.073517e-06
4.0904393e-06
4.0725558e-06
4.0470546e-06
4.0998185e-06
4.3610007e-06
4.7977309e-06
4.9346158e-06
4.8712273e-06
4.675028e-06
4.4061171e-06
4.1805493e-06
4.0493899e-06
4.0250083e-06
4.0400568e-06
4.0598276e-06
4.0567124e-06
4.0634046e-06
4.0885995e-06
4.0939129e-06
4.0861237e-06
4.0655845e-06
4.0533426e-06
4.0883261e-06
4.1730812e-06
4.2679603e-06
4.2718588e-06
4.2236931e-06
4.1105607e-06
3.9821945e-06
3.9040195e-06
3.8743062e-06
3.8600556e-06
3.8580429e-06
3.8622053e-06
3.847566e-06
3.8211665e-06
3.8091834e-06
3.7824361e-06
3.7687492e-06
3.7923817e-06
3.7902747e-06
3.7275429e-06
3.6570244e-06
3.6486081e-06
3.6839554e-06
3.7378668e-06
3.7964478e-06
3.8407937e-06
3.8551956e-06
3.8607864e-06
3.8765307e-06
3.8830299e-06
3.8743583e-06
3.8640995e-06
3.8598228e-06
3.8601545e-06
3.8616559e-06
3.8635743e-06
3.8644269e-06
3.8649886e-06
3.8661436e-06
3.8670906e-06
3.8670757e-06
3.8668392e-06
3.8667064e-06
3.8665782e-06
3.8665415e-06
3.8665472e-06
3.8667192e-06
3.8667887e-06
3.866611e-06
3.8667523e-06
1.3108183e-10
1.1423664e-10
2.3150891e-10
1.3907444e-09
7.4057856e-09
2.9505952e-08
9.3232108e-08
2.4558671e-07
5.6019355e-07
1.1415813e-06
2.134181e-06
3.7412184e-06
6.2587097e-06
1.0125011e-05
1.5939409e-05
2.4330615e-05
3.5639269e-05
4.9660496e-05
6.5759105e-05
8.3238922e-05
0.00010161909
0.00012066967
0.00014034801
0.00016071527
0.00018187538
0.00020395246
0.00022708129
0.00025140054
0.00027704766
0.00030412961
0.00033269255
0.0003626788
0.00039388443
0.00042579377
0.0004574969
0.00048776835
0.00051548526
0.00053866434
0.0005550107
0.00056211723
0.00055742546
0.00053848997
0.00050412098
0.00045411662
0.00038527237
0.00029471186
0.00018200765
7.7398699e-05
2.3232441e-05
9.5314043e-06
6.9666136e-06
5.8796996e-06
5.0984299e-06
4.7114857e-06
4.5843899e-06
4.5084222e-06
4.4420028e-06
4.4159168e-06
4.4006894e-06
4.3428918e-06
4.2821275e-06
4.2561136e-06
4.1910545e-06
4.0821592e-06
4.0829626e-06
4.1059641e-06
4.0800067e-06
4.042023e-06
4.103359e-06
4.3854525e-06
4.8232625e-06
4.9392606e-06
4.8685526e-06
4.6655293e-06
4.3965271e-06
4.1761476e-06
4.0501238e-06
4.0282067e-06
4.0440709e-06
4.0637895e-06
4.059919e-06
4.0665841e-06
4.0918578e-06
4.0983908e-06
4.0939224e-06
4.0726579e-06
4.0579177e-06
4.0907461e-06
4.1743685e-06
4.2682577e-06
4.2714265e-06
4.2224598e-06
4.1093235e-06
3.9814381e-06
3.9034797e-06
3.8740864e-06
3.8603535e-06
3.8581747e-06
3.8616105e-06
3.8466434e-06
3.8204341e-06
3.8083276e-06
3.7816237e-06
3.7686015e-06
3.7921615e-06
3.7891743e-06
3.7259065e-06
3.6554821e-06
3.6476788e-06
3.6833693e-06
3.7375447e-06
3.7962947e-06
3.8407741e-06
3.8551939e-06
3.8608639e-06
3.8766329e-06
3.8830583e-06
3.8744056e-06
3.8640736e-06
3.8597558e-06
3.8600947e-06
3.8616396e-06
3.8635552e-06
3.8644199e-06
3.8649906e-06
3.8661635e-06
3.8671018e-06
3.867083e-06
3.8668466e-06
3.8667045e-06
3.8665153e-06
3.86649e-06
3.8665693e-06
3.8667624e-06
3.8667723e-06
3.8665965e-06
3.8668644e-06
1.3451242e-10
1.1805495e-10
2.5565299e-10
1.5911604e-09
8.5135774e-09
3.39257e-08
1.0692794e-07
2.8003368e-07
6.3273456e-07
1.2724246e-06
2.3390923e-06
4.0201162e-06
6.5818524e-06
1.0421507e-05
1.6097587e-05
2.4228732e-05
3.5210314e-05
4.8941882e-05
6.4859584e-05
8.2263458e-05
0.00010061754
0.00011963563
0.00013923645
0.00015946334
0.00018041116
0.0002021962
0.00022494462
0.00024880368
0.00027394775
0.00030043014
0.00032828079
0.00035743476
0.00038761088
0.00041840813
0.00044916559
0.00047883694
0.00050634722
0.00052978192
0.00054682294
0.00055505809
0.00055196163
0.00053514906
0.00050260004
0.00045461247
0.00038812371
0.00030083324
0.00019042031
8.1679705e-05
2.389876e-05
9.5466686e-06
6.7425693e-06
5.7150211e-06
5.058357e-06
4.7474658e-06
4.6506091e-06
4.5821745e-06
4.4862704e-06
4.4216539e-06
4.3947751e-06
4.3357089e-06
4.2749416e-06
4.2466842e-06
4.1751961e-06
4.0709101e-06
4.0860457e-06
4.1297234e-06
4.0927736e-06
4.0450818e-06
4.1090906e-06
4.4104506e-06
4.8470734e-06
4.9432398e-06
4.8652808e-06
4.6559973e-06
4.3866362e-06
4.1716012e-06
4.0506887e-06
4.0312924e-06
4.0481358e-06
4.0680514e-06
4.0635065e-06
4.069899e-06
4.0953205e-06
4.1061684e-06
4.1027718e-06
4.0791308e-06
4.0615738e-06
4.0924309e-06
4.1753755e-06
4.2684555e-06
4.270785e-06
4.2211419e-06
4.1081123e-06
3.9806917e-06
3.9029312e-06
3.8738728e-06
3.860663e-06
3.8582879e-06
3.8609373e-06
3.8456303e-06
3.8196757e-06
3.807434e-06
3.7807924e-06
3.7684614e-06
3.7919072e-06
3.7880084e-06
3.7241635e-06
3.6538762e-06
3.6467509e-06
3.6827814e-06
3.7372131e-06
3.7961336e-06
3.8407488e-06
3.8551821e-06
3.8609489e-06
3.8767336e-06
3.8830865e-06
3.8744532e-06
3.8640333e-06
3.8596768e-06
3.8600394e-06
3.8616231e-06
3.8635342e-06
3.8644201e-06
3.8649963e-06
3.8661847e-06
3.8671115e-06
3.8670899e-06
3.8668539e-06
3.8666799e-06
3.8664531e-06
3.8664577e-06
3.8666018e-06
3.8667986e-06
3.8667352e-06
3.8666026e-06
1.4918768e-10
1.313614e-10
2.9362221e-10
1.8560918e-09
9.9622208e-09
3.9709999e-08
1.2479997e-07
3.2470041e-07
7.2635765e-07
1.4419495e-06
2.6100712e-06
4.4079448e-06
7.0832568e-06
1.1008621e-05
1.6713443e-05
2.4794508e-05
3.565024e-05
4.9211825e-05
6.495696e-05
8.2212368e-05
0.00010044323
0.00011935134
0.00013883963
0.00015893986
0.00017973809
0.00020134289
0.00022386832
0.00024743061
0.00027214375
0.00029809213
0.00032531605
0.00035377666
0.00038332934
0.00041360017
0.00044393135
0.00047330652
0.00050074571
0.000524406
0.00054198782
0.00055117102
0.00054952638
0.00053462599
0.00050447482
0.00045776752
0.00039386475
0.0003088297
0.00020148534
9.0364205e-05
2.6615436e-05
9.9668622e-06
6.6652689e-06
5.5909532e-06
5.0212522e-06
4.8146515e-06
4.7901545e-06
4.7300908e-06
4.5463603e-06
4.4255794e-06
4.3918113e-06
4.3354893e-06
4.2756694e-06
4.2480325e-06
4.1625255e-06
4.0526125e-06
4.091054e-06
4.148765e-06
4.1094408e-06
4.0513412e-06
4.1153034e-06
4.433811e-06
4.8685624e-06
4.9470373e-06
4.8620545e-06
4.6461188e-06
4.3770067e-06
4.1673285e-06
4.0511703e-06
4.0341402e-06
4.0522628e-06
4.0724257e-06
4.0673416e-06
4.0736221e-06
4.1005737e-06
4.1166617e-06
4.1119217e-06
4.0844523e-06
4.0642348e-06
4.0934365e-06
4.1761182e-06
4.2685737e-06
4.2699671e-06
4.2197596e-06
4.1069058e-06
3.9799356e-06
3.902382e-06
3.8736855e-06
3.8609846e-06
3.858362e-06
3.8601806e-06
3.8445476e-06
3.8189018e-06
3.8065071e-06
3.7799529e-06
3.7683278e-06
3.7916194e-06
3.7867733e-06
3.7223119e-06
3.6522148e-06
3.6458238e-06
3.6821967e-06
3.7368749e-06
3.7959623e-06
3.8406972e-06
3.8551613e-06
3.8610397e-06
3.8768307e-06
3.8831074e-06
3.8744907e-06
3.8639793e-06
3.8595989e-06
3.8599939e-06
3.8616086e-06
3.8635219e-06
3.8644262e-06
3.8650119e-06
3.866202e-06
3.8671196e-06
3.8670963e-06
3.8668608e-06
3.8666309e-06
3.8664058e-06
3.8664521e-06
3.8666428e-06
3.8668106e-06
3.8666997e-06
3.8666917e-06
1.5167006e-10
1.3438634e-10
3.2357047e-10
2.1284578e-09
1.1505415e-08
4.5946259e-08
1.442666e-07
3.7395944e-07
8.3135645e-07
1.6363445e-06
2.9290003e-06
4.875777e-06
7.6976636e-06
1.1727246e-05
1.7448818e-05
2.5424939e-05
3.6060783e-05
4.934764e-05
6.483683e-05
8.1893661e-05
9.9980607e-05
0.00011877649
0.00013816121
0.00015815073
0.00017882123
0.00020027431
0.0002226161
0.00024594965
0.00027037324
0.00029597132
0.00032279253
0.00035081724
0.00037991109
0.00040975678
0.00043974798
0.00046890155
0.00049630361
0.00052018971
0.00053832201
0.00054840622
0.00054789262
0.00053455031
0.00050622797
0.00046113644
0.00039804184
0.0003144656
0.00020753951
9.4220398e-05
2.748969e-05
9.9365444e-06
6.4023694e-06
5.3018159e-06
4.8853053e-06
4.9203486e-06
4.963281e-06
4.8264883e-06
4.5812572e-06
4.4352893e-06
4.386621e-06
4.3275454e-06
4.2717001e-06
4.2565749e-06
4.1626571e-06
4.0297855e-06
4.0870943e-06
4.1583429e-06
4.1201468e-06
4.0550334e-06
4.1224519e-06
4.4572515e-06
4.8874474e-06
4.9496974e-06
4.8575202e-06
4.6356574e-06
4.3672021e-06
4.1628636e-06
4.0515844e-06
4.0368676e-06
4.056469e-06
4.0767531e-06
4.0717441e-06
4.0792974e-06
4.1105272e-06
4.1284487e-06
4.1203267e-06
4.0882586e-06
4.0659619e-06
4.0939436e-06
4.1766791e-06
4.2686344e-06
4.2691092e-06
4.2183675e-06
4.1056923e-06
3.979128e-06
3.9018132e-06
3.8735385e-06
3.8612916e-06
3.8583635e-06
3.8593386e-06
3.8434274e-06
3.818125e-06
3.805545e-06
3.7791134e-06
3.7681995e-06
3.7913037e-06
3.7854742e-06
3.7203473e-06
3.6505064e-06
3.6448949e-06
3.6816217e-06
3.7365306e-06
3.7957759e-06
3.840631e-06
3.8551349e-06
3.8611291e-06
3.8769204e-06
3.8831162e-06
3.8745145e-06
3.8639224e-06
3.859535e-06
3.8599581e-06
3.861598e-06
3.8635208e-06
3.864435e-06
3.8650281e-06
3.8662145e-06
3.8671264e-06
3.8671017e-06
3.8668601e-06
3.8665663e-06
3.8663762e-06
3.8664732e-06
3.8666847e-06
3.8667909e-06
3.8666778e-06
3.8668033e-06
1.4537763e-10
1.3054832e-10
3.5428638e-10
2.4589271e-09
1.3411743e-08
5.3741698e-08
1.6892831e-07
4.3708896e-07
9.6645756e-07
1.8839586e-06
3.3233981e-06
5.4270182e-06
8.3798921e-06
1.2484345e-05
1.8215027e-05
2.6151467e-05
3.6736316e-05
4.9998592e-05
6.5509872e-05
8.2638579e-05
0.00010083783
0.00011976901
0.00013929512
0.00015941856
0.00018020772
0.00020176022
0.00022418327
0.00024758637
0.00027207607
0.00029774038
0.00032462239
0.00035268493
0.00038176447
0.00041152037
0.00044134317
0.00047026293
0.00049739787
0.00052068439
0.00053811296
0.0005474273
0.0005463578
0.00053225561
0.00050314876
0.00045717337
0.00039225378
0.00030605114
0.00019676145
8.4396983e-05
2.3614504e-05
9.0412108e-06
6.0732692e-06
5.0875861e-06
4.8070125e-06
4.9862846e-06
5.0301321e-06
4.8600347e-06
4.5798951e-06
4.4285968e-06
4.373969e-06
4.3134359e-06
4.2592945e-06
4.2554871e-06
4.1651408e-06
4.0152705e-06
4.0742463e-06
4.1554988e-06
4.1218731e-06
4.057397e-06
4.1269328e-06
4.4778334e-06
4.9031434e-06
4.9518162e-06
4.8519714e-06
4.6255417e-06
4.3580582e-06
4.1589777e-06
4.0522908e-06
4.0397925e-06
4.0607447e-06
4.0813237e-06
4.0777586e-06
4.0889356e-06
4.1243248e-06
4.1399269e-06
4.1272075e-06
4.0905231e-06
4.0669543e-06
4.0940926e-06
4.1770734e-06
4.2685655e-06
4.268257e-06
4.2170531e-06
4.1045739e-06
3.978291e-06
3.9012174e-06
3.8734321e-06
3.8615739e-06
3.858276e-06
3.85841e-06
3.8422924e-06
3.8173584e-06
3.8045448e-06
3.7782841e-06
3.7680745e-06
3.7909696e-06
3.7841126e-06
3.7182673e-06
3.6487628e-06
3.6439625e-06
3.6810595e-06
3.7361815e-06
3.79557e-06
3.8405474e-06
3.8551059e-06
3.8612119e-06
3.8769961e-06
3.8831122e-06
3.8745324e-06
3.8638726e-06
3.8594882e-06
3.8599287e-06
3.8615943e-06
3.8635282e-06
3.8644458e-06
3.8650411e-06
3.8662253e-06
3.8671324e-06
3.8671056e-06
3.8668357e-06
3.8665028e-06
3.8663757e-06
3.8665054e-06
3.866718e-06
3.8667535e-06
3.8666629e-06
1.2904595e-10
1.1867619e-10
3.8471674e-10
2.8527987e-09
1.5723918e-08
6.330238e-08
1.9955403e-07
5.1633601e-07
1.1377142e-06
2.2042299e-06
3.8570949e-06
6.2297641e-06
9.4705315e-06
1.3818323e-05
1.9665466e-05
2.7517572e-05
3.7824329e-05
5.0756158e-05
6.6089973e-05
8.3307231e-05
0.00010183381
0.00012123026
0.00014126174
0.00016186617
0.00018308159
0.00020499656
0.00022771742
0.00025135178
0.00027600182
0.00030175186
0.00032863474
0.0003565659
0.00038536736
0.0004146795
0.00044388335
0.00047206717
0.00049821313
0.00052058092
0.00053690779
0.00054481361
0.00054173504
0.00052537212
0.00049364361
0.00044458236
0.0003759181
0.00028487445
0.00017161808
6.503888e-05
1.7576879e-05
7.9439263e-06
5.745468e-06
4.9670778e-06
4.8800662e-06
5.0655393e-06
4.993201e-06
4.7229268e-06
4.4882638e-06
4.3976127e-06
4.3545535e-06
4.2899723e-06
4.231234e-06
4.2314017e-06
4.1599445e-06
4.0231998e-06
4.0757394e-06
4.1547965e-06
4.1172487e-06
4.0563421e-06
4.1318822e-06
4.4982234e-06
4.9161944e-06
4.9534157e-06
4.8464482e-06
4.615901e-06
4.3495349e-06
4.1559285e-06
4.0534263e-06
4.042918e-06
4.0654531e-06
4.0873219e-06
4.0867684e-06
4.1018631e-06
4.1390517e-06
4.14975e-06
4.1322067e-06
4.0916209e-06
4.067177e-06
4.0937327e-06
4.1774057e-06
4.2684325e-06
4.2673844e-06
4.2158053e-06
4.1035907e-06
3.9774409e-06
3.9005982e-06
3.8733583e-06
3.8618161e-06
3.8581034e-06
3.8573827e-06
3.8411414e-06
3.8166095e-06
3.8035119e-06
3.7774725e-06
3.7679509e-06
3.7906145e-06
3.7826812e-06
3.7160648e-06
3.6469935e-06
3.6430211e-06
3.6805088e-06
3.7358272e-06
3.7953455e-06
3.8404555e-06
3.8550677e-06
3.8612888e-06
3.8770577e-06
3.8831016e-06
3.8745543e-06
3.8638325e-06
3.8594508e-06
3.8599021e-06
3.861596e-06
3.8635422e-06
3.8644568e-06
3.8650517e-06
3.8662388e-06
3.8671384e-06
3.8671016e-06
3.8667858e-06
3.8664549e-06
3.8663997e-06
3.8665465e-06
3.8667246e-06
3.8667175e-06
3.866669e-06
9.9776269e-11
9.5959283e-11
3.9904254e-10
3.1767197e-09
1.7723203e-08
7.1964453e-08
2.2887671e-07
5.9622565e-07
1.315966e-06
2.5352316e-06
4.3773101e-06
6.9372899e-06
1.0327825e-05
1.4770711e-05
2.0672367e-05
2.8585157e-05
3.9010082e-05
5.2133651e-05
6.7694162e-05
8.5126882e-05
0.00010385748
0.00012348566
0.00014380118
0.00016473848
0.00018631554
0.00020859572
0.00023166519
0.00025561458
0.00028052449
0.00030645567
0.0003333932
0.00036132672
0.00039007989
0.00041927609
0.00044822674
0.00047611536
0.00050174575
0.00052310649
0.00053808162
0.0005442195
0.00053892153
0.00051972099
0.00048441804
0.00043102886
0.0003572312
0.00026086501
0.00014518651
4.7874718e-05
1.3519839e-05
7.3779008e-06
5.6752688e-06
4.9978841e-06
4.9294342e-06
4.9720521e-06
4.7492228e-06
4.5149997e-06
4.4182459e-06
4.3859332e-06
4.3410133e-06
4.2817852e-06
4.227751e-06
4.2106226e-06
4.1466916e-06
4.0315657e-06
4.0824718e-06
4.1596418e-06
4.1160722e-06
4.0530688e-06
4.1355435e-06
4.5171738e-06
4.9258009e-06
4.9541934e-06
4.84142e-06
4.6073789e-06
4.3425255e-06
4.1540725e-06
4.0553359e-06
4.047162e-06
4.0725193e-06
4.0967186e-06
4.0986799e-06
4.1158471e-06
4.1520631e-06
4.157242e-06
4.1353041e-06
4.0913299e-06
4.066292e-06
4.0929131e-06
4.1777522e-06
4.2682658e-06
4.2665101e-06
4.2146138e-06
4.1026372e-06
3.9766114e-06
3.8999911e-06
3.8733253e-06
3.8620115e-06
3.8578413e-06
3.8562557e-06
3.8399922e-06
3.8158858e-06
3.8024442e-06
3.7766833e-06
3.7678338e-06
3.7902325e-06
3.7811696e-06
3.7137395e-06
3.6452087e-06
3.6420633e-06
3.6799607e-06
3.7354616e-06
3.7951034e-06
3.8403405e-06
3.8550181e-06
3.8613652e-06
3.8771139e-06
3.8830974e-06
3.8745831e-06
3.8637964e-06
3.8594157e-06
3.8598773e-06
3.8616069e-06
3.8635531e-06
3.8644643e-06
3.8650614e-06
3.8662526e-06
3.8671424e-06
3.8670726e-06
3.8667201e-06
3.8664258e-06
3.8664336e-06
3.8665885e-06
3.8667038e-06
3.8666958e-06
3.8667589e-06
6.5293877e-11
6.8312992e-11
3.9540468e-10
3.3644678e-09
1.8988176e-08
7.7931203e-08
2.5142907e-07
6.6501787e-07
1.4855456e-06
2.8800024e-06
4.9692914e-06
7.8063671e-06
1.1424289e-05
1.5968826e-05
2.1805433e-05
2.9487218e-05
3.9566507e-05
5.2330906e-05
6.7655366e-05
8.5092869e-05
0.00010408604
0.00012415092
0.00014498736
0.00016646738
0.00018857296
0.00021134991
0.00023487256
0.00025922076
0.00028447331
0.00031069233
0.00033789978
0.00036603291
0.00039488409
0.00042405624
0.00045293705
0.00048052869
0.00050551973
0.00052592453
0.0005396063
0.00054407061
0.00053668709
0.00051494025
0.00047661757
0.000419675
0.000341309
0.00024093073
0.00012400113
3.7489968e-05
1.1820275e-05
7.303868e-06
5.76056e-06
5.0130091e-06
4.8346118e-06
4.6673432e-06
4.4810871e-06
4.4055229e-06
4.3866377e-06
4.3692863e-06
4.3266027e-06
4.273742e-06
4.2400829e-06
4.2134727e-06
4.1256552e-06
4.0235703e-06
4.0833439e-06
4.1607267e-06
4.1166125e-06
4.0511747e-06
4.1392289e-06
4.5372577e-06
4.9338754e-06
4.9543871e-06
4.836625e-06
4.600087e-06
4.3368865e-06
4.1532665e-06
4.060082e-06
4.0552717e-06
4.0844282e-06
4.1096894e-06
4.1117108e-06
4.1284924e-06
4.161731e-06
4.1623851e-06
4.1367681e-06
4.0896378e-06
4.064946e-06
4.0920551e-06
4.1782159e-06
4.268092e-06
4.2656907e-06
4.2134404e-06
4.1016511e-06
3.9757727e-06
3.8994124e-06
3.8733541e-06
3.8621593e-06
3.8574708e-06
3.8550324e-06
3.8388504e-06
3.8151867e-06
3.8013415e-06
3.7759096e-06
3.7677318e-06
3.7898137e-06
3.7795742e-06
3.7112921e-06
3.6434188e-06
3.6410818e-06
3.6794157e-06
3.7350885e-06
3.7948449e-06
3.8401995e-06
3.8549549e-06
3.8614487e-06
3.8771772e-06
3.8831167e-06
3.8746163e-06
3.8637568e-06
3.8593841e-06
3.8598572e-06
3.8616221e-06
3.8635579e-06
3.8644706e-06
3.8650704e-06
3.8662621e-06
3.867136e-06
3.8670179e-06
3.8666555e-06
3.8664263e-06
3.8664749e-06
3.8666216e-06
3.8666659e-06
3.8666818e-06
3.8668702e-06
3.2615117e-11
4.0917577e-11
3.6588534e-10
3.2965032e-09
1.8785674e-08
7.8013853e-08
2.5666941e-07
6.962671e-07
1.5953408e-06
3.1564317e-06
5.518177e-06
8.7167531e-06
1.2728477e-05
1.759174e-05
2.3536741e-05
3.1012745e-05
4.0537065e-05
5.2492373e-05
6.6974379e-05
8.3773877e-05
0.00010249947
0.00012271046
0.00014402536
0.00016618431
0.0001890453
0.00021256248
0.0002367544
0.00026167709
0.00028740406
0.0003139901
0.00034148024
0.00036977748
0.00039868854
0.00042780848
0.00045642875
0.00048370046
0.00050814259
0.00052783399
0.00054063911
0.00054405953
0.00053544939
0.00051225463
0.00047216415
0.00041264551
0.00033175762
0.00022877578
0.00011257468
3.3383251e-05
1.139406e-05
7.358515e-06
5.786869e-06
4.9112879e-06
4.4889037e-06
4.3945436e-06
4.3937354e-06
4.4003544e-06
4.3977715e-06
4.371811e-06
4.3303435e-06
4.2626617e-06
4.2444404e-06
4.2294774e-06
4.1169278e-06
4.008416e-06
4.0782929e-06
4.1597492e-06
4.1137208e-06
4.0463484e-06
4.1443929e-06
4.5587994e-06
4.942165e-06
4.9550416e-06
4.8325743e-06
4.5944715e-06
4.3330047e-06
4.1552406e-06
4.069614e-06
4.0677013e-06
4.0997153e-06
4.1237904e-06
4.1235233e-06
4.138235e-06
4.167737e-06
4.1653929e-06
4.1369314e-06
4.087706e-06
4.0634385e-06
4.0911768e-06
4.1787004e-06
4.2678928e-06
4.2649893e-06
4.2123184e-06
4.1006352e-06
3.9748976e-06
3.8988621e-06
3.8734481e-06
3.8622747e-06
3.8569783e-06
3.8537358e-06
3.8376975e-06
3.8145202e-06
3.800206e-06
3.7751543e-06
3.7676456e-06
3.7893559e-06
3.7778879e-06
3.7087288e-06
3.6416347e-06
3.6400722e-06
3.6788768e-06
3.7347119e-06
3.7945684e-06
3.8400414e-06
3.8548879e-06
3.8615433e-06
3.8772541e-06
3.8831592e-06
3.8746531e-06
3.8637129e-06
3.8593595e-06
3.8598451e-06
3.861636e-06
3.8635581e-06
3.8644759e-06
3.8650777e-06
3.8662675e-06
3.8671045e-06
3.8669507e-06
3.8666074e-06
3.8664502e-06
3.866516e-06
3.8666299e-06
3.8666319e-06
3.8666895e-06
1.0158084e-11
2.1453298e-11
3.3184225e-10
3.1133657e-09
1.7811291e-08
7.4458167e-08
2.4901895e-07
6.9379282e-07
1.6406942e-06
3.3412282e-06
5.9668634e-06
9.5478777e-06
1.4013787e-05
1.933252e-05
2.5633465e-05
3.3217583e-05
4.2503594e-05
5.3897733e-05
6.7591124e-05
8.3544404e-05
0.0001015508
0.00012130782
0.00014249957
0.00016485323
0.00018815883
0.00021227858
0.00023714154
0.00026273046
0.00028906501
0.00031617412
0.00034405974
0.0003726764
0.00040177623
0.0004309614
0.00045944248
0.00048655723
0.00051068118
0.00053001732
0.00054240202
0.00054531695
0.00053608619
0.00051206584
0.00047086855
0.00040902978
0.00032683546
0.00022273361
0.00010738785
3.1144715e-05
1.117765e-05
7.3012913e-06
5.6390998e-06
4.7333078e-06
4.3832275e-06
4.3723609e-06
4.3899751e-06
4.4025076e-06
4.3916814e-06
4.3728803e-06
4.3311033e-06
4.2687891e-06
4.2473786e-06
4.2406788e-06
4.1196744e-06
4.0015885e-06
4.081132e-06
4.1731128e-06
4.1117369e-06
4.0391553e-06
4.1521153e-06
4.5859201e-06
4.9521519e-06
4.9583118e-06
4.8302473e-06
4.5903699e-06
4.3334359e-06
4.1624727e-06
4.0819145e-06
4.0817596e-06
4.1151052e-06
4.1360376e-06
4.1323364e-06
4.1446829e-06
4.1708341e-06
4.1666284e-06
4.1352913e-06
4.0852788e-06
4.0617724e-06
4.0904177e-06
4.179218e-06
4.2676998e-06
4.2644463e-06
4.2112668e-06
4.0996086e-06
3.9739594e-06
3.898332e-06
3.873569e-06
3.862366e-06
3.8563676e-06
3.8523972e-06
3.8365583e-06
3.8138937e-06
3.7990474e-06
3.7744141e-06
3.7675724e-06
3.7888506e-06
3.7760889e-06
3.7060564e-06
3.6398545e-06
3.6390415e-06
3.6783431e-06
3.7343349e-06
3.7942793e-06
3.8398718e-06
3.8548239e-06
3.861649e-06
3.8773458e-06
3.8832112e-06
3.8746971e-06
3.8636695e-06
3.8593414e-06
3.8598408e-06
3.8616455e-06
3.863561e-06
3.8644792e-06
3.8650838e-06
3.8662725e-06
3.8670486e-06
3.8668879e-06
3.8665797e-06
3.8664831e-06
3.8665461e-06
3.8666075e-06
3.8666128e-06
3.8667815e-06
5.4056573e-13
1.2133658e-11
2.9444993e-10
2.80868e-09
1.60133e-08
6.6839973e-08
2.2533701e-07
6.4204378e-07
1.5730941e-06
3.3365005e-06
6.183583e-06
1.0179315e-05
1.5211833e-05
2.1161112e-05
2.8058018e-05
3.6100589e-05
4.5545121e-05
5.6598594e-05
6.9465894e-05
8.4276694e-05
0.00010100176
0.00011954021
0.00013976256
0.0001615207
0.00018465167
0.00020898962
0.00023438089
0.00026069698
0.00028784076
0.00031573921
0.00034431431
0.00037344817
0.00040297498
0.00043254419
0.00046136821
0.00048895388
0.00051345089
0.0005331161
0.0005457501
0.00054876747
0.00053944161
0.00051515301
0.00047383316
0.0004114116
0.00032971882
0.00022569772
0.00010803404
3.0937463e-05
1.1189031e-05
7.2564558e-06
5.5814402e-06
4.721624e-06
4.391406e-06
4.3522451e-06