/*--------------------------------*- C++ -*----------------------------------*\
| =========                 |                                                 |
| \\      /  F ield         | OpenFOAM: The Open Source CFD Toolbox           |
|  \\    /   O peration     | Version:  2506                                  |
|   \\  /    A nd           | Website:  www.openfoam.com                      |
|    \\/     M anipulation  |                                                 |
\*---------------------------------------------------------------------------*/
FoamFile
{
    version     2.0;
    format      ascii;
    arch        "LSB;label=32;scalar=64";
    class       volScalarField;
    location    "2.95";
    object      omega;
}
// * * * * * * * * * * * * * * * * * * * * * * * * * * * * * * * * * * * * * //

dimensions      [0 0 -1 0 0 0 0];

internalField   nonuniform List<scalar> 
1376
(
41.743752
38.224603
33.737492
30.01862
40.934568
37.446452
33.075342
29.483305
26.885855
25.062692
23.779943
22.874598
22.241464
21.80945
40.146318
36.693575
32.426986
28.950779
26.44951
24.699581
23.471868
22.608054
22.00624
21.597678
21.331841
21.169289
21.079315
21.037798
21.02498
39.384296
35.974512
31.800215
28.426257
26.012097
24.331065
23.157522
22.336458
21.768084
21.385136
21.138417
20.989788
20.909616
20.874453
20.864833
20.866082
20.884343
20.912876
20.946782
38.650596
35.290055
31.199017
27.91536
25.579177
23.961759
22.840336
22.062166
21.528523
21.172761
20.946434
20.812494
20.7424
20.713432
20.70647
20.71047
20.731692
20.761402
20.796046
20.834692
20.876789
20.922033
20.970308
37.94533
34.636372
30.624744
27.423767
25.158303
23.59924
22.526847
21.790241
21.291139
20.962886
20.757301
20.638197
20.578039
20.554834
20.550134
20.557531
20.581196
20.611935
20.647244
20.686331
20.728714
20.774147
20.822548
20.873947
20.92845
20.986217
21.047501
37.267542
34.007739
30.076654
26.956031
24.757134
23.252111
22.22504
21.527169
21.060637
20.758577
20.572833
20.467862
20.416949
20.398866
20.396162
20.407226
20.432808
20.464435
20.500334
20.539801
20.582422
20.627999
20.676483
20.727928
20.782452
20.84023
20.901507
20.966615
21.035966
21.110057
36.615697
33.398664
29.552368
26.514019
24.380657
22.926871
21.941491
21.278585
20.84122
20.562589
20.394618
20.302251
20.259425
20.245754
20.244781
20.259434
20.28647
20.318845
20.355246
20.395035
20.437848
20.483529
20.532059
20.583506
20.638004
20.695742
20.75697
20.822017
20.89128
20.96525
21.044499
21.12969
21.221594
35.988485
32.806451
29.049274
26.096586
24.029458
22.625418
21.67872
21.046975
20.634881
20.376248
20.223362
20.141641
20.105569
20.095363
20.096127
20.113955
20.142084
20.175073
20.211889
20.251944
20.294913
20.340668
20.389211
20.440629
20.495064
20.552719
20.613851
20.678787
20.747926
20.821747
20.900806
20.985747
21.077322
21.17641
21.284034
35.385393
32.232737
28.566514
25.701282
23.700789
22.345422
21.435059
20.831268
20.440956
20.199098
20.058693
19.985719
19.955111
19.947359
19.950201
19.970583
19.999554
20.033046
20.070194
20.110451
20.153528
20.199327
20.247864
20.29923
20.353578
20.411115
20.47211
20.536892
20.605863
20.679497
20.758331
20.842992
20.93421
21.032843
21.139902
21.256614
21.384444
21.52516
34.806551
31.681899
28.104378
25.324983
23.389928
22.081895
21.206058
20.62794
20.256899
20.029422
19.8995
19.83377
19.807543
19.80157
19.806738
19.829121
19.858764
19.892674
19.930091
19.970502
20.013646
20.059445
20.10793
20.159213
20.21345
20.270853
20.33169
20.396294
20.465059
20.538453
20.617016
20.701365
20.792201
20.890362
20.996838
21.112825
21.239778
21.379463
21.534051
21.706263
34.251614
31.15708
27.66229
24.963881
23.091421
21.828993
20.986335
20.432564
20.07942
19.864987
19.74437
19.684922
19.662342
19.657796
19.665474
19.689441
19.719644
19.753902
19.791527
19.832045
19.875222
19.920991
19.969402
20.020568
20.074654
20.131885
20.192536
20.25693
20.325459
20.398588
20.476847
20.560841
20.651263
20.748926
20.854797
20.970047
21.096101
21.23472
21.388019
21.558716
21.750276
21.967046
33.719104
30.657876
27.237842
24.613943
22.800403
21.581713
20.771293
20.241327
19.905654
19.703843
19.592085
19.538455
19.519126
19.515873
19.526217
19.551459
19.582152
19.616714
19.654505
19.69509
19.73826
19.783964
19.832261
19.883279
19.937195
19.994237
20.054669
20.118813
20.187063
20.25988
20.337791
20.421392
20.511367
20.608504
20.71375
20.828255
20.953409
21.090918
21.242908
21.412065
21.601794
21.81637
22.060823
33.207193
30.181982
26.828593
24.272558
22.514109
21.337275
20.558352
20.052045
19.733931
19.544835
19.441915
19.393936
19.377694
19.375735
19.388861
19.41514
19.446273
19.481098
19.519015
19.559632
19.602767
19.648386
19.69655
19.747394
19.801104
19.857912
19.918092
19.981963
20.049903
20.122361
20.199865
20.28301
20.372477
20.469049
20.573648
20.68738
20.811619
20.948043
21.098733
21.266329
21.454181
21.666473
21.908035
22.183439
22.496009
32.714253
29.726797
26.433333
23.939344
22.2324
21.095523
20.347279
19.864438
19.563985
19.38775
19.293694
19.251267
19.238076
19.23739
19.253354
19.280474
19.312001
19.347053
19.385063
19.42568
19.468748
19.514248
19.562253
19.612904
19.666395
19.722954
19.782851
19.846401
19.913981
19.98604
20.06309
20.145726
20.234617
20.330551
20.434449
20.547389
20.6707
20.806029
20.95542
21.12145
21.307401
21.517351
21.755917
22.027347
22.33464
22.686038
32.238138
29.288681
26.051347
23.615451
21.957107
20.858318
20.139661
19.679712
19.39664
19.233087
19.147704
19.110647
19.100219
19.101035
19.11966
19.147455
19.179328
19.214564
19.252634
19.293221
19.336195
19.381554
19.429379
19.479815
19.533054
19.58933
19.648911
19.712111
19.779304
19.850921
19.927465
20.009519
20.097771
20.19301
20.296142
20.408232
20.530586
20.664801
20.812872
20.977323
21.161356
21.368921
21.604422
21.87178
22.173706
22.518708
22.969441
23.981823
31.775601
28.861473
25.679583
23.300496
21.689295
20.627296
19.937167
19.499276
19.232924
19.081504
19.004342
18.972278
18.964083
18.966883
18.987732
19.016059
19.048216
19.08359
19.121686
19.162218
19.20508
19.250278
19.297902
19.348097
19.401062
19.457029
19.516264
19.579078
19.645836
19.716963
19.792953
19.874388
19.961952
20.056428
20.158725
20.269902
20.391235
20.52429
20.671016
20.833856
21.015933
21.22107
21.45346
21.716695
22.013189
22.351782
22.797751
23.823493
31.076467
31.324534
28.442063
25.316667
22.994436
21.429651
20.403469
19.740853
19.324042
19.07351
18.933432
18.863842
18.836215
18.829805
18.834942
18.857521
18.886254
18.918627
18.954084
18.992164
19.03261
19.075331
19.120346
19.167751
19.217692
19.270361
19.325991
19.384848
19.447243
19.513537
19.584142
19.659544
19.740316
19.827142
19.920807
20.02221
20.132407
20.252647
20.38447
20.529784
20.690973
20.871064
21.073736
21.302959
21.562016
21.853028
22.185228
22.626661
23.666679
31.026993
30.884286
28.031172
24.963714
22.698268
21.178974
20.187462
19.551197
19.154346
18.9186
18.788965
18.726209
18.702424
18.697491
18.70512
18.728983
18.758016
18.79053
18.826009
18.864025
18.904348
18.946903
18.991712
19.038868
19.088519
19.140862
19.196134
19.254598
19.316558
19.382364
19.452421
19.527211
19.6073
19.693356
19.786163
19.886622
19.995773
20.114856
20.24537
20.389192
20.548638
20.726678
20.926857
21.152889
21.407712
21.693183
22.018988
22.456019
23.512647
31.114164
30.45418
27.629197
24.620907
22.411891
20.937012
19.97897
19.367895
18.989914
18.76796
18.647906
18.591265
18.570796
18.567146
18.577273
18.60206
18.631305
18.663895
18.69934
18.737245
18.777405
18.819755
18.86432
18.911199
18.96054
19.012537
19.067421
19.125455
19.186955
19.252262
19.321771
19.395942
19.475334
19.560607
19.652535
19.752007
19.860057
19.977909
20.107041
20.249285
20.406914
20.582821
20.780417
21.003206
21.253754
21.533649
21.853071
22.285892
23.362027
31.325671
30.034495
27.237812
24.28861
22.134816
20.702912
19.777066
19.19009
18.830034
18.621043
18.509855
18.458732
18.441186
18.438711
18.451263
18.4767
18.506087
18.538695
18.574051
18.611799
18.651757
18.693867
18.738158
18.784727
18.833723
18.885342
18.939818
18.997415
19.05844
19.123224
19.192156
19.265702
19.3444
19.428897
19.519939
19.618397
19.725304
19.841856
19.969515
20.110104
20.265864
20.439588
20.634528
20.853979
21.100145
21.374409
21.687517
22.116542
23.21385
31.39212
29.626248
26.859676
23.968008
21.867167
20.476258
19.5811
19.017089
18.674078
18.477342
18.374432
18.328351
18.313456
18.312108
18.326972
18.352862
18.382342
18.414921
18.450144
18.487691
18.527404
18.569235
18.613219
18.659451
18.70808
18.7593
18.81334
18.870468
18.930987
18.995229
19.063593
19.136513
19.214501
19.298206
19.388355
19.485793
19.591527
19.706738
19.832876
19.971732
20.125527
20.297001
20.489256
20.705303
20.947
21.215569
21.52246
21.948211
23.067352
31.363652
29.229514
26.495123
23.658948
21.608636
20.25674
19.390758
18.848575
18.521746
18.336592
18.241409
18.199963
18.187558
18.187249
18.204305
18.230509
18.260046
18.292562
18.327616
18.364921
18.404347
18.445862
18.489503
18.535368
18.5836
18.634392
18.687977
18.744627
18.804628
18.868317
18.936067
19.008322
19.085613
19.168529
19.257763
19.35415
19.458684
19.572536
19.697121
19.834206
19.985987
20.155133
20.344628
20.557195
20.794357
21.057212
21.358022
21.781024
22.923838
31.341323
28.843451
26.14241
23.359723
21.357992
20.043556
19.205529
18.684215
18.372807
18.198618
18.110674
18.073539
18.063281
18.064207
18.08319
18.109606
18.139169
18.17159
18.206445
18.243478
18.282585
18.323749
18.367014
18.412477
18.460281
18.510619
18.563724
18.619861
18.67931
18.74241
18.809542
18.881129
18.957684
19.039776
19.128091
19.223429
19.326747
19.439209
19.562217
19.697506
19.847242
20.014021
20.200693
20.40969
20.642236
20.899374
21.194232
21.61493
22.78613
31.559458
28.467112
25.799802
23.068883
21.114296
19.836164
19.025133
18.523878
18.227201
18.063384
17.98221
17.949047
17.940531
17.943014
17.963562
17.990112
18.019671
18.05197
18.086601
18.123341
18.162104
18.202889
18.245748
18.290781
18.338131
18.38799
18.440588
18.496181
18.555038
18.617516
18.683988
18.75487
18.830663
18.911911
18.999268
19.093531
19.195626
19.306699
19.428109
19.561571
19.709234
19.873631
20.057425
20.26279
20.490655
20.742055
21.031059
21.44991
22.654219
31.868998
28.09982
25.465902
22.785402
20.876884
19.634165
18.849357
18.367471
18.08489
17.930872
17.856004
17.826429
17.819337
17.823618
17.845357
17.871973
17.90149
17.933631
17.968014
18.004439
18.042839
18.083226
18.125662
18.170251
18.217139
18.266506
18.318566
18.373575
18.431827
18.493642
18.559404
18.629546
18.704516
18.784864
18.871222
18.964381
19.065238
19.174906
19.294705
19.426348
19.571934
19.733898
19.914751
20.116422
20.339551
20.585214
20.868508
21.286133
22.525305
31.893992
27.741854
25.140359
22.50864
20.645022
19.436908
18.677707
18.214656
17.94566
17.800957
17.731969
17.705611
17.69973
17.705934
17.72853
17.755153
17.784582
17.816531
17.850637
17.886726
17.924745
17.964716
18.00671
18.050836
18.097238
18.146095
18.197614
18.252041
18.309665
18.370804
18.435821
18.50513
18.579219
18.65863
18.743972
18.836
18.935563
19.043777
19.161973
19.291804
19.435311
19.594809
19.772642
19.970506
20.188815
20.428736
20.706501
21.123568
22.398768
31.858932
27.395579
24.82691
22.24125
20.420163
19.24505
18.510403
18.065454
17.809455
17.673561
17.610022
17.586538
17.581724
17.589867
17.613043
17.639623
17.668924
17.700644
17.734448
17.770182
17.807805
17.847347
17.888884
17.932529
17.978426
18.02675
18.077704
18.131521
18.188482
18.248908
18.313159
18.381653
18.454846
18.533253
18.617502
18.708316
18.806575
18.913344
19.029898
19.157896
19.299297
19.4563
19.631065
19.825042
20.038443
20.272566
20.544878
20.961747
22.277277
32.090605
27.063136
24.528488
21.985376
20.203606
19.059279
18.347762
17.919928
17.676213
17.548579
17.490052
17.469135
17.465288
17.475307
17.498839
17.525327
17.554463
17.585927
17.619411
17.654778
17.691999
17.731108
17.772183
17.815334
17.860706
17.908472
17.958836
18.01203
18.068317
18.128002
18.191442
18.259048
18.331289
18.408676
18.491822
18.581431
18.678364
18.783653
18.898546
19.024672
19.163902
19.318339
19.489968
19.679972
19.888388
20.116704
20.383666
20.800772
22.162184
32.470883
18.189502
17.777823
17.545705
17.425814
17.371903
17.353311
17.35037
17.36217
17.385886
17.412247
17.441183
17.472362
17.5055
17.540481
17.577284
17.615946
17.656547
17.6992
17.744046
17.791251
17.841011
17.893549
17.949137
18.008073
18.07069
18.137394
18.208656
18.284976
18.366966
18.455336
18.55091
18.654703
18.767943
18.892165
19.029178
19.18098
19.349374
19.535294
19.738633
19.961123
20.222896
20.641114
22.05157
32.505122
17.236922
17.2504
17.274177
17.300382
17.329092
17.359962
17.392733
17.427305
17.463666
17.501859
17.541964
17.584092
17.628381
17.674999
17.724139
17.776027
17.830908
17.889079
17.950871
18.01667
18.086947
18.162206
18.243029
18.330119
18.424276
18.526508
18.638022
18.760294
18.895077
19.044214
19.209314
19.391086
19.589254
19.805911
20.062722
20.482966
21.945203
32.598236
17.248726
17.281114
17.31526
17.351158
17.388855
17.42843
17.469997
17.513702
17.559717
17.608225
17.659425
17.713565
17.770948
17.831911
17.896831
17.966137
18.040323
18.119969
18.205763
18.298501
18.399169
18.508919
18.629168
18.761626
18.908005
19.069736
19.247309
19.440298
19.651211
19.903333
20.326383
21.844916
32.867117
17.276894
17.315929
17.356925
17.400022
17.445385
17.493205
17.543713
17.597138
17.653739
17.71385
17.777845
17.846148
17.919236
17.997705
18.08223
18.173558
18.272641
18.380601
18.498817
18.62893
18.7725
18.930776
19.104032
19.291822
19.497107
19.744833
20.171682
21.752335
33.181133
17.379135
17.428934
17.481597
17.537384
17.596619
17.659691
17.727008
17.799007
17.87627
17.95945
18.049298
18.146775
18.252947
18.369147
18.496922
18.63768
18.792485
18.961418
19.143988
19.343667
19.587278
20.019099
21.667095
33.364032
17.480304
17.542447
17.608733
17.679618
17.755651
17.837488
17.925854
18.021678
18.125993
18.240121
18.365516
18.503481
18.654847
18.819464
18.996847
19.191068
19.430895
19.868996
21.588743
33.528416
17.635866
17.716331
17.803171
17.897288
17.999747
18.111828
18.234829
18.36993
18.51778
18.678057
18.850342
19.039254
19.275709
19.721659
21.525849
33.780978
17.773575
17.874184
17.984166
18.104764
18.237026
18.38136
18.53727
18.704396
18.88805
19.121614
19.577493
21.483745
34.125645
17.97527
18.104665
18.245463
18.396985
18.558978
18.737597
18.968825
19.43702
21.457558
34.481357
18.257
18.413937
18.587764
18.817344
19.300851
21.444814
34.815341
18.667104
19.169123
21.450001
35.177041
21.442607
35.583537
41.70348
)
;

boundaryField
{
    Side
    {
        type            empty;
    }
    Inlet
    {
        type            fixedValue;
        value           uniform 60.24606;
    }
    Airfoil
    {
        type            omegaWallFunction;
        blending        binomial;
        n               2;
        value           nonuniform List<scalar> 0();
    }
    Outlet
    {
        type            inletOutlet;
        inletValue      nonuniform List<scalar> 0();
        value           nonuniform List<scalar> 0();
    }
    procBoundary12to4
    {
        type            processor;
        value           uniform 42.471805;
    }
    procBoundary12to5
    {
        type            processor;
        value           nonuniform List<scalar> 
30
(
40.939843
40.171572
39.399444
38.633858
37.891168
37.188036
36.535369
35.933788
35.373907
34.840593
34.319397
33.801119
33.282916
32.767643
32.262845
31.777747
31.317842
30.882731
30.468471
30.068637
29.676375
29.287192
28.8994
28.513292
28.130618
27.753374
27.382634
27.019808
38.121327
40.939843
)
;
    }
    procBoundary12to6
    {
        type            processor;
        value           uniform 26.745129;
    }
    procBoundary12to11
    {
        type            processor;
        value           nonuniform List<scalar> 
65
(
42.566903
39.015124
34.405341
30.554303
27.318401
27.318401
25.419491
24.081928
23.136781
22.474543
22.021103
21.526158
21.526158
21.350704
21.251355
21.20352
21.187058
21.024309
21.024309
21.039226
21.066425
21.099528
20.984934
20.984934
21.026699
21.07171
21.119799
21.021609
21.021609
21.076032
21.133744
21.194984
21.112634
21.112634
21.182036
21.256218
21.189472
21.189472
21.27489
21.367093
21.321103
21.321103
21.429256
21.40143
21.40143
21.530075
21.67177
21.68098
21.68098
21.854647
21.899589
21.899589
22.11847
22.214269
22.214269
22.340066
22.340066
22.657804
22.853791
22.853791
23.141753
23.141753
24.141659
31.085655
31.085655
)
;
    }
    procBoundary12to13
    {
        type            processor;
        value           nonuniform List<scalar> 
60
(
24.245005
21.740739
19.995085
18.879371
18.879371
18.035653
17.639065
17.417802
17.305126
17.255464
17.239003
17.239003
17.124903
17.139937
17.163684
17.189716
17.218181
17.218181
17.138596
17.170581
17.204284
17.239706
17.239706
17.16589
17.204358
17.244763
17.287247
17.331975
17.331975
17.265917
17.314985
17.366894
17.421902
17.421902
17.364805
17.426002
17.49125
17.561044
17.561044
17.516766
17.595819
17.681134
17.681134
17.650491
17.749183
17.857054
17.857054
17.84637
17.972775
18.109922
18.109922
18.117357
18.269183
18.438396
18.438396
18.518147
19.04081
19.04081
21.459259
36.000174
)
;
    }
}


// ************************************************************************* //
