/*--------------------------------*- C++ -*----------------------------------*\
| =========                 |                                                 |
| \\      /  F ield         | OpenFOAM: The Open Source CFD Toolbox           |
|  \\    /   O peration     | Version:  2506                                  |
|   \\  /    A nd           | Website:  www.openfoam.com                      |
|    \\/     M anipulation  |                                                 |
\*---------------------------------------------------------------------------*/
FoamFile
{
    version     2.0;
    format      ascii;
    arch        "LSB;label=32;scalar=64";
    class       volScalarField;
    location    "2";
    object      Ma;
}
// * * * * * * * * * * * * * * * * * * * * * * * * * * * * * * * * * * * * * //

dimensions      [0 0 0 0 0 0 0];

internalField   nonuniform List<scalar> 
1376
(
0.29587312
0.29695761
0.29807012
0.29881899
0.29593629
0.29701259
0.29811032
0.29884561
0.29926443
0.29948271
0.29959055
0.29964353
0.29967187
0.29969019
0.29599403
0.29706183
0.29814593
0.29886866
0.29927875
0.29949192
0.29959728
0.29964944
0.29967798
0.29969709
0.29971244
0.29972529
0.29973525
0.29974197
0.29974572
0.29604769
0.29710714
0.29817874
0.29888975
0.29929156
0.29949975
0.29960249
0.29965349
0.29968163
0.29970073
0.29971624
0.29972933
0.29973966
0.29974696
0.29975155
0.29975421
0.29975554
0.29975555
0.29975414
0.29610149
0.29715375
0.29821363
0.29891292
0.29930606
0.29950879
0.2996085
0.29965801
0.29968552
0.29970439
0.29971983
0.29973287
0.29974312
0.29975038
0.29975497
0.2997577
0.29975939
0.29976043
0.29976081
0.29976048
0.29975926
0.29975675
0.29975295
0.29615826
0.29720529
0.29825413
0.29894149
0.29932526
0.29952175
0.29961778
0.29966531
0.29969183
0.2997102
0.29972533
0.29973813
0.2997482
0.29975532
0.29975979
0.2997623
0.29976365
0.29976446
0.29976498
0.29976515
0.29976488
0.29976398
0.29976229
0.29975925
0.29975458
0.29974896
0.29974373
0.29621842
0.29726213
0.29830064
0.29897624
0.29935037
0.29954022
0.29963218
0.29967745
0.29970271
0.29972027
0.29973474
0.29974696
0.29975652
0.29976324
0.29976751
0.29976993
0.29977113
0.29977159
0.29977154
0.29977115
0.2997703
0.29976899
0.29976744
0.29976582
0.29976398
0.29976056
0.29975494
0.29974938
0.29974503
0.29974137
0.29628076
0.29732216
0.29835079
0.29901536
0.29938054
0.29956424
0.29965245
0.29969559
0.29971961
0.2997362
0.29974963
0.2997607
0.29976911
0.29977468
0.29977796
0.29977988
0.29978105
0.29978153
0.2997814
0.29978067
0.29977937
0.29977741
0.29977477
0.29977182
0.29976923
0.29976708
0.29976424
0.29976029
0.29975609
0.29975268
0.29975029
0.29974911
0.29974835
0.2963435
0.29738284
0.2984011
0.29905493
0.29941217
0.29959096
0.29967657
0.29971855
0.29974203
0.29975812
0.29977065
0.29978033
0.29978703
0.29979067
0.29979208
0.29979234
0.29979226
0.29979197
0.29979164
0.29979095
0.29978981
0.29978821
0.29978585
0.29978228
0.29977794
0.29977411
0.29977113
0.29976881
0.2997665
0.2997634
0.29975923
0.29975706
0.29975765
0.29975808
0.29974821
0.29640627
0.29744385
0.29845062
0.29909287
0.29944198
0.29961614
0.29969965
0.29974101
0.29976458
0.29978092
0.29979351
0.29980283
0.2998088
0.29981156
0.29981211
0.29981052
0.29980799
0.29980541
0.29980326
0.29980141
0.29979957
0.29979761
0.29979544
0.2997926
0.29978866
0.29978416
0.29978022
0.29977763
0.29977646
0.29977549
0.29977051
0.29976411
0.29976117
0.29976116
0.29976137
0.29975649
0.29974561
0.2997377
0.29646895
0.29750539
0.29850028
0.29913044
0.299471
0.29964013
0.29972101
0.29976109
0.29978397
0.29979978
0.29981186
0.29982074
0.29982654
0.29982986
0.29983134
0.29983094
0.29982834
0.29982486
0.29982096
0.29981708
0.29981313
0.29980902
0.29980498
0.29980103
0.29979693
0.29979276
0.29978911
0.2997863
0.29978473
0.29978492
0.29978487
0.29977967
0.29976995
0.29976389
0.29976318
0.29976506
0.29976309
0.29975433
0.29974562
0.2997388
0.29652981
0.29756529
0.29854879
0.29916741
0.29949994
0.29966444
0.29974292
0.2997817
0.29980359
0.29981826
0.29982891
0.29983622
0.29984057
0.29984279
0.29984381
0.29984401
0.29984286
0.29984109
0.29983872
0.29983579
0.29983192
0.2998267
0.29982049
0.29981412
0.29980811
0.29980264
0.29979811
0.2997946
0.29979177
0.29979016
0.29979017
0.29979075
0.2997864
0.29977735
0.29977068
0.29976893
0.2997688
0.29976704
0.29976187
0.29975222
0.29974288
0.29973596
0.29658773
0.2976218
0.29859433
0.29920181
0.29952671
0.29968697
0.29976353
0.29980165
0.29982334
0.29983778
0.29984788
0.29985428
0.29985737
0.29985813
0.29985754
0.29985604
0.29985387
0.29985154
0.29984932
0.29984719
0.29984481
0.29984166
0.29983736
0.29983201
0.29982597
0.29981956
0.29981313
0.2998072
0.29980191
0.29979746
0.29979446
0.29979305
0.29979375
0.29979444
0.29978992
0.29978223
0.29977702
0.29977371
0.29977004
0.29976422
0.29975635
0.29974626
0.29973491
0.29664316
0.29767546
0.29863744
0.29923391
0.29955097
0.29970659
0.29978079
0.29981788
0.29983923
0.29985364
0.2998639
0.2998706
0.29987417
0.29987538
0.29987509
0.29987306
0.29986994
0.29986609
0.29986203
0.29985804
0.29985428
0.29985075
0.29984735
0.29984404
0.2998407
0.29983701
0.29983239
0.29982648
0.29981963
0.29981243
0.29980576
0.29980065
0.29979912
0.2997995
0.29980037
0.29979884
0.29979345
0.29978631
0.29977838
0.2997712
0.29976408
0.29975595
0.29974501
0.29973124
0.29971736
0.29669825
0.29772886
0.29868109
0.29926695
0.29957603
0.29972659
0.29979787
0.29983323
0.29985342
0.29986691
0.29987637
0.29988247
0.2998858
0.29988725
0.29988768
0.29988705
0.29988564
0.29988338
0.29988001
0.29987546
0.29987019
0.29986488
0.29985987
0.29985537
0.29985149
0.29984816
0.29984511
0.29984184
0.29983785
0.29983269
0.29982611
0.29981894
0.299813
0.29980868
0.29980645
0.29980431
0.29980183
0.29979827
0.29979197
0.29978294
0.29977036
0.29975918
0.29975141
0.29974037
0.29972349
0.29971146
0.29675563
0.29778459
0.29872782
0.29930366
0.2996049
0.29975031
0.29981846
0.29985187
0.29987061
0.29988278
0.29989091
0.29989561
0.29989753
0.29989786
0.29989722
0.29989594
0.2998945
0.29989307
0.29989148
0.29988941
0.29988665
0.29988318
0.299879
0.29987421
0.29986902
0.2998637
0.29985857
0.29985388
0.29984984
0.29984644
0.29984304
0.29983927
0.29983362
0.29982683
0.29982015
0.29981328
0.29980708
0.29980118
0.29979726
0.29979521
0.29978291
0.29976605
0.29975475
0.29974643
0.29973184
0.29971848
0.29970454
0.29975833
0.2968153
0.29784205
0.29877641
0.29934277
0.29963664
0.29977723
0.29984251
0.29987416
0.29989164
0.29990268
0.29990959
0.299913
0.29991383
0.29991294
0.29991097
0.29990829
0.29990551
0.2999028
0.29990021
0.29989774
0.29989549
0.29989351
0.29989172
0.29988998
0.29988801
0.29988518
0.2998808
0.29987487
0.29986798
0.29986135
0.29985586
0.29985165
0.29984685
0.29984191
0.29983576
0.29982829
0.29981878
0.29980785
0.29979939
0.2997945
0.29979184
0.29978051
0.29976397
0.29975193
0.29973645
0.29972418
0.29971629
0.29976249
0.29984147
0.29687646
0.29789978
0.29882493
0.29938218
0.2996693
0.29980563
0.29986843
0.29989862
0.29991506
0.29992512
0.29993093
0.29993325
0.29993356
0.29993194
0.29992925
0.29992596
0.29992251
0.29991896
0.29991531
0.29991163
0.29990808
0.2999048
0.29990189
0.29989937
0.29989747
0.29989645
0.29989618
0.29989596
0.2998939
0.29988744
0.29987782
0.29986743
0.29985813
0.29985064
0.29984339
0.29983713
0.29983005
0.29982042
0.29980798
0.29979713
0.29979206
0.29978802
0.29977751
0.29976053
0.29974232
0.29972925
0.29973141
0.29976899
0.29984073
0.29693933
0.29795826
0.29887374
0.29942209
0.29970306
0.29983577
0.29989662
0.29992575
0.29994136
0.29995049
0.29995521
0.29995659
0.2999561
0.29995344
0.29994986
0.29994605
0.29994228
0.29993867
0.29993518
0.29993175
0.29992822
0.29992446
0.29992044
0.29991614
0.29991179
0.29990799
0.29990525
0.29990382
0.29990368
0.29990403
0.29990292
0.29989389
0.29987933
0.29986485
0.29985257
0.29984304
0.29983501
0.29982825
0.29981964
0.29980755
0.29979735
0.29979114
0.29978313
0.29976809
0.29974999
0.29973764
0.29974762
0.29977643
0.29984049
0.29700267
0.29801653
0.29892186
0.29946131
0.29973661
0.29986637
0.29992596
0.29995468
0.29997012
0.29997888
0.29998312
0.29998426
0.29998325
0.29997938
0.29997454
0.29996942
0.2999644
0.29995974
0.29995562
0.29995212
0.29994906
0.29994621
0.29994325
0.29993979
0.29993536
0.29992977
0.29992336
0.2999171
0.29991217
0.29990878
0.29990641
0.2999041
0.29989917
0.29988716
0.29987212
0.29985661
0.29984307
0.2998329
0.29982448
0.29981626
0.29980759
0.29979812
0.29978821
0.29977361
0.29975632
0.29974616
0.29976101
0.29977885
0.29984033
0.29706539
0.29807367
0.29896852
0.29949884
0.29976843
0.29989532
0.29995378
0.29998222
0.29999766
0.30000641
0.30001069
0.3000121
0.30001161
0.30000785
0.30000275
0.2999969
0.29999073
0.29998457
0.29997873
0.29997346
0.29996876
0.29996458
0.29996083
0.29995743
0.29995409
0.29995035
0.29994549
0.29993856
0.29992984
0.29992078
0.29991257
0.29990661
0.29990148
0.29989498
0.29988673
0.29987483
0.29986057
0.29984604
0.2998329
0.29982171
0.29981274
0.29980468
0.2997947
0.29978048
0.29976337
0.29975368
0.29976931
0.29977878
0.29983901
0.29712873
0.29813146
0.29901608
0.29953718
0.29980085
0.29992455
0.29998153
0.30000925
0.3000242
0.30003246
0.30003617
0.30003715
0.30003659
0.30003333
0.30002868
0.3000232
0.30001715
0.30001077
0.30000419
0.29999748
0.29999077
0.29998416
0.29997773
0.29997174
0.29996628
0.29996119
0.29995621
0.29995096
0.29994475
0.29993704
0.29992784
0.29991856
0.29990939
0.29989988
0.29988999
0.2998803
0.2998713
0.29986164
0.29984992
0.29983615
0.29982213
0.29980986
0.2997988
0.29978608
0.29977126
0.29976345
0.29977652
0.29978255
0.29983522
0.2971927
0.29819004
0.29906514
0.29957758
0.29983552
0.29995606
0.30001145
0.30003826
0.30005242
0.3000598
0.30006242
0.30006237
0.30006052
0.30005671
0.30005164
0.30004593
0.30003986
0.30003364
0.3000273
0.30002067
0.3000137
0.3000063
0.29999846
0.29999037
0.29998229
0.29997442
0.29996692
0.29995993
0.29995329
0.29994658
0.29993945
0.29993249
0.29992514
0.29991574
0.29990353
0.29989009
0.2998768
0.2998654
0.29985734
0.29984969
0.29983783
0.29982209
0.29980641
0.29979147
0.29977778
0.29976987
0.2997825
0.29979481
0.29983427
0.29725536
0.29824668
0.29911255
0.29961677
0.29986934
0.29998698
0.30004098
0.30006711
0.30008075
0.30008753
0.30008959
0.30008886
0.30008578
0.30008117
0.30007531
0.30006877
0.30006185
0.30005483
0.30004781
0.30004076
0.30003367
0.30002644
0.30001887
0.30001088
0.30000243
0.29999355
0.29998461
0.29997615
0.29996814
0.29995978
0.29995045
0.29994166
0.29993518
0.29993004
0.29992253
0.29991098
0.29989495
0.29987833
0.29986456
0.2998539
0.29984357
0.29983233
0.29981709
0.29980138
0.29978591
0.29977574
0.29978696
0.29980821
0.29983559
0.29731742
0.29830175
0.2991583
0.29965428
0.29990135
0.30001592
0.30006841
0.30009382
0.30010705
0.30011347
0.30011532
0.30011455
0.30011105
0.30010615
0.3001001
0.30009324
0.30008576
0.30007786
0.3000697
0.30006137
0.30005297
0.30004455
0.30003606
0.30002738
0.30001862
0.30000985
0.30000111
0.2999928
0.29998576
0.29998024
0.29997353
0.29996064
0.29994627
0.29993642
0.29992914
0.29992122
0.2999126
0.29990133
0.29988413
0.29986742
0.29985217
0.29983749
0.29982199
0.29980698
0.29979423
0.29978536
0.29979242
0.29981668
0.29983837
0.29738146
0.29835843
0.29920601
0.29969394
0.29993521
0.30004621
0.3000966
0.30012069
0.30013298
0.3001386
0.30013991
0.30013897
0.30013544
0.30013052
0.30012477
0.30011836
0.30011128
0.30010348
0.30009501
0.300086
0.30007649
0.30006661
0.30005655
0.30004632
0.30003602
0.30002588
0.30001586
0.30000584
0.2999964
0.29998933
0.29998636
0.29998442
0.29997294
0.29995569
0.29994182
0.29992909
0.29991682
0.29990516
0.29989535
0.29988405
0.29987081
0.29985425
0.2998317
0.29980981
0.29979634
0.29978545
0.29979888
0.29982501
0.29984437
0.29744659
0.29841659
0.29925616
0.29973684
0.29997265
0.30008
0.30012802
0.30015044
0.30016137
0.30016582
0.30016641
0.30016474
0.30016082
0.30015556
0.30014975
0.30014358
0.30013703
0.3001299
0.30012202
0.30011344
0.30010412
0.30009404
0.3000834
0.30007233
0.30006092
0.30004932
0.30003753
0.30002529
0.30001254
0.30000028
0.29999135
0.29998766
0.29998656
0.29998069
0.29996864
0.29995494
0.29993405
0.2999143
0.29989991
0.29988651
0.29987706
0.29986641
0.29984834
0.29982484
0.29980181
0.29978724
0.29980395
0.2998289
0.29985243
0.29751114
0.29847528
0.29930769
0.29978193
0.30001306
0.30011729
0.30016328
0.30018425
0.30019392
0.30019726
0.30019732
0.30019477
0.30019015
0.30018419
0.30017772
0.30017096
0.30016401
0.30015672
0.30014889
0.30014041
0.30013123
0.30012131
0.30011071
0.30009955
0.30008804
0.3000765
0.30006513
0.3000534
0.30004025
0.30002491
0.30000866
0.29999615
0.29998992
0.29998472
0.29997738
0.2999709
0.29996137
0.29994602
0.29992253
0.29989934
0.29988234
0.29986694
0.2998551
0.29983822
0.29981438
0.29980083
0.29980925
0.29982933
0.2998585
0.29757637
0.29853635
0.29936186
0.29982973
0.30005634
0.30015767
0.30020188
0.30022161
0.30023021
0.30023274
0.3002325
0.30022951
0.30022451
0.30021828
0.3002114
0.30020412
0.30019655
0.30018862
0.30018021
0.30017114
0.30016137
0.30015088
0.30013963
0.30012776
0.30011543
0.30010292
0.30009092
0.30007983
0.30006905
0.3000573
0.30004262
0.30002461
0.30000798
0.29999494
0.29998274
0.29997206
0.29996645
0.29996157
0.29995107
0.29993175
0.29990353
0.29987997
0.29986283
0.29984084
0.29982282
0.29981504
0.2998212
0.29983539
0.29986411
0.30020173
0.30024408
0.30026235
0.3002696
0.30027133
0.30027043
0.30026687
0.30026155
0.30025539
0.30024872
0.30024175
0.30023447
0.30022678
0.30021855
0.30020948
0.30019951
0.30018865
0.30017666
0.30016349
0.30014936
0.30013448
0.30011932
0.30010492
0.30009188
0.30008032
0.30007002
0.30005908
0.30004506
0.30002871
0.30001004
0.29998957
0.29997521
0.2999637
0.2999546
0.29994731
0.29992959
0.29990884
0.29988319
0.29985288
0.29983156
0.29982035
0.29983551
0.29983857
0.29987211
0.30030825
0.30030181
0.30029477
0.3002874
0.30027986
0.30027214
0.30026419
0.30025588
0.30024703
0.30023749
0.30022721
0.30021619
0.30020404
0.30019026
0.30017471
0.30015727
0.30013842
0.30011946
0.30010146
0.30008573
0.30007312
0.3000635
0.30005652
0.30004979
0.3000362
0.30001329
0.29998777
0.29996756
0.29995429
0.29993859
0.29991987
0.29989746
0.29987288
0.29984806
0.29983409
0.29984552
0.29983613
0.29988202
0.30031325
0.30030375
0.300294
0.30028391
0.30027344
0.30026244
0.30025097
0.30023914
0.30022658
0.30021283
0.30019767
0.30018071
0.30016168
0.30014059
0.30011802
0.30009628
0.30007808
0.30006468
0.30005672
0.30005205
0.30004521
0.30002952
0.30000479
0.29997983
0.29995842
0.29993028
0.29990076
0.29987849
0.2998591
0.29985035
0.29985636
0.29984195
0.29989442
0.30031723
0.30030448
0.30029085
0.30027646
0.30026175
0.30024686
0.30023185
0.30021711
0.30020247
0.30018774
0.3001712
0.30015024
0.30012379
0.30009703
0.300076
0.30006143
0.30004908
0.30003897
0.30002646
0.30000909
0.29999088
0.29995652
0.2999183
0.29988978
0.2998671
0.29985247
0.29986439
0.29985089
0.29990961
0.30029162
0.30027237
0.30025038
0.30022883
0.30021021
0.30019636
0.30018523
0.30017191
0.30015321
0.30012793
0.30010022
0.30007768
0.30005815
0.30003819
0.30001867
0.2999997
0.29997646
0.29994321
0.29990908
0.29988247
0.2998616
0.29987022
0.29985071
0.29992336
0.30024295
0.30021351
0.30019114
0.3001754
0.3001616
0.30014814
0.30013331
0.30011756
0.30009674
0.30007127
0.30004297
0.30001268
0.29998812
0.29995519
0.29991777
0.29989061
0.29987578
0.2998787
0.29985538
0.29993491
0.30017341
0.30015237
0.30013401
0.30011508
0.30010118
0.30008932
0.30006713
0.30003429
0.30000596
0.29997806
0.29993834
0.29990142
0.29988101
0.29988563
0.29986738
0.2999466
0.30013022
0.30010843
0.30008966
0.30006772
0.30004059
0.30001239
0.29999168
0.29996772
0.29992958
0.29989737
0.29989504
0.29986662
0.29995819
0.30008388
0.30005544
0.30002322
0.29999287
0.29996632
0.29994452
0.29992903
0.29992117
0.29986993
0.29996993
0.30000732
0.2999741
0.29995067
0.29994321
0.29995249
0.29988748
0.29998663
0.29995083
0.29997262
0.29989142
0.30000629
0.29988515
0.30002388
0.29588325
)
;

boundaryField
{
    Side
    {
        type            empty;
    }
    Inlet
    {
        type            calculated;
        value           nonuniform List<scalar> 
25
(
0.29968146
0.29968102
0.29968081
0.29968075
0.29968004
0.299678
0.29967732
0.29967793
0.29967934
0.29968242
0.29968659
0.29968975
0.29969263
0.29969665
0.29970163
0.29970785
0.29971559
0.29972247
0.29972807
0.29973376
0.29973941
0.29974511
0.29975352
0.29976338
0.29977203
)
;
    }
    Airfoil
    {
        type            calculated;
        value           nonuniform List<scalar> 0();
    }
    Outlet
    {
        type            calculated;
        value           nonuniform List<scalar> 0();
    }
    procBoundary12to4
    {
        type            processor;
        value           uniform 0.29581316;
    }
    procBoundary12to5
    {
        type            processor;
        value           nonuniform List<scalar> 
30
(
0.29595185
0.29601681
0.29607821
0.29613889
0.29620006
0.29626104
0.29632072
0.29637804
0.29643351
0.2964887
0.29654379
0.29659792
0.29665088
0.29670483
0.29676195
0.29682131
0.29688197
0.29694425
0.29700674
0.2970687
0.29713253
0.29719917
0.29726631
0.29733436
0.29740609
0.29747899
0.29754897
0.29761782
0.29697861
0.29595185
)
;
    }
    procBoundary12to6
    {
        type            processor;
        value           uniform 0.29764102;
    }
    procBoundary12to11
    {
        type            processor;
        value           nonuniform List<scalar> 
65
(
0.29580505
0.29689693
0.29802481
0.29878785
0.29924704
0.29924704
0.29947034
0.29958007
0.29963291
0.29966006
0.29967691
0.29970445
0.29970445
0.29971612
0.29972498
0.29973088
0.29973422
0.29974719
0.29974719
0.29974711
0.29974557
0.29974325
0.29975197
0.29975197
0.29974932
0.29974611
0.29974258
0.29974832
0.29974832
0.29974362
0.29973942
0.2997356
0.29973923
0.29973923
0.29973519
0.29973091
0.29973893
0.29973893
0.2997365
0.29973274
0.29974113
0.29974113
0.29973248
0.29973723
0.29973723
0.29973174
0.29972898
0.29973324
0.29973324
0.29973067
0.29973349
0.29973349
0.29973051
0.29972922
0.29972922
0.29972474
0.29972474
0.29971508
0.29970668
0.29970668
0.29969828
0.29969828
0.29975589
0.2998394
0.2998394
)
;
    }
    procBoundary12to13
    {
        type            processor;
        value           nonuniform List<scalar> 
60
(
0.29859943
0.29941899
0.29988099
0.30010325
0.30010325
0.30025058
0.30029161
0.3003087
0.30031449
0.30031528
0.3003131
0.3003131
0.300357
0.30034924
0.30034079
0.3003319
0.30032268
0.30032268
0.30036151
0.30035116
0.30034047
0.30032922
0.30032922
0.30036054
0.30034868
0.30033615
0.30032272
0.30030805
0.30030805
0.30033092
0.30031849
0.300302
0.30027572
0.30027572
0.30030919
0.30027168
0.30023181
0.30019977
0.30019977
0.30022442
0.30018972
0.30015966
0.30015966
0.30018098
0.30014456
0.30011223
0.30011223
0.30012653
0.3000915
0.30005172
0.30005172
0.30004462
0.29999948
0.29996602
0.29996602
0.29996485
0.2999877
0.2999877
0.29989317
0.30003984
)
;
    }
}


// ************************************************************************* //
