/*--------------------------------*- C++ -*----------------------------------*\
| =========                 |                                                 |
| \\      /  F ield         | OpenFOAM: The Open Source CFD Toolbox           |
|  \\    /   O peration     | Version:  2506                                  |
|   \\  /    A nd           | Website:  www.openfoam.com                      |
|    \\/     M anipulation  |                                                 |
\*---------------------------------------------------------------------------*/
FoamFile
{
    version     2.0;
    format      ascii;
    arch        "LSB;label=32;scalar=64";
    class       volVectorField;
    location    "2";
    object      U;
}
// * * * * * * * * * * * * * * * * * * * * * * * * * * * * * * * * * * * * * //

dimensions      [0 1 -1 0 0 0 0];

internalField   nonuniform List<vector> 
1376
(
(93.147783 0.010340204 0)
(93.492355 0.0014510915 0)
(93.847244 0.002076563 1.2262597e-17)
(94.083174 0.0029647077 6.0289585e-18)
(93.170604 0.008746845 0)
(93.514336 -0.00020036149 0)
(93.863655 0.00082272599 -3.5619605e-23)
(94.094006 0.0018555708 1.7713964e-17)
(94.222646 0.0026449066 -1.7406741e-17)
(94.288265 0.0031381317 1.1392946e-17)
(94.320038 0.0033176797 -1.4607522e-23)
(94.335483 0.0032515973 0)
(94.343879 0.0030083894 -3.2201238e-17)
(94.349597 0.0026265728 2.1009575e-17)
(93.190876 0.0051172829 1.2102037e-17)
(93.533381 -0.0038305611 0)
(93.877732 -0.0022803006 -2.9393513e-17)
(94.103342 -0.00089804711 -5.7846047e-18)
(94.228797 0.0002873446 4.3308297e-23)
(94.292603 0.0011601232 -1.1170627e-17)
(94.323461 0.0016252383 -3.7786519e-23)
(94.338496 0.0018109823 1.0748912e-17)
(94.346724 0.0018081906 1.0531324e-17)
(94.352361 0.0017278188 0)
(94.357042 0.0016144358 -3.024195e-17)
(94.361111 0.001412773 9.8475593e-18)
(94.364457 0.0010494829 -1.921955e-17)
(94.366962 0.00048730166 3.7469016e-17)
(94.368621 -0.00026042955 -1.8239009e-17)
(93.209295 0.0020987232 1.4804604e-18)
(93.550513 -0.0079259394 -1.4606472e-18)
(93.890414 -0.005869236 2.3027189e-17)
(94.111736 -0.0050885507 -5.6664248e-18)
(94.234319 -0.0041975924 1.6717949e-17)
(94.296507 -0.0034056699 -1.0951838e-17)
(94.32657 -0.0028083843 1.0753126e-17)
(94.341271 -0.0024034344 0)
(94.349394 -0.0021182159 -1.0341375e-17)
(94.355016 -0.0018576013 0)
(94.359682 -0.0015766914 1.981376e-17)
(94.363686 -0.0012587984 0)
(94.366912 -0.000892981 3.7797939e-17)
(94.369288 -0.00052311051 -1.8428073e-17)
(94.370885 -0.0002603451 1.7949591e-17)
(94.371837 -0.00011672436 -1.997725e-23)
(94.37231 -0.0003361011 -1.6962112e-17)
(94.372481 -0.00088700101 1.6480893e-17)
(94.372411 -0.0017662178 5.8169593e-24)
(93.226935 0.0056876754 -1.1594837e-17)
(93.567264 -0.0058496372 -1.1442616e-17)
(93.903253 -0.0047640029 -1.6916014e-17)
(94.120502 -0.0053272371 -5.5513689e-18)
(94.240186 -0.0056112067 0)
(94.30065 -0.0058695411 -1.0735254e-17)
(94.329804 -0.0061639339 -2.1088913e-17)
(94.344073 -0.0064950277 -2.0699026e-17)
(94.352002 -0.0067603224 0)
(94.357522 -0.0069323042 0)
(94.362107 -0.0069863478 0)
(94.366021 -0.0069029426 0)
(94.369139 -0.0066760775 -1.8591603e-17)
(94.371398 -0.0062636176 -3.6275909e-17)
(94.372897 -0.0056946737 0)
(94.373814 -0.0051388878 -1.7205334e-17)
(94.374312 -0.0044848634 1.5026076e-23)
(94.374546 -0.0038407262 0)
(94.374624 -0.0033554492 3.1526319e-17)
(94.374538 -0.0030715281 -3.0569176e-17)
(94.374196 -0.0026278004 2.9565044e-17)
(94.373775 -0.0036022535 -2.8579104e-17)
(94.373288 -0.0057434204 -1.3790965e-17)
(93.2447 0.012000797 0)
(93.584577 0.0005550223 1.1209583e-17)
(93.917255 0.0012739881 5.5254686e-18)
(94.130768 -7.0417698e-05 -1.0882639e-17)
(94.247564 -0.0014004904 8.2040998e-24)
(94.30615 -0.0029178797 5.2637151e-18)
(94.334214 -0.0046030993 1.1698617e-23)
(94.347891 -0.0062746239 3.0464905e-17)
(94.355479 -0.007800078 -9.962718e-18)
(94.360748 -0.0091288261 -1.666961e-23)
(94.365089 -0.010208554 9.5623604e-18)
(94.368742 -0.01104754 -1.8707977e-17)
(94.3716 -0.011677509 3.6562202e-17)
(94.373624 -0.012040292 1.7844589e-17)
(94.374931 -0.012077445 1.739935e-17)
(94.375718 -0.011884338 -1.6946211e-17)
(94.376179 -0.011713117 1.6484133e-17)
(94.37644 -0.011095427 0)
(94.376554 -0.010330264 -1.5534038e-17)
(94.376584 -0.0098009321 0)
(94.376505 -0.0089940965 -2.8442204e-23)
(94.376259 -0.0077253239 2.8207552e-17)
(94.376146 -0.0079003607 -1.8037089e-23)
(94.376182 -0.0088586957 -1.3150708e-17)
(94.375172 -0.0070050311 0)
(94.373238 -0.0084380989 4.8683139e-17)
(94.372144 -0.011800203 -1.170588e-17)
(93.263182 0.013963414 0)
(93.602641 0.0031930488 1.098547e-17)
(93.932288 0.0044127698 0)
(94.142475 0.0038494131 1.0673696e-17)
(94.256709 0.0031858372 1.5759493e-17)
(94.31359 0.0018950147 -2.5833153e-17)
(94.340605 0.0001009597 -1.015555e-17)
(94.353638 -0.0019320116 2.9921642e-17)
(94.36077 -0.0041299443 1.9575956e-17)
(94.365631 -0.006375836 -1.9193878e-17)
(94.369537 -0.0085248715 -1.8800698e-17)
(94.372718 -0.010512453 3.6793697e-17)
(94.375103 -0.012344164 -3.5966108e-17)
(94.376697 -0.013921222 -5.2680671e-17)
(94.377653 -0.015189775 1.7129552e-17)
(94.378193 -0.016073347 -1.6691584e-17)
(94.378517 -0.016766111 -1.6245044e-17)
(94.378731 -0.017195936 1.5787484e-17)
(94.378842 -0.01722415 0)
(94.378865 -0.016960747 2.9574179e-23)
(94.378852 -0.016840236 -2.885791e-17)
(94.378658 -0.016113514 -1.3941246e-17)
(94.37833 -0.015092057 -1.3461368e-17)
(94.378317 -0.01499365 2.6002521e-17)
(94.378522 -0.015468413 1.2551356e-17)
(94.377553 -0.0115833 -1.2076453e-17)
(94.375842 -0.011525416 0)
(94.375101 -0.01330799 -1.1154391e-17)
(94.374746 -0.01503424 -1.0702834e-17)
(94.372189 -0.014411032 2.0466234e-17)
(93.28251 0.011972609 0)
(93.62115 0.0011042103 -3.0535046e-23)
(93.947327 0.0027555352 0)
(94.154074 0.0027017854 1.5707668e-17)
(94.265912 0.0026623101 -1.5469667e-17)
(94.321433 0.002092292 4.0595312e-17)
(94.347797 0.0012203868 1.9958435e-17)
(94.360523 5.2230512e-05 -3.9218873e-17)
(94.367443 -0.0014251831 9.6252522e-18)
(94.372037 -0.0031058818 -2.832114e-17)
(94.375557 -0.0049140724 2.0347922e-23)
(94.378247 -0.006788303 -1.8107917e-17)
(94.380085 -0.0087530119 -1.7705517e-17)
(94.381143 -0.010781968 5.1879766e-17)
(94.381628 -0.012581308 -1.6872118e-17)
(94.381806 -0.014887296 1.6440128e-17)
(94.381862 -0.016698159 1.6003026e-17)
(94.381871 -0.018308878 -1.5582638e-17)
(94.381849 -0.019908812 1.5151515e-17)
(94.381767 -0.0208827 1.4698504e-17)
(94.381644 -0.021612671 -2.8497699e-17)
(94.381452 -0.022308646 1.3792853e-17)
(94.380975 -0.022104229 -1.3325117e-17)
(94.380349 -0.021578417 2.5727859e-17)
(94.380051 -0.021618454 -2.4858305e-17)
(94.379878 -0.021782953 1.1984649e-17)
(94.378858 -0.017372575 -1.1509658e-17)
(94.377437 -0.01752785 -4.4211838e-17)
(94.377131 -0.019016602 5.9826624e-24)
(94.376995 -0.01737081 2.0392143e-17)
(94.374144 -0.013926037 -2.0159925e-23)
(94.371022 -0.019528641 -1.8603466e-17)
(94.369664 -0.022692755 1.7802403e-17)
(93.30276 0.011111968 9.3520446e-18)
(93.640161 -0.00054536097 -9.2394593e-18)
(93.962225 0.00088223779 0)
(94.164998 0.00072251407 -2.0547678e-17)
(94.274069 0.00037284422 5.0610677e-18)
(94.328046 -0.00036629988 -3.487912e-17)
(94.353742 -0.0012310788 -9.8041167e-18)
(94.366295 -0.0023482393 3.8550478e-17)
(94.37324 -0.0036278148 0)
(94.37785 -0.0049692494 1.8576262e-17)
(94.381272 -0.0063360992 1.8209658e-17)
(94.383746 -0.0076974253 1.7831912e-17)
(94.385304 -0.0090106668 0)
(94.386084 -0.010260311 0)
(94.386342 -0.011245981 -1.010841e-23)
(94.386305 -0.012663826 1.6245333e-17)
(94.386158 -0.013757619 1.581938e-17)
(94.38599 -0.015084937 -1.5393141e-17)
(94.385783 -0.016674997 2.8668485e-23)
(94.385462 -0.018370943 -2.9038596e-17)
(94.385023 -0.02012067 5.6307415e-17)
(94.384523 -0.0221879 -2.726854e-17)
(94.38384 -0.024442316 0)
(94.382849 -0.025211384 -1.2729772e-17)
(94.381859 -0.025988138 -2.487486e-23)
(94.381262 -0.026327701 3.5550064e-17)
(94.380767 -0.028005815 0)
(94.379447 -0.023915698 2.1912922e-17)
(94.377931 -0.024034063 2.1029346e-17)
(94.377651 -0.025666038 -2.0210835e-17)
(94.377948 -0.022732934 -8.7732834e-23)
(94.375544 -0.017517667 -1.8512916e-17)
(94.372748 -0.020689361 0)
(94.371409 -0.023363413 0)
(94.37029 -0.025444126 0)
(93.323077 0.0092082551 -1.048208e-17)
(93.658953 -0.0018991073 0)
(93.976729 0.00064602665 2.0448379e-17)
(94.175416 0.0012926853 0)
(94.281589 0.0012892625 1.490443e-17)
(94.333842 0.0010378357 -1.4677681e-17)
(94.358663 0.00037988031 0)
(94.370875 -0.00073297028 -1.8938845e-17)
(94.377732 -0.0021416457 -9.3038822e-18)
(94.382305 -0.0037808838 1.8265304e-17)
(94.38562 -0.0055415011 4.4779238e-17)
(94.387903 -0.0073615389 -3.5094848e-17)
(94.38926 -0.0092290038 1.7172081e-17)
(94.389887 -0.010976971 0)
(94.390049 -0.012193378 -3.2809455e-17)
(94.389932 -0.014392711 1.6016177e-17)
(94.38975 -0.015437968 -8.909194e-24)
(94.389623 -0.0167903 1.5201985e-17)
(94.389523 -0.017841165 1.4786634e-17)
(94.389294 -0.018531183 1.4357322e-17)
(94.388827 -0.019054056 -1.3922038e-17)
(94.388117 -0.019825574 -4.9515618e-25)
(94.387192 -0.021331991 -1.3046469e-17)
(94.385952 -0.023038893 -1.2603215e-17)
(94.384538 -0.024843493 -7.294441e-17)
(94.383348 -0.026463579 -1.1719074e-17)
(94.382526 -0.02795475 2.2593564e-17)
(94.381562 -0.030091121 -4.9900958e-23)
(94.379759 -0.028531201 2.0829426e-17)
(94.378237 -0.02825344 0)
(94.378001 -0.03018907 1.9215803e-17)
(94.377843 -0.027668185 -1.8449338e-17)
(94.375963 -0.023526759 1.7598908e-17)
(94.37367 -0.023300365 1.6803139e-17)
(94.372395 -0.025115229 1.6058727e-17)
(94.371298 -0.024670112 6.892772e-17)
(94.369964 -0.026647653 3.6438421e-17)
(94.366991 -0.030570502 -1.5883622e-22)
(93.341797 0.0031489338 -2.1848774e-17)
(93.675732 -0.0079699122 -1.2704087e-18)
(93.989378 -0.0046152133 2.5085509e-18)
(94.184268 -0.0033123778 1.9798055e-17)
(94.287839 -0.0023428903 -9.7583808e-18)
(94.338564 -0.0013514542 3.8452891e-17)
(94.36263 -0.00081024778 -4.0257804e-23)
(94.374594 -0.00061622476 9.3089717e-18)
(94.381474 -0.00073045129 -9.1490557e-18)
(94.386162 -0.0012296607 -2.694939e-17)
(94.389554 -0.0021578832 -1.7622293e-17)
(94.391802 -0.0035154307 1.7266391e-17)
(94.393018 -0.0054088737 -1.689688e-17)
(94.393447 -0.0075579382 1.6540812e-17)
(94.393416 -0.0093095646 9.5775177e-24)
(94.393039 -0.01226645 1.5776638e-17)
(94.392585 -0.013977151 -1.538082e-17)
(94.392262 -0.01603049 -2.9968016e-17)
(94.392092 -0.018181791 0)
(94.391961 -0.02021002 0)
(94.391689 -0.021472178 0)
(94.391134 -0.022343948 -1.3343194e-17)
(94.390348 -0.023794327 2.5835701e-17)
(94.389323 -0.024213596 4.9950601e-17)
(94.387968 -0.024007643 2.4105843e-17)
(94.386549 -0.02486955 -7.2298021e-23)
(94.385272 -0.024657632 -2.2382587e-17)
(94.384128 -0.027997512 -2.1546399e-17)
(94.382616 -0.029191551 -4.9650485e-23)
(94.380523 -0.029709232 1.9826064e-17)
(94.378937 -0.030736359 3.796095e-17)
(94.378433 -0.032636855 3.6550493e-17)
(94.377617 -0.032053455 -5.2504958e-17)
(94.375797 -0.030329672 -3.3414516e-17)
(94.373892 -0.028088686 -1.5941277e-17)
(94.372835 -0.028474629 -3.0444071e-17)
(94.372869 -0.027646206 -2.9091998e-17)
(94.371844 -0.024798227 -2.0747046e-17)
(94.367877 -0.027539006 -1.313162e-17)
(94.364586 -0.033643257 -3.2060202e-23)
(93.358607 0.00038467401 2.0170433e-17)
(93.690196 -0.012058272 1.9942346e-17)
(93.999917 -0.0086482235 -1.9693906e-17)
(94.19124 -0.0082760169 -1.4574017e-17)
(94.292422 -0.0075731648 -4.7901534e-18)
(94.34176 -0.0068021029 0)
(94.365145 -0.0062108161 -2.788889e-17)
(94.376861 -0.0056876812 9.1482298e-18)
(94.383749 -0.0051926423 0)
(94.388604 -0.0046939845 -8.8377052e-18)
(94.392265 -0.0042166856 2.6021758e-17)
(94.394838 -0.0038373546 4.3876575e-23)
(94.396364 -0.0036960996 -3.3307839e-17)
(94.397059 -0.0040677823 1.6287518e-17)
(94.397213 -0.0046116939 0)
(94.396932 -0.0062744685 1.5561864e-17)
(94.396286 -0.0080902691 -1.5170948e-17)
(94.395626 -0.010633573 1.2158149e-23)
(94.395085 -0.013615036 1.4385637e-17)
(94.394613 -0.016658799 0)
(94.394041 -0.019542689 0)
(94.393287 -0.021931904 1.317753e-17)
(94.392402 -0.02383457 -1.2769129e-17)
(94.391508 -0.026268172 -2.4719986e-17)
(94.390561 -0.027887519 -2.3889535e-17)
(94.389448 -0.02827044 -5.5923011e-23)
(94.388378 -0.030911675 2.2217907e-17)
(94.387259 -0.026285591 2.138903e-17)
(94.386063 -0.029727069 -2.0566128e-17)
(94.384376 -0.029024084 -1.9733224e-17)
(94.382064 -0.029089934 -1.8895774e-17)
(94.38028 -0.031032101 -5.428919e-17)
(94.379009 -0.033422057 3.4709413e-17)
(94.377562 -0.034237089 1.6602543e-17)
(94.375845 -0.034775863 -6.338664e-17)
(94.37431 -0.033599798 0)
(94.373346 -0.033631393 0)
(94.373477 -0.035009132 0)
(94.37194 -0.027036823 0)
(94.367606 -0.031125189 0)
(94.364425 -0.033801963 4.1400888e-17)
(94.361763 -0.033679473 5.6212566e-18)
(93.374542 0.0033275295 0)
(93.703861 -0.010552228 -3.6687445e-17)
(94.010028 -0.0075947296 -2.4155663e-18)
(94.197963 -0.0084856814 0)
(94.296791 -0.0087734591 -1.8802337e-17)
(94.344749 -0.0090920848 0)
(94.367426 -0.0094323586 -1.8246174e-17)
(94.3788 -0.0097721895 8.9791924e-18)
(94.385523 -0.010074403 -1.7663665e-17)
(94.3903 -0.010269985 5.2081833e-17)
(94.393947 -0.01030887 -2.5572506e-17)
(94.396594 -0.010203259 5.1341668e-23)
(94.398301 -0.0099345387 -1.6394507e-17)
(94.399257 -0.0094467108 -4.5607759e-23)
(94.399736 -0.0087217395 1.5695753e-17)
(94.399876 -0.0080553321 -3.0692796e-17)
(94.399696 -0.0072883689 -1.498611e-17)
(94.399345 -0.0067744387 -1.8947654e-23)
(94.398965 -0.0069731662 2.8438604e-17)
(94.398582 -0.0082924989 -4.1487161e-17)
(94.397907 -0.010222456 -1.3426764e-17)
(94.396695 -0.013681017 -1.3018303e-17)
(94.395143 -0.017642822 2.5221541e-17)
(94.393699 -0.02212315 -2.4416417e-17)
(94.392562 -0.026775011 2.3619019e-17)
(94.391498 -0.029391837 -1.044187e-23)
(94.390197 -0.029546409 -2.2006757e-17)
(94.38908 -0.035536621 -2.1207532e-17)
(94.388239 -0.033120351 0)
(94.387226 -0.034491153 1.9627461e-17)
(94.385733 -0.03371031 5.6319384e-23)
(94.383798 -0.031447121 5.4055443e-17)
(94.381843 -0.031106268 -3.4480438e-17)
(94.380044 -0.03242344 1.6494118e-17)
(94.378456 -0.035119759 3.1529041e-17)
(94.376813 -0.036396948 0)
(94.374499 -0.036141249 0)
(94.373193 -0.037158384 3.4010825e-17)
(94.372715 -0.037672312 -6.5513865e-18)
(94.370692 -0.029703392 0)
(94.367084 -0.036249974 -4.1284867e-17)
(94.363818 -0.035383536 -5.6028564e-18)
(94.36006 -0.035439505 0)
(93.390175 0.0074285771 0)
(93.717703 -0.0066930763 2.1605724e-17)
(94.020936 -0.0036146295 2.3713026e-18)
(94.205804 -0.0048460542 1.8721047e-17)
(94.302329 -0.0057945991 1.3846527e-17)
(94.348898 -0.0068968572 1.8194615e-17)
(94.370856 -0.008126477 3.5841456e-17)
(94.381887 -0.0094116042 0)
(94.388429 -0.010711673 0)
(94.393069 -0.011962405 -1.7056594e-17)
(94.396574 -0.013093532 0)
(94.399082 -0.01410868 1.0605257e-23)
(94.400678 -0.015058353 1.6115469e-17)
(94.401524 -0.015818927 -1.1614778e-23)
(94.401841 -0.016218388 -1.544154e-17)
(94.401877 -0.016583746 3.0219578e-17)
(94.401768 -0.016757489 -1.4769761e-17)
(94.401578 -0.016324466 1.4405522e-17)
(94.401338 -0.015145123 0)
(94.401183 -0.0142797 2.4974869e-23)
(94.401137 -0.012928237 1.3303615e-17)
(94.400883 -0.010809108 2.5817552e-17)
(94.399984 -0.0096460093 -2.5004067e-17)
(94.398522 -0.0095725062 2.4186841e-17)
(94.396792 -0.012985294 0)
(94.394912 -0.018715938 0)
(94.392992 -0.024082842 -2.1768457e-17)
(94.391223 -0.025611961 4.1952391e-17)
(94.389607 -0.035113764 1.1922305e-23)
(94.388561 -0.036623692 -3.8894325e-17)
(94.387515 -0.038796018 1.8689158e-17)
(94.386141 -0.040308443 0)
(94.384722 -0.039587092 -3.4342104e-17)
(94.383261 -0.03659304 3.2848322e-17)
(94.381847 -0.03561828 -3.1399753e-17)
(94.38034 -0.036120038 -1.498697e-17)
(94.37746 -0.036157274 1.4267233e-17)
(94.374296 -0.038292639 -2.7116812e-17)
(94.372799 -0.041205055 -3.2443266e-17)
(94.371625 -0.039738582 6.1914604e-18)
(94.36936 -0.03308439 0)
(94.366124 -0.041468884 0)
(94.362495 -0.039928534 0)
(94.358714 -0.035884061 -5.0293909e-18)
(94.355753 -0.040620726 -3.3354957e-17)
(93.405548 0.011581014 1.9059849e-17)
(93.731572 -0.0030024258 -2.1211919e-17)
(94.03235 -0.00012445341 6.9861071e-18)
(94.214529 -0.0017605671 -2.2987404e-17)
(94.30897 -0.0029156759 -1.8140739e-17)
(94.35426 -0.0041170662 -8.942304e-18)
(94.375577 -0.0054878148 -8.3193665e-23)
(94.386358 -0.0069290228 -8.6766468e-18)
(94.392837 -0.0084231776 1.7076371e-17)
(94.397479 -0.0099581071 0)
(94.401 -0.011533642 0)
(94.40352 -0.013134194 0)
(94.405116 -0.014871213 1.5868508e-17)
(94.405889 -0.016737957 -1.5539442e-17)
(94.406003 -0.018218806 0)
(94.405686 -0.020078841 0)
(94.405158 -0.021873766 -1.4543262e-17)
(94.404555 -0.023210955 -9.1587267e-24)
(94.403848 -0.024125014 1.3836276e-17)
(94.403099 -0.024378508 0)
(94.402503 -0.024835789 2.6223343e-17)
(94.402129 -0.024819392 -1.2746086e-17)
(94.401828 -0.023644389 -3.7127016e-17)
(94.401609 -0.021276051 1.2006472e-17)
(94.401492 -0.018574194 2.3239662e-17)
(94.400849 -0.014512612 0)
(94.399878 -0.024223533 2.8485601e-24)
(94.398035 -0.02062924 -2.7311524e-23)
(94.394517 -0.018410695 0)
(94.391486 -0.029863281 1.9252417e-17)
(94.389536 -0.034956636 -1.8509927e-17)
(94.387753 -0.037740395 0)
(94.386137 -0.042237427 3.4092685e-17)
(94.384915 -0.043570566 -1.6335121e-17)
(94.38384 -0.04308796 1.5633262e-17)
(94.382862 -0.04237103 -2.9888555e-17)
(94.38166 -0.040538632 2.8496753e-17)
(94.378363 -0.037680639 3.3856531e-17)
(94.374586 -0.04047832 1.930385e-17)
(94.372399 -0.043666975 -6.1448212e-18)
(94.370985 -0.042377397 -4.1013222e-17)
(94.368712 -0.035108464 4.4530133e-17)
(94.364975 -0.045844239 5.2881383e-18)
(94.360862 -0.041383541 4.0190992e-17)
(94.357227 -0.042942176 2.1487483e-23)
(94.356422 -0.032787671 -4.5325399e-18)
(93.42143 0.017147399 -1.8710943e-17)
(93.745858 0.0020540525 1.8513206e-17)
(94.044202 0.0049722387 0)
(94.223814 0.0024264917 1.8064466e-17)
(94.316271 0.00052030993 2.6736491e-17)
(94.3603 -0.0015661821 -8.7888547e-18)
(94.380948 -0.0037092852 -1.7325919e-17)
(94.391438 -0.0058345615 0)
(94.397826 -0.0078029294 -1.6802914e-17)
(94.402473 -0.0095217891 1.6528742e-17)
(94.406071 -0.011046926 1.6245551e-17)
(94.408762 -0.012379825 -3.1905636e-17)
(94.410626 -0.01359801 1.564943e-17)
(94.411763 -0.014969065 -1.5331423e-17)
(94.412226 -0.016066512 0)
(94.412151 -0.017410695 1.4703791e-17)
(94.411517 -0.019512378 0)
(94.410468 -0.021576083 -1.4011634e-17)
(94.409121 -0.02453692 0)
(94.407496 -0.027113842 2.6593613e-17)
(94.405812 -0.028848436 1.2930174e-17)
(94.404343 -0.031166033 0)
(94.403195 -0.032928726 7.3221504e-17)
(94.402398 -0.034134318 -4.7345802e-17)
(94.402091 -0.034308133 -2.2932983e-17)
(94.402141 -0.033605942 -2.2253428e-17)
(94.401484 -0.029219864 2.139083e-17)
(94.400706 -0.030709475 0)
(94.400652 -0.030674483 0)
(94.39831 -0.020480395 -1.9165825e-17)
(94.394863 -0.026787713 3.6767544e-17)
(94.391826 -0.032395996 -1.763243e-17)
(94.388889 -0.034659864 -1.6899853e-17)
(94.386523 -0.041739216 3.2393167e-17)
(94.384905 -0.044311213 1.8346309e-23)
(94.383645 -0.046455538 2.4922127e-23)
(94.382904 -0.046829283 -4.2586624e-17)
(94.382356 -0.046626121 -1.1452894e-22)
(94.379359 -0.040656529 -3.2155185e-17)
(94.374919 -0.043240454 6.1107934e-18)
(94.372476 -0.047200782 4.6620467e-17)
(94.371243 -0.045306761 -1.7937149e-22)
(94.368218 -0.038232998 0)
(94.362858 -0.045938573 -4.5047928e-17)
(94.358903 -0.049063378 9.5114296e-18)
(94.357894 -0.039204988 7.0124541e-17)
(94.356296 -0.049099289 -2.1414333e-18)
(94.369119 -0.021745423 -6.4801395e-17)
(93.43868 0.021221491 1.1483972e-18)
(93.761434 0.0060241242 -1.1363934e-18)
(94.05724 0.0092589154 -1.7972687e-17)
(94.234467 0.0069309638 -1.7749117e-17)
(94.32511 0.0049859055 0)
(94.367913 0.0024933373 0)
(94.387792 -0.00035382832 0)
(94.397795 -0.0034866193 -1.6782341e-17)
(94.403837 -0.0067032902 8.262744e-18)
(94.40819 -0.0098007027 -2.4390862e-17)
(94.411531 -0.012664842 0)
(94.414036 -0.015295977 0)
(94.415833 -0.017562122 -6.5677874e-23)
(94.417069 -0.019485638 1.5120426e-17)
(94.417868 -0.021104818 -1.4808075e-17)
(94.41827 -0.02194648 1.4506488e-17)
(94.41824 -0.022572464 -2.3133006e-23)
(94.4176 -0.022914632 2.2916016e-23)
(94.416456 -0.023467386 2.3778303e-23)
(94.414762 -0.024569614 -6.0133373e-23)
(94.412574 -0.025830227 -2.559488e-17)
(94.410245 -0.026647399 0)
(94.407993 -0.029260612 -2.4129698e-17)
(94.405759 -0.032190327 1.7973816e-23)
(94.403779 -0.035737153 4.5299874e-17)
(94.402507 -0.038009183 0)
(94.401096 -0.035895147 -2.1095378e-17)
(94.399906 -0.037158277 8.9951516e-24)
(94.399821 -0.038062157 -5.8822972e-17)
(94.400479 -0.040385065 1.9078682e-17)
(94.400248 -0.034309061 3.6676458e-17)
(94.398778 -0.035073535 -1.7583494e-17)
(94.395968 -0.032675054 0)
(94.391735 -0.033303702 0)
(94.388188 -0.040356553 -3.0788061e-17)
(94.385567 -0.043430046 2.9425152e-17)
(94.383783 -0.047780523 5.6275506e-17)
(94.382847 -0.049068727 -2.6917034e-17)
(94.38251 -0.052810249 2.5709883e-17)
(94.380183 -0.04432502 -4.8826835e-17)
(94.375297 -0.044674421 0)
(94.372675 -0.052015255 -1.2745465e-22)
(94.37122 -0.048390262 4.7370185e-17)
(94.365939 -0.03872332 7.4848268e-17)
(94.360671 -0.051093372 0)
(94.358533 -0.045033217 0)
(94.357222 -0.051966094 0)
(94.370679 -0.021816351 6.4755336e-17)
(94.392787 -0.070824398 0)
(93.457164 0.021861101 0)
(93.777996 0.007334643 1.7861996e-17)
(94.070812 0.011285977 1.4804254e-22)
(94.245729 0.0099529872 0)
(94.334939 0.0088779312 0)
(94.376952 0.0073148439 0)
(94.396405 0.0052815784 -1.675638e-17)
(94.406141 0.0028062353 3.3027261e-17)
(94.411928 -3.3086622e-05 0)
(94.415951 -0.0031477778 0)
(94.418859 -0.0064556038 0)
(94.420836 -0.0098196263 -1.5463465e-17)
(94.422068 -0.013348659 -1.5180965e-17)
(94.422751 -0.016907192 0)
(94.423067 -0.020466421 2.9173791e-17)
(94.423128 -0.023263062 -3.7585383e-23)
(94.422939 -0.026570576 -2.7992845e-17)
(94.422414 -0.029051444 -1.3675965e-17)
(94.421614 -0.031424543 2.6702879e-17)
(94.420595 -0.033813538 -2.633381e-23)
(94.419177 -0.033834491 -2.5353225e-17)
(94.417288 -0.035469735 1.232649e-17)
(94.415108 -0.034589392 2.3941802e-17)
(94.412341 -0.032619386 -4.6418941e-17)
(94.408896 -0.032291668 -2.2458154e-17)
(94.405747 -0.034400752 2.1697474e-17)
(94.403396 -0.037190386 6.5935703e-23)
(94.401725 -0.038754193 5.9147559e-23)
(94.400889 -0.041299252 1.9474104e-17)
(94.400918 -0.043946367 -3.7725462e-17)
(94.400769 -0.04573495 1.8171642e-17)
(94.40002 -0.04593481 -1.7475462e-17)
(94.399247 -0.048266393 0)
(94.398044 -0.044469427 -1.6083989e-17)
(94.395216 -0.040502106 6.1460977e-17)
(94.391593 -0.041259696 -4.3998247e-17)
(94.387817 -0.045230339 -1.3986083e-17)
(94.38455 -0.049204291 -4.0005552e-17)
(94.383409 -0.051154551 2.5533486e-17)
(94.383318 -0.056476653 4.8774923e-17)
(94.380315 -0.047165015 4.0523528e-17)
(94.375035 -0.049974517 -4.3983171e-17)
(94.372247 -0.057159251 -3.1444971e-17)
(94.368474 -0.047934721 -4.986712e-17)
(94.363266 -0.044523776 -3.3086704e-17)
(94.359467 -0.045647138 7.1682449e-17)
(94.357655 -0.054673177 -6.8168457e-17)
(94.372842 -0.025182713 1.0113061e-18)
(94.393014 -0.076604483 6.0085205e-17)
(93.477057 0.0190115 1.6622648e-17)
(93.795682 0.0042591152 -1.645154e-17)
(94.084684 0.0083871243 -4.3378833e-18)
(94.256709 0.0075382529 -6.5217914e-24)
(94.34424 0.0069796166 2.9630024e-17)
(94.385455 0.0060597158 -8.355654e-18)
(94.404608 0.0049119868 8.2426715e-18)
(94.414264 0.0035477819 -1.6769522e-22)
(94.420022 0.0020162277 -8.0061273e-18)
(94.423975 0.00040445219 1.576363e-17)
(94.426736 -0.0013605275 0)
(94.428491 -0.0032059009 1.5239648e-17)
(94.429434 -0.005027196 2.9919734e-17)
(94.429824 -0.007476149 -2.9377279e-17)
(94.429781 -0.010970098 1.4408865e-17)
(94.429315 -0.013766157 -1.1544525e-22)
(94.428445 -0.017515176 -1.3795833e-17)
(94.427147 -0.021601188 1.3481157e-17)
(94.425522 -0.025762395 1.3162737e-17)
(94.423842 -0.030030658 2.5687458e-17)
(94.422242 -0.034478065 -3.7561351e-17)
(94.420409 -0.034789773 0)
(94.41835 -0.038124116 0)
(94.416345 -0.041229532 2.3008162e-17)
(94.414248 -0.04334806 -4.4590675e-17)
(94.411907 -0.042627545 2.1567061e-17)
(94.409865 -0.038519811 2.0844091e-17)
(94.407937 -0.040435423 2.0119547e-17)
(94.405686 -0.037801057 1.9390296e-17)
(94.403963 -0.041108012 1.8671134e-17)
(94.402905 -0.045975146 0)
(94.401365 -0.046964077 0)
(94.399486 -0.050311937 0)
(94.398255 -0.053895237 -1.5948538e-17)
(94.397196 -0.053011055 3.0622535e-17)
(94.396412 -0.054065265 -1.4659747e-17)
(94.394968 -0.046012057 0)
(94.391095 -0.048149315 2.6620556e-17)
(94.386677 -0.048871369 -1.2676283e-17)
(94.384609 -0.054682327 -1.2116028e-17)
(94.383319 -0.057631207 -4.6235602e-17)
(94.37965 -0.049232187 0)
(94.373936 -0.055836583 4.6886074e-17)
(94.36912 -0.055918224 4.6293008e-23)
(94.364898 -0.055480628 -9.4432442e-18)
(94.361288 -0.044456686 -1.3860301e-16)
(94.358809 -0.056238209 6.7795769e-17)
(94.374338 -0.025116077 0)
(94.39306 -0.082514944 -6.0838548e-17)
(93.499024 0.012101359 -1.742329e-17)
(93.815729 -0.0039769344 0)
(94.100473 0.00085709236 1.2788878e-17)
(94.269069 0.00032206599 4.2124527e-18)
(94.354467 0.0001906807 -1.3688244e-22)
(94.394475 -0.00024150316 0)
(94.412922 -0.00096176177 0)
(94.422075 -0.0019534567 -1.3760266e-22)
(94.427371 -0.0031339721 3.9380659e-17)
(94.430839 -0.0043607897 -3.8782129e-17)
(94.4331 -0.0054721311 4.1097084e-23)
(94.434403 -0.0065233936 -3.0020374e-17)
(94.435038 -0.0071621359 -1.4742631e-17)
(94.435291 -0.007880817 4.9717055e-23)
(94.435206 -0.0090315881 -9.33413e-23)
(94.434996 -0.009543484 -1.3928538e-17)
(94.434668 -0.010095058 -1.3634416e-17)
(94.434032 -0.011639686 0)
(94.432471 -0.014044246 -2.6002366e-17)
(94.429662 -0.017599338 1.2670934e-17)
(94.426562 -0.024286895 4.938024e-17)
(94.423793 -0.033492221 0)
(94.421228 -0.037187141 0)
(94.418869 -0.040458289 0)
(94.41696 -0.043295365 6.6162118e-17)
(94.415363 -0.046008202 -8.5502979e-17)
(94.41438 -0.051068628 2.3186646e-23)
(94.413717 -0.051867555 -2.0013611e-17)
(94.412034 -0.052466054 -1.9296197e-17)
(94.409731 -0.048990986 1.8580715e-17)
(94.408059 -0.048274739 -1.7886591e-17)
(94.406692 -0.053105788 3.437639e-17)
(94.40375 -0.048528566 3.2523276e-23)
(94.400616 -0.049948644 1.5789378e-17)
(94.398345 -0.053911183 -3.0337546e-17)
(94.396748 -0.055937543 2.9061502e-17)
(94.396051 -0.061899651 2.7826851e-17)
(94.396427 -0.059332725 0)
(94.393892 -0.055969929 -2.5343266e-17)
(94.388301 -0.051565578 0)
(94.385075 -0.058920911 0)
(94.382814 -0.057946967 0)
(94.377585 -0.050343152 -8.3201716e-17)
(94.370559 -0.052610252 3.9472101e-17)
(94.365528 -0.058608758 3.7580859e-17)
(94.362692 -0.053718405 7.1401713e-17)
(94.361399 -0.061559371 0)
(94.376128 -0.024460116 -6.3267838e-17)
(94.393743 -0.088392562 -6.1622655e-17)
(93.52223 0.0071096966 0)
(93.837671 -0.011481686 0)
(94.118154 -0.0068405436 0)
(94.283239 -0.0080705685 1.6569589e-17)
(94.366504 -0.0084770316 -3.2734129e-17)
(94.405343 -0.0087670921 0)
(94.423095 -0.0092979586 0)
(94.431687 -0.010072315 -3.1449107e-17)
(94.436362 -0.011021634 -1.5497044e-17)
(94.43906 -0.012145623 -1.526094e-17)
(94.440392 -0.013293464 1.3341448e-22)
(94.440806 -0.01423525 1.2504882e-22)
(94.440606 -0.015646365 1.4529287e-17)
(94.439967 -0.016333164 0)
(94.438999 -0.01737887 7.191415e-23)
(94.438117 -0.017997397 1.3714382e-17)
(94.437508 -0.018183477 -1.3428496e-17)
(94.437387 -0.018296086 2.6284554e-17)
(94.437737 -0.017910461 -1.2866313e-17)
(94.437687 -0.016369464 1.2562516e-17)
(94.43596 -0.01446751 -2.4453152e-17)
(94.433035 -0.016517501 0)
(94.429363 -0.020780697 -1.5906417e-22)
(94.425156 -0.027973204 -3.3551362e-23)
(94.421675 -0.035892072 2.7547772e-23)
(94.419221 -0.042390984 5.0992926e-23)
(94.417544 -0.04538672 2.0476221e-17)
(94.416362 -0.05032308 1.982017e-17)
(94.415233 -0.053950708 0)
(94.413628 -0.055404147 0)
(94.41192 -0.055996574 0)
(94.411173 -0.058981016 -3.4270637e-17)
(94.410714 -0.064524161 0)
(94.407474 -0.056834668 0)
(94.403737 -0.055666024 0)
(94.400116 -0.052016332 -2.8834931e-17)
(94.397337 -0.05775962 -1.2575703e-22)
(94.396135 -0.061233958 2.6280432e-17)
(94.396105 -0.065323137 3.8034496e-17)
(94.39427 -0.063557971 -1.2047274e-17)
(94.38881 -0.057358753 0)
(94.384639 -0.063291118 0)
(94.380202 -0.064632376 8.310565e-17)
(94.373575 -0.051846652 -3.9425301e-17)
(94.367203 -0.053566205 -4.6743294e-18)
(94.364061 -0.052970909 4.4448608e-18)
(94.364781 -0.067793981 -6.966624e-17)
(94.37836 -0.027117235 6.514567e-17)
(94.394743 -0.095394378 6.1710666e-17)
(93.544545 0.0065184436 0)
(93.859041 -0.01314386 0)
(94.135395 -0.0084347976 0)
(94.296975 -0.010427848 -1.6299193e-17)
(94.378183 -0.011560556 1.6104211e-17)
(94.416065 -0.012416019 0)
(94.433466 -0.01338735 0)
(94.441949 -0.014484346 2.3225485e-17)
(94.446508 -0.015651257 1.5261709e-17)
(94.448921 -0.016935175 -7.5141728e-18)
(94.449749 -0.01804583 1.4802247e-17)
(94.449645 -0.019345747 1.4567718e-17)
(94.448755 -0.021206728 0)
(94.447216 -0.022870295 0)
(94.445184 -0.024196735 1.3784036e-17)
(94.443087 -0.025691749 -2.7020279e-17)
(94.441226 -0.027024734 2.6460904e-17)
(94.439918 -0.028027246 -1.2946847e-17)
(94.439429 -0.02909008 -2.5352719e-17)
(94.439576 -0.03002345 -3.7179717e-17)
(94.439908 -0.029445879 1.2090908e-17)
(94.439971 -0.026512833 -7.077416e-17)
(94.439427 -0.024695398 -2.2967753e-17)
(94.43737 -0.022357472 -2.2288685e-17)
(94.433418 -0.022746653 2.1608263e-17)
(94.429044 -0.028932514 0)
(94.424572 -0.032861412 -2.0264542e-17)
(94.420974 -0.040002365 0)
(94.418675 -0.047953143 1.8953549e-17)
(94.416694 -0.052530371 -3.6597597e-17)
(94.414327 -0.056040289 5.0803394e-23)
(94.41239 -0.058868431 3.3976e-17)
(94.411364 -0.063820767 -8.1104713e-25)
(94.409918 -0.06666227 -1.5711359e-17)
(94.407953 -0.064529178 0)
(94.40577 -0.066362433 -2.8839807e-17)
(94.402137 -0.059587975 -5.5041756e-17)
(94.398131 -0.061283347 -3.9322327e-17)
(94.396181 -0.060536527 2.8710634e-23)
(94.395311 -0.066164139 4.667236e-23)
(94.393974 -0.061023641 -5.7222312e-18)
(94.387996 -0.055933661 -1.0861624e-17)
(94.381842 -0.066341962 1.0339372e-17)
(94.37575 -0.065634603 -4.9196066e-18)
(94.369904 -0.060424116 0)