/*--------------------------------*- C++ -*----------------------------------*\
| =========                 |                                                 |
| \\      /  F ield         | OpenFOAM: The Open Source CFD Toolbox           |
|  \\    /   O peration     | Version:  2506                                  |
|   \\  /    A nd           | Website:  www.openfoam.com                      |
|    \\/     M anipulation  |                                                 |
\*---------------------------------------------------------------------------*/
FoamFile
{
    version     2.0;
    format      ascii;
    arch        "LSB;label=32;scalar=64";
    class       volScalarField;
    location    "0.004";
    object      k;
}
// * * * * * * * * * * * * * * * * * * * * * * * * * * * * * * * * * * * * * //

dimensions      [0 2 -2 0 0 0 0];

internalField   nonuniform List<scalar> 
13761
(
0.10741824
0.11173473
0.11585654
0.087811316
0.091140998
0.094770102
0.098646507
0.10274031
0.10700157
0.1112838
0.11540147
0.119043
0.079688614
0.082008102
0.084619769
0.087576598
0.090868484
0.094455574
0.098291641
0.1023461
0.10655124
0.11080005
0.11490508
0.11856513
0.12143536
0.072781625
0.074167649
0.075741362
0.077521798
0.079555426
0.081843508
0.084419394
0.087324723
0.09057327
0.094116517
0.097910755
0.10192292
0.10608889
0.11029808
0.11438179
0.11804478
0.12092373
0.069608824
0.0705022
0.071535019
0.072737564
0.074107429
0.075658699
0.077414716
0.079404708
0.081656457
0.084197158
0.087071501
0.09028039
0.093778919
0.097528574
0.10149437
0.10560856
0.10977274
0.11382936
0.11748496
0.12036305
0.12236524
0.067646373
0.068188859
0.068834983
0.069606507
0.070491124
0.071507725
0.072677601
0.074025478
0.075554532
0.077286321
0.079254034
0.081474356
0.08398088
0.086817117
0.089981819
0.093433144
0.097136255
0.10105241
0.10511343
0.10922868
0.11325162
0.11688919
0.11975142
0.12172213
0.12321399
0.066540024
0.066832102
0.067200495
0.067662391
0.068201282
0.068841286
0.06958348
0.070450218
0.071455409
0.072619503
0.073950233
0.075455183
0.077162554
0.07910049
0.081286739
0.083758489
0.086558014
0.089679251
0.093082912
0.096737063
0.10059988
0.1046036
0.10866732
0.11265155
0.11625897
0.11908913
0.12102836
0.1224844
0.12402735
0.066077824
0.06618361
0.066342968
0.066574186
0.066863735
0.067226392
0.067672078
0.068202385
0.068828802
0.069567801
0.070425342
0.071415954
0.072560585
0.073868214
0.075350711
0.077035036
0.078943996
0.081097105
0.08353635
0.086298719
0.089374323
0.092728924
0.096332405
0.10013877
0.10408232
0.10809129
0.1120309
0.1155972
0.11838231
0.12027681
0.12169042
0.12317646
0.12516208
0.066258623
0.066088599
0.06605658
0.066116265
0.066225855
0.066382551
0.066599553
0.066881571
0.067240387
0.067679454
0.068202585
0.068822022
0.069547358
0.070389646
0.0713678
0.072496884
0.073784493
0.075244879
0.076904558
0.078784079
0.08090566
0.08331249
0.086037149
0.089066943
0.092371363
0.095921568
0.099668681
0.10355029
0.10750283
0.11139157
0.11490376
0.11762868
0.11947198
0.12084989
0.12229909
0.12421411
0.067244777
0.066995928
0.066627064
0.066315546
0.066143034
0.066101335
0.066149794
0.066252609
0.066406851
0.066621916
0.066899637
0.067254353
0.067686017
0.06820209
0.068812322
0.069526894
0.070357172
0.07132125
0.072431958
0.073698254
0.07513673
0.076771839
0.078622671
0.080714125
0.083089328
0.085775135
0.088757886
0.092012165
0.095508178
0.099193699
0.1030113
0.10690419
0.11073479
0.11418085
0.11683411
0.11861852
0.11994802
0.12134242
0.12320581
0.12573899
0.067128747
0.067209944
0.067331665
0.067349114
0.067290671
0.06705777
0.066691872
0.066362105
0.066180677
0.066130174
0.06617897
0.066280255
0.066432919
0.066643716
0.06691664
0.067266997
0.067691387
0.068200331
0.068802372
0.069505339
0.070322651
0.071271766
0.072364586
0.073610096
0.075027037
0.07663864
0.078461505
0.080522172
0.082865406
0.085512422
0.088447918
0.091650905
0.09509072
0.0987129
0.10246534
0.10629589
0.11006066
0.11342762
0.11599494
0.11771105
0.11899688
0.12035566
0.12215989
0.12460877
0.067387493
0.067272501
0.067157768
0.067126318
0.067165923
0.067253331
0.067375816
0.067397458
0.067333311
0.06710302
0.0667383
0.066405761
0.066219082
0.066161041
0.066208141
0.066306568
0.066457544
0.066663915
0.066932768
0.067278019
0.067695245
0.068196952
0.068791137
0.069482691
0.070287305
0.071221915
0.072296065
0.073521235
0.074917416
0.076504469
0.078298023
0.08032985
0.082641698
0.085247746
0.0881361
0.091289847
0.094673395
0.098230337
0.10191579
0.10568084
0.10937244
0.11264812
0.11511762
0.11675837
0.11798917
0.11929188
0.12104664
0.12346208
0.12649393
0.067440136
0.067567447
0.067575918
0.067589892
0.067577623
0.067516885
0.067425796
0.067319827
0.067201123
0.067177409
0.067201874
0.067279906
0.067402555
0.067430327
0.067370149
0.067149175
0.06678603
0.066449303
0.066254613
0.066190941
0.066236056
0.066332187
0.066481365
0.066683091
0.066947969
0.067287209
0.06769774
0.068192779
0.068777862
0.069458096
0.070250333
0.071169642
0.072224989
0.073430501
0.07480619
0.076368267
0.07813308
0.080136339
0.082415923
0.084981736
0.087824993
0.090929649
0.094254722
0.097744603
0.10136255
0.10505926
0.1086695
0.11184129
0.11419989
0.11575459
0.116931
0.11819847
0.11990865
0.1222499
0.12520966
0.065605359
0.065650176
0.065918092
0.066592866
0.06791859
0.06885138
0.06846198
0.067567469
0.067296823
0.067462083
0.067605839
0.067617063
0.067631945
0.067620605
0.067560187
0.067459796
0.067350652
0.067231038
0.067209483
0.067229286
0.06731111
0.067431941
0.067465321
0.067407044
0.067192888
0.066830043
0.066490638
0.066287772
0.066220628
0.066263083
0.066356916
0.066503926
0.066700803
0.066962026
0.067294643
0.067698928
0.068187284
0.068762719
0.069431376
0.070211712
0.071115348
0.072152518
0.073339727
0.074694633
0.076230883
0.077969071
0.079945391
0.082192101
0.084718147
0.08751851
0.090573884
0.093837784
0.097259517
0.10080984
0.1044352
0.1079555
0.11101116
0.11324942
0.11471513
0.115831
0.11704192
0.1187047
0.12102143
0.12394457
0.58843097
0.064797596
0.065553601
0.065589648
0.065589574
0.065589552
0.065589548
0.065589548
0.065589548
0.065589547
0.065589547
0.065589547
0.065589547
0.065589547
0.065589547
0.065589547
0.065589547
0.065589547
0.065589547
0.065589547
0.065589547
0.065589547
0.065589547
0.065589547
0.065589547
0.065589547
0.065589547
0.065589547
0.065589633
0.065590899
0.06559809
0.065624202
0.065698959
0.065863119
0.066033682
0.065779548
0.065351431
0.065379506
0.065531769
0.065632555
0.065604248
0.065649165
0.065916707
0.066587167
0.067903844
0.068900101
0.068521716
0.067619792
0.067332603
0.067487866
0.067631843
0.067643859
0.067659305
0.067648354
0.067588331
0.067489466
0.06738188
0.067265935
0.067238911
0.067261086
0.067342156
0.06745607
0.067498579
0.06744298
0.067234787
0.066872096
0.066530336
0.066318971
0.066249919
0.066289257
0.066380947
0.06652496
0.066716955
0.066975261
0.067300981
0.06769932
0.06818211
0.068746762
0.069403409
0.070170778
0.071058728
0.072078985
0.073248905
0.074583192
0.076094118
0.077805578
0.079754296
0.08196883
0.08445651
0.087213701
0.090218218
0.093420717
0.096775927
0.10025924
0.10380857
0.10722887
0.11015694
0.1122667
0.11363538
0.11468729
0.11586187
0.11749561
0.11975779
0.12260302
0.59127018
0.064791289
0.065553777
0.065589693
0.065589577
0.065589553
0.065589549
0.065589548
0.065589548
0.065589548
0.065589548
0.065589548
0.065589548
0.065589548
0.065589548
0.065589548
0.065589548
0.065589548
0.065589548
0.065589548
0.065589548
0.065589548
0.065589548
0.065589548
0.065589548
0.065589549
0.065589549
0.065589551
0.06558964
0.065590864
0.065597917
0.065623685
0.0656979
0.065862152
0.066038453
0.065797726
0.065354763
0.065374898
0.065530884
0.065634189
0.065607656
0.065648659
0.0659112
0.066574384
0.067883151
0.068934611
0.068565769
0.067656258
0.067354447
0.06750801
0.067658253
0.067672484
0.067688592
0.067677857
0.067618163
0.067519694
0.067412388
0.067298463
0.067267219
0.067292929
0.067366783
0.067485003
0.067532033
0.067477428
0.067272815
0.066911044
0.066567214
0.066348096
0.066278299
0.066314398
0.066403804
0.066543589
0.066731764
0.066987499
0.067306244
0.067699369
0.068174943
0.068728251
0.069373964
0.070128489
0.071000601
0.072005029
0.073158074
0.074470615
0.075957033
0.077644026
0.07956631
0.081748351
0.084199342
0.086916342
0.089870305
0.093010262
0.096298704
0.09971312
0.10318097
0.10649218
0.10928319
0.11125782
0.11252777
0.11351558
0.11463809
0.11623171
0.11847575
0.1212944
0.59384655
0.064785577
0.065553287
0.065589693
0.065589577
0.065589553
0.065589549
0.065589548
0.065589548
0.065589548
0.065589548
0.065589548
0.065589548
0.065589548
0.065589548
0.065589548
0.065589548
0.065589548
0.065589548
0.065589548
0.065589548
0.065589548
0.065589548
0.065589548
0.065589548
0.065589548
0.065589548
0.06558955
0.065589635
0.065590822
0.065597734
0.065623144
0.065696804
0.065861106
0.066042847
0.065812681
0.065357391
0.065370159
0.06552964
0.06563555
0.065610687
0.065648399
0.065907316
0.066565605
0.06786988
0.068969368
0.068609841
0.067694212
0.067378716
0.067530176
0.067684894
0.067700404
0.067716763
0.067705873
0.067646576
0.067548397
0.067442104
0.06732834
0.067296953
0.067321953
0.067392219
0.067521077
0.06755747
0.06750838
0.067309138
0.066948838
0.066601505
0.066375876
0.06630537
0.066338441
0.066425297
0.066560065
0.066746125
0.066998162
0.067310025
0.067699153
0.068165857
0.068707363
0.069342374
0.070084072
0.070941051
0.071930395
0.073066278
0.0743569
0.075819048
0.077482524
0.079379676
0.081531399
0.083947917
0.086623788
0.089524939
0.092601447
0.09582332
0.099167756
0.10254893
0.10574351
0.10838969
0.11022193
0.11138408
0.11230108
0.1133914
0.11497691
0.11718943
0.11992968
0.59615635
0.064780463
0.06555286
0.065589693
0.065589577
0.065589553
0.065589549
0.065589548
0.065589548
0.065589548
0.065589548
0.065589548
0.065589548
0.065589548
0.065589548
0.065589548
0.065589548
0.065589548
0.065589548
0.065589548
0.065589548
0.065589548
0.065589548
0.065589548
0.065589548
0.065589548
0.065589548
0.06558955
0.065589632
0.065590787
0.065597586
0.06562271
0.065695972
0.065860468
0.06604712
0.065826229
0.06535977
0.06536594
0.065528644
0.065637002
0.065613693
0.065648527
0.065904332
0.0665589
0.067860666
0.069002385
0.068651089
0.067729905
0.067402195
0.067552019
0.067710824
0.06772763
0.067744247
0.0677332
0.067674361
0.067576351
0.067470783
0.067356372
0.067326604
0.067349299
0.067421309
0.06754927
0.067582696
0.067543601
0.067343659
0.066983358
0.066631143
0.066402556
0.066329613
0.06636068
0.06644532
0.066575088
0.066760106
0.06700615
0.067312071
0.067696417
0.068153178
0.068683921
0.069308745
0.070037167
0.070880289
0.071855915
0.072973323
0.074241766
0.075682331
0.077324176
0.079195229
0.081316959
0.083700571
0.086335238
0.089181282
0.092194277
0.09535229
0.098626404
0.10191575
0.10498588
0.10747875
0.10915987
0.11021085
0.11106495
0.11211943
0.11368027
0.11587541
0.11858455
0.5981989
0.064775947
0.065552479
0.065589693
0.065589577
0.065589553
0.065589549
0.065589548
0.065589548
0.065589548
0.065589548
0.065589548
0.065589548
0.065589548
0.065589548
0.065589548
0.065589548
0.065589548
0.065589548
0.065589548
0.065589548
0.065589548
0.065589548
0.065589548
0.065589548
0.065589548
0.065589548
0.06558955
0.065589629
0.06559076
0.06559747
0.06562238
0.065695395
0.065860252
0.066051356
0.065838326
0.065361781
0.065362249
0.065527873
0.065638571
0.065616643
0.065648911
0.065902323
0.066554523
0.067856001
0.069034309
0.068689941
0.067763522
0.067425274
0.06757398
0.067736211
0.06775418
0.067770908
0.067759813
0.067701319
0.067603461
0.067497876
0.067383708
0.067354625
0.067376798
0.067450447
0.067571968
0.067618117
0.067576039
0.067369691
0.067015887
0.066657218
0.066430727
0.066350245
0.066381002
0.066464272
0.066589801
0.066773278
0.06701154
0.067312692
0.067691258
0.068137539
0.068658813
0.069273961
0.069988823
0.070818267
0.071779481
0.072877827
0.074125032
0.075545609
0.077166546
0.079012795
0.081106269
0.083456542
0.086048415
0.088839707
0.09179235
0.094887469
0.098086229
0.10127547
0.10421336
0.10654562
0.10806953
0.1090068
0.10979452
0.11082872
0.11240056
0.11458124
0.59997418
0.064772026
0.065552147
0.065589694
0.065589577
0.065589553
0.065589549
0.065589548
0.065589548
0.065589548
0.065589548
0.065589548
0.065589548
0.065589548
0.065589548
0.065589548
0.065589548
0.065589548
0.065589548
0.065589548
0.065589548
0.065589548
0.065589548
0.065589548
0.065589548
0.065589548
0.065589548
0.06558955
0.065589627
0.065590739
0.065597386
0.065622152
0.065695075
0.065860471
0.066055594
0.065848957
0.065363345
0.065359144
0.065527315
0.065640301
0.065619502
0.065649483
0.065901285
0.066552643
0.067855731
0.069065273
0.068726216
0.06779449
0.067447611
0.067595799
0.067760926
0.067779871
0.067796835
0.06778566
0.06772759
0.067629612
0.067523565
0.067410374
0.067381212
0.067404489
0.067477896
0.067598374
0.067650605
0.067600301
0.067398832
0.067049106
0.066677846
0.066459045
0.066366222
0.066398814
0.066481594
0.066604432
0.066783963
0.067014624
0.067312418
0.067685081
0.068120026
0.068632728
0.06923729
0.069938525
0.07075546
0.071701066
0.072779999
0.074008888
0.075411496
0.077010631
0.078831891
0.080898995
0.083218202
0.085766578
0.088502509
0.091396386
0.094427176
0.097545653
0.10062951
0.10342983
0.10559378
0.10695436
0.10778005
0.10851791
0.10954007
0.11110285
0.11325776
0.60148285
0.064768697
0.065551863
0.065589694
0.065589577
0.065589553
0.065589549
0.065589548
0.065589548
0.065589548
0.065589548
0.065589548
0.065589548
0.065589548
0.065589548
0.065589548
0.065589548
0.065589548
0.065589548
0.065589548
0.065589548
0.065589548
0.065589548
0.065589548
0.065589548
0.065589548
0.065589548
0.06558955
0.065589626
0.065590725
0.065597332
0.065622022
0.065695013
0.065861115
0.066059859
0.065858095
0.065364385
0.065356638
0.065526991
0.065642232
0.065622198
0.065650221
0.065901348
0.066553303
0.067859983
0.06909553
0.068759828
0.067822399
0.067469059
0.06761747
0.067784983
0.067804733
0.067821964
0.067810905
0.067753197
0.067654691
0.067548237
0.067435872
0.067407254
0.067431601
0.06750452
0.067628466
0.067676826
0.067626856
0.067432863
0.067069522
0.066695347
0.066485549
0.066379897
0.066415182
0.066496144
0.066617535
0.066790788
0.067015257
0.067310231
0.06767496
0.068099991
0.068605664
0.069198062
0.069885681
0.070690654
0.0716202
0.072680659
0.073892874
0.075277908
0.076855599
0.078653301
0.0806944
0.082980648
0.085484335
0.088167079
0.091002603
0.093965956
0.09699949
0.099974795
0.10263304
0.10461934
0.10581258
0.10653465
0.10722428
0.10824104
0.109823
0.60272631
0.064765957
0.065551629
0.065589694
0.065589577
0.065589553
0.065589549
0.065589548
0.065589548
0.065589548
0.065589548
0.065589548
0.065589548
0.065589548
0.065589548
0.065589548
0.065589548
0.065589548
0.065589548
0.065589548
0.065589548
0.065589548
0.065589548
0.065589548
0.065589548
0.065589548
0.065589548
0.06558955
0.065589625
0.065590718
0.065597309
0.065621991
0.065695202
0.065862214
0.066064223
0.065865695
0.065364851
0.065354719
0.065526935
0.065644406
0.06562466
0.065651157
0.065902215
0.066555852
0.067869133
0.069125135
0.068790692
0.067846995
0.067489581
0.067639123
0.067808439
0.067828749
0.067846342
0.067835569
0.067778043
0.067679051
0.067572022
0.067460038
0.067433159
0.067457691
0.067531572
0.067658045
0.067701732
0.067655761
0.067457065
0.067083657
0.066727034
0.066500934
0.066392383
0.066429805
0.066506082
0.066627024
0.066794553
0.067014524
0.067308772
0.067662772
0.068079564
0.068577405
0.069155755
0.069830892
0.070623307
0.071536356
0.072581546
0.073779266
0.075145071
0.076700211
0.078476196
0.080494304
0.08274793
0.0852063
0.087837098
0.090615776
0.093510482
0.096456417
0.099320879
0.10182958
0.1036253
0.10464788
0.10527158
0.1059312
0.10695998
0.1085448
0.60370662
0.0647638
0.065551444
0.065589694
0.065589577
0.065589553
0.065589549
0.065589548
0.065589548
0.065589548
0.065589548
0.065589548
0.065589548
0.065589548
0.065589548
0.065589548
0.065589548
0.065589548
0.065589548
0.065589548
0.065589548
0.065589548
0.065589548
0.065589548
0.065589548
0.065589548
0.065589548
0.06558955
0.065589625
0.065590716
0.065597314
0.065622057
0.065695656
0.065863802
0.066068717
0.065871729
0.065364697
0.065353382
0.065527157
0.065646849
0.06562682
0.065652335
0.06590396
0.066560798
0.067883135
0.069154143
0.068818708
0.067868325
0.067509305
0.067660966
0.067831352
0.067851936
0.067870026
0.067859589
0.067802264
0.067702972
0.067595034
0.067483508
0.067458238
0.067482811
0.067558972
0.067685212
0.067728429
0.067682309
0.067476241
0.067108277
0.06675029
0.066501616
0.066412796
0.066444987
0.066512664
0.066632955
0.066796443
0.067014113
0.067302971
0.067646758
0.068058015
0.068545443
0.069109185
0.069773967
0.070553972
0.071451536
0.072483182
0.073665849
0.075011343
0.076545458
0.078302004
0.08029685
0.082517297
0.084933381
0.087514453
0.090234422
0.093055217
0.095910357
0.098660885
0.10100888
0.10259982
0.10345202
0.10399327
0.10463012
0.10566743
0.6044265
0.064762218
0.065551307
0.065589694
0.065589578
0.065589553
0.065589549
0.065589548
0.065589548
0.065589548
0.065589548
0.065589548
0.065589548
0.065589548
0.065589548
0.065589548
0.065589548
0.065589548
0.065589548
0.065589548
0.065589548
0.065589548
0.065589548
0.065589548
0.065589548
0.065589548
0.065589548
0.06558955
0.065589625
0.065590721
0.06559735
0.065622221
0.065696374
0.065865871
0.066073325
0.065876165
0.06536392
0.065352652
0.065527691
0.065649587
0.065628623
0.065653775
0.065906774
0.066568553
0.067902138
0.069182544
0.068843801
0.067886578
0.067528388
0.067683184
0.067853794
0.067874345
0.067893092
0.067883109
0.067826112
0.067726541
0.067617718
0.067506101
0.067482256
0.067507356
0.067585474
0.067711251
0.067755538
0.067705889
0.067496538
0.067130085
0.066757295
0.066508786
0.066435411
0.066453667
0.066516534
0.066636409
0.06679583
0.067014329
0.067295365
0.067629587
0.068034979
0.068508882
0.069059936
0.069716119
0.070483445
0.071367225
0.072385776
0.073550672
0.074875364
0.076392241
0.078133496
0.080105878
0.082292082
0.084665134
0.087196627
0.08985531
0.092599041
0.095362017
0.097993856
0.1001653
0.1015385
0.10223297
0.10270421
0.10333327
0.60488934
0.064761203
0.06555122
0.065589694
0.065589578
0.065589553
0.065589549
0.065589548
0.065589548
0.065589548
0.065589548
0.065589548
0.065589548
0.065589548
0.065589548
0.065589548
0.065589548
0.065589548
0.065589548
0.065589548
0.065589548
0.065589548
0.065589548
0.065589548
0.065589548
0.065589548
0.065589548
0.06558955
0.065589627
0.065590731
0.065597414
0.065622483
0.06569735
0.065868449
0.066078062
0.065878955
0.065362484
0.065352537
0.065528513
0.065652616
0.065630029
0.065655474
0.06591073
0.066578847
0.067925931
0.069210192
0.06886603
0.067901959
0.067547138
0.067705944
0.067875892
0.067896174
0.067915728
0.067906369
0.067849729
0.067749839
0.067640164
0.06752749
0.06750549
0.067530992
0.067610518
0.067737689
0.067780658
0.067727976
0.067517282
0.067143847
0.066764168
0.06654015
0.066439028
0.066453406
0.066525819
0.066639796
0.06679207
0.067010573
0.067282119
0.067610086
0.068008071
0.068467204
0.069009488
0.069657802
0.070411221
0.071281792
0.072286718
0.073432585
0.074738266
0.076241221
0.077967284
0.079915943
0.082069686
0.084401513
0.086880778
0.089473187
0.092138151
0.094810344
0.097317773
0.09929366
0.10044345
0.10099641
0.10141929
0.60509914
0.064760746
0.06555118
0.065589694
0.065589578
0.065589553
0.065589549
0.065589548
0.065589548
0.065589548
0.065589548
0.065589548
0.065589548
0.065589548
0.065589548
0.065589548
0.065589548
0.065589548
0.065589548
0.065589548
0.065589548
0.065589548
0.065589548
0.065589548
0.065589548
0.065589548
0.065589548
0.06558955
0.065589628
0.065590748
0.065597509
0.065622844
0.065698594
0.065871514
0.066082897
0.065880202
0.065360434
0.065353054
0.06552962
0.065655945
0.065630992
0.065657448
0.065915863
0.066591754
0.067954376
0.069237105
0.068885769
0.067915098
0.067566031
0.067729542
0.067897911
0.067917503
0.06793809
0.067929357
0.0678732
0.067772746
0.067661794
0.067548126
0.067527574
0.067553536
0.067634835
0.067763915
0.067803856
0.067749962
0.067535176
0.067153101
0.06677889
0.066550474
0.066433731
0.066465016
0.066538838
0.066636385
0.066786721
0.067002506
0.067263587
0.067589329
0.067977652
0.068423906
0.068961121
0.06959908
0.070336758
0.071194609
0.072184673
0.073311705
0.074603119
0.076096342
0.077807113
0.079730112
0.081850089
0.084141087
0.086567633
0.089093328
0.091681199
0.094262693
0.096634342
0.098394361
0.099320738
0.099756919
0.10014325
0.60506143
0.064760839
0.065551188
0.065589694
0.065589578
0.065589553
0.065589549
0.065589548
0.065589548
0.065589548
0.065589548
0.065589548
0.065589548
0.065589548
0.065589548
0.065589548
0.065589548
0.065589548
0.065589548
0.065589548
0.065589548
0.065589548
0.065589548
0.065589548
0.065589548
0.065589548
0.065589548
0.06558955
0.06558963
0.065590772
0.065597633
0.065623308
0.065700135
0.065875207
0.066087797
0.065879694
0.065357758
0.065354207
0.065531042
0.065659625
0.065631547
0.065659745
0.065922259
0.066607601
0.067987816
0.069262888
0.068902861
0.067926117
0.067585019
0.067753829
0.06791962
0.06793838
0.067960054
0.067952012
0.067896219
0.067794968
0.067682182
0.06756805
0.06754843
0.067575533
0.06765878
0.067789447
0.067826702
0.067771182
0.06754926
0.06716201
0.066789451
0.066550561
0.066444694
0.066475395
0.066533595
0.066627802
0.066785613
0.066990558
0.067242915
0.067567811
0.067942368
0.068380329
0.068912844
0.069534664
0.070257046
0.071104676
0.07207899
0.073189417
0.074472003
0.075956617
0.077649792
0.079547645
0.08163637
0.083884604
0.086253724
0.088711935
0.091225607
0.093715173
0.095934723
0.097457522
0.098172302
0.09850849
0.60478093
0.064761469
0.065551242
0.065589694
0.065589578
0.065589553
0.065589549
0.065589548
0.065589548
0.065589548
0.065589548
0.065589548
0.065589548
0.065589548
0.065589548
0.065589548
0.065589548
0.065589548
0.065589548
0.065589548
0.065589548
0.065589548
0.065589548
0.065589548
0.065589548
0.065589548
0.065589548
0.06558955
0.065589632
0.065590802
0.065597788
0.06562387
0.065701922
0.065879285
0.066092904
0.065877677
0.065354447
0.065356006
0.065532692
0.065663539
0.065631606
0.065662335
0.065929826
0.066625496
0.068025335
0.069287335
0.068917167
0.067934939
0.06760376
0.067778383
0.067940653
0.067958652
0.067981594
0.06797416
0.067918536
0.067816233
0.067701367
0.067587219
0.067568709
0.067597077
0.067682343
0.067814706
0.067849311
0.067790834
0.067561269
0.067169887
0.066793059
0.066550038
0.066456262
0.066475423
0.066524811
0.066631179
0.066785939
0.066965533
0.067223048
0.067543838
0.06790289
0.068338349
0.068860965
0.069463045
0.070176187
0.071015089
0.071972334
0.073070368
0.07434755
0.075821071
0.077493834
0.07936806
0.081427852
0.083632627
0.085943575
0.088335368
0.090774908
0.093165677
0.095212031
0.096483447
0.097005133
0.60426276
0.064762624
0.065551341
0.065589694
0.065589577
0.065589553
0.065589549
0.065589548
0.065589548
0.065589548
0.065589548
0.065589548
0.065589548
0.065589548
0.065589548
0.065589548
0.065589548
0.065589548
0.065589548
0.065589548
0.065589548
0.065589548
0.065589548
0.065589548
0.065589548
0.065589548
0.065589548
0.06558955
0.065589635
0.065590839
0.065597974
0.065624535
0.065703985
0.065883899
0.066098063
0.065873883
0.065350614
0.065358436
0.065534669
0.065667817
0.065631262
0.065665157
0.065938528
0.06664592
0.068067369
0.069309742
0.068928344
0.067941634
0.067622311
0.06780357
0.067961314
0.067978496
0.068002932
0.067995936
0.067939951
0.067836526
0.067719893
0.06760564
0.067588884
0.067618302
0.067705889
0.067839428
0.067871102
0.067809084
0.06757172
0.067173907
0.066792374
0.066555495
0.066458528
0.066471838
0.066527255
0.066633486
0.066757896
0.066948031
0.067214511
0.067512294
0.067859544
0.068293899
0.068797674
0.069386102
0.070097626
0.070923642
0.071863724
0.072955914
0.074227427
0.075684665
0.077338776
0.079194906
0.081223567
0.083378895
0.085631888
0.087962525
0.090329232
0.092610833
0.094460461
0.09547063
0.60351312
0.064764289
0.065551483
0.065589694
0.065589577
0.065589553
0.065589549
0.065589548
0.065589548
0.065589548
0.065589548
0.065589548
0.065589548
0.065589548
0.065589548
0.065589548
0.065589548
0.065589548
0.065589548
0.065589548
0.065589548
0.065589548
0.065589548
0.065589548
0.065589548
0.065589548
0.065589548
0.06558955
0.065589639
0.065590882
0.065598192
0.065625304
0.065706329
0.065888998
0.066103258
0.065868506
0.065346311
0.06536149
0.065536902
0.065672245
0.065630381
0.0656683
0.065948484
0.066668873
0.068114068
0.069330749
0.06893708
0.067946838
0.067640728
0.067829039
0.067981252
0.067998345
0.06802431
0.068017552
0.067960398
0.067855742
0.067737968
0.067623351
0.067609112
0.067639305
0.0677293
0.067863585
0.067892267
0.067825856
0.067579379
0.067173684
0.066790945
0.06655703
0.06645561
0.066471756
0.066528248
0.066612527
0.066742755
0.066949106
0.067195557
0.06746619
0.067819149
0.06824406
0.068725459
0.069313818
0.070022631
0.070828576
0.071757705
0.072849102
0.074109506
0.075548014
0.077189608
0.079030569
0.081024318
0.083128369
0.085326615
0.087596978
0.089884233
0.092044601
0.093674289
0.60253864
0.064766451
0.065551668
0.065589694
0.065589577
0.065589553
0.065589549
0.065589548
0.065589548
0.065589548
0.065589548
0.065589548
0.065589548
0.065589548
0.065589548
0.065589548
0.065589548
0.065589548
0.065589548
0.065589548
0.065589548
0.065589548
0.065589548
0.065589548
0.065589548
0.065589548
0.065589548
0.06558955
0.065589644
0.065590933
0.065598444
0.065626182
0.065708956
0.06589459
0.066108499
0.065861432
0.065341627
0.065365128
0.065539398
0.065676866
0.065629098
0.065671738
0.065959423
0.066694299
0.068166283
0.069350135
0.068943001
0.067950313
0.067659245
0.067855209
0.068001224
0.068018085
0.068045291
0.068038144
0.067979826
0.06787398
0.067755556
0.06764018
0.067629156
0.067660138
0.067752746
0.067887378
0.06791228
0.067840663
0.067584014
0.067170361
0.066786839
0.066554177
0.066452531
0.066470576
0.066518508
0.066600097
0.06674167
0.066932777
0.067145395
0.067429576
0.06778762
0.068181106
0.068651706
0.069247246
0.069939725
0.070726495
0.071656802
0.072744301
0.073986004
0.075413105
0.077051268
0.078871581
0.080821046
0.0828771
0.085028826
0.087237691
0.089436336
0.09145809
0.60134641
0.064769095
0.065551894
0.065589694
0.065589577
0.065589553
0.065589549
0.065589548
0.065589548
0.065589548
0.065589548
0.065589548
0.065589548
0.065589548
0.065589548
0.065589548
0.065589548
0.065589548
0.065589548
0.065589548
0.065589548
0.065589548
0.065589548
0.065589548
0.065589548
0.065589548
0.065589548
0.06558955
0.065589649
0.065590991
0.06559873
0.065627171
0.065711872
0.065900673
0.066113696
0.065852674
0.065336709
0.065369356
0.065542185
0.065681603
0.065627413
0.065675548
0.065971332
0.066722328
0.068224095
0.0693676
0.06894618
0.067952499
0.067678002
0.067881941
0.068021499
0.068037912
0.06806613
0.068058308
0.067998594
0.067892118
0.067772306
0.067656462
0.06764825
0.067680403
0.067776299
0.067911034
0.067931187
0.06785349
0.067585449
0.067163422
0.066779705
0.066548319
0.066450073
0.066463668
0.066506518
0.066590804
0.066723743
0.066891175
0.067116691
0.067414453
0.067737295
0.068106146
0.068590218
0.069180589
0.069843782
0.070627615
0.071564485
0.072636362
0.073861518
0.075290807
0.076925455
0.078712519
0.080614626
0.082630482
0.084735651
0.086874681
0.08897991
0.59994387
0.064772206
0.065552158
0.065589694
0.065589577
0.065589553
0.065589549
0.065589548
0.065589548
0.065589548
0.065589548
0.065589548
0.065589548
0.065589548
0.065589548
0.065589548
0.065589548
0.065589548
0.065589548
0.065589548
0.065589548
0.065589548
0.065589548
0.065589548
0.065589548
0.065589548
0.065589548
0.06558955
0.065589656
0.065591057
0.065599052
0.065628275
0.065715081
0.065907243
0.066118812
0.065842217
0.06533161
0.06537419
0.06554528
0.065686354
0.06562545
0.065679847
0.065984176
0.066752796
0.068287655
0.069382687
0.068946216
0.067953222
0.06769711
0.067909221
0.068042222
0.068057756
0.068086693
0.068078248
0.068017045
0.067910354
0.067787848
0.067672373
0.067666454
0.067700296
0.067799537
0.067933653
0.067948827
0.067864386
0.067584101
0.067153463
0.066770098
0.06654106
0.066444241
0.066454278
0.066495405
0.066577242
0.066699216
0.066868895
0.067102725
0.067366611
0.067661404
0.068048635
0.068540297
0.0690942
0.069742124
0.070540313
0.071469632
0.07251777
0.073743938
0.075182563
0.0767976
0.078541255
0.080409281
0.082395181
0.084444345
0.086500733
0.088514779
0.59833884
0.064775768
0.06555246
0.065589694
0.065589577
0.065589553
0.065589549
0.065589548
0.065589548
0.065589548
0.065589548
0.065589548
0.065589548
0.065589548
0.065589548
0.065589548
0.065589548
0.065589548
0.065589548
0.065589548
0.065589548
0.065589548
0.065589548
0.065589548
0.065589548
0.065589548
0.065589548
0.065589551
0.065589663
0.065591132
0.065599411
0.065629497
0.065718589
0.065914288
0.066123795
0.065830051
0.065326396
0.065379639
0.065548712
0.065691006
0.065623316
0.065684703
0.065998015
0.066785695
0.068357248
0.069394528
0.068942725
0.067952751
0.067716573
0.067936741
0.068063411
0.068077796
0.068107075
0.068098318
0.06803554
0.067927822
0.067802336
0.067687406
0.067684001
0.06772019
0.067823102
0.067955141
0.067964769
0.06787256
0.06757891
0.067140218
0.066758413
0.066531425
0.066436064
0.066443888
0.066482046
0.066557829
0.066676093
0.066846023
0.067059939
0.067304233
0.067614059
0.06801154
0.068464906
0.068993494
0.069662061
0.070465642
0.071362963
0.072401418
0.073645784
0.075081431
0.076658818
0.078369402
0.080219992
0.082170298
0.084146801
0.086124399
0.59653941
0.064779762
0.065552796
0.065589693
0.065589577
0.065589553
0.065589549
0.065589548
0.065589548
0.065589548
0.065589548
0.065589548
0.065589548
0.065589548
0.065589548
0.065589548
0.065589548
0.065589548
0.065589548
0.065589548
0.065589548
0.065589548
0.065589548
0.065589548
0.065589548
0.065589548
0.065589548
0.065589551
0.065589671
0.065591216
0.065599808
0.065630842
0.0657224
0.065921795
0.066128584
0.06581619
0.065321159
0.065385699
0.065552506
0.065695446
0.065621127
0.065690161
0.066013003