/*--------------------------------*- C++ -*----------------------------------*\
| =========                 |                                                 |
| \\      /  F ield         | OpenFOAM: The Open Source CFD Toolbox           |
|  \\    /   O peration     | Version:  2506                                  |
|   \\  /    A nd           | Website:  www.openfoam.com                      |
|    \\/     M anipulation  |                                                 |
\*---------------------------------------------------------------------------*/
FoamFile
{
    version     2.0;
    format      ascii;
    arch        "LSB;label=32;scalar=64";
    class       volScalarField;
    location    "0.001";
    object      alphat;
}
// * * * * * * * * * * * * * * * * * * * * * * * * * * * * * * * * * * * * * //

dimensions      [1 -1 -1 0 0 0 0];

internalField   nonuniform List<scalar> 
13763
(
2.749614e-05
2.7501143e-05
2.7521112e-05
2.753263e-05
2.7536389e-05
2.755001e-05
2.7571423e-05
2.7603582e-05
2.7639507e-05
2.7654514e-05
2.7673853e-05
2.7730535e-05
2.7816417e-05
2.7885813e-05
2.7920386e-05
2.7932551e-05
2.7935919e-05
2.7936741e-05
2.7937078e-05
2.7937188e-05
2.7937247e-05
2.7937319e-05
2.7937386e-05
2.7937446e-05
2.7937549e-05
2.7937653e-05
2.7937638e-05
2.7937602e-05
2.7937646e-05
2.7937728e-05
2.7937784e-05
2.7937815e-05
2.7937826e-05
2.7937837e-05
2.7937851e-05
2.7937857e-05
2.793787e-05
2.7937882e-05
2.7937889e-05
2.7937895e-05
2.7937892e-05
2.7937871e-05
2.7937805e-05
2.7937605e-05
2.7937062e-05
2.7935815e-05
2.7933359e-05
2.7931863e-05
2.7498384e-05
2.7502973e-05
2.7522511e-05
2.7533703e-05
2.7537013e-05
2.7550273e-05
2.7571518e-05
2.7603637e-05
2.763956e-05
2.7654735e-05
2.7674111e-05
2.7730804e-05
2.7816698e-05
2.7886018e-05
2.7920499e-05
2.7932607e-05
2.7935961e-05
2.7936811e-05
2.793714e-05
2.7937248e-05
2.7937297e-05
2.7937363e-05
2.793743e-05
2.7937487e-05
2.7937583e-05
2.7937691e-05
2.7937676e-05
2.7937629e-05
2.7937663e-05
2.7937744e-05
2.79378e-05
2.7937832e-05
2.7937845e-05
2.7937854e-05
2.7937861e-05
2.7937867e-05
2.7937876e-05
2.7937889e-05
2.7937897e-05
2.7937902e-05
2.7937903e-05
2.7937901e-05
2.793789e-05
2.7937854e-05
2.7937731e-05
2.7937382e-05
2.7936546e-05
2.793545e-05
2.7932582e-05
2.7932e-05
2.7501764e-05
2.7505762e-05
2.7524983e-05
2.7536072e-05
2.7538773e-05
2.7551222e-05
2.7571837e-05
2.7603661e-05
2.7639517e-05
2.7654948e-05
2.7674209e-05
2.7730723e-05
2.7816673e-05
2.7886099e-05
2.7920598e-05
2.7932689e-05
2.7936026e-05
2.7936892e-05
2.7937219e-05
2.793732e-05
2.793736e-05
2.7937417e-05
2.7937484e-05
2.7937537e-05
2.7937622e-05
2.7937729e-05
2.7937717e-05
2.7937669e-05
2.7937696e-05
2.7937769e-05
2.7937822e-05
2.7937853e-05
2.7937866e-05
2.7937872e-05
2.7937875e-05
2.7937877e-05
2.7937886e-05
2.79379e-05
2.7937908e-05
2.7937911e-05
2.7937914e-05
2.7937912e-05
2.7937913e-05
2.7937916e-05
2.7937898e-05
2.7937829e-05
2.7937642e-05
2.7937315e-05
2.7935753e-05
2.7935382e-05
2.7934251e-05
2.7505781e-05
2.7509939e-05
2.7528785e-05
2.7539856e-05
2.754179e-05
2.7552961e-05
2.7572566e-05
2.7603694e-05
2.7639563e-05
2.7655329e-05
2.7674447e-05
2.7730758e-05
2.7816773e-05
2.7886263e-05
2.792074e-05
2.7932793e-05
2.793612e-05
2.7936996e-05
2.7937313e-05
2.7937404e-05
2.7937435e-05
2.7937482e-05
2.7937547e-05
2.7937595e-05
2.7937666e-05
2.7937766e-05
2.7937759e-05
2.7937718e-05
2.793774e-05
2.7937802e-05
2.7937848e-05
2.7937875e-05
2.7937884e-05
2.7937887e-05
2.7937884e-05
2.7937887e-05
2.7937896e-05
2.793791e-05
2.7937917e-05
2.793792e-05
2.7937918e-05
2.7937916e-05
2.7937922e-05
2.7937932e-05
2.793793e-05
2.7937917e-05
2.7937885e-05
2.7937826e-05
2.793743e-05
2.7937362e-05
2.7936879e-05
2.7934277e-05
2.7933775e-05
2.7510707e-05
2.7516007e-05
2.7534164e-05
2.7544947e-05
2.7546094e-05
2.7555529e-05
2.7573833e-05
2.7603903e-05
2.7639615e-05
2.7655787e-05
2.7674774e-05
2.7730885e-05
2.7816956e-05
2.7886478e-05
2.7920911e-05
2.7932924e-05
2.7936235e-05
2.7937114e-05
2.7937414e-05
2.7937491e-05
2.7937514e-05
2.7937553e-05
2.7937613e-05
2.7937654e-05
2.793771e-05
2.7937798e-05
2.7937795e-05
2.7937766e-05
2.7937784e-05
2.7937836e-05
2.7937873e-05
2.793789e-05
2.7937893e-05
2.7937889e-05
2.793789e-05
2.7937895e-05
2.7937904e-05
2.7937914e-05
2.7937921e-05
2.7937921e-05
2.793792e-05
2.7937921e-05
2.7937926e-05
2.7937935e-05
2.7937933e-05
2.7937927e-05
2.7937924e-05
2.7937919e-05
2.7937855e-05
2.7937849e-05
2.7937761e-05
2.7936888e-05
2.7936751e-05
2.7934733e-05
2.7934826e-05
2.7516812e-05
2.7523646e-05
2.754121e-05
2.7551338e-05
2.7551622e-05
2.7558904e-05
2.7575681e-05
2.7604366e-05
2.7639713e-05
2.765622e-05
2.767512e-05
2.7731089e-05
2.78172e-05
2.788672e-05
2.7921098e-05
2.7933068e-05
2.7936363e-05
2.7937238e-05
2.7937509e-05
2.7937572e-05
2.7937588e-05
2.793762e-05
2.7937674e-05
2.7937707e-05
2.7937749e-05
2.7937823e-05
2.7937822e-05
2.7937803e-05
2.7937819e-05
2.7937864e-05
2.7937892e-05
2.7937896e-05
2.7937893e-05
2.793789e-05
2.7937896e-05
2.7937901e-05
2.7937907e-05
2.7937915e-05
2.7937919e-05
2.7937921e-05
2.7937925e-05
2.7937924e-05
2.7937926e-05
2.7937932e-05
2.793793e-05
2.7937927e-05
2.7937932e-05
2.7937931e-05
2.7937922e-05
2.7937922e-05
2.7937914e-05
2.7937777e-05
2.7937764e-05
2.7937222e-05
2.7937217e-05
2.7935485e-05
2.7935672e-05
2.7524373e-05
2.753239e-05
2.7549798e-05
2.7558941e-05
2.755821e-05
2.7563007e-05
2.757802e-05
2.7605163e-05
2.7639857e-05
2.7656585e-05
2.7675453e-05
2.7731334e-05
2.7817473e-05
2.7886971e-05
2.792129e-05
2.7933218e-05
2.7936493e-05
2.7937353e-05
2.7937592e-05
2.7937642e-05
2.7937652e-05
2.793768e-05
2.7937726e-05
2.7937749e-05
2.793778e-05
2.7937841e-05
2.7937841e-05
2.7937831e-05
2.7937846e-05
2.7937885e-05
2.7937902e-05
2.7937901e-05
2.7937893e-05
2.7937896e-05
2.7937902e-05
2.7937905e-05
2.7937909e-05
2.7937914e-05
2.7937919e-05
2.7937925e-05
2.7937929e-05
2.7937924e-05
2.7937927e-05
2.7937927e-05
2.7937926e-05
2.793793e-05
2.7937935e-05
2.7937935e-05
2.793793e-05
2.7937931e-05
2.7937931e-05
2.7937916e-05
2.7937917e-05
2.7937853e-05
2.7937855e-05
2.7937501e-05
2.7937519e-05
2.7936089e-05
2.7936117e-05
2.7936423e-05
2.7533497e-05
2.754167e-05
2.7559719e-05
2.7567551e-05
2.7565576e-05
2.75677e-05
2.7580651e-05
2.7606204e-05
2.7640081e-05
2.7656886e-05
2.7675753e-05
2.7731601e-05
2.7817757e-05
2.7887216e-05
2.7921476e-05
2.7933362e-05
2.7936613e-05
2.793745e-05
2.7937657e-05
2.7937697e-05
2.7937704e-05
2.7937731e-05
2.7937766e-05
2.7937778e-05
2.7937804e-05
2.7937853e-05
2.7937855e-05
2.7937851e-05
2.7937865e-05
2.7937898e-05
2.7937907e-05
2.7937907e-05
2.7937897e-05
2.7937901e-05
2.793791e-05
2.793791e-05
2.7937911e-05
2.7937916e-05
2.7937923e-05
2.7937928e-05
2.7937927e-05
2.7937926e-05
2.7937927e-05
2.7937926e-05
2.7937928e-05
2.7937933e-05
2.7937937e-05
2.7937932e-05
2.793793e-05
2.7937932e-05
2.7937932e-05
2.793793e-05
2.7937932e-05
2.7937928e-05
2.7937927e-05
2.7937896e-05
2.7937899e-05
2.7937677e-05
2.7937693e-05
2.7937743e-05
2.7936654e-05
2.7936737e-05
2.7543747e-05
2.755158e-05
2.7570368e-05
2.7576804e-05
2.7573321e-05
2.7572725e-05
2.7583407e-05
2.7607413e-05
2.7640326e-05
2.7657135e-05
2.7676028e-05
2.773187e-05
2.781803e-05
2.7887442e-05
2.7921647e-05
2.7933494e-05
2.7936715e-05
2.7937523e-05
2.7937707e-05
2.7937741e-05
2.7937752e-05
2.7937774e-05
2.7937793e-05
2.7937802e-05
2.7937824e-05
2.7937863e-05
2.7937868e-05
2.7937868e-05
2.793788e-05
2.7937902e-05
2.7937911e-05
2.7937907e-05
2.7937901e-05
2.7937907e-05
2.7937916e-05
2.7937916e-05
2.7937915e-05
2.793792e-05
2.7937926e-05
2.7937925e-05
2.7937926e-05
2.7937927e-05
2.7937928e-05
2.7937927e-05
2.793793e-05
2.7937935e-05
2.7937933e-05
2.7937928e-05
2.7937931e-05
2.7937932e-05
2.7937931e-05
2.7937932e-05
2.7937933e-05
2.7937932e-05
2.7937932e-05
2.7937931e-05
2.7937931e-05
2.7937916e-05
2.7937919e-05
2.7937922e-05
2.7937806e-05
2.7937802e-05
2.7554656e-05
2.7561899e-05
2.7580992e-05
2.7586244e-05
2.7581013e-05
2.7577761e-05
2.7586118e-05
2.7608645e-05
2.7640572e-05
2.7657335e-05
2.7676273e-05
2.7732136e-05
2.7818286e-05
2.7887645e-05
2.7921801e-05
2.7933609e-05
2.7936795e-05
2.7937573e-05
2.7937745e-05
2.7937782e-05
2.7937793e-05
2.7937808e-05
2.7937817e-05
2.7937825e-05
2.7937841e-05
2.793787e-05
2.7937877e-05
2.7937881e-05
2.7937891e-05
2.7937903e-05
2.7937905e-05
2.7937905e-05
2.7937905e-05
2.7937912e-05
2.793792e-05
2.7937923e-05
2.7937922e-05
2.7937924e-05
2.7937925e-05
2.7937924e-05
2.7937926e-05
2.7937928e-05
2.7937929e-05
2.7937929e-05
2.7937932e-05
2.7937932e-05
2.7937929e-05
2.7937928e-05
2.7937932e-05
2.7937932e-05
2.7937931e-05
2.7937932e-05
2.7937932e-05
2.7937932e-05
2.7937933e-05
2.7937932e-05
2.7937933e-05
2.7937933e-05
2.7937932e-05
2.7937933e-05
2.7937928e-05
2.7937928e-05
2.7565766e-05
2.7572154e-05
2.759109e-05
2.7595254e-05
2.7588219e-05
2.758248e-05
2.7588617e-05
2.7609815e-05
2.7640788e-05
2.7657497e-05
2.7676496e-05
2.7732387e-05
2.7818514e-05
2.7887818e-05
2.7921934e-05
2.7933707e-05
2.7936856e-05
2.7937603e-05
2.7937773e-05
2.7937816e-05
2.7937824e-05
2.7937834e-05
2.7937833e-05
2.793784e-05
2.7937854e-05
2.7937876e-05
2.7937882e-05
2.7937887e-05
2.7937897e-05
2.7937899e-05
2.7937902e-05
2.7937906e-05
2.7937909e-05
2.7937914e-05
2.7937922e-05
2.7937927e-05
2.7937923e-05
2.7937926e-05
2.7937927e-05
2.7937925e-05
2.7937927e-05
2.7937931e-05
2.7937931e-05
2.793793e-05
2.793793e-05
2.7937931e-05
2.7937928e-05
2.7937929e-05
2.7937931e-05
2.7937931e-05
2.7937932e-05
2.7937933e-05
2.7937932e-05
2.7937933e-05
2.7937933e-05
2.7937932e-05
2.7937933e-05
2.7937933e-05
2.7937933e-05
2.7937934e-05
2.7937933e-05
2.7937933e-05
2.7576447e-05
2.7581914e-05
2.7600157e-05
2.7603291e-05
2.7594559e-05
2.7586606e-05
2.7590765e-05
2.7610844e-05
2.7640964e-05
2.7657623e-05
2.7676694e-05
2.7732622e-05
2.7818717e-05
2.7887968e-05
2.792205e-05
2.7933789e-05
2.7936901e-05
2.793762e-05
2.7937791e-05
2.7937838e-05
2.7937842e-05
2.7937844e-05
2.7937848e-05
2.7937853e-05
2.7937865e-05
2.7937878e-05
2.7937887e-05
2.7937894e-05
2.7937898e-05
2.7937902e-05
2.7937903e-05
2.793791e-05
2.7937909e-05
2.7937914e-05
2.7937925e-05
2.7937925e-05
2.7937924e-05
2.7937929e-05
2.793793e-05
2.7937927e-05
2.7937928e-05
2.7937933e-05
2.793793e-05
2.7937929e-05
2.7937931e-05
2.793793e-05
2.7937928e-05
2.7937931e-05
2.7937931e-05
2.7937932e-05
2.7937933e-05
2.7937932e-05
2.7937931e-05
2.7937932e-05
2.7937933e-05
2.7937933e-05
2.7937933e-05
2.7937933e-05
2.7937933e-05
2.7937934e-05
2.7937933e-05
2.7937933e-05
2.7586099e-05
2.7590758e-05
2.7607839e-05
2.760992e-05
2.7599798e-05
2.7589962e-05
2.7592481e-05
2.7611682e-05
2.7641109e-05
2.7657731e-05
2.7676877e-05
2.7732837e-05
2.7818895e-05
2.7888097e-05
2.7922148e-05
2.7933854e-05
2.7936931e-05
2.7937627e-05
2.7937797e-05
2.7937847e-05
2.7937851e-05
2.7937858e-05
2.7937858e-05
2.7937863e-05
2.7937873e-05
2.7937882e-05
2.7937895e-05
2.7937898e-05
2.7937899e-05
2.7937905e-05
2.7937909e-05
2.7937908e-05
2.7937905e-05
2.7937915e-05
2.7937928e-05
2.7937926e-05
2.7937924e-05
2.793793e-05
2.7937932e-05
2.7937927e-05
2.7937929e-05
2.793793e-05
2.7937926e-05
2.7937928e-05
2.793793e-05
2.7937929e-05
2.7937931e-05
2.7937931e-05
2.7937931e-05
2.7937933e-05
2.7937934e-05
2.7937932e-05
2.7937932e-05
2.7937933e-05
2.7937934e-05
2.7937933e-05
2.7937933e-05
2.7937934e-05
2.7937933e-05
2.7937933e-05
2.7937932e-05
2.7937933e-05
2.7594298e-05
2.7598308e-05
2.7613959e-05
2.7614971e-05
2.7603837e-05
2.7592495e-05
2.7593741e-05
2.7612321e-05
2.7641221e-05
2.7657827e-05
2.7677044e-05
2.7733035e-05
2.7819058e-05
2.7888214e-05
2.7922229e-05
2.7933901e-05
2.7936949e-05
2.7937628e-05
2.7937795e-05
2.793785e-05
2.7937861e-05
2.7937863e-05
2.7937863e-05
2.793787e-05
2.7937876e-05
2.7937886e-05
2.7937898e-05
2.7937898e-05
2.7937902e-05
2.7937911e-05
2.7937912e-05
2.7937902e-05
2.7937906e-05
2.7937923e-05
2.7937933e-05
2.7937928e-05
2.7937924e-05
2.7937931e-05
2.7937931e-05
2.7937926e-05
2.7937928e-05
2.7937928e-05
2.7937925e-05
2.7937928e-05
2.7937933e-05
2.7937932e-05
2.7937929e-05
2.7937931e-05
2.7937933e-05
2.7937935e-05
2.7937933e-05
2.7937932e-05
2.7937933e-05
2.7937934e-05
2.7937934e-05
2.7937932e-05
2.7937933e-05
2.7937934e-05
2.7937933e-05
2.7937933e-05
2.7937933e-05
2.7937933e-05
2.7600852e-05
2.7604291e-05
2.7618534e-05
2.7618534e-05
2.760673e-05
2.7594263e-05
2.7594591e-05
2.7612773e-05
2.7641324e-05
2.7657927e-05
2.76772e-05
2.773321e-05
2.7819203e-05
2.7888317e-05
2.792229e-05
2.7933928e-05
2.7936955e-05
2.7937625e-05
2.7937788e-05
2.7937851e-05
2.7937863e-05
2.7937861e-05
2.7937865e-05
2.7937871e-05
2.7937876e-05
2.7937885e-05
2.7937898e-05
2.7937904e-05
2.7937911e-05
2.7937917e-05
2.793791e-05
2.7937899e-05
2.7937909e-05
2.793793e-05
2.793793e-05
2.7937925e-05
2.7937924e-05
2.7937927e-05
2.7937928e-05
2.7937927e-05
2.7937928e-05
2.7937928e-05
2.7937927e-05
2.7937931e-05
2.7937934e-05
2.7937934e-05
2.793793e-05
2.7937932e-05
2.7937933e-05
2.7937932e-05
2.7937932e-05
2.7937931e-05
2.7937931e-05
2.7937933e-05
2.7937933e-05
2.7937932e-05
2.7937933e-05
2.7937934e-05
2.7937934e-05
2.7937934e-05
2.7937933e-05
2.7937933e-05
2.7605781e-05
2.7608674e-05
2.7621699e-05
2.7620909e-05
2.7608642e-05
2.7595388e-05
2.7595114e-05
2.7613073e-05
2.7641416e-05
2.7658028e-05
2.7677337e-05
2.7733363e-05
2.7819338e-05
2.7888411e-05
2.7922333e-05
2.793394e-05
2.7936956e-05
2.7937627e-05
2.7937791e-05
2.7937852e-05
2.7937857e-05
2.793786e-05
2.7937867e-05
2.7937873e-05
2.7937871e-05
2.7937878e-05
2.7937899e-05
2.793791e-05
2.7937916e-05
2.7937913e-05
2.7937905e-05
2.7937903e-05
2.7937914e-05
2.7937928e-05
2.7937926e-05
2.7937921e-05
2.7937923e-05
2.7937925e-05
2.7937928e-05
2.7937928e-05
2.7937926e-05
2.7937928e-05
2.793793e-05
2.7937929e-05
2.7937932e-05
2.793793e-05
2.793793e-05
2.7937932e-05
2.7937932e-05
2.7937931e-05
2.7937933e-05
2.7937933e-05
2.7937933e-05
2.7937933e-05
2.7937932e-05
2.7937933e-05
2.7937933e-05
2.7937934e-05
2.7937934e-05
2.7937934e-05
2.7937933e-05
2.7937933e-05
2.7609268e-05
2.7611627e-05
2.7623733e-05
2.7622408e-05
2.7609808e-05
2.7596047e-05
2.7595416e-05
2.7613264e-05
2.7641513e-05
2.7658133e-05
2.7677457e-05
2.7733488e-05
2.7819458e-05
2.7888491e-05
2.7922361e-05
2.7933944e-05
2.7936959e-05
2.7937641e-05
2.7937812e-05
2.7937858e-05
2.7937858e-05
2.7937866e-05
2.7937869e-05
2.7937875e-05
2.7937864e-05
2.793787e-05
2.7937896e-05
2.7937909e-05
2.7937911e-05
2.7937911e-05
2.7937904e-05
2.7937909e-05
2.7937918e-05
2.793792e-05
2.793792e-05
2.7937922e-05
2.7937925e-05
2.7937927e-05
2.7937927e-05
2.7937925e-05
2.7937927e-05
2.7937932e-05
2.793793e-05
2.7937926e-05
2.793793e-05
2.793793e-05
2.793793e-05
2.7937932e-05
2.7937932e-05
2.7937932e-05
2.7937933e-05
2.7937932e-05
2.7937932e-05
2.7937934e-05
2.7937932e-05
2.7937932e-05
2.7937933e-05
2.7937933e-05
2.7937933e-05
2.7937933e-05
2.7937933e-05
2.7937933e-05
2.7611588e-05
2.7613476e-05
2.7624954e-05
2.7623296e-05
2.7610468e-05
2.7596407e-05
2.7595578e-05
2.7613381e-05
2.7641597e-05
2.7658227e-05
2.7677554e-05
2.7733598e-05
2.7819575e-05
2.7888564e-05
2.7922377e-05
2.7933941e-05
2.793697e-05
2.7937666e-05
2.7937832e-05
2.7937862e-05
2.793786e-05
2.7937864e-05
2.7937868e-05
2.7937875e-05
2.7937862e-05
2.7937866e-05
2.7937883e-05
2.7937899e-05
2.7937913e-05
2.7937914e-05
2.7937909e-05
2.7937911e-05
2.7937914e-05
2.7937919e-05
2.793792e-05
2.7937924e-05
2.7937927e-05
2.7937928e-05
2.7937927e-05
2.7937926e-05
2.7937929e-05
2.7937933e-05
2.793793e-05
2.7937927e-05
2.7937929e-05
2.7937931e-05
2.7937932e-05
2.7937935e-05
2.7937934e-05
2.7937933e-05
2.7937931e-05
2.7937932e-05
2.7937933e-05
2.7937934e-05
2.7937932e-05
2.7937932e-05
2.7937933e-05
2.7937933e-05
2.7937933e-05
2.7937933e-05
2.7937933e-05
2.7937933e-05
2.7613047e-05
2.7614565e-05
2.7625645e-05
2.7623801e-05
2.7610823e-05
2.7596596e-05
2.759567e-05
2.7613453e-05
2.7641679e-05
2.7658315e-05
2.7677641e-05
2.7733704e-05
2.7819691e-05
2.7888629e-05
2.7922388e-05
2.793394e-05
2.7936981e-05
2.7937685e-05
2.793784e-05
2.7937858e-05
2.7937858e-05
2.7937859e-05
2.7937868e-05
2.7937873e-05
2.7937869e-05
2.7937874e-05
2.793788e-05
2.7937896e-05
2.7937918e-05
2.7937917e-05
2.7937909e-05
2.793791e-05
2.7937914e-05
2.793792e-05
2.7937925e-05
2.7937926e-05
2.7937925e-05
2.7937923e-05
2.7937925e-05
2.7937927e-05
2.7937928e-05
2.793793e-05
2.793793e-05
2.7937929e-05
2.7937933e-05
2.7937931e-05
2.7937932e-05
2.7937934e-05
2.7937932e-05
2.7937929e-05
2.7937931e-05
2.7937933e-05
2.7937933e-05
2.7937933e-05
2.7937932e-05
2.7937932e-05
2.7937933e-05
2.7937934e-05
2.7937934e-05
2.7937933e-05
2.7937933e-05
2.7937933e-05
2.7613923e-05
2.761519e-05
2.7626031e-05
2.7624082e-05
2.7611008e-05
2.7596693e-05
2.7595719e-05
2.7613502e-05
2.7641743e-05
2.7658385e-05
2.7677722e-05
2.7733818e-05
2.7819814e-05
2.7888696e-05
2.7922408e-05
2.7933947e-05
2.7936992e-05
2.7937696e-05
2.7937838e-05
2.7937855e-05
2.7937858e-05
2.7937863e-05
2.7937873e-05
2.7937879e-05
2.7937885e-05
2.7937883e-05
2.7937888e-05
2.7937905e-05
2.7937922e-05
2.7937919e-05
2.7937909e-05
2.793791e-05
2.7937915e-05
2.7937924e-05
2.7937925e-05
2.7937923e-05
2.7937922e-05
2.7937928e-05
2.7937929e-05
2.7937926e-05
2.7937928e-05
2.7937929e-05
2.7937931e-05
2.7937931e-05
2.793793e-05
2.7937928e-05
2.793793e-05
2.7937934e-05
2.7937931e-05
2.7937929e-05
2.7937932e-05
2.7937933e-05
2.7937933e-05
2.7937933e-05
2.7937932e-05
2.7937933e-05
2.7937933e-05
2.7937934e-05
2.7937934e-05
2.7937934e-05
2.7937933e-05
2.7937933e-05
2.7614439e-05
2.7615555e-05
2.7626258e-05
2.7624251e-05
2.761111e-05
2.759674e-05
2.7595745e-05
2.7613531e-05
2.7641795e-05
2.765845e-05
2.7677817e-05
2.7733948e-05
2.7819938e-05
2.7888774e-05
2.7922451e-05
2.7933972e-05
2.7937006e-05
2.7937701e-05
2.7937829e-05
2.7937849e-05
2.7937862e-05
2.7937871e-05
2.7937883e-05
2.7937887e-05
2.7937893e-05
2.7937892e-05
2.7937898e-05
2.7937909e-05
2.7937916e-05
2.7937915e-05
2.7937909e-05
2.7937907e-05
2.7937913e-05
2.7937924e-05
2.7937922e-05
2.7937919e-05
2.7937925e-05
2.7937933e-05
2.7937932e-05
2.7937928e-05
2.7937929e-05
2.793793e-05
2.7937932e-05
2.7937931e-05
2.793793e-05
2.7937929e-05
2.793793e-05
2.7937934e-05
2.7937932e-05
2.793793e-05
2.7937931e-05
2.7937933e-05
2.7937932e-05
2.7937932e-05
2.7937933e-05
2.7937933e-05
2.7937934e-05
2.7937933e-05
2.7937933e-05
2.7937933e-05
2.7937933e-05
2.7937933e-05
2.7614755e-05
2.7615791e-05
2.7626412e-05
2.7624362e-05
2.761117e-05
2.7596762e-05
2.7595756e-05
2.7613551e-05
2.7641834e-05
2.7658506e-05
2.7677916e-05
2.7734089e-05
2.7820065e-05
2.7888862e-05
2.7922505e-05
2.7934005e-05
2.7937022e-05
2.7937705e-05
2.7937827e-05
2.7937849e-05
2.7937862e-05
2.7937883e-05
2.793789e-05
2.7937889e-05
2.7937889e-05
2.7937898e-05
2.7937904e-05
2.7937906e-05
2.7937905e-05
2.7937911e-05
2.7937911e-05
2.7937909e-05
2.7937915e-05
2.7937917e-05
2.7937917e-05
2.7937918e-05
2.7937928e-05
2.793793e-05
2.793793e-05
2.7937932e-05
2.7937932e-05
2.7937933e-05
2.793793e-05
2.7937931e-05
2.7937931e-05
2.7937932e-05
2.7937933e-05
2.7937935e-05
2.7937933e-05
2.7937931e-05
2.793793e-05
2.7937931e-05
2.7937932e-05
2.7937932e-05
2.7937932e-05
2.7937933e-05
2.7937932e-05
2.7937934e-05
2.7937934e-05
2.7937933e-05
2.7937933e-05
2.7937933e-05
2.7614973e-05
2.7615961e-05
2.7626532e-05
2.7624446e-05
2.761121e-05
2.7596771e-05
2.7595761e-05
2.7613567e-05
2.7641873e-05
2.7658568e-05
2.7678032e-05
2.7734246e-05
2.7820198e-05
2.788895e-05
2.7922564e-05
2.7934049e-05
2.7937046e-05
2.7937716e-05
2.7937839e-05
2.7937856e-05
2.7937871e-05
2.7937888e-05
2.7937888e-05
2.7937882e-05
2.7937886e-05
2.79379e-05
2.7937907e-05
2.7937898e-05
2.7937901e-05
2.7937913e-05
2.7937913e-05
2.7937912e-05
2.7937915e-05
2.7937915e-05
2.7937915e-05
2.7937921e-05
2.793793e-05
2.7937929e-05
2.7937925e-05
2.7937927e-05
2.793793e-05
2.7937931e-05
2.7937931e-05
2.7937933e-05
2.7937932e-05
2.7937931e-05
2.7937932e-05
2.7937933e-05
2.7937933e-05
2.7937932e-05
2.7937931e-05
2.7937932e-05
2.7937932e-05
2.7937933e-05
2.7937933e-05
2.7937933e-05
2.7937932e-05
2.7937933e-05
2.7937934e-05
2.7937933e-05
2.7937932e-05
2.7937933e-05
2.7615157e-05
2.7616122e-05
2.7626638e-05
2.7624509e-05
2.7611243e-05
2.759678e-05
2.7595764e-05
2.7613586e-05
2.7641918e-05
2.7658635e-05
2.767815e-05
2.7734406e-05
2.7820338e-05
2.788904e-05
2.7922625e-05
2.7934094e-05
2.7937069e-05
2.793772e-05
2.793784e-05
2.7937864e-05
2.7937883e-05
2.7937889e-05
2.7937879e-05
2.7937874e-05
2.7937887e-05
2.7937901e-05
2.7937904e-05
2.7937898e-05
2.7937906e-05
2.7937918e-05
2.7937914e-05
2.7937914e-05
2.7937918e-05
2.7937916e-05
2.7937917e-05
2.7937924e-05
2.7937925e-05
2.7937925e-05
2.7937925e-05
2.7937931e-05
2.7937931e-05
2.7937927e-05
2.7937925e-05
2.793793e-05
2.793793e-05
2.793793e-05
2.7937932e-05
2.7937934e-05
2.7937933e-05
2.7937932e-05
2.7937932e-05
2.7937933e-05
2.7937932e-05
2.7937933e-05
2.7937933e-05
2.7937933e-05
2.7937934e-05
2.7937934e-05
2.7937934e-05
2.7937933e-05
2.7937932e-05
2.7937934e-05
2.7615335e-05
2.7616298e-05
2.7626746e-05
2.7624561e-05
2.7611276e-05
2.7596791e-05
2.7595774e-05
2.7613616e-05
2.7641975e-05
2.7658716e-05
2.7678278e-05
2.7734568e-05
2.7820485e-05
2.788914e-05
2.7922686e-05
2.7934124e-05
2.7937079e-05
2.7937714e-05
2.7937837e-05
2.7937877e-05
2.7937898e-05
2.7937896e-05
2.7937878e-05
2.793787e-05
2.7937885e-05
2.7937902e-05
2.7937905e-05
2.7937902e-05
2.7937909e-05
2.793792e-05
2.7937915e-05
2.7937916e-05
2.7937919e-05
2.793792e-05
2.7937925e-05
2.7937926e-05
2.7937924e-05
2.7937927e-05
2.7937929e-05
2.7937932e-05
2.7937929e-05
2.7937925e-05
2.7937927e-05
2.7937929e-05
2.793793e-05
2.793793e-05
2.7937933e-05
2.7937934e-05
2.7937934e-05
2.7937931e-05
2.793793e-05
2.793793e-05
2.7937933e-05
2.7937934e-05
2.7937933e-05
2.7937932e-05
2.7937933e-05
2.7937934e-05
2.7937934e-05
2.7937933e-05
2.7937933e-05
2.7937933e-05
2.7615539e-05
2.7616486e-05
2.7626857e-05
2.7624603e-05
2.7611314e-05
2.7596808e-05
2.7595787e-05
2.7613656e-05
2.7642045e-05
2.7658806e-05
2.7678405e-05
2.7734727e-05
2.7820639e-05
2.7889251e-05
2.7922737e-05
2.7934137e-05
2.7937071e-05
2.7937699e-05
2.7937836e-05
2.7937893e-05
2.7937908e-05
2.7937906e-05
2.7937882e-05
2.793787e-05
2.7937886e-05
2.7937908e-05
2.7937908e-05
2.7937902e-05
2.793791e-05
2.7937912e-05
2.7937912e-05
2.7937917e-05
2.7937925e-05
2.7937925e-05
2.7937923e-05
2.7937926e-05
2.7937929e-05
2.7937932e-05
2.7937933e-05
2.793793e-05
2.7937925e-05
2.7937927e-05
2.7937929e-05
2.7937933e-05
2.7937935e-05
2.7937935e-05
2.7937934e-05
2.7937932e-05
2.7937931e-05
2.7937932e-05
2.7937933e-05
2.7937932e-05
2.7937932e-05
2.7937933e-05
2.7937934e-05
2.7937933e-05
2.7937933e-05
2.7937933e-05
2.7937933e-05
2.7937934e-05
2.7937934e-05
2.7937933e-05
2.7615807e-05
2.7616689e-05
2.7626963e-05
2.7624625e-05
2.7611347e-05
2.7596833e-05
2.7595811e-05
2.7613705e-05
2.7642128e-05
2.7658909e-05
2.7678539e-05
2.7734889e-05
2.7820805e-05
2.7889368e-05
2.7922778e-05
2.7934137e-05
2.7937064e-05
2.7937695e-05
2.7937836e-05
2.7937896e-05
2.7937914e-05
2.7937909e-05
2.7937885e-05
2.7937874e-05
2.793789e-05
2.7937911e-05
2.793791e-05
2.7937907e-05
2.7937914e-05
2.7937915e-05
2.7937918e-05
2.7937918e-05
2.7937923e-05
2.7937922e-05
2.7937921e-05
2.7937928e-05
2.7937932e-05
2.7937932e-05
2.7937928e-05
2.7937929e-05
2.7937928e-05
2.7937928e-05
2.7937931e-05
2.7937931e-05
2.7937934e-05
2.7937935e-05
2.7937935e-05
2.7937932e-05
2.793793e-05
2.7937933e-05
2.7937932e-05
2.7937932e-05
2.7937933e-05
2.7937934e-05
2.7937934e-05
2.7937934e-05
2.7937933e-05
2.7937933e-05
2.7937933e-05
2.7937933e-05
2.7937933e-05
2.7937933e-05
2.7616138e-05
2.7616924e-05
2.7627073e-05
2.7624632e-05
2.7611375e-05
2.7596853e-05
2.7595835e-05
2.7613757e-05
2.7642213e-05
2.7659012e-05
2.7678673e-05
2.7735059e-05
2.7820979e-05
2.7889484e-05
2.7922819e-05
2.7934135e-05
2.7937063e-05
2.7937699e-05
2.7937839e-05
2.7937899e-05
2.7937918e-05
2.7937909e-05
2.7937887e-05
2.7937879e-05
2.7937894e-05
2.793791e-05
2.7937917e-05
2.7937917e-05
2.7937924e-05
2.7937925e-05
2.7937922e-05
2.7937918e-05
2.7937916e-05
2.7937917e-05
2.7937919e-05
2.793793e-05
2.7937932e-05
2.7937931e-05
2.7937927e-05
2.7937924e-05
2.7937926e-05
2.7937931e-05
2.7937932e-05
2.7937931e-05
2.7937931e-05
2.7937931e-05
2.7937929e-05
2.7937931e-05
2.7937933e-05
2.7937934e-05
2.7937932e-05
2.7937931e-05
2.7937932e-05
2.7937933e-05
2.7937932e-05
2.7937933e-05
2.7937933e-05
2.7937933e-05
2.7937934e-05
2.7937934e-05
2.7937933e-05
2.7937934e-05
2.7616471e-05
2.7617185e-05
2.7627186e-05
2.7624635e-05
2.7611397e-05
2.759687e-05
2.7595859e-05
2.7613809e-05
2.7642293e-05
2.765911e-05
2.767881e-05
2.7735238e-05
2.7821153e-05
2.7889596e-05
2.7922861e-05
2.7934141e-05
2.793707e-05
2.7937704e-05
2.7937841e-05
2.7937901e-05
2.7937914e-05
2.793791e-05
2.7937891e-05
2.7937887e-05
2.7937898e-05
2.793791e-05
2.7937922e-05
2.7937924e-05
2.7937929e-05
2.7937924e-05
2.7937912e-05
2.7937913e-05
2.7937914e-05
2.7937916e-05
2.793792e-05
2.7937926e-05
2.7937928e-05
2.7937928e-05
2.7937929e-05
2.7937928e-05
2.7937929e-05
2.7937935e-05
2.7937933e-05
2.7937934e-05
2.7937933e-05
2.793793e-05
2.793793e-05
2.7937932e-05
2.7937931e-05
2.7937929e-05
2.7937931e-05
2.7937932e-05
2.7937932e-05
2.7937932e-05
2.7937933e-05
2.7937933e-05
2.7937933e-05
2.7937932e-05
2.7937933e-05
2.7937933e-05
2.7937933e-05
2.7937933e-05
2.7616752e-05
2.7617405e-05
2.7627284e-05
2.7624634e-05
2.76114e-05
2.7596879e-05
2.759588e-05
2.7613848e-05
2.7642345e-05
2.7659175e-05
2.7678932e-05
2.7735417e-05
2.7821321e-05
2.7889698e-05
2.7922894e-05
2.7934149e-05
2.7937072e-05
2.793771e-05
2.7937846e-05
2.7937891e-05
2.7937897e-05
2.7937895e-05
2.7937888e-05
2.7937892e-05
2.7937901e-05
2.7937909e-05
2.7937922e-05
2.7937927e-05
2.7937927e-05
2.7937924e-05
2.7937918e-05
2.7937914e-05
2.7937917e-05
2.7937923e-05
2.7937928e-05
2.7937927e-05
2.7937925e-05
2.793792e-05
2.7937919e-05
2.7937927e-05
2.7937927e-05
2.7937928e-05
2.7937932e-05
2.7937934e-05
2.7937934e-05
2.793793e-05
2.7937932e-05
2.7937933e-05
2.7937931e-05
2.793793e-05
2.7937932e-05
2.7937932e-05
2.7937932e-05
2.7937932e-05
2.7937933e-05
2.7937933e-05
2.7937933e-05
2.7937934e-05
2.7937933e-05
2.7937933e-05
2.7937933e-05
2.7937933e-05
2.7616915e-05
2.7617596e-05
2.7627353e-05
2.7624649e-05
2.7611379e-05
2.7596875e-05
2.7595903e-05
2.7613892e-05
2.7642384e-05
2.7659216e-05
2.7679033e-05
2.7735589e-05
2.7821491e-05
2.7889789e-05
2.7922902e-05
2.7934135e-05
2.7937066e-05
2.7937716e-05
2.7937853e-05
2.7937884e-05
2.7937887e-05
2.7937886e-05
2.7937885e-05
2.7937895e-05
2.79379e-05
2.7937907e-05
2.7937912e-05
2.7937914e-05
2.7937912e-05
2.7937915e-05
2.7937917e-05
2.7937916e-05
2.7937919e-05
2.7937927e-05
2.7937927e-05
2.7937925e-05
2.7937925e-05
2.7937923e-05
2.7937926e-05
2.7937932e-05
2.7937929e-05
2.7937925e-05
2.7937931e-05
2.7937932e-05
2.7937929e-05
2.7937931e-05
2.7937932e-05
2.7937931e-05
2.793793e-05
2.7937932e-05
2.7937932e-05
2.7937932e-05
2.7937933e-05
2.7937934e-05
2.7937933e-05
2.7937933e-05
2.7937933e-05
2.7937933e-05
2.7937933e-05
2.7937933e-05
2.7937933e-05
2.7937933e-05
2.7616896e-05
2.7617656e-05
2.7627396e-05
2.7624702e-05
2.7611369e-05
2.7596874e-05
2.7595922e-05
2.7613917e-05
2.7642405e-05
2.7659238e-05
2.7679122e-05
2.7735756e-05
2.7821659e-05
2.7889883e-05
2.7922929e-05
2.793413e-05
2.7937054e-05
2.7937717e-05
2.7937861e-05
2.7937879e-05
2.7937878e-05
2.7937882e-05
2.7937884e-05
2.793789e-05
2.7937894e-05
2.7937897e-05
2.7937903e-05
2.7937907e-05
2.793791e-05
2.7937915e-05
2.7937915e-05
2.7937916e-05
2.7937921e-05
2.793793e-05
2.7937928e-05
2.7937922e-05
2.7937919e-05
2.7937925e-05
2.793793e-05
2.7937934e-05
2.7937932e-05
2.7937928e-05
2.7937933e-05
2.7937932e-05
2.7937928e-05
2.7937931e-05
2.7937933e-05
2.7937932e-05
2.7937932e-05
2.793793e-05
2.793793e-05
2.7937933e-05
2.7937933e-05
2.7937933e-05
2.7937933e-05
2.7937933e-05
2.7937933e-05
2.7937933e-05
2.7937933e-05
2.7937933e-05
2.7937932e-05
2.7937933e-05
2.7616752e-05
2.7617523e-05
2.7627365e-05
2.7624776e-05
2.7611386e-05
2.7596898e-05
2.7595963e-05
2.7613966e-05
2.7642431e-05
2.7659258e-05
2.7679211e-05
2.7735925e-05
2.7821829e-05
2.7889989e-05
2.7922976e-05
2.793415e-05
2.793706e-05
2.7937708e-05
2.7937848e-05
2.7937865e-05
2.7937866e-05
2.7937872e-05
2.7937879e-05
2.7937886e-05
2.7937895e-05
2.7937895e-05
2.7937897e-05
2.7937905e-05
2.7937911e-05
2.7937911e-05
2.7937917e-05
2.7937921e-05
2.7937923e-05
2.7937925e-05
2.7937922e-05
2.7937919e-05
2.7937918e-05
2.7937925e-05
2.7937929e-05
2.7937934e-05
2.7937933e-05
2.7937928e-05
2.7937928e-05
2.7937932e-05
2.7937931e-05
2.7937933e-05
2.7937932e-05
2.7937933e-05
2.7937932e-05
2.7937931e-05
2.7937932e-05
2.7937932e-05
2.7937932e-05
2.7937933e-05
2.7937933e-05
2.7937932e-05
2.7937933e-05
2.7937934e-05
2.7937934e-05
2.7937933e-05
2.7937933e-05
2.7937933e-05
2.7616509e-05
2.7617333e-05
2.762731e-05
2.7624831e-05
2.7611417e-05
2.7596932e-05
2.7596e-05
2.7614004e-05
2.7642461e-05
2.7659299e-05
2.7679318e-05
2.7736105e-05
2.7822018e-05
2.7890107e-05
2.7923038e-05
2.7934191e-05
2.7937099e-05
2.7937726e-05
2.7937837e-05
2.7937853e-05
2.7937857e-05
2.7937866e-05
2.7937873e-05
2.7937884e-05
2.7937897e-05
2.7937898e-05
2.79379e-05
2.7937907e-05
2.7937912e-05
2.7937913e-05
2.7937921e-05
2.7937925e-05
2.7937925e-05
2.7937921e-05
2.7937917e-05
2.7937924e-05
2.7937927e-05
2.7937926e-05
2.7937926e-05
2.7937929e-05
2.7937932e-05
2.7937931e-05
2.7937927e-05
2.793793e-05
2.7937932e-05
2.7937935e-05
2.7937933e-05
2.793793e-05
2.7937931e-05
2.7937932e-05
2.7937933e-05
2.7937931e-05
2.7937933e-05
2.7937934e-05
2.7937935e-05
2.7937933e-05
2.7937932e-05
2.7937933e-05
2.7937933e-05
2.7937933e-05
2.7937933e-05
2.7937934e-05
2.7616518e-05
2.7617217e-05
2.7627282e-05
2.7624844e-05
2.7611433e-05
2.7596953e-05
2.7596022e-05
2.761404e-05
2.7642499e-05
2.765935e-05
2.7679439e-05
2.7736301e-05
2.7822223e-05
2.7890246e-05
2.7923118e-05
2.7934236e-05
2.7937121e-05
2.7937726e-05
2.7937838e-05
2.7937856e-05
2.7937866e-05
2.7937878e-05
2.7937883e-05
2.7937893e-05
2.7937901e-05
2.7937906e-05
2.7937905e-05
2.7937909e-05
2.7937916e-05
2.7937915e-05
2.793792e-05
2.793792e-05
2.7937919e-05
2.7937915e-05
2.7937916e-05
2.7937922e-05
2.7937925e-05
2.7937924e-05
2.7937922e-05
2.7937927e-05
2.7937932e-05
2.793793e-05
2.7937926e-05
2.7937927e-05