/*--------------------------------*- C++ -*----------------------------------*\
| =========                 |                                                 |
| \\      /  F ield         | OpenFOAM: The Open Source CFD Toolbox           |
|  \\    /   O peration     | Version:  2506                                  |
|   \\  /    A nd           | Website:  www.openfoam.com                      |
|    \\/     M anipulation  |                                                 |
\*---------------------------------------------------------------------------*/
FoamFile
{
    version     2.0;
    format      ascii;
    arch        "LSB;label=32;scalar=64";
    class       volScalarField;
    location    "0.008";
    object      p;
}
// * * * * * * * * * * * * * * * * * * * * * * * * * * * * * * * * * * * * * //

dimensions      [1 -1 -2 0 0 0 0];

internalField   nonuniform List<scalar> 
428467
(
48167.71
50016.233
48529.421
49464.153
48373.393
49201.284
48970.17
49248.81
49020.898
48586.123
48059.156
47630.82
47334.108
47153.579
47054.25
47004.868
46982.871
46974.195
46971.21
46970.317
46970.077
46970.018
46970.004
46970.001
46970
46970
46970
46970
46970
46970
46970
46970
46970
46970
46970
46970
46970
46970
46970
46970
46970
46970
46970
46970
46970
46970
46970
46970
46970
46970
46970
46970
46970
46970
46970
46970
46970
46970
46970
46970
46970
46970
46970
46970
46970
46970
46970.001
46970.005
46970.025
46970.112
46970.441
46971.534
46974.772
46983.196
47002.062
47037.752
47092.943
47157.836
47211.104
47221.161
47155.987
47017.035
46851.019
46699.63
46581.382
46490.587
46411.186
46337.167
46268.763
46205.014
46145.349
46089.533
46037.086
45987.613
45940.648
45895.809
45852.848
45811.654
45772.181
45734.352
45698.039
45663.081
45629.32
45596.627
45564.922
45534.162
45504.3
45475.248
45446.907
45419.146
45391.904
45365.178
45338.869
45312.829
45286.945
45261.221
45235.794
45210.838
45186.445
45162.593
45139.19
45116.102
45093.163
45070.226
45047.234
45024.237
45001.349
44978.679
44956.293
44934.218
44912.449
44890.984
44869.952
44849.76
44831.023
44814.27
44799.761
44787.604
44777.952
44771.032
44766.844
44764.833
44765.631
44769.049
44775.774
44784.694
44796.15
44810.174
44826.529
44844.592
44863.797
44883.595
44903.564
44923.318
44942.547
44960.978
44978.255
44993.785
45007.124
45018.034
45026.328
45031.805
45034.611
45035.001
45033.227
45029.724
45024.72
45017.985
45008.1
44993.535
44977.437
44959.869
44942.7
44927.52
44911.164
44892.842
44871.81
44846.86
44821.631
44796.007
44767.382
44739.705
44713.145
44682.943
44649.089
44618.197
44588.998
44553.654
44521.354
44488.488
44449.597
44408.651
44371.051
44342.336
44291.998
44240.622
44211.635
44173.37
44128.824
44085.34
44034.553
43991.694
43951.736
43901.91
43860.609
43812.947
43759.827
43712.25
43667.227
43626.324
43577.358
43526.519
43476.659
43422.628
43366.224
43313.942
43268.039
43213.886
43153.762
43100.967
43050.553
43003.572
42948.967
42892.035
42842.493
42786.887
42732.986
42675.844
42626.475
42575.861
42516.859
42449.784
42376.749
42331.315
42290.685
42223.533
42171.249
42122.166
42071.153
41998.771
41922.624
41872.454
41817.911
41755.593
41700.745
41675.589
41622.462
41565.896
41524.093
41450.417
41372.933
41326.807
41308.525
41245.988
41159.281
41093.477
41049.464
41015.692
40973.768
40928.969
40891.653
40850.074
40771.278
40705.58
40660.053
40606.493
40550.942
40500.593
40468.043
40427.026
40409.351
40390.141
40353.473
40309.182
40255.953
40181.8
40137.334
40099.477
40063.239
40022.866
39988.136
39945.5
39899.876
39867.733
39840.751
39813.877
39784.887
39753.423
39719.921
39684.561
39647.668
39610.42
39573.683
39541.639
39518.979
39485.26
39445.842
39412.951
39390.656
48175.733
49917.829
48510.717
49375.771
48381.028
49151.164
48959.662
49191.688
48941.306
48495.96
47988.17
47582.152
47304.882
47137.574
47046.244
47001.252
46981.385
46973.633
46971.019
46970.259
46970.062
46970.014
46970.003
46970.001
46970
46970
46970
46970
46970
46970
46970
46970
46970
46970
46970
46970
46970
46970
46970
46970
46970
46970
46970
46970
46970
46970
46970
46970
46970
46970
46970
46970
46970
46970
46970
46970
46970
46970
46970
46970
46970
46970
46970
46970
46970
46970
46970.001
46970.005
46970.022
46970.099
46970.395
46971.402
46974.428
46982.403
47000.466
47035.053
47089.665
47155.94
47212.209
47228.645
47171.99
47037.989
46871.285
46717.959
46598.262
46506.886
46427.141
46352.681
46283.941
46219.902
46159.964
46103.906
46051.237
46001.58
45954.47
45909.521
45866.469
45825.178
45785.592
45747.641
45711.211
45676.155
45642.318
45609.56
45577.792
45546.967
45517.043
45487.941
45459.564
45431.79
45404.543
45377.809
45351.486
45325.431
45299.538
45273.81
45248.379
45223.42
45199.03
45175.186
45151.795
45128.723
45105.808
45082.9
45059.934
45036.952
45014.059
44991.359
44968.915
44946.745
44924.828
44903.127
44881.71
44860.907
44841.293
44823.403
44807.511
44793.706
44782.113
44772.956
44766.435
44762.195
44759.447
44760.382
44764.434
44770.874
44779.924
44791.342
44805.127
44820.757
44837.748
44855.681
44874.077
44892.648
44911.138
44929.276
44946.62
44962.559
44976.655
44988.625
44998.158
45004.995
45009.211
45010.958
45010.601
45008.603
45004.938
44999.472
44991.616
44980.106
44964.929
44947.912
44930.654
44916.119
44900.782
44882.655
44862.498
44838.7
44813.851
44789.789
44762.198
44735.732
44709.974
44680.366
44650.373
44617.748
44584.796
44551.833
44518.722
44485.888
44448.875
44407.056
44367.765
44330.55
44293.441
44252.291
44215.015
44171.548
44122.768
44082.461
44039.563
43998.936
43952.695
43898.713
43857.339
43810.131
43757.24
43711.525
43667.145
43625.906
43577.263
43521.884
43471.925
43421.7
43364.279
43312.681
43268.623
43214.434
43156.223
43098.88
43044.554
43000.497
42946.03
42887.657
42831.419
42772.583
42723.87
42671.953
42615.126
42569.899
42507.831
42438.152
42391.02
42323.907
42257.59
42211.873
42157.355
42098.866
42037.277
41966.846
41909.202
41851.73
41807.197
41777.588
41745.386
41650.065
41565.591
41515.633
41456.111
41404.889
41367.064
41343.143
41262.173
41174.713
41115.602
41076.916
41057.535
41008.329
40943.656
40876.263
40799.741
40741.86
40704.125
40669.463
40630.48
40585.286
40538.502
40503.8
40473.376
40449.104
40374.94
40289.049
40228.862
40178.78
40136.871
40093.446
40056.358
40030.056
40002.366
39972.129
39938.525
39902.634
39866.874
39843.795
39815.025
39777.067
39735.569
39693.422
39652.536
39613.682
39578.231
39546.269
39513.991
39471.308
39421.237
39415.127
39403.093
39390.149
39384.203
48186.833
49802.976
48482.805
49287.195
48389.943
49100.393
48947.831
49126.651
48854.271
48400.292
47912.877
47531.353
47274.425
47120.997
47038.043
46997.587
46979.895
46973.083
46970.841
46970.208
46970.048
46970.011
46970.002
46970
46970
46970
46970
46970
46970
46970
46970
46970
46970
46970
46970
46970
46970
46970
46970
46970
46970
46970
46970
46970
46970
46970
46970
46970
46970
46970
46970
46970
46970
46970
46970
46970
46970
46970
46970
46970
46970
46970
46970
46970
46970
46970
46970.001
46970.004
46970.019
46970.086
46970.35
46971.266
46974.066
46981.574
46998.842
47032.362
47086.24
47153.836
47213.295
47235.601
47187.202
47059.206
46892.667
46736.973
46615.504
46523.373
46443.3
46368.483
46299.475
46235.176
46174.974
46118.676
46065.787
46015.944
45968.685
45923.624
45880.482
45839.102
45799.411
45761.341
45724.793
45689.635
45655.717
45622.892
45591.06
45560.17
45530.183
45501.028
45472.609
45444.815
45417.563
45390.822
45364.49
45338.422
45312.517
45286.781
45261.345
45236.381
45211.99
45188.155
45164.776
45141.721
45118.832
45095.957
45073.023
45050.062
45027.172
45004.454
44981.967
44959.727
44937.704
44915.833
44894.124
44872.836
44852.49
44833.62
44816.512
44801.243
44787.902
44776.69
44767.811
44761.357
44756.781
44753.981
44754.848
44758.933
44765.235
44774.315
44785.473
44798.613
44813.317
44829.12
44845.616
44862.642
44880.024
44897.429
44914.406
44930.373
44944.939
44957.705
44968.231
44976.26
44981.721
44984.766
44985.895
44985.418
44983.191
44979.054
44972.613
44963.363
44950.462
44934.581
44919.001
44903.928
44888.32
44869.528
44848.475
44828.602
44806.77
44783.098
44756.658
44730.856
44704.274
44674.843
44646.661
44617.941
44584.905
44551.798
44517.563
44482.313
44444.232
44404.17
44365.873
44326.816
44289.074
44250.238
44215.397
44175.263
44125.996
44086.492
44043.688
43996.042
43955.265
43907.085
43856.782
43814.644
43763.59
43715.375
43666.49
43616.909
43572.774
43526.91
43470.719
43413.133
43367.379
43307.518
43253.282
43212.539
43161.336
43100.879
43043.158
42992.086
42938.302
42883.504
42830.138
42778.748
42716.468
42665.183
42613.926
42541.433
42484.763
42428.702
42382.73
42321.073
42254.266
42202.651
42129.383
42063.555
42006.767
41950.146
41898.343
41851.701
41799.624
41744.43
41693.873
41614.369
41542.064
41483.042
41431.721
41392.611
41354.702
41293.71
41222.056
41158.373
41107.639
41087.298
41020.504
40933.532
40868.904
40806.354
40745.677
40718.604
40694.157
40642.352
40590.027
40548.904
40508.212
40445.42
40372.83
40315.932
40266.596
40222.216
40178.452
40143.83
40104.016
40050.737
40021.233
40005.093
39978.748
39943.111
39907.203
39873.172
39841.766
39789.625
39734.115
39688.197
39647.987
39611.319
39577.114
39545.122
39515.465
39487.353
39459.872
39431.315
39404.757
39384.008
39367.574
39357.921
39356.208
48197.254
49671.437
48450.335
49202.402
48395.308
49042.987
48931.93
49053.967
48756.541
48297.899
47834.464
47479.475
47243.581
47104.305
47029.844
46993.918
46978.395
46972.541
46970.673
46970.163
46970.037
46970.008
46970.002
46970
46970
46970
46970
46970
46970
46970
46970
46970
46970
46970
46970
46970
46970
46970
46970
46970
46970
46970
46970
46970
46970
46970
46970
46970
46970
46970
46970
46970
46970
46970
46970
46970
46970
46970
46970
46970
46970
46970
46970
46970
46970
46970
46970.001
46970.003
46970.016
46970.074
46970.308
46971.133
46973.703
46980.723
46997.139
47029.518
47082.665
47151.352
47214.166
47242.005
47201.781
47080.499
46915.488
46757.241
46633.617
46540.577
46460.214
46385.013
46315.702
46251.122
46190.646
46134.105
46080.991
46030.954
45983.535
45938.35
45895.111
45853.642
45813.849
45775.662
45738.992
45703.725
45669.717
45636.82
45604.92
45573.963
45543.911
45514.698
45486.234
45458.41
45431.145
45404.398
45378.058
45351.978
45326.058
45300.312
45274.867
45249.893
45225.498
45201.666
45178.299
45155.26
45132.395
45109.554
45086.657
45063.725
45040.848
45018.12
44995.601
44973.31
44951.213
44929.223
44907.302
44885.638
44864.697
44844.995
44826.832
44810.279
44795.39
44782.338
44771.331
44762.473
44755.78
44750.786
44747.735
44748.482
44752.742
44759.1
44767.843
44778.425
44790.766
44804.18
44818.521
44833.734
44849.621
44865.861
44882.025
44897.626
44912.323
44925.527
44936.773
44945.756
44952.281
44956.593
44959.146
44960.102
44959.404
44956.658
44951.387
44943.635
44933.098
44920.05
44905.659
44890.022
44873.379
44855.142
44835.838
44819.43
44798.354
44772.416
44748.694
44722.867
44696.831
44670.416
44642.027
44613.773
44583.294
44552.926
44514.99
44476.596
44443.261
44404.474
44363.698
44324.202
44285.438
44246.114
44211.936
44174.809
44132.934
44089.575
44043.219
43998.613
43949.867
43910.266
43858.802
43805.828
43761.064
43716.692
43674.326
43622.304
43569.476
43517.381
43468.809
43420.277
43367.218
43315.502
43258.795
43202.012
43155.65
43105.227
43041.784
42988.636
42935.574
42879.163
42824.203
42764.045
42711.75
42655.912
42597.635
42535.95
42482.885
42436.742
42368.231
42300.764
42242.272
42176.828
42106.769
42053.229
42011.53
41953.369
41892.392
41847.991
41771.118
41698.384
41639.785
41581.436
41531.777
41489.761
41437.338
41370.701
41292.364
41226.432
41178.89
41135.428
41113.563
41032.931
40943.616
40892.317
40831.059
40782.567
40761.161
40727.942
40657.653
40584.734
40518.403
40452.441
40395.688
40348.202
40308.323
40268.192
40224.048
40180.428
40146.287
40120.881
40087.134
40045.881
40023.02
39973.107
39911.687
39853.489
39802.233
39753.251
39705.809
39663.858
39630.009
39600.008
39574.387
39550.927
39527.187
39501.23
39472.875
39443.256
39411.67
39382.017
39362.439
39345.468
39326.109
39308.343
39308.948
48206.733
49527.635
48412.752
49107.348
48395.282
48985.859
48909.661
48967.601
48645.692
48190.894
47754.388
47427.451
47213.121
47088.023
47021.925
46990.395
46976.975
46972.046
46970.527
46970.124
46970.028
46970.006
46970.001
46970
46970
46970
46970
46970
46970
46970
46970
46970
46970
46970
46970
46970
46970
46970
46970
46970
46970
46970
46970
46970
46970
46970
46970
46970
46970
46970
46970
46970
46970
46970
46970
46970
46970
46970
46970
46970
46970
46970
46970
46970
46970
46970
46970
46970.003
46970.014
46970.064
46970.268
46971.002
46973.342
46979.858
46995.387
47026.58
47078.837
47148.407
47214.73
47248.018
47215.806
47101.992
46939.769
46779.152
46652.834
46558.574
46477.917
46402.305
46332.687
46267.827
46207.074
46150.283
46096.932
46046.687
45999.093
45953.77
45910.427
45868.864
45828.971
45790.667
45753.872
45718.488
45684.382
45651.403
45619.432
45588.404
45558.282
45529.006
45500.488
45472.628
45445.345
45418.589
45392.244
45366.153
45340.218
45314.458
45289
45264.015
45239.61
45215.777
45192.417
45169.393
45146.551
45123.744
45100.887
45077.991
45055.136
45032.408
45009.867
44987.539
44965.391
44943.323
44921.256
44899.313
44877.897
44857.502
44838.437
44820.77
44804.523
44789.832
44776.892
44765.837
44756.713
44749.623
44744.298
44741.13
44741.87
44746.206
44752.231
44760.507
44770.18
44781.163
44793.177
44806.346
44820.387
44835.091
44849.986
44864.819
44879.198
44892.435
44904.085
44913.721
44921.134
44926.595
44930.398
44932.739
44933.536
44932.068
44927.941
44921.497
44913.005
44902.852
44889.784
44873.318
44857.673
44840.965
44823.524
44806.709
44786.794
44763.267
44738.526
44713.906
44688.92
44665.07
44639.298
44608.793
44576.917
44548.048
44513.698
44472.103
44439.482
44404.699
44365.18
44325.747
44286.558
44247.305
44204.206
44163.626
44130.99
44092.91
44044.247
44003.537
43951.806
43898.957
43862.79
43818.272
43763.13
43710.351
43665.512
43621.77
43572.187
43518.576
43469.65
43419.312
43359.9
43310.945
43257.05
43209.406
43155.973
43095.116
43048.514
42988.047
42925.269
42872.042
42819.782
42763.418
42702.413
42648.837
42592.149
42533.075
42482.455
42424.265
42353.807
42290.568
42225.23
42161.934
42111.979
42051.782
41986.157
41929.989
41877.252
41812.025
41738.721
41682.992
41639.346
41584.205
41524.248
41473.431
41396.96
41315.676
41252.193
41212.146
41173.449
41125.588
41046.191
40974.969
40919.875
40865.492
40824.534
40779.554
40731.668
40647.947
40571.131
40510.578
40450.618
40403.127
40369.934
40332.845
40307.647
40275.632
40230.681
40186.404
40127.86
40051.263
39991.832
39969.545
39905.469
39824.71
39779.638
39740.549
39703.058
39664.024
39624.797
39596.101
39572.024
39548.801
39524.116
39496.117
39464.919
39432.182
39399.905
39367.967
39337.188
39314.27
39292.72
39272.994
39257.223
39247.265
39244.54
48217.287
49365.594
48369.75
49009.168
48399.977
48926.544
48878.231
48867.273
48523.622
48080.018
47673.499
47375.601
47183.236
47072.265
47014.319
46987.029
46975.648
46971.604
46970.403
46970.093
46970.02
46970.004
46970.001
46970
46970
46970
46970
46970
46970
46970
46970
46970
46970
46970
46970
46970
46970
46970
46970
46970
46970
46970
46970
46970
46970
46970
46970
46970
46970
46970
46970
46970
46970
46970
46970
46970
46970
46970
46970
46970
46970
46970
46970
46970
46970
46970
46970
46970.002
46970.011
46970.054
46970.23
46970.878
46972.988
46978.988
46993.589
47023.514
47074.744
47144.979
47214.827
47253.685
47229.366
47123.581
46964.972
46802.843
46673.319
46577.459
46496.49
46420.454
46350.507
46285.351
46224.305
46167.251
46113.651
46063.186
46015.403
45969.929
45926.468
45884.808
45844.814
45806.393
45769.47
45733.962
45699.748
45666.681
45634.631
45603.527
45573.333
45543.99
45515.411
45487.507
45460.196
45433.426
45407.077
45380.979
45355.03
45329.253
45303.781
45278.781
45254.363
45230.524
45207.168
45184.157
45161.336
45138.561
45115.745
45092.894
45070.071
45047.354
45024.8
45002.445
44980.265
44958.151
44935.991
44913.85
44892.07
44871.115
44851.294
44832.679
44815.266
44799.144
44784.488
44771.445
44760.095
44750.539
44743.066
44737.579
44734.446
44734.815
44739.18
44744.746
44751.865
44760.376
44769.959
44780.843
44792.773
44805.563
44818.843
44832.511
44846.058
44858.929
44870.593
44880.569
44888.645
44894.977
44899.822
44903.419
44905.426
44905.037
44902.124
44897.11
44890.561
44882.258
44870.421
44855.464
44841.474
44827.208
44810.648
44791.376
44771.728
44751.282
44727.249
44703.729
44680.11
44656.411
44632.629
44602.322
44571.792
44542.681
44508.479
44468.665
44435.521
44402.479
44364.528
44325.868
44285.507
44248.435
44205.837
44161.759
44127.851
44091.453
44046.174
43997.864
43953.069
43902.154
43855.595
43816.651
43771.183
43717.016
43656.811
43612.248
43572.292
43524.276
43464.46
43413.695
43362.759
43309.329
43258.754
43205.812
43151.995
43103.586
43047.154
42985.895
42925.325
42863.348
42819.118
42761.252
42691.777
42641.617
42592.407
42541.872
42468.709
42394.06
42333.148
42278.579
42233.69
42168.777
42108.299
42030.595
41955.932
41902.463
41844.372
41796.156
41736.127
41676.667
41620.996
41566.929
41509.765
41434.703
41353.73
41285.269
41253.345
41211.346
41129.917
41045.919
40985.528
40946.133
40903.119
40840.248
40784.32
40733.727
40662.863
40594.399
40530.94
40467.103
40428.881
40404.017
40376.143
40343.046
40267.064
40189.833
40133.408
40074.138
40011.746
39953.332
39902.003
39848.992
39797.884
39753.722
39706.111
39672.77
39650.306
39623.467
39599.902
39581.163
39550.861
39509.039
39462.288
39416.301
39374.237
39337.222
39303.443
39271.191
39239.997
39207.639
39180.775
39163.4
39150.525
39140.796
39135.77
48232.285
49186.939
48325.761
48898.359
48404.255
48863.909
48831.701
48752.127
48392.289
47966.403
47592.892
47324.741
47154.365
47057.267
47007.154
46983.905
46974.461
46971.229
46970.302
46970.069
46970.015
46970.003
46970.001
46970
46970
46970
46970
46970
46970
46970
46970
46970
46970
46970
46970
46970
46970
46970
46970
46970
46970
46970
46970
46970
46970
46970
46970
46970
46970
46970
46970
46970
46970
46970
46970
46970
46970
46970
46970
46970
46970
46970
46970
46970
46970
46970
46970
46970.002
46970.009
46970.045
46970.195
46970.761
46972.645
46978.123
46991.757
47020.325
47070.34
47141.059
47214.293
47259.013
47242.51
47145.155
46990.773
46828.416
46695.293
46597.338
46515.957
46439.499
46369.181
46303.721
46242.371
46185.048
46131.188
46080.489
46032.503
45986.861
45943.27
45901.504
45861.409
45822.872
45785.819
45750.18
45715.851
45682.686
45650.551
45619.367
45589.095
45559.681
45531.037
45503.08
45475.732
45448.942
45422.587
45396.487
45370.525
45344.73
45319.24
45294.223
45269.79
45245.942
45222.587
45199.585
45176.782
45154.035
45131.261
45108.457
45085.677
45062.983
45040.427
45018.054
44995.855
44973.72
44951.51
44929.238
44907.189
44885.792
44865.355
44845.95
44827.552
44810.206
44794.05
44779.232
44765.862
44754.059
44744.074
44736.369
44730.954
44727.917
44727.532
44731.156
44736.308
44741.77
44749.241
44757.51
44767.171
44777.748
44789.225
44801.283
44813.55
44825.614
44836.862
44846.86
44855.196
44862.006
44867.656
44872.194
44875.041
44875.663
44874.146
44870.773
44865.994
44858.814
44848.419
44837.397
44824.028
44807.89
44792.916
44778.117
44758.435
44736.386
44715.943
44692.32
44669.812
44646.465
44620.852
44596.026
44566.572
44531.886
44498.241
44467.364
44432.174
44394.248
44360.858
44327.851
44285.638
44244.262
44208.057
44166.892
44125.068
44085.343
44046.993
44005.272
43961.727
43915.011
43851.182
43792.028
43761.37
43720.433
43670.347
43617.128
43564.494
43516.298
43465.307
43411.727
43362.004
43308.253
43260.457
43206.554
43147.84
43091.141
43043.848
42986.426
42924.767
42874.166
42812.699
42756.342
42705.112
42638.027
42566.446
42515.631
42454.421
42396.285
42344.21
42265.086
42196.353
42155.29
42093.991
42013.443
41950.769
41897.822
41851.743
41787.171
41737.214
41662.271
41568.455
41511.612
41458.997
41402.424
41343.438
41299.654
41226.562
41141.513
41071.557
41012.131
40981.653
40928.167
40860.985
40805.065
40727.55
40658.566
40612.813
40565.216
40511.051
40470.741
40442.266
40371.357
40283.01
40202.19
40141.698
40098.431
40048.668
39994.477
39943.447
39896.755
39853.319
39820.023
39779.653
39729.404
39685.366
39665.427
39633.548
39595.487
39555.11
39497.107
39440.569
39388.632
39340.18
39296.048
39256.441
39220.823
39188.05
39157.422
39128.904
39106.374
39085.621
39067.385
39046.763
39022.966
39016.185
48244.151
48990.21
48279.323
48782.477
48408.591
48793.001
48761.829
48618.714
48253.221
47851.329
47513.245
47275.479
47126.845
47043.173
47000.513
46981.084
46973.44
46970.924
46970.224
46970.051
46970.011
46970.002
46970
46970
46970
46970
46970
46970
46970
46970
46970
46970
46970
46970
46970
46970
46970
46970
46970
46970
46970
46970
46970
46970
46970
46970
46970
46970
46970
46970
46970
46970
46970
46970
46970
46970
46970
46970
46970
46970
46970
46970
46970
46970
46970
46970
46970
46970.001
46970.008
46970.037
46970.164
46970.653
46972.317
46977.272
46989.906
47017.025
47065.624
47136.537
47213.046
47263.926
47255.285
47166.645
47017.068
46855.651
46718.933
46618.33
46536.346
46459.502
46388.754
46322.987
46261.317
46203.712
46149.581
46098.632
46050.427
46004.604
45960.868
45918.987
45878.786
45840.134
45802.951
45767.176
45732.722
45699.452
45667.225
45635.955
45605.603
45576.113
45547.401
45519.385
45491.992
45465.17
45438.806
45412.705
45386.734
45360.92
45335.409
45310.373
45285.922
45262.062
45238.705
45215.711
45192.923
45170.2
45147.463
45124.708
45101.979
45079.321
45056.776
45034.393
45012.185
44990.047
44967.819
44945.47
44923.232
44901.5
44880.573
44860.527
44841.319
44822.951
44805.515
44789.145
44773.973
44760.145
44747.895
44737.623
44729.835
44724.482
44721.208
44720.062
44721.942
44726.478
44730.77
44736.801
44744.026
44752.193
44761.658
44771.692
44782.298
44793.069
44803.564
44813.124
44821.191
44828.151
44834.287
44839.354
44842.815
44844.493
44844.396
44842.586
44838.969
44832.533
44824.339
44816.349
44803.726
44788.331
44774.517
44759.703
44743.288
44720.076
44696.854
44679.254
44659.095
44635.967
44611.415
44584.719
44557.079
44527.249
44492.93
44461.335
44426.504
44388.414
44356.198
44323.542
44285.561
44239.323
44200.853
44165.129
44124.606
44084.029
44045.867
44004.871
43956.36
43907.762
43855.084
43805.575
43760.857
43717.614
43673.723
43619.879
43562.877
43514.828
43468.998
43411.664
43357.687
43310.738
43258.426
43205.328
43147.515
43085.399
43030.702
42991.781
42936.007
42872.721
42810.228
42752.724
42687.593
42619.948
42567.715
42516.508
42452.911
42380.03
42327.758
42272.126
42191.498
42124.869
42073.842
42017.531
41964.979
41908.572
41832.626
41758.303
41674.998
41603.795
41542.839
41497.34
41451.104
41385.726
41325.578
41269.147
41190.233
41105.805
41062.969
41030.481
40948.694
40869.055
40794.792
40722.655
40670.437
40633.252
40584.303
40530.207
40481.727
40430.394
40347.094
40269.388
40202.596
40143.097
40096.816
40046.738
39996.657
39955.171
39924.356
39895.94
39859.406
39799.549
39737.789
39691.443
39658.359
39591.705
39520.614
39460.023
39402.813
39350.129
39302.949
39256.709
39218.58
39189.644
39161.969
39132.975
39101.883
39067.99
39031.615
38994.99
38965.291
38944.269
38922.767
38899.082
38890.871
48249.443
48738.425
48233.889
48660.273
48411.624
48705.751
48668.102
48473.05
48109.106
47736.645
47435.705
47228.571
47101.116
47030.205
46994.525
46978.639
46972.606
46970.688
46970.166
46970.038
46970.008
46970.002
46970
46970
46970
46970
46970
46970
46970
46970
46970
46970
46970
46970
46970
46970
46970
46970
46970
46970
46970
46970
46970
46970
46970
46970
46970
46970
46970
46970
46970
46970
46970
46970
46970
46970
46970
46970
46970
46970
46970
46970
46970
46970
46970
46970
46970
46970.001
46970.006
46970.03
46970.136
46970.554
46972.008
46976.445
46988.054
47013.63
47060.587
47131.363
47211.045
47268.248
47267.74
47188.02
47043.837
46884.16
46744.434
46640.598
46557.705
46480.521
46409.258
46343.188
46281.176
46223.281
46168.865
46117.653
46069.215
46023.194
45979.299
45937.291
45896.98
45858.213
45820.899
45784.984
45750.398
45717.014
45684.688
45653.328
45622.889
45593.32
45564.536
45536.457
45509.01
45482.147
45455.767
45429.665
45403.689
45377.857
45352.322
45327.262
45302.791
45278.917
45255.555
45232.567
45209.793
45187.091
45164.384
45141.675
45119
45096.39
45073.869
45051.488
45029.278
45007.151
44984.931
44962.546
44940.184
44918.206
44896.902
44876.35
44856.494
44837.297
44818.798
44801.1
44784.348
44768.718
44754.441
44741.872
44731.47
44723.611
44718.178
44714.19
44712.164
44712.004
44715.434
44719.239
44723.231
44729.529
44736.503
44744.244
44752.869
44762.013
44771.356
44779.866
44787.371
44794.166
44800.209
44805.384
44809.324
44811.881
44812.889
44812.215
44809.248
44803.945
44798.203
44791.315
44780.844
44768.879
44753.66
44737.27
44721.368
44703
44683.896
44664.769
44643.576
44622.776
44599.301
44571.249
44544.531
44514.351
44486.747
44454.873
44418.739
44391.156
44357.079
44313.559
44276.022
44238.532
44196.3
44157.504
44122.313
44083.286
44040.365
44000.246
43956.098
43904.619
43855.197
43810.639
43762.4
43713.844
43672.667
43625.6
43567.724
43507.845
43458.408
43411.846
43364.948
43312.265
43253.316
43201.892
43153.166
43102.326
43027.981
42966.467
42928.471
42870.6
42806.752
42749.267
42695.792
42636.634
42574.824
42502.424
42441.328
42379.38
42302.27
42243.133
42189.848
42118.164
42053.67
42003.347
41951.233
41876.906
41798.122
41734.931
41660.864
41592.149
41546.672
41508.52
41434.649
41350.615
41269.336
41207.875
41149.621
41093.926
41046.09
40987.058
40907.043
40821.402
40743.832
40699.969
40673.805
40617.746
40541.49
40464.324
40392.544
40328.182
40275.53
40220.007
40148.028
40102.348
40061.52
40023.449
39997.177
39958.41
39890.911
39807.409
39724.349
39651.637
39594.874
39542.903
39488.094
39437.761
39390.546
39338.382
39290.151
39253.627
39212.673
39167.837
39141.233
39117.669
39084.323
39045.639
39004.038
38961.3
38919.254
38882.511
38845.46
38807.114
38765.044
38738.026
38756.418
48235.703
48416.49
48191.364
48531.075
48406.446
48600.064
48550.886
48316.033
47961.528
47623.713
47361.416
47184.73
47077.568
47018.577
46989.322
46976.624
46971.963
46970.517
46970.126
46970.029
46970.006
46970.001
46970
46970
46970
46970
46970
46970
46970
46970
46970
46970
46970
46970
46970
46970
46970
46970
46970
46970
46970
46970
46970
46970
46970
46970
46970
46970
46970
46970
46970
46970
46970
46970
46970
46970
46970
46970
46970
46970
46970
46970
46970
46970
46970
46970
46970
46970.001
46970.005
46970.024
46970.112
46970.464
46971.721
46975.652
46986.22
47010.158
47055.29
47125.493
47208.137
47271.766
47279.869
47209.244
47071.059
46913.621
46771.885
46664.306
46580.098
46502.596
46430.743
46364.369
46301.992
46243.796
46189.082
46137.59
46088.904
46042.669
45998.601
45956.453
45916.022
45877.138
45839.695
45803.638
45768.912
45735.405
45702.974
45671.518
45640.989
45611.337
45582.48
45554.334
45526.826
45499.913
45473.507
45447.4
45421.421
45395.573
45370.011
45344.923
45320.428
45296.537
45273.168
45250.186
45227.426
45204.742
45182.061
45159.39
45136.768
45114.213
45091.731
45069.363
45047.159
45025.053
45002.86
44980.473
44958.037
44935.886
44914.302
44893.364
44873.006
44853.156
44833.805
44815.007
44796.899
44779.69
44763.626
44749.027
44736.303
44725.829
44717.717
44711.806
44706.991
44703.882
44701.915
44702.651
44706.489
44709.587
44713.809
44719.816
44725.88
44733.044
44740.753
44747.912
44754.632
44760.546
44765.841
44770.815
44775.011
44778.08
44779.855
44780.077
44777.88
44774.24
44769.869
44763.042
44754.121
44743.251
44729.597
44715.577
44703.539
44688.988
44667.909
44646.949
44627.372
44604.527
44581.203
44558.77
44532.879
44503.3
44476.403
44445.092
44408.938
44379.894
44350.259
44311.579
44265.676
44235.725
44195.366
44154.243
44118.893
44078.883
44039.319
43995.997
43950.35
43900.112
43852.199
43806.595
43763.126
43715.099
43662.997
43618.703
43571.427
43510.721
43458.98
43414.283
43363.417
43315.895
43262.905
43196.399
43136.942
43092.467
43046.179
42978.59
42916.4
42863.333
42795.817
42746.551
42694.45
42625.339
42562.402
42496.404
42426.345
42362.029
42308.125
42245.715
42185.666
42113.087
42038.906
41990.914
41919.822
41839.651
41778.141
41719.873
41654.034
41596.792
41552.125
41449.3
41362.894
41309.135
41243.269
41197.096
41141.635
41080.702
41023.031
40942.22
40854.882
40782.694
40743.026
40698.537
40612.441
40528.462
40452.352
40381.232
40330.561
40291.372
40244.753
40192.484
40149.753
40093.259
40030.968
39964.486
39884.215
39804.121
39737.425
39671.223
39600.094
39533.063
39472.419
39425.265
39390.532
39359.789
39327.78
39287.209
39245.334
39210.862
39173.664
39139.725
39091.298
39031.019
38974.347
38918.519
38865.102
38814.74
38768.178
38724.415
38684.547
38647.153
38607.354
38593.516
38594.813
48192.088
48079.053
48146.77
48402.926
48381.431
48484.806
48408.22
48147.277
47812.734
47514.54
47291.766
47144.733
47056.609
47008.52
46985.023
46975.068
46971.499
46970.401
46970.099
46970.023
46970.005
46970.001
46970
46970
46970
46970
46970
46970
46970
46970
46970
46970
46970
46970
46970
46970
46970
46970
46970
46970
46970
46970
46970
46970
46970
46970
46970
46970
46970
46970
46970
46970
46970
46970
46970
46970
46970
46970
46970
46970
46970
46970
46970
46970
46970
46970
46970
46970.001
46970.004
46970.019
46970.091
46970.385
46971.458
46974.902
46984.427
47006.641
47049.764
47118.888
47204.137
47274.311
47291.59
47230.318
47098.744
46943.859
46801.137
46689.647
46603.632
46525.763
46453.271
46386.567
46323.81
46265.294
46210.267
46158.48
46109.531
46063.068
46018.811
45976.509
45935.949
45896.945
45859.373
45823.173
45788.301
45754.662
45722.119
45690.562
45659.937
45630.199
45601.266
45573.052
45545.478
45518.508
45492.066
45465.948
45439.966
45414.103
45388.511
45363.39
45338.866
45314.954
45291.575
45268.597
45245.854
45223.191
45200.532
45177.892
45155.316
45132.817
45110.382
45088.042
45065.854
45043.777
45021.626
44999.262
44976.792
44954.525
44932.741
44911.518
44890.785
44870.443
44850.434
44830.757