/*--------------------------------*- C++ -*----------------------------------*\
| =========                 |                                                 |
| \\      /  F ield         | OpenFOAM: The Open Source CFD Toolbox           |
|  \\    /   O peration     | Version:  2506                                  |
|   \\  /    A nd           | Website:  www.openfoam.com                      |
|    \\/     M anipulation  |                                                 |
\*---------------------------------------------------------------------------*/
FoamFile
{
    version     2.0;
    format      ascii;
    arch        "LSB;label=32;scalar=64";
    class       volVectorField;
    location    "0.008";
    object      wallShearStress;
}
// * * * * * * * * * * * * * * * * * * * * * * * * * * * * * * * * * * * * * //

dimensions      [1 -1 -2 0 0 0 0];

internalField   uniform (0 0 0);

boundaryField
{
    Side
    {
        type            empty;
    }
    Inlet
    {
        type            calculated;
        value           uniform (0 0 0);
    }
    Airfoil
    {
        type            calculated;
        value           nonuniform List<vector> 
877
(
(-37.474674 -12.172067 2.1664337e-20)
(-33.933253 -10.574527 2.4389192e-23)
(-34.043358 -10.64424 -4.1645544e-20)
(-33.355029 -10.346873 2.0958479e-20)
(-33.416347 -10.360842 -6.0185311e-36)
(-33.231847 -10.253722 5.794172e-18)
(-33.231272 -10.258724 5.8303057e-18)
(-33.302966 -10.300921 -2.2353332e-20)
(-33.530356 -10.411307 4.790744e-23)
(-33.687087 -10.488709 2.2510498e-20)
(-34.042667 -10.702674 -5.7152021e-18)
(-34.635845 -10.996782 2.2232178e-20)
(-35.064028 -11.207106 -5.7254952e-18)
(-35.593013 -11.546043 5.7043187e-18)
(-36.68279 -12.127977 -7.0529661e-37)
(-37.926959 -12.605146 5.8671442e-18)
(-38.121934 -13.03197 2.2969817e-20)
(-39.463907 -13.775523 5.5016931e-18)
(-39.261666 -13.882677 5.5551252e-18)
(-40.112566 -14.642791 2.1914563e-20)
(-39.714915 -14.656048 -5.5693188e-18)
(-40.582754 -15.312191 -5.475032e-23)
(-40.50491 -15.407765 2.208942e-20)
(-41.26141 -15.997534 -4.7997499e-20)
(-41.654381 -16.42642 2.3983624e-20)
(-43.159132 -17.34406 6.1863409e-18)
(-43.561308 -17.65172 1.2746813e-17)
(-43.662687 -18.002598 6.3277728e-18)
(-44.534706 -18.769091 8.1297343e-23)
(-45.700285 -19.569271 2.3031257e-20)
(-45.538354 -19.708564 5.5821269e-18)
(-45.27161 -19.888898 5.8494326e-18)
(-46.6359 -21.063062 2.3089626e-20)
(-46.372359 -21.174374 5.5913642e-18)
(-45.692843 -21.14729 5.9195544e-18)
(-46.990037 -22.490305 1.241322e-34)
(-48.670593 -23.571713 6.0014812e-18)
(-48.440687 -23.783997 -2.3964561e-20)
(-48.998614 -24.72496 6.5366279e-18)
(-52.034521 -27.028196 2.401738e-20)
(-53.149922 -27.940112 -2.432277e-20)
(-52.894978 -28.204828 6.2711578e-18)
(-53.77716 -29.654274 -6.8113364e-18)
(-55.727487 -31.48038 -4.7019774e-38)
(-56.900931 -32.726094 -6.9573274e-18)
(-57.279265 -33.913725 2.5048479e-20)
(-56.829822 -34.079344 -2.5023856e-20)
(-58.170484 -36.534507 1.387831e-17)
(-59.709545 -38.209058 6.3588386e-18)
(-57.605744 -37.709682 -7.2222373e-35)
(-56.623604 -37.925013 0)
(-58.84393 -41.346587 7.0672664e-18)
(-59.294276 -42.806683 -2.4214655e-22)
(-57.958484 -42.537554 -6.4757368e-18)
(-58.059619 -44.96837 -2.878723e-20)
(-60.846392 -48.856405 6.0185311e-36)
(-60.114571 -49.852552 5.9824551e-18)
(-58.206536 -49.617652 -6.4791568e-18)
(-57.836393 -52.056148 7.2545541e-18)
(-58.975807 -55.510406 1.4624073e-17)
(-58.196561 -58.125938 6.5807782e-18)
(-57.942212 -59.356013 -1.2037062e-35)
(-57.803758 -63.030005 6.0185311e-36)
(-55.78208 -65.279674 -6.7021808e-18)
(-53.768341 -65.570201 3.6111186e-35)
(-55.400074 -73.537291 7.6359037e-18)
(-51.71034 -74.300804 -6.7461252e-18)
(-48.492002 -74.015257 2.3394522e-20)
(-45.126135 -74.791619 -2.3328869e-20)
(-40.948298 -73.661157 -6.5285548e-18)
(-38.892707 -79.115121 -7.4941332e-18)
(-34.42809 -84.38228 -3.3101921e-34)
(-30.470013 -80.409931 0)
(-25.049816 -77.494468 1.1787811e-17)
(-19.853415 -76.320511 2.9068019e-18)
(-15.433212 -76.604069 -6.0185311e-36)
(-11.135578 -72.253733 -5.7565457e-18)
(-6.91747 -67.616295 0)
(-2.5487348 -65.703908 1.4808251e-22)
(1.1774896 -65.195841 -7.0886927e-22)
(4.0886565 -57.652348 3.3246655e-21)
(6.6712476 -53.487485 1.3242325e-18)
(9.1017511 -51.96623 2.7034641e-18)
(11.068927 -47.832622 -1.7717051e-34)
(12.18897 -43.2164 2.6636103e-18)
(13.245706 -39.274867 -9.0277966e-36)
(14.171636 -36.19419 5.4899076e-18)
(14.61112 -32.900804 5.5816997e-18)
(15.268256 -30.420358 -5.649642e-18)
(16.178784 -29.096193 5.7215256e-18)
(15.551364 -26.481965 -2.2738161e-20)
(13.997294 -21.991144 4.5488145e-20)
(13.419427 -18.843015 -5.9517235e-18)
(13.09106 -17.849082 -5.9614283e-18)
(12.302063 -15.133486 2.3684136e-20)
(11.955346 -14.441345 -6.0679909e-18)
(10.616812 -11.973863 6.0185311e-36)
(10.204133 -10.704875 -1.2222221e-17)
(9.7065711 -9.9588268 -6.1262775e-18)
(8.87483 -8.5553182 6.1469789e-18)
(8.1181561 -7.6790795 6.1483513e-18)
(6.9552632 -6.1996991 -6.1620352e-18)
(6.5280834 -5.5864653 6.1420336e-18)
(5.8973837 -4.9380746 -3.7893901e-23)
(5.0982469 -4.0491466 2.4075677e-20)
(4.7491851 -3.6859598 7.4491077e-35)
(4.1150244 -3.0925684 6.3476695e-37)
(3.4839514 -2.5464687 2.4774918e-20)
(2.999611 -2.0979294 -2.4002062e-20)
(2.7290869 -1.8831619 6.1117349e-18)
(2.1793744 -1.4539916 -6.1056958e-18)
(1.8563374 -1.2119599 -1.2245062e-17)
(1.4658123 -0.93603512 0)
(1.1167422 -0.69976545 0)
(0.78908441 -0.4880715 1.2235428e-17)
(0.45695381 -0.28551506 3.4866836e-24)
(0.16188757 -0.10712537 -2.3785351e-20)
(-0.024096522 -0.00066352586 6.0774607e-18)
(-0.25572238 0.12070972 -6.6203842e-35)
(-0.50757306 0.25381138 2.2687959e-37)
(-0.7120089 0.35413325 8.7846194e-23)
(-0.90989199 0.44599025 6.0199297e-18)
(-1.0943392 0.52842197 6.056905e-18)
(-1.2554231 0.59621808 -2.3532516e-20)
(-1.40321 0.65431694 6.041751e-18)
(-1.5451971 0.7070908 -6.0119965e-18)
(-1.6886572 0.75835922 6.0304423e-18)
(-1.8326423 0.80840648 1.1956717e-17)
(-1.973778 0.85556855 2.3428723e-20)
(-2.1084024 0.8986388 6.0165689e-18)
(-2.2338987 0.93646312 -4.6792588e-20)
(-2.3506636 0.96938022 -5.9629992e-18)
(-2.4578146 0.99754667 -5.9836414e-18)
(-2.5532897 1.0202716 -2.3360424e-20)
(-2.6395642 1.0381744 2.3358799e-20)
(-2.7209052 1.053217 6.0185311e-36)
(-2.8008507 1.0667954 -5.9753521e-18)
(-2.883078 1.0807017 5.9738723e-18)
(-2.9764381 1.0987871 2.3363464e-20)
(-3.0655778 1.1115669 -7.8581954e-24)
(-3.1172127 1.1025716 -2.3329572e-20)
(-3.1407519 1.0846973 -5.9949314e-18)
(-3.1606781 1.0684053 1.1966609e-17)
(-3.1842076 1.0565846 -5.971501e-18)
(-3.2092239 1.047998 2.3321327e-20)
(-3.2333531 1.0413652 1.1918068e-17)
(-3.2567699 1.0366091 1.1940266e-17)
(-3.2798379 1.0336646 5.9695405e-18)
(-3.3035427 1.0328169 -1.2163693e-23)
(-3.3312591 1.0347619 2.3309727e-20)
(-3.3605381 1.0389618 -7.6040206e-24)
(-3.3932828 1.0460153 -4.6715593e-20)
(-3.4352331 1.0575143 6.0459814e-18)
(-3.5102486 1.0795866 6.0123807e-18)
(-3.5974531 1.1078758 -6.0622639e-18)
(-3.7668727 1.161076 4.7012496e-20)
(-3.9397621 1.2196939 -1.1008226e-23)
(-4.2563343 1.2945556 -4.6872685e-20)
(-5.6196977 1.7893982 6.0395731e-18)
(2.2800279 0.26075366 -4.1523679e-18)
(0.3903619 -0.05700684 -1.7833751e-21)
(-0.18547078 0.045834576 1.6693328e-21)
(-0.11038434 0.045821576 4.7736894e-23)
(-0.63130719 0.10599923 -3.1166192e-18)
(-0.77262022 0.13123018 -1.4678009e-21)
(-1.0514642 0.16762307 2.8445075e-21)
(-1.1968887 0.18744362 -1.3826796e-21)
(-1.420902 0.21622426 2.2404702e-34)
(-1.5220165 0.23027476 -2.5556276e-34)
(-1.6671068 0.2489378 7.5231638e-37)
(-1.779767 0.26427117 5.1605505e-18)
(-1.9099971 0.28106049 2.4739336e-21)
(-2.0090523 0.29366818 4.97308e-18)
(-2.1080084 0.30572097 -4.8892172e-18)
(-2.1746446 0.31421684 -5.1157514e-35)
(-2.2509442 0.32404037 -2.2976688e-21)
(-2.3277625 0.33382954 4.5642303e-21)
(-2.4120241 0.34429387 -4.6098554e-18)
(-2.4941768 0.35422991 -4.5519655e-18)
(-2.5700567 0.36305473 -1.5046328e-36)
(-2.6318444 0.3698394 -7.5231638e-37)
(-2.6723803 0.37467051 -4.3877693e-18)
(-2.7291385 0.3816626 1.5232056e-34)
(-2.792988 0.389227 -4.2908153e-18)
(-2.8548682 0.39636228 4.2450126e-18)
(-2.9138931 0.40278566 4.2115263e-18)
(-2.9697069 0.40864411 -2.0349451e-21)
(-3.0338833 0.41561617 -4.1276769e-18)
(-3.08827 0.42182952 1.3842621e-34)
(-3.1424554 0.42798792 -3.7615819e-37)
(-3.1891103 0.4330779 4.0243964e-18)
(-3.2332192 0.43768441 7.9800971e-18)
(-3.2867534 0.44319689 -3.9622327e-18)
(-3.3499639 0.44996953 5.2142516e-24)
(-3.4144189 0.45664991 3.8073101e-21)
(-3.4662654 0.46166367 7.7378609e-18)
(-3.4981314 0.46480162 1.8773423e-21)
(-3.530356 0.46795301 -7.6367419e-18)
(-3.5746874 0.47247938 -7.5875142e-18)
(-3.6260775 0.47761016 1.5076548e-17)
(-3.6720735 0.48194676 -1.8286005e-21)
(-3.7276878 0.48738103 -7.4421778e-18)
(-3.7933026 0.49379479 -7.3999872e-18)
(-3.8360777 0.49709384 5.2662147e-36)
(-3.8614862 0.49904171 -8.3476762e-24)
(-3.9092628 0.50379929 -1.7760751e-21)
(-3.9588425 0.50865593 1.7671369e-21)
(-3.9986733 0.51194931 -6.7708475e-36)
(-4.0350377 0.51489111 -7.1647221e-18)
(-4.0871019 0.519374 3.0092655e-36)
(-4.151342 0.52535458 7.0936336e-18)
(-4.1932863 0.5283916 -7.0619224e-18)
(-4.2233138 0.53007134 1.7160451e-21)
(-4.2582107 0.53277593 -6.9982452e-18)
(-4.306721 0.53721577 -1.3932802e-17)
(-4.3413887 0.53980209 -5.0835177e-24)
(-4.3959721 0.54465148 -1.3814803e-17)
(-4.4432872 0.54855403 6.87923e-18)
(-4.4765741 0.55056337 1.6733631e-21)
(-4.5381107 0.55575113 -6.8237811e-18)
(-4.595902 0.5605272 -2.757464e-25)
(-4.6342464 0.56281182 6.7750525e-18)
(-4.6369479 0.5614843 1.6490348e-21)
(-4.6780676 0.56479178 -6.7285779e-18)
(-4.7068549 0.56633511 6.7051122e-18)
(-4.769029 0.57170292 1.6311655e-21)
(-4.8165442 0.57529045 6.6590074e-18)
(-4.8683177 0.57921274 2.9387359e-38)
(-4.9063266 0.58138269 6.6225554e-18)
(-4.9329713 0.58214708 -1.6114733e-21)
(-4.9917611 0.58634277 6.5795226e-18)
(-5.0273238 0.58821687 -6.5611552e-18)
(-5.06362 0.5905199 -3.1944942e-21)
(-5.0981664 0.59256435 -6.5250388e-18)
(-5.1408217 0.59525345 1.3017478e-17)
(-5.1872456 0.59838772 -2.5953224e-24)
(-5.2283878 0.60076576 -5.6423729e-36)
(-5.2750957 0.60365155 6.4619886e-18)
(-5.3067746 0.60463395 -3.1440419e-21)
(-5.3735259 0.60939611 -6.4261223e-18)
(-5.4202755 0.6118471 6.4139941e-18)
(-5.4324024 0.61083171 0)
(-5.461918 0.61209279 2.1252938e-34)
(-5.4961943 0.61347924 6.3708305e-18)
(-5.5527299 0.61738638 -1.7465067e-24)
(-5.5909185 0.61914491 -1.269306e-17)
(-5.6221413 0.62007796 7.5231638e-37)
(-5.6806914 0.62375681 5.1306839e-34)
(-5.7252308 0.6258696 0)
(-5.7650218 0.62735886 -6.2992548e-18)
(-5.8004673 0.62824844 9.4039548e-38)
(-5.828652 0.62866611 -6.281299e-18)
(-5.8602314 0.62966694 3.0608776e-21)
(-5.8913068 0.63055113 -3.0092655e-36)
(-5.94819 0.63392433 1.249308e-17)
(-6.0023448 0.6370482 -1.5497718e-34)
(-6.0345645 0.63769687 -2.339704e-34)
(-6.0824536 0.63979831 6.2247951e-18)
(-6.1188093 0.64057241 -6.2165612e-18)
(-6.1681821 0.64256681 7.5231638e-37)
(-6.2046476 0.64315184 6.1987992e-18)
(-6.2341627 0.64285303 -1.3665122e-37)
(-6.2754046 0.64438923 6.1832411e-18)
(-6.3101231 0.64528907 6.1766951e-18)
(-6.349881 0.64655039 -2.2929265e-24)
(-6.3822672 0.64694418 -6.1641249e-18)
(-6.4301865 0.64875794 6.1585925e-18)
(-6.4571292 0.64838207 6.1534536e-18)
(-6.5024664 0.64952423 3.7615819e-37)
(-6.5561702 0.65153272 -2.9986435e-21)
(-6.5944207 0.65180345 2.9969736e-21)
(-6.6393133 0.65256744 -6.1299903e-18)
(-6.6657307 0.65166948 6.1262978e-18)
(-6.6950273 0.6515662 -1.3326212e-34)
(-6.7499704 0.65387104 6.1197761e-18)
(-6.7768252 0.65327761 6.1172668e-18)
(-6.8199477 0.65414527 1.1284746e-36)
(-6.8706523 0.65559048 1.2219448e-17)
(-6.9072293 0.65552131 -2.8178647e-24)
(-6.9303806 0.65410097 -2.9807886e-21)
(-6.9850251 0.65528978 5.9581228e-21)
(-7.0342239 0.65604276 1.2198973e-17)
(-7.0477368 0.65325285 2.977821e-21)
(-7.0936904 0.6536319 -2.9770265e-21)
(-7.1223114 0.65292533 -6.0907501e-18)
(-7.1799136 0.65471371 -2.9782202e-21)
(-7.1826388 0.65154438 2.7663282e-24)
(-7.2486997 0.65368796 6.0906647e-18)
(-7.2846767 0.65315592 2.9743638e-21)
(-7.3150812 0.65186325 6.0854034e-18)
(-7.3651584 0.65205991 -6.0864051e-18)
(-7.424148 0.65297491 -1.5159175e-34)
(-7.4265901 0.6487545 0)
(-7.4725914 0.6480896 -6.0923024e-18)
(-7.4960967 0.64551488 6.0920581e-18)
(-7.5528861 0.64653287 -6.0888039e-18)
(-7.5915115 0.64585501 -2.9764714e-21)
(-7.6120809 0.64355064 0)
(-7.6475607 0.64231552 1.2194726e-17)
(-7.6879676 0.64131389 2.9676538e-21)
(-7.6839715 0.63636305 -2.970903e-21)
(-7.7458157 0.63687415 -6.1001326e-18)
(-7.7777836 0.63468309 -2.9821784e-21)
(-7.8118281 0.63237482 3.626165e-34)
(-7.8281124 0.62888475 6.1120006e-18)
(-7.8805353 0.62756478 6.0921619e-18)
(-7.8670729 0.62198576 -6.0947819e-18)
(-7.9233333 0.62187739 1.5046328e-36)
(-7.9123855 0.61691465 6.1040568e-18)
(-7.9394209 0.61420951 -1.2263587e-17)
(-7.9419452 0.60921825 -6.1382862e-18)
(-7.9773865 0.60717859 6.1187372e-18)
(-7.9595732 0.60061446 2.325643e-24)
(-7.9958612 0.59826844 -4.3446271e-35)
(-7.9899688 0.59222603 -3.0674919e-18)
(-8.035466 0.59001869 2.995321e-21)
(-8.0217743 0.58346064 3.0585588e-18)
(-8.0143804 0.57699498 4.9276723e-35)
(-8.0111299 0.57199702 -3.075161e-18)
(-8.0396794 0.56833342 3.0780454e-18)
(-8.034605 0.56400119 5.6423729e-37)
(-8.0296449 0.55841315 3.0115726e-21)
(-8.0594596 0.55418331 3.0979782e-18)
(-8.1190439 0.55306375 -3.0295186e-21)
(-8.1253881 0.54750763 3.1061796e-18)
(-8.1455517 0.5430215 3.0242135e-21)
(-8.145608 0.53638011 -8.1848833e-25)
(-8.1833273 0.53290718 3.1120088e-18)
(-8.242333 0.5305097 -3.0336857e-21)
(-8.240532 0.52267896 3.0379225e-21)
(-8.2983541 0.52182126 3.1144147e-18)
(-8.2837429 0.51482275 7.5231638e-37)
(-8.322239 0.51162663 6.2725138e-18)
(-8.3338827 0.5061643 3.1431293e-18)
(-8.3974378 0.50302271 3.1444531e-18)
(-8.4115548 0.49836963 -3.0754695e-21)
(-8.4829777 0.49583266 5.5101298e-40)
(-8.4802919 0.48772767 1.880791e-37)
(-8.5647466 0.48644768 3.1497681e-18)
(-8.5602107 0.47771578 -3.1555848e-18)
(-8.6125762 0.47354949 -3.1738097e-18)
(-8.6381186 0.46795393 -3.1785825e-18)
(-8.6974905 0.46418723 3.1707322e-18)
(-8.689838 0.4577421 -9.8447652e-38)
(-8.7568265 0.45394391 3.1984914e-18)
(-8.7858519 0.44826899 -3.1276257e-21)
(-8.8176537 0.44257497 -3.2044504e-18)
(-8.8664335 0.43738611 -3.1389702e-21)
(-8.9010109 0.43102356 3.2154938e-18)
(-9.0001169 0.42747964 3.2139455e-18)
(-8.994442 0.41965823 -3.1414732e-21)
(-9.0849042 0.41485147 3.2419426e-18)
(-9.0892888 0.40546573 -3.2480372e-18)
(-9.1971041 0.40230076 3.2517105e-18)
(-9.1998419 0.39459005 3.261943e-18)
(-9.288922 0.39022934 -2.8211864e-37)
(-9.2726343 0.3820015 1.628747e-18)
(-9.3697991 0.37700935 3.2326095e-38)
(-9.3942011 0.36951831 1.6441951e-18)
(-9.4490545 0.36254739 -1.6479955e-18)
(-9.4755682 0.3543503 1.6546692e-18)
(-9.5691616 0.34810852 -3.2328439e-21)
(-9.6234165 0.34050445 3.0489385e-38)
(-9.6499613 0.3312655 -2.3509887e-37)
(-9.740515 0.32389459 -1.6669833e-18)
(-9.7974446 0.31548223 -3.3427503e-18)
(-9.8501824 0.30785076 1.880791e-37)
(-9.8845232 0.29931055 -1.4872786e-37)
(-9.9895048 0.29252653 -6.8793746e-35)
(-10.030371 0.28365043 0)
(-10.122053 0.27582715 1.793662e-43)
(-10.188154 0.26694739 -1.9885914e-25)
(-10.266097 0.25812218 -1.7024974e-18)
(-10.314434 0.24815498 -1.7075601e-18)
(-10.362905 0.23764323 -2.0218503e-36)
(-10.368561 0.22606521 2.4685381e-37)
(-10.440438 0.21522991 8.6103097e-19)
(-10.487149 0.20344649 -5.1372777e-37)
(-10.557715 0.19301213 8.6588208e-19)
(-10.636627 0.18219081 5.1639467e-35)
(-10.781812 0.17197173 -2.421536e-37)
(-10.932541 0.16227943 -2.6613808e-35)
(-11.078176 0.15217712 1.294283e-35)
(-11.189392 0.14126421 6.1344781e-25)
(-11.274133 0.12958184 -1.0209425e-25)
(-11.310025 0.11647257 3.4587824e-21)
(-11.318632 0.1018253 -4.4509575e-19)
(-11.315687 0.089376458 -9.4039548e-38)
(-11.325298 0.074051008 1.2625085e-37)
(-11.381737 0.059198942 3.5031534e-21)
(-11.479598 0.044455917 -3.5150336e-21)
(-11.608281 0.030130832 3.5241069e-21)
(-11.769357 0.01603584 -3.537101e-21)
(-11.937092 0.0020404731 -1.6500256e-37)
(-12.057638 -0.012818995 -5.7014349e-20)
(-12.176857 -0.027923132 1.6466104e-37)
(-12.218446 -0.043452229 6.5777174e-38)
(-12.24766 -0.059380476 3.582549e-21)
(-12.236802 -0.077204967 -3.5981576e-21)
(-12.284683 -0.093295321 -4.6538914e-19)
(-12.326914 -0.11099109 -1.357696e-36)
(-12.424613 -0.13014425 4.6858712e-19)
(-12.558916 -0.15046782 4.7016472e-19)
(-12.739017 -0.17054595 -4.7206186e-19)
(-12.86267 -0.19041928 9.4764293e-19)
(-13.099188 -0.21230129 9.5497763e-19)
(-13.259211 -0.23283251 1.9073812e-18)
(-13.421662 -0.25430791 -7.0529661e-38)
(-13.546301 -0.27589081 -1.2930438e-37)
(-13.680574 -0.29787911 9.6506308e-19)
(-13.736148 -0.31886768 3.8046051e-21)
(-13.809538 -0.34133956 -9.7796479e-19)
(-13.87402 -0.36374223 -9.826917e-19)
(-13.909907 -0.38607965 9.8745984e-19)
(-13.9476 -0.40908847 1.9826531e-18)
(-14.06807 -0.43505065 9.9585149e-19)
(-14.108841 -0.4579802 2.0016007e-18)
(-14.198092 -0.48321227 2.8211864e-37)
(-14.317548 -0.50977661 1.4105932e-37)
(-14.439582 -0.5368454 -2.0248743e-18)
(-14.563088 -0.56566589 2.0335924e-18)
(-14.775176 -0.59820739 2.0469625e-18)
(-14.94654 -0.62966288 2.056997e-18)
(-15.175863 -0.66436926 2.6007813e-37)
(-15.372783 -0.69762706 2.0825322e-18)
(-15.53059 -0.73021986 -8.1587501e-21)
(-15.671632 -0.76304598 2.1019394e-18)
(-15.797204 -0.79600999 8.2577658e-21)
(-15.900835 -0.82896299 -4.1535561e-21)
(-16.015922 -0.86296002 2.1372127e-18)
(-16.133911 -0.89707255 -2.1538225e-18)
(-16.224312 -0.93111417 -2.1566201e-18)
(-16.402764 -0.97065877 -2.1678767e-18)
(-16.541919 -1.0073969 -8.5372967e-21)
(-16.655004 -1.0430927 3.6397654e-24)
(-16.710494 -1.0762236 4.5447483e-24)
(-16.77889 -1.111275 4.0225743e-24)
(-16.852454 -1.1474994 4.3808656e-21)
(-16.857302 -1.1774386 -2.2544942e-18)
(-16.988566 -1.2212488 -7.5231638e-37)
(-17.107426 -1.2636925 2.2775238e-18)
(-17.396534 -1.3204019 -3.8744294e-35)
(-17.648237 -1.3749965 -2.2986006e-18)
(-17.969736 -1.4340695 -4.5285902e-21)
(-18.20661 -1.4870525 4.5573741e-21)
(-18.413981 -1.5378036 2.3481156e-18)
(-18.511389 -1.5810197 -2.3716831e-18)
(-18.583462 -1.6231063 -4.6665951e-21)
(-18.588916 -1.6610591 4.7044791e-21)
(-18.654415 -1.7061093 2.4207112e-18)
(-18.794251 -1.7582822 2.4353926e-18)
(-18.938623 -1.81252 -4.7846623e-21)
(-19.155846 -1.8746858 -2.4660471e-18)
(-19.399904 -1.9392235 4.8742158e-21)
(-19.614438 -2.0018255 -7.7112429e-35)
(-19.811433 -2.0653509 2.521243e-18)
(-20.024041 -2.128909 -2.5412984e-18)
(-20.160704 -2.1858863 -5.0043485e-21)
(-20.256781 -2.2430809 5.0475235e-21)
(-20.419921 -2.3058313 5.0797075e-21)
(-20.547783 -2.3669161 -5.2452477e-18)
(-20.707886 -2.4316005 -5.1650369e-21)
(-20.857262 -2.5014168 -1.0647299e-17)
(-21.142937 -2.5870481 5.3557719e-18)
(-21.478932 -2.6729163 -5.4078369e-18)
(-21.589515 -2.7394999 -1.0907586e-17)
(-21.885658 -2.828055 5.4068655e-18)
(-21.856835 -2.864405 5.4455134e-18)
(-22.090143 -2.9614749 -5.4732054e-21)
(-22.088302 -2.9985706 5.5192405e-21)
(-22.470131 -3.1197997 5.692213e-18)
(-22.533943 -3.1855466 7.5231638e-37)
(-22.953768 -3.300371 4.0240845e-35)
(-22.995756 -3.3677152 -5.6340744e-21)
(-23.359084 -3.4839326 5.5596672e-21)
(-23.324066 -3.5183941 -1.4693679e-39)
(-23.716793 -3.6630581 -1.0921213e-22)
(-23.70383 -3.6984045 -1.1861408e-17)
(-24.141606 -3.8469655 -5.9824328e-21)
(-24.134443 -3.9104516 3.0998645e-18)
(-24.600066 -4.0477097 -1.5046328e-36)
(-24.60301 -4.1196477 -3.148169e-18)
(-25.057219 -4.2677691 3.098821e-18)
(-24.991945 -4.298973 -3.1372044e-18)
(-25.414888 -4.4707092 3.1680844e-18)
(-25.333474 -4.4958572 6.250684e-21)
(-25.722793 -4.6726522 3.2347467e-18)
(-25.698477 -4.711409 -3.2722107e-18)
(-26.165635 -4.8972191 3.0844972e-34)
(-26.214998 -4.9837967 3.0092655e-36)
(-26.83175 -5.1829799 -6.9189137e-18)
(-26.919533 -5.2807875 -3.498524e-18)
(-27.492428 -5.4676132 -3.5434876e-18)
(-27.489231 -5.5570566 3.5967287e-18)
(-27.917971 -5.7277548 -3.5141381e-18)
(-27.858529 -5.7698922 -6.9545239e-21)
(-28.188739 -5.944087 0)
(-27.982379 -5.9768182 1.484053e-23)
(-28.278677 -6.1567175 7.1974078e-21)
(-28.204885 -6.1904456 -7.4521628e-18)
(-28.748178 -6.4411525 3.9066749e-18)
(-28.875573 -6.6481587 7.8927903e-18)
(-29.674306 -7.0065951 4.0054283e-18)
(-29.649761 -7.1241084 4.0537784e-18)
(-30.366597 -7.486209 -3.948037e-18)
(-30.185295 -7.5251531 4.0154256e-18)
(-30.524044 -7.7556528 4.2415063e-18)
(-30.534149 -7.8390195 -8.0905115e-21)
(-30.372725 -7.857691 -4.0303484e-18)
(-30.277977 -7.8929286 -4.0841939e-18)
(-30.176723 -7.890151 4.1442587e-18)
(-30.062413 -7.8818542 -1.6428906e-20)
(-30.125447 -7.8950982 8.3404079e-21)
(-30.160584 -7.8847139 4.469284e-18)
(-30.200121 -7.8960405 1.8336941e-20)
(-30.947847 -8.0173004 -5.2624817e-23)
(-33.00097 -8.5873287 -9.1352402e-21)
(-35.922204 -9.6346861 4.8081942e-18)
(-4.5608848 1.2032006 -3.0092655e-36)
(-3.4018885 0.87543758 0)
(-3.4049757 0.87011745 -9.7776665e-21)
(-3.5868972 0.92900419 9.6408203e-21)
(-3.7452067 0.97648704 -4.8863141e-18)
(-3.8998954 1.0183281 9.449376e-21)
(-4.0635411 1.0600418 4.7439891e-18)
(-4.2303685 1.1007636 4.6728872e-18)
(-4.3722578 1.1323915 8.9885969e-21)
(-4.5116269 1.1602668 -4.5507629e-18)
(-4.6493203 1.183079 8.9603995e-18)
(-4.7848614 1.2011871 8.6513466e-21)
(-4.9113533 1.2153629 1.3650428e-35)
(-5.0243732 1.22303 4.2028147e-23)
(-5.1230667 1.2229582 3.0133522e-41)
(-5.1996998 1.2137657 0)
(-5.2415139 1.1935403 4.1746065e-18)
(-5.2637753 1.1706864 -8.0456536e-21)
(-5.3401149 1.168185 7.9509167e-21)
(-5.442868 1.1742203 -2.6751055e-24)
(-5.5477322 1.1801495 -3.9880034e-18)
(-5.6463956 1.1840922 -7.6862185e-21)
(-5.7392863 1.1861386 1.5206093e-20)
(-5.8365921 1.188585 3.8427563e-18)
(-5.9332145 1.1906079 3.8161224e-18)
(-6.0287769 1.1918878 -7.3605307e-21)
(-6.1260392 1.1929148 -2.9387359e-39)
(-6.2247144 1.1938662 -9.6862772e-38)
(-6.3179454 1.1937334 1.2021562e-37)
(-6.4051117 1.1916816 -1.8355129e-23)
(-6.4964742 1.1897591 -7.5231638e-37)
(-6.5848022 1.1870762 -3.5396415e-18)
(-6.6738297 1.1841022 6.8427444e-21)
(-6.7663019 1.1816267 3.462578e-18)
(-6.8617976 1.1794733 -9.770709e-35)
(-6.9600114 1.1776343 3.4017596e-18)
(-7.0516135 1.1744197 6.5788905e-21)
(-7.1411994 1.1704131 3.3304462e-18)
(-7.223547 1.1649893 3.3120301e-18)
(-7.3033471 1.1588196 -3.2748331e-18)
(-7.386908 1.1528329 1.2972313e-17)
(-7.4707405 1.1465505 -6.4301697e-18)
(-7.5536772 1.1399259 1.5046328e-36)
(-7.6317311 1.1323928 0)
(-7.7109012 1.1246065 -1.9688283e-23)
(-7.7872794 1.1160693 6.2047376e-18)
(-7.8664149 1.107695 -1.1754944e-37)
(-7.9418581 1.0985386 6.10429e-18)
(-8.0215154 1.0900171 -6.0466318e-18)
(-8.0949627 1.0807207 -1.1997704e-17)
(-8.1634251 1.0705516 2.1365785e-34)
(-8.2353812 1.0605737 5.9032399e-18)
(-8.3095054 1.050777 -5.8553308e-18)
(-8.3822314 1.0405299 -1.1605254e-17)
(-8.4550563 1.0299899 -5.7565044e-18)
(-8.5330447 1.0198767 5.7166759e-18)
(-8.6075208 1.0094569 -5.534728e-21)
(-8.6745533 0.99796823 5.6175621e-18)
(-8.7402899 0.98615546 5.4503858e-21)
(-8.8015056 0.97351361 -5.4077424e-21)
(-8.8731955 0.96166276 5.3691378e-21)
(-8.9374314 0.94906488 -2.7336323e-18)
(-9.0024244 0.9365809 2.7084024e-18)
(-9.0639565 0.92356728 2.6941342e-18)
(-9.1295544 0.91084293 -2.6696706e-18)
(-9.1984683 0.89838056 2.6507983e-18)
(-9.2620926 0.88540926 2.6322765e-18)
(-9.3240987 0.87222662 -5.1049022e-21)
(-9.3862289 0.85891892 5.0715876e-21)
(-9.4561283 0.84609065 5.035801e-21)
(-9.5247404 0.83314242 -5.0035316e-21)
(-9.5854328 0.81947838 5.0890605e-18)
(-9.6537519 0.80620819 -6.3006497e-35)
(-9.7229202 0.79292068 2.5114801e-18)
(-9.7843981 0.77895916 -9.7792314e-35)
(-9.8422601 0.76452183 2.4820451e-18)
(-9.8988423 0.74984732 2.4616907e-18)
(-9.9518497 0.73487727 1.3541695e-35)
(-10.006647 0.71997296 -7.278661e-35)
(-10.057476 0.70479337 2.4191689e-18)
(-10.11236 0.6899874 0)
(-10.171036 0.67539004 2.3904555e-18)
(-10.229585 0.66065437 -2.3764552e-18)
(-10.282098 0.64557541 2.3650062e-18)
(-10.340672 0.63084882 2.349136e-18)
(-10.389814 0.61550459 -2.3381054e-18)
(-10.436693 0.60004142 -2.2679901e-21)
(-10.490032 0.58478609 2.2560164e-21)
(-10.53808 0.56927838 -2.2994295e-18)
(-10.585825 0.55351195 2.2869915e-18)
(-10.632897 0.53746298 0)
(-10.67769 0.52140141 -4.5210492e-18)
(-10.723863 0.5054792 -2.2486994e-18)
(-10.77031 0.48967896 -2.2370605e-18)
(-10.811532 0.47369693 0)
(-10.853934 0.45780303 2.2143785e-18)
(-10.895237 0.44196058 -2.203296e-18)
(-10.930865 0.42594028 0)
(-10.96656 0.40995595 -4.3634108e-18)
(-11.001487 0.39400418 3.7615819e-37)
(-11.038046 0.37813743 1.3143697e-24)
(-11.069142 0.36216754 -4.4841551e-44)
(-11.098167 0.3458999 0)
(-11.129602 0.3292705 -1.0653774e-18)
(-11.16631 0.31285757 1.0605238e-18)
(-11.192156 0.29638383 -1.0537109e-18)
(-11.218983 0.28014226 -1.0531484e-18)
(-11.25125 0.26413137 1.048527e-18)
(-11.28613 0.24834824 -2.0352388e-21)
(-11.317004 0.23264626 2.4244571e-38)
(-11.353758 0.21709976 2.0169091e-21)
(-11.394716 0.20171165 -1.0307209e-18)
(-11.431381 0.18640309 1.0264373e-18)
(-11.462808 0.171062 -1.9928574e-21)
(-11.492147 0.15579823 5.1003039e-19)
(-11.522526 0.14003548 -1.9768183e-21)
(-11.559558 0.1238066 -5.0400727e-19)
(-11.593495 0.10776529 1.0143231e-37)
(-11.629514 0.091978059 -5.0009422e-19)
(-11.666631 0.076284806 6.6580735e-40)
(-11.694088 0.060740035 -4.9824413e-19)
(-11.725083 0.045445299 1.9316401e-21)
(-11.763444 0.030279904 -1.23156e-19)
(-11.788729 0.015279866 1.9171259e-21)
(-11.818424 0.00039939109 -1.9104035e-21)
(-11.856046 -0.014399425 1.9037361e-21)
(-11.891965 -0.028997955 -1.8966672e-21)
(-11.915556 -0.043482013 1.8904426e-21)
(-11.937564 -0.058879153 2.4113162e-19)
(-11.958326 -0.074418433 -1.7632415e-38)
(-11.985014 -0.089821382 -4.7904815e-19)
(-12.01469 -0.10506342 6.8876622e-41)
(-12.036374 -0.11999968 -4.7592843e-19)
(-12.054818 -0.1347679 -4.7441116e-19)
(-12.069503 -0.1492359 -9.4583275e-19)
(-12.087071 -0.16348373 9.4103928e-19)
(-12.101067 -0.17751837 1.8360646e-21)
(-12.111253 -0.19127757 -1.4618443e-25)
(-12.123297 -0.20482455 1.9682465e-25)
(-12.152434 -0.21860394 -9.3155865e-19)
(-12.188376 -0.23283353 -9.2881041e-19)
(-12.213518 -0.24788961 9.279604e-19)
(-12.235373 -0.2627232 -1.8039131e-21)
(-12.253974 -0.27721447 9.2097066e-19)
(-12.264043 -0.29124684 1.7940747e-21)
(-12.277635 -0.30507649 -1.8337642e-18)
(-12.295452 -0.31883912 -1.8253031e-18)
(-12.301741 -0.33194142 -1.7797241e-21)
(-12.31318 -0.34488724 1.815849e-18)
(-12.333186 -0.35797531 1.8147398e-18)
(-12.344127 -0.37048048 -3.6733438e-25)
(-12.360755 -0.38291539 2.919928e-35)
(-12.390669 -0.39575259 1.7995148e-18)
(-12.405931 -0.40939611 -5.1862811e-35)
(-12.411789 -0.42280168 1.880791e-37)
(-12.427546 -0.43629688 1.785268e-18)
(-12.445781 -0.44967545 1.7412566e-21)
(-12.459437 -0.4626821 3.8885482e-25)
(-12.468619 -0.47511967 4.3554316e-35)
(-12.481646 -0.48749664 1.7298091e-21)
(-12.494717 -0.49970622 -1.7262484e-21)
(-12.499029 -0.51125091 3.3478079e-35)
(-12.505488 -0.52257846 3.5191075e-18)
(-12.519909 -0.53408821 -3.5120276e-18)
(-12.527454 -0.5450329 1.7122926e-21)
(-12.531131 -0.55681807 3.4984877e-18)
(-12.535709 -0.56945421 1.880791e-37)
(-12.534573 -0.58064337 -1.7237666e-21)
(-12.52945 -0.59289844 3.4196028e-21)
(-12.538037 -0.60445024 -3.4750692e-18)
(-12.55406 -0.61739139 -6.939696e-18)
(-12.556744 -0.62626422 3.4631405e-18)
(-12.559369 -0.63764648 3.4557193e-18)
(-12.563751 -0.64813971 3.4534359e-18)
(-12.564924 -0.65839067 -1.0285576e-38)
(-12.573474 -0.66859611 3.4391166e-18)
(-12.589054 -0.67940046 6.9158972e-18)
(-12.588855 -0.6888922 3.4493911e-18)
(-12.592878 -0.70050793 -9.6672655e-35)
(-12.600419 -0.71240148 -3.4426725e-18)
(-12.596992 -0.72191784 1.6778365e-21)
(-12.606397 -0.7331745 3.4110323e-18)
(-12.615074 -0.74369627 -3.406466e-18)
(-12.619299 -0.75377849 3.402039e-18)
(-12.627706 -0.76384249 0)
(-12.630416 -0.77277457 8.2419691e-25)
(-12.601243 -0.78027896 1.6643593e-21)
(-12.605869 -0.78955304 -3.3051583e-21)
(-12.622237 -0.79929571 -3.3780991e-18)
(-12.64671 -0.80993953 -2.2025482e-26)
(-12.61525 -0.81803268 -6.7896205e-18)
(-12.619331 -0.82869718 1.6458086e-21)
(-12.631702 -0.83862216 5.6423729e-37)
(-12.617973 -0.84742251 -3.3835423e-18)
(-12.635405 -0.85787301 1.6410649e-21)
(-12.660584 -0.86810675 -3.2977631e-21)
(-12.642527 -0.87521692 1.6572668e-21)
(-12.642111 -0.88396107 -1.8367099e-40)
(-12.651546 -0.89264293 -1.6353588e-21)
(-12.66731 -0.9014568 -3.3448239e-18)
(-12.671547 -0.90939471 3.7615819e-37)
(-12.676484 -0.91924776 1.2732955e-34)
(-12.679556 -0.92775812 -3.3408893e-18)
(-12.68396 -0.93740617 6.6759087e-18)
(-12.685551 -0.9462058 -3.3335006e-18)
(-12.688908 -0.95531451 6.6663546e-18)
(-12.705831 -0.96444216 6.6989351e-18)
(-12.688867 -0.9711558 6.6971161e-18)
(-12.695054 -0.9796888 6.6543711e-18)
(-12.714357 -0.98893128 -6.6494924e-18)
(-12.718191 -0.99568357 6.6482026e-18)
(-12.720776 -1.0031521 6.6472311e-18)
(-12.732459 -1.0114473 6.6447513e-18)
(-12.740605 -1.0205356 6.642677e-18)
(-12.74924 -1.029658 1.3281579e-17)
(-12.760287 -1.0393806 -1.4331627e-34)
(-12.761746 -1.0455175 6.6761202e-18)
(-12.750868 -1.0534573 1.6296606e-21)
(-12.753279 -1.0610975 -6.6373199e-18)
(-12.76148 -1.069103 6.6348463e-18)
(-12.77043 -1.0769078 2.4928126e-24)
(-12.779811 -1.0845169 -6.6354385e-18)
(-12.783347 -1.0914723 -6.6320735e-18)
(-12.790216 -1.0986086 6.6337424e-18)
(-12.7943 -1.1067343 1.3268541e-17)
(-12.80514 -1.1158622 -6.6365767e-18)
(-12.821454 -1.1250477 -6.6341611e-18)
(-12.837668 -1.1339094 -6.6368356e-18)
(-12.846422 -1.1415643 6.6776186e-18)
(-12.844073 -1.1488109 3.0092655e-36)
(-12.853488 -1.156473 -1.3284147e-17)
(-12.865296 -1.1641122 6.644423e-18)
(-12.872449 -1.1712081 8.1612875e-22)
(-12.871528 -1.176396 -6.7292156e-18)
(-12.870563 -1.1832509 -8.1678511e-22)
(-12.874104 -1.1903415 8.1228405e-22)
(-12.88849 -1.1992439 6.657638e-18)
(-12.90418 -1.2078551 -8.1314643e-22)
(-12.907428 -1.2150375 8.1359156e-22)
(-12.910576 -1.2221836 3.7615819e-37)
(-12.915611 -1.2293678 -6.6736049e-18)
(-12.926476 -1.2369381 6.6781888e-18)
(-12.939328 -1.244433 7.5231638e-37)