/*--------------------------------*- C++ -*----------------------------------*\
| =========                 |                                                 |
| \\      /  F ield         | OpenFOAM: The Open Source CFD Toolbox           |
|  \\    /   O peration     | Version:  2506                                  |
|   \\  /    A nd           | Website:  www.openfoam.com                      |
|    \\/     M anipulation  |                                                 |
\*---------------------------------------------------------------------------*/
FoamFile
{
    version     2.0;
    format      ascii;
    arch        "LSB;label=32;scalar=64";
    class       volScalarField;
    location    "0.024";
    object      Ma;
}
// * * * * * * * * * * * * * * * * * * * * * * * * * * * * * * * * * * * * * //

dimensions      [0 0 0 0 0 0 0];

internalField   nonuniform List<scalar> 
192657
(
0.29917059
0.29960189
0.30025378
0.29942228
0.30049149
0.29984896
0.30119335
0.30210178
0.30437243
0.30599295
0.30563106
0.30184468
0.29894401
0.30179938
0.30557267
0.30537703
0.30421941
0.30681976
0.30771825
0.30747285
0.30954484
0.31030682
0.31128446
0.31295608
0.31404295
0.31566252
0.31728399
0.31899366
0.32068741
0.32236286
0.32433232
0.3266018
0.32898501
0.33144215
0.33394543
0.33659872
0.33911014
0.34193925
0.34500794
0.34815411
0.35142217
0.35485992
0.35835083
0.36195688
0.36566372
0.36968901
0.37362461
0.37802752
0.3822999
0.38692792
0.39158788
0.39643125
0.40142321
0.40643563
0.41156129
0.41677469
0.42193516
0.42718445
0.43236868
0.43751385
0.4425206
0.44747473
0.45230283
0.456845
0.46141429
0.46567865
0.46978766
0.47367145
0.47741711
0.48093912
0.48416099
0.48736982
0.49017045
0.49284168
0.49559991
0.49779423
0.49982467
0.50214299
0.50416591
0.50571985
0.50719674
0.50873922
0.51026414
0.51164536
0.51287449
0.51401428
0.51507569
0.51606062
0.51702397
0.51796142
0.51880519
0.5195606
0.52032565
0.52110066
0.52180196
0.52245506
0.52312803
0.52379438
0.52441213
0.52500204
0.52558727
0.52614991
0.52668628
0.52717966
0.52486805
0.51327623
0.49935088
0.48782773
0.47748477
0.46787009
0.45879743
0.45017942
0.44196134
0.4341108
0.4266011
0.41940385
0.41249134
0.40583784
0.39941486
0.39319144
0.38713995
0.38123754
0.37546121
0.36978692
0.36418967
0.35864262
0.35311778
0.34758587
0.34201471
0.33637067
0.33061637
0.32470949
0.31860405
0.31224714
0.30557342
0.29850223
0.29092904
0.28269509
0.27354366
0.26308953
0.25083788
0.23604782
0.21764543
0.19422285
0.16458563
0.12935239
0.091564305
0.054074282
0.017965399
0.29916837
0.2996038
0.3002471
0.29942047
0.30049078
0.29984557
0.30118226
0.30208599
0.30435506
0.30599247
0.30566073
0.30190001
0.29893606
0.3017679
0.30555194
0.30540208
0.30421217
0.30679447
0.30772625
0.30746032
0.30952756
0.31030118
0.31126555
0.31293702
0.31402875
0.31564862
0.31725463
0.31897155
0.32067133
0.32232673
0.3242866
0.3265413
0.32890959
0.33136645
0.33387216
0.33652326
0.33902768
0.34184023
0.34489444
0.34802932
0.35129225
0.35472161
0.358206
0.36180773
0.36550316
0.3695199
0.37344904
0.37784518
0.3821173
0.38673915
0.39139363
0.3962366
0.40122853
0.40624057
0.41137469
0.41659636
0.42178058
0.4270371
0.43224524
0.43741266
0.44244479
0.44743792
0.452298
0.45688007
0.46148879
0.46579211
0.46994528
0.47387306
0.47765646
0.48120547
0.48447577
0.48774228
0.49057746
0.49328654
0.49607736
0.49829709
0.50036723
0.50271754
0.5047619
0.50633981
0.50785665
0.50943275
0.51097157
0.51235091
0.51357085
0.51470088
0.51573626
0.51668299
0.51759162
0.5184866
0.51933808
0.52014306
0.5209049
0.5215809
0.52217838
0.52276825
0.52337009
0.52393618
0.52444643
0.52493152
0.52540325
0.52585785
0.5262868
0.52613616
0.52246156
0.50967702
0.49586954
0.48421572
0.4735247
0.46344526
0.45385012
0.44465973
0.4358352
0.4273481
0.41917642
0.41130199
0.40370758
0.3963748
0.38928277
0.38240316
0.37571029
0.36918691
0.36280963
0.35655244
0.35038773
0.34428564
0.33821451
0.33214058
0.32602641
0.3198313
0.31350818
0.30700165
0.30024935
0.29317705
0.28569102
0.27767378
0.26897742
0.25941149
0.24872708
0.23659243
0.22255233
0.20598871
0.18608566
0.1619459
0.13326688
0.10163626
0.070077224
0.040480085
0.01313922
0.29916749
0.29960887
0.30024217
0.29941738
0.3004907
0.29984197
0.30117272
0.30207268
0.30434015
0.30599295
0.30568714
0.30194996
0.29892698
0.30174096
0.30553474
0.3054255
0.30420701
0.30677101
0.30773414
0.30744966
0.3095109
0.31029652
0.31125025
0.31292823
0.31401613
0.31562223
0.31724182
0.3189477
0.32064028
0.32230498
0.32425292
0.32650377
0.32887521
0.33132572
0.33382495
0.33647584
0.33897009
0.34176415
0.34480657
0.34793353
0.35119491
0.35462058
0.35808995
0.36167854
0.36536506
0.36937273
0.37329378
0.37768187
0.38194646
0.38656202
0.3912121
0.39604876
0.40103812
0.40605579
0.41119244
0.41642154
0.42160789
0.42689446
0.43211455
0.43730457
0.44237099
0.44739006
0.45228618
0.45690559
0.46155328
0.46589652
0.47008819
0.47405027
0.47788005
0.48148342
0.48479183
0.48808604
0.4909662
0.49371606
0.49654698
0.49880826
0.5009041
0.50327862
0.5053492
0.50694707
0.50846373
0.51003726
0.51158625
0.51297967
0.51421324
0.51534859
0.51639238
0.51734764
0.51826591
0.51913917
0.51989951
0.52056943
0.52124354
0.52190845
0.52248146
0.52299158
0.52350006
0.52397888
0.5243914
0.52475982
0.52510779
0.52542276
0.52569943
0.52592623
0.52278447
0.50963941
0.49568227
0.48387436
0.47300937
0.46276907
0.45302995
0.44372456
0.43480661
0.42624124
0.41800043
0.41005957
0.40239638
0.39499141
0.38783043
0.3809049
0.37419453
0.36766373
0.36128181
0.35502039
0.3488511
0.34274394
0.33666744
0.33058832
0.32446982
0.31827294
0.31195377
0.30546103
0.29873754
0.29171579
0.28431029
0.27641299
0.2678851
0.25854396
0.2481466
0.23636049
0.22271123
0.20652919
0.18697379
0.16314415
0.13475149
0.10331862
0.071664348
0.04161561
0.013581061
0.29916868
0.29961422
0.30024024
0.29941391
0.30049096
0.299838
0.30116279
0.30205818
0.30432408
0.30599389
0.30571822
0.302005
0.29891682
0.30170863
0.30551566
0.305452
0.30420068
0.30674667
0.30774382
0.30743841
0.30949434
0.31029176
0.31123194
0.31291004
0.3140025
0.31561059
0.31721402
0.31892538
0.32062553
0.32227037
0.32420878
0.32644399
0.32879999
0.33125046
0.33375175
0.33640029
0.33888858
0.34166615
0.34469276
0.34780769
0.35106264
0.35447795
0.35793929
0.36152408
0.36519973
0.36919911
0.37311422
0.3774943
0.38175716
0.38636686
0.39101031
0.3958452
0.40083396
0.40585041
0.41099445
0.41623148
0.42144191
0.42673463
0.43197676
0.43719006
0.44228002
0.44733723
0.45226644
0.45692519
0.46161282
0.46599661
0.4702317
0.47423641
0.47810619
0.48173985
0.48509669
0.48844848
0.49136288
0.49414839
0.49701418
0.49930174
0.50143282
0.50383657
0.50592753
0.50754903
0.50909846
0.51069644
0.51224833
0.51363103
0.51484806
0.51595974
0.51696738
0.51787491
0.51873652
0.51957718
0.5203599
0.52107053
0.52171811
0.52226497
0.52272086
0.52316172
0.52360401
0.52399503
0.52432053
0.52460981
0.52487797
0.52512609
0.52532111
0.52497922
0.52187575
0.50902406
0.49493871
0.48297235
0.47193171
0.46150366
0.45157351
0.44207925
0.43297581
0.42422762
0.41580426
0.40768241
0.39984287
0.39226478
0.38492708
0.37780745
0.3708807
0.36412437
0.35751632
0.35103017
0.3446385
0.33831221
0.33202057
0.32573061
0.3194052
0.3130043
0.30648202
0.29978437
0.29285108
0.28561152
0.27797801
0.26984172
0.26106591
0.25147491
0.24083972
0.22885379
0.21508962
0.19896041
0.17967113
0.15633463
0.12868609
0.098277236
0.067894952
0.039276128
0.012762496
0.29917209
0.2996168
0.30024128
0.29941058
0.3004914
0.29983403
0.30115366
0.30204538
0.30430953
0.30599524
0.30574631
0.30205598
0.29890617
0.30168031
0.30549966
0.30547711
0.30419626
0.30672372
0.30775282
0.30742882
0.30947781
0.310287
0.31121691
0.3129016
0.31399084
0.3155838
0.31720068
0.31890239
0.32059369
0.32224849
0.32417527
0.32640697
0.32876595
0.33120903
0.33370381
0.33635302
0.33883157
0.34159062
0.34460398
0.34770959
0.35096189
0.3543719
0.35781839
0.36138962
0.36505653
0.36904767
0.37295511
0.37732567
0.38158019
0.38618232
0.39082146
0.39564797
0.40063296
0.40565439
0.41080062
0.41604468
0.42125699
0.42657917
0.43183192
0.43706627
0.44219053
0.44727236
0.45223663
0.45693354
0.46165919
0.46608624
0.47036247
0.47440236
0.47831779
0.48200456
0.48540149
0.48878366
0.49174572
0.49457462
0.49748072
0.49981107
0.50196877
0.50439841
0.50651816
0.5081592
0.50970835
0.51130617
0.51287139
0.51426962
0.5154974
0.51661572
0.51762778
0.518537
0.51939332
0.52018858
0.52085686
0.52143651
0.5220171
0.52257258
0.52302673
0.52341322
0.52378892
0.52412931
0.52440069
0.52462893
0.52484227
0.52502364
0.52517691
0.52522657
0.52240823
0.51005443
0.49557437
0.48334829
0.47213045
0.46157636
0.45155525
0.44199181
0.43283211
0.42403123
0.41554831
0.40735494
0.39943272
0.39176127
0.38432323
0.37710284
0.37008581
0.36325285
0.35658093
0.35003519
0.34358602
0.33720514
0.33086335
0.32452911
0.31816558
0.31173386
0.30519003
0.29848266
0.29155448
0.28433783
0.27674738
0.26867605
0.25998753
0.25050376
0.23998859
0.22811934
0.21444402
0.19834802
0.17903234
0.15564288
0.1279743
0.097628633
0.067383142
0.038944291
0.012640749
0.2991752
0.29961533
0.30024397
0.29940722
0.30049193
0.2998293
0.30114369
0.30203082
0.30429295
0.30599619
0.30577907
0.30211357
0.29889578
0.30164577
0.30548041
0.30550588
0.30419049
0.30669922
0.3077634
0.30741837
0.30946101
0.31028235
0.31119853
0.31288258
0.31397551
0.31557227
0.31717312
0.31887798
0.32057835
0.32221375
0.32413056
0.32634572
0.32868882
0.33113228
0.33362856
0.33627508
0.33874882
0.34149166
0.34448785
0.34758068
0.35082489
0.35422292
0.35766013
0.3612291
0.36488652
0.36886923
0.37277059
0.37713197
0.38138333
0.3859799
0.39061129
0.39543331
0.4004191
0.40543828
0.41059046
0.41584176
0.42107827
0.42640582
0.43167899
0.43693757
0.44208311
0.44720132
0.45219903
0.45693525
0.46170098
0.46616965
0.47048902
0.47457076
0.4785289
0.48224961
0.48569427
0.48913259
0.49212872
0.4949924
0.49793584
0.50029373
0.50248486
0.50494266
0.5070829
0.50874914
0.51032703
0.51194408
0.51350745
0.51489347
0.51610517
0.5171975
0.51817798
0.51904802
0.51986702
0.52066101
0.52138387
0.52201408
0.52257106
0.52302542
0.5233868
0.52373179
0.52407761
0.52437112
0.52460267
0.52480045
0.52497744
0.52513601
0.52523782
0.52491246
0.52255812
0.51110763
0.49655173
0.48432457
0.47306586
0.4623919
0.45219704
0.44243057
0.43306586
0.42408458
0.41546909
0.40718827
0.39920375
0.39148568
0.38400704
0.37674145
0.3696614
0.36273797
0.35594118
0.34925412
0.34265571
0.33612159
0.32962454
0.32313594
0.31661455
0.31002176
0.30331514
0.29644398
0.28935134
0.28196971
0.27421383
0.26597711
0.25712548
0.24748664
0.23683598
0.2248717
0.21116581
0.19511201
0.17591698
0.15273461
0.12537699
0.095467319
0.065768445
0.03794356
0.012291173
0.29917468
0.29960924
0.30024764
0.29940326
0.30049231
0.29982491
0.3011343
0.30201762
0.30427762
0.30599744
0.30580893
0.30216733
0.29888447
0.30161544
0.30546404
0.30553334
0.30418643
0.30667633
0.30777352
0.30740985
0.30944454
0.31027777
0.31118295
0.31287342
0.3139643
0.31554459
0.31715787
0.31885476
0.32054465
0.32219028
0.32409615
0.32630799
0.32865362
0.33108858
0.33357853
0.33622612
0.33869088
0.34141523
0.34439658
0.34747886
0.3507189
0.35411049
0.35753373
0.3610897
0.36473853
0.36871306
0.37260675
0.37695701
0.38119955
0.38578727
0.3904138
0.39522508
0.40020742
0.40523039
0.41038439
0.41564217
0.42087994
0.42623597
0.43151854
0.43679751
0.44197695
0.44711795
0.45214982
0.45692445
0.46172703
0.46624045
0.47060515
0.47472399
0.47872662
0.48249832
0.48598464
0.48945717
0.49250378
0.49541288
0.4983972
0.50079977
0.50302002
0.50550653
0.50768074
0.50936917
0.51095236
0.51257631
0.51416133
0.51557025
0.51679779
0.51790613
0.51889623
0.51977123
0.52058153
0.52132216
0.52193027
0.52245777
0.52298596
0.52347862
0.52386825
0.52419277
0.52450506
0.52478467
0.52500029
0.52517756
0.52533984
0.52547552
0.52559719
0.52564472
0.52359042
0.51301006
0.49809968
0.48563354
0.47426065
0.46354417
0.45335003
0.44360086
0.43424032
0.42522697
0.4165303
0.40812849
0.40000259
0.39213344
0.38450353
0.37709449
0.36988584
0.36285561
0.35597982
0.34923235
0.34258428
0.33600331
0.32945632
0.32290823
0.31633093
0.30968739
0.30293677
0.29602997
0.28891219
0.28151883
0.27376621
0.26554594
0.25672216
0.24711909
0.23650521
0.22456633
0.21086551
0.19479881
0.17557981
0.15237197
0.12500108
0.09510714
0.065464082
0.037734581
0.01221078
0.29916869
0.29959959
0.30025215
0.29939868
0.30049277
0.29982003
0.3011239
0.30200244
0.30425971
0.30599765
0.3058432
0.30222865
0.29887469
0.30157824
0.30544364
0.30556437
0.30418135
0.30665137
0.30778551
0.30740084
0.30942715
0.31027293
0.3111644
0.31285362
0.31394723
0.31553237
0.31713002
0.31882725
0.32052783
0.32215472
0.32404969
0.32624418
0.32857369
0.33100936
0.33349987
0.33614461
0.33860573
0.34131421
0.34427734
0.34734569
0.35057588
0.35395443
0.35736812
0.36092351
0.36456378
0.36852911
0.37241637
0.37675641
0.38099444
0.38557696
0.39019401
0.39499935
0.39998334
0.40500315
0.41016164
0.41542573
0.42068736
0.42604811
0.43134956
0.43665356
0.44185288
0.44702844
0.45209323
0.45690731
0.46174991
0.46630434
0.4707128
0.47487361
0.47892094
0.48273082
0.48626406
0.48979058
0.49287161
0.49581626
0.49884071
0.50127318
0.50352714
0.5060426
0.50823866
0.5099559
0.51156694
0.51320869
0.51479236
0.51619391
0.5174138
0.51850305
0.51947595
0.52033157
0.52113547
0.52191351
0.52260878
0.52319613
0.52370856
0.52412619
0.52445331
0.524763
0.52507505
0.52533772
0.52554258
0.52571559
0.52587347
0.52601824
0.52611211
0.52587675
0.52428858
0.51494221
0.5001022
0.48758179
0.47614441
0.4653162
0.45498258
0.44508928
0.43560018
0.42648457
0.41771299
0.40925613
0.40108539
0.39317299
0.38549378
0.37802394
0.37073994
0.36361914
0.35663889
0.34977618
0.34300765
0.33630813
0.32965035
0.32300454
0.31633646
0.30960956
0.30277747
0.29578665
0.28857806
0.2810824
0.27321518
0.26487459
0.2559304
0.24621289
0.23549856
0.2234853
0.20974137
0.19366428
0.17446676
0.15131301
0.12403275
0.094276083
0.06482225
0.037324754
0.01206337
0.29915805
0.29959151
0.30025861
0.29939509
0.30049369
0.29981524
0.301114
0.30198865
0.30424306
0.30599828
0.30587475
0.30228602
0.29886348
0.30154582
0.30542601
0.30559379
0.3041771
0.30662811
0.30779691
0.30739372
0.30941054
0.31026819
0.31114858
0.31284321
0.31393592
0.31550342
0.31711242
0.31880386
0.3204916
0.32212883
0.32401397
0.32620491
0.32853632
0.33096264
0.33344695
0.33609302
0.3385459
0.34123601
0.34418283
0.34723921
0.35046403
0.35383528
0.357237
0.36077967
0.36441075
0.36836747
0.37224683
0.37657431
0.38080337
0.38537584
0.38998615
0.39478122
0.39976058
0.404783
0.40994312
0.4152131
0.420475
0.42586273
0.43117252
0.43649656
0.44172967
0.44692682
0.45202468
0.45687663
0.46175489
0.46635468
0.47081224
0.47501367
0.47910404
0.48296279
0.48653926
0.49010446
0.49323864
0.49623017
0.49929667
0.50177651
0.50406291
0.50661084
0.50884809
0.51059322
0.51221889
0.51387818
0.51549461
0.51692971
0.51817495
0.51929332
0.52028515
0.52115317
0.52194933
0.52267299
0.52326666
0.52378914
0.52431188
0.52478992
0.52516664
0.52548262
0.52578634
0.52606091
0.52627514
0.52645288
0.52661761
0.5267597
0.5269087
0.52702619
0.52569032
0.51735247
0.50240444
0.48965773
0.47813635
0.46727833
0.45693643
0.44703448
0.43752316
0.42836549
0.4195325
0.41099957
0.4027439
0.39474276
0.38697415
0.3794167
0.37204841
0.36484626
0.35778643
0.3508443
0.34399478
0.33721112
0.33046519
0.32372699
0.3169628
0.31013644
0.30320622
0.2961226
0.28883023
0.28126339
0.27333873
0.26495159
0.25596938
0.24622014
0.23547725
0.22343301
0.20965366
0.193539
0.17430629
0.15112054
0.12381305
0.094044263
0.064610534
0.037171495
0.012002015
0.29914589
0.2995884
0.3002666
0.29939386
0.30049538
0.29981033
0.30110318
0.30197273
0.30422359
0.30599737
0.30591034
0.30235143
0.29885539
0.30150611
0.30540349
0.3056266
0.30417232
0.30660228
0.30781005
0.3073861
0.30939323
0.31026349
0.31113019
0.31282263
0.31391728
0.31549061
0.317085
0.3187725
0.32047284
0.32209176
0.32396485
0.32613805
0.32845283
0.33088025
0.33336398
0.33600688
0.33845722
0.34113221
0.34405982
0.34710146
0.35031475
0.35367251
0.35706462
0.36060746
0.36423054
0.36817722
0.37204976
0.37636619
0.38058947
0.38515699
0.38975586
0.39454523
0.39952585
0.40454422
0.40970744
0.4149828
0.42026799
0.42565972
0.43098673
0.43633629
0.44158843
0.44681889
0.45194906
0.45683991
0.46175781
0.46639843
0.47089951
0.47514419
0.47928149
0.48318275
0.48680523
0.49042166
0.49359115
0.49662044
0.49972999
0.50224291
0.50456505
0.50714448
0.50940593
0.51118488
0.51283961
0.51451843
0.51613802
0.51757502
0.5188248
0.51993618
0.52092931
0.52180217
0.52262572
0.52342295
0.52412646
0.52471071
0.52522427
0.52565519
0.52599753
0.52631857
0.52664222
0.52691994
0.5271427
0.52733403
0.52751289
0.5276796
0.52779278
0.5276567
0.52674357
0.51978356
0.50519544
0.49230215
0.4806959
0.46974368
0.45930056
0.44929946
0.43970052
0.43046993
0.42157568
0.41298938
0.40468393
0.39663295
0.3888122
0.38119853
0.37376867
0.36649962
0.35936817
0.35235056
0.34542264
0.33855854
0.33173079
0.3249099
0.31806245
0.31115245
0.30413831
0.29697062
0.28959433
0.2819443
0.27393808
0.26547215
0.25641532
0.24659711
0.23579288
0.22369741
0.20987879
0.19373535
0.17447912
0.1512666
0.12391511
0.09408422
0.064598302
0.037138808
0.011981574
0.29913636
0.29959029
0.30027451
0.29939523
0.30049742
0.2998054
0.30109287
0.30195831
0.30420569
0.30599729
0.30594361
0.30241238
0.29884489
0.30147128
0.30538411
0.30565771
0.30416772
0.30657829
0.3078226
0.30738031
0.30937603
0.31025915
0.31111427
0.31281147
0.3139063
0.31546115
0.3170644
0.31874888
0.32043404
0.32206279
0.3239276
0.32609674
0.32841266
0.33082991
0.33330773
0.33595178
0.33839475
0.34105147
0.34396146
0.34699036
0.35019752
0.35354745
0.356929
0.36045876
0.36407197
0.36800942
0.37187383
0.37617641
0.38039067
0.38494702
0.38953745
0.39431715
0.39929203
0.40431163
0.40947627
0.41475693
0.42004133
0.4254582
0.43079256
0.43616195
0.44144753
0.44669901
0.45186172
0.45678968
0.46174212
0.46642866
0.47098042
0.47526956
0.47944993
0.48339776
0.48706507
0.49072487
0.4939497
0.49702658
0.50017996
0.50274363
0.50510204
0.50771827
0.5100294
0.51184399
0.51352467
0.51523309
0.51689694
0.5183783
0.51966384
0.52081734
0.52183908
0.52273122
0.52354787
0.52429341
0.52491676
0.52547669
0.52603276
0.52653532
0.5269391
0.52728547
0.5276185
0.52792478
0.52817254
0.5283829
0.52857997
0.52875553
0.52895183
0.52914362
0.52837791
0.52240944
0.50813189
0.4949681
0.483284
0.47230451
0.46184542
0.45182494
0.44219649
0.43292646
0.42398506
0.41534533
0.40698207
0.39887036
0.39098677
0.38330814
0.37581145
0.36847387
0.36127176
0.35418113
0.34717778
0.34023593
0.33332839
0.32642604
0.31949595
0.31250266
0.3054051
0.29815438
0.29069599
0.2829653
0.27488039
0.26633839
0.25720889
0.24732225
0.2364539
0.22429804
0.21042236
0.19422491
0.17491567
0.15164333
0.12421019
0.094274184
0.06469057
0.037166919
0.011981151
0.29913197
0.29959401
0.30028246
0.2993965
0.30049959
0.29980043
0.30108162
0.30194173
0.30418479
0.30599534
0.30598046
0.3024817
0.29883914
0.301429
0.30535913
0.30569197
0.3041628
0.30655181
0.30783616
0.30737432
0.30935829
0.31025467
0.31109574
0.31279043
0.31388594
0.31544744
0.31703829
0.31871357
0.3204129
0.32202408
0.32387555
0.32602682
0.32832548
0.33074356
0.3332197
0.33586044
0.3383018
0.34094417
0.34383463
0.34684825
0.35004273
0.35337892
0.35674995
0.36027993
0.36388557
0.36781232
0.37166934
0.37596018
0.38016753
0.38471903
0.38929726
0.39407061
0.39904629
0.40406105
0.40922732
0.4145124
0.4198196
0.42523967
0.43058946
0.43598453
0.44128846
0.44657261
0.45176729
0.45673342
0.46172581
0.46645177
0.47104673
0.47538024
0.47961068
0.48360504
0.48731759
0.49102562
0.49428714
0.49740541
0.50060487
0.5032053
0.50560265
0.50825399
0.5105921
0.51244584
0.51415819
0.51589004
0.51756433
0.51905899
0.52036216
0.52152254
0.52256456
0.5234853
0.52435996
0.52520656
0.52594829
0.52656346
0.52711577
0.52759848
0.52799213
0.52835698
0.52872254
0.52904483
0.52931258
0.52954636
0.52976685
0.52997225
0.53011312
0.53008271
0.52967039
0.52502697
0.51154585
0.49813337
0.48635208
0.47529484
0.46475842
0.45466442
0.44496845
0.4356393
0.42664733
0.41796227
0.40955641
0.40140298
0.39347699
0.38575429
0.37821082
0.3708228
0.36356625
0.35641702
0.34935097
0.34234254
0.33536483
0.32838918
0.32138315
0.31431186
0.30713484
0.29980382
0.29226496
0.28445437
0.27629084
0.26767223
0.25846836
0.24850915
0.23756992
0.22534537
0.21140333
0.19514074
0.17576336
0.1524076
0.12485274
0.094749037
0.064989671
0.037319297
0.012022682
0.29913178
0.29959503
0.30029059
0.29939579
0.30050149
0.29979542
0.30107085
0.3019265
0.30416554
0.30599464
0.30601537
0.30254605
0.29882984
0.30139154
0.30533751
0.30572461
0.3041577
0.30652714
0.30784905
0.30736984
0.3093407
0.31025022
0.31107984
0.31277866
0.31387596
0.31541824
0.31701486
0.31869032
0.32037113
0.32199195
0.32383671
0.32598234
0.32828174
0.33068933
0.33315981
0.33580113
0.33823607
0.34086073
0.34373287
0.34673327
0.34992137
0.35324844
0.35660953
0.36012582
0.36372084
0.36763788
0.37148639
0.37576227
0.37996065
0.3844999
0.38906893
0.39383212
0.39880137
0.40381617
0.40898345
0.41427284
0.41957844
0.42502161
0.43037804
0.43579271
0.4411292
0.44643402
0.45166155
0.45666422
0.46168988
0.46646185
0.47110883
0.47548968
0.4797643
0.48380338
0.48756233
0.49131832
0.4946367
0.49780252
0.50104815
0.50370299
0.50614027
0.50883261
0.51122917
0.51312701
0.5148768
0.51664962
0.51837823
0.51992636
0.52127471
0.52248779
0.52356612
0.52451022
0.52537738
0.52617819
0.52686655
0.52749545
0.52811243
0.52866749
0.52912655
0.52952945
0.52991632
0.53027708
0.53057895
0.53083977
0.5310849
0.53130921
0.53155906
0.53181731
0.53145136
0.52762793
0.51497596
0.5012558
0.48939782
0.47831501
0.46775716
0.45763882
0.44791424
0.43855026
0.42951907
0.4207934
0.41234562
0.40414903
0.39617864
0.38841002
0.38081835
0.3733795
0.36606938
0.35886333
0.35173686
0.34466434
0.33761888
0.330572
0.32349157
0.31634315
0.3090868
0.3016748
0.2940539
0.28616094
0.27791523
0.26921443
0.25992827
0.24988731
0.23886775
0.22656491
0.21254667
0.1962088
0.17675244
0.15330084
0.12560813
0.095314839
0.065353874
0.037510365
0.012077166
0.29913189
0.29958938
0.30029817
0.29939293
0.30050335
0.2997904
0.30105918
0.3019089
0.30414296
0.30599144
0.30605325
0.30261923
0.2988267
0.30134638
0.3053095
0.30575992
0.30415201
0.3064995
0.30786249
0.3073656
0.30932203
0.31024598
0.31106155
0.31275702
0.31385456
0.31540373
0.31699012
0.31865139
0.32034758
0.32195195
0.32378126
0.32590945
0.32819055
0.33059837
0.33306606
0.33570395
0.33813826
0.34075008
0.3436029
0.34658817
0.34976189
0.35307426
0.35642384
0.35993997
0.36352772
0.36743328
0.37127397
0.37553756
0.37972801
0.38426223
0.38881974
0.39357466
0.39854389
0.40355377
0.40872115
0.41401369
0.41934167
0.42478727
0.43015731
0.43559755
0.44095175
0.44628871
0.45154796
0.45658874
0.46165389
0.46646519
0.47115463
0.47558035
0.47990831
0.48399766
0.48780152
0.49160312
0.49496
0.49817147
0.50146591
0.50416127
0.50664137
0.5093728
0.51179895
0.51374077
0.51552553
0.51732673
0.51907437
0.52064747
0.52202576
0.52325964
0.52437565
0.52536937
0.52631868
0.5272363
0.52803743
0.5287085
0.5293265
0.52988696
0.53035538
0.53078504
0.53121166
0.53159672
0.53192561
0.53221582
0.53248984
0.53274366
0.53291603
0.53299395
0.53291643
0.53020649
0.51880913
0.50482297
0.49285835
0.48170776
0.47108375
0.46090307
0.45112198
0.4417079
0.43263249
0.42386781
0.41538511
0.40715604
0.39915414
0.39135381
0.38372926
0.37625531
0.36890685
0.36165858
0.35448565
0.34736216
0.34026108
0.33315397
0.32600889
0.3187917
0.31146289
0.3039752
0.29627583
0.2883016
0.27997174
0.27118452
0.26181056
0.25168114
0.24057305
0.22818198
0.21407557
0.19764796
0.1780947
0.15452322
0.1266564
0.096119447
0.065890223
0.037804081
0.01216606
0.29913208
0.29957712
0.30030243
0.2993892
0.30050472
0.29978517
0.30104787
0.3018927
0.30412211
0.3059898
0.30608966
0.30268734
0.29881917
0.30130555
0.30528618
0.30579384
0.30414637
0.30647383
0.30787482
0.30736296
0.30930382
0.31024157
0.31104544
0.31274416
0.31384559
0.31537502
0.31696389
0.31862859
0.32030348
0.32191606
0.3237411
0.32586171
0.32814312
0.33054011
0.3330024
0.33563996
0.33806914
0.34066453
0.3434989
0.34647084
0.34963699
0.35293806
0.35627797
0.35978006
0.36335654
0.36725162
0.37108339
0.37533136
0.37951261
0.38403368
0.38858212
0.3933258
0.39828731
0.40329683
0.40846458
0.41376002
0.41908566
0.42455241
0.42992864
0.43538826
0.44077365
0.44613101
0.45142388
0.45650101
0.46159845
0.4664561
0.47119764
0.47567246
0.48004578
0.4841797
0.48803188
0.49188558
0.49529979
0.49855772
0.50190088
0.50465418
0.50717728
0.50995328
0.51244589
0.5144398
0.51627209
0.51812343
0.51993264
0.5215654
0.522996
0.52428937
0.52544643
0.52646524
0.52740687
0.52828875
0.52906729
0.52978466
0.5304786
0.53110344
0.53163525
0.53211027
0.5325657
0.53299469
0.5333634
0.53368627
0.53399048
0.53427457
0.53458435
0.53490189
0.53479658
0.53264028
0.52250539
0.50831682
0.49626267
0.4850837
0.47443364
0.46422458
0.45441267
0.44496638
0.43585753
0.42705902
0.41854356
0.41028313
0.40225082
0.39442019
0.38676463
0.37925774
0.37187349
0.36458619
0.35737047
0.3502
0.34304748
0.33588423
0.32867819
0.32139519
0.3139957
0.30643254
0.29865318
0.29059509
0.28217835
0.27330191
0.26383697
0.25361534
0.24241423
0.22992951
0.21572845
0.19920336
0.17954413
0.15584231
0.12778931
0.096993622
0.066477818
0.038129118
0.012265742
0.29913284
0.29956604
0.30030315
0.29938653
0.30050588
0.29978016
0.30103571
0.30187402
0.30409759
0.30598499
0.30612824
0.3027648
0.29881949
0.30125742
0.30525529
0.30582982
0.30414045
0.30644475
0.30788716
0.30736092
0.30928357
0.31023679
0.3110269
0.31272182
0.31382318
0.31535911
0.31694102
0.3185863
0.32027808
0.32187567
0.32368246
0.3257862
0.32804813
0.33044406
0.33290305
0.33553717
0.33796699
0.34055131
0.34336698
0.34632369
0.34947265
0.35275805
0.35608522
0.35958673
0.36315633
0.36703925
0.37086264
0.37509769
0.37927026
0.3837859
0.38832404
0.39305773
0.39801734
0.40302221
0.40818888
0.41348623
0.41883344
0.42430199
0.42969011
0.43517502
0.44057748
0.4459661
0.45129033
0.45640625
0.46154299
0.46643878
0.47122384
0.47574316
0.48017143
0.48436011
0.48825742
0.49215517
0.49561009
0.49891804
0.50231202
0.50510919
0.50767923
0.51049814
0.5130224
0.51506384
0.51693429
0.51881901
0.52065592
0.52232431
0.52379531
0.52512221
0.52633149
0.52741699
0.52845748
0.52946005
0.53033513
0.53107982
0.53178098
0.53243405
0.53299006
0.53349603
0.53399424
0.53445233
0.53485195
0.53520793
0.5355445
0.53585533
0.53606927
0.53625046
0.53638941
0.53506922
0.52646278
0.5122133
0.50001717
0.48877008
0.47806025
0.46779547
0.45793167
0.44843823
0.43928792
0.43045384
0.42190806
0.41362166
0.40556671
0.39771552
0.39004015
0.3825131
0.37510711
0.3677951
0.36055061
0.35334653
0.34615498
0.33894689
0.33168999
0.32435006
0.31688771
0.30925596
0.30140256
0.29326538
0.28476485
0.27580031
0.26624337
0.25592621
0.24462641
0.23204003
0.21773391
0.20109843
0.18131718
0.15746373
0.12919247
0.098089122
0.067225267
0.038549495
0.012397371
0.29913084
0.29956167
0.30030385
0.29938654
0.30050707
0.29977463
0.30102386
0.30185668
0.30407489
0.30598215
0.30616607
0.30283706
0.29881473
0.30121244
0.30522934
0.30586495
0.30413436
0.3064185
0.30789857
0.30736039
0.30926384
0.31023234
0.31101067
0.31270785
0.3138148
0.3153314
0.31691146
0.31856416
0.32023174
0.32183558
0.32364089
0.32573495
0.32799684
0.33038255
0.33283594
0.33546896
0.33789535
0.34046461
0.34326193
0.34620451
0.34934403
0.3526158
0.35593335
0.35942086
0.36297842
0.36684993
0.37066412
0.37488317
0.37904587
0.38354771
0.38807681
0.39279949
0.39774931
0.40275233
0.4079193
0.41321835
0.41856234
0.42405022
0.42944431
0.43494831
0.44038019
0.44578912
0.45114765
0.45630003
0.46146894
0.46641068
0.47124804
0.47581721
0.48029092
0.48452591
0.48847308
0.49242718
0.49593962
0.49929207
0.50273702
0.50559514
0.50821034
0.51107638
0.51367358
0.51577366
0.51769891
0.51963945
0.52154112
0.52327146
0.52479824
0.52618681
0.52743881
0.52854974
0.52958474
0.53056695
0.53145283
0.53227052
0.53305068
0.53375581
0.53437045
0.53492536
0.5354566
0.53596063
0.53640296
0.53679455
0.53716475
0.53751601
0.5378876
0.53825352
0.5383301
0.5372897
0.53010837
0.51601858
0.50367732
0.49239282
0.48165673
0.47136373
0.46146807
0.45194077
0.44275659
0.43389
0.42531435
0.41700164
0.40892395
0.40105304
0.39335996
0.38581593
0.37839244
0.37106128
0.3637948
0.35656485
0.34934265
0.34209845
0.3347994
0.32741097
0.31989356
0.31220016
0.30427865
0.29606712
0.28748629
0.27843583
0.26878771
0.25837446
0.24697393
0.23428225
0.21986569
0.20311253
0.18320003
0.1591841
0.13068231
0.09925641
0.068026048
0.039002653
0.012540356
0.29912217
0.29956278
0.300308
0.2993883
0.30050914
0.29976966
0.3010111
0.30183694
0.3040483
0.30597545
0.30620523
0.30291899
0.29881966
0.30116117
0.30519475
0.305901
0.30412596
0.30638817
0.3079099
0.30736038
0.30924225
0.31022766
0.31099212
0.31268453
0.31379088
0.3153131
0.31689064
0.31851848
0.32020507
0.3217956
0.32357994
0.32565781
0.32789848
0.3302818
0.33273148
0.33536131
0.33778953
0.34034943
0.34312848
0.34605504
0.3491746
0.35242937
0.35573349
0.35921975
0.36277053
0.36662921
0.37043478
0.37464016
0.37879364
0.38328943
0.3878088
0.392522
0.39746723
0.40246456
0.40762981
0.41293002
0.41829449
0.42378328
0.42918793
0.43471686
0.44016492
0.44560423
0.45099374
0.45618539
0.46139377
0.46637407
0.47125552
0.47586939
0.48039781
0.48469125
0.48868387
0.49268181
0.49623827
0.49964505
0.50314184
0.50604649
0.50871273
0.51162481
0.51425477
0.51640427
0.51837033
0.52034854
0.52228558
0.52406
0.52563467
0.52706678
0.52838119
0.52957016
0.53071179
0.53180746
0.53276692
0.53359945
0.5343969
0.53515198
0.53580361
0.53639262
0.53696782
0.53750368
0.53797829
0.53840445
0.5388078
0.53917975
0.53945035
0.53970378
0.54000343
0.53955374
0.53386762
0.52018443
0.50762147
0.49626299
0.48547527
0.47513371
0.46519027
0.45561691
0.44638981
0.43748544
0.42887808
0.42053951
0.41244153
0.40455525
0.39685064
0.38929769
0.38186657
0.3745276
0.36725166
0.36000924
0.35277034
0.34550411
0.33817681
0.33075318
0.32319312
0.31544924
0.30746924