/*--------------------------------*- C++ -*----------------------------------*\
| =========                 |                                                 |
| \\      /  F ield         | OpenFOAM: The Open Source CFD Toolbox           |
|  \\    /   O peration     | Version:  2506                                  |
|   \\  /    A nd           | Website:  www.openfoam.com                      |
|    \\/     M anipulation  |                                                 |
\*---------------------------------------------------------------------------*/
FoamFile
{
    version     2.0;
    format      ascii;
    arch        "LSB;label=32;scalar=64";
    class       volVectorField;
    location    "0.026";
    object      wallShearStress;
}
// * * * * * * * * * * * * * * * * * * * * * * * * * * * * * * * * * * * * * //

dimensions      [1 -1 -2 0 0 0 0];

internalField   uniform (0 0 0);

boundaryField
{
    Side
    {
        type            empty;
    }
    Inlet
    {
        type            calculated;
        value           uniform (0 0 0);
    }
    Airfoil
    {
        type            calculated;
        value           nonuniform List<vector> 
95
(
(-7.2859056 0.51401099 8.2440425e-17)
(-7.3313684 0.5127111 8.2539023e-17)
(-7.3807977 0.51151788 -8.264203e-17)
(-7.424876 0.5097535 1.6548855e-16)
(-7.4818976 0.50860098 8.2851284e-17)
(-7.5474535 0.50785004 -1.582493e-22)
(-7.5853014 0.505124 -8.3076849e-17)
(-7.6215338 0.50199116 8.3188792e-17)
(-7.6894393 0.50059548 8.3306853e-17)
(-7.7580785 0.49908452 1.6686464e-16)
(-7.7928096 0.49550171 3.7615819e-37)
(-7.8221954 0.49225844 1.1116892e-33)
(-7.8805105 0.4905869 3.1973474e-22)
(-7.9471055 0.48930162 -8.396042e-17)
(-7.9880915 0.48640686 -1.6820337e-16)
(-8.0217401 0.48276204 1.6848262e-16)
(-8.0776329 0.48005712 8.1080898e-34)
(-8.1439591 0.47782002 8.4536775e-17)
(-8.190639 0.47435458 4.7807825e-33)
(-8.2284555 0.47004975 -1.7336102e-38)
(-8.2819422 0.4662734 -3.2423085e-22)
(-8.3430725 0.46274552 8.5161204e-17)
(-8.3854253 0.45806227 3.2550557e-22)
(-8.4191656 0.45345297 3.2538074e-22)
(-8.468886 0.4498887 -3.2680423e-22)
(-8.522089 0.44637215 -8.5844519e-17)
(-8.5613823 0.44198055 -8.6022654e-17)
(-8.6030646 0.43738686 -8.6203463e-17)
(-8.6578045 0.43319379 -8.6390207e-17)
(-8.7055928 0.42848609 3.7797126e-26)
(-8.7459408 0.42312794 3.3101425e-22)
(-8.7987484 0.41807876 -2.9385924e-38)
(-8.8491581 0.41274029 -6.8470183e-25)
(-8.8882083 0.40656351 -8.7359538e-17)
(-8.9401991 0.40064152 -3.3362133e-26)
(-8.991058 0.39466032 -4.3887475e-17)
(-9.0237151 0.38874718 -4.3992558e-17)
(-9.0694264 0.3832133 -3.6991829e-26)
(-9.1259141 0.37799184 -4.4213998e-17)
(-9.169575 0.37202987 6.763457e-22)
(-9.2095039 0.36560272 -4.9009429e-26)
(-9.2667417 0.35954297 -3.3993919e-22)
(-9.3217975 0.353161 -2.2327505e-39)
(-9.3634249 0.34603866 3.4169557e-22)
(-9.4147487 0.3389163 3.3092728e-25)
(-9.4736906 0.33181027 -4.5035232e-17)
(-9.520034 0.32398541 3.4455609e-22)
(-9.5625792 0.31568045 4.5284376e-17)
(-9.616361 0.30775889 -9.4039548e-37)
(-9.6622088 0.30048412 -4.5547105e-17)
(-9.7000383 0.29277112 -4.5681214e-17)
(-9.7491745 0.28508751 -1.880791e-37)
(-9.8017966 0.27728204 -3.5060137e-22)
(-9.8447651 0.26895935 -9.2193765e-17)
(-9.891726 0.2603961 4.6239255e-17)
(-9.9493708 0.25181793 -2.3191997e-17)
(-9.9971531 0.24269391 -7.1001234e-22)
(-10.041326 0.23317818 -2.3339314e-17)
(-10.095222 0.22354081 -4.6832501e-17)
(-10.145456 0.21355316 2.8211864e-37)
(-10.18916 0.20306026 -1.9633872e-25)
(-10.23362 0.19246497 2.5860876e-37)
(-10.279679 0.18276879 -2.3732358e-17)
(-10.315714 0.17278216 3.6339611e-22)
(-10.358854 0.16263886 -2.389745e-17)
(-10.40552 0.15230091 2.3983106e-17)
(-10.445657 0.14162116 -1.2034927e-17)
(-10.486448 0.1306588 2.4156328e-17)
(-10.53417 0.11951288 3.6993646e-22)
(-10.577672 0.10805832 1.2167353e-17)
(-10.61871 0.096269138 -1.1858387e-34)
(-10.673608 0.084271561 -1.2259764e-17)
(-10.721735 0.071939193 6.1713453e-38)
(-10.769984 0.059245387 -3.7700937e-22)
(-10.822732 0.046276759 3.7853196e-22)
(-10.873627 0.033902614 -2.5119747e-26)
(-10.921046 0.021628297 3.8153553e-22)
(-10.976209 0.0090681798 -7.8462419e-19)
(-11.030987 -0.0037685157 -4.5355071e-26)
(-11.083103 -0.016922581 -3.8632298e-22)
(-11.142095 -0.030410038 2.762128e-26)
(-11.198781 -0.044207847 6.3824587e-18)
(-11.2551 -0.058356429 3.9127647e-22)
(-11.314779 -0.072862529 3.9298793e-22)
(-11.371945 -0.087707595 -3.947027e-22)
(-11.431719 -0.10295305 1.2990315e-17)
(-11.493011 -0.11857712 -2.1158898e-37)
(-11.550835 -0.13456702 -1.3107312e-17)
(-11.611257 -0.15076296 -4.0187551e-22)
(-11.668602 -0.16632825 -4.0370257e-22)
(-11.724857 -0.1821056 8.1125352e-22)
(-11.788297 -0.19829855 -1.3355223e-17)
(-11.847336 -0.21472901 -4.0972306e-22)
(-11.908662 -0.23155448 2.6968367e-17)
(-11.972935 -0.24875223 -9.4039548e-38)
)
;
    }
    Outlet
    {
        type            calculated;
        value           nonuniform List<vector> 0();
    }
    procBoundary10to3
    {
        type            processor;
        value           uniform (0 0 0);
    }
    procBoundary10to9
    {
        type            processor;
        value           uniform (0 0 0);
    }
    procBoundary10to11
    {
        type            processor;
        value           uniform (0 0 0);
    }
}


// ************************************************************************* //
