/*--------------------------------*- C++ -*----------------------------------*\
| =========                 |                                                 |
| \\      /  F ield         | OpenFOAM: The Open Source CFD Toolbox           |
|  \\    /   O peration     | Version:  2506                                  |
|   \\  /    A nd           | Website:  www.openfoam.com                      |
|    \\/     M anipulation  |                                                 |
\*---------------------------------------------------------------------------*/
FoamFile
{
    version     2.0;
    format      ascii;
    arch        "LSB;label=32;scalar=64";
    class       volSymmTensorField;
    location    "0.00049";
    object      R;
}
// * * * * * * * * * * * * * * * * * * * * * * * * * * * * * * * * * * * * * //

dimensions      [0 2 -2 0 0 0 0];

internalField   nonuniform List<symmTensor> 
3433
(
(0.013601043 8.0475737e-06 5.042684e-20 0.01360242 1.2784934e-20 0.013604119)
(0.013608815 -9.6540264e-06 -8.9908342e-20 0.013602954 -2.2529793e-20 0.013596828)
(0.013609037 -1.5036001e-05 4.6160346e-26 0.013606275 -6.5647069e-24 0.013595303)
(0.013603544 -5.7971143e-06 7.8186431e-20 0.013605018 1.5187381e-20 0.013596694)
(0.013603348 3.9247283e-06 7.0053212e-20 0.013603716 1.2839699e-20 0.013602032)
(0.013605728 9.3841603e-06 2.1335581e-21 0.013603788 2.6247731e-22 0.013607557)
(0.013603413 1.0270735e-05 3.3213492e-19 0.013600477 7.035372e-20 0.013606277)
(0.013603556 7.9001422e-06 -9.8784401e-20 0.013601042 -2.2978406e-20 0.013606029)
(0.013603739 -1.184943e-07 1.9101669e-19 0.013603935 5.1075619e-20 0.013603718)
(0.013603789 2.6409559e-08 -4.1518311e-23 0.013603686 -7.9406054e-24 0.013603703)
(0.013605328 -3.5959313e-08 1.4891788e-19 0.013605418 3.9821187e-20 0.013605318)
(0.013890883 -8.0922839e-09 2.6316425e-19 0.013890949 6.8359444e-20 0.013890945)
(0.013581246 2.8191579e-05 3.4900785e-20 0.013575501 6.8275104e-21 0.013579638)
(0.013567348 2.4813884e-05 -3.2122788e-23 0.013562931 1.6895925e-23 0.01356663)
(0.01355589 2.2520184e-05 6.320487e-22 0.013552344 1.0877789e-22 0.013555627)
(0.013570458 1.9352311e-05 -5.9470872e-22 0.013568179 -1.2958548e-22 0.013570048)
(0.013592992 1.5442569e-05 4.6622474e-20 0.013590015 1.0281444e-20 0.013591591)
(0.013601306 1.549758e-05 -4.2947481e-22 0.013597293 -4.8931858e-23 0.01360023)
(0.013600624 1.3029691e-05 -3.8070078e-22 0.013600685 -9.468978e-23 0.013601736)
(0.013602639 5.4010531e-06 6.7231051e-20 0.013600362 1.5923958e-20 0.013598184)
(0.01360378 5.399692e-06 -1.7964841e-24 0.013599813 2.7628377e-23 0.013599886)
(0.013600642 1.4535712e-05 5.5470114e-22 0.013601083 1.1170841e-22 0.013604928)
(0.013601467 7.6991045e-06 -5.0574053e-20 0.013602781 -1.285121e-20 0.01360428)
(0.013609131 -1.0009325e-05 9.1102497e-20 0.013603146 2.2755838e-20 0.013596852)
(0.013609364 -1.4919323e-05 -1.886292e-24 0.013606649 2.5924172e-23 0.013595701)
(0.013603583 -5.5664827e-06 1.3428323e-21 0.013605056 2.2503251e-22 0.013596859)
(0.01360344 4.072103e-06 -5.7148402e-22 0.013603804 -1.2428854e-22 0.013602211)
(0.013606015 9.4448373e-06 1.2528823e-19 0.013604106 2.4029253e-20 0.013607907)
(0.013603373 1.0276832e-05 -1.1476088e-19 0.013600483 -2.4065032e-20 0.013606269)
(0.01360354 7.8804242e-06 -9.5583048e-20 0.013601071 -2.2625357e-20 0.013606026)
(0.013603638 4.669349e-06 8.7755809e-20 0.01360212 2.2032118e-20 0.01360521)
(0.013603666 2.2166307e-06 -3.1023101e-19 0.013602937 -8.1024281e-20 0.013604449)
(0.013603665 -5.488445e-08 7.752618e-22 0.013603773 1.3062841e-22 0.013603659)
(0.013603705 -1.1336029e-08 4.9214964e-23 0.013603699 2.8512348e-23 0.013603683)
(0.013603738 -1.1900664e-07 -1.9334765e-19 0.013603933 -5.1467266e-20 0.013603716)
(0.013603761 1.3194126e-08 -1.6775959e-19 0.013603702 -4.3995663e-20 0.01360372)
(0.013605327 -3.6001049e-08 -8.2570373e-22 0.013605419 -1.3741852e-22 0.013605319)
(0.013890425 -3.6789065e-09 -2.6721065e-19 0.013890464 -6.9035877e-20 0.013890459)
(0.013150987 6.8171329e-05 1.2825612e-20 0.013073337 9.086415e-22 0.013107453)
(0.013160257 6.8428907e-05 1.1474076e-23 0.013088879 8.3648475e-24 0.0131199)
(0.013167591 6.9978096e-05 1.0866345e-20 0.013101553 8.7283868e-22 0.013130045)
(0.013149885 7.0749946e-05 9.6631399e-21 0.013087854 9.4610764e-22 0.013114638)
(0.013573384 3.4101083e-05 -4.3215821e-20 0.013560832 -7.9699013e-21 0.013566308)
(0.013583818 3.1668862e-05 4.2746845e-22 0.013575233 6.5447321e-23 0.013579867)
(0.013580829 2.8302366e-05 -3.5019492e-20 0.013575579 -6.9306029e-21 0.013579565)
(0.013566603 2.4847447e-05 -2.9579335e-23 0.013562441 -2.9778723e-23 0.013566026)
(0.013555609 2.251919e-05 2.7524131e-23 0.013552229 5.6735571e-24 0.013555415)
(0.013571675 1.930909e-05 5.7939782e-22 0.013569534 1.2664107e-22 0.01357129)
(0.01359364 1.5417167e-05 -4.6776185e-20 0.013590694 -1.0333445e-20 0.013592212)
(0.013601565 1.5575034e-05 -4.183739e-20 0.013597692 -9.5392475e-21 0.013600588)
(0.013600395 1.2901266e-05 -3.7417387e-23 0.013600648 1.9756155e-24 0.013601583)
(0.01360252 5.2695588e-06 -6.8767079e-20 0.013600195 -1.6193525e-20 0.013597935)
(0.013603762 5.6435576e-06 3.0415451e-24 0.013599805 -4.900874e-23 0.013599953)
(0.013600574 1.4667381e-05 5.5869063e-20 0.013601265 1.3442791e-20 0.01360512)
(0.01360184 7.3434068e-06 9.4711846e-22 0.013603087 1.9342618e-22 0.013604382)
(0.013609415 -1.0356985e-05 -9.1366163e-20 0.013603312 -2.2751788e-20 0.013596854)
(0.013609889 -1.4795428e-05 -3.6983409e-23 0.013607222 -5.6028307e-23 0.013596303)
(0.01360358 -5.3373418e-06 7.7249092e-20 0.013605054 1.5006138e-20 0.013596982)
(0.013603629 4.2171003e-06 -1.2323482e-21 0.013603991 -1.9004861e-22 0.013602486)
(0.013606473 9.5043926e-06 -1.082985e-21 0.013604597 -1.5905729e-22 0.013608429)
(0.013603335 1.0282023e-05 -1.1205879e-19 0.01360049 -2.3782648e-20 0.013606264)
(0.013603524 7.8603464e-06 1.9658214e-19 0.013601098 4.6120077e-20 0.013606023)
(0.013603628 4.6466868e-06 -7.7534061e-22 0.013602142 -1.5280229e-22 0.013605203)
(0.013603659 2.2013357e-06 3.1079666e-19 0.013602947 8.1213655e-20 0.013604441)
(0.013603668 8.5163258e-07 -6.5952573e-24 0.013603398 4.8400108e-23 0.013603988)
(0.013603682 2.6467069e-07 2.4670259e-24 0.013603596 -1.4928314e-23 0.013603784)
(0.013603688 5.7764495e-08 1.12253e-19 0.013603664 2.9923312e-20 0.013603709)
(0.013603686 5.8995582e-09 -1.9716973e-19 0.013603685 -5.2806525e-20 0.013603688)
(0.013603684 -4.2240049e-09 -2.4931733e-21 0.01360369 -4.4475192e-22 0.013603683)
(0.013603678 -1.2354499e-08 -4.1045092e-23 0.013603705 3.1853524e-24 0.013603675)
(0.013603688 -1.2440704e-08 -1.3739312e-19 0.013603697 -3.6840455e-20 0.013603681)
(0.013603663 -5.5071966e-08 7.8038043e-22 0.013603771 1.1991586e-22 0.013603656)
(0.013603705 -1.0913607e-08 -3.6592112e-24 0.013603699 1.4431123e-23 0.013603683)
(0.013603735 -1.1996068e-07 -1.901019e-19 0.013603933 -5.0953048e-20 0.013603716)
(0.013603741 2.463359e-09 1.6876953e-19 0.013603724 4.4145123e-20 0.013603743)
(0.013605326 -3.5792581e-08 -6.3994194e-24 0.013605419 2.5893063e-23 0.013605319)
(0.01389121 6.8854787e-09 -2.6191374e-19 0.013891221 -6.8145581e-20 0.013891216)
(0.013147216 7.1979173e-05 -7.7062087e-21 0.013071982 -4.9069058e-22 0.013104223)
(0.013150403 7.0188472e-05 -7.942751e-23 0.013071704 1.2852974e-24 0.013105911)
(0.013157616 6.9043904e-05 -1.2891427e-20 0.013080267 -9.4609962e-22 0.013114125)
(0.013170965 7.0088432e-05 -9.7049335e-26 0.013098329 -3.432083e-23 0.01312992)
(0.013172103 7.1962307e-05 -1.4332964e-22 0.013105144 2.2884981e-24 0.013133992)
(0.013148421 7.1734241e-05 -9.9769585e-21 0.013086225 -9.3317742e-22 0.013112896)
(0.013116543 6.9781569e-05 1.8215908e-20 0.013058806 1.6884162e-21 0.01308373)
(0.013109857 6.7599836e-05 1.6476376e-20 0.013056642 1.7007952e-21 0.013079857)
(0.013114508 6.5752554e-05 1.5068202e-20 0.013066379 1.6768383e-21 0.013087543)
(0.01312405 6.4291832e-05 2.2160961e-22 0.01308147 6.6757237e-23 0.013100326)
(0.013177044 6.263084e-05 -1.2389366e-20 0.013138877 -1.5129461e-21 0.013156174)
(0.01322474 6.0281045e-05 -2.2203506e-23 0.013191049 -2.1235184e-23 0.013206813)
(0.013203744 5.7381831e-05 -3.2482684e-28 0.013174853 1.7108727e-26 0.01318887)
(0.013173133 5.3980675e-05 -2.2158071e-22 0.013147856 -3.6876167e-23 0.013160435)
(0.013199814 5.0673194e-05 3.4014141e-23 0.013177896 4.9546119e-24 0.013188718)
(0.013314034 4.7516201e-05 -2.6172244e-25 0.013294783 -2.973454e-23 0.013303732)
(0.013423623 4.3912013e-05 2.8606497e-20 0.01340557 4.7165839e-21 0.013413267)
(0.013506632 4.0079237e-05 -5.9700489e-22 0.013488977 -7.4072363e-23 0.013496209)
(0.013549824 3.68171e-05 7.9393362e-22 0.013534137 1.1500404e-22 0.013540626)
(0.013573549 3.4337119e-05 3.8882098e-22 0.013561646 6.5502852e-23 0.013566986)
(0.013583598 3.1873533e-05 1.3055379e-25 0.013575762 -2.5844274e-23 0.013580243)
(0.013580446 2.8408495e-05 3.5493208e-20 0.013575639 7.0144237e-21 0.013579471)
(0.013565857 2.4882414e-05 3.2407629e-22 0.013561888 7.8800848e-23 0.01356536)
(0.013555398 2.2516895e-05 -5.8762131e-22 0.013552176 -1.3086166e-22 0.013555263)
(0.013572904 1.9265415e-05 5.0833883e-20 0.013570895 1.1098578e-20 0.013572536)
(0.0135944 1.5403529e-05 4.7308432e-20 0.013591473 1.0455184e-20 0.013592931)
(0.013601701 1.5652428e-05 4.2784267e-20 0.013597984 9.7046128e-21 0.013600836)
(0.01360008 1.2766272e-05 3.8252787e-23 0.013600533 -2.0252933e-24 0.013601351)
(0.013602447 5.133559e-06 6.9733055e-20 0.013600074 1.6390936e-20 0.013597737)
(0.013603771 5.8969404e-06 -3.3941226e-23 0.013599825 4.1849973e-23 0.013600048)
(0.013600594 1.4789164e-05 -5.6999405e-20 0.013601529 -1.3653073e-20 0.013605389)
(0.013602166 6.9795022e-06 4.9744332e-20 0.013603337 1.2658323e-20 0.013604424)
(0.013609684 -1.0696535e-05 9.2446279e-20 0.013603465 2.2967564e-20 0.013596847)
(0.013610655 -1.4664179e-05 3.735874e-23 0.013608037 5.7306646e-23 0.013597149)
(0.013603566 -5.1095288e-06 -7.8092254e-20 0.013605042 -1.511715e-20 0.013597095)
(0.013603886 4.3602458e-06 -1.3859939e-19 0.013604247 -2.5568515e-20 0.013602829)
(0.013607185 9.5629367e-06 1.0589801e-21 0.013605342 1.9612735e-22 0.013609203)
(0.013603293 1.0286439e-05 -2.1977927e-19 0.013600494 -4.6908425e-20 0.013606254)
(0.013603508 7.8397859e-06 -9.9362379e-20 0.013601126 -2.3324473e-20 0.013606019)
(0.013603621 4.6238329e-06 3.7708434e-23 0.013602166 4.6841837e-23 0.013605199)
(0.013603653 2.1860229e-06 -3.1140956e-19 0.013602959 -8.1400109e-20 0.013604435)
(0.013603666 8.4390155e-07 1.2040197e-21 0.013603404 1.6163313e-22 0.013603985)
(0.01360368 2.6150129e-07 9.8167009e-22 0.013603596 1.5164964e-22 0.013603781)
(0.013603687 5.6762682e-08 1.0996572e-19 0.013603664 2.9534531e-20 0.013603708)
(0.013603687 5.6531808e-09 1.3997148e-21 0.013603686 2.6716568e-22 0.013603688)
(0.013603685 -4.2390692e-09 -1.7571878e-19 0.01360369 -4.7068506e-20 0.013603684)
(0.013603678 -1.2414162e-08 4.4847276e-23 0.013603705 -2.12155e-23 0.013603675)
(0.013603689 -1.237964e-08 1.3934812e-19 0.013603698 3.7172872e-20 0.013603681)
(0.013603662 -5.5307296e-08 1.2260675e-19 0.013603771 3.2819618e-20 0.013603656)
(0.013603705 -1.1228853e-08 -1.8478956e-24 0.013603699 9.8646179e-24 0.013603683)
(0.013603731 -1.2072668e-07 2.2277324e-21 0.013603934 3.9085065e-22 0.013603717)
(0.013603742 -5.2804919e-10 -1.6883484e-19 0.013603741 -4.4175557e-20 0.01360376)
(0.013605323 -3.6823714e-08 6.7930759e-24 0.013605421 -2.5852907e-23 0.013605321)
(0.0138907 1.1941679e-08 2.659576e-19 0.013890701 6.8833489e-20 0.013890695)
(0.013636595 8.0888192e-05 -3.5361747e-26 0.013540154 -6.0355195e-27 0.013584281)
(0.01383639 8.1794857e-05 -3.3009848e-26 0.013739751 -1.0112544e-26 0.013783387)
(0.014071825 8.379849e-05 1.0201707e-24 0.013973524 7.1417251e-26 0.014018098)
(0.01406764 8.2950489e-05 -9.2738331e-25 0.013970272 -2.6844221e-23 0.01401426)
(0.013928201 8.0682748e-05 5.7706163e-21 0.013833247 2.8079005e-22 0.013875508)
(0.013654508 7.7268562e-05 7.6809245e-26 0.013564687 6.1655277e-23 0.013604061)
(0.013373065 7.5912742e-05 -9.1526634e-21 0.013286163 -4.9812495e-22 0.013324246)
(0.01319486 7.1169186e-05 6.2029186e-23 0.013111394 -2.1324744e-23 0.013147938)
(0.013148813 7.3383555e-05 1.4601547e-22 0.013074244 3.4616646e-23 0.01310624)
(0.013156802 7.122113e-05 -7.0304518e-21 0.013080776 -5.2100681e-22 0.013113541)
(0.013167211 7.1159041e-05 1.3104629e-20 0.0130905 9.5304597e-22 0.013124032)
(0.013175247 7.2291435e-05 -3.8597785e-25 0.013101796 3.479103e-23 0.013133863)
(0.013170762 7.2997183e-05 -2.0813796e-23 0.013103007 -1.8461653e-24 0.013132164)
(0.013147592 7.2217298e-05 1.1213619e-22 0.013085359 5.6370908e-23 0.013111876)
(0.013118449 7.0346052e-05 -1.8280392e-20 0.013060967 -1.802214e-21 0.013085569)
(0.013112132 6.8583315e-05 -4.5249829e-22 0.013059476 -8.9991544e-23 0.013082302)
(0.013117861 6.7117891e-05 -3.0159943e-22 0.013070498 -5.2669441e-23 0.013091274)
(0.013128347 6.5602793e-05 1.3803673e-20 0.013086638 1.559649e-21 0.013105148)
(0.013179835 6.3626856e-05 2.5151583e-20 0.013142584 3.1227312e-21 0.013159553)
(0.013224783 6.1132446e-05 -2.9841177e-25 0.013191976 3.7058598e-23 0.013207383)
(0.013207786 5.8104492e-05 -4.1918339e-25 0.013179564 2.4432546e-23 0.013193231)
(0.013179634 5.4555164e-05 -1.8764069e-20 0.013154756 -2.7183169e-21 0.01316701)
(0.013209018 5.1153317e-05 3.3585898e-23 0.013187257 -1.7241686e-23 0.013197769)
(0.013333336 4.7843375e-05 -6.1431304e-23 0.013313847 -9.6681635e-24 0.013322526)
(0.013427848 4.397832e-05 -2.4417162e-22 0.013409355 1.2398617e-23 0.013416827)
(0.013507835 4.0272738e-05 -2.5608973e-20 0.013489979 -4.4407653e-21 0.013496998)
(0.013549877 3.7056763e-05 2.3981758e-20 0.013534758 4.2562704e-21 0.013541067)
(0.013573633 3.4599069e-05 -4.377645e-22 0.013562511 -5.4888256e-23 0.013567701)
(0.013583358 3.2018356e-05 -3.8267879e-23 0.01357631 -7.4987183e-24 0.013580643)
(0.013580055 2.8508945e-05 -6.8252476e-22 0.013575658 -1.3728455e-22 0.013579333)
(0.013565148 2.4912767e-05 3.1505524e-20 0.013561324 6.5281755e-21 0.013564681)
(0.013555277 2.2524249e-05 -5.7021072e-20 0.013552202 -1.2039561e-20 0.01355519)
(0.01357417 1.920978e-05 -1.0402198e-19 0.01357229 -2.2721877e-20 0.013573819)
(0.013595247 1.5396462e-05 -4.2979876e-22 0.013592327 -1.2758954e-22 0.013593729)
(0.013601716 1.5727232e-05 4.556724e-23 0.013598169 1.0569427e-23 0.013600977)
(0.013599701 1.2621382e-05 3.5403616e-22 0.013600361 5.8167785e-23 0.01360106)
(0.013602416 4.9969942e-06 -1.3844764e-21 0.013599986 -2.2749257e-22 0.013597576)
(0.013603778 6.160983e-06 6.1542055e-25 0.013599842 8.0897133e-26 0.013600143)
(0.01360071 1.4901078e-05 6.113345e-22 0.013601891 1.2638535e-22 0.013605751)
(0.013602464 6.6077443e-06 -5.0511124e-20 0.013603547 -1.2884819e-20 0.013604424)
(0.013609959 -1.1027076e-05 -8.4377223e-22 0.013603626 -1.5643895e-22 0.013596852)
(0.013611825 -1.4524802e-05 4.3182615e-23 0.013609256 -1.1982032e-23 0.013598404)
(0.013603532 -4.8843783e-06 7.8299189e-20 0.01360501 1.5092484e-20 0.013597186)
(0.013604155 4.5004009e-06 2.8287497e-19 0.01360452 5.208538e-20 0.013603188)
(0.013608293 9.6205807e-06 1.2394859e-19 0.013606485 2.3972977e-20 0.013610375)
(0.013603248 1.0289972e-05 2.2405631e-19 0.013600495 4.7680382e-20 0.013606241)
(0.013603492 7.8187766e-06 9.8694358e-20 0.013601154 2.3278823e-20 0.013606016)
(0.013603608 4.6008379e-06 -7.4042438e-22 0.013602184 -1.6319227e-22 0.013605189)
(0.01360365 2.170654e-06 3.1187893e-19 0.013602974 8.1526164e-20 0.013604432)
(0.013603664 8.3619988e-07 1.3920617e-19 0.013603409 3.7035548e-20 0.013603982)
(0.013603679 2.5841101e-07 1.2333541e-19 0.013603598 3.3095176e-20 0.01360378)
(0.013603688 5.5778544e-08 -1.6973342e-21 0.013603665 -2.7209652e-22 0.013603708)
(0.013603685 5.4662692e-09 4.8638048e-23 0.013603684 1.2975012e-23 0.013603687)
(0.013603685 -4.2643749e-09 -4.6950789e-23 0.01360369 -1.2897507e-23 0.013603683)
(0.013603679 -1.2518953e-08 3.7891532e-23 0.013603706 1.016969e-23 0.013603677)
(0.013603688 -1.224952e-08 -9.8238442e-22 0.013603696 -1.7371089e-22 0.01360368)
(0.013603662 -5.5424492e-08 -1.5282517e-21 0.013603771 -2.575085e-22 0.013603656)
(0.013603704 -1.1417177e-08 5.6644064e-23 0.013603699 -3.2873683e-25 0.013603683)
(0.013603729 -1.2139862e-07 1.9030628e-19 0.013603935 5.0980781e-20 0.013603718)
(0.013603745 4.6645507e-10 1.6975738e-19 0.013603737 4.4344948e-20 0.013603757)
(0.01360532 -3.9967388e-08 3.3619824e-23 0.013605429 2.0081748e-23 0.013605329)
(0.013890697 1.1597236e-08 -1.3373474e-21 0.013890696 -2.274963e-22 0.01389069)
(0.013631326 8.0924322e-05 -4.0186768e-23 0.013534827 -6.3480813e-24 0.013578536)
(0.013828565 8.2438665e-05 -3.729871e-24 0.013731733 -3.1346762e-25 0.013775491)
(0.014061699 8.4968434e-05 2.0160036e-23 0.013964052 9.2162083e-25 0.014008247)
(0.014057581 8.2851398e-05 -1.2354653e-23 0.013960972 -5.5616528e-25 0.014004031)
(0.013920236 8.1103226e-05 2.3056415e-23 0.013825371 -2.1187173e-23 0.013867125)
(0.013650098 7.7846343e-05 5.1090107e-21 0.013560097 1.9627476e-22 0.013599629)
(0.013371831 7.693501e-05 1.8755084e-20 0.013287171 1.0641266e-21 0.013324177)
(0.01319759 7.2321839e-05 8.5088857e-21 0.013114678 5.7147555e-22 0.013151173)
(0.013158266 7.5290526e-05 7.8144772e-21 0.013083742 5.2365888e-22 0.013116037)
(0.01316472 7.3531093e-05 7.2205561e-21 0.013091618 5.3394242e-22 0.013123078)
(0.013169699 7.4024349e-05 -9.5812942e-23 0.01309454 2.0198475e-24 0.013127416)
(0.013172165 7.3812327e-05 -2.3429765e-23 0.013099031 -1.7617175e-24 0.013131122)
(0.013169122 7.3366063e-05 -1.0350056e-22 0.013101165 -1.7782277e-23 0.013130469)
(0.013148647 7.2330476e-05 5.5763068e-25 0.013086462 1.1513405e-26 0.013112963)
(0.013120932 7.1051418e-05 5.2956374e-22 0.013063796 1.2935045e-22 0.013088176)
(0.013114487 6.9954987e-05 -3.3299412e-20 0.013062433 -3.4659597e-21 0.013084957)
(0.013120837 6.8580686e-05 -1.5172158e-20 0.013074345 -1.7404889e-21 0.013094764)
(0.013132079 6.6684381e-05 -1.3242502e-22 0.013091327 -2.8280708e-23 0.01310949)
(0.013182368 6.4522855e-05 -1.2885386e-20 0.013146072 -1.6088515e-21 0.013162707)
(0.013224764 6.1881526e-05 7.2111501e-25 0.013192735 -1.8523345e-23 0.013207809)
(0.013211153 5.8710664e-05 4.8507959e-26 0.013183439 -2.4596556e-23 0.013196786)
(0.013185464 5.5015418e-05 1.9212596e-20 0.013160771 2.7929011e-21 0.013172727)
(0.013227442 5.1509148e-05 -1.7326248e-22 0.013205461 -7.0492618e-24 0.0132157)
(0.013325329 4.8078252e-05 9.174203e-25 0.013305479 2.1432014e-25 0.013313856)
(0.013430168 4.4148004e-05 -4.0352441e-23 0.013411414 -2.8919795e-23 0.013418619)
(0.013509038 4.0489479e-05 5.2791412e-20 0.013491299 9.1099803e-21 0.013498105)
(0.01354984 3.7285888e-05 2.360073e-20 0.01353543 4.3405436e-21 0.013541574)
(0.013573692 3.4857612e-05 -4.2798424e-20 0.013563435 -7.9902567e-21 0.013568476)
(0.013583095 3.2129838e-05 -3.7444044e-23 0.013576884 -1.4924646e-23 0.01358107)
(0.013579656 2.8577797e-05 -3.5345057e-20 0.013575634 -7.0526073e-21 0.013579154)
(0.013564426 2.4939727e-05 -3.2324425e-20 0.013560722 -6.6979286e-21 0.013563963)
(0.013555234 2.2531622e-05 5.9043271e-20 0.013552317 1.2425801e-20 0.013555202)
(0.013575562 1.914942e-05 5.3737153e-20 0.013573811 1.169255e-20 0.013575228)
(0.013596057 1.5399989e-05 -7.1122162e-25 0.013593138 6.3474992e-24 0.013594483)
(0.013601631 1.5803673e-05 4.2227052e-20 0.013598263 9.6417305e-21 0.013601026)
(0.013599306 1.24657e-05 3.7959629e-20 0.013600174 9.0410327e-21 0.013600754)
(0.013602427 4.8580798e-06 -6.9427723e-20 0.013599931 -1.6355285e-20 0.013597454)
(0.013603778 6.4397755e-06 3.2335836e-23 0.013599856 -2.06919e-23 0.013600234)
(0.013600875 1.500249e-05 -6.491795e-22 0.013602302 -1.3537457e-22 0.013606157)
(0.013602748 6.2277815e-06 5.0600344e-20 0.013603731 1.2907557e-20 0.013604395)
(0.013610282 -1.1348185e-05 4.4180612e-23 0.013603839 2.7013147e-23 0.013596914)
(0.013622516 -1.4380191e-05 -4.3271276e-23 0.013619992 1.0977093e-23 0.013609164)
(0.013603444 -4.6550597e-06 -7.9267798e-20 0.013604924 -1.5299322e-20 0.013597226)
(0.01360441 4.6388725e-06 -1.4425997e-19 0.013604781 -2.6505719e-20 0.013603533)
(0.013618041 9.6764384e-06 -2.5494568e-19 0.013616265 -4.9178412e-20 0.013620188)
(0.013603197 1.029251e-05 -1.1269985e-19 0.01360049 -2.4072337e-20 0.013606221)
(0.013603476 7.7973357e-06 -9.9752947e-20 0.013601182 -2.3434507e-20 0.013606012)
(0.013603597 4.5776731e-06 -8.6204281e-20 0.013602204 -2.1824967e-20 0.013605181)
(0.013603642 2.1552556e-06 -3.1503236e-19 0.013602982 -8.2179479e-20 0.013604424)
(0.013603663 8.2852729e-07 -1.1282925e-21 0.013603415 -2.1926882e-22 0.01360398)
(0.013603678 2.5531075e-07 -1.2549701e-19 0.013603599 -3.3446871e-20 0.013603778)
(0.013603686 5.4845764e-08 -1.1109518e-19 0.013603664 -2.9771576e-20 0.013603707)
(0.013603685 5.3482111e-09 7.3169686e-22 0.013603684 1.3216997e-22 0.013603686)
(0.013603685 -4.2985578e-09 -1.7487236e-19 0.01360369 -4.6963376e-20 0.013603683)
(0.013603678 -1.2562006e-08 3.256097e-24 0.013603705 -1.8159497e-23 0.013603676)
(0.013603688 -1.2319977e-08 -9.2053064e-22 0.013603696 -1.4626554e-22 0.01360368)
(0.013603663 -5.5612245e-08 -1.220218e-19 0.013603772 -3.27254e-20 0.013603657)
(0.013603709 -1.0452835e-08 5.1507624e-23 0.0136037 1.8763102e-23 0.013603684)
(0.013603729 -1.2132021e-07 -1.9156769e-19 0.013603935 -5.1221545e-20 0.013603718)
(0.013603745 2.2539255e-09 -1.8763905e-21 0.01360373 -3.3429707e-22 0.01360375)
(0.013605322 -4.2505482e-08 2.3011072e-29 0.013605437 1.134599e-28 0.013605338)
(0.013891371 1.62969e-08 1.3366931e-21 0.013891351 2.2890675e-22 0.013891344)
(0.013832228 8.257872e-05 -2.8455142e-21 0.013726422 -8.534832e-23 0.013774951)
(0.013755691 8.1976824e-05 6.0403734e-26 0.013653243 4.8087932e-23 0.013699741)
(0.013648393 8.1367684e-05 -9.3968757e-21 0.01354879 -2.8289689e-22 0.013594005)
(0.013575846 8.0680595e-05 -4.2456136e-21 0.013478937 -1.859636e-22 0.013522836)
(0.013625128 8.0605312e-05 -3.9386516e-21 0.013528671 -1.7874252e-22 0.013572056)
(0.013820204 8.2352327e-05 -4.9250882e-23 0.013722533 -3.0069268e-23 0.013766484)
(0.014052134 8.4235481e-05 6.4638631e-26 0.013953169 -6.8180924e-26 0.013997465)
(0.014048053 8.271533e-05 1.8815576e-25 0.013951132 -2.6933673e-23 0.013993725)
(0.013913663 8.2635288e-05 5.7339466e-21 0.013819345 3.148632e-22 0.013860653)
(0.013648546 7.9023014e-05 -5.3130341e-21 0.013558444 -2.375448e-22 0.0135982)
(0.013375227 7.8233142e-05 -9.498925e-21 0.013292145 -5.8204747e-22 0.013328534)
(0.013206952 7.4671056e-05 -1.443217e-22 0.01312486 -7.4458902e-23 0.013161273)
(0.013166414 7.6956815e-05 7.6413731e-21 0.01309144 5.0097959e-22 0.013124396)
(0.01316521 7.6045049e-05 -9.4894598e-23 0.013095159 1.1056835e-23 0.013125536)
(0.013164542 7.6363977e-05 -1.2409359e-22 0.013092005 -2.1402241e-23 0.013123841)
(0.013168962 7.5001622e-05 8.8373808e-25 0.013096994 2.7662911e-23 0.013128645)
(0.013168977 7.3686732e-05 -1.0951388e-20 0.013101483 -9.6613158e-22 0.013130713)
(0.013151001 7.2863478e-05 7.9509262e-23 0.013089133 -9.6355509e-23 0.013115573)
(0.013123639 7.2414389e-05 3.6611296e-20 0.013066933 3.6666016e-21 0.013091169)
(0.013116853 7.1661319e-05 4.2493219e-22 0.013065408 1.2280825e-22 0.013087611)
(0.013123791 6.9742871e-05 1.7571689e-22 0.013078004 2.8189935e-23 0.013098055)
(0.013135486 6.7659021e-05 -1.0527101e-24 0.013095501 -1.3019962e-25 0.013113304)
(0.01318469 6.5423511e-05 2.4647465e-22 0.013149017 4.2212028e-23 0.013165306)
(0.013224629 6.2640958e-05 -1.8138546e-22 0.013193131 -3.2708274e-23 0.013207836)
(0.013214274 5.930232e-05 -4.1753686e-23 0.01318676 -5.6446834e-24 0.01319975)
(0.013191583 5.5464861e-05 -3.7736744e-22 0.01316684 -4.3860077e-23 0.013178462)
(0.013237254 5.1775029e-05 -1.7267727e-20 0.013214947 -2.6677805e-21 0.013224904)
(0.013334927 4.8124807e-05 3.0982436e-23 0.013314625 -1.442683e-23 0.013322772)
(0.013433325 4.4366751e-05 -3.3190525e-22 0.013414466 -2.8119088e-23 0.013421416)
(0.013510024 4.0770487e-05 -6.8070005e-22 0.013492825 -9.1860919e-23 0.013499401)
(0.013549727 3.7531783e-05 -8.1226808e-22 0.013536181 -1.5568394e-22 0.013542154)
(0.013573714 3.5068212e-05 4.3428786e-20 0.013564364 8.1207058e-21 0.01356926)
(0.0135828 3.2221578e-05 -7.9718976e-25 0.013577452 3.3569305e-23 0.013581484)
(0.013579258 2.8600058e-05 7.2579311e-22 0.013575581 9.7873155e-23 0.013578951)
(0.0135637 2.4968139e-05 6.6165884e-22 0.013560105 7.6438972e-23 0.013563229)
(0.013555306 2.2535459e-05 5.677005e-20 0.013552542 1.2132338e-20 0.013555324)
(0.013577089 1.9086481e-05 5.127839e-20 0.01357547 1.1337771e-20 0.013576776)
(0.013596716 1.5401752e-05 -3.1995087e-24 0.013593806 5.0078416e-23 0.013595098)
(0.013601431 1.588509e-05 -4.3235073e-20 0.013598265 -9.8218177e-21 0.013600979)
(0.013598969 1.2297085e-05 -3.8941202e-20 0.013600044 -9.1907181e-21 0.013600503)
(0.013602473 4.7133895e-06 1.4870061e-21 0.013599913 2.4247671e-22 0.013597377)
(0.013603801 6.7377016e-06 -3.287599e-23 0.013599889 1.4212004e-23 0.013600345)
(0.013601025 1.5094745e-05 -5.6949634e-20 0.013602697 -1.3762602e-20 0.01360654)
(0.013603028 5.8401368e-06 -5.0680523e-20 0.0136039 -1.2969657e-20 0.013604349)
(0.013610738 -1.1660607e-05 -8.5968008e-22 0.013604188 -1.6151662e-22 0.013597117)
(0.013606143 -1.4223989e-05 -4.1003901e-23 0.013603673 -9.582506e-24 0.013592909)
(0.013603324 -4.4323593e-06 7.0366732e-22 0.013604808 1.2051293e-22 0.013597231)
(0.013604639 4.7759994e-06 1.2412708e-21 0.013605016 2.4163953e-22 0.013603851)
(0.013602754 9.7286302e-06 1.2776122e-19 0.013601014 2.4642203e-20 0.013604957)
(0.013603124 1.0294603e-05 1.1301238e-19 0.013600462 2.4081076e-20 0.013606179)
(0.01360346 7.7756606e-06 -3.0313288e-24 0.01360121 -1.2415478e-23 0.013606008)
(0.013603586 4.554411e-06 1.7496705e-19 0.013602223 4.420293e-20 0.013605172)
(0.013603636 2.1398939e-06 5.1923335e-21 0.013602993 9.0495593e-22 0.013604417)
(0.013603661 8.2082347e-07 -1.1077908e-21 0.01360342 -1.828774e-22 0.013603977)
(0.01360368 2.5228947e-07 9.8317063e-22 0.013603603 1.6837924e-22 0.013603779)
(0.013603686 5.3857156e-08 1.6508827e-21 0.013603665 2.6524403e-22 0.013603706)
(0.013603686 5.1743468e-09 9.917504e-20 0.013603685 2.6547213e-20 0.013603688)
(0.013603685 -4.3240311e-09 1.7633496e-19 0.013603691 4.7244834e-20 0.013603684)
(0.013603678 -1.2612755e-08 -6.5434108e-24 0.013603705 3.1568551e-23 0.013603676)
(0.013603689 -1.2365743e-08 -1.3792789e-19 0.013603697 -3.6993303e-20 0.013603681)
(0.013603664 -5.5726901e-08 1.2446569e-19 0.013603772 3.3141284e-20 0.013603657)
(0.013603712 -8.9607121e-09 1.1771383e-24 0.013603698 -4.6887691e-24 0.013603682)
(0.013603726 -1.227024e-07 1.9385877e-19 0.013603938 5.1632864e-20 0.013603721)
(0.013603742 3.5619294e-09 -1.6810306e-19 0.01360372 -4.4054743e-20 0.01360374)
(0.013605339 -4.0364661e-08 4.268614e-23 0.013605445 -1.6364302e-23 0.013605346)
(0.013890885 1.9223351e-08 2.6337875e-19 0.013890854 6.8402025e-20 0.013890847)
(0.013823564 8.3352104e-05 4.8382418e-23 0.013717989 5.0607131e-24 0.01376598)
(0.013749128 8.2691457e-05 -3.1530706e-25 0.013645906 -3.5072805e-23 0.013692921)
(0.01364203 8.2247668e-05 4.7478802e-21 0.013542598 1.1060522e-22 0.013587617)
(0.01357007 8.0464434e-05 8.689602e-21 0.01347273 3.3477538e-22 0.013516604)
(0.013618924 8.0698284e-05 4.105253e-21 0.013521884 2.4476367e-22 0.013565419)
(0.01381187 8.2403386e-05 -3.761625e-21 0.013713843 -1.3691245e-22 0.013757655)
(0.014043692 8.3657034e-05 9.1662508e-23 0.013943525 -8.3893668e-24 0.013987999)
(0.01404232 8.2957568e-05 -1.0700601e-25 0.013944277 2.7405073e-23 0.013987476)
(0.013911182 8.3376703e-05 -5.8542393e-21 0.013817558 -2.8218915e-22 0.013858843)
(0.013650909 7.9977889e-05 -5.1570298e-21 0.013561465 -3.4709658e-22 0.013601221)
(0.013382639 7.8810805e-05 9.6081133e-21 0.013300717 6.1000969e-22 0.013336854)
(0.013211457 7.6620212e-05 -8.5150272e-21 0.013130706 -4.4669577e-22 0.013166867)
(0.013167088 7.7567506e-05 -1.5732804e-20 0.013091438 -1.1189595e-21 0.01312535)
(0.01315914 7.7857465e-05 3.0501821e-25 0.013091552 -1.0496327e-23 0.0131214)
(0.013160559 7.7918953e-05 -1.3144482e-20 0.013091154 -1.0324063e-21 0.013121868)
(0.013167552 7.6199405e-05 9.5028245e-23 0.013097829 -5.4739999e-23 0.013128598)
(0.013170138 7.4696284e-05 1.1222134e-20 0.013103982 1.0162458e-21 0.013132882)
(0.013153184 7.4452338e-05 -9.6762622e-23 0.013091997 8.53117e-24 0.013118377)
(0.013126403 7.3952616e-05 -5.0118238e-22 0.013070315 -9.2920064e-23 0.013094462)
(0.013119099 7.2355638e-05 1.6794048e-20 0.013068377 1.7999718e-21 0.013090372)
(0.013126683 7.0150851e-05 2.0635482e-22 0.013081724 6.3235369e-23 0.013101492)
(0.013138688 6.795376e-05 -2.4463314e-22 0.013099292 -5.6857416e-23 0.013116894)
(0.013186661 6.5758731e-05 1.2572375e-20 0.013151522 1.6352279e-21 0.013167582)
(0.013224132 6.2992532e-05 -2.3015473e-20 0.013193007 -3.0820525e-21 0.013207418)
(0.013217962 5.9660711e-05 -4.1454784e-23 0.01319058 -1.2656796e-23 0.01320326)
(0.013203816 5.5732913e-05 -1.9404589e-20 0.013178896 -2.9145812e-21 0.013190224)
(0.013266137 5.1987968e-05 1.7658089e-20 0.013243519 2.7112216e-21 0.013253201)
(0.013337642 4.8173772e-05 -6.3523226e-23 0.01331709 3.90504e-23 0.013324987)
(0.013436271 4.4583418e-05 -2.899791e-20 0.013417517 -4.842917e-21 0.013424232)
(0.013510943 4.1051002e-05 -2.6182376e-20 0.013494567 -4.550742e-21 0.013500917)
(0.013549621 3.7803165e-05 -4.7562745e-20 0.01353706 -8.6288916e-21 0.013542853)
(0.013573642 3.5227698e-05 -4.4003553e-20 0.013565251 -8.3369543e-21 0.013570008)
(0.013582479 3.2272332e-05 -4.0305701e-22 0.013577957 -1.2949056e-22 0.013581838)
(0.01357887 2.858199e-05 3.562264e-20 0.013575505 7.1345384e-21 0.013578728)
(0.013562913 2.4994616e-05 3.1885073e-20 0.013559427 6.6946836e-21 0.013562435)
(0.013555534 2.2535995e-05 -5.8842998e-20 0.01355292 -1.2479527e-20 0.0135556)
(0.013578709 1.9028686e-05 -5.3020106e-20 0.013577221 -1.1642846e-20 0.013578414)
(0.013597202 1.5402703e-05 -5.3727147e-22 0.013594315 -1.2378557e-22 0.013595556)
(0.013601147 1.5970122e-05 9.678339e-22 0.0135982 1.7133553e-22 0.013600863)
(0.013598693 1.211736e-05 7.9698705e-22 0.013599979 1.0619462e-22 0.013600316)