/*--------------------------------*- C++ -*----------------------------------*\
| =========                 |                                                 |
| \\      /  F ield         | OpenFOAM: The Open Source CFD Toolbox           |
|  \\    /   O peration     | Version:  2506                                  |
|   \\  /    A nd           | Website:  www.openfoam.com                      |
|    \\/     M anipulation  |                                                 |
\*---------------------------------------------------------------------------*/
FoamFile
{
    version     2.0;
    format      ascii;
    arch        "LSB;label=32;scalar=64";
    class       volScalarField;
    location    "0.0285";
    object      alphat;
}
// * * * * * * * * * * * * * * * * * * * * * * * * * * * * * * * * * * * * * //

dimensions      [1 -1 -1 0 0 0 0];

internalField   nonuniform List<scalar> 
13761
(
2.4928942e-06
2.4928976e-06
2.4929083e-06
2.4929215e-06
2.4929312e-06
2.492949e-06
2.4929635e-06
2.4929857e-06
2.4324447e-06
2.4930037e-06
2.4324547e-06
2.4930281e-06
2.4324662e-06
2.4930527e-06
2.4324795e-06
2.4930707e-06
2.4324947e-06
2.4930926e-06
2.432512e-06
2.4931067e-06
2.4325315e-06
2.4931244e-06
2.4325528e-06
2.4931342e-06
2.4252738e-06
2.4325754e-06
2.4931477e-06
2.4252843e-06
2.4325987e-06
2.4931597e-06
2.4252963e-06
2.4326219e-06
2.4931647e-06
2.4253099e-06
2.4326441e-06
2.4931749e-06
2.4253255e-06
2.4326647e-06
2.4931803e-06
2.4253432e-06
2.4326834e-06
2.4931933e-06
2.4253629e-06
2.4327001e-06
2.4932027e-06
2.4227594e-06
2.4253844e-06
2.4327148e-06
2.4932177e-06
2.4227775e-06
2.4254075e-06
2.4327276e-06
2.4932302e-06
2.4227967e-06
2.4254314e-06
2.4327386e-06
2.4932344e-06
2.4228173e-06
2.4254553e-06
2.4327479e-06
2.4932518e-06
2.4228396e-06
2.4254785e-06
2.4327561e-06
2.4932875e-06
2.4228637e-06
2.4255004e-06
2.432764e-06
2.4933428e-06
2.4228899e-06
2.4255206e-06
2.4327728e-06
2.4229181e-06
2.4255391e-06
2.4327836e-06
2.4147925e-06
2.422948e-06
2.4255559e-06
2.4327959e-06
2.4147991e-06
2.4229796e-06
2.425571e-06
2.4328077e-06
2.4148071e-06
2.4230119e-06
2.4255845e-06
2.4328173e-06
2.4148167e-06
2.4230444e-06
2.4255963e-06
2.4328272e-06
2.4148282e-06
2.4230762e-06
2.4256064e-06
2.4328511e-06
2.4148417e-06
2.4231067e-06
2.4256154e-06
2.4329053e-06
2.4148572e-06
2.4231355e-06
2.4256242e-06
2.432975e-06
2.4148745e-06
2.4231626e-06
2.4256341e-06
2.4171574e-06
2.4148931e-06
2.4231879e-06
2.4256455e-06
2.4171372e-06
2.4149128e-06
2.4232116e-06
2.4256579e-06
2.4171182e-06
2.4149327e-06
2.423234e-06
2.425669e-06
2.4171007e-06
2.4149521e-06
2.423255e-06
2.4256775e-06
2.4170848e-06
2.4149703e-06
2.4232746e-06
2.4256871e-06
2.4170708e-06
2.4149868e-06
2.4232933e-06
2.4257122e-06
2.4170585e-06
2.4150015e-06
2.4233118e-06
2.4257678e-06
2.4211033e-06
2.4170478e-06
2.4150144e-06
2.4233311e-06
2.4258359e-06
2.4210518e-06
2.4170388e-06
2.4150258e-06
2.4233524e-06
2.421001e-06
2.4170308e-06
2.4150359e-06
2.4233757e-06
2.420951e-06
2.4170229e-06
2.4150447e-06
2.4233999e-06
2.4209022e-06
2.4170147e-06
2.4150525e-06
2.4234224e-06
2.4208548e-06
2.4170053e-06
2.4150595e-06
2.4234422e-06
2.4208089e-06
2.4169945e-06
2.4150661e-06
2.4234642e-06
2.4389669e-06
2.4207643e-06
2.4169819e-06
2.4150734e-06
2.423503e-06
2.4389301e-06
2.4207217e-06
2.4169676e-06
2.4150824e-06
2.4235722e-06
2.4388937e-06
2.4206804e-06
2.4169518e-06
2.4150942e-06
2.4236505e-06
2.4388579e-06
2.42064e-06
2.4169347e-06
2.4151082e-06
2.4388232e-06
2.4205997e-06
2.4169165e-06
2.4151228e-06
2.4387895e-06
2.4205591e-06
2.4168972e-06
2.4151354e-06
2.4387569e-06
2.4205174e-06
2.4168769e-06
2.4151453e-06
2.4397958e-06
2.4387254e-06
2.4204743e-06
2.4168557e-06
2.4151583e-06
2.4398229e-06
2.4386958e-06
2.4204294e-06
2.4168341e-06
2.4151898e-06
2.4398508e-06
2.438667e-06
2.4203829e-06
2.4168132e-06
2.4152511e-06
2.4398796e-06
2.4386388e-06
2.4203349e-06
2.4167941e-06
2.4153181e-06
2.4399095e-06
2.4386105e-06
2.4202855e-06
2.4167772e-06
2.4399409e-06
2.4385815e-06
2.4202351e-06
2.416762e-06
2.4399736e-06
2.4385511e-06
2.4201836e-06
2.4167464e-06
2.4283338e-06
2.4400076e-06
2.4385188e-06
2.4201309e-06
2.4167282e-06
2.4283864e-06
2.4400439e-06
2.4384843e-06
2.420077e-06
2.4167073e-06
2.4284401e-06
2.4400817e-06
2.4384474e-06
2.4200221e-06
2.4166906e-06
2.4284952e-06
2.4401204e-06
2.4384083e-06
2.4199667e-06
2.4166936e-06
2.4285519e-06
2.4401596e-06
2.4383673e-06
2.419912e-06
2.4167258e-06
2.4286103e-06
2.4401987e-06
2.4383245e-06
2.4198589e-06
2.4167608e-06
2.4286705e-06
2.4402371e-06
2.4382802e-06
2.4198078e-06
2.4183401e-06
2.4287324e-06
2.4402743e-06
2.4382343e-06
2.4197576e-06
2.4183481e-06
2.4287971e-06
2.4403098e-06
2.4381868e-06
2.4197063e-06
2.418357e-06
2.4288638e-06
2.4403436e-06
2.4381378e-06
2.4196518e-06
2.4183671e-06
2.4289319e-06
2.4403758e-06
2.4380877e-06
2.4195949e-06
2.4183784e-06
2.4290011e-06
2.4404066e-06
2.4380372e-06
2.4195433e-06
2.4183908e-06
2.4290707e-06
2.4404363e-06
2.4379876e-06
2.4195128e-06
2.4236626e-06
2.4184045e-06
2.4291402e-06
2.4404651e-06
2.4379397e-06
2.4195105e-06
2.423625e-06
2.4184211e-06
2.429209e-06
2.440493e-06
2.4378932e-06
2.4195082e-06
2.4235883e-06
2.4184393e-06
2.4292767e-06
2.4405197e-06
2.4378468e-06
2.4235525e-06
2.4184592e-06
2.4293431e-06
2.4405453e-06
2.4377981e-06
2.423518e-06
2.4184804e-06
2.4294082e-06
2.4405697e-06
2.4377452e-06
2.4234849e-06
2.4185025e-06
2.4294724e-06
2.4405934e-06
2.4376897e-06
2.423453e-06
2.418525e-06
2.4295357e-06
2.4406174e-06
2.43764e-06
2.4265523e-06
2.4234224e-06
2.4185472e-06
2.4295986e-06
2.4406427e-06
2.4376122e-06
2.426563e-06
2.4233946e-06
2.4185687e-06
2.4296612e-06
2.4406698e-06
2.4376112e-06
2.426574e-06
2.4233684e-06
2.418589e-06
2.4297233e-06
2.4406985e-06
2.4376064e-06
2.4265857e-06
2.4233436e-06
2.4186079e-06
2.429785e-06
2.4407269e-06
2.4265981e-06
2.4233197e-06
2.4186253e-06
2.4298462e-06
2.4407529e-06
2.426611e-06
2.4232962e-06
2.4186416e-06
2.4299072e-06
2.4407749e-06
2.4202629e-06
2.4266244e-06
2.4232726e-06
2.4186569e-06
2.4299687e-06
2.4407951e-06
2.4202868e-06
2.4266404e-06
2.4232483e-06
2.4186715e-06
2.4300317e-06
2.4408229e-06
2.4203117e-06
2.4266577e-06
2.4232229e-06
2.4186857e-06
2.4300972e-06
2.440874e-06
2.4203378e-06
2.4266761e-06
2.423196e-06
2.4186994e-06
2.4301655e-06
2.4409511e-06
2.4203651e-06
2.4266954e-06
2.4231677e-06
2.4187125e-06
2.4302356e-06
2.4410222e-06
2.4203935e-06
2.4267153e-06
2.423138e-06
2.4187248e-06
2.4303057e-06
2.4184524e-06
2.420423e-06
2.4267353e-06
2.4231073e-06
2.4187364e-06
2.4303733e-06
2.4184334e-06
2.4204556e-06
2.4267548e-06
2.4230758e-06
2.4187475e-06
2.4304375e-06
2.4184151e-06
2.4204901e-06
2.4267732e-06
2.4230438e-06
2.418759e-06
2.4305011e-06
2.4183976e-06
2.4205262e-06
2.4267902e-06
2.4230114e-06
2.418772e-06
2.4305742e-06
2.4183806e-06
2.4205639e-06
2.4268054e-06
2.4229785e-06
2.4187871e-06
2.4306722e-06
2.4208365e-06
2.4183643e-06
2.4206028e-06
2.4268187e-06
2.422945e-06
2.4188045e-06
2.4307955e-06
2.4208342e-06
2.4183509e-06
2.4206423e-06
2.4268302e-06
2.4229108e-06
2.418823e-06
2.4309108e-06
2.4208323e-06
2.4183392e-06
2.4206821e-06
2.4268401e-06
2.4228761e-06
2.4188407e-06
2.420831e-06
2.418329e-06
2.4207216e-06
2.4268488e-06
2.4228415e-06
2.4188553e-06
2.4208301e-06
2.4183203e-06
2.4207603e-06
2.4268565e-06
2.4228079e-06
2.4188665e-06
2.4208295e-06
2.418313e-06
2.4207979e-06
2.4268634e-06
2.4227763e-06
2.4188779e-06
2.4177726e-06
2.4208293e-06
2.4183068e-06
2.4208342e-06
2.4268695e-06
2.4227473e-06
2.4189001e-06
2.4177848e-06
2.420832e-06
2.4183011e-06
2.4208694e-06
2.4268745e-06
2.4227204e-06
2.4189478e-06
2.4177978e-06
2.420836e-06
2.4182956e-06
2.4209035e-06
2.4268784e-06
2.4226942e-06
2.4190187e-06
2.4178115e-06
2.4208414e-06
2.4182898e-06
2.420937e-06
2.426881e-06
2.4226664e-06
2.4190791e-06
2.4178257e-06
2.4208481e-06
2.4182831e-06
2.4209701e-06
2.4268826e-06
2.422635e-06
2.4159643e-06
2.4178405e-06
2.4208559e-06
2.4182752e-06
2.4210031e-06
2.4268838e-06
2.4226002e-06
2.4159606e-06
2.4178587e-06
2.4208645e-06
2.418266e-06
2.4210358e-06
2.4268857e-06
2.4225662e-06
2.4159575e-06
2.4178784e-06
2.4208736e-06
2.4182554e-06
2.4210681e-06
2.4268892e-06
2.4225442e-06
2.4159548e-06
2.4178998e-06
2.4208826e-06
2.4182437e-06
2.4210998e-06
2.4268945e-06
2.4225482e-06
2.4159523e-06
2.4179227e-06
2.4208911e-06
2.4182311e-06
2.4211306e-06
2.4269011e-06
2.4225734e-06
2.4155871e-06
2.4159501e-06
2.4179471e-06
2.4208985e-06
2.418218e-06
2.4211604e-06
2.4269072e-06
2.4225849e-06
2.4155941e-06
2.4159512e-06
2.4179727e-06
2.4209045e-06
2.4182046e-06
2.4211897e-06
2.4269107e-06
2.4156013e-06
2.4159536e-06
2.4179991e-06
2.420909e-06
2.4181911e-06
2.4212191e-06
2.4269102e-06
2.4156082e-06
2.4159575e-06
2.4180258e-06
2.4209118e-06
2.4181774e-06
2.4212497e-06
2.4269062e-06
2.4133207e-06
2.4156152e-06
2.415963e-06
2.4180524e-06
2.4209132e-06
2.4181632e-06
2.4212822e-06
2.4269037e-06
2.4133298e-06
2.4156252e-06
2.4159699e-06
2.4180784e-06
2.4209133e-06
2.4181484e-06
2.4213168e-06
2.4269142e-06
2.4133393e-06
2.4156363e-06
2.4159782e-06
2.4181034e-06
2.4209127e-06
2.4181329e-06
2.4213526e-06
2.4269509e-06
2.413349e-06
2.4156486e-06
2.4159876e-06
2.4181272e-06
2.4209115e-06
2.4181168e-06
2.4213878e-06
2.4270063e-06
2.4133588e-06
2.4156623e-06
2.4159976e-06
2.4181497e-06
2.4209099e-06
2.4181007e-06
2.4214205e-06
2.4270454e-06
2.4115478e-06
2.4133687e-06
2.4156773e-06
2.416008e-06
2.4181711e-06
2.4209079e-06
2.4180855e-06
2.4214495e-06
2.4115536e-06
2.4133817e-06
2.4156938e-06
2.4160182e-06
2.4181916e-06
2.4209054e-06
2.4180721e-06
2.4214758e-06
2.4115596e-06
2.413396e-06
2.4157115e-06
2.4160277e-06
2.4182115e-06
2.420902e-06
2.4180611e-06
2.421505e-06
2.4115654e-06
2.4134115e-06
2.4157301e-06
2.4160363e-06
2.418231e-06
2.4208974e-06
2.4180522e-06
2.4215487e-06
2.4100084e-06
2.4115712e-06
2.4134284e-06
2.4157495e-06
2.4160435e-06
2.4182505e-06
2.4208916e-06
2.4180441e-06
2.4216189e-06
2.4100168e-06
2.4115801e-06
2.4134468e-06
2.415769e-06
2.4160495e-06
2.41827e-06
2.420885e-06
2.4180349e-06
2.4217061e-06
2.4100256e-06
2.41159e-06
2.4134665e-06
2.4157884e-06
2.4160541e-06
2.4182894e-06
2.4208781e-06
2.4180227e-06
2.4217754e-06
2.4100346e-06
2.4116011e-06
2.4134875e-06
2.415807e-06
2.4160577e-06
2.4183084e-06
2.4208719e-06
2.4180069e-06
2.4080507e-06
2.4100438e-06
2.4116134e-06
2.4135095e-06
2.4158247e-06
2.4160606e-06
2.4183268e-06
2.4208673e-06
2.4179892e-06
2.4080488e-06
2.4100562e-06
2.4116272e-06
2.4135322e-06
2.415841e-06
2.4160632e-06
2.4183443e-06
2.4208646e-06
2.4179755e-06
2.4080474e-06
2.4100698e-06
2.4116425e-06
2.4135552e-06
2.415856e-06
2.4160655e-06
2.4183612e-06
2.4208632e-06
2.4179779e-06
2.4080463e-06
2.4100848e-06
2.4116592e-06
2.4135779e-06
2.4158696e-06
2.4160679e-06
2.4183779e-06
2.4208618e-06
2.418007e-06
2.4066803e-06
2.4080452e-06
2.4101012e-06
2.4116772e-06
2.4135999e-06
2.4158821e-06
2.4160702e-06
2.4183953e-06
2.4208585e-06
2.4180511e-06
2.4066698e-06
2.4080474e-06
2.4101192e-06
2.4116962e-06
2.413621e-06
2.4158938e-06
2.4160721e-06
2.4184142e-06
2.4208518e-06
2.4180756e-06
2.40666e-06
2.4080508e-06
2.4101389e-06
2.4117159e-06
2.4136407e-06
2.415905e-06
2.4160733e-06
2.4184353e-06
2.4208414e-06
2.4066505e-06
2.4080555e-06
2.4101601e-06
2.411736e-06
2.413659e-06
2.415916e-06
2.4160736e-06
2.4184585e-06
2.4208293e-06
2.4050584e-06
2.4066412e-06
2.4080618e-06
2.4101827e-06
2.4117558e-06
2.4136759e-06
2.4159269e-06
2.4160728e-06
2.4184829e-06
2.4208224e-06
2.4050415e-06
2.4066354e-06
2.4080696e-06
2.4102065e-06
2.4117751e-06
2.4136915e-06
2.4159379e-06
2.4160711e-06
2.4185068e-06
2.4208323e-06
2.4050254e-06
2.4066309e-06
2.4080792e-06
2.4102312e-06
2.4117934e-06
2.4137061e-06
2.4159488e-06
2.4160692e-06
2.4185285e-06
2.4208685e-06
2.4050096e-06
2.4066278e-06
2.4080905e-06
2.4102563e-06
2.4118105e-06
2.4137202e-06
2.4159592e-06
2.416068e-06
2.4185467e-06
2.4209164e-06
2.4031669e-06
2.4049939e-06
2.4066263e-06
2.4081035e-06
2.4102815e-06
2.4118262e-06
2.4137339e-06
2.4159689e-06
2.4160682e-06
2.4185614e-06
2.420942e-06
2.4031423e-06
2.404982e-06
2.4066265e-06
2.4081181e-06
2.4103062e-06
2.4118405e-06
2.4137475e-06
2.4159777e-06
2.4160704e-06
2.4185755e-06
2.4031182e-06
2.4049713e-06
2.4066286e-06
2.4081339e-06
2.4103301e-06
2.4118537e-06
2.4137611e-06
2.4159856e-06
2.4160743e-06
2.418596e-06
2.4012633e-06
2.4030942e-06
2.4049621e-06
2.4066324e-06
2.4081507e-06
2.410353e-06
2.4118659e-06
2.4137746e-06
2.415993e-06
2.4160788e-06
2.418635e-06
2.4012292e-06
2.4030742e-06
2.4049545e-06
2.406638e-06
2.4081681e-06
2.4103746e-06
2.4118777e-06
2.4137878e-06
2.4160008e-06
2.4160823e-06
2.4187004e-06
2.4011955e-06
2.4030556e-06
2.4049486e-06
2.4066453e-06
2.4081857e-06
2.4103949e-06
2.4118892e-06
2.4138005e-06
2.4160097e-06
2.4160831e-06
2.4187747e-06
2.3992513e-06
2.4011621e-06
2.4030385e-06
2.4049445e-06
2.4066539e-06
2.408203e-06
2.4104141e-06
2.4119009e-06
2.4138124e-06
2.4160205e-06
2.4160804e-06
2.4188251e-06
2.3991986e-06
2.401133e-06
2.4030231e-06
2.4049423e-06
2.4066637e-06
2.4082196e-06
2.4104324e-06
2.4119128e-06
2.4138235e-06
2.4160332e-06
2.4160747e-06
2.3991467e-06
2.4011053e-06
2.4030094e-06
2.4049417e-06
2.4066742e-06
2.4082353e-06
2.4104501e-06
2.4119248e-06
2.413834e-06
2.4160472e-06
2.4160692e-06
2.3974112e-06
2.3990956e-06
2.4010791e-06
2.4029976e-06
2.4049427e-06
2.4066849e-06
2.40825e-06
2.4104675e-06
2.4119367e-06
2.4138446e-06
2.4160612e-06
2.4160713e-06
2.3973449e-06
2.3990496e-06
2.4010546e-06
2.4029876e-06
2.4049451e-06
2.4066956e-06
2.4082636e-06
2.4104848e-06
2.4119482e-06
2.413856e-06
2.4160735e-06
2.4160927e-06
2.3972772e-06
2.3990055e-06
2.4010319e-06
2.4029796e-06
2.4049485e-06
2.4067058e-06
2.4082762e-06
2.4105023e-06
2.4119589e-06
2.4138689e-06
2.4160826e-06
2.4161397e-06
2.3953138e-06
2.3972081e-06
2.3989636e-06
2.4010111e-06
2.4029734e-06
2.4049526e-06
2.4067152e-06
2.4082883e-06
2.41052e-06
2.4119686e-06
2.4138839e-06
2.4160881e-06
2.4161925e-06
2.3952763e-06
2.3971426e-06
2.398924e-06
2.4009924e-06
2.4029689e-06
2.4049569e-06
2.4067237e-06
2.4083e-06
2.4105378e-06
2.4119774e-06
2.4139007e-06
2.4160908e-06
2.4162198e-06
2.392532e-06
2.395233e-06
2.3970775e-06
2.3988867e-06
2.4009758e-06
2.4029657e-06
2.404961e-06
2.4067313e-06
2.4083118e-06
2.4105555e-06
2.4119856e-06
2.4139183e-06
2.4160945e-06
2.3926033e-06
2.3951887e-06
2.3970132e-06
2.3988519e-06
2.4009612e-06
2.4029637e-06
2.4049646e-06
2.4067382e-06
2.408324e-06
2.4105728e-06
2.411994e-06
2.4139353e-06
2.416107e-06
2.392663e-06
2.3951397e-06
2.39695e-06
2.3988195e-06
2.4009486e-06
2.4029623e-06
2.4049674e-06
2.4067446e-06
2.4083367e-06
2.4105895e-06
2.4120033e-06
2.4139499e-06
2.4161399e-06
2.3888397e-06
2.3927113e-06
2.3950867e-06
2.3968882e-06
2.3987897e-06
2.4009379e-06
2.4029612e-06
2.4049694e-06
2.4067507e-06
2.40835e-06
2.4106058e-06
2.4120142e-06
2.4139612e-06
2.4161976e-06
2.3889544e-06
2.3927533e-06
2.3950299e-06
2.3968281e-06
2.3987624e-06
2.4009287e-06
2.4029599e-06
2.4049704e-06
2.4067571e-06
2.4083639e-06
2.4106219e-06
2.4120271e-06
2.4139689e-06
2.4162576e-06
2.3856996e-06
2.3890777e-06
2.3927851e-06
2.3949698e-06
2.39677e-06
2.3987374e-06
2.4009206e-06
2.4029582e-06
2.4049707e-06
2.406764e-06
2.4083781e-06
2.4106383e-06
2.4120415e-06
2.4139745e-06
2.4162903e-06
2.3856823e-06
2.3892125e-06
2.392807e-06
2.3949069e-06
2.3967142e-06
2.3987147e-06
2.4009134e-06
2.4029558e-06
2.4049705e-06
2.4067715e-06
2.4083923e-06
2.4106559e-06
2.4120562e-06
2.4139822e-06
2.3856746e-06
2.3893515e-06
2.3928194e-06
2.3948417e-06
2.3966607e-06
2.3986938e-06
2.4009066e-06
2.4029526e-06
2.4049701e-06
2.40678e-06
2.4084062e-06
2.4106753e-06
2.4120698e-06
2.4140005e-06
2.3827385e-06
2.3856787e-06
2.389492e-06
2.3928228e-06
2.3947747e-06
2.3966098e-06
2.3986745e-06
2.4008997e-06
2.4029484e-06
2.4049699e-06
2.4067892e-06
2.4084197e-06
2.4106968e-06
2.4120809e-06
2.4140404e-06
2.3826847e-06
2.3857017e-06
2.3896313e-06
2.3928176e-06
2.3947064e-06
2.3965613e-06
2.3986564e-06
2.4008925e-06
2.4029436e-06
2.4049702e-06
2.4067991e-06
2.4084328e-06
2.4107204e-06
2.4120885e-06
2.4141042e-06
2.3785932e-06
2.3826346e-06
2.3857402e-06
2.3897669e-06
2.3928044e-06
2.3946371e-06
2.3965151e-06
2.3986391e-06
2.4008847e-06
2.4029383e-06
2.4049713e-06
2.4068092e-06
2.408446e-06
2.410745e-06
2.4120928e-06
2.4141668e-06
2.3785744e-06
2.3825949e-06
2.3857949e-06
2.3898966e-06
2.3927836e-06
2.3945672e-06
2.3964711e-06
2.3986222e-06
2.4008761e-06
2.4029328e-06
2.4049733e-06
2.4068195e-06
2.4084598e-06
2.4107693e-06
2.4120956e-06
2.4142008e-06
2.3723887e-06
2.3785553e-06
2.3825611e-06
2.3858663e-06
2.3900185e-06
2.3927555e-06
2.3944971e-06
2.3964289e-06
2.3986054e-06
2.4008669e-06
2.4029275e-06
2.4049762e-06
2.4068296e-06
2.4084752e-06
2.4107916e-06
2.4121014e-06
2.3724424e-06
2.3785417e-06
2.3825343e-06
2.3859548e-06
2.3901311e-06
2.3927206e-06
2.3944267e-06
2.3963882e-06
2.3985884e-06
2.4008572e-06
2.4029227e-06
2.4049799e-06
2.4068395e-06
2.4084926e-06
2.4108108e-06
2.412119e-06
2.3634405e-06
2.3724979e-06
2.3785286e-06
2.382515e-06
2.3860599e-06
2.3902328e-06
2.3926792e-06
2.3943563e-06
2.3963487e-06
2.3985711e-06
2.4008471e-06
2.4029187e-06
2.4049842e-06
2.4068496e-06
2.4085122e-06
2.4108264e-06
2.4121587e-06
2.3511143e-06
2.3636245e-06
2.3725613e-06
2.378516e-06
2.3825041e-06
2.386181e-06
2.3903228e-06
2.3926315e-06
2.3942859e-06
2.39631e-06
2.3985535e-06
2.4008372e-06
2.4029156e-06
2.4049887e-06
2.4068603e-06
2.4085335e-06
2.410839e-06
2.4122204e-06
2.3515038e-06
2.3638181e-06
2.3726271e-06
2.3785042e-06
2.3825026e-06
2.3863169e-06
2.3904001e-06
2.3925777e-06
2.3942153e-06
2.3962718e-06
2.3985358e-06
2.4008276e-06
2.4029135e-06
2.4049933e-06
2.4068725e-06
2.4085557e-06
2.4108509e-06
2.4122765e-06
2.3380336e-06
2.3518956e-06
2.3640153e-06
2.3726953e-06
2.3784937e-06
2.3825113e-06
2.3864657e-06
2.3904643e-06
2.3925181e-06
2.3941445e-06
2.3962341e-06
2.398518e-06
2.4008188e-06
2.4029123e-06
2.404998e-06
2.4068867e-06
2.4085772e-06
2.4108673e-06
2.4123026e-06
2.3270796e-06
2.338663e-06
2.352296e-06
2.3642159e-06
2.3727655e-06
2.3784852e-06
2.3825315e-06
2.386625e-06
2.390515e-06
2.3924527e-06
2.3940735e-06
2.3961966e-06
2.3985006e-06
2.400811e-06
2.4029118e-06
2.4050028e-06
2.4069033e-06
2.4085966e-06
2.4108973e-06
2.327843e-06
2.3392976e-06
2.3526994e-06
2.3644198e-06
2.3728375e-06
2.3784798e-06
2.3825643e-06
2.3867918e-06
2.3905521e-06
2.3923818e-06
2.3940021e-06
2.3961596e-06
2.3984838e-06
2.4008045e-06
2.4029116e-06
2.4050083e-06
2.4069222e-06
2.4086131e-06
2.4109507e-06
2.3218081e-06
2.3285989e-06
2.3399316e-06
2.3531054e-06
2.3646268e-06
2.3729111e-06
2.3784784e-06
2.3826107e-06
2.3869629e-06
2.3905758e-06
2.3923056e-06
2.3939306e-06
2.3961231e-06
2.3984679e-06
2.4007992e-06
2.4029117e-06
2.4050151e-06
2.4069428e-06
2.4086264e-06
2.4110244e-06
2.318028e-06
2.3224132e-06
2.3293546e-06
2.340565e-06
2.353514e-06
2.3648365e-06
2.372986e-06
2.3784822e-06
2.3826719e-06
2.3871347e-06
2.390586e-06
2.3922242e-06
2.3938589e-06
2.3960875e-06
2.3984533e-06
2.4007951e-06
2.4029118e-06
2.4050239e-06
2.4069637e-06
2.4086375e-06
2.4110886e-06
2.3118177e-06
2.3182822e-06
2.3230162e-06
2.3301043e-06
2.3411976e-06
2.353925e-06
2.365049e-06
2.373062e-06
2.378492e-06
2.3827487e-06
2.3873037e-06
2.3905831e-06
2.3921381e-06
2.3937873e-06
2.3960531e-06
2.39844e-06
2.4007918e-06
2.402912e-06
2.4050352e-06
2.4069835e-06
2.408649e-06
2.4111219e-06
2.3118799e-06
2.3185444e-06
2.3236119e-06
2.3308483e-06
2.3418295e-06
2.3543383e-06
2.3652637e-06
2.3731387e-06
2.3785089e-06
2.3828416e-06
2.3874664e-06
2.3905673e-06
2.3920477e-06
2.3937162e-06
2.3960203e-06
2.3984282e-06
2.4007893e-06
2.4029126e-06
2.4050492e-06
2.4070011e-06
2.4086665e-06
2.3035771e-06
2.3119548e-06
2.3188088e-06
2.3242011e-06
2.3315871e-06
2.3424608e-06
2.3547536e-06
2.3654805e-06
2.3732163e-06
2.3785336e-06
2.3829507e-06
2.3876197e-06
2.3905389e-06
2.3919535e-06
2.3936459e-06
2.3959893e-06
2.3984179e-06
2.4007871e-06
2.4029143e-06
2.4050654e-06
2.4070158e-06
2.4086993e-06
2.2965594e-06
2.3038025e-06
2.3120495e-06
2.3190761e-06
2.3247849e-06
2.332321e-06
2.3430914e-06
2.3551709e-06
2.365699e-06
2.3732947e-06
2.378567e-06
2.3830755e-06
2.3877609e-06
2.3904984e-06
2.3918562e-06
2.3935769e-06
2.3959606e-06
2.3984088e-06
2.4007851e-06
2.4029176e-06
2.405083e-06
2.4070277e-06
2.4087558e-06
2.2911302e-06
2.2969616e-06
2.3040428e-06
2.3121565e-06
2.319347e-06
2.3253646e-06
2.3330505e-06
2.3437214e-06
2.3555899e-06
2.3659188e-06
2.3733739e-06
2.3786097e-06
2.3832151e-06
2.3878876e-06
2.3904463e-06
2.3917565e-06
2.3935096e-06
2.3959341e-06
2.3984009e-06
2.4007832e-06
2.4029233e-06
2.4051005e-06
2.4070383e-06
2.4088298e-06
2.2790497e-06
2.2847511e-06
2.2914002e-06
2.2973685e-06
2.3042908e-06
2.3122751e-06
2.3196219e-06
2.3259409e-06
2.333776e-06
2.3443508e-06
2.3560106e-06
2.3661393e-06
2.3734543e-06
2.3786622e-06
2.383368e-06
2.3879979e-06
2.3903834e-06
2.3916553e-06
2.3934445e-06
2.3959101e-06
2.3983939e-06
2.4007818e-06
2.4029315e-06
2.4051167e-06
2.4070505e-06
2.4088899e-06
2.2766919e-06
2.2792113e-06
2.2849047e-06
2.2916736e-06
2.2977727e-06
2.3045463e-06
2.3124053e-06
2.3199012e-06
2.3265148e-06
2.3344979e-06
2.3449796e-06
2.3564324e-06
2.3663602e-06
2.3735359e-06
2.378725e-06
2.3835321e-06
2.3880905e-06
2.3903104e-06
2.3915533e-06
2.3933818e-06
2.3958884e-06
2.3983876e-06
2.4007812e-06
2.4029422e-06
2.4051306e-06
2.4070704e-06
2.408919e-06
2.2770559e-06
2.2768865e-06
2.2793894e-06
2.2850634e-06
2.291944e-06
2.2981743e-06
2.3048095e-06
2.3125472e-06
2.3201852e-06
2.3270869e-06
2.3352165e-06
2.3456077e-06
2.3568552e-06
2.3665808e-06
2.3736193e-06
2.3787988e-06
2.3837049e-06
2.3881645e-06
2.3902283e-06
2.3914513e-06
2.3933219e-06
2.3958689e-06
2.398382e-06
2.4007822e-06
2.4029546e-06
2.4051419e-06
2.4071071e-06
2.2826987e-06
2.2788019e-06
2.2771692e-06
2.2770955e-06
2.2795761e-06
2.285227e-06
2.292213e-06
2.2985736e-06
2.3050804e-06
2.3127007e-06
2.3204741e-06
2.3276578e-06
2.3359322e-06
2.3462351e-06
2.3572782e-06
2.3668007e-06
2.3737049e-06
2.3788838e-06
2.3838836e-06
2.3882195e-06
2.3901382e-06
2.3913502e-06
2.3932648e-06
2.3958512e-06
2.3983773e-06
2.4007854e-06
2.4029676e-06
2.4051512e-06
2.4071678e-06
2.2891176e-06
2.2825257e-06
2.2787872e-06
2.2772892e-06
2.2773096e-06
2.2797714e-06
2.2853959e-06
2.2924823e-06
2.2989709e-06
2.3053592e-06
2.312866e-06
2.3207683e-06
2.328228e-06
2.3366453e-06
2.3468617e-06
2.357701e-06
2.3670194e-06
2.3737932e-06
2.3789805e-06
2.3840648e-06
2.3882557e-06
2.3900411e-06
2.3912504e-06
2.3932106e-06
2.3958351e-06
2.3983739e-06
2.4007912e-06
2.40298e-06
2.4051601e-06
2.4072434e-06
2.3082921e-06
2.297444e-06
2.2887385e-06
2.2823515e-06
2.278765e-06
2.277406e-06
2.277528e-06
2.2799756e-06
2.2855707e-06
2.2927533e-06
2.2993666e-06
2.3056461e-06
2.313043e-06
2.3210681e-06
2.3287978e-06
2.337356e-06
2.3474871e-06
2.3581228e-06
2.3672365e-06
2.3738849e-06
2.3790894e-06
2.3842453e-06
2.3882737e-06
2.3899381e-06
2.3911526e-06
2.3931591e-06
2.3958202e-06
2.3983724e-06
2.4007998e-06
2.4029905e-06
2.4051719e-06
2.4073012e-06
2.3658397e-06
2.3398882e-06
2.3208607e-06
2.3074015e-06
2.2968204e-06
2.2883537e-06
2.2821656e-06
2.2787345e-06
2.2775188e-06
2.27775e-06
2.2801889e-06
2.2857522e-06
2.2930275e-06
2.2997614e-06
2.3059413e-06
2.3132317e-06
2.3213738e-06
2.3293677e-06
2.3380644e-06
2.348111e-06
2.3585429e-06
2.3674517e-06
2.3739807e-06
2.3792104e-06
2.3844217e-06
2.3882742e-06
2.3898305e-06
2.3910571e-06
2.3931103e-06
2.3958065e-06
2.3983733e-06
2.4008106e-06
2.4029986e-06
2.4051931e-06
2.4073291e-06
2.4228087e-06
2.405619e-06
2.3891972e-06
2.3638528e-06
2.3383586e-06
2.3196713e-06
2.3064992e-06
2.2961774e-06
2.2879527e-06
2.2819675e-06
2.2786952e-06
2.2776273e-06
2.2779751e-06
2.2804115e-06
2.2859411e-06
2.2933059e-06
2.3001555e-06
2.306245e-06
2.3134318e-06
2.3216854e-06
2.3299378e-06
2.3387707e-06
2.3487329e-06
2.3589603e-06
2.3676649e-06
2.3740813e-06
2.3793438e-06
2.3845907e-06
2.3882586e-06
2.3897192e-06
2.3909641e-06
2.3930638e-06
2.3957941e-06
2.3983771e-06
2.4008228e-06
2.4030043e-06
2.4052328e-06
2.4557188e-06
2.4758281e-06
2.4523102e-06
2.4201238e-06
2.4029718e-06
2.3867385e-06
2.3618438e-06
2.3367978e-06
2.3184555e-06
2.3055742e-06
2.2955149e-06
2.2875357e-06
2.2817572e-06
2.2786469e-06
2.2777311e-06
2.2782031e-06
2.2806439e-06
2.2861382e-06
2.2935893e-06
2.3005496e-06
2.3065573e-06
2.3136432e-06
2.3220032e-06
2.3305083e-06
2.3394746e-06
2.3493521e-06
2.3593744e-06
2.3678759e-06
2.3741876e-06
2.379489e-06
2.3847494e-06
2.3882281e-06
2.3896052e-06
2.3908737e-06
2.3930194e-06
2.3957831e-06
2.3983839e-06
2.400835e-06
2.4030085e-06
2.4052963e-06
2.3087468e-06
2.3023485e-06
2.3260844e-06
2.3529955e-06
2.3711911e-06
2.4044363e-06
2.4520229e-06
2.4721042e-06
2.4491947e-06
2.417411e-06
2.4002873e-06
2.3842419e-06
2.3597984e-06
2.3352058e-06
2.3172139e-06
2.304627e-06
2.2948337e-06
2.2871031e-06
2.2815348e-06
2.2785896e-06
2.2778303e-06
2.2784337e-06
2.2808861e-06
2.2863442e-06
2.2938781e-06
2.3009443e-06
2.3068783e-06
2.3138653e-06
2.3223271e-06
2.3310794e-06
2.3401761e-06
2.349968e-06
2.3597843e-06
2.368085e-06
2.3743004e-06
2.3796456e-06
2.3848953e-06
2.388184e-06
2.3894894e-06
2.3907859e-06
2.3929771e-06
2.3957742e-06
2.3983935e-06
2.4008461e-06
2.4030129e-06
2.4053718e-06
2.3985754e-06
2.3565466e-06
2.311361e-06
2.2792371e-06
2.2706247e-06
2.2772332e-06
2.2937139e-06
2.3192995e-06
2.3267083e-06
2.307024e-06
2.3006921e-06
2.3240136e-06
2.3506149e-06
2.3686504e-06
2.401396e-06
2.4482862e-06
2.4683183e-06
2.446022e-06
2.4146538e-06
2.3975655e-06
2.3817076e-06
2.3577168e-06
2.3335827e-06
2.3159468e-06
2.3036583e-06
2.2941346e-06
2.2866556e-06
2.2813009e-06
2.2785238e-06
2.2779249e-06
2.2786668e-06
2.2811383e-06
2.28656e-06
2.2941727e-06
2.3013401e-06
2.307208e-06
2.3140979e-06
2.3226571e-06
2.331651e-06
2.3408749e-06
2.3505797e-06
2.3601893e-06
2.3682925e-06
2.3744208e-06
2.3798124e-06
2.3850263e-06
2.3881277e-06
2.3893725e-06
2.3907006e-06
2.3929369e-06
2.3957678e-06
2.3984051e-06
2.400855e-06
2.4030214e-06
2.405426e-06
4.6682049e-12
2.8173975e-11
6.1105228e-10
5.7202068e-09
3.1752683e-08
1.2756011e-07
4.1012368e-07
1.1124065e-06
2.6174653e-06
5.4254271e-06
1.0029127e-05
1.6765234e-05
2.5748703e-05
3.6925434e-05
5.0167394e-05
6.5343911e-05
8.2358084e-05
0.00010115394
0.00012170729
0.00014402675
0.00016815347
0.00019414148
0.00022205302
0.0002519594
0.00028392532
0.00031800755
0.00035424567
0.00039265226
0.00043320804
0.00047584993
0.0005204594
0.00056685064
0.00061474927
0.00066377415
0.00071340954
0.00076295362
0.00081146773
0.00085771105
0.00090006335
0.00093644126
0.00096421343
0.00098011693
0.00098020101
0.00095982049
0.0009137389
0.00083646186
0.00072306217
0.00057118464
0.00038578418
0.00018945111
6.0402573e-05
1.8767629e-05
8.4097076e-06
5.6006733e-06
4.4515713e-06
3.7072083e-06
3.187819e-06
2.9097612e-06
2.8153575e-06
2.7605206e-06
2.6710635e-06
2.5690673e-06
2.4664418e-06
2.3634961e-06
2.3007423e-06
2.3145928e-06
2.3831892e-06
2.4423627e-06
2.45312e-06
2.4291102e-06
2.3955433e-06
2.3542172e-06
2.3096262e-06
2.2777304e-06
2.2690386e-06
2.2754805e-06
2.29172e-06
2.3169664e-06
2.3244728e-06
2.3052757e-06
2.2989908e-06
2.3218941e-06
2.3481815e-06
2.3660559e-06
2.3982996e-06
2.444489e-06
2.4644695e-06
2.4427921e-06
2.4118523e-06
2.3948067e-06
2.379136e-06
2.3555992e-06
2.3319289e-06
2.3146548e-06
2.3026691e-06
2.2934186e-06
2.2861942e-06
2.2810561e-06
2.2784498e-06
2.2780153e-06
2.2789022e-06
2.2814005e-06
2.2867859e-06
2.2944734e-06
2.3017376e-06
2.307546e-06
2.3143405e-06
2.3229932e-06
2.3322231e-06
2.3415705e-06
2.3511863e-06
2.360589e-06
2.368499e-06
2.3745497e-06
2.3799881e-06
2.3851407e-06
2.3880606e-06
2.389255e-06
2.3906175e-06
2.3928991e-06
2.3957646e-06
2.3984175e-06
2.4008614e-06
2.4030409e-06
2.4054518e-06
5.3507728e-12
3.0061145e-11
6.4445551e-10
6.0301344e-09
3.34646e-08
1.3433862e-07
4.3117934e-07
1.1657893e-06
2.7295608e-06
5.6218894e-06
1.0321205e-05
1.7144518e-05
2.6194906e-05
3.7418044e-05
5.0692643e-05
6.589629e-05
8.2938994e-05
0.00010176963
0.000122367
0.00014474128
0.00016893422
0.00019499977
0.00022299977
0.00025300497
0.0002850796
0.0003192801
0.00035564605
0.00039419027
0.00043489402
0.00047769493
0.00052247528
0.0005690502
0.00061714626
0.00066638349
0.00071624764
0.00076603885
0.00081482128
0.00086135804
0.0009040343
0.00094077388
0.00096895474
0.00098532554
0.00098594912
0.0009661947
0.00092083683
0.00084437764
0.00073184313
0.00058071714
0.00039552277
0.00019790594
6.4142434e-05
1.9787063e-05
8.6673397e-06
5.6738088e-06
4.4732732e-06
3.711371e-06
3.1889247e-06
2.9137406e-06
2.819306e-06
2.7568045e-06
2.6556169e-06
2.5465914e-06
2.4462824e-06
2.3507283e-06
2.2938251e-06
2.3100295e-06
2.3789552e-06
2.4381552e-06
2.4492188e-06
2.4255781e-06
2.3925002e-06
2.3518446e-06
2.3078567e-06
2.276197e-06
2.2674206e-06
2.2736871e-06
2.2896798e-06
2.3145827e-06
2.3221837e-06
2.3034779e-06
2.2972451e-06
2.3197273e-06
2.3456964e-06
2.3634082e-06
2.3951472e-06
2.4406313e-06
2.4605576e-06
2.4395047e-06
2.4090068e-06
2.3920113e-06
2.3765276e-06
2.3534461e-06
2.3302448e-06
2.3133387e-06
2.3016603e-06
2.2926869e-06
2.2857198e-06
2.2808012e-06
2.2783682e-06
2.2781018e-06
2.2791397e-06
2.2816725e-06
2.2870223e-06
2.2947803e-06
2.3021375e-06
2.3078921e-06
2.3145924e-06
2.3233352e-06
2.3327956e-06
2.3422625e-06
2.3517872e-06
2.3609832e-06
2.3687053e-06
2.3746883e-06
2.3801707e-06
2.3852374e-06
2.3879837e-06
2.3891375e-06
2.3905368e-06
2.3928642e-06
2.3957648e-06
2.3984294e-06
2.4008656e-06
2.40308e-06
6.1005453e-12
3.2117279e-11
6.8072612e-10
6.3665711e-09
3.5321907e-08
1.4168085e-07
4.5390599e-07
1.2230574e-06
2.8487812e-06
5.8288096e-06
1.0626192e-05
1.7538303e-05
2.6657029e-05
3.7928363e-05
5.1237944e-05
6.6471595e-05
8.3546185e-05
0.00010241541
0.00012306101
0.00014549474
0.00016975895
0.00019590752
0.00022400186
0.00025411214
0.00028630208
0.00032062773
0.0003571286
0.00039581767
0.00043667663
0.00047964375
0.00052460206
0.00057136753
0.00061966768
0.00066912362
0.00071922252
0.00076926651
0.00081832249
0.00086515743
0.00090816178
0.00094526639
0.00097385825
0.0009906972
0.00099185917
0.00097272711
0.00092808615
0.00085243538
0.00074075712
0.00059038407
0.00040543021
0.00020663531
6.814041e-05