/*--------------------------------*- C++ -*----------------------------------*\
| =========                 |                                                 |
| \\      /  F ield         | OpenFOAM: The Open Source CFD Toolbox           |
|  \\    /   O peration     | Version:  2506                                  |
|   \\  /    A nd           | Website:  www.openfoam.com                      |
|    \\/     M anipulation  |                                                 |
\*---------------------------------------------------------------------------*/
FoamFile
{
    version     2.0;
    format      ascii;
    arch        "LSB;label=32;scalar=64";
    class       volScalarField;
    location    "0.0345";
    object      alphat;
}
// * * * * * * * * * * * * * * * * * * * * * * * * * * * * * * * * * * * * * //

dimensions      [1 -1 -1 0 0 0 0];

internalField   nonuniform List<scalar> 
192657
(
2.7877243e-06
2.4333231e-06
2.4204189e-06
2.4212343e-06
2.415076e-06
2.4310417e-06
2.434878e-06
2.4367915e-06
2.4212211e-06
2.4209369e-06
2.426638e-06
2.4255591e-06
2.4193386e-06
2.4245569e-06
2.4227276e-06
2.4194842e-06
2.4208429e-06
2.4185606e-06
2.4175959e-06
2.4174364e-06
2.4156607e-06
2.4147265e-06
2.412605e-06
2.4111328e-06
2.4097533e-06
2.4082351e-06
2.406399e-06
2.4041239e-06
2.4018061e-06
2.3989972e-06
2.3951564e-06
2.3908517e-06
2.3877608e-06
2.3861496e-06
2.3839861e-06
2.38023e-06
2.3775301e-06
2.3777537e-06
2.3809949e-06
2.3881794e-06
2.3939169e-06
2.3851456e-06
2.3623689e-06
2.3466877e-06
2.3481673e-06
2.3507376e-06
2.3379774e-06
2.3292781e-06
2.328835e-06
2.3178834e-06
2.3040945e-06
2.2960524e-06
2.2828571e-06
2.26507e-06
2.2462423e-06
2.2282278e-06
2.2129966e-06
2.1883168e-06
2.1489625e-06
2.1154798e-06
2.0976229e-06
2.0616972e-06
1.9979871e-06
1.957948e-06
1.9690884e-06
1.9898168e-06
1.985592e-06
1.9784748e-06
1.9939796e-06
2.0274942e-06
2.0597986e-06
2.0826961e-06
2.1033476e-06
2.1280247e-06
2.1558074e-06
2.1801211e-06
2.2022509e-06
2.2292436e-06
2.2609382e-06
2.2935721e-06
2.3255985e-06
2.3561033e-06
2.3867481e-06
2.4216878e-06
2.4622044e-06
2.5078854e-06
2.5600397e-06
2.6195186e-06
2.6859766e-06
2.7586203e-06
2.8366312e-06
2.9190423e-06
3.0049027e-06
3.0928581e-06
3.1809372e-06
3.2668722e-06
3.3489528e-06
3.429773e-06
3.5438265e-06
3.9552033e-06
6.6924305e-06
2.9897037e-05
0.00016081335
0.0004132815
0.00064830991
0.0008342298
0.00097762503
0.00108477
0.0011611064
0.0012112773
0.0012392759
0.0012485546
0.0012421121
0.0012225677
0.0011922087
0.0011530408
0.0011068177
0.0010550746
0.00099916173
0.00094026558
0.00087942574
0.00081755123
0.00075543966
0.00069378363
0.00063319154
0.00057418343
0.00051720421
0.00046262856
0.00041075571
0.00036183082
0.00031603413
0.00027348263
0.00023425817
0.00019839891
0.00016588485
0.00013665716
0.00011062654
8.7678286e-05
6.7678826e-05
5.0479918e-05
3.5920157e-05
2.38615e-05
1.4238447e-05
7.1093002e-06
2.6321969e-06
6.1334873e-07
7.3921228e-08
4.0582933e-09
1.246408e-09
2.8275937e-06
2.4334285e-06
2.4204473e-06
2.4212649e-06
2.4150406e-06
2.4309642e-06
2.4348321e-06
2.4368692e-06
2.4212937e-06
2.4208925e-06
2.4266063e-06
2.4256137e-06
2.419336e-06
2.4245367e-06
2.4227576e-06
2.4194867e-06
2.4208443e-06
2.4185803e-06
2.4175982e-06
2.4174477e-06
2.4156724e-06
2.4147419e-06
2.4126226e-06
2.4111482e-06
2.409773e-06
2.4082603e-06
2.4064342e-06
2.4041651e-06
2.401852e-06
2.3990526e-06
2.3952214e-06
2.390906e-06
2.3877998e-06
2.3861889e-06
2.3840463e-06
2.3803015e-06
2.3775841e-06
2.3777953e-06
2.3810354e-06
2.3882758e-06
2.3941291e-06
2.3856051e-06
2.3628752e-06
2.3470443e-06
2.3483865e-06
2.3510243e-06
2.3384763e-06
2.3296815e-06
2.329174e-06
2.3184139e-06
2.3045952e-06
2.2964799e-06
2.2833989e-06
2.2656367e-06
2.246774e-06
2.2286779e-06
2.2134254e-06
2.1889578e-06
2.1497433e-06
2.1161054e-06
2.0982052e-06
2.0629429e-06
1.9998511e-06
1.9590066e-06
1.9686756e-06
1.9889176e-06
1.985097e-06
1.977627e-06
1.9917963e-06
2.0242151e-06
2.0565077e-06
2.0798634e-06
2.1005369e-06
2.1247842e-06
2.1520548e-06
2.1763136e-06
2.1985781e-06
2.2253283e-06
2.2567313e-06
2.2895875e-06
2.3224133e-06
2.3542617e-06
2.3863818e-06
2.4222419e-06
2.4630774e-06
2.5087849e-06
2.5606996e-06
2.619697e-06
2.6856342e-06
2.757852e-06
2.8356163e-06
2.9180142e-06
3.0041296e-06
3.0926661e-06
3.1817233e-06
3.2690704e-06
3.3530292e-06
3.4367673e-06
3.5605835e-06
4.0344184e-06
7.2138473e-06
3.2487681e-05
0.00016473708
0.00041657005
0.00065229938
0.0008374417
0.00097948021
0.0010850125
0.0011596975
0.0012082776
0.0012348021
0.0012427568
0.0012351673
0.0012146671
0.0011835568
0.0011438427
0.0010972797
0.0010453952
0.00098952976
0.00093085775
0.00087040051
0.00080905093
0.00074758281
0.00068666921
0.00062689231
0.00056875013
0.00051266176
0.00045897936
0.00040797905
0.0003598855
0.00031485997
0.00027300329
0.0002343835
0.00019902728
0.00016690663
0.00013795698
0.0001120867
8.918143e-05
6.9112604e-05
5.1742008e-05
3.6926404e-05
2.4557006e-05
1.4615131e-05
7.2283105e-06
2.62555e-06
5.9699798e-07
7.0405541e-08
3.5221908e-09
7.9285655e-10
2.868789e-06
2.4335434e-06
2.4204781e-06
2.4212974e-06
2.4150031e-06
2.430881e-06
2.4347827e-06
2.4369506e-06
2.4213722e-06
2.4208463e-06
2.426572e-06
2.4256703e-06
2.4193332e-06
2.4245161e-06
2.4227899e-06
2.4194889e-06
2.4208453e-06
2.4186009e-06
2.4176005e-06
2.4174593e-06
2.4156843e-06
2.4147575e-06
2.4126407e-06
2.4111638e-06
2.4097934e-06
2.4082863e-06
2.4064706e-06
2.4042081e-06
2.4018997e-06
2.3991099e-06
2.3952887e-06
2.3909628e-06
2.3878407e-06
2.3862297e-06
2.3841083e-06
2.3803754e-06
2.3776405e-06
2.3778375e-06
2.3810757e-06
2.3883712e-06
2.394342e-06
2.3860691e-06
2.363394e-06
2.3474091e-06
2.3482918e-06
2.3513058e-06
2.3389707e-06
2.3300965e-06
2.3295236e-06
2.3189535e-06
2.3051056e-06
2.2969156e-06
2.2839512e-06
2.2662204e-06
2.2473232e-06
2.2291447e-06
2.2138748e-06
2.1896336e-06
2.1505654e-06
2.1167573e-06
2.0988143e-06
2.0642464e-06
2.0017893e-06
1.9601109e-06
1.9682698e-06
1.9880227e-06
1.9846278e-06
1.9768271e-06
1.9896502e-06
2.0209176e-06
2.0531336e-06
2.076933e-06
2.0976642e-06
2.1215185e-06
2.1482974e-06
2.1724814e-06
2.1948385e-06
2.221327e-06
2.2524176e-06
2.2854263e-06
2.3189736e-06
2.3520613e-06
2.3855804e-06
2.4223741e-06
2.4635718e-06
2.5093761e-06
2.5610774e-06
2.6195787e-06
2.684918e-06
2.7565743e-06
2.833909e-06
2.9160782e-06
3.0022125e-06
3.0910877e-06
3.180899e-06
3.26949e-06
3.3552782e-06
3.4421401e-06
3.5766972e-06
4.1180481e-06
7.7615837e-06
3.4887255e-05
0.00016636889
0.00041480468
0.00065082699
0.00083587121
0.00097756529
0.0010825584
0.0011566064
0.0012044664
0.0012301983
0.0012373064
0.0012288409
0.0012074697
0.0011755258
0.0011350479
0.001087817
0.0010353841
0.00097910697
0.00092017165
0.00085960588
0.00079830116
0.00073702656
0.00067644304
0.00061711899
0.00055953349
0.00050408597
0.00045110649
0.00040084942
0.00035351726
0.00030925078
0.00026813158
0.00023021076
0.00019550101
0.00016396373
0.00013552762
0.00011009836
8.756349e-05
6.7800596e-05
5.0682128e-05
3.607887e-05
2.3898286e-05
1.4137392e-05
6.9321194e-06
2.4928296e-06
5.6243467e-07
6.6133692e-08
3.3583856e-09
8.0869933e-10
2.9113542e-06
2.4336677e-06
2.4205098e-06
2.4213314e-06
2.4149654e-06
2.4307952e-06
2.4347316e-06
2.4370332e-06
2.4214536e-06
2.4207993e-06
2.4265364e-06
2.4257287e-06
2.419331e-06
2.4244944e-06
2.4228229e-06
2.4194915e-06
2.4208461e-06
2.4186223e-06
2.4176029e-06
2.4174713e-06
2.4156966e-06
2.4147736e-06
2.4126593e-06
2.4111799e-06
2.4098142e-06
2.4083129e-06
2.4065078e-06
2.404252e-06
2.4019487e-06
2.3991684e-06
2.3953578e-06
2.3910215e-06
2.3878827e-06
2.3862712e-06
2.3841712e-06
2.3804511e-06
2.3776984e-06
2.3778802e-06
2.3811145e-06
2.3884643e-06
2.3945552e-06
2.3865365e-06
2.3639242e-06
2.3477823e-06
2.3484643e-06
2.3515911e-06
2.3394569e-06
2.330521e-06
2.3298848e-06
2.3195039e-06
2.3056272e-06
2.2973607e-06
2.2845155e-06
2.2668232e-06
2.2478932e-06
2.2296323e-06
2.2143486e-06
2.1903475e-06
2.1514344e-06
2.1174428e-06
2.0994546e-06
2.065609e-06
2.0038081e-06
1.9612769e-06
1.9678877e-06
1.9871417e-06
1.9841924e-06
1.9760901e-06
1.9875641e-06
2.0176255e-06
2.0496949e-06
2.0739174e-06
2.0947404e-06
2.1182398e-06
2.1445482e-06
2.168639e-06
2.1910517e-06
2.2172625e-06
2.2480172e-06
2.2811045e-06
2.3152607e-06
2.3494591e-06
2.3842736e-06
2.4220083e-06
2.4636847e-06
2.5096584e-06
2.5611926e-06
2.619211e-06
2.6838246e-06
2.7547892e-06
2.8315217e-06
2.9132514e-06
2.9991663e-06
3.0881238e-06
3.1784289e-06
3.2680173e-06
3.3554265e-06
3.4453058e-06
3.5909332e-06
4.2027089e-06
8.3162992e-06
3.7018072e-05
0.00016573315
0.00040751212
0.00064231465
0.00082705535
0.00096857961
0.0010733884
0.0011473001
0.0011950583
0.0012207207
0.0012277928
0.0012193308
0.0011980146
0.0011661881
0.0011258953
0.0010789203
0.0010268148
0.00097093504
0.00091246393
0.00085242294
0.00079169549
0.00073103931
0.00067110302
0.00061244073
0.0005555174
0.00050071803
0.00044835929
0.00039868339
0.00035188236
0.00030808861
0.00026737768
0.00022979695
0.00019535768
0.00016402244
0.00013572321
0.00011037109
8.786076e-05
6.8078851e-05
5.090835e-05
3.6232312e-05
2.3972399e-05
1.4142813e-05
6.8989996e-06
2.4615096e-06
5.5081445e-07
6.4381237e-08
3.204238e-09
7.1344039e-10
2.9553297e-06
2.4338023e-06
2.4205428e-06
2.4213669e-06
2.4149271e-06
2.4307063e-06
2.4346782e-06
2.4371175e-06
2.4215388e-06
2.4207516e-06
2.4264991e-06
2.4257888e-06
2.4193294e-06
2.4244718e-06
2.422857e-06
2.4194942e-06
2.4208467e-06
2.4186445e-06
2.4176055e-06
2.4174837e-06
2.4157093e-06
2.4147901e-06
2.4126786e-06
2.4111963e-06
2.4098354e-06
2.4083401e-06
2.4065457e-06
2.4042971e-06
2.401999e-06
2.3992283e-06
2.3954288e-06
2.3910822e-06
2.3879261e-06
2.3863135e-06
2.3842353e-06
2.3805284e-06
2.3777579e-06
2.3779234e-06
2.3811525e-06
2.3885549e-06
2.3947693e-06
2.3870073e-06
2.364466e-06
2.3481635e-06
2.3486399e-06
2.3518931e-06
2.3399338e-06
2.3309522e-06
2.3302579e-06
2.3200663e-06
2.3061606e-06
2.2978151e-06
2.2850907e-06
2.2674441e-06
2.2484831e-06
2.2301398e-06
2.2148449e-06
2.1910965e-06
2.1523488e-06
2.118161e-06
2.1001217e-06
2.0670228e-06
2.0059034e-06
1.962509e-06
1.967534e-06
1.9862719e-06
1.9837851e-06
1.975416e-06
1.9855458e-06
2.0143479e-06
2.0461954e-06
2.0708143e-06
2.0917602e-06
2.1149443e-06
2.1408042e-06
2.1647858e-06
2.1872226e-06
2.2131429e-06
2.2435378e-06
2.2766289e-06
2.3112783e-06
2.3464532e-06
2.3824536e-06
2.4211075e-06
2.4633098e-06
2.5095005e-06
2.5608972e-06
2.618437e-06
2.6823632e-06
2.7525585e-06
2.8285481e-06
2.9096525e-06
2.9951276e-06
3.0839208e-06
3.1744576e-06
3.264787e-06
3.3535329e-06
3.446354e-06
3.6034707e-06
4.2885859e-06
8.8763057e-06
3.895644e-05
0.00016367077
0.00039655592
0.00062920465
0.00081398546
0.0009559756
0.0010612589
0.00113567
0.0011839002
0.0012099938
0.0012174524
0.0012093329
0.0011883352
0.0011568217
0.0011168487
0.0010702104
0.0010184674
0.00096298309
0.00090494554
0.000845379
0.00078516568
0.0007250585
0.00066569812
0.00060762865
0.00055130369
0.00049709623
0.00044531099
0.00039617889
0.0003498817
0.00030654327
0.00026623246
0.000228992
0.00019483088
0.00016371186
0.00013556957
0.00011032003
8.7865171e-05
6.8100841e-05
5.0921035e-05
3.6220943e-05
2.3934893e-05
1.4089341e-05
6.849097e-06
2.4329288e-06
5.4230854e-07
6.3250403e-08
3.1415029e-09
6.9496379e-10
3.0007598e-06
2.4339479e-06
2.4205771e-06
2.4214041e-06
2.4148884e-06
2.430614e-06
2.4346226e-06
2.4372033e-06
2.4216277e-06
2.420703e-06
2.4264599e-06
2.4258507e-06
2.4193284e-06
2.4244481e-06
2.4228922e-06
2.4194972e-06
2.4208471e-06
2.4186676e-06
2.4176084e-06
2.4174964e-06
2.4157225e-06
2.4148069e-06
2.4126985e-06
2.4112131e-06
2.4098571e-06
2.4083679e-06
2.4065845e-06
2.4043432e-06
2.4020506e-06
2.3992896e-06
2.3955016e-06
2.3911451e-06
2.3879708e-06
2.3863566e-06
2.3843005e-06
2.3806075e-06
2.3778191e-06
2.3779669e-06
2.3811899e-06
2.3886424e-06
2.3949848e-06
2.3874811e-06
2.3650194e-06
2.3485531e-06
2.3488191e-06
2.3522242e-06
2.340403e-06
2.3313868e-06
2.3306424e-06
2.3206416e-06
2.3067067e-06
2.2982789e-06
2.2856762e-06
2.2680824e-06
2.2490928e-06
2.2306671e-06
2.2153625e-06
2.1918784e-06
2.1533078e-06
2.1189125e-06
2.1008129e-06
2.0684813e-06
2.0080726e-06
1.9638131e-06
1.9672154e-06
1.985413e-06
1.9834022e-06
1.9748063e-06
1.9836044e-06
2.0110966e-06
2.0426431e-06
2.0676246e-06
2.0887208e-06
2.1116296e-06
2.1370647e-06
2.1609236e-06
2.1833578e-06
2.2089782e-06
2.23899e-06
2.2720107e-06
2.3070367e-06
2.3430502e-06
2.3801205e-06
2.4196578e-06
2.4624167e-06
2.5088669e-06
2.5601617e-06
2.6172394e-06
2.6804529e-06
2.7498017e-06
2.8249223e-06
2.9052323e-06
2.990066e-06
3.0784697e-06
3.1689982e-06
3.2598234e-06
3.3496928e-06
3.4447572e-06
3.6093471e-06
4.3378056e-06
9.1582705e-06
3.9329704e-05
0.00015880124
0.00038261972
0.00061266359
0.00079752925
0.00093994923
0.001046188
0.0011215758
0.0011707355
0.0011976974
0.0012059581
0.0011985628
0.0011782333
0.0011473496
0.0011079756
0.0010619145
0.0010107356
0.00095580993
0.00089833167
0.00083933342
0.0007797001
0.00072018196
0.00066141425
0.00060393364
0.00054818521
0.00049453287
0.00044327236
0.00039462608
0.00034876816
0.00030581622
0.00026583462
0.00022886345
0.00019491102
0.00016394163
0.00013589335
0.00011068756
8.82332e-05
6.8434717e-05
5.119594e-05
3.6422879e-05
2.4061318e-05
1.4149741e-05
6.8646637e-06
2.4309628e-06
5.4012946e-07
6.2849775e-08
3.0959007e-09
6.6129259e-10
3.0476796e-06
2.4341053e-06
2.4206127e-06
2.421443e-06
2.4148494e-06
2.4305184e-06
2.4345647e-06
2.4372907e-06
2.4217206e-06
2.4206537e-06
2.4264187e-06
2.4259145e-06
2.4193281e-06
2.4244232e-06
2.4229285e-06
2.4195005e-06
2.4208472e-06
2.4186917e-06
2.4176114e-06
2.4175095e-06
2.4157362e-06
2.4148241e-06
2.412719e-06
2.4112302e-06
2.4098792e-06
2.4083963e-06
2.4066242e-06
2.4043905e-06
2.4021036e-06
2.3993524e-06
2.3955763e-06
2.3912101e-06
2.388017e-06
2.3864006e-06
2.3843668e-06
2.3806883e-06
2.3778821e-06
2.3780109e-06
2.3812268e-06
2.3887267e-06
2.3952021e-06
2.3879579e-06
2.3655844e-06
2.3489511e-06
2.3490022e-06
2.3525934e-06
2.3408704e-06
2.331821e-06
2.3310367e-06
2.3212303e-06
2.3072667e-06
2.2987526e-06
2.2862713e-06
2.2687375e-06
2.2497218e-06
2.231214e-06
2.2159003e-06
2.1926909e-06
2.1543107e-06
2.1196975e-06
2.1015255e-06
2.069978e-06
2.0103122e-06
1.965194e-06
1.9669382e-06
1.9845648e-06
1.9830393e-06
1.9742609e-06
1.9817476e-06
2.0078832e-06
2.039046e-06
2.0643495e-06
2.0856187e-06
2.1082923e-06
2.1333277e-06
2.1570533e-06
2.1794628e-06
2.2047775e-06
2.2343846e-06
2.2672634e-06
2.3025503e-06
2.3392626e-06
2.3772809e-06
2.4176521e-06
2.4609825e-06
2.5077282e-06
2.5589608e-06
2.6156047e-06
2.6780995e-06
2.7465496e-06
2.8207013e-06
2.900073e-06
2.9840847e-06
3.0718886e-06
3.1621753e-06
3.2532481e-06
3.3439384e-06
3.4404033e-06
3.6070543e-06
4.337558e-06
9.0900616e-06
3.792929e-05
0.00015030217
0.00036497042
0.00059285596
0.00077854265
0.0009221282
0.0010296244
0.0011062521
0.001156581
0.0011846247
0.0011938939
0.0011874608
0.0011680186
0.0011379331
0.0010992807
0.0010538816
0.0010033205
0.000948979
0.00089205262
0.00083360329
0.00077452379
0.00071556121
0.00065734717
0.00060041334
0.00054519855
0.00049205984
0.00044128637
0.00039309361
0.00034764855
0.00030506267
0.00026539569
0.00022868462
0.00019493665
0.00016411693
0.00013616635
0.00011101084
8.8565671e-05
6.8743093e-05
5.1456085e-05
3.6620627e-05
2.4192921e-05
1.4221811e-05
6.8932187e-06
2.4374011e-06
5.4068812e-07
6.2840835e-08
3.0823869e-09
6.4628974e-10
3.0961389e-06
2.4342755e-06
2.4206496e-06
2.4214837e-06
2.4148101e-06
2.4304193e-06
2.4345042e-06
2.4373795e-06
2.4218176e-06
2.4206037e-06
2.4263755e-06
2.4259801e-06
2.4193288e-06
2.4243972e-06
2.4229657e-06
2.4195041e-06
2.420847e-06
2.4187166e-06
2.4176148e-06
2.417523e-06
2.4157504e-06
2.4148417e-06
2.4127402e-06
2.4112477e-06
2.4099018e-06
2.4084253e-06
2.4066647e-06
2.4044389e-06
2.4021581e-06
2.3994168e-06
2.3956529e-06
2.3912775e-06
2.3880646e-06
2.3864455e-06
2.3844342e-06
2.3807711e-06
2.3779466e-06
2.3780555e-06
2.3812634e-06
2.3888073e-06
2.3954215e-06
2.3884375e-06
2.366161e-06
2.349358e-06
2.3491898e-06
2.3526498e-06
2.3413457e-06
2.3322513e-06
2.3314387e-06
2.3218321e-06
2.3078421e-06
2.2992369e-06
2.2868754e-06
2.2694086e-06
2.2503698e-06
2.2317801e-06
2.216457e-06
2.1935316e-06
2.1553565e-06
2.1205167e-06
2.1022571e-06
2.0715067e-06
2.012619e-06
1.9666564e-06
1.966709e-06
1.9837277e-06
1.9826924e-06
1.9737789e-06
1.9799823e-06
2.0047192e-06
2.0354136e-06
2.0609914e-06
2.0824511e-06
2.1049287e-06
2.1295908e-06
2.1531756e-06
2.1755428e-06
2.200549e-06
2.229733e-06
2.2624021e-06
2.2978376e-06
2.335109e-06
2.3739489e-06
2.4150916e-06
2.4589929e-06
2.5060624e-06
2.5572745e-06
2.6135235e-06
2.6753121e-06
2.742836e-06
2.8159466e-06
2.8942636e-06
2.9772974e-06
3.0643101e-06
3.1541331e-06
3.2452074e-06
3.3364134e-06
3.4334774e-06
3.5972936e-06
4.2943421e-06
8.7478135e-06
3.529623e-05
0.0001392356
0.00034436161
0.00057021979
0.00075725245
0.00090247958
0.0010116413
0.001089865
0.001141677
0.0011710757
0.0011815713
0.0011762417
0.0011577891
0.0011285908
0.0010907372
0.0010460647
0.00099617605
0.00094247261
0.00088617235
0.00082831998
0.00076980946
0.00071139674
0.00065371721
0.00059730208
0.00054258626
0.00048991985
0.00043959323
0.00039181931
0.0003467562
0.00030450884
0.00026513226
0.00022866044
0.00019509938
0.00016441485
0.00013655015
0.00011143528
8.8991189e-05
6.9137151e-05
5.1794303e-05
3.6887631e-05
2.4382835e-05
1.4338459e-05
6.950099e-06
2.4565139e-06
5.4450523e-07
6.3232475e-08
3.0863623e-09
6.3248151e-10
3.146187e-06
2.4344593e-06
2.420688e-06
2.4215264e-06
2.4147705e-06
2.4303166e-06
2.4344411e-06
2.4374697e-06
2.4219191e-06
2.4205532e-06
2.42633e-06
2.4260477e-06
2.4193304e-06
2.4243698e-06
2.4230038e-06
2.4195081e-06
2.4208465e-06
2.4187425e-06
2.4176184e-06
2.4175369e-06
2.4157651e-06
2.4148598e-06
2.4127621e-06
2.4112656e-06
2.4099248e-06
2.4084549e-06
2.406706e-06
2.4044886e-06
2.402214e-06
2.3994827e-06
2.3957315e-06
2.3913472e-06
2.3881138e-06
2.3864912e-06
2.3845028e-06
2.3808558e-06
2.3780131e-06
2.3781006e-06
2.3812998e-06
2.3888839e-06
2.3956434e-06
2.3889198e-06
2.3667492e-06
2.3497741e-06
2.3493834e-06
2.3529674e-06
2.3418416e-06
2.3326744e-06
2.3318454e-06
2.322446e-06
2.3084341e-06
2.2997331e-06
2.2874881e-06
2.2700948e-06
2.2510363e-06
2.2323653e-06
2.2170316e-06
2.1943985e-06
2.1564442e-06
2.1213706e-06
2.1030058e-06
2.0730614e-06
2.0149891e-06
1.9682045e-06
1.9665345e-06
1.9829026e-06
1.9823572e-06
1.9733586e-06
1.9783146e-06
2.0016162e-06
2.031756e-06
2.0575538e-06
2.0792153e-06
2.1015347e-06
2.1258513e-06
2.1492907e-06
2.1716021e-06
2.1963007e-06
2.2250466e-06
2.2574438e-06
2.2929204e-06
2.3306137e-06
2.3701457e-06
2.4119858e-06
2.4564427e-06
2.5038552e-06
2.5550884e-06
2.6109896e-06
2.6721015e-06
2.7386953e-06
2.81072e-06
2.8878944e-06
2.9698211e-06
3.055874e-06
3.145028e-06
3.2358671e-06
3.3272983e-06
3.4242945e-06
3.5815607e-06
4.2196657e-06
8.2233106e-06
3.1915366e-05
0.00012651591
0.00032150508
0.00054521924
0.00073402649
0.00088131997
0.0009925084
0.0010726379
0.0011261994
0.0011571814
0.0011690972
0.001165033
0.0011477022
0.001119495
0.0010825165
0.0010386195
0.00098942419
0.00093634903
0.000880628
0.00082331979
0.00076532957
0.00070742132
0.00065023529
0.00059430457
0.0005400637
0.00048786072
0.00043797246
0.0003906017
0.0003459037
0.00030397982
0.00026488181
0.00022864108
0.00019526232
0.00016471153
0.00013693367
0.00011186193
8.9423104e-05
6.9542933e-05
5.2149391e-05
3.7175429e-05
2.4595314e-05
1.4476343e-05
7.0230524e-06
2.4839004e-06
5.5066736e-07
6.3931679e-08
3.1089755e-09
6.2568971e-10
3.1978641e-06
2.4346578e-06
2.4207278e-06
2.4215711e-06
2.4147309e-06
2.4302102e-06
2.4343752e-06
2.4375613e-06
2.422025e-06
2.4205024e-06
2.4262821e-06
2.4261173e-06
2.4193332e-06
2.424341e-06
2.4230429e-06
2.4195126e-06
2.4208457e-06
2.4187694e-06
2.4176222e-06
2.4175511e-06
2.4157803e-06
2.4148782e-06
2.4127847e-06
2.4112839e-06
2.4099483e-06
2.408485e-06
2.4067483e-06
2.4045394e-06
2.4022714e-06
2.3995502e-06
2.3958121e-06
2.3914192e-06
2.3881647e-06
2.386538e-06
2.3845726e-06
2.3809425e-06
2.3780813e-06
2.3781464e-06
2.3813361e-06
2.3889562e-06
2.3958679e-06
2.3894048e-06
2.3673492e-06
2.3501998e-06
2.3495827e-06
2.3532847e-06
2.3423706e-06
2.3330894e-06
2.3322537e-06
2.3230701e-06
2.3090439e-06
2.3002424e-06
2.2881095e-06
2.2707955e-06
2.2517209e-06
2.2329692e-06
2.217623e-06
2.1952892e-06
2.1575729e-06
2.1222601e-06
2.10377e-06
2.0746361e-06
2.0174184e-06
1.9698419e-06
1.9664214e-06
1.9820911e-06
1.9820299e-06
1.9729976e-06
1.9767492e-06
1.9985854e-06
2.0280844e-06
2.0540414e-06
2.0759095e-06
2.0981064e-06
2.1221062e-06
2.1453986e-06
2.1676447e-06
2.19204e-06
2.2203371e-06
2.2524067e-06
2.2878237e-06
2.3258059e-06
2.3658993e-06
2.408353e-06
2.453336e-06
2.5011011e-06
2.5523943e-06
2.6080001e-06
2.6684788e-06
2.7341604e-06
2.8050807e-06
2.8810529e-06
2.9617711e-06
3.0467209e-06
3.1350206e-06
3.225402e-06
3.3167906e-06
3.4132217e-06
3.5616131e-06
4.1258422e-06
7.5994653e-06
2.8165692e-05
0.00011284359
0.00029692531
0.00051813778
0.00070904955
0.00085879305
0.00097233454
0.0010546505
0.0011102043
0.0011429795
0.0011564958
0.00115385
0.001137768
0.0011106541
0.001074629
0.0010315629
0.00098309479
0.00093066207
0.00087551714
0.00081873537
0.00076123597
0.00070379372
0.00064705617
0.00059156023
0.0005377412
0.00048594534
0.00043644587
0.00038944084
0.00034508022
0.00030346028
0.00026462834
0.00022861223
0.00019541443
0.00016500025
0.00013731554
0.00011229592
8.9870852e-05
6.997098e-05
5.2531321e-05
3.7492461e-05
2.4836671e-05
1.4639404e-05
7.1138705e-06
2.5200005e-06
5.5919444e-07
6.493022e-08
3.1468022e-09
6.2230037e-10
3.2512232e-06
2.4348721e-06
2.4207691e-06
2.4216179e-06
2.4146911e-06
2.4301e-06
2.4343065e-06
2.4376542e-06
2.4221358e-06
2.4204514e-06
2.4262316e-06
2.4261888e-06
2.4193372e-06
2.4243107e-06
2.4230829e-06
2.4195178e-06
2.4208446e-06
2.4187973e-06
2.4176265e-06
2.4175658e-06
2.4157961e-06
2.4148971e-06
2.4128081e-06
2.4113026e-06
2.4099724e-06
2.4085158e-06
2.4067915e-06
2.4045915e-06
2.4023303e-06
2.3996195e-06
2.3958948e-06
2.3914938e-06
2.3882173e-06
2.3865857e-06
2.3846436e-06
2.3810315e-06
2.3781513e-06
2.3781929e-06
2.3813723e-06
2.389024e-06
2.3960952e-06
2.3898925e-06
2.3679609e-06
2.3506353e-06
2.3497882e-06
2.3536012e-06
2.3429418e-06
2.3334981e-06
2.3326598e-06
2.3237021e-06
2.3096719e-06
2.3007664e-06
2.2887397e-06
2.2715101e-06
2.2524232e-06
2.2335917e-06
2.2182302e-06
2.1962015e-06
2.1587412e-06
2.1231858e-06
2.1045483e-06
2.0762253e-06
2.0199025e-06
1.9715719e-06
1.9663767e-06
1.9812952e-06
1.9817067e-06
1.9726927e-06
1.9752898e-06
1.9956379e-06
2.0244107e-06
2.0504602e-06
2.0725328e-06
2.0946399e-06
2.1183521e-06
2.1414991e-06
2.163674e-06
2.1877737e-06
2.2156161e-06
2.2473099e-06
2.2825745e-06
2.3207189e-06
2.3612437e-06
2.4042191e-06
2.4496862e-06
2.497803e-06
2.5491901e-06
2.6045555e-06
2.6644559e-06
2.729262e-06
2.7990838e-06
2.8738217e-06
2.9532582e-06
3.0369879e-06
3.1242711e-06
3.2139905e-06
3.3050957e-06
3.4006325e-06
3.5391374e-06
4.0239453e-06
6.9446277e-06
2.4346158e-05
9.8825593e-05
0.0002711197
0.00048924134
0.00068248656
0.00083503514
0.00095122955
0.0010359883
0.0010937561
0.0011285166
0.0011437989
0.0011427126
0.0011279972
0.0011020718
0.0010670732
0.0010248897
0.00097717976
0.00092540141
0.00087082741
0.00081455241
0.00075751266
0.00070049692
0.00064416321
0.00058905522
0.00053561168
0.00048417923
0.0004350291
0.00038835573
0.00034430445
0.0003029666
0.00026438483
0.00022858296
0.00019556048
0.0001652811
0.00013769055
0.00011272576
9.0319058e-05
7.0405308e-05
5.2925117e-05
3.7825614e-05
2.5096232e-05
1.4819869e-05
7.2179877e-06
2.5630301e-06
5.697088e-07
6.6191044e-08
3.1991216e-09
6.2311432e-10
3.3063071e-06
2.4351033e-06
2.420812e-06
2.421667e-06
2.4146515e-06
2.4299858e-06
2.4342346e-06
2.4377484e-06
2.4222514e-06
2.4204004e-06
2.4261782e-06
2.4262624e-06
2.4193426e-06
2.4242788e-06
2.4231238e-06
2.4195236e-06
2.4208431e-06
2.4188262e-06
2.417631e-06
2.4175809e-06
2.4158125e-06
2.4149164e-06
2.4128323e-06
2.4113218e-06
2.4099969e-06
2.4085472e-06
2.4068356e-06
2.404645e-06
2.4023908e-06
2.3996906e-06
2.3959797e-06
2.3915709e-06
2.3882717e-06
2.3866345e-06
2.3847159e-06
2.3811226e-06
2.3782233e-06
2.3782403e-06
2.3814086e-06
2.3890872e-06
2.3963252e-06
2.390383e-06
2.3685843e-06
2.3510813e-06
2.3500001e-06
2.3539163e-06
2.3432145e-06
2.3339068e-06
2.3330601e-06
2.3243389e-06
2.310318e-06
2.3013066e-06
2.2893793e-06
2.2722383e-06
2.2531429e-06
2.2342324e-06
2.2188523e-06
2.1971334e-06
2.159948e-06
2.1241487e-06
2.1053398e-06
2.0778235e-06
2.0224366e-06
1.9733968e-06
1.9664073e-06
1.980518e-06
1.9813843e-06
1.9724401e-06
1.9739393e-06
1.9927839e-06
2.0207475e-06
2.0468176e-06
2.0690854e-06
2.0911318e-06
2.1145859e-06
2.1375916e-06
2.1596929e-06
2.1835079e-06
2.2108949e-06
2.2421725e-06
2.2772013e-06
2.315389e-06
2.356218e-06
2.3996178e-06
2.4455156e-06
2.4939725e-06
2.5454807e-06
2.6006604e-06
2.6600452e-06
2.7240281e-06
2.7927794e-06
2.8662769e-06
2.9443864e-06
3.0268065e-06
3.112936e-06
3.2018102e-06
3.2924188e-06
3.3868712e-06
3.5155322e-06
3.9226452e-06
6.3093823e-06
2.0676159e-05
8.4970796e-05
0.00024454556
0.0004587576
0.00065445003
0.00081013625
0.00092926133
0.0010166987
0.0010768847
0.001113809
0.0011310134
0.0011316216
0.0011183879
0.0010937462
0.0010598495
0.0010186042
0.00097168854
0.00092058181
0.00086657857
0.00081079481
0.00075418637
0.00069755899
0.00064158434
0.00058681602
0.00053369906
0.00048258294
0.00043373894
0.00038735933
0.00034358571
0.00030250489
0.00026415489
0.00022855507
0.00019570127
0.00016555472
0.00013806
0.00011315427
9.0771567e-05
7.084994e-05
5.3334525e-05
3.8178094e-05
2.537645e-05
1.5019291e-05
7.3360821e-06
2.6131e-06
5.8218006e-07
6.7702857e-08
3.2645116e-09
6.2710642e-10
3.3631675e-06
2.4353526e-06
2.4208565e-06
2.4217184e-06
2.414612e-06
2.4298676e-06
2.4341595e-06
2.4378436e-06
2.4223723e-06
2.4203496e-06
2.4261216e-06
2.4263381e-06
2.4193497e-06
2.4242451e-06
2.4231655e-06
2.4195302e-06
2.4208411e-06
2.4188562e-06
2.4176359e-06
2.4175963e-06
2.4158294e-06
2.4149362e-06
2.4128573e-06
2.4113414e-06
2.4100219e-06
2.4085792e-06
2.4068807e-06
2.4046997e-06
2.4024528e-06
2.3997635e-06
2.3960667e-06
2.3916507e-06
2.3883281e-06
2.3866844e-06
2.3847894e-06
2.3812159e-06
2.3782972e-06
2.3782887e-06
2.381445e-06
2.389146e-06
2.3965575e-06
2.3908764e-06
2.3692194e-06
2.3515379e-06
2.3502191e-06
2.3542312e-06
2.3437456e-06
2.3343251e-06
2.3334516e-06
2.3249773e-06
2.3109812e-06
2.3018639e-06
2.2900292e-06
2.2729799e-06
2.2538795e-06
2.2348913e-06
2.2194883e-06
2.1980826e-06
2.1611915e-06
2.1251496e-06
2.1061438e-06
2.0794254e-06
2.0250154e-06
1.9753188e-06
1.9665201e-06
1.9797628e-06
1.9810596e-06
1.9722354e-06
1.9726992e-06
1.9900334e-06
2.0171077e-06
2.043122e-06
2.0655685e-06
2.0875792e-06
2.1108044e-06
2.1336754e-06
2.155704e-06
2.1792484e-06
2.2061843e-06
2.2370141e-06
2.2717336e-06
2.309855e-06
2.3508658e-06
2.3945889e-06
2.4408548e-06
2.4896295e-06
2.5412781e-06
2.596324e-06
2.6552606e-06
2.7184853e-06
2.786213e-06
2.8584879e-06
2.9352518e-06
3.0163008e-06
3.1011661e-06
3.1890357e-06
3.2789605e-06
3.3722389e-06
3.4918309e-06
3.8279613e-06
5.7277035e-06
1.7307441e-05
7.1710892e-05
0.00021766131
0.00042692038
0.00062503948
0.00078417852
0.0009064937
0.00099682651
0.0010596184
0.0010988716
0.0011181439
0.0011205751
0.0011089344
0.0010856709
0.0010529533
0.0010127053
0.00096662488
0.00091621246
0.00086278517
0.0008074817
0.00075127966
0.0006950044
0.00063934429
0.00058486602
0.000532024
0.00048117339
0.00043258789
0.00038645943
0.00034292715
0.00030207406
0.00026393372
0.00022852078
0.00019582686
0.00016580979
0.00013841193
0.00011356951
9.1217061e-05
7.1294583e-05
5.3750636e-05
3.8542609e-05
2.5671789e-05
1.5233943e-05
7.4661321e-06
2.669479e-06
5.9645824e-07
6.9449998e-08
3.3423765e-09
6.3431023e-10
3.4218503e-06
2.4356213e-06
2.4209026e-06
2.4217723e-06
2.4145729e-06
2.4297452e-06
2.4340809e-06
2.4379399e-06
2.4224985e-06
2.4202992e-06
2.4260618e-06
2.4264158e-06
2.4193585e-06
2.4242096e-06
2.4232082e-06
2.4195377e-06
2.4208387e-06
2.4188872e-06
2.4176412e-06
2.4176122e-06
2.4158471e-06
2.4149564e-06
2.4128832e-06
2.4113614e-06
2.4100474e-06
2.4086118e-06
2.4069267e-06
2.4047558e-06
2.4025164e-06
2.3998385e-06
2.396156e-06
2.3917331e-06
2.3883864e-06
2.3867354e-06
2.3848643e-06
2.3813114e-06
2.3783732e-06
2.3783382e-06
2.3814814e-06
2.3892006e-06
2.3967917e-06
2.3913731e-06
2.3698662e-06
2.3520057e-06
2.3504455e-06
2.3545445e-06
2.3442826e-06
2.3347663e-06
2.3338332e-06
2.3256135e-06
2.3116597e-06
2.3024392e-06
2.2906905e-06
2.2737349e-06
2.254633e-06
2.2355682e-06
2.2201374e-06
2.199047e-06
2.1624702e-06
2.1261893e-06
2.1069601e-06
2.0810262e-06
2.0276333e-06
1.9773388e-06
1.9667218e-06
1.9790338e-06
1.9807303e-06
1.972074e-06
1.9715699e-06
1.9873953e-06
2.0135048e-06
2.0393836e-06
2.0619849e-06
2.0839799e-06
2.1070045e-06
2.1297496e-06
2.1517091e-06
2.1750001e-06
2.2014946e-06
2.2318533e-06
2.2662011e-06
2.304157e-06
2.3452335e-06
2.3891783e-06
2.4357421e-06
2.4848028e-06
2.5366021e-06
2.5915612e-06
2.6501184e-06
2.7126589e-06
2.7794261e-06
2.850518e-06
2.9259431e-06
3.0055868e-06
3.0891051e-06
3.1758362e-06
3.2649149e-06
3.3569914e-06
3.4687081e-06
3.7434432e-06
5.2191082e-06
1.4332377e-05
5.9394831e-05
0.00019092911
0.0003939758
0.00059434216
0.00075723302
0.00088298183
0.00097640882
0.0010419773
0.0010837108
0.001105187
0.0011095633
0.0010996243
0.0010778338
0.0010463754
0.0010071892
0.00096199181
0.00091230441
0.00085946647
0.00080464008
0.00074882597
0.00069287134
0.00063748394
0.00058324665
0.00053062651
0.00047998744
0.00043160832
0.00038568302
0.00034235
0.00030168956
0.00026373136
0.00022848536
0.00019593851
0.00016604448
0.00013874233
0.00011396611
9.164956e-05
7.1733288e-05
5.4167992e-05
3.8914525e-05
2.5978642e-05
1.5461349e-05
7.6067837e-06
2.7316801e-06
6.1244515e-07
7.1421773e-08
3.4320822e-09
6.4447757e-10
3.4824171e-06
2.4359109e-06
2.4209505e-06
2.4218287e-06
2.4145343e-06
2.4296186e-06
2.4339986e-06
2.438037e-06
2.4226304e-06
2.4202496e-06
2.4259983e-06
2.4264956e-06
2.4193693e-06
2.424172e-06
2.4232518e-06
2.4195461e-06
2.4208358e-06
2.4189194e-06