/*--------------------------------*- C++ -*----------------------------------*\
| =========                 |                                                 |
| \\      /  F ield         | OpenFOAM: The Open Source CFD Toolbox           |
|  \\    /   O peration     | Version:  2506                                  |
|   \\  /    A nd           | Website:  www.openfoam.com                      |
|    \\/     M anipulation  |                                                 |
\*---------------------------------------------------------------------------*/
FoamFile
{
    version     2.0;
    format      ascii;
    arch        "LSB;label=32;scalar=64";
    class       volScalarField;
    location    "0.009";
    object      alphat;
}
// * * * * * * * * * * * * * * * * * * * * * * * * * * * * * * * * * * * * * //

dimensions      [1 -1 -1 0 0 0 0];

internalField   nonuniform List<scalar> 
13763
(
0.00078771506
0.00062279329
0.00045407176
0.00026783857
0.00010258779
2.2655917e-05
7.550936e-06
6.6228132e-06
6.6017325e-06
6.6047598e-06
6.6129422e-06
6.6147509e-06
6.6103207e-06
6.6051729e-06
6.605136e-06
6.6190226e-06
6.6444446e-06
6.6534194e-06
6.649421e-06
6.6378991e-06
6.6248542e-06
6.614542e-06
6.6069837e-06
6.600439e-06
6.5938089e-06
6.5882498e-06
6.585045e-06
6.5847994e-06
6.5871819e-06
6.5904364e-06
6.5922767e-06
6.5924831e-06
6.591494e-06
6.5908179e-06
6.5901647e-06
6.5902101e-06
6.5896065e-06
6.5880171e-06
6.590324e-06
6.5988686e-06
6.6057475e-06
6.5988524e-06
6.5835308e-06
6.5691624e-06
6.5595666e-06
6.5538686e-06
6.5507613e-06
6.5509478e-06
0.00078774402
0.00062275726
0.00045394301
0.00026768835
0.0001025129
2.2640477e-05
7.5501155e-06
6.6232713e-06
6.6020115e-06
6.6051167e-06
6.6132263e-06
6.6149649e-06
6.6105068e-06
6.6053126e-06
6.6052329e-06
6.6191941e-06
6.6444128e-06
6.6538438e-06
6.6494215e-06
6.6378948e-06
6.624952e-06
6.6144763e-06
6.6069508e-06
6.6003942e-06
6.5937911e-06
6.5882712e-06
6.5850836e-06
6.5848472e-06
6.5872086e-06
6.5904008e-06
6.5923128e-06
6.5924828e-06
6.5914954e-06
6.5908208e-06
6.5901689e-06
6.5902161e-06
6.5896087e-06
6.5880172e-06
6.5903283e-06
6.5988745e-06
6.6057575e-06
6.5988762e-06
6.583576e-06
6.5692759e-06
6.5597815e-06
6.5542971e-06
6.5515464e-06
6.551819e-06
6.5554355e-06
6.5621615e-06
0.00078791833
0.00062278923
0.00045385003
0.00026755846
0.00010244972
2.2630715e-05
7.550967e-06
6.623944e-06
6.6027366e-06
6.6057431e-06
6.6137276e-06
6.6153553e-06
6.6108649e-06
6.6055894e-06
6.6054296e-06
6.619259e-06
6.6445477e-06
6.6541716e-06
6.649316e-06
6.637989e-06
6.6248706e-06
6.6143811e-06
6.6068232e-06
6.6002589e-06
6.5936866e-06
6.5882014e-06
6.5850251e-06
6.5847907e-06
6.5871504e-06
6.5903568e-06
6.5922882e-06
6.5924595e-06
6.5914903e-06
6.590825e-06
6.590175e-06
6.5902178e-06
6.5896091e-06
6.5880147e-06
6.5903248e-06
6.5988689e-06
6.605751e-06
6.5988746e-06
6.5835887e-06
6.5693135e-06
6.5598666e-06
6.5544691e-06
6.5519031e-06
6.5523618e-06
6.5562685e-06
6.5629192e-06
6.569582e-06
0.00078803031
0.00062273237
0.00045367304
0.00026737692
0.00010237748
2.2624579e-05
7.5531125e-06
6.6250074e-06
6.603654e-06
6.6065411e-06
6.6143945e-06
6.6159013e-06
6.6113794e-06
6.6059851e-06
6.6057011e-06
6.6194238e-06
6.6446356e-06
6.6543134e-06
6.649308e-06
6.6380549e-06
6.624787e-06
6.6142282e-06
6.6066456e-06
6.6000836e-06
6.5935588e-06
6.5881191e-06
6.584962e-06
6.5847394e-06
6.5871088e-06
6.5903328e-06
6.5922857e-06
6.5924522e-06
6.5914883e-06
6.5908262e-06
6.590179e-06
6.5902242e-06
6.5896155e-06
6.5880223e-06
6.5903358e-06
6.5988817e-06
6.6057632e-06
6.5988836e-06
6.5835968e-06
6.569327e-06
6.5598941e-06
6.5545252e-06
6.552025e-06
6.552568e-06
6.5567077e-06
6.5634519e-06
6.5702338e-06
6.575105e-06
6.5780169e-06
0.00078805967
0.00062257028
0.00045339792
0.00026713391
0.00010229116
2.2620813e-05
7.5562479e-06
6.6264122e-06
6.6047905e-06
6.6075029e-06
6.6152251e-06
6.6165921e-06
6.6120233e-06
6.6064725e-06
6.6060251e-06
6.6195576e-06
6.6447438e-06
6.6544025e-06
6.649301e-06
6.6381161e-06
6.6246919e-06
6.6140656e-06
6.6064407e-06
6.599893e-06
6.5934309e-06
6.5880503e-06
6.5849206e-06
6.5847068e-06
6.5870827e-06
6.5903196e-06
6.5922773e-06
6.5924459e-06
6.5914886e-06
6.590829e-06
6.5901847e-06
6.5902297e-06
6.5896202e-06
6.588026e-06
6.5903392e-06
6.5988837e-06
6.6057639e-06
6.5988829e-06
6.5835953e-06
6.5693289e-06
6.5599001e-06
6.5545399e-06
6.5520585e-06
6.5526281e-06
6.5568563e-06
6.563656e-06
6.570525e-06
6.5757597e-06
6.5787055e-06
6.5792963e-06
6.5795108e-06
0.0007879836
0.00062228303
0.00045300636
0.000266816
0.0001021844
2.2617763e-05
7.5600178e-06
6.6281252e-06
6.606057e-06
6.6085901e-06
6.6161774e-06
6.6174168e-06
6.6127883e-06
6.6070401e-06
6.6063747e-06
6.6197073e-06
6.6447926e-06
6.6544758e-06
6.6493131e-06
6.6381389e-06
6.6246159e-06
6.6138832e-06
6.606219e-06
6.5996902e-06
6.5933057e-06
6.5880005e-06
6.5849045e-06
6.5846995e-06
6.5870802e-06
6.5903229e-06
6.59229e-06
6.5924536e-06
6.5914954e-06
6.5908352e-06
6.5901914e-06
6.5902378e-06
6.5896271e-06
6.5880332e-06
6.5903473e-06
6.5988924e-06
6.6057685e-06
6.598883e-06
6.5835928e-06
6.569327e-06
6.5598998e-06
6.5545419e-06
6.5520658e-06
6.5526423e-06
6.5568945e-06
6.5637126e-06
6.5706047e-06
6.5760015e-06
6.5790368e-06
6.5798939e-06
6.5800777e-06
6.5797656e-06
6.5797633e-06
0.00078777448
0.00062184721
0.00045247698
0.00026640708
0.00010204917
2.2613156e-05
7.5639786e-06
6.6299931e-06
6.6074549e-06
6.6097648e-06
6.6172223e-06
6.6183568e-06
6.6136439e-06
6.6076594e-06
6.6067373e-06
6.6198296e-06
6.6448532e-06
6.6545133e-06
6.6493199e-06
6.6381618e-06
6.6245226e-06
6.613692e-06
6.6059723e-06
6.5994712e-06
6.5931805e-06
6.5879673e-06
6.5849137e-06
6.5847124e-06
6.5870871e-06
6.5903297e-06
6.5922947e-06
6.5924572e-06
6.5915008e-06
6.5908414e-06
6.5901985e-06
6.5902432e-06
6.5896303e-06
6.5880342e-06
6.5903472e-06
6.5988924e-06
6.6057672e-06
6.59888e-06
6.5835896e-06
6.5693241e-06
6.5598981e-06
6.5545416e-06
6.5520676e-06
6.5526459e-06
6.556903e-06
6.5637253e-06
6.5706218e-06
6.5760571e-06
6.5791171e-06
6.580088e-06
6.5802987e-06
6.5802421e-06
6.5802302e-06
6.5799333e-06
6.5797758e-06
6.5798786e-06
0.00078740071
0.00062123627
0.00045178532
0.00026588836
0.00010187565
2.2603958e-05
7.5676169e-06
6.6319244e-06
6.6088687e-06
6.6109672e-06
6.618312e-06
6.6193789e-06
6.614567e-06
6.608316e-06
6.6070981e-06
6.6199621e-06
6.6448609e-06
6.6545328e-06
6.6493411e-06
6.6381562e-06
6.624426e-06
6.6134687e-06
6.6056939e-06
6.599224e-06
6.5930431e-06
6.587938e-06
6.584932e-06
6.5847336e-06
6.5870998e-06
6.5903393e-06
6.592303e-06
6.5924627e-06
6.5915058e-06
6.5908466e-06
6.5902044e-06
6.5902481e-06
6.5896337e-06
6.5880376e-06
6.5903514e-06
6.5988966e-06
6.6057683e-06
6.5988776e-06
6.5835863e-06
6.5693214e-06
6.5598963e-06
6.5545412e-06
6.5520679e-06
6.5526467e-06
6.556905e-06
6.5637286e-06
6.5706254e-06
6.576067e-06
6.5791315e-06
6.5801247e-06
6.5803426e-06
6.5803667e-06
6.5803687e-06
6.5803074e-06
6.5802847e-06
6.5803019e-06
6.5800666e-06
6.5800705e-06
0.00078682619
0.00062041909
0.00045090284
0.00026523795
0.00010165146
2.2586444e-05
7.570356e-06
6.6337378e-06
6.6102715e-06
6.6121596e-06
6.6194084e-06
6.620444e-06
6.6155112e-06
6.6089781e-06
6.6074449e-06
6.6200564e-06
6.6448809e-06
6.6545317e-06
6.6493385e-06
6.6381424e-06
6.6242954e-06
6.6132177e-06
6.605374e-06
6.5989418e-06
6.5928863e-06
6.5879052e-06
6.5849557e-06
6.5847596e-06
6.5871125e-06
6.5903455e-06
6.5923053e-06
6.5924634e-06
6.591508e-06
6.5908504e-06
6.590209e-06
6.5902515e-06
6.5896366e-06
6.5880398e-06
6.5903537e-06
6.5988983e-06
6.6057685e-06
6.5988743e-06
6.5835832e-06
6.5693186e-06
6.559895e-06
6.5545406e-06
6.5520671e-06
6.5526468e-06
6.556906e-06
6.5637301e-06
6.5706268e-06
6.5760689e-06
6.5791338e-06
6.5801295e-06
6.5803487e-06
6.5803851e-06
6.5803902e-06
6.5803839e-06
6.5803816e-06
6.5803841e-06
6.5803496e-06
6.5803254e-06
0.00078600956
0.00061935999
0.00044979673
0.00026443002
0.00010136147
2.2556038e-05
7.5715992e-06
6.6353329e-06
6.6115537e-06
6.6132885e-06
6.6204668e-06
6.6214996e-06
6.6164492e-06
6.6096256e-06
6.6077634e-06
6.6201523e-06
6.6448531e-06
6.6545025e-06
6.6493363e-06
6.6380919e-06
6.6241388e-06
6.6129185e-06
6.6050035e-06
6.5986133e-06
6.5926996e-06
6.5878601e-06
6.5849761e-06
6.5847842e-06
6.5871244e-06
6.5903493e-06
6.5923061e-06
6.5924637e-06
6.59151e-06
6.5908537e-06
6.5902124e-06
6.5902555e-06
6.58964e-06
6.5880428e-06
6.5903569e-06
6.5989018e-06
6.6057695e-06
6.5988717e-06
6.5835796e-06
6.5693155e-06
6.5598932e-06
6.5545394e-06
6.5520665e-06
6.5526469e-06
6.5569072e-06
6.5637316e-06
6.5706279e-06
6.5760698e-06
6.5791341e-06
6.5801302e-06
6.5803494e-06
6.5803869e-06
6.5803926e-06
6.5803928e-06
6.5803927e-06
6.5803931e-06
6.5803903e-06
6.5803869e-06
0.00078490436
0.00061801762
0.00044842916
0.00026343474
0.00010098757
2.2507544e-05
7.5708959e-06
6.6365694e-06
6.612704e-06
6.6143207e-06
6.62145e-06
6.6224958e-06
6.617335e-06
6.6102229e-06
6.6080395e-06
6.6201951e-06
6.6448392e-06
6.6544682e-06
6.6492864e-06
6.63801e-06
6.6239354e-06
6.612574e-06
6.6045746e-06
6.5982305e-06
6.5924761e-06
6.5877986e-06
6.5849935e-06
6.5848091e-06
6.5871348e-06
6.5903512e-06
6.5923064e-06
6.5924642e-06
6.5915121e-06
6.5908565e-06
6.5902155e-06
6.5902587e-06
6.5896419e-06
6.5880443e-06
6.5903601e-06
6.5989053e-06
6.6057705e-06
6.5988689e-06
6.5835752e-06
6.5693121e-06
6.5598911e-06
6.5545381e-06
6.5520661e-06
6.5526476e-06
6.5569085e-06
6.5637327e-06
6.5706293e-06
6.5760707e-06
6.5791346e-06
6.5801304e-06
6.5803495e-06
6.5803872e-06
6.5803928e-06
6.5803935e-06
6.5803936e-06
6.5803938e-06
6.5803936e-06
6.5803933e-06
0.00078345728
0.00061634431
0.00044675641
0.00026221677
0.00010050894
2.2435032e-05
7.567663e-06
6.6374367e-06
6.6136557e-06
6.6152135e-06
6.6223249e-06
6.6234019e-06
6.6181445e-06
6.6107531e-06
6.6082644e-06
6.6202327e-06
6.6447913e-06
6.6543981e-06
6.6492118e-06
6.6378743e-06
6.6236862e-06
6.6121662e-06
6.604074e-06
6.5977804e-06
6.5922058e-06
6.5877143e-06
6.5850027e-06
6.584831e-06
6.5871449e-06
6.5903529e-06
6.5923073e-06
6.5924654e-06
6.5915144e-06
6.5908586e-06
6.5902181e-06
6.5902606e-06
6.5896437e-06
6.5880458e-06
6.5903636e-06
6.598909e-06
6.6057709e-06
6.5988655e-06
6.5835703e-06
6.5693083e-06
6.5598889e-06
6.554537e-06
6.5520658e-06
6.5526484e-06
6.5569097e-06
6.5637345e-06
6.570631e-06
6.5760717e-06
6.579135e-06
6.5801303e-06
6.5803497e-06
6.5803874e-06
6.5803928e-06
6.5803936e-06
6.5803937e-06
6.5803938e-06
6.5803937e-06
6.5803936e-06
0.00078160908
0.00061428557
0.00044472878
0.00026073666
9.9902076e-05
2.2332149e-05
7.5614625e-06
6.6378763e-06
6.6144411e-06
6.6159534e-06
6.6230633e-06
6.6241874e-06
6.6188418e-06
6.6111917e-06
6.6084319e-06
6.620221e-06
6.644754e-06
6.6543127e-06
6.6490759e-06
6.6376809e-06
6.6233773e-06
6.6116905e-06
6.6034889e-06
6.5972502e-06
6.591881e-06
6.5876048e-06
6.5850059e-06
6.5848533e-06
6.5871542e-06
6.5903553e-06
6.5923085e-06
6.5924668e-06
6.591516e-06
6.5908604e-06
6.59022e-06
6.5902624e-06
6.589645e-06
6.5880471e-06
6.5903665e-06
6.5989121e-06
6.6057711e-06
6.5988617e-06
6.5835652e-06
6.5693043e-06
6.5598867e-06
6.5545361e-06
6.5520658e-06
6.5526491e-06
6.5569113e-06
6.5637365e-06
6.5706325e-06
6.5760726e-06
6.5791354e-06
6.5801306e-06
6.5803498e-06
6.5803874e-06
6.5803927e-06
6.5803937e-06
6.5803937e-06
6.5803937e-06
6.5803936e-06
6.5803937e-06
0.00077929311
0.0006117799
0.00044229033
0.00025894843
9.914068e-05
2.2192131e-05
7.5519754e-06
6.6380133e-06
6.615035e-06
6.6165329e-06
6.6236542e-06
6.6248383e-06
6.6194218e-06
6.6115382e-06
6.6085423e-06
6.6202032e-06
6.6446991e-06
6.65418e-06
6.6488846e-06
6.6374139e-06
6.6229994e-06
6.6111285e-06
6.6028001e-06
6.5966235e-06
6.5914901e-06
6.5874646e-06
6.5850008e-06
6.5848741e-06
6.5871649e-06
6.590359e-06
6.5923102e-06
6.5924676e-06
6.5915171e-06
6.590862e-06
6.5902217e-06
6.5902641e-06
6.5896462e-06
6.5880483e-06
6.5903692e-06
6.5989154e-06
6.6057715e-06
6.5988574e-06
6.5835597e-06
6.5693001e-06
6.5598845e-06
6.554535e-06
6.5520656e-06
6.55265e-06
6.5569131e-06
6.5637386e-06
6.5706338e-06
6.5760734e-06
6.5791359e-06
6.5801309e-06
6.5803499e-06
6.5803873e-06
6.5803928e-06
6.5803937e-06
6.5803937e-06
6.5803937e-06
6.5803937e-06
6.5803936e-06
0.00077643524
0.00060875743
0.00043937795
0.00025679953
9.8195261e-05
2.2007899e-05
7.5388741e-06
6.6378698e-06
6.6154982e-06
6.6169679e-06
6.6240959e-06
6.6253463e-06
6.6198714e-06
6.6117873e-06
6.6086002e-06
6.6201593e-06
6.6446479e-06
6.6540011e-06
6.648617e-06
6.6370586e-06
6.6225358e-06
6.6104622e-06
6.6019857e-06
6.5958811e-06
6.5910228e-06
6.5872906e-06
6.5849891e-06
6.5848979e-06
6.5871773e-06
6.5903631e-06
6.5923106e-06
6.5924677e-06
6.5915182e-06
6.5908639e-06
6.5902224e-06
6.5902651e-06
6.5896466e-06
6.5880494e-06
6.590372e-06
6.5989187e-06
6.6057717e-06
6.5988527e-06
6.5835545e-06
6.5692962e-06
6.5598821e-06
6.554534e-06
6.5520653e-06
6.5526509e-06
6.5569146e-06
6.5637399e-06
6.5706352e-06
6.5760744e-06
6.5791363e-06
6.580131e-06
6.5803497e-06
6.5803872e-06
6.5803928e-06
6.5803937e-06
6.5803939e-06
6.5803939e-06
6.5803938e-06
6.5803937e-06
0.00077295225
0.00060513996
0.00043592033
0.00025423021
9.7032667e-05
2.1771944e-05
7.5218368e-06
6.6375766e-06
6.6158299e-06
6.617273e-06
6.6244049e-06
6.6257255e-06
6.6202087e-06
6.6119547e-06
6.6086128e-06
6.6201153e-06
6.6445929e-06
6.6537536e-06
6.6482595e-06
6.6365926e-06
6.6219596e-06
6.6096622e-06
6.6010164e-06
6.595002e-06
6.5904664e-06
6.5870775e-06
6.5849708e-06
6.5849241e-06
6.5871909e-06
6.5903663e-06
6.5923105e-06
6.5924682e-06
6.59152e-06
6.5908653e-06
6.5902226e-06
6.5902652e-06
6.5896467e-06
6.5880505e-06
6.5903748e-06
6.5989222e-06
6.6057714e-06
6.5988482e-06
6.583549e-06
6.5692915e-06
6.5598791e-06
6.5545321e-06
6.5520648e-06
6.552652e-06
6.5569161e-06
6.5637418e-06
6.5706369e-06
6.5760756e-06
6.5791368e-06
6.5801311e-06
6.5803497e-06
6.5803872e-06
6.5803928e-06
6.5803937e-06
6.5803938e-06
6.5803939e-06
6.5803937e-06
6.5803936e-06
0.00076875168
0.00060083939
0.00043183616
0.00025117357
9.5616715e-05
2.1476203e-05
7.5004339e-06
6.6371623e-06
6.6160866e-06
6.6174764e-06
6.6246012e-06
6.6259922e-06
6.6204435e-06
6.6120495e-06
6.6085909e-06
6.620074e-06
6.6445411e-06
6.653426e-06
6.647793e-06
6.6359818e-06
6.6212317e-06
6.6086889e-06
6.59986e-06
6.5939664e-06
6.5898122e-06
6.586823e-06
6.5849478e-06
6.5849555e-06
6.5872062e-06
6.5903692e-06
6.5923099e-06
6.5924687e-06
6.5915212e-06
6.5908661e-06
6.5902226e-06
6.5902658e-06
6.589647e-06
6.5880516e-06
6.5903771e-06
6.5989255e-06
6.6057717e-06
6.5988436e-06
6.5835428e-06
6.5692867e-06
6.5598761e-06
6.5545305e-06
6.5520643e-06
6.5526528e-06
6.5569179e-06
6.563744e-06
6.5706386e-06
6.5760764e-06
6.5791372e-06
6.5801314e-06
6.5803498e-06
6.5803872e-06
6.5803928e-06
6.5803936e-06
6.5803937e-06
6.5803937e-06
6.5803937e-06
6.5803937e-06
0.00076373
0.00059575741
0.0004270338
0.00024755411
9.3907607e-05
2.1111951e-05
7.4741325e-06
6.6366973e-06
6.6162757e-06
6.6176034e-06
6.6247131e-06
6.626175e-06
6.6206061e-06
6.6120935e-06
6.6085426e-06
6.6200479e-06
6.6444982e-06
6.6530027e-06
6.6471862e-06
6.6351745e-06
6.6202879e-06
6.6074871e-06
6.5984792e-06
6.5927592e-06
6.589055e-06
6.5865251e-06
6.5849217e-06
6.5849947e-06
6.587227e-06
6.5903739e-06
6.5923096e-06
6.5924691e-06
6.5915218e-06
6.5908666e-06
6.5902231e-06
6.5902669e-06
6.5896476e-06
6.588052e-06
6.5903802e-06
6.5989292e-06
6.6057721e-06
6.5988385e-06
6.5835364e-06
6.5692817e-06
6.5598733e-06
6.5545292e-06
6.5520643e-06
6.5526539e-06
6.5569201e-06
6.5637463e-06
6.57064e-06
6.5760775e-06
6.5791379e-06
6.5801316e-06
6.5803498e-06
6.5803872e-06
6.5803929e-06
6.5803935e-06
6.5803937e-06
6.5803937e-06
6.5803937e-06
6.5803937e-06
0.00075777219
0.00058978366
0.00042140976
0.00024328758
9.1862264e-05
2.0669923e-05
7.4422871e-06
6.6361695e-06
6.6164312e-06
6.6176785e-06
6.6247637e-06
6.6262967e-06
6.6207123e-06
6.6120969e-06
6.6084777e-06
6.6200464e-06
6.6444692e-06
6.6524661e-06
6.6464042e-06
6.6340971e-06
6.6190384e-06
6.6059845e-06
6.5968413e-06
6.5913788e-06
6.5881996e-06
6.5861852e-06
6.5848955e-06
6.5850454e-06
6.5872541e-06
6.5903788e-06
6.592308e-06
6.592468e-06
6.5915221e-06
6.5908669e-06
6.5902231e-06
6.5902671e-06
6.5896473e-06
6.5880523e-06
6.5903835e-06
6.5989337e-06
6.6057724e-06
6.5988325e-06
6.5835295e-06
6.5692764e-06
6.5598704e-06
6.5545276e-06
6.5520638e-06
6.552655e-06
6.5569217e-06
6.5637479e-06
6.5706416e-06
6.5760787e-06
6.5791383e-06
6.5801314e-06
6.5803496e-06
6.5803872e-06
6.5803929e-06
6.5803937e-06
6.5803939e-06
6.5803938e-06
6.5803937e-06
6.5803937e-06
0.00075074957
0.0005827948
0.00041484714
0.00023827984
8.9434059e-05
2.0140548e-05
7.4042333e-06
6.635578e-06
6.6165623e-06
6.6177228e-06
6.6247791e-06
6.6263834e-06
6.6207901e-06
6.6120775e-06
6.6084012e-06
6.6200817e-06
6.6444654e-06
6.6517973e-06
6.6453921e-06
6.632646e-06
6.6173618e-06
6.6040936e-06
6.5949215e-06
6.5898424e-06
6.5872626e-06
6.5858074e-06
6.5848712e-06
6.5851104e-06
6.5872878e-06
6.590385e-06
6.5923062e-06
6.5924666e-06
6.5915225e-06
6.5908673e-06
6.5902234e-06
6.5902665e-06
6.5896464e-06
6.5880535e-06
6.5903876e-06
6.5989383e-06
6.605773e-06
6.5988272e-06
6.5835227e-06
6.5692712e-06
6.5598669e-06
6.5545258e-06
6.5520631e-06
6.5526558e-06
6.5569235e-06
6.5637502e-06
6.5706437e-06
6.57608e-06
6.5791389e-06
6.5801315e-06
6.5803497e-06
6.5803873e-06
6.580393e-06
6.5803937e-06
6.5803938e-06
6.5803938e-06
6.5803937e-06
6.5803936e-06
0.00074251702
0.00057465035
0.00040721275
0.00023242562
8.657293e-05
1.9514248e-05
7.3593722e-06
6.6348776e-06
6.6166829e-06
6.6177529e-06
6.6247801e-06
6.6264528e-06
6.6208502e-06
6.612041e-06
6.6083209e-06
6.6201707e-06
6.6444914e-06
6.6509674e-06
6.6440819e-06
6.6306926e-06
6.615112e-06
6.6017236e-06
6.592714e-06
6.5881919e-06
6.5862709e-06
6.5853962e-06
6.5848487e-06
6.585191e-06
6.5873284e-06
6.5903912e-06
6.5923035e-06
6.5924646e-06
6.5915229e-06
6.5908674e-06
6.5902223e-06
6.5902656e-06
6.5896458e-06
6.5880545e-06
6.5903912e-06
6.5989429e-06
6.6057732e-06
6.5988218e-06
6.5835152e-06
6.5692652e-06
6.5598637e-06
6.5545243e-06
6.5520631e-06
6.5526571e-06
6.5569258e-06
6.5637531e-06
6.5706459e-06
6.5760813e-06
6.5791395e-06
6.5801316e-06
6.5803497e-06
6.5803874e-06
6.580393e-06
6.5803937e-06
6.5803937e-06
6.5803936e-06
6.5803936e-06
6.5803936e-06
0.00073291067
0.00056519204
0.00039835591
0.00022560798
8.3226064e-05
1.8782099e-05
7.3072888e-06
6.6340307e-06
6.6168017e-06
6.617788e-06
6.6247886e-06
6.6265233e-06
6.6209104e-06
6.6119993e-06
6.6082421e-06
6.620328e-06
6.6445413e-06
6.6499352e-06
6.6423828e-06
6.6280898e-06
6.6121445e-06
6.5988094e-06
6.590244e-06
6.5864914e-06
6.5852595e-06
6.5849546e-06
6.5848216e-06
6.5852835e-06
6.5873759e-06
6.5903993e-06
6.5923019e-06
6.5924631e-06
6.5915235e-06
6.5908675e-06
6.5902221e-06
6.5902658e-06
6.5896462e-06
6.5880549e-06
6.5903947e-06
6.5989477e-06
6.6057737e-06
6.598816e-06
6.5835072e-06
6.5692591e-06
6.5598598e-06
6.5545226e-06
6.552063e-06
6.5526583e-06
6.5569281e-06
6.5637558e-06
6.5706481e-06
6.5760825e-06
6.5791401e-06
6.5801317e-06
6.5803497e-06
6.5803874e-06
6.5803927e-06
6.5803936e-06
6.5803938e-06
6.5803938e-06
6.5803936e-06
6.5803936e-06
0.00072174563
0.00055424007
0.00038810696
0.00021769856
7.9339429e-05
1.7936739e-05
7.2478587e-06
6.6330172e-06
6.6169165e-06
6.617843e-06
6.6248258e-06
6.6266043e-06
6.6209712e-06
6.6119568e-06
6.6081751e-06
6.6205785e-06
6.6445858e-06
6.6486339e-06
6.6401875e-06
6.6247047e-06
6.6083598e-06
6.595351e-06
6.5875865e-06
6.5848077e-06
6.5842646e-06
6.5844824e-06
6.5847745e-06
6.5853751e-06
6.5874269e-06
6.59041e-06
6.5923011e-06
6.5924616e-06
6.5915238e-06
6.5908678e-06
6.5902224e-06
6.5902664e-06
6.5896468e-06
6.5880552e-06
6.5903977e-06
6.5989522e-06
6.6057738e-06
6.598809e-06
6.5834986e-06
6.5692528e-06
6.5598561e-06
6.5545206e-06
6.5520624e-06
6.5526593e-06
6.5569304e-06
6.5637585e-06
6.5706506e-06
6.5760841e-06
6.5791407e-06
6.5801322e-06
6.58035e-06
6.5803874e-06
6.5803928e-06
6.5803937e-06
6.5803938e-06
6.5803937e-06
6.5803935e-06
6.5803936e-06
0.00070881021
0.00054159067
0.00037627429
0.00020855646
7.4859485e-05
1.6973505e-05
7.1813716e-06
6.6318457e-06
6.6170325e-06
6.6179497e-06
6.6249224e-06
6.6267066e-06
6.6210325e-06
6.6119148e-06
6.6081296e-06
6.6209454e-06
6.6445441e-06
6.646957e-06
6.6373804e-06
6.6204699e-06
6.6037796e-06
6.5914578e-06
6.5848945e-06
6.5831685e-06
6.5833258e-06
6.5839867e-06
6.5846874e-06
6.5854475e-06
6.5874757e-06
6.5904224e-06
6.5923005e-06
6.5924604e-06
6.5915241e-06
6.5908683e-06
6.5902228e-06
6.5902666e-06
6.5896464e-06
6.5880562e-06
6.590402e-06
6.598958e-06
6.6057741e-06
6.5988018e-06
6.5834892e-06
6.5692452e-06
6.5598516e-06
6.5545184e-06
6.5520619e-06
6.5526607e-06
6.5569329e-06
6.5637615e-06
6.5706531e-06
6.5760856e-06
6.5791414e-06
6.5801324e-06
6.5803499e-06
6.5803873e-06
6.580393e-06
6.5803938e-06
6.5803939e-06
6.5803938e-06
6.5803936e-06
6.5803938e-06
0.00069386079
0.00052701191
0.00036264289
0.00019802969
6.9737109e-05
1.589216e-05
7.1086776e-06
6.6305677e-06
6.6171695e-06
6.6181632e-06
6.6251313e-06
6.6268365e-06
6.6210715e-06
6.6118595e-06
6.6081249e-06
6.6214572e-06
6.6442638e-06
6.6447487e-06
6.6338468e-06
6.6154414e-06
6.5986171e-06
6.5873942e-06
6.5823472e-06
6.581508e-06
6.5824721e-06
6.5835614e-06
6.5845414e-06
6.5854822e-06
6.587514e-06
6.5904337e-06
6.5923009e-06
6.5924602e-06
6.5915246e-06
6.5908682e-06
6.5902227e-06
6.5902664e-06
6.5896462e-06
6.5880576e-06
6.5904072e-06
6.5989635e-06
6.6057743e-06
6.5987941e-06
6.5834798e-06
6.5692382e-06
6.5598481e-06
6.5545168e-06
6.5520618e-06
6.5526619e-06
6.5569354e-06
6.5637644e-06
6.5706555e-06
6.5760869e-06
6.5791421e-06
6.5801326e-06
6.58035e-06
6.5803874e-06
6.5803928e-06
6.5803937e-06
6.5803938e-06
6.5803937e-06
6.5803937e-06
6.5803938e-06
0.00067660774
0.0005102412
0.00034697208
0.00018595749
6.3933721e-05
1.4699337e-05
7.0313433e-06
6.6292851e-06
6.6174165e-06
6.6185824e-06
6.6255533e-06
6.6270018e-06
6.6210504e-06
6.6117614e-06
6.6081707e-06
6.6221253e-06
6.6434843e-06
6.6417979e-06
6.6294861e-06
6.609836e-06
6.5933036e-06
6.5835699e-06
6.5799693e-06
6.5797776e-06
6.5817692e-06
6.5832946e-06
6.5844237e-06
6.5854943e-06
6.5875396e-06
6.5904431e-06
6.5923021e-06
6.5924607e-06
6.5915255e-06
6.5908683e-06
6.5902222e-06
6.5902656e-06
6.5896457e-06
6.5880586e-06
6.5904119e-06
6.5989688e-06
6.6057746e-06
6.5987864e-06
6.5834709e-06
6.5692309e-06
6.5598438e-06
6.554515e-06
6.5520615e-06
6.5526631e-06
6.5569377e-06
6.5637674e-06
6.5706583e-06
6.5760889e-06
6.5791429e-06
6.5801328e-06
6.5803502e-06
6.5803874e-06
6.5803928e-06
6.5803937e-06
6.5803936e-06
6.5803937e-06
6.5803938e-06
6.5803938e-06
0.00065676943
0.00049098201
0.00032899372
0.00017217614
5.7432109e-05
1.3412159e-05
6.9518109e-06
6.6282209e-06
6.6179219e-06
6.6194307e-06
6.6263037e-06
6.6271906e-06
6.6208773e-06
6.6115483e-06
6.6082906e-06
6.6229395e-06
6.6418255e-06
6.6378762e-06
6.6242259e-06
6.6040155e-06
6.5884198e-06
6.5803348e-06
6.5777317e-06
6.5782819e-06
6.5812588e-06
6.5831441e-06
6.5843555e-06
6.5854997e-06
6.5875545e-06
6.5904498e-06
6.5923037e-06
6.5924609e-06
6.5915256e-06
6.5908671e-06
6.5902211e-06
6.5902653e-06
6.589645e-06
6.5880592e-06
6.5904161e-06
6.5989746e-06
6.6057746e-06
6.5987783e-06
6.5834612e-06
6.5692231e-06
6.5598389e-06
6.5545125e-06
6.5520609e-06
6.5526645e-06
6.5569405e-06
6.5637707e-06
6.570661e-06
6.5760906e-06
6.5791439e-06
6.5801332e-06
6.5803502e-06
6.5803876e-06
6.580393e-06
6.5803937e-06
6.5803937e-06
6.5803936e-06
6.5803937e-06
6.5803938e-06
0.00063401243
0.00046890263
0.00030841277
0.00015653295
5.0256394e-05
1.206377e-05
6.8736e-06
6.6276351e-06
6.6190406e-06
6.6211061e-06
6.6275396e-06
6.6273595e-06
6.6203851e-06
6.6110873e-06
6.6084926e-06
6.6238172e-06
6.638824e-06
6.6328303e-06
6.6180363e-06
6.5984037e-06
6.58445e-06
6.5779055e-06
6.5757901e-06
6.5771992e-06
6.5809629e-06
6.5830775e-06
6.5843279e-06
6.5855043e-06
6.5875633e-06
6.5904538e-06
6.5923045e-06
6.5924599e-06
6.5915255e-06
6.590866e-06
6.5902199e-06
6.5902653e-06
6.5896442e-06
6.5880593e-06
6.5904203e-06
6.5989808e-06
6.6057749e-06
6.5987696e-06
6.5834503e-06
6.569215e-06
6.559834e-06
6.5545097e-06
6.5520596e-06
6.5526655e-06
6.5569436e-06
6.5637743e-06
6.570664e-06
6.5760925e-06
6.5791446e-06
6.5801332e-06
6.5803501e-06
6.5803873e-06
6.5803929e-06
6.5803935e-06
6.5803938e-06
6.5803939e-06
6.5803938e-06
6.5803938e-06
0.0006079304
0.00044362321
0.00028491063
0.00013891593
4.2507094e-05
1.0710389e-05
6.8014315e-06
6.628164e-06
6.6214601e-06
6.6242451e-06
6.6294209e-06
6.6274038e-06
6.6193012e-06
6.6101747e-06
6.6087491e-06
6.6245293e-06
6.6342826e-06
6.6264298e-06
6.6111255e-06
6.5933408e-06
6.5815711e-06
6.5762157e-06
6.5744509e-06
6.5765702e-06
6.580848e-06
6.5830635e-06
6.5843253e-06
6.5855077e-06
6.5875664e-06
6.5904556e-06
6.592304e-06
6.592459e-06
6.5915255e-06
6.5908655e-06
6.5902194e-06
6.5902651e-06
6.5896431e-06
6.5880593e-06
6.5904246e-06
6.5989871e-06
6.6057751e-06
6.5987607e-06
6.5834387e-06
6.5692061e-06
6.5598288e-06
6.554507e-06
6.5520591e-06
6.5526673e-06
6.5569465e-06
6.5637776e-06
6.570667e-06
6.5760946e-06
6.5791455e-06
6.5801333e-06
6.5803502e-06
6.5803874e-06
6.5803928e-06
6.5803935e-06
6.5803937e-06
6.5803937e-06
6.5803936e-06
6.5803937e-06
0.0005780623
0.00041471688
0.00025816065
0.00011931961
3.4418554e-05
9.4365522e-06
6.741144e-06
6.6309662e-06
6.6263336e-06
6.6296179e-06
6.6320378e-06
6.6270924e-06
6.6172342e-06
6.6085108e-06
6.6089696e-06
6.6246249e-06
6.6282424e-06
6.6187815e-06
6.6038691e-06
6.5889712e-06
6.5796411e-06
6.5751602e-06
6.5737086e-06
6.5763394e-06
6.5808533e-06
6.5830866e-06
6.5843406e-06
6.5855093e-06
6.5875645e-06
6.5904562e-06
6.5923034e-06
6.5924582e-06
6.5915259e-06
6.5908663e-06
6.590219e-06
6.5902645e-06
6.5896418e-06
6.5880594e-06
6.5904294e-06
6.5989941e-06
6.6057762e-06
6.5987512e-06
6.5834263e-06
6.5691967e-06
6.5598234e-06
6.5545043e-06
6.5520585e-06
6.552669e-06
6.5569498e-06
6.5637817e-06
6.5706704e-06
6.5760966e-06
6.5791464e-06
6.5801336e-06
6.5803503e-06
6.5803875e-06
6.5803929e-06
6.5803937e-06
6.5803937e-06
6.5803936e-06
6.5803936e-06
6.5803937e-06
0.0005438933
0.00038170798
0.00022787394
9.7982555e-05
2.642905e-05
8.348042e-06
6.6993762e-06
6.6380275e-06
6.6353755e-06
6.6376427e-06
6.6350804e-06
6.6259051e-06
6.6139076e-06
6.6057588e-06
6.6089614e-06
6.6230625e-06
6.6210458e-06
6.6103927e-06
6.5967786e-06
6.5853533e-06
6.5783714e-06
6.5745183e-06
6.5734143e-06
6.5763861e-06
6.5809693e-06
6.5831381e-06
6.58437e-06
6.585511e-06
6.5875612e-06
6.5904565e-06
6.5923032e-06
6.5924579e-06
6.5915266e-06
6.5908668e-06
6.5902176e-06
6.5902638e-06
6.5896405e-06
6.5880598e-06
6.5904351e-06
6.5990021e-06
6.6057769e-06
6.5987417e-06
6.5834139e-06
6.5691868e-06
6.559817e-06
6.5545014e-06
6.5520581e-06
6.5526706e-06
6.5569534e-06
6.563786e-06
6.5706739e-06
6.5760989e-06
6.5791476e-06
6.5801341e-06
6.5803504e-06
6.5803875e-06
6.5803929e-06
6.5803935e-06
6.5803936e-06
6.5803937e-06
6.5803937e-06
6.5803937e-06
0.00050484987
0.00034408162
0.00019392328
7.5630607e-05
1.9202629e-05
7.5405182e-06
6.6817688e-06
6.6525386e-06
6.6495635e-06
6.6476698e-06
6.6378464e-06
6.6231799e-06
6.6091031e-06
6.6020047e-06
6.6084778e-06
6.6189444e-06
6.613353e-06
6.6018662e-06
6.5905393e-06
6.5825734e-06
6.5774769e-06
6.5741057e-06
6.5734557e-06
6.5766661e-06
6.5811447e-06
6.5831986e-06
6.5844012e-06
6.5855122e-06
6.5875595e-06
6.5904578e-06
6.5923034e-06
6.5924592e-06
6.5915285e-06
6.5908675e-06
6.5902166e-06
6.5902632e-06
6.5896392e-06
6.5880609e-06
6.5904412e-06
6.5990102e-06
6.6057775e-06
6.5987315e-06
6.5834006e-06
6.5691763e-06
6.559811e-06
6.5544982e-06
6.5520576e-06
6.5526727e-06
6.5569572e-06
6.56379e-06
6.5706775e-06
6.5761013e-06
6.5791486e-06
6.5801343e-06
6.5803503e-06
6.5803874e-06
6.5803928e-06
6.5803936e-06
6.5803937e-06
6.5803937e-06
6.5803936e-06
6.5803936e-06
0.00046026623
0.0003013312
0.00015664336
5.3765834e-05
1.3482091e-05
7.0517154e-06
6.6879525e-06
6.6768558e-06
6.6680743e-06
6.6566092e-06
6.6387961e-06
6.6185026e-06
6.6031256e-06
6.5975218e-06
6.6061942e-06
6.6122704e-06
6.6051026e-06
6.5941632e-06
6.5858344e-06
6.5806334e-06
6.5766407e-06
6.5739764e-06
6.5737978e-06
6.5770649e-06
6.5813291e-06
6.5832572e-06
6.5844297e-06
6.5855131e-06
6.587559e-06
6.5904598e-06
6.5923049e-06
6.592461e-06
6.59153e-06
6.5908668e-06
6.5902149e-06
6.5902615e-06
6.5896382e-06
6.5880615e-06
6.5904474e-06
6.5990178e-06
6.6057776e-06
6.5987203e-06
6.5833865e-06
6.569165e-06
6.5598048e-06
6.5544953e-06
6.5520567e-06
6.5526746e-06
6.5569609e-06
6.5637949e-06
6.5706817e-06
6.5761037e-06
6.5791497e-06
6.5801346e-06
6.5803505e-06
6.5803875e-06
6.580393e-06
6.5803937e-06
6.5803939e-06
6.5803937e-06
6.5803936e-06
6.5803938e-06
0.000409295
0.00025312031
0.00011741052
3.4659636e-05
9.7279408e-06
6.8403492e-06
6.7222454e-06
6.7085322e-06
6.6844734e-06
6.6599703e-06
6.635522e-06
6.6122021e-06
6.5971256e-06
6.5928211e-06
6.6014027e-06
6.6040032e-06
6.5969612e-06
6.5882243e-06
6.5829033e-06
6.5789852e-06
6.5762262e-06
6.5742039e-06
6.574249e-06
6.5774279e-06
6.5814762e-06
6.5833039e-06
6.5844512e-06
6.5855126e-06
6.5875581e-06
6.5904623e-06
6.5923067e-06
6.5924622e-06
6.5915311e-06
6.590866e-06
6.5902131e-06
6.5902605e-06
6.5896382e-06
6.5880626e-06
6.5904538e-06
6.5990257e-06
6.6057775e-06
6.5987086e-06
6.5833719e-06
6.5691535e-06
6.5597977e-06
6.554492e-06
6.5520559e-06
6.5526765e-06
6.556965e-06
6.5637998e-06
6.570686e-06
6.5761062e-06
6.579151e-06
6.5801352e-06
6.5803508e-06
6.5803877e-06
6.5803929e-06
6.5803936e-06
6.5803935e-06
6.5803936e-06
6.5803937e-06
6.5803938e-06
0.00035117793
0.00019983098
7.9335363e-05
2.0542262e-05
7.8094017e-06
6.8064335e-06
6.7706515e-06
6.7338052e-06
6.6882513e-06
6.6530995e-06
6.6269081e-06
6.6052998e-06
6.5926392e-06
6.5890686e-06
6.5949468e-06
6.5960034e-06
6.5903676e-06
6.5845258e-06
6.5807342e-06
6.5782782e-06
6.5763257e-06
6.5745798e-06
6.5746479e-06
6.5776963e-06
6.5815756e-06
6.583334e-06
6.5844644e-06
6.5855115e-06
6.5875586e-06
6.5904653e-06
6.5923087e-06
6.5924627e-06
6.5915312e-06
6.5908653e-06
6.5902125e-06
6.5902603e-06
6.589637e-06
6.588064e-06
6.590461e-06
6.5990351e-06
6.6057777e-06
6.5986963e-06
6.5833562e-06
6.5691413e-06
6.5597902e-06
6.5544878e-06