/*--------------------------------*- C++ -*----------------------------------*\
| =========                 |                                                 |
| \\      /  F ield         | OpenFOAM: The Open Source CFD Toolbox           |
|  \\    /   O peration     | Version:  2506                                  |
|   \\  /    A nd           | Website:  www.openfoam.com                      |
|    \\/     M anipulation  |                                                 |
\*---------------------------------------------------------------------------*/
FoamFile
{
    version     2.0;
    format      ascii;
    arch        "LSB;label=32;scalar=64";
    class       volScalarField;
    location    "1.7";
    object      k;
}
// * * * * * * * * * * * * * * * * * * * * * * * * * * * * * * * * * * * * * //

dimensions      [0 2 -2 0 0 0 0];

internalField   nonuniform List<scalar> 
1375
(
2.7440839
3.0971134
3.3736804
2.3636436
2.7270704
3.0820979
3.3587182
3.5697093
3.7227868
3.8242769
3.8830323
3.909931
2.343513
2.70783
3.0639886
3.3404604
3.5496946
3.6998177
3.7978572
3.8533239
3.8777037
3.8835621
3.877633
3.8639493
3.8509208
3.8408916
3.834833
2.3240914
2.6879755
3.0440628
3.3198541
3.527339
3.6748181
3.7698526
3.8225388
3.8448751
3.8497244
3.8426308
3.8291703
3.8167625
3.8075912
3.8023614
3.8004164
3.8001891
3.8022412
3.8069181
2.3067264
2.6692217
3.0239801
3.2983403
3.5038002
3.6486691
3.7409123
3.7911291
3.8117212
3.8157337
3.8078327
3.7947695
3.7831066
3.774842
3.7704253
3.7689991
3.7690292
3.7717533
3.776789
3.7831776
3.7906066
3.798893
3.80793
2.2918622
2.6525179
3.0049743
3.2771863
3.4801998
3.6222806
3.7117378
3.7596052
3.778596
3.7818693
3.7733934
3.7608359
3.7499969
3.7426619
3.7390212
3.7379994
3.7384229
3.7417638
3.7471027
3.7536874
3.7612537
3.7696354
3.7787372
3.7885199
3.7989855
3.8101625
3.8220905
2.2788272
2.6376837
2.9873825
3.2570019
3.4572095
3.5962755
3.6828596
3.7283907
3.7458293
3.7484104
3.7394845
3.7274795
3.7174911
3.7110677
3.708131
3.7074289
3.7083737
3.7122431
3.7178375
3.7245882
3.7322678
3.740728
3.7498845
3.7597053
3.7701952
3.7813817
3.7933068
3.8060249
3.8196037
3.8341315
2.2663976
2.6238471
2.9708336
3.2377549
3.4349853
3.5708935
3.6545397
3.6977356
3.7136494
3.7155701
3.7062637
3.6948113
3.6856496
3.6800714
3.6777451
3.6773119
3.6788533
3.6831576
3.6889681
3.6958596
3.7036324
3.7121548
3.7213544
3.7312031
3.7417075
3.7528973
3.7648161
3.7775206
3.7910784
3.805572
3.8211093
3.8378212
3.8558572
2.253366
2.6100019
2.9547016
3.2190973
3.4133726
3.5461049
3.6268186
3.6677146
3.6821481
3.6834478
3.6738192
3.6628954
3.654501
3.6496689
3.647862
3.6476672
3.6498197
3.6544758
3.6604725
3.667484
3.6753339
3.6839064
3.6931363
3.7030019
3.7135116
3.7246942
3.7365968
3.7492753
3.7628004
3.7772591
3.7927563
3.8094121
3.827376
3.8468235
3.8679629
2.2387711
2.5951769
2.9382486
3.2004953
3.3920086
3.5216835
3.5995657
3.6382561
3.6512884
3.6520245
3.6421469
3.6317278
3.6240328
3.6198504
3.6184773
3.6184989
3.6212389
3.6261765
3.6323314
3.639444
3.6473581
3.6559716
3.6652279
3.6751068
3.685614
3.6967812
3.7086542
3.7212955
3.7347788
3.7491901
3.7646333
3.7812307
3.7991221
3.818478
3.8395048
3.8624446
3.8875967
3.9153257
2.2221447
2.5787026
2.9208568
3.1814263
3.3704832
3.497327
3.5725654
3.6092086
3.6209629
3.6212132
3.6111832
3.6012571
3.5942046
3.5905878
3.5895277
3.5898328
3.5930829
3.5982513
3.6045456
3.6117453
3.6197105
3.6283514
3.6376205
3.647501
3.6580017
3.66915
3.6809897
3.6935845
3.7070133
3.721367
3.7367488
3.7532763
3.7710861
3.7903437
3.8112492
3.8340462
3.8590234
3.8865391
3.9170277
3.9510194
2.2036614
2.5603936
2.902212
3.1615608
3.3485081
3.4728006
3.5456276
3.5804119
3.591046
3.5908886
3.5808281
3.5714065
3.564961
3.561837
3.561009
3.5616643
3.5653359
3.5706908
3.5771025
3.584377
3.5923862
3.6010487
3.6103224
3.6201942
3.6306743
3.6417924
3.6535924
3.6661379
3.6795087
3.6937972
3.7091072
3.7255541
3.7432724
3.7624251
3.7832047
3.8058487
3.8306475
3.8579456
3.8881729
3.9218567
3.9596691
4.0024848
2.1840895
2.5406001
2.882371
3.1408406
3.3259974
3.4480155
3.5186573
3.5517576
3.5614792
3.5609251
3.550978
3.5420877
3.5362297
3.5335439
3.5329081
3.5339706
3.5379905
3.5435012
3.5500132
3.5573476
3.5653848
3.5740546
3.5833224
3.5931789
3.6036339
3.6147165
3.6264694
3.6389593
3.6522651
3.6664804
3.6817096
3.6980688
3.7156886
3.7347266
3.7553739
3.7778619
3.8024728
3.8295465
3.8595019
3.8928627
3.9302976
3.9726636
4.0210372
2.1645703
2.5202072
2.8617844
3.1194858
3.3030596
3.4230215
3.4916655
3.5232388
3.5322047
3.5312758
3.5215582
3.5132284
3.5079463
3.505664
3.505207
3.506722
3.51103
3.5166725
3.5232687
3.5306514
3.5387086
3.5473774
3.5566275
3.5664544
3.5768716
3.5879104
3.5996159
3.6120493
3.6252869
3.6394223
3.6545609
3.6708203
3.6883323
3.7072502
3.7277581
3.7500804
3.7744971
3.8013377
3.8310144
3.8640438
3.9010861
3.9429876
3.9907868
4.045611
4.1084437
2.1461193
2.5003005
2.8411691
3.0979361
3.2799547
3.3979674
3.4647357
3.4949035
3.5032172
3.5019445
3.4925373
3.4847864
3.4800652
3.4781634
3.4778865
3.4798868
3.4844362
3.4901934
3.4968601
3.5042784
3.5123442
3.5210012
3.5302249
3.5400162
3.5503907
3.5613793
3.5730281
3.5853986
3.5985665
3.6126212
3.6276655
3.6438161
3.6612059
3.6799899
3.7003499
3.7225023
3.7467145
3.7733145
3.8027058
3.8353964
3.8720382
3.9134623
3.9606676
4.0147118
4.0765063
4.1475257
2.1292078
2.481703
2.8211978
3.0766505
3.2569684
3.3730215
3.43797
3.4668182
3.4745496
3.4729638
3.4639176
3.4567455
3.4525623
3.4510303
3.4509324
3.4534366
3.4581903
3.4640493
3.4707745
3.4782176
3.4862825
3.4949189
3.5041074
3.5138531
3.5241757
3.5351091
3.5466997
3.5590069
3.5721029
3.5860724
3.6010164
3.6170525
3.6343117
3.6529495
3.6731468
3.695117
3.7191184
3.7454705
3.7745691
3.8069138
3.8431464
3.8840799
3.9306714
3.983915
4.0446579
4.1143531
4.2015428
2.1138225
2.4649788
2.8024857
3.0560989
3.2344007
3.348357
3.4114689
3.4390478
3.4462459
3.4443787
3.4357237
3.4291161
3.4254431
3.424237
3.4243545
3.4273431
3.4322712
3.4382231
3.444999
3.4524593
3.4605161
3.4691244
3.4782704
3.4879638
3.4982286
3.5091013
3.5206281
3.5328662
3.5458863
3.5597692
3.5746114
3.5905257
3.6076442
3.6261235
3.6461444
3.6679171
3.6916955
3.7177915
3.7465907
3.7785846
3.8144001
3.8548289
3.9007962
3.9532292
4.0129038
4.0812733
4.1671144
4.3305683
5.2549481
2.0996715
2.4504276
2.7855424
3.0367358
3.2125657
3.3241623
3.3853381
3.4116527
3.4183457
3.416228
3.4079835
3.4019206
3.3987202
3.3977688
3.3981806
3.4015915
3.4066666
3.4127007
3.4195183
3.4269887
3.4350325
3.4436106
3.452713
3.4623518
3.4725536
3.4833574
3.4948122
3.5069757
3.519914
3.5337034
3.5484366
3.5642232
3.5811945
3.5995045
3.6193355
3.6408955
3.664437
3.6902648
3.7187581
3.7503974
3.7857908
3.8257076
3.8710391
3.9226556
3.9812567
4.0482953
4.1327914
4.2963163
5.2404669
2.0863517
2.4379663
2.7706208
3.0188915
3.1917398
3.3006273
3.3596936
3.3846997
3.390893
3.3885416
3.3807199
3.3751771
3.3723997
3.3716493
3.3724186
3.3761769
3.3813743
3.387479
3.3943296
3.4018033
3.4098281
3.4183709
3.4274261
3.4370081
3.4471458
3.4578796
3.4692576
3.4813365
3.4941801
3.5078645
3.5224812
3.5381347
3.5549515
3.573084
3.5927144
3.614051
3.6373422
3.6628895
3.6910658
3.7223418
3.7573122
3.7967153
3.8414031
3.8921926
3.949714
4.0154226
4.0985873
4.2622502
5.226535
2.0735669
2.4271933
2.7576505
3.0026971
3.1721152
3.2779245
3.3346573
3.3582644
3.3639379
3.3613355
3.3539444
3.3488926
3.346489
3.3459085
3.3470734
3.3511051
3.3563997
3.3625593
3.3694315
3.3769011
3.3849026
3.3934075
3.4024127
3.4119337
3.422001
3.4326565
3.4439498
3.4559356
3.4686777
3.4822496
3.4967378
3.5122466
3.528904
3.5468574
3.566281
3.5873844
3.610416
3.6356736
3.6635216
3.6944227
3.7289564
3.7678417
3.8118866
3.8618409
3.9182751
3.9826567
4.0645128
4.2284565
5.2138033
2.061336
2.4176427
2.7463501
2.9881098
3.153793
3.256196
3.3103511
3.3324296
3.3375339
3.3346128
3.3276514
3.323057
3.320986
3.3205615
3.3221402
3.3263824
3.3317525
3.3379512
3.3448321
3.352287
3.3602562
3.3687154
3.3776651
3.3871229
3.3971182
3.4076915
3.4188907
3.4307704
3.4433959
3.4568431
3.4711976
3.4865611
3.5030546
3.5208215
3.5400358
3.5609033
3.5836693
3.6086258
3.6361351
3.6666496
3.700736
3.7390913
3.7824827
3.8315966
3.8869381
3.9500001
4.0305915
4.1950412
5.2029328
2.0499079
2.4088186
2.7362543
2.9748908
3.1367318
3.2355035
3.286861
3.3072639
3.3117244
3.3083719
3.3018246
3.2976488
3.2958788
3.2956054
3.2976025
3.3020053
3.307432
3.3136543
3.3205305
3.3279599
3.3358886
3.3442961
3.3531847
3.3625723
3.372488
3.3829713
3.3940696
3.4058385
3.4183433
3.4316563
3.4458643
3.4610721
3.4773983
3.494982
3.5139891
3.5346171
3.5571099
3.5817566
3.6089144
3.6390307
3.6726634
3.7104766
3.7531996
3.8014537
3.8556951
3.9174484
3.9968442
4.1620936
5.1938782
2.0395515
2.4002579
2.7268038
2.9626244
3.1207113
3.215772
3.2641877
3.2827858
3.2865191
3.2826112
3.276441
3.2726413
3.2711493
3.2710259
3.2734358
3.2779616
3.28343
3.2896619
3.2965214
3.3039152
3.3117948
3.3201426
3.3289626
3.3382731
3.3481035
3.3584919
3.3694839
3.3811338
3.393507
3.4066812
3.4207442
3.4357946
3.4519452
3.4693372
3.4881345
3.508527
3.5307458
3.5550757
3.5818757
3.6115827
3.6447428
3.6820004
3.7240361
3.7714129
3.8245395
3.8849951
3.9632729
4.1296227
5.186112
2.0302606
2.3915684
2.7174514
2.9508014
3.1053583
3.1967765
3.2422185
3.258938
3.2618789
3.2573245
3.2514734
3.2480067
3.2467758
3.2468001
3.2496097
3.2542327
3.2597327
3.2659629
3.2727944
3.2801422
3.2879636
3.2962448
3.3049908
3.3142193
3.3239574
3.3342423
3.3451206
3.3566492
3.3688931
3.3819263
3.3958348
3.4107178
3.4266909
3.4438903
3.4624744
3.4826287
3.5045768
3.5285949
3.5550274
3.5843168
3.6169889
3.6536674
3.6949908
3.7414711
3.7934675
3.8526368
3.9298707
4.0975847
5.1796983
2.0216339
2.3824269
2.7077267
2.9389225
3.0902386
3.1781979
3.2207493
3.2355945
3.2377208
3.2324928
3.2268999
3.2237299
3.2227023
3.2229262
3.226089
3.2307903
3.2363149
3.2425361
3.2493332
3.2566296
3.2643875
3.2725952
3.2812587
3.2903962
3.3000357
3.3102146
3.3209786
3.3323826
3.3444889
3.3573732
3.3711246
3.3858411
3.4016377
3.418646
3.437013
3.4569259
3.4786
3.5023035
3.5283731
3.5572354
3.5894043
3.6254842
3.6660672
3.7116219
3.7624749
3.8203673
3.896625
4.0659654
5.1755027
2.0131901
2.3727363
2.6973481
2.9265941
3.0749453
3.1596926
3.1995312
3.2125912
3.2139379
3.2080838
3.2027017
3.1997903
3.1989159
3.1993887
3.2028467
3.2076114
3.213154
3.2193599
3.2261168
3.2333565
3.2410464
3.2491772
3.2577561
3.2668015
3.2763397
3.2864066
3.2970488
3.3083248
3.3202912
3.3330284
3.3466261
3.3611741
3.3767822
3.3935866
3.4117369
3.4314051
3.4528017
3.4761915
3.5018928
3.5303217
3.5619857
3.5974586
3.6372854
3.6818879
3.7315737
3.7881907
3.8635179
4.0347338
5.1731928
2.004503
2.3626075
2.6862848
2.9136245
3.0592008
3.1409795
3.1783344
3.1897671
3.190423
3.1840573
3.1788634
3.1761774
3.1754235
3.1761762
3.1798685
3.1846814
3.1902343
3.1964193
3.2031322
3.2103123
3.2179312
3.225982
3.2344727
3.2434225
3.2528581
3.2628154
3.2733392
3.2844828
3.2963149
3.3089043
3.3223318
3.3366958
3.3521185
3.3687208
3.3866398
3.4060546
3.4271729
3.4502432
3.4755787
3.503578
3.5347306
3.5695782
3.6086405
3.6522751
3.7007821
3.7561237
3.8305425
4.0038109
5.1712474
1.9951551
2.3520826
2.6745678
2.899941
3.0428549
3.1218818
3.1569974
3.1669937
3.1670928
3.1603689
3.1553667
3.1528858
3.1522358
3.1532839
3.1571531
3.1619982
3.1675522
3.1737098
3.1803739
3.1874904
3.1950352
3.2030036
3.2114049
3.2202586
3.2295908
3.2394363
3.2498406
3.2608561
3.2725468
3.2849834
3.2982462
3.312434
3.3276567
3.3440357
3.3617204
3.380875
3.4017038
3.4244432
3.4494136
3.4769883
3.5076278
3.5418488
3.5801338
3.6227904
3.6701123
3.7241782
3.7977177
3.9731498
5.1613626
1.9849342
2.3412408
2.6623188
2.8856042
3.0259023
3.1023441
3.1354317
3.144287
3.1438555
3.1369798
3.1321922
3.1299087
3.1293584
3.1307079
3.1347036
3.1395656
3.1451108
3.151234
3.1578446
3.1648935
3.17236
3.1802416
3.1885492
3.1973035
3.206532
3.2162689
3.2265565
3.2374439
3.2489903
3.2612686
3.2743615
3.2883645
3.3033845
3.3195456
3.3369827
3.3558675
3.3763931
3.3988055
3.4234001
3.4505396
3.4806717
3.5142703
3.5517738
3.593444
3.6395741
3.6923798
3.7650557
3.9429512
5.1616399
3.0824356
3.1136823
3.1216428
3.1207155
3.1138682
3.1093238
3.1072379
3.1067892
3.1084396
3.1125197
3.1173841
3.1229096
3.1289908
3.1355423
3.1425195
3.1499049
3.1576982
3.1659107
3.1745629
3.1836833
3.1933066
3.2034746
3.214235
3.2256434
3.2377668
3.250686
3.264497
3.2793054
3.2952342
3.3124264
3.3310363
3.3512554
3.3733237
3.3975304
3.4242365
3.4538529
3.4868312
3.5235584
3.5642468
3.6091911
3.6607484
3.732605
3.9134153
5.1886091
3.0867502
3.0848639
3.0845212
3.0864674
3.090599
3.0954531
3.1009485
3.106979
3.1134648
3.1203655
3.1276659
3.1353671
3.1434809
3.1520286
3.1610392
3.170548
3.1805954
3.1912262
3.202492
3.2144572
3.2272018
3.2408212
3.2554189
3.2711101
3.2880382
3.3063569
3.3262679
3.34799
3.3718109
3.3980712
3.4271718
3.4595285
3.4954749
3.5351859
3.5789618
3.6293051
3.7004457
3.8844909
5.1922716
3.0737716
3.0792289
3.0852017
3.0916153
3.0984332
3.1056424
3.1132455
3.1212557
3.1296948
3.1385925
3.1479828
3.1579031
3.1683962
3.1795149
3.1913221
3.2038943
3.2173204
3.2317023
3.2471568
3.2638148
3.2818469
3.301433
3.3227921
3.3462168
3.3720345
3.4006247
3.4323632
3.467529
3.5062554
3.5488758
3.5980603
3.6686264
3.8561429
5.1823356
3.083842
3.0913409
3.0992402
3.107563
3.1163386
3.1256006
3.1353863
3.1457389
3.1567085
3.1683533
3.1807483
3.1939811
3.2081477
3.2233635
3.2397589
3.2574867
3.276734
3.2977359
3.3207579
3.3461276
3.3741914
3.4052952
3.4396767
3.4774337
3.5189236
3.567001
3.6371336
3.8286803
5.1796539
3.1034141
3.1130556
3.1232529
3.1340591
3.1455406
3.1577636
3.1708033
3.1847527
3.1997192
3.215844
3.2332723
3.2521918
3.2728209
3.2954317
3.3203359
3.3478621
3.378318
3.4119041
3.4486925
3.4890703
3.5360818
3.6058831
3.8024311
5.2334423
3.1228971
3.1349277
3.1477699
3.1615057
3.176235
3.192092
3.2092101
3.2277859
3.248041
3.2702384
3.2946654
3.3216417
3.3514447
3.3842269
3.4200348
3.4592903
3.5052524
3.5747972
3.7769354
5.2727571
3.152899
3.1684824
3.1852985
3.2035417
3.2234232
3.24519
3.2691278
3.2955478
3.3246837
3.3566502
3.391462
3.4295926
3.4745169
3.5438574
3.7514322
5.2702559
3.1794673
3.1989696
3.2203085
3.243763
3.2696054
3.2980509
3.3291874
3.3629971
3.4000045
3.4438917
3.5130799
3.7258001
5.2502631
3.2185611
3.2438194
3.2715577
3.3018329
3.3346263
3.3705128
3.4133912
3.4824352
3.7009727
5.2964044
3.2746398
3.3064026
3.3411794
3.3830793
3.4520897
3.6774303
5.3653523
3.3120188
3.3530153
3.4222655
3.6548707
5.3648545
3.6335387
5.3491228
)
;

boundaryField
{
    Side
    {
        type            empty;
    }
    Inlet
    {
        type            turbulentIntensityKineticEnergyInlet;
        intensity       0.03;
        value           nonuniform List<scalar> 
25
(
12.001629
12.001674
12.001813
12.002065
12.002326
12.002509
12.002621
12.002732
12.002921
12.00322
12.003642
12.004164
12.004674
12.005072
12.005428
12.005782
12.006052
12.006271
12.00646
12.006658
12.006979
12.007203
12.007361
12.007788
12.008829
)
;
    }
    Airfoil
    {
        type            kqRWallFunction;
        value           nonuniform List<scalar> 0();
    }
    Outlet
    {
        type            inletOutlet;
        inletValue      nonuniform List<scalar> 0();
        value           nonuniform List<scalar> 0();
    }
    procBoundary5to4
    {
        type            processor;
        value           nonuniform List<scalar> 
64
(
2.7579866
3.1086725
3.3853005
3.5866871
3.5866871
3.7432319
3.8487721
3.9114401
3.9414627
3.9170597
3.9170597
3.9127265
3.8990646
3.8855689
3.8747452
3.8678387
3.8323142
3.8323142
3.8318356
3.8332501
3.8375041
3.8130822
3.8130822
3.8203535
3.8285281
3.8374846
3.8176698
3.8176698
3.8281066
3.8392625
3.8511749
3.8348166
3.8348166
3.848407
3.8629505
3.8497119
3.8497119
3.8664743
3.8845721
3.8753933
3.8753933
3.8966364
3.8910426
3.8910426
3.9163643
3.9442921
3.9460608
3.9460608
3.980347
3.9891964
3.9891964
4.0324484
4.0514144
4.0514144
4.0766126
4.0766126
4.1404648
4.1807856
4.1807856
4.2360662
4.2360662
4.3649564
4.3649564
5.2700456
)
;
    }
    procBoundary5to6
    {
        type            processor;
        value           nonuniform List<scalar> 
61
(
1.9738156
2.3301529
2.6496947
2.8707703
3.0084599
3.0084599
3.062297
3.0918639
3.0990922
3.0977261
3.0910305
3.0910305
3.0644645
3.0627777
3.0625443
3.0647772
3.0689361
3.0689361
3.0523334
3.0577478
3.0636593
3.0699975
3.0767287
3.0767287
3.0622604
3.0696502
3.0774346
3.0856372
3.0942864
3.0942864
3.0814168
3.0909118
3.1009559
3.1115975
3.1115975
3.1004274
3.1122688
3.1249018
3.1384146
3.1384146
3.1297092
3.1450228
3.1615518
3.1615518
3.1555454
3.1746767
3.1955963
3.1955963
3.1934923
3.2181864
3.2452243
3.2452243
3.2475827
3.2783329
3.2783329
3.283031
3.3232939
3.3931211
3.3931211
3.6148964
5.4282477
)
;
    }
    procBoundary5to12
    {
        type            processor;
        value           nonuniform List<scalar> 
30
(
2.3406325
2.3237215
2.307333
2.2917529
2.2771609
2.2634453
2.2501223
2.2365384
2.2221782
2.2068507
2.1908217
2.1747105
2.1590132
2.1438656
2.1289969
2.1137972
2.0975775
2.0799566
2.0611209
2.0419874
2.0243642
2.0104921
2.0015599
1.9964206
1.9925821
1.9882724
1.9825052
1.9746432
2.3830026
2.3830026
)
;
    }
}


// ************************************************************************* //
