/*--------------------------------*- C++ -*----------------------------------*\
| =========                 |                                                 |
| \\      /  F ield         | OpenFOAM: The Open Source CFD Toolbox           |
|  \\    /   O peration     | Version:  2506                                  |
|   \\  /    A nd           | Website:  www.openfoam.com                      |
|    \\/     M anipulation  |                                                 |
\*---------------------------------------------------------------------------*/
FoamFile
{
    version     2.0;
    format      ascii;
    arch        "LSB;label=32;scalar=64";
    class       volScalarField;
    location    "0.00033";
    object      Ma;
}
// * * * * * * * * * * * * * * * * * * * * * * * * * * * * * * * * * * * * * //

dimensions      [0 0 0 0 0 0 0];

internalField   nonuniform List<scalar> 
3452
(
2.1946434
2.1112577
2.1138461
2.1267195
2.142967
2.0624886
2.0197543
2.0265653
2.0337757
2.0445891
2.0575028
2.0764622
2.003924
1.939414
1.9480942
1.9553308
1.9659165
1.9749603
1.9830496
1.9902223
1.9983772
2.0068001
2.0180596
2.0321064
2.0525737
1.9835449
1.9117133
1.8844192
1.8576351
1.8384254
1.850508
1.8660324
1.8825108
1.8979686
1.9162919
1.9248759
1.9314743
1.9400506
1.9515104
1.9609007
1.9701174
1.9790412
1.9883342
1.9977908
2.0103329
2.0257291
2.0485001
1.9867225
1.9411144
1.9176701
1.8969702
1.8903582
1.8493409
1.8681941
1.8803635
1.9270535
1.9259944
1.9162248
1.9078361
1.9179131
1.9386335
1.9533864
1.9700887
1.9861312
1.9997632
2.0142098
2.0295106
2.0459944
2.0655323
1.9985181
1.9217144
1.8958337
1.8706328
1.8655568
1.841496
1.8606374
1.8876595
1.9514118
1.9454508
1.9129416
1.892799
1.9053734
1.9314421
1.9528211
1.9821915
2.0079608
2.0265524
2.0485304
2.0696022
2.0923265
2.1164291
2.0549319
2.0017459
1.9773945
1.9472566
1.9177324
1.9081455
1.9033049
1.9233355
1.9531456
2.0266933
2.0192866
1.9835166
1.9512932
1.9637191
1.9911523
2.0156755
2.0509463
2.0810405
2.1026784
2.1282422
2.1539968
2.1810035
2.2103532
2.1541333
2.0746426
2.0492784
2.0148937
1.9824807
1.9618642
1.973466
2.0004759
2.0301173
2.1074621
2.1012046
2.0652473
2.028788
2.0423614
2.0715782
2.1002678
2.138675
2.1729953
2.1969803
2.2267997
2.2557091
2.2871625
2.3192104
2.2632022
2.2476496
2.2281552
2.1943242
2.1566761
2.1147011
2.0762575
2.1225521
2.1587538
2.1907087
2.2693809
2.267048
2.2366944
2.2022636
2.2167991
2.2466583
2.2759503
2.3143524
2.3498632
2.376056
2.4078332
2.4390399
2.4722804
2.5046478
2.4415899
2.4441084
2.4389397
2.4117664
2.3659022
2.3268075
2.2684705
2.3196873
2.3499293
2.3779457
2.4493551
2.4472644
2.4205928
2.3695966
2.3785048
2.4078424
2.4342399
2.4761398
2.5126748
2.5448618
2.5804766
2.6227892
2.665857
2.7121363
2.654135
2.5083099
2.5133491
2.5114413
2.4765622
2.4711868
2.4284085
2.4233245
2.4380281
2.457548
2.5169853
2.5188383
2.4959483
2.4376556
2.4410491
2.4649491
2.4865513
2.5266212
2.5639105
2.6027059
2.6457815
2.7038257
2.7664496
2.8350704
2.7837753
2.4315864
2.4582118
2.4719309
2.4772916
2.4607587
2.4595725
2.4603442
2.4259501
2.4066612
2.4227844
2.4751861
2.4688316
2.446083
2.3832208
2.3825355
2.4010465
2.4199201
2.4512563
2.4842672
2.5105227
2.5438951
2.5827147
2.622633
2.6608829
2.574463
2.1890504
2.2366216
2.2741828
2.3013668
2.3175995
2.3385743
2.3604476
2.4258375
2.3370507
2.2972389
2.3096453
2.2928695
2.3192882
2.307958
2.3036799
2.3161937
2.334513
2.3451066
2.3545601
2.3634386
2.3709146
2.3780208
2.38352
2.3861034
2.3853025
2.2483237
2.1084115
2.1408382
2.1629351
2.1872387
2.2021612
2.2187125
2.2454805
2.3767544
2.2938045
2.2947349
2.2612921
2.2690667
2.2760193
2.2607574
2.4938753
2.5335795
2.4594051
2.4640213
2.4534727
2.4549877
2.4562056
2.4644521
2.4706651
2.4828031
2.4875343
2.3630256
2.0182231
2.028279
2.0483065
2.072081
2.0955338
2.1111206
2.1205813
2.1349471
2.2687279
2.181647
2.1602496
2.1150156
2.1032494
2.1055359
2.0882494
2.0714854
1.968095
1.9600814
1.98663
1.9850295
1.9965139
2.0040824
2.0199687
2.02876
2.0445423
2.050552
1.9682955
1.9587011
1.9746152
2.0039761
2.0168457
2.0223732
2.0161774
2.0021089
1.9932302
2.0101833
1.8064528
1.8390702
1.8275953
1.8560583
1.8519213
1.8894057
1.8921207
1.8917666
1.8854421
1.8866433
1.8870285
1.8897407
1.8921272
1.8961568
1.898591
1.9021448
1.9013368
1.8303485
1.8534812
1.8798753
1.9135433
1.9413141
1.959954
1.9605861
1.9542436
1.9438449
2.012567
1.7957557
1.8293968
1.8165456
1.8300232
1.8197158
1.8607042
1.8655449
1.8602161
1.8485282
1.842294
1.8373215
1.8279624
1.8227863
1.8174215
1.8131461
1.8075257
1.8044362
1.7217413
2.3059154
2.3579931
2.4131062
2.4630353
2.509514
2.542813
2.5603094
2.5685919
2.582881
2.6577396
2.4553306
2.4394357
2.4249624
2.4113674
2.4059859
2.4010534
2.3908783
2.3795822
2.371433
2.3683346
2.3605598
2.3560655
2.350069
2.3467848
2.3418989
2.3360902
2.3316398
2.2322915
2.6437522
2.6869235
2.7262804
2.7624427
2.7918583
2.8112607
2.8072259
2.7924559
2.7762672
2.8285998
2.7964932
2.7712553
2.7962407
2.8515704
2.8335351
2.7959492
2.7020177
2.6892292
2.7000108
2.714226
2.750195
2.784041
2.8042835
2.8309695
2.8568259
2.8773844
2.8875037
2.775712
2.762275
2.7853137
2.8034472
2.8279479
2.8397895
2.8474683
2.848912
2.8107441
2.790365
2.8291532
2.8460905
2.8438609
2.871645
2.9450509
2.9373416
2.8945274
2.835753
2.8113632
2.8190984
2.8385417
2.8752523
2.9184615
2.9434194
2.9788669
3.0123799
3.0443465
3.0618626
2.9511189
2.7303772
2.7513407
2.7646164
2.7853231
2.8211863
2.8329593
2.8408718
2.8279658
2.7821677
2.7719554
2.7314139
2.7395902
2.7695222
2.8072225
2.8981095
2.9041682
2.8798054
2.8312992
2.798317
2.8001715
2.8148908
2.8380742
2.8903066
2.9214137
2.9631346
3.0039467
3.0515375
3.0783841
2.9735882
2.78038
2.7964859
2.8066044
2.8165946
2.849228
2.8703218
2.8873003
2.8908335
2.8602793
2.867342
2.8325871
2.8377512
2.8498909
2.8779473
2.9534179
2.9533752
2.9373406
2.9000708
2.8546271
2.8402912
2.8368111
2.8518266
2.8894135
2.9179214
2.9557061
2.9893311
3.0330356
3.0538744
2.9390438
2.7592072
2.7906981
2.8093717
2.8186864
2.8300075
2.8313553
2.8305502
2.8165288
2.7970391
2.7668069
2.7413606
2.6454107
2.6749566
2.7090213
2.7171897
2.7284771
2.7589307
2.7972769
2.8053691
2.8093526
2.8145876
2.821279
2.8232311
2.8297337
2.8353916
2.8429425
2.8456607
2.851375
2.8525145
2.7175592
2.7550739
2.779815
2.792142
2.7978115
2.7947517
2.7843242
2.7589296
2.7349146
2.7001898
2.656733
2.6006446
2.5218446
2.5565276
2.61364
2.6291981
2.6536875
2.6691027
2.6939049
2.7068819
2.7190659
2.72867
2.7403545
2.7487511
2.7575541
2.7607934
2.7643849
2.7644729
2.7624168
2.7599606
2.6585644
2.6969918
2.7257112
2.7422951
2.74606
2.7384514
2.7130115
2.6844157
2.6545236
2.6270448
2.5883746
2.549842
2.5086931
2.4898449
2.4921348
2.5347848
2.5562103
2.5833229
2.608296
2.640693
2.6559595
2.6668055
2.679144
2.6871123
2.6964091
2.7046324
2.7062049
2.709996
2.7110868
2.71319
2.7109905
2.6121274
2.5628777
2.5865217
2.5942488
2.5952108
2.5909692
2.5842865
2.5788124
2.5675882
2.5546701
2.5276913
2.4961212
2.4581672
2.4253059
2.3499273
2.3903739
2.4102166
2.4329555
2.4772477
2.5251653
2.5422087
2.5543394
2.5674576
2.5744242
2.583121
2.5944531
2.5939481
2.5976278
2.6054571
2.6068335
2.6057496
2.5120414
2.2998132
2.3612394
2.3872461
2.402285
2.4083932
2.4056537
2.3991035
2.3948228
2.3874041
2.3764476
2.3472078
2.3031768
2.2504097
2.2006604
2.2335352
2.252264
2.2470735
2.2677118
2.3192552
2.3906945
2.4006457
2.4005933
2.4117978
2.423019
2.4297362
2.4394903
2.4507026
2.459274
2.4662546
2.4722117
2.4719091
2.3777781
2.1501523
2.2146089
2.2871672
2.314791
2.3401602
2.3477257
2.3543394
2.352852
2.348071
2.341818
2.3279043
2.297805
2.2598663
2.2184298
2.1908585
2.2128496
2.2103999
2.2025925
2.2187785
2.2695681
2.312707
2.3190912
2.3311896
2.3507104
2.3669981
2.3817123
2.3958367
2.4120608
2.4245367
2.4366267
2.4443123
2.4444432
2.3589656
2.1325136
2.1034083
2.1678202
2.2356284
2.2655883
2.278136
2.2809298
2.2794993
2.2670938
2.2550955
2.2352158
2.2139262
2.1821532
2.1335493
2.098402
2.084195
2.0861471
2.1302098
2.1227899
2.1225576
2.2250485
2.3089868
2.3035703
2.2771775
2.292273
2.3108245
2.3187586
2.3311032
2.3472797
2.3592692
2.3731748
2.3828018
2.3833589
2.3042892
2.1226467
2.0918455
2.1292463
2.1863177
2.2320987
2.2569948
2.2700084
2.2813401
2.2864295
2.2867047
2.2822244
2.2723528
2.2519668
2.2170634
2.2002689
2.199606
2.2490796
2.2668947
2.2396655
2.2417371
2.3298982
2.4101664
2.4094851
2.3853418
2.3976766
2.4182787
2.4247214
2.437985
2.4585422
2.4712489
2.4873922
2.4996309
2.499914
2.4183529
2.2305713
2.2142442
2.1940331
2.1675342
2.1386144
2.1208746
2.1402187
2.1794974
2.2401689
2.2724783
2.2983318
2.320001
2.3345835
2.3407013
2.3375153
2.3270008
2.3001259
2.2649789
2.2553954
2.2677337
2.3307092
2.3526223
2.3248176
2.2698507
2.3318378
2.4438724
2.4463337
2.4029149
2.4126067
2.4351814
2.4477096
2.4691695
2.5000899
2.5279477
2.5567686
2.5833347
2.5878329
2.512874
2.2137332
2.196928
2.1887353
2.1835687
2.1844264
2.197321
2.1852848
2.2224962
2.2756854
2.2946174
2.3084597
2.3213972
2.326423
2.3281758
2.3233977
2.3150221
2.2950652
2.2763289
2.2622201
2.2636238
2.2833031
2.295979
2.2892747
2.2465659
2.2702198
2.3377449
2.3562594
2.3550419
2.3581838
2.3631189
2.3636024
2.3636477
2.3670728
2.3696476
2.3750648
2.3785465
2.3776749
2.2783073
2.2057994
2.1899162
2.2079583
2.2250015
2.2192021
2.2031655
2.2051478
2.2500279
2.3310599
2.3495081
2.3541202
2.3534156
2.3463991
2.339964
2.3264192
2.3124335
2.2969763
2.2851594
2.2756912
2.2787311
2.2765302
2.2804332
2.2813872
2.2240548
2.2485449
2.2662597
2.2789364
2.2862828
2.3001473
2.3050365
2.3135602
2.3210344
2.3305658
2.338378
2.346671
2.3534509
2.3547936
2.2320387
2.3241391
2.3122442
2.2476866
2.236117
2.2600656
2.3017771
2.2845484
2.240137
2.2300184
2.2837564
2.3807032
2.3838658
2.378754
2.3716487
2.3632417
2.3596229
2.3573642
2.3496863
2.3424317
2.3382413
2.3346077
2.332717
2.3426607
2.3444344
2.3274705
2.3229459
2.3110523
2.3010276
2.2964758
2.3046
2.3178869
2.3310945
2.3415443
2.3532379
2.3617576
2.3717259
2.3784406
2.38784
2.3908634
2.2535139
2.151961
2.1729893
2.1790791
2.0987079
2.0555191
2.0414057
2.1004945
2.21401
2.2874176
2.2543762
2.2882901
2.3830589
2.4744019
2.4500532
2.3937041
2.3497714
2.3007084
2.3609664
2.4029727
2.4028027
2.3903447
2.3886478
2.3895263
2.4057353
2.4074924
2.3860149
2.3650152
2.3678679
2.3857245
2.3739488
2.3220125
2.3399279
2.3614279
2.3813847
2.3957627
2.4104177
2.4219471
2.4335807
2.4408276
2.4504192
2.4523665
2.3298163
3.7251235
3.9829419
4.047259
3.8839085
3.7707586
3.9319681
4.0979707
3.9429769
3.3935892
3.098437
3.0809454
3.1918751
3.1055649
2.9732241
3.2731634
3.3384144
3.6662012
3.3794056
2.1089076
1.220854
0.88525193
0.73882655
0.25351477
1.2684897
1.8510311
2.1027676
2.2813154
2.2416734
2.1603261
2.1880636
2.2624063
2.3488176
2.3896677
2.4289243
2.4522743
2.479163
2.4972215
2.5170977
2.5297723
2.5448342
2.5540091
2.4488492
4.4104501
4.7172012
5.0146547
5.3414702
5.3649116
5.1951016
5.2246766
5.5392585
5.7257151
5.6161943
5.4329557
5.4953761
5.8405171
6.2466889
6.2206714
5.5922458
5.5260891
5.5079399
5.5163196
5.4685435
5.4428007
5.3919446
5.2912732
5.258509
5.2646606
5.1991945
5.1625236
5.0740117
3.4525275
3.1143022
3.1453043
3.0627697
2.9763685
2.9352196
3.0182127
3.0385799
3.0594645
3.077495
3.089617
3.1029676
3.1148325
3.1134019
3.0862588
2.77381
4.1074858
4.6217302
5.071821
5.3009244
5.3020934
5.2096072
5.3847342
5.7808223
5.8987699
5.739257
5.5994436
5.794021
6.1926654
6.5013029
6.4519669
5.7102809
5.6857476
5.7367032
5.7065665
5.6511677
5.642226
5.5204359
5.5046656
5.5287098
5.4828734
5.4892322
5.4755824
5.421112
4.4247314
3.9236641
3.903604
3.9202114
3.9504405
3.9418338
3.9558767
3.9420109
3.9017861
3.9336411
3.8764419
3.8868862
3.8834711
3.8814483
3.7284412
2.3826949
3.7884896
4.3118007
4.8626354
5.0560409
5.1425049
5.2089018
5.4770721
5.857785
5.9358319
5.8218098
5.7792481
5.9744241
6.2650382
6.3643643
6.2134156
5.6820794
5.8441916
5.9090503
5.8655421
5.8686484
5.8084079
5.7912983
5.829663
5.7877209
5.7869458
5.7751337
5.7435617
5.7216064
4.3390086
4.1681138
4.1937166
4.1994911
4.215528
4.2114246
4.2109123
4.2460076
4.1674702
4.2629891
4.2164797
4.2525358
4.2864523
4.316762
4.3460775
4.1149989
3.7134059
4.1569539
4.5628289
4.781725
4.9874359
5.1968901
5.4963149
5.8363813
6.0318238
6.1129433
6.2071705
6.2859001
6.2933416
6.2205085
6.0050419
5.5376124
5.7549262
5.8007032
5.809677
5.8314961
5.8487381
5.8644473
5.8609235
5.8585576
5.8513908
5.8253332
5.7928403
5.6725163
4.7840927
4.3475645
4.1693482
4.0424657
3.9117393
3.8883064
3.6965736
4.0158215
4.015148
4.0593538
4.0912931
4.1482196
4.2004681
4.2762058
4.3101576
4.0782271
2.4914984
2.7802304
3.131168
3.4173829
3.5326463
3.7358808
4.1428777
4.4220762
4.5529664
4.7897586
5.087746
5.347552
5.7329703
6.145239
6.4701702
6.5577826
6.5032648
6.2395327
5.7973971
5.6208513
5.6509568
6.036913
6.1144207
6.1889808
6.2725659
6.332231
6.3705728
6.3885091
6.3903861
6.3770249
6.2965995
6.2002343
6.1456387
6.11257
6.0381793
6.0068501
5.5794664
5.0197298
4.8816213
4.7459162
4.6900447
4.622028
4.8653851
4.8572545
4.8463944
4.8929427
4.9276646
4.9166241
3.9639584
1.8287697
2.0951137
2.2022543
2.3842367
2.6369978
2.9657446
3.3090331
3.4878741
3.6842275
4.0911156
4.3737973
4.4464543
4.6135487
4.976767
5.2385307
5.6361266
6.0658025
6.4806905
6.613067
6.5089696
6.2776014
5.9319085
5.5666058
5.638274
6.5190746
6.8635047
7.0072426
7.0669957
7.1160001
7.1455524
7.139148
7.0821644
7.0291369
6.915038
6.8891649
6.8760437
6.8662065
6.8759895
6.8604251
6.8758138
6.8547222
6.8673691
6.349424
5.9876581
5.8709748
5.7339526
5.5666177
5.4819316
5.4100116
5.2949202
5.2263736
4.5352663
1.77455
2.0397215
2.1843303
2.3635026
2.6020367
2.9234888
3.22944
3.4011647
3.5881059
3.9852458
4.3217666
4.4205299
4.5691518
4.9173914
5.2430892
5.5953696
5.8651052
6.0953777
6.2599765
6.2932995
6.2159143
6.1654379
6.0415022
5.7895789
6.7069804
7.1622775
7.2607316
7.2813085
7.3062282
7.3152905
7.3027973
7.2729571
7.2045084
7.1241741
7.0692834
7.0329
7.0375509
7.0204826
7.0137108
6.992111
6.9653323
6.8990648
6.8292593
6.3155035
5.8931758
5.7170616
5.6178558
5.4817131
5.4761909
5.4878168
5.4889229
5.256656
1.7552566
2.0020484
2.1711941
2.3408415
2.5905619
2.9084111
3.2053579
3.3606274
3.5336894
3.9061514
4.2372389
4.3559194
4.5260286
4.8791344
5.2482474
5.558647
5.761474
5.8482817
5.9144984
6.0304134
6.0851611
6.1428529
6.0734376
5.7506572
6.2705512
6.7011036
6.8056188
6.8658819
6.9415154
6.96018
6.9740249
6.9934146
6.9634514
6.9215148
6.8407845
6.759851
6.7233699
6.6762834
6.6380841
6.5624006
6.4794981
6.3733102
6.0760067
5.5702088
5.4046509
5.4647508
5.5008722
5.5173851
5.5406909
5.5752005
5.6170135
5.4948892
0.82938787
1.3928153
1.8340523
2.1238534
2.2479574
2.4287016
2.6915702
3.0185337
3.3550889
3.534638
3.728769
4.0928897
4.3526301
4.4442582
4.6444877
5.007422
5.4158545
5.6968007
5.8726281
6.006983
6.0986206
6.206229
6.2127106
6.132829
6.0260074
5.7522834
5.9994143
6.5120259
6.7495847
6.8188517
6.8597841
6.8995432
6.9221798
6.9313534
6.9070574
6.8580617
6.8154979
6.7544999
6.6993826
6.6409217
6.5614692
6.4875565
6.3836746
6.2936715
6.1524702
6.0278596
5.8878059
5.8481428
5.8549858
5.8331747
5.8363329
5.8499027
5.8867627
5.7724579
1.1545702
0.76254701
1.590242
1.9458003
2.1286222
2.2646084
2.4491616
2.7143498
3.0400863
3.3895634
3.5779475
3.7755853
4.1126225
4.365879
4.5026147
4.7433965
5.1355611
5.504072
5.7350772
5.9223651
6.1134121
6.2660184
6.389136
6.3205341
6.0114639
6.0556758
5.7839736
6.0078338
6.411887
6.7147312
6.7624502
6.7980975
6.7735281
6.7845246
6.7725055
6.7401746
6.6898462
6.6337378
6.5915202
6.517276
6.4279496
6.3093046
6.1940325
6.0493789
5.9488185
5.8359967
5.7997986
5.8234835
5.8443749
5.8699866
5.9150505
5.9960309
6.0853181
6.1555274
6.0281189
1.3106232
0.87573128
1.4823658
2.0121494
2.1490831
2.2652692
2.4678508
2.7332321
3.0818431
3.434949
3.6189696
3.8152279
4.1535521
4.4323334
4.6178899
4.953772
5.2403619
5.5488874
5.7835962
6.0037203
6.1722072
6.3084581
6.3206224
6.0769327
5.7186224
5.9390203
5.8350954
5.934832
6.250062
6.6844622
6.7655612
6.7638732
6.7338346
6.7048717
6.6981469
6.6311077
6.587666
6.4887377
6.4540588
6.3736638
6.2954537
6.1691097
6.0049068
5.6094632
5.432764
5.4525631
5.4929551
5.5114108
5.5186044
5.5487654
5.5918396
5.6380515
5.6675044
5.6882402
5.5348011
1.8588867
1.6294134
1.3741251
1.2020176
0.790761
1.9419246
2.2002437
2.2918687
2.5022227
2.8062315
3.1992706
3.5432324
3.7074137
3.9330185
4.3609214
4.7795376
4.9893248
5.1015692
5.2733605
5.5588248
5.8082526
6.0201899
6.1932672
6.287886
6.2098541
5.885058
5.5044731
5.7525159
5.8611787
5.9199572
6.2166368
6.6890388
6.8303139
6.8254828
6.8240241
6.8004444
6.7902891
6.7264566
6.6705585
6.6110216
6.5429565
6.5264308
6.2810056
5.756939
5.6342071
5.479543
5.4404003
5.4160248
5.2830191
5.3225632
5.3411403
5.3811965
5.4336865
5.5187455
5.5901399
5.6624369
5.5634336
1.8232694
1.7985884
1.5818762
1.3804885
1.3205435
1.1913687
0.79391976
2.1195157
2.5000859
2.6979893
3.0611153
3.6385359
3.8768152
4.0033366
4.3312836
4.8417582
5.1897769
5.2387587
5.2292882
5.3503632
5.5910331
5.8383699
6.0494048
6.2164414
6.2931722
6.1572726
5.6720526
5.0692681
5.5991654
5.8114104
5.9048052
6.1078262
6.6137959
6.9714182
7.0190737
6.9671672
6.9962128
6.9503399
6.8927494
6.9669816
5.7308107
4.703576
4.6119032
4.5646465
4.6208094
4.6447085
4.5943406
4.5093963
4.3733583
4.4093081
4.2812771
4.2669029
4.2557966
4.285572
4.3464412
4.4395526
4.5108489
4.4032833
1.7966738
1.7666229
1.5306203
1.3339981
1.299112
1.2886039
1.2005603
0.74041253
2.0401527
3.0711525
3.5355892
3.9575487
4.1303086
4.2677138
4.6106028
4.9997495
5.1842615
5.1979707
5.1908492
5.3106366
5.5293077
5.743462
5.9113692
6.0530752
6.0634654
5.9473117
5.5404623
4.8898214
5.2098517
5.6183266
5.8614222
6.2005142
6.7764805
7.2302295
7.2496343
7.2394794
7.2243746
5.2112386
4.0240669
3.4652372
3.1814149
3.1515991
3.1720232
3.1658047
3.1461744
3.0914259
3.0293098
2.9367731
2.8302577
2.7349708
2.6675914
2.6832678
2.7103554
2.7164427
2.7328515
2.7624088
2.7938188
2.7192013
1.4565719
1.7896497
1.7566427
1.5213257
1.3100574
1.2601953
1.2480139
1.21872
1.1858421
0.98298498
1.1805181
3.061528
3.8491561
4.0898279
4.2375308
4.5537352
4.8563407
4.9735497
4.889492
4.785612
4.804089
4.876232
4.9134489
4.9717762
5.1038581
5.1647732
5.0666933
4.6842488
4.0920838
4.1934356
4.5821317
4.9733449
5.5619504
6.1991101
6.9217708
6.0455685
2.4229907
1.4394273
1.2161633
1.2036483
1.1537305
1.1168162
1.1046075
1.1255278
1.1517241
1.159097
1.151557
1.1017135
1.0219288
0.87336555
0.6294665
0.36489681
0.19272054
0.32330026
0.36518078
0.38026004
0.39519238
0.4280982
0.41905042
1.2058138
1.4232193
1.7711469
1.7540273
1.5307914
1.3132073
1.2424505
1.2182059
1.2012662
1.1436798
1.1351356
1.1554859
0.94699676
0.90068033
1.4962423
1.8859619
2.2653198
2.6627739
2.8050428
2.6854441
2.5986212
2.4670891
2.3543786
2.2917768
2.3127619
2.4603966
2.5617958
2.5217059
2.2447989
1.8779084
1.8843309
2.2275172
2.7462937
2.7086513
1.249229
0.78275662
1.4522835
1.6621756
1.684691
1.684191
1.6821191
1.6567973
1.6504812
1.6580878
1.6802832
1.6802847
1.6704561
1.6352168
1.5921108
1.5292774
1.4422982
1.3054088
1.1627707
1.0961685
1.1749528
1.2030187
1.2085863
1.2085903
1.2091253
1.1597748
1.1769922
1.3932736
1.766574
1.7660433
1.5507977
1.3239523
1.2413383
1.2182468
1.1994297
1.1453099
1.1239559
1.1164453
1.105663
1.1345388
1.1698819
1.1681144
1.1514852
1.1047491
1.0460743
0.98360334
0.95370251
1.0313261
1.1171463
1.0896529
1.0683879
1.0871856
1.160663
1.1689824
0.99427985
0.5015352
0.81527704
1.1138408
1.1176191
1.654219
1.7377894
1.7473826
1.7417748
1.6986029
1.6870828
1.6807247
1.6755787
1.6775598
1.6922556
1.6964611
1.6955012
1.6832193
1.6602822
1.6453696
1.6348357
1.6263691
1.609406
1.5672898
1.4829945
1.3600612
1.267632
1.2508491
1.2264763
1.23375
1.244989
1.0010282
1.2368231
1.1454376
1.3764948
1.7704228
1.7956183
1.5641584
1.3403011
1.2519945
1.2221958
1.2162179
1.1569009
1.1442489
1.1358002
1.1163907
1.1048643
1.1240737
1.1164565
1.1054159
1.1135087
1.1113003
1.0395369
1.00267
1.0104484
1.0545579
1.0749742
1.1271485
1.2003231
1.301676
1.287917
1.1079098
0.86941502
1.1489659
1.4431703
1.5440693
1.7737693
1.8016334
1.8093631
1.7610784
1.6589967
1.6267778
1.6147744
1.6125175
1.6158933
1.6229677
1.6263828
1.6241473
1.615871
1.6074481
1.6045108
1.6058583
1.6088942
1.609506
1.5966482
1.5621322
1.4843366
1.3715023
1.2807697
1.2609136
1.2612613
1.2345533
0.99013562
1.3480391
1.2120749
1.1168081
1.3595368
1.7595575
1.7984801
1.5548742
1.3475008
1.2685917
1.2211264
1.2258395
1.1645506
1.1463165
1.128963
1.1135836
1.1138958
1.1196546
1.0840134
1.0731495
1.0761458
1.1010021
1.0637451
1.0222984
0.9671172
0.92165949
0.88821345
0.88574058
0.95151169
0.98284644
0.85312093
0.64217598
0.61548956
0.87705586
1.0371545
0.96634466
1.6280727
1.6636015
1.7052141
1.6864368
1.5761826
1.4996925
1.4876891
1.4926498
1.5039996
1.5153594
1.5211436
1.5198553
1.5066534
1.4929764
1.478525
1.464339
1.4516422
1.4333889
1.4008999
1.3353236
1.2408956
1.1640102
1.1502307
1.1560511
1.144212
1.2010351
0.99666316
1.3377192
1.1997585
1.0995633
1.3174392
1.689254
1.7395066
1.5256155
1.334886
1.2680734
1.218957
1.2221833
1.1542139
1.1432304
1.1253087
1.0975457
1.0895677
1.0905054
1.0513043
1.0179883
1.0096834
1.0306664
1.0330691
1.0256166
1.0305725
1.0040611
0.95171771
0.93565771
0.90716405
0.87903814
0.79174193
0.62357354
0.45857394
0.77199667
0.93494091
1.485686
1.5105762
1.4885353
1.4466699
1.403205
1.3374486
1.2682407
1.2733897
1.2801367
1.2950461
1.3028002
1.3132458
1.3115211
1.3073889
1.275148
1.2599901
1.2251597
1.2147469
1.1919779
1.1731423
1.138725
1.1264585
1.1193939
1.1363789
1.1515951
1.1836938
1.2076468
0.96312806
1.3328302
1.1920871
1.0875033
1.2843407
1.6342042
1.6523053
1.4651523
1.2918445
1.232309
1.1748116
1.1873885
1.1135958
1.1096693
1.1112959
1.0899496
1.0813095
1.0774308
1.0252186
0.97270631
0.9576746
0.96721734
0.94559839
0.92745479
0.96269872
1.0011003
1.0001685
1.053541
1.0916429
1.0756127
0.82068008
0.82531542
0.76034181
0.85741865
1.3100296
1.5316
1.6203264
1.6533883
1.6224524
1.6087498
1.5538181
1.4246832
1.3706893
1.3430719
1.3282133
1.3282379
1.4169099
1.3823119
1.2315218
1.2635155
1.2738347
1.2717914
1.2557178
1.2368698
1.2296385
1.234834
1.2516764
1.2971946
1.3444555
1.4196808
1.4889089
1.5772703
1.6075529
1.3371552
1.1857882
1.0831268
1.2718494
1.6189464
1.6061111
1.3945967
1.2388338
1.1742216
1.1143706
1.1156044
1.0557714
1.0323519
1.0370499
1.0357232
1.0431837
1.0443975
1.0000977
0.93584059
0.9027485
0.90579684
0.8731169
0.83583352
0.81126692
0.86472688
0.88187754
0.95667135
0.9713717
0.77955994
0.57812899
0.6902671
0.85296857
1.0270538
1.0798581
1.7577771
1.8303843
1.8579721
1.8829667
1.8293875
1.7659207
1.6088603
1.4609379
1.4679858
1.4845228
1.450438
1.3918229
1.3431791
1.4439915
1.5586931
1.6436814
1.7009975
1.742712
1.7809963
1.8129232
1.8386468
1.8584685
1.877108
1.8935595
1.9087894
1.9171753
1.9154947
1.8734492
1.3439596
1.1872592
1.0856642
1.2682253
1.6173272
1.5969492
1.3628214
1.1935988
1.1159695
1.0660367
1.0542742
0.9896784
0.97159534
0.96488148
0.95951872
0.96863494
0.97865291
0.9457257
0.89526836
0.87818245
0.87568322
0.85404549
0.80229257
0.76820432
0.80857712
0.81372141
0.87445107
0.85240409
0.60799964
0.30205467
0.55970451
0.64637453
0.59383109
1.2060186
1.3697397
1.4784289
1.5465679
1.6005894
1.6155692
1.6036712
1.5022227
1.3541959
1.3695302
1.4311619
1.4700969
1.4291884
1.4500697
1.4139894
1.5087625
1.5959387
1.6501302
1.6805682
1.706414
1.7327369
1.7574105
1.7742361
1.7897332
1.802524
1.8153103
1.8221382
1.8204276
1.7740994
1.3513652
1.1915249
1.0875892
1.2661237
1.6203971
1.6025848
1.3566337
1.1608064
1.067847
1.0390894
1.0199277
0.95118722
0.92431728
0.90896307
0.89303708
0.90128389
0.90223588
0.86994015
0.81917251
0.82004448
0.84186314
0.83598589
0.79306846
0.77650065
0.78737116
0.8012507
0.85792255
0.80084108
0.72287764
0.66144889
0.66663872
0.75872897
0.90312413
1.0018891
1.0569329
1.0703674
1.0528429
1.0189276
0.98347321
0.94368131
0.79495725
0.65050275
0.56298957
0.71994947
0.73876159
0.86236819
0.85922622
0.82838371
0.80467734
0.87269955
0.96331269
1.0504753
1.1189677
1.1765282
1.2229776
1.2649126
1.2989054
1.3323175
1.3619413
1.3919767
1.4144105
1.3873182
1.3507184
1.1866644
1.078406
1.2570488
1.6229239
1.6086477
1.3780839
1.1630315
1.0466143
0.99303732
0.99386594
0.94317993
0.89886832
0.87613474
0.848274
0.85880159
0.8606605
0.83368739
0.79056731
0.79352935
0.82765521
0.82245003
0.77252181
0.7453976
0.73754632
0.75291604
0.79720288
0.83147292
0.84710176
0.77941564
0.71425841
0.87278973
1.1103267
1.2301657
1.2787154
1.2767813
1.2043482
0.98290255
0.78954465
0.66704484
0.70949673
0.7660731
0.83549117
0.87927066
0.92641624
1.0582986
1.1724284
1.2492181
1.2698053
1.2786503
1.2911487
1.3065118
1.3267239
1.3479882
1.3652659
1.3757198
1.384073
1.3897224
1.3926507
1.3943124
1.3938244
1.3628497
1.3324663
1.1661764
1.0557194
1.2295397
1.5847402
1.5916277
1.3993519
1.1836535
1.0545193
1.0098249
0.97744054
0.91548629
0.89959709
0.86827977
0.80853289
0.79612085
0.79431997
0.77305558
0.7483725
0.75620481
0.81151809
0.80844495
0.7611441
0.73330129
0.73329219
0.74728695
0.77923136
0.80500528
0.81481981
0.74917734
0.69525141
0.84940969
1.0643023
1.1699349
1.2180534
1.219555
1.1590578
0.99013771
0.82652692
0.7096266
0.68623
0.64796934
0.60220508
0.69206332
0.74795424
0.90593199
1.0402192
1.1180567
1.1475571
1.1633761
1.1791766
1.1974303
1.2155403
1.2268662
1.2366697
1.2466459
1.253586
1.2583563
1.2601409
1.2616061
1.261567
1.233079
1.2929408
1.1257255
1.013383
1.1830522
1.5256786
1.5371582
1.3791686
1.2145382
1.077973
1.0261971
1.0095722
0.9156143
0.87279153
0.88303677
0.82239361
0.82322937
0.83162919
0.80754465
0.78728674
0.79924766
0.86958606
0.8735183
0.83876408
0.83973617
0.87454716
0.92610365
1.0003249
1.0491718
1.0471953
0.92564205
0.8840017
1.0862351
1.284223
1.3406382
1.3508996
1.3226946
1.2537695
1.1117307
0.94153617
0.82340037
0.75768292
0.70160287
0.69964865
0.86323011
1.0041748
1.0551611
1.1689262
1.2560738
1.3073345
1.3228173
1.3378678
1.3487526
1.366195
1.3803969
1.3958967
1.4074927
1.4226283
1.432229
1.4431602
1.4497421
1.4569213
1.4142456
1.2388196
1.0778663
0.96820464
1.1396998
1.5000797
1.5806602
1.44923
1.2721138
1.1463625
1.0745195
1.0674205
0.98372581
0.93757063
0.91464664
0.90499936
0.87384702
0.8841287
0.87110105
0.85711789
0.89850518
1.0053191
1.0123889
0.97770893
1.0101214
1.0375259
1.1161598
1.1811308
1.2143735
1.1640148
1.09134
1.1436566
1.4097404
1.6481727
1.7085573
1.6794068
1.6240596
1.5342148
1.4082324
1.2977146
1.1900862
1.1084472
1.0302438
0.98188721
0.92955014
1.0484929
1.1593715
1.2831563
1.4298318
1.5674178
1.6735885
1.7431705
1.7844772
1.803829
1.8091247
1.8119663
1.8139074
1.8152471
1.8162867
1.8168496
1.8170479
1.8172009
1.7820557
1.0310811
0.92289651
1.1374778
1.7450033
2.3704243
2.1845053
1.7820341
1.4499833
1.3403704
1.3561325
1.3476141
1.3983011
1.4438549
1.4460843
1.4673503
1.4871476
1.4578374
1.4536882
1.5330337
1.6906393
1.6857396
1.6097268
1.4522526
1.3864268
1.3756132
1.345641
1.3285894
1.1934911
1.1228886
1.275248
1.6039025
1.8820814
1.9604802
1.9844258
1.9926785
1.9657384
1.8650059
1.6888032
1.4329227
1.1987233
1.0496814
1.2962182
1.7768395
1.9600674
2.0469926
2.0362007
2.0181145
2.001977
1.9638045
1.9358486
1.9138622
1.9115911
1.8940455
1.8814532
1.8638828
1.8497618
1.8224264
1.7973614
1.7620051
1.7283692
1.6580356
0.9858556
0.90396759
1.4062142
3.4650247
4.4459716
3.9251391
3.0073823
2.3992977
2.3245275
2.417385
2.490916
2.6795061
2.8273608
2.9695218
3.2683837
3.491419
3.5081911
3.5339529
3.7132082
3.9328328
3.9010997
3.7731369
3.5363283
3.2937498
3.1425997
3.0808333
2.7368931
2.0121912
1.6420941
1.7991351
2.2664397
2.6798466
2.9175568
3.0110863
3.0063335
2.8215541
2.5376333
2.3481029
2.2660236
2.2454823
2.2841907
2.7262205
3.1404877
3.3003868
3.4746767
3.3938721
3.2724054
3.0889511
2.8354992
2.5991674
2.3576791
2.2062097
2.0224905
1.8866427
1.7260751
1.6363589
1.4989323
1.415625
1.2806772
1.2045248
1.0404282
0.96760221
2.2295957
4.577482
5.1151464
4.5821507
3.9838118
3.6611135
3.6846833
3.8659994
3.8354798
3.9030592
4.0949363
4.3225073
4.5524158
4.622901
4.5423717
4.5193771
4.6341821
4.811631
4.7635457
4.6506536
4.5437285
4.4119645
4.4202329
4.5904048
4.5200347
3.762258
3.1506796
3.3918167
4.1490605
4.665087
4.8103646
4.7440222
4.530457
4.0908196
3.5507013
3.153538
3.0148026
3.1625228
3.4068963
3.8268552
4.5443619
4.8285949
4.916195
4.6677629
3.8760213
3.5578212
3.3402474
3.1981727
2.861909
2.372631
1.7828696
1.4161947
1.2667842
1.1912964
1.1218781
1.0089153
0.8340937
0.58069582
0.25926013
1.0408307
2.5475027
4.6955873
5.2348777
4.777288
4.3835012
4.181187
4.3045787
4.5886492
4.555584
4.6182881
4.7422054
4.7934338
4.9401693
4.952177
4.8412115
4.7905206
4.8816537
5.0406891
4.9667132
4.8436447
4.7283923
4.6150359
4.6555079
4.8615315
4.8409284
4.1601248
3.4863882
3.5216067
4.1330457
4.631816
4.7066971
4.5482965
4.2980572
3.9338489
3.4708832
3.1954222
3.0920119
3.1687142
3.1831624
2.9933508
3.4828443
4.247047
4.4303685
4.3991219
4.2885639
4.0533351
3.64264
3.1874145
2.7454231
2.2345615
1.78067
1.375337
0.99125882
0.70501566
0.54266892
0.37553293
0.25354743
0.1213172
0.058456441
2.5455294
4.614958
5.2095198
4.8160583
4.506342
4.338945
4.4940807
4.8514216
4.875842
4.9428102
4.9616579
4.9447395
5.0814449
5.0860644
4.9686959
4.9046229
5.0001496
5.1600019
5.0650558
4.9200584
4.7836927
4.6620085
4.7301835
4.9968865
5.0885557
4.5130575
3.8471707
3.9118639
4.5601347
4.9081149
4.8598137
4.4635542
4.01021
3.6438876
3.3558754
3.2230446
3.1595686
3.1715579
3.1277973
3.2794954
3.9452013
4.4578342
4.710512
4.7796406
4.7747583
4.67541
4.5906718
4.516423
4.4865332
4.4469825
4.3932712
4.257631
4.0610042
3.6961866
3.2124121
2.7255694
2.1153131
1.2738823
0.66410113
2.2529049
4.2059432
4.9308376
4.7444946
4.5130805
4.3635495
4.5295294
4.8940265
4.9489197
5.0404469
5.0380357
4.999652
5.140065
5.1429106
5.024573
4.9806777
5.1081422
5.2746994
5.1654067
4.992508
4.8123186
4.6684488
4.8607085
5.290669
5.5141415
5.0230831
4.3308562
4.279707
5.0257023
5.5448658
5.4843183
5.1258724
4.5874965
3.9995708
3.3300747
3.1670987