/*--------------------------------*- C++ -*----------------------------------*\
| =========                 |                                                 |
| \\      /  F ield         | OpenFOAM: The Open Source CFD Toolbox           |
|  \\    /   O peration     | Version:  2506                                  |
|   \\  /    A nd           | Website:  www.openfoam.com                      |
|    \\/     M anipulation  |                                                 |
\*---------------------------------------------------------------------------*/
FoamFile
{
    version     2.0;
    format      ascii;
    arch        "LSB;label=32;scalar=64";
    class       volScalarField;
    location    "2.6";
    object      k;
}
// * * * * * * * * * * * * * * * * * * * * * * * * * * * * * * * * * * * * * //

dimensions      [0 2 -2 0 0 0 0];

internalField   nonuniform List<scalar> 
19257
(
11.259171
10.230109
9.5856882
9.1444872
8.8184415
8.5659935
8.3646115
8.2005817
8.0646943
7.9509112
7.8546677
7.772555
7.7020775
7.6411774
7.5883163
7.5420223
7.5014436
7.4659207
7.4347223
7.4069761
7.382451
7.360987
7.342274
7.3255304
7.3107703
7.2988244
7.2901627
7.2838253
7.2797611
7.2788363
7.2853011
7.2989731
7.3196841
7.3442686
7.3740132
7.4100676
7.4546094
7.5063702
7.5669239
7.6466372
7.7390582
7.8696788
8.0107464
8.1951419
8.3760702
8.6968568
9.0906481
10.717056
10.68863
11.240765
10.261982
9.6395805
9.2018246
8.8745855
8.619524
8.4150421
8.2478342
8.1088124
7.9920277
7.8929292
7.8081737
7.7352714
7.6721246
7.6171175
7.5689188
7.5265057
7.4892783
7.4564262
7.4272867
7.4013696
7.3786556
7.3587783
7.3410452
7.325216
7.3122474
7.3022047
7.2949937
7.2901876
7.2877008
7.2930282
7.3049155
7.3236194
7.3468762
7.3755833
7.4094763
7.450739
7.4982691
7.5598313
7.6379445
7.7195972
7.829645
7.95607
8.1643665
8.2999139
8.6003209
9.0256661
10.598752
10.37915
11.317415
10.364107
9.733251
9.2874143
8.9529366
8.6911723
8.4805683
8.3078485
8.1638948
8.0426212
7.9394937
7.8510374
7.7747745
7.7085603
7.6507705
7.6000925
7.5553079
7.515888
7.481053
7.450169
7.422525
7.3983416
7.3770194
7.3578897
7.3408743
7.3264341
7.3150767
7.3068004
7.3006591
7.2972496
7.3006908
7.3099176
7.3271232
7.3486762
7.3752143
7.4074274
7.4447479
7.4930286
7.5464427
7.6175841
7.7083416
7.8251121
7.9605289
8.1262342
8.3111905
8.5522804
8.8228868
10.37758
10.126747
11.358786
10.439875
9.8172425
9.3695798
9.0303137
8.7631383
8.5471243
8.3692865
8.2205949
8.0949182
7.9878128
7.8956458
7.8159311
7.7466099
7.6859357
7.6325972
7.585398
7.5437834
7.5068285
7.4740139
7.4445662
7.4187386
7.3958474
7.3751986
7.3570268
7.3412904
7.3284551
7.31865
7.3116225
7.3075332
7.3090994
7.3157898
7.3308519
7.3507831
7.375935
7.4064261
7.4428196
7.4873681
7.5447149
7.6079966
7.6899493
7.7931667
7.9255214
8.0897243
8.273267
8.4893687
8.7721149
9.9901416
9.9490998
11.405174
10.521774
9.9061706
9.4565723
9.1125453
8.8398603
8.6182389
8.4350134
8.2813147
8.1509417
8.0395229
7.9433818
7.8599397
7.7872944
7.7234839
7.667291
7.6175308
7.5733844
7.5341866
7.499341
7.4679664
7.4401599
7.4156418
7.3935625
7.3740571
7.3570104
7.3425656
7.3311973
7.3228559
7.3175283
7.3172413
7.3225871
7.3351949
7.3535246
7.3770349
7.4057081
7.4398255
7.4806461
7.5335448
7.6020562
7.6772097
7.7781594
7.9114656
8.0607544
8.2400282
8.4395662
8.685081
9.7920051
9.7852215
11.446689
10.600168
9.9947876
9.5451791
9.1973163
8.9195321
8.6925022
8.503928
8.3451189
8.2099429
8.0940348
7.9937968
7.9064845
7.8302748
7.7631766
7.7039598
7.6514238
7.6046489
7.5631276
7.5260129
7.4925953
7.4628352
7.4364618
7.4128481
7.3916768
7.3733005
7.3573402
7.3443181
7.3347519
7.3281801
7.3257099
7.3298154
7.3398638
7.3563273
7.3784437
7.4059379
7.4378114
7.4780771
7.5265305
7.5866308
7.6660099
7.7612073
7.8874984
8.0464187
8.1977188
8.3902787
8.6911777
9.660003
9.6746084
11.485861
10.676492
10.083308
9.6350461
9.2841859
9.0017643
8.7695597
8.5756992
8.4117752
8.2717386
8.1512065
8.0467075
7.9554069
7.8754171
7.8048879
7.7425042
7.6869844
7.6375005
7.5934598
7.5539807
7.5184899
7.4866692
7.4582475
7.4329194
7.4101573
7.3901384
7.3728545
7.3582074
7.346952
7.3390275
7.3348441
7.3373605
7.3451888
7.3598967
7.3804755
7.4054441
7.4372016
7.4728363
7.5222199
7.584377
7.6537306
7.7480448
7.8692367
8.0180607
8.1783158
8.358561
8.5980727
9.5049835
9.590498
11.521681
10.749483
10.170174
9.7247206
9.3718945
9.0854873
8.8484801
8.6495481
8.4805983
8.3357199
8.2105
8.1015698
8.0062518
7.9224034
7.8482957
7.7825928
7.7240278
7.6717515
7.6250255
7.5830473
7.5453977
7.5114605
7.4808947
7.4537001
7.4294296
7.4078638
7.3888437
7.3727453
7.3598276
7.350234
7.344637
7.3450209
7.3509039
7.3639771
7.3827199
7.4061284
7.4343148
7.472283
7.5139385
7.5707977
7.6442555
7.7338943
7.8523324
7.9966689
8.1498141
8.3243799
8.5773393
9.4020904
9.5292271
11.554249
10.818414
10.254103
9.8129001
9.4592079
9.1695698
8.9282615
8.7245435
8.5507337
8.4011237
8.2713017
8.1579465
8.0585325
7.9707898
7.8930136
7.8239076
7.7622324
7.7070212
7.6575417
7.6130293
7.57304
7.5370172
7.5044132
7.4751218
7.4489933
7.4258885
7.4053941
7.3875804
7.3730605
7.3618297
7.3549652
7.3523774
7.3572955
7.3688839
7.3853667
7.4068962
7.4343521
7.4674533
7.5121587
7.5652828
7.633846
7.7216235
7.8366657
7.9772154
8.1273002
8.2981291
8.5345705
9.2985284
9.4800098
11.583767
10.882752
10.334109
9.8982861
9.5447952
9.2527066
9.0076361
8.7995468
8.6211652
8.4669614
8.3326613
8.2149877
8.1114477
8.0198505
7.9384599
7.8659045
7.8010624
7.7429194
7.6906494
7.6435713
7.6011913
7.5629624
7.5283083
7.4970291
7.4690021
7.4440794
7.4220462
7.4027768
7.3866124
7.373801
7.3652984
7.3603911
7.3641777
7.3739524
7.3883833
7.4079906
7.4332984
7.4661531
7.506067
7.5580038
7.6260778
7.712492
7.8254591
7.9595477
8.1063878
8.2744765
8.5098253
9.236636
9.4418997
11.610048
10.941578
10.408927
9.9794721
9.6271739
9.3334431
9.0852256
8.8732881
8.6906804
8.5321514
8.3935989
8.2717964
8.1642319
8.0688648
7.9839181
7.9079377
7.8399249
7.7788797
7.7238539
7.6741827
7.6293969
7.5889922
7.5522944
7.5190781
7.4892224
7.4625777
7.4388523
7.4179758
7.4003204
7.3859791
7.3757867
7.3688842
7.3714621
7.3791415
7.3916475
7.4095392
7.4334713
7.4637171
7.5025958
7.5528384
7.6162484
7.6999869
7.8089611
7.9434689
8.0876864
8.2515198
8.4803378
9.1679366
9.4105466
11.63341
10.995025
10.477806
10.055301
9.7049511
9.4103338
9.159695
8.9444172
8.75801
8.5954808
8.4529431
8.3272417
8.2158968
8.1168826
8.0284719
7.9492405
7.8781495
7.8142145
7.7565111
7.7042976
7.6571339
7.6145624
7.5759031
7.5407773
7.5090605
7.4807058
7.4555105
7.4331664
7.4139682
7.3981188
7.3861167
7.3778546
7.3784605
7.3840743
7.3950712
7.4114155
7.4337464
7.4627108
7.4995158
7.5469688
7.6104968
7.6916072
7.8025343
7.9294865
8.0705014
8.2338118
8.4649176
9.1308252
9.3868317
11.653863
11.042299
10.539851
10.124555
9.7767947
9.4820489
9.2296263
9.011527
8.8217848
8.655684
8.509514
8.3802222
8.2653526
8.1629182
8.0712516
7.9889277
7.9149214
7.8482331
7.7879875
7.7333602
7.6838985
7.6391762
7.5985891
7.5616558
7.5281801
7.4981196
7.4713811
7.4476355
7.427048
7.409849
7.3961794
7.3873453
7.3843544
7.3890312
7.3987536
7.4136243
7.4341742
7.4615894
7.4970836
7.5431928
7.6027901
7.6828936
7.7857042
7.9141602
8.0545799
8.2162943
8.4414276
9.0822407
9.3675788
11.671589
11.083703
10.59495
10.186618
9.8417068
9.5472474
9.2935076
9.0731796
8.8806152
8.7114324
8.5620556
8.4295317
8.3114508
8.2058876
8.1112478
8.026096
7.9493868
7.8801328
7.8175118
7.7606542
7.7090695
7.662367
7.619963
7.5813203
7.5462014
7.5145244
7.4862864
7.4611739
7.4392359
7.4207311
7.4056759
7.3956305
7.3901164
7.3939073
7.4022302
7.4157026
7.4346785
7.4607542
7.494791
7.5389586
7.5983303
7.6745351
7.7815918
7.903935
8.0411114
8.2031101
8.4323474
9.0577697
9.3542739
11.686712
11.118904
10.642085
10.240185
9.8982282
9.6044499
9.3499048
9.1278823
8.9330704
8.7613191
8.609206
8.4738658
8.3529796
8.2446728
8.1473878
8.0597159
7.9805949
7.9090469
7.8442666
7.7854095
7.7318979
7.6833859
7.6393356
7.5991907
7.5626544
7.5295807
7.5000077
7.4736886
7.4505501
7.4308329
7.414504
7.4033119
7.3954458
7.3983347
7.4053641
7.4174362
7.4352703
7.4599558
7.4928911
7.5357405
7.5925128
7.6688033
7.7684566
7.8908652
8.0289341
8.1919466
8.419495
9.0314472
9.3441672
11.699226
11.147875
10.68113
10.284927
9.9457715
9.6528096
9.3977865
9.1744716
8.9778682
8.8040389
8.6496699
8.5119766
8.3887134
8.2780864
8.1785695
8.0887728
8.0076029
7.9341001
7.8674513
7.8068619
7.7516854
7.7015955
7.6560805
7.6145948
7.5768163
7.5425346
7.5117997
7.4844368
7.4603017
7.4395611
7.4221353
7.4099196
7.4000289
7.4020085
7.4079078
7.4187225
7.4356147
7.4592401
7.4909671
7.5326223
7.5878992
7.6615955
7.7623704
7.8830876
8.021118
8.1857528
8.4131821
9.0182232
9.3390704
11.709012
11.17044
10.711676
10.320124
9.9833532
9.6911563
9.4359893
9.2117644
9.0138692
8.83843
8.6822868
8.5427469
8.4175981
8.3051236
8.2038152
8.1123086
8.0294774
7.9543754
7.8862038
7.8242201
7.7677342
7.7163933
7.6696964
7.6271148
7.5883249
7.553039
7.5213044
7.4930208
7.4680231
7.4464038
7.4280631
7.4149567
7.4034994
7.4046625
7.4097127
7.419779
7.4357722
7.4585838
7.4894537
7.5304461
7.5848729
7.6574428
7.755821
7.8776493
8.017454
8.1829481
8.4135027
9.014591
9.337046
11.71604
11.186531
10.733538
10.345388
10.010289
9.7186999
9.4635143
9.2387678
9.0400109
8.8634542
8.7060781
8.5652574
8.4387858
8.3249758
8.2223433
8.129555
8.0454705
7.9691654
7.8998697
7.8368592
7.7794127
7.7271676
7.6796154
7.6362396
7.5967486
7.5607721
7.528329
7.4993756
7.4737511
7.4515013
7.4325181
7.4188027
7.406401
7.4071147
7.411752
7.4214917
7.4372392
7.4598449
7.4904998
7.5312161
7.5854142
7.6577687
7.7555202
7.8781905
8.0188377
8.1846794
8.4136626
9.0073682
9.3385448
11.720267
11.196075
10.74648
10.360323
10.026257
9.7352074
9.4799136
9.2548901
9.055591
8.8783567
8.7202034
8.5786165
8.4513913
8.3368185
8.233418
8.1398666
8.055028
7.9780077
7.9080554
7.8444406
7.7864159
7.7336336
7.6855786
7.6417337
7.6018612
7.5655425
7.5327539
7.50349
7.4776176
7.4551798
7.4360746
7.4223139
7.4100685
7.410934
7.4156039
7.425348
7.441173
7.4639879
7.4949455
7.5360734
7.5908387
7.6636458
7.7628546
7.884792
8.0240412
8.1885522
8.4179443
9.0287459
9.3458323
11.72165
11.199086
10.750432
10.364784
10.030967
9.7399891
9.4846486
9.2596009
9.0601065
8.882615
8.7242067
8.5823697
8.454891
8.3400731
8.2364463
8.1426934
8.0576752
7.9804976
7.9104048
7.8466466
7.7884703
7.7355516
7.6873666
7.6433946
7.6034442
7.5670889
7.5342699
7.5049869
7.4791356
7.4567685
7.437765
7.4241825
7.4124525
7.4136752
7.4185179
7.4283958
7.4444127
7.4675501
7.4989685
7.5407084
7.5961843
7.6698911
7.7704791
7.8919154
8.0304387
8.1944345
8.4262051
9.047825
9.3501415
11.720254
11.196056
10.746459
10.360333
10.026278
9.7352617
9.4799728
9.2549609
9.0556573
8.8783869
8.7201856
8.5785324
8.451231
8.3366258
8.2332239
8.1396866
8.0548768
7.9778963
7.9079897
7.8444136
7.7864199
7.7336704
7.685611
7.6417349
7.6018676
7.5655981
7.5328321
7.5035445
7.4776602
7.4552474
7.4361772
7.4224936
7.4103859
7.4112245
7.4158555
7.4255717
7.4413789
7.4642376
7.4953236
7.5365676
7.5912552
7.6639196
7.7629281
7.8847901
8.0241054
8.1886323
8.4180584
9.0303069
9.3462732
11.715995
11.186498
10.733554
10.345456
10.010343
9.718809
9.4635456
9.238874
9.0400951
8.8634697
8.706003
8.5651104
8.4385856
8.3247895
8.2221888
8.1294117
8.0453313
7.9690444
7.8997863
7.8368273
7.7794273
7.7272309
7.679655
7.636231
7.5967785
7.5609062
7.5284844
7.499454
7.473783
7.451544
7.4326051
7.4190261
7.4068833
7.4075351
7.412131
7.4218551
7.4376164
7.4603869
7.4913912
7.5325242
7.5867012
7.6582228
7.7555905
7.8782751
8.0191757
8.1853218
8.4144919
9.0089179
9.3399955
11.708934
11.170425
10.711777
10.32029
9.9833983
9.6910825
9.4358436
9.2117081
9.0138523
8.8383351
8.6820986
8.5425192
8.4173675
8.3049609
8.2037109
8.1122117
8.029342
7.9541998
7.886022
7.8240819
7.7676576
7.7163818
7.669643
7.6270259
7.5883336
7.5532038
7.5214643
7.4930498
7.4679963
7.4463863
7.4280783
7.4151525
7.4039934
7.405073
7.4100794
7.4201601
7.436266
7.4595321
7.4909594
7.5321809
7.5864192
7.6587204
7.7557766
7.8777537
8.0182828
8.1842194
8.4125161
9.0081342
9.3373965
11.69917
11.147925
10.681266
10.285103
9.9458065
9.6526418
9.3975655
9.1742832
8.9777747
8.8039025
8.6495032
8.5118083
8.3885377
8.2779832
8.1785157
8.0887273
8.0074996
7.9339143
7.8672061
7.8066441
7.7515496
7.7015413
7.6559732
7.6144789
7.57685
7.5427566
7.5119714
7.4844434
7.4602881
7.4395573
7.4221933
7.4101421
7.4005673
7.4023599
7.4082076
7.4191377
7.4361934
7.459913
7.4923618
7.5348823
7.5905777
7.6633099
7.7656626
7.8861885
8.0235589
8.187182
8.4166358
9.0238013
9.339687
11.686703
11.118963
10.642235
10.24038
9.8983039
9.6043236
9.3497228
9.1277612
8.9330314
8.7612548
8.6091382
8.4737979
8.3528914
8.2446377
8.1473695
8.059712
7.9805391
7.9089054
7.8440486
7.7852216
7.7317825
7.6833176
7.6391726
7.599037
7.562701
7.5298464
7.5001884
7.4737452
7.450688
7.4310461
7.4147758
7.4038091
7.3960498
7.3987557
7.4058562
7.4179009
7.4357659
7.4614039
7.4950691
7.5392916
7.5959543
7.6700879
7.7683069
7.8918122
8.0304769
8.1941688
8.4227756
9.0364623
9.3457972
11.671569
11.083824
10.595248
10.186939
9.8419249
9.5472803
9.2934054
9.0731191
8.8806473
8.711462
8.562085
8.4295434
8.3114478
8.2059127
8.1112543
8.0261177
7.9493444
7.87999
7.8172948
7.7604846
7.7089543
7.6622521
7.6197317
7.5811306
7.5462568
7.5147936
7.4864196
7.4612385
7.4394529
7.4209917
7.406026
7.3960967
7.3905485
7.3943366
7.402633
7.4160894
7.4355114
7.4621366
7.4975102
7.5418744
7.5991006
7.6764348
7.7794978
7.9025079
8.04145
8.2044253
8.4313756
9.0612992
9.3563429
11.653715
11.042311
10.539985
10.124626
9.7768005
9.4820181
9.2295204
9.0114756
8.8217844
8.6557037
8.5095501
8.3802491
8.2653425
8.1629019
8.0712163
7.9889241
7.9148447
7.8480432
7.7877509
7.7332014
7.6838099
7.6390631
7.5983531
7.5614646
7.5282243
7.4982827
7.4712972
7.44749
7.4270842
7.4099628
7.3964897
7.3875091
7.3847123
7.3892417
7.3989735
7.4141808
7.4351018
7.4629847
7.499131
7.5455758
7.6067694
7.6839478
7.789936
7.9160846
8.0560702
8.2181003
8.4454782
9.0883079
9.3707484
11.633248
10.995212
10.478212
10.055673
9.7051376
9.4103886
9.1596734
8.9443703
8.757934
8.5954087
8.4528868
8.3271798
8.2158061
8.1167732
8.0283414
7.9491381
7.8779687
7.8139353
7.7562374
7.7041108
7.6569762
7.6143296
7.5756026
7.5405699
7.5090616
7.4807329
7.4552671
7.4330203
7.4141013
7.398381
7.3864892
7.3781403
7.3785999
7.3841768
7.3955948
7.4119873
7.4343584
7.463372
7.501956
7.5519943
7.6126896
7.6921603
7.8002578
7.93072
8.0728546
8.2361285
8.4643743
9.1260213
9.389736
11.6098
10.941784
10.409157
9.9797307
9.6273515
9.3334911
9.0852328
8.8732356
8.6905698
8.5320116
8.3934841
8.2716739
8.1641034
8.0687082
7.9837339
7.9077964
7.8396878
7.7785575
7.7235711
7.6739794
7.6292033
7.5887297
7.5520344
7.5189139
7.4892426
7.4625694
7.4386747
7.4180239
7.4006712
7.3864601
7.3762907
7.3692424
7.3714845
7.3795528
7.392015
7.4099749
7.4343572
7.4674843
7.5087225
7.5569224
7.6183284
7.703251
7.8107936
7.9446819
8.0896291
8.2541326
8.4842867
9.1760655
9.4146275
11.583399
10.882798
10.334237
9.8984333
9.5449452
9.2527477
9.0076252
8.799511
8.6210707
8.46683
8.3325757
8.2149023
8.1113356
8.019729
7.9382839
7.865699
7.8007726
7.7425922
7.6903642
7.6433693
7.6009739
7.5627079
7.5280705
7.4969273
7.4690909
7.4440355
7.4217509
7.4027936
7.3870527
7.3743187
7.3658487
7.3606219
7.3645394
7.374455
7.3889117
7.4087588
7.4342412
7.4681997
7.5088326
7.5599832
7.6296148
7.7110879
7.8283106
7.9619615
8.1100534
8.278165
8.5114545
9.2346041
9.4462325
11.554
10.818622
10.254339
9.8130849
9.4593785
9.1696016
8.9282531
8.7245302
8.5506849
8.40107
8.2712845
8.1579082
8.0584351
7.9706931
7.8928739
7.8236888
7.7619202
7.7067457
7.6573267
7.6128897
7.5728932
7.5368558
7.5042791
7.4751208
7.4490622
7.4255907
7.4049937
7.3877617
7.3735815
7.3623354
7.3553789
7.3527066
7.3578717
7.3696047
7.3862248
7.4077331
7.4365266
7.4702305
7.5154764
7.5691376
7.6352571
7.722685
7.8392868
7.9798913
8.1276342
8.2988059
8.5374349
9.3099858
9.4865287
11.521483
10.749888
10.170611
9.7250228
9.3720952
9.0855183
8.8485017
8.6495487
8.4805823
8.3357832
8.2105769
8.1016009
8.0062329
7.9223523
7.8481806
7.7823637
7.723803
7.6715977
7.6249015
7.5829157
7.5453002
7.5115123
7.4809418
7.4536222
7.4293562
7.4075891
7.3886456
7.3729978
7.3602879
7.3506287
7.3448761
7.3452991
7.3515588
7.3649014
7.3847286
7.407207
7.4358986
7.4728977
7.5180425
7.5745004
7.6445294
7.738303
7.8525546
7.9983705
8.1573878
8.3299964
8.5731469
9.4015035
9.5370458
11.485508
10.67681
10.083869
9.6353932
9.2843645
9.0017597
8.7695515
8.5756759
8.4117842
8.2718615
8.1512885
8.0467453
7.9554538
7.875334
7.8047769
7.7422457
7.6868094
7.6374502
7.5934121
7.5538697
7.5185727
7.4867997
7.4581729
7.432846
7.4102204
7.390089
7.3729583
7.358811
7.3474387
7.3392169
7.3349949
7.3377863
7.3459954
7.3620992
7.3798732
7.4062219
7.4400336
7.4792457
7.5245116
7.5842995
7.6549386
7.7455995
7.8811941
8.0238108
8.1725329
8.3564745
8.6126801
9.5251368
9.6016848
11.445995
10.599975
9.9950816
9.5454304
9.1974077
8.9194687
8.6924483
8.5038515
8.345093
8.2100611
8.0940841
7.9938606
7.9065719
7.8301525
7.7630558
7.7037395
7.6512849
7.6046608
7.5631307
7.5259779
7.4928038
7.4631268
7.4364907
7.41276
7.3916085
7.3732671
7.3577729
7.3449286
7.3350254
7.3284808
7.3261565
7.3303164
7.3415932
7.3575238
7.3806108
7.4092323
7.4400909
7.4802525
7.5296886
7.5892457
7.6653525
7.7663831
7.8815439
8.044453
8.2021642
8.3911393
8.6613987
9.6647763
9.6852425
11.404476
10.521506
9.906165
9.4566361
9.1124681
8.8396727
8.6180957
8.4348653
8.2811963
8.1509747
8.039518
7.9434269
7.85998
7.7871437
7.7233254
7.6670764
7.6174628
7.5734876
7.5342754
7.4993496
7.4682413
7.4404024
7.4156235
7.3934834
7.3739559
7.3571703
7.3431495
7.3316858
7.3229963
7.3176737
7.3177654
7.3234304
7.3368814
7.3556145
7.3773712
7.4058767
7.4456099
7.4860385
7.5378634
7.5985323
7.6788342
7.7748657
7.9183079
8.0803798
8.2245553
8.4299087
8.7225522
9.81024
9.7938195
11.358143
10.43957
9.8170985
9.3695205
9.0300856
8.7628585
8.5468978
8.3690195
8.2204232
8.0948748
7.987735
7.8956316
7.8158777
7.7464459
7.6857513
7.6323663
7.5854207
7.5439313
7.5069343
7.4740361
7.4448575
7.4188731
7.3957251
7.3750387
7.3570499
7.3418621
7.329017
7.3188366
7.3116977
7.3079692
7.3099793
7.3170271
7.3325757
7.3524521
7.378555
7.4117181
7.4456635
7.4900448
7.5434418
7.6100119
7.6909398
7.7969374
7.9149227
8.0957032
8.2691795
8.4792423
8.7851402
9.9733974
9.936783
11.317296
10.364369
9.7333424
9.287388
8.9526611
8.6908484
8.4802622
8.3074656
8.1636376
8.0424681
7.9393827
7.8510077
7.7746619
7.7084037
7.6505898
7.5998891
7.5553628
7.5161275
7.4812358
7.4502985
7.4228242
7.3984555
7.376796
7.3574234
7.3409278
7.3272611
7.3160258
7.3066288
7.3000846
7.2986018
7.3020393
7.3110079
7.3291007
7.3512671
7.3767069
7.4100953
7.4501792
7.4983439
7.5485696
7.6179042
7.7068292
7.8143946
7.9503001
8.1372024
8.2920784
8.5353604
8.8877616
10.15991
10.121906
11.240226
10.262208
9.6398879
9.2018778
8.8742872
8.6191469
8.414678
8.2473704
8.1085068
7.9918537
7.8928208
7.8081397
7.7351413
7.6719324
7.6168749
7.56883
7.5266129
7.4895106
7.4565785
7.4274255
7.4017067
7.3789923
7.3586278
7.3405477
7.3254223
7.3131615
7.3026246
7.2944067
7.2899795
7.2900217
7.2948708
7.305926
7.3247779
7.3494147
7.3761712
7.413331
7.4590291
7.5045368
7.566211
7.638604
7.72333
7.8305412
7.9808404
8.1918162
8.3474398
8.6183846
8.8698352
10.316473
10.369149
11.258517
10.230412
9.5860587
9.1446262
8.8181744
8.5655608
8.3641751
8.2001199
8.0644295
7.9507448
7.854521
7.7724868
7.7019453
7.6409935
7.5880747
7.5420047
7.5016535
7.4662416
7.4348541
7.407117
7.3827119
7.3613277
7.3420884
7.3251412
7.3112471
7.2999873
7.2905959
7.2831321
7.2792972
7.280714
7.2872563
7.2995905
7.3214292
7.3471676
7.3812449
7.4218337
7.4585903
7.5063923
7.5666827
7.6433651
7.7363474
7.8601075
7.9646054
8.2288952
8.4476175
8.7278476
9.0093288
10.526289
10.670382
34.189171
20.598862
11.361606
9.804383
9.6542602
9.5344875
9.3545117
9.1035224
8.882036
8.6541107
8.438899
8.2184196
8.0295806
7.8515048
7.7030736
7.5583486
7.4208226
7.2935104
7.1806681
7.0783559
6.9864959
6.9171138
6.8701319
6.8358541
6.8097054
6.7897888
6.775741
6.7643464
6.7554292
6.7483394
6.7435342
6.7395156
6.7369012
6.7360767
6.7370921
6.7403088
6.7459492
6.7551337
6.7686242
6.7875973
6.813414
6.8483038
6.8951245
6.9577692
7.0428025
7.1603774
7.3297755
7.5916288
8.100913
33.99368
17.14035
10.667823
9.5788537
9.6354342
9.4512275
9.2822893
9.0134085
8.7909191
8.5660006
8.3739852
8.1565483
7.9786788
7.8190226
7.6870129
7.5499869
7.415031
7.2874393
7.1742651
7.0719671
6.9903037
6.9277613
6.8819064
6.8492499
6.824592
6.8055586
6.7922949
6.7812296
6.7725624
6.7655165
6.7609519
6.7571272
6.7546165
6.7537936
6.7549494
6.7583501
6.7641178
6.7734591
6.7871343
6.8063295
6.8324163
6.8675987
6.914805
6.9779254
7.0635538
7.1819201
7.352443
7.6160148
8.1314238
34.224506
15.233519
10.221816
9.552242
9.6001253
9.4122532
9.2603085
8.9707262
8.7458438
8.5106726
8.3352048
8.1338907
7.9615217
7.7984807
7.6780874
7.5485804
7.4144553
7.2886233
7.176513
7.0806685
6.9997062
6.9378653
6.8946043
6.8630434
6.8396199
6.8213019
6.8083159
6.7975152
6.78919
6.7822586
6.7777079
6.7740757
6.7717039
6.770906
6.7721678
6.7757483
6.7817036
6.7912354
6.8051231
6.8245762
6.8509691
6.886492
6.9341273
6.9977806
7.0840656
7.2032886
7.3749841
7.6402324
8.1551218
33.98679
15.170051
10.239984
9.4763859
9.5903709
9.3579577
9.2086209
8.9292775
8.7132589
8.4620798
8.2873556
8.0990906
7.9490995
7.7853588
7.6658784
7.5342529
7.4074731
7.2878193
7.1785494
7.0857427
7.0069203
6.9496771
6.9075463
6.8762282
6.8535905
6.836406
6.8236225
6.8131381
6.8052608
6.7985905
6.7939643
6.7905556
6.7883942
6.7876957
6.7890759
6.792863
6.7990915
6.8088775
6.8230415
6.8428212
6.8695974
6.9055498
6.953706
7.0179999
7.1050696
7.2253062
7.3983677
7.665589
8.1827051
33.470492
14.496914
10.043043
9.4745688
9.5630117
9.3157809
9.172466
8.8941542
8.6968837
8.4404798
8.2604928
8.0712106
7.9431641
7.7756122
7.6525215
7.5245674
7.4000052
7.288003
7.1810716
7.0919523
7.0153813
6.9609359
6.9210555
6.8892351
6.8671729
6.8510755
6.8383848
6.8282703
6.8208501
6.8146106
6.8098644
6.8066702
6.80478
6.8042611
6.805786
6.8097913
6.8163572
6.8264512
6.8409475
6.8611134
6.8883388
6.9247919
6.9735454
7.0385658
7.1265298
7.2479028
7.4224807
7.6918666
8.2106413
32.914898
14.755413
10.107737
9.4633743
9.5712527
9.2805497
9.124493
8.849216
8.6594607
8.4226297
8.2410783
8.0393426
7.9075082
7.7605013
7.6339509
7.5007709
7.3952218
7.2834656
7.1813041
7.0989981
7.0252393
6.9738874
6.9353947
6.9023252
6.8807774
6.865159
6.8526965
6.8431015
6.8360303
6.8302907
6.8254762
6.8225243
6.8209394
6.820677
6.8224035
6.8266392
6.8335868
6.8440426
6.8589305
6.8795438
6.9072827
6.9443127
6.993739
7.0595783
7.1485497
7.2711863
7.4474443
7.7192064
8.2401292
32.109447
14.136607
10.065705
9.5086704
9.545256
9.2452135
9.094769
8.8058682
8.6208184
8.4038375
8.2305279
8.0230264
7.8812998
7.7383876
7.6141164
7.4901012
7.3960885
7.2863982
7.1857138
7.1034048
7.0350249
6.9864349
6.9490557
6.9151443
6.8941272
6.8787489
6.8668295
6.8576918
6.8509077
6.845629
6.8408861
6.8382222
6.8369623
6.8370148
6.8390141
6.8434955
6.8508474
6.8617183
6.8770551
6.8981778
6.9264935
6.9641759
7.0143495
7.0811041
7.1711909
7.2952189
7.4733236
7.747667
8.2709228
31.598859
14.361798
10.202133
9.5414114
9.5481006
9.2110349
9.0758683
8.7777217
8.5905964
8.361492
8.1948161
8.0010382
7.8571492
7.7197947
7.6045816
7.4854424
7.3869897
7.2855916
7.1905753
7.1092996
7.045082
6.9981078
6.960944
6.92751
6.9073466
6.8921531
6.8809349
6.8721765
6.8656495
6.8606316
6.8561649
6.8538295
6.8529177
6.853321
6.8556651
6.8604269
6.8681949
6.8795331
6.8953741
6.9170702
6.9460244
6.9844372
7.0354402
7.1032061
7.1945153
7.3200689
7.5001897
7.7773343
8.3032325
30.543319
13.819756
10.271492
9.587791
9.5539429
9.1662981
9.0596111
8.7547548
8.5768345
8.3253789
8.1504556
7.9759685
7.8451881
7.7051489
7.598916
7.4859863
7.3835385
7.2861602
7.1939599
7.1153907
7.0544523
7.0082815
6.9710463
6.9393333
6.9201879
6.9055803
6.8950804
6.8865563
6.8802333
6.8752782
6.87129
6.8693162
6.868784
6.8695702
6.8723318
6.8774234
6.8856253
6.8974837
6.913884
6.93622
6.9658811
7.0051066
7.0570297
7.1259087
7.2185546
7.3457783
7.5280935
7.8082812
8.3371685
29.967097
14.155213
10.363223
9.6214898
9.5692857
9.1440449
9.0232077
8.7349824
8.5598311
8.3094438
8.1191361
7.9403548
7.8246583
7.6904047
7.5915003
7.4885644
7.3825722
7.2812148
7.1948109
7.1214292
7.0627476
7.0177531
6.9801677
6.9506561
6.9326744
6.9190661
6.9090528
6.9007668
6.8946703
6.8896951
6.8863181
6.884712
6.8845975
6.8857777
6.88904
6.8945221
6.9031879
6.9156161
6.93263
6.955671
6.9861112
7.0262303
7.0791686
7.1492649
7.243364
7.3724012
7.5570917
7.8405705
8.372658
29.007978
13.366355
10.356782
9.659724
9.553776
9.1267393
8.9893446
8.713416
8.5205029
8.3024259
8.1049407
7.9225514
7.8033747
7.6728023
7.5745199
7.4811382
7.3835084
7.2817192
7.194537
7.125891
7.0693226
7.0273628
6.9894462
6.9619218
6.9449625
6.9323648
6.9228059
6.9148437
6.9089971
6.9041181
6.901351
6.9001074
6.9004418
6.9020242
6.9058646
6.9118135
6.920981
6.9340258
6.9517116
6.9755162
7.0068092
7.0479049
7.1019572
7.1733743
7.2690478
7.4000459
7.5872985
7.8743349
8.4100948
29.047018
13.649873
10.395712
9.6624731
9.5471788
9.1281029
8.9826212
8.702231
8.4715599
8.2719511
8.0927238
7.9173001
7.7845108
7.6566059
7.5573776
7.4681969
7.3765076
7.2823712
7.1968917
7.130761
7.0751094
7.0377041
6.9995458
6.973517
6.9573165
6.9452929
6.9362435
6.9287156
6.9231893
6.9186964
6.9164496
6.9155378
6.916363
6.9183469
6.9228078
6.9293181
6.939031
6.9527455
6.9711671
6.9957879
7.0280128
7.0701731
7.1254395
7.1982849
7.2956597
7.4287722
7.618778
7.9096454
8.4494281
28.194591
12.025163
10.236361
9.6409327
9.509374
9.1290664
8.9732933
8.6887869
8.4457418
8.2325963
8.0682904
7.9128698
7.7726958
7.6440597
7.545897
7.4591645
7.3705373
7.282462
7.2002999
7.1363615
7.0813591
7.047661
7.010383
6.9851121
6.9695372
6.9578022
6.9493072
6.942343
6.9372178
6.9333897
6.931619
6.930994
6.9323329
6.9347556
6.939819
6.9469968
6.9573159
6.9717564
6.9909873
7.0164778
7.0497219
7.0930415
7.1496272
7.2240209
7.323236
7.4586281
7.6515955
7.9465869
8.4907996
28.260415
11.902659
10.196295
9.6102956
9.386889
9.1019669
8.9220249
8.6575869
8.4358078
8.2177563
8.0537102
7.8964539
7.7581793
7.6331825
7.5379108
7.4493489
7.3698696
7.2824931
7.2042066
7.14136
7.0892341
7.0562261
7.0207153
6.9969619
6.9816011
6.9703311
6.9622678
6.955856
6.9512111
6.9481071
6.9468857
6.9465766
6.9483896
6.9513198
6.9569474
6.9648752
6.9758786
6.9911034
7.011214
7.0376378
7.0719855
7.1165596
7.174573
7.2506414
7.3518405
7.4896817
7.685826
7.9852366
8.5341487
26.628422
10.817183
10.103037
9.5849855
9.3616119
9.1151272
8.8909528
8.6058459
8.3994623
8.2045131
8.0438763
7.8844127
7.7386762
7.6237998
7.5316247
7.4424445
7.362949
7.2870841
7.2103724
7.1454994
7.0975277
7.0645556
7.0294909
7.0088846
6.9937767
6.9831056
6.9753761
6.9694525
6.9653995
6.9628103
6.9622389
6.9623892
6.9646451
6.9681253
6.9743307
6.983034
6.9948093
7.0108855
7.0319401
7.0593698
7.0949004
7.1408251
7.2003796
7.2782529
7.381586
7.522057
7.7216031
8.0257476
8.5798432
25.785712
10.984271
10.185826
9.5260069
9.3480507
9.1155277
8.8712973
8.5781859
8.3544159
8.1659668
8.0044991
7.8615145
7.7227435
7.6168803
7.5236478
7.4416068
7.3555504
7.2832302
7.2134647
7.1499466
7.1041037
7.0741714
7.0379133
7.0202519
7.0061377
6.9961459
6.9886311
6.9831284
6.979774
6.9774803
6.9775403
6.9783388
6.9811248
6.9851581
6.9920054
7.0014801
7.0141114
7.0311188
7.0531791
7.0817014
7.1184962
7.1658681
7.227085
7.3069003
7.4125319
7.5558219
7.7590068
8.068215
8.6278921
24.510341
11.10575
10.150821
9.5003317
9.3193503
9.0878257
8.8196754
8.5749395
8.3318046
8.1441601
7.9781512
7.8338924
7.7101916
7.6082906
7.5148191
7.441509
7.3545429
7.277876
7.2117748
7.1541216
7.1093869
7.0836777
7.0481973
7.0315543
7.0183593
7.0090868
7.0020302
6.9967586
6.9941817
6.9921363
6.9927875
6.9942985
6.9977703
7.0024251
7.0099606
7.0202277
7.0337795
7.0517956
7.0749363
7.1046488
7.1427938
7.1917147
7.2547229
7.3366259
7.4447313
7.5910534
7.7981309
8.1127614
8.6784663
23.665704
11.455256
10.214367
9.52733
9.3468651
9.0885863
8.7638553
8.5758364
8.3055332
8.1506848
7.9698576
7.8304942
7.6968291
7.5928307
7.5084777
7.4287878
7.354466
7.2781397
7.2101987
7.1579234
7.1155482
7.0909076
7.0597351
7.0433311
7.030852
7.0214466
7.0155748
7.0103468
7.0085508
7.0067867
7.0081539
7.0102895
7.0145499
7.0200039
7.0282372
7.0393477
7.0538742
7.0729582
7.0972671
7.1282716
7.16786
7.2184351
7.2833637
7.3675094
7.4782731
7.6278522
7.839093
8.1595302
8.7317343
22.59235
10.895029
10.2555
9.5803777
9.3847624
9.0955996
8.7473686
8.5591909
8.2790274
8.1549911
7.9531189
7.8333655
7.6892046
7.5848846
7.5044579
7.4214715
7.3497932
7.2787577
7.213774
7.1641236
7.1237417
7.0974257
7.0707765
7.0539312
7.0439532
7.0335959
7.0291032
7.0239189
7.0230495
7.0215351
7.0236716
7.0265112
7.0314999
7.0379289
7.0468996
7.0589082
7.0744762
7.0946724
7.1202405
7.1526405
7.193777
7.246119
7.3130989
7.3996504
7.5132622
7.6663401
7.8820443
8.2086886
8.7879917
22.109369
10.949141
10.248704
9.6053227
9.3986959
9.0500538
8.7517422
8.5427777
8.2720198
8.1474947
7.9260631
7.8146143
7.6775648
7.5796387
7.494208
7.4191886
7.348922
7.2802215
7.2175855
7.1707619
7.1318215
7.104806
7.08155
7.0626914
7.0557893
7.0462677
7.0425911
7.0375183
7.03768
7.0366328
7.0393025
7.0430286
7.0486854
7.0561588
7.065965
7.0789155
7.0956039
7.1169715
7.1438844
7.1777854
7.2205878
7.2748217
7.3439894
7.4331138
7.5497806
7.7066189
7.9271065
8.2603905
8.8474173
21.101925
10.596756
10.184843
9.6396305
9.3567617
9.0267168
8.7169606
8.5238387
8.2466715
8.1383787
7.9075795
7.784152
7.656927
7.5754607
7.482818
7.4120556
7.3459539
7.281573
7.2231929
7.1744993
7.1383577
7.112517
7.0912456
7.0731547
7.0651826
7.0588572
7.0560954
7.0513841
7.0522258
7.0521589
7.0551189
7.0597341
7.0661322
7.0746569
7.0854251
7.0993802
7.1172607
7.1398755
7.1682173
7.2037287
7.2483219
7.3045907
7.3760942
7.46796
7.5879051
7.7487767
7.9744015
8.3148067
8.9102782
20.366034
10.633672