/*--------------------------------*- C++ -*----------------------------------*\
| =========                 |                                                 |
| \\      /  F ield         | OpenFOAM: The Open Source CFD Toolbox           |
|  \\    /   O peration     | Version:  2506                                  |
|   \\  /    A nd           | Website:  www.openfoam.com                      |
|    \\/     M anipulation  |                                                 |
\*---------------------------------------------------------------------------*/
FoamFile
{
    version     2.0;
    format      ascii;
    arch        "LSB;label=32;scalar=64";
    class       volScalarField;
    location    "2.6";
    object      nut;
}
// * * * * * * * * * * * * * * * * * * * * * * * * * * * * * * * * * * * * * //

dimensions      [0 2 -1 0 0 0 0];

internalField   nonuniform List<scalar> 
19257
(
0.19791277
0.19638764
0.19536431
0.19462739
0.19406125
0.19361169
0.19324757
0.19294707
0.19269641
0.19248285
0.19230073
0.19214588
0.19201301
0.19189469
0.19179126
0.19170079
0.19162213
0.19155326
0.19148927
0.19143441
0.19138609
0.19134805
0.19131218
0.19128368
0.1912616
0.19125353
0.19126556
0.1912885
0.19132512
0.19141134
0.19151331
0.19169859
0.18022148
0.14988209
0.12255293
0.098460548
0.075409157
0.06249285
0.057113503
0.029609795
0.044634996
0.020786561
0.015668943
0.014615858
0.018521593
0.012493159
0.0065269838
0.0052335267
0.00072123406
0.19788558
0.19643695
0.19545366
0.194726
0.19416184
0.1937104
0.19334281
0.19303807
0.19278282
0.19256456
0.19237767
0.19221841
0.19208088
0.19195856
0.19185168
0.191757
0.19167515
0.1916036
0.1915367
0.19147802
0.19142786
0.19138725
0.19134882
0.19131836
0.19129337
0.19128329
0.19129252
0.19131166
0.19134137
0.19141442
0.19152337
0.19168531
0.1865121
0.15352232
0.11976524
0.095768023
0.080202803
0.064680097
0.044113137
0.047077417
0.021668611
0.023039562
0.026125065
0.015280528
0.017037081
0.0073604021
0.0060907489
0.0039094417
0.00075366445
0.19799096
0.19659314
0.19560374
0.19486964
0.19429884
0.19383982
0.19346424
0.19315145
0.19288846
0.19266328
0.19246938
0.19230341
0.19216022
0.19203341
0.19192118
0.1918209
0.19173494
0.19165965
0.19158859
0.19152629
0.19147336
0.19142956
0.19138928
0.19135554
0.19132934
0.19131448
0.19131729
0.19133309
0.19135862
0.19141366
0.19152945
0.19166548
0.18348216
0.15103848
0.12380565
0.097952709
0.080607627
0.065505395
0.057590997
0.040118816
0.040966299
0.022276585
0.016055538
0.014906169
0.0070628265
0.0028703798
0.007806343
0.004507154
0.00074540012
0.19805029
0.19670915
0.19573808
0.19500788
0.19443402
0.19397005
0.19358788
0.1932677
0.19299754
0.19276596
0.19256545
0.1923924
0.19224355
0.19211088
0.19199301
0.19188806
0.19179706
0.19171781
0.19164432
0.19157756
0.19152083
0.191474
0.19143257
0.19139552
0.19136565
0.19134744
0.19134437
0.19135429
0.1913786
0.19142293
0.19153294
0.19165486
0.19186804
0.15873204
0.1271955
0.10229548
0.081782089
0.065931415
0.051159939
0.039874107
0.030509434
0.026951146
0.021455278
0.016761434
0.0046677306
0.0039065647
0.0050289891
0.0041697024
0.00075853166
0.19811698
0.1968322
0.19587899
0.1951527
0.19457644
0.19410765
0.19371868
0.19339124
0.19311366
0.1928754
0.19266809
0.19248775
0.19233153
0.19219302
0.19206972
0.19196039
0.1918633
0.1917797
0.19170334
0.19163266
0.19157185
0.19152108
0.19147577
0.19143516
0.19140323
0.19138173
0.1913732
0.19137853
0.19139997
0.19143782
0.19152905
0.19164746
0.1918459
0.15845934
0.12852798
0.10341391
0.082950798
0.066358067
0.053665593
0.043109595
0.031368803
0.025172408
0.019339817
0.014671673
0.014599628
0.0079875347
0.0032974361
0.0031260554
0.00080111208
0.19817462
0.19694856
0.19601854
0.1952995
0.19472276
0.19424979
0.19385454
0.19352035
0.19323495
0.19298969
0.19277569
0.19258838
0.19242436
0.19228016
0.19215053
0.19203686
0.19193414
0.1918449
0.19176535
0.19168964
0.19162414
0.19157058
0.1915219
0.19147728
0.19144358
0.1914187
0.1914052
0.19140457
0.19141988
0.19145642
0.19152455
0.19165421
0.19181473
0.1614389
0.13173597
0.10420896
0.082480076
0.068558698
0.051657598
0.04299186
0.032483391
0.024964633
0.02009716
0.01578359
0.0065994754
0.0056781218
0.0067135964
0.0041054607
0.00080127564
0.19822623
0.19706137
0.19615752
0.19544774
0.19487202
0.19439594
0.19399513
0.19365434
0.19336134
0.19310831
0.19288745
0.19269328
0.19252225
0.19237157
0.19223557
0.19211666
0.19200862
0.1919131
0.19182915
0.19175002
0.19167944
0.19162095
0.19157034
0.19152264
0.19148467
0.19145664
0.19143924
0.19143479
0.1914461
0.19147412
0.1915263
0.19165903
0.19179275
0.16524646
0.13219782
0.11091776
0.085656902
0.066672718
0.057832452
0.040244812
0.035037666
0.026972337
0.021473859
0.013143704
0.015085275
0.0076823541
0.0037741799
0.0027870123
0.00086955741
0.19827512
0.19717016
0.19629411
0.19559526
0.19502249
0.19454399
0.19413848
0.19379138
0.19349129
0.19323091
0.19300284
0.19280181
0.19262385
0.192466
0.19232463
0.19219881
0.19208534
0.19198468
0.19189542
0.19181324
0.19173856
0.19167401
0.19161822
0.19156853
0.19152795
0.19149607
0.19147412
0.19146567
0.19147138
0.19149308
0.1915413
0.19165134
0.1917725
0.16806889
0.13533292
0.10588942
0.09045149
0.068542672
0.053243645
0.045989511
0.03150062
0.025584215
0.018867399
0.016315291
0.007626328
0.0063070003
0.0064946887
0.0032136133
0.0008660075
0.19832071
0.19727385
0.19642613
0.19573983
0.19517128
0.19469183
0.19428272
0.19392998
0.19362338
0.19335615
0.1931206
0.19291261
0.19272747
0.19256244
0.1924157
0.1922833
0.19216467
0.19205878
0.19196386
0.19187786
0.19179871
0.19172849
0.19166859
0.19161709
0.1915726
0.19153674
0.19151095
0.1914982
0.19149906
0.19151416
0.19156539
0.19162481
0.19177527
0.17229891
0.13861606
0.11161304
0.086983651
0.07200267
0.056331429
0.041036249
0.036620048
0.025597147
0.02124708
0.013166045
0.014893364
0.0063728377
0.0043158844
0.0027664813
0.00093299272
0.19836192
0.19736998
0.19655177
0.19587932
0.19531678
0.19483764
0.1944262
0.19406874
0.19375604
0.1934816
0.19323921
0.19302422
0.19283221
0.19266049
0.19250724
0.19236912
0.19224431
0.19213225
0.19203297
0.19194321
0.19186001
0.19178582
0.1917211
0.19166521
0.19161704
0.19157728
0.19154744
0.1915314
0.1915269
0.19153603
0.19158073
0.19161066
0.19179111
0.17689665
0.1409375
0.11386746
0.08938496
0.073436812
0.0550119
0.049224592
0.031522773
0.027161439
0.018695411
0.017697928
0.0087649465
0.0072518325
0.0054329861
0.0028681756
0.00089722515
0.19840003
0.19745887
0.19667024
0.19601336
0.19545771
0.19497972
0.19456628
0.19420489
0.19388674
0.19360573
0.19335734
0.19313531
0.19293647
0.19275866
0.19259868
0.19245477
0.19232457
0.19220617
0.19210206
0.19200844
0.19192125
0.19184234
0.19177377
0.19171462
0.19166307
0.19161965
0.19158487
0.19156405
0.19155593
0.19155997
0.19159492
0.1916108
0.19180327
0.17949291
0.14463174
0.11440262
0.092645618
0.070823285
0.060295268
0.041726021
0.037838201
0.025757501
0.021253022
0.013132765
0.011741942
0.0063296543
0.004254877
0.0027373852
0.00089494257
0.19843782
0.1975432
0.19678242
0.19614025
0.19559108
0.19511573
0.19470097
0.19433621
0.19401324
0.19372648
0.19347197
0.19324407
0.19303888
0.19285488
0.19268852
0.19253837
0.1924033
0.19227983
0.19216934
0.19207125
0.19198112
0.19189862
0.1918258
0.19176235
0.19170709
0.19166025
0.19162216
0.19159757
0.19158526
0.19158558
0.19160917
0.19162936
0.19180186
0.18506858
0.14691059
0.11801438
0.093666045
0.073990414
0.058179777
0.046946675
0.034252122
0.026405931
0.020260801
0.016095479
0.010048553
0.0078029756
0.0047847561
0.0028756193
0.00094208184
0.19847407
0.19762059
0.19688503
0.19625711
0.19571494
0.19524312
0.19482766
0.19445984
0.19413284
0.19384088
0.19358056
0.19334744
0.19313666
0.19294659
0.19277472
0.19261884
0.19247837
0.19235034
0.19223485
0.19213215
0.1920379
0.19195171
0.19187533
0.19180845
0.19174956
0.191699
0.19165692
0.19162847
0.19161326
0.19161024
0.19162186
0.19166848
0.19175977
0.18866696
0.15023588
0.11935302
0.094868161
0.076556459
0.057924071
0.047193356
0.035788611
0.027548502
0.020025659
0.014090587
0.011016269
0.0063392591
0.004282886
0.0024099782
0.00090561261
0.19850985
0.19769192
0.19697854
0.19636337
0.19582824
0.19535993
0.19494359
0.19457346
0.19424293
0.19394685
0.19368158
0.19344309
0.19322739
0.19303203
0.19285529
0.19269436
0.19254879
0.19241635
0.19229657
0.19218975
0.19209165
0.19200165
0.19192143
0.19185135
0.19178963
0.19173571
0.19168979
0.1916567
0.19163747
0.19163108
0.19163589
0.19168536
0.19173259
0.19192937
0.15285073
0.1220534
0.096113096
0.075898878
0.06134627
0.045795564
0.036267354
0.027203523
0.020014861
0.01568795
0.010030167
0.0074424194
0.0044723287
0.0029031856
0.00095163542
0.19854545
0.19775664
0.19706145
0.19645699
0.19592953
0.19546263
0.1950462
0.1946746
0.194342
0.19404224
0.19377258
0.19352922
0.1933089
0.19310893
0.19292775
0.19276241
0.19261218
0.19247558
0.192352
0.19224178
0.19214055
0.19204764
0.19196434
0.19189114
0.19182679
0.19177007
0.19172108
0.19168418
0.19166151
0.19165212
0.19165119
0.19170072
0.19171582
0.19193417
0.15573454
0.1223947
0.098235572
0.076546324
0.06035272
0.047696181
0.035813527
0.027618161
0.020349995
0.01427111
0.010574964
0.0068498031
0.0041986615
0.0023482858
0.00089040675
0.19857929
0.19781313
0.19713273
0.19653751
0.19601507
0.19554969
0.19513411
0.19476128
0.19442644
0.19412373
0.19385047
0.19360342
0.19337935
0.19317548
0.19299039
0.19282139
0.19266722
0.19252671
0.19239931
0.1922857
0.19218146
0.19208567
0.19199982
0.19192443
0.19185848
0.19179968
0.19174794
0.19170742
0.19168131
0.19166941
0.19166409
0.19171229
0.19170031
0.19193719
0.15770325
0.12497639
0.098268391
0.078476449
0.060851388
0.047548626
0.036793627
0.027173867
0.020609895
0.014985783
0.010370588
0.0069478419
0.0042376162
0.0026917094
0.00093581786
0.19860851
0.19785965
0.19719026
0.19660253
0.19608393
0.19562104
0.19520507
0.19483112
0.194494
0.19418907
0.19391298
0.19366317
0.19343643
0.1932297
0.19304148
0.19286949
0.19271224
0.19256868
0.19243822
0.19232147
0.19221424
0.19211538
0.19202655
0.1919485
0.19188092
0.19182092
0.19176769
0.19172488
0.19169606
0.19168183
0.19167311
0.19171899
0.19168644
0.19193791
0.1617623
0.12771654
0.10110597
0.079670011
0.06291708
0.048639923
0.037296788
0.028419955
0.020749813
0.015059163
0.010535649
0.0069986215
0.0043500184
0.0024883185
0.00089725744
0.19863093
0.19789446
0.19723289
0.19664987
0.19613413
0.19567255
0.19525762
0.19488226
0.1945432
0.19423662
0.19395847
0.19370655
0.193478
0.19326943
0.19307906
0.19290486
0.19274539
0.19259978
0.19246747
0.19234874
0.19223943
0.19213812
0.19204645
0.19196546
0.19189546
0.19183358
0.19177877
0.19173435
0.19170382
0.19168851
0.19167909
0.19172441
0.19168281
0.19194254
0.16590486
0.13103664
0.10338539
0.081560394
0.063897236
0.049749353
0.038107172
0.028618524
0.021259314
0.015391351
0.010758452
0.0071442639
0.0043643717
0.0026723052
0.00095039772
0.19864471
0.19791548
0.19725887
0.19667864
0.19616416
0.19570297
0.19528811
0.19491249
0.19457336
0.19426529
0.19398542
0.19373238
0.19350259
0.19329261
0.19310093
0.1929257
0.19276529
0.19261866
0.19248543
0.19236576
0.19225572
0.1921538
0.19206114
0.19197897
0.19190787
0.19184482
0.19178908
0.19174411
0.19171337
0.19169903
0.19169208
0.19174
0.1917035
0.19196542
0.16322459
0.12902637
0.10167236
0.079837013
0.062479363
0.048527327
0.037157718
0.027973559
0.020650918
0.014915434
0.010412125
0.0069144644
0.0042411227
0.0025159582
0.00090202764
0.1986491
0.19792182
0.19726644
0.19668762
0.19617311
0.195712
0.19529632
0.19492098
0.19458159
0.1942727
0.19399271
0.19373936
0.19350914
0.1932988
0.19310707
0.1929319
0.19277141
0.19262454
0.19249097
0.19237087
0.19226063
0.19215893
0.19206655
0.191985
0.1919147
0.19185219
0.19179687
0.19175229
0.19172162
0.19170783
0.1917019
0.19175196
0.19172343
0.19198579
0.15911721
0.12601806
0.099286825
0.077833296
0.060844323
0.047293713
0.036211533
0.027231356
0.020088104
0.014487167
0.010067596
0.0066427687
0.0040090073
0.0023366833
0.00088545591
0.1986444
0.19791505
0.19725831
0.19667907
0.19616479
0.1957033
0.19528793
0.19491336
0.19457409
0.19426574
0.19398592
0.19373242
0.19350218
0.193292
0.19310043
0.19292536
0.19276495
0.19261846
0.19248544
0.1923656
0.19225548
0.19215387
0.19206125
0.19197966
0.19190932
0.19184642
0.19179071
0.19174561
0.19171363
0.1916981
0.19169098
0.19173907
0.19170103
0.19196314
0.16328827
0.129552
0.10204577
0.079839947
0.062411495
0.048568425
0.037253741
0.027998207
0.020664781
0.014947054
0.010425761
0.0069253507
0.0042496352
0.0025123744
0.00091309798
0.19863051
0.19789401
0.19723251
0.19665022
0.19613454
0.19567257
0.19525728
0.19488268
0.19454358
0.19423659
0.19395849
0.19370634
0.19347726
0.19326842
0.19307825
0.1929046
0.19274553
0.19260053
0.19246893
0.19234999
0.19224058
0.19213962
0.19204743
0.19196648
0.19189637
0.19183321
0.19177749
0.19173237
0.19169958
0.19168278
0.19167423
0.19172072
0.19167813
0.19193773
0.16621158
0.13238027
0.10418108
0.08148133
0.063718355
0.04968996
0.038134105
0.028736808
0.021231986
0.015306174
0.010786443
0.0071307787
0.0044195945
0.0026222759
0.00093461927
0.1986083
0.19785946
0.19719038
0.19660257
0.19608367
0.19562083
0.19520536
0.19483095
0.19449308
0.19418805
0.1939123
0.1936625
0.1934358
0.19322941
0.19304157
0.19287013
0.1927132
0.19257024
0.19244057
0.19232306
0.19221493
0.19211528
0.19202462
0.19194557
0.191877
0.19181508
0.19176129
0.1917183
0.19168736
0.1916724
0.1916666
0.19171463
0.19168352
0.19193464
0.16215231
0.12920359
0.10187597
0.079624391
0.062367539
0.048555247
0.037447336
0.028081535
0.020693336
0.015211969
0.010404454
0.007066185
0.0043198128
0.0026691385
0.00090997497
0.19857967
0.19781364
0.19713281
0.19653791
0.19601465
0.1955495
0.1951337
0.19476067
0.19442498
0.19412247
0.19384944
0.19360275
0.19337923
0.19317612
0.19299138
0.19282288
0.19266881
0.19252858
0.19240148
0.19228605
0.19218007
0.1920827
0.19199464
0.19191815
0.1918514
0.19179131
0.19174037
0.19170035
0.19167178
0.19165949
0.1916572
0.19170739
0.19169833
0.1919349
0.15864596
0.12643938
0.099379621
0.077694405
0.060702596
0.0477834
0.036212016
0.027740518
0.02064545
0.014380087
0.010615716
0.0069457266
0.0040627526
0.0024020448
0.00092330771
0.19854671
0.19775809
0.1970621
0.19645757
0.19592861
0.19546083
0.1950456
0.19467417
0.19434051
0.19404115
0.19377161
0.19352875
0.19330911
0.19311007
0.19292915
0.19276423
0.19261374
0.19247703
0.19235328
0.19224068
0.19213749
0.19204263
0.19195739
0.19188375
0.19181921
0.19176169
0.19171412
0.19167724
0.19165159
0.19164223
0.19164534
0.19169667
0.19171676
0.19193444
0.15690382
0.1244717
0.097843807
0.076740601
0.060719942
0.046594233
0.036937667
0.027180878
0.019730718
0.015468262
0.010319883
0.0067136992
0.0048007253
0.0025893607
0.00090253414
0.1985124
0.19769473
0.19698022
0.19636386
0.19582753
0.19535694
0.19494181
0.19457253
0.19424248
0.19394664
0.19368115
0.19344291
0.19322785
0.19303333
0.1928567
0.19269593
0.19254973
0.19241724
0.19229738
0.19218804
0.19208787
0.191996
0.1919143
0.19184383
0.19178177
0.1917276
0.19168396
0.19165089
0.19162872
0.19162318
0.19163259
0.19168366
0.19173751
0.1919323
0.15449435
0.12278987
0.096682123
0.07654028
0.059246318
0.047259055
0.035475852
0.026879384
0.021175566
0.014184594
0.010215813
0.0072911711
0.003998981
0.0026962486
0.00093693452
0.19847774
0.19762481
0.19688778
0.19625777
0.19571338
0.1952402
0.19482528
0.19445811
0.19413218
0.19384112
0.19358074
0.19334763
0.19313763
0.19294808
0.19277627
0.19262038
0.19247913
0.19235125
0.19223548
0.19212976
0.19203344
0.19194556
0.19186766
0.19180028
0.1917411
0.19169093
0.19165155
0.19162199
0.1916029
0.19160156
0.19161818
0.19166286
0.19177047
0.18913148
0.1522667
0.12050513
0.096905912
0.075223627
0.059859808
0.045990194
0.035425552
0.028249124
0.019111832
0.014946016
0.010601455
0.0070986023
0.0042829796
0.0024854509
0.0009152363
0.19844203
0.19754856
0.1967864
0.19614125
0.1955886
0.19511257
0.19469818
0.19433395
0.19401241
0.19372687
0.19347221
0.19324502
0.19304068
0.19285668
0.19269029
0.19253947
0.1924032
0.19228018
0.19216901
0.1920682
0.19197621
0.19189185
0.19181725
0.1917531
0.19169749
0.19165149
0.19161554
0.19158863
0.19157301
0.19157606
0.19160486
0.191628
0.19180719
0.18635257
0.14938537
0.11930611
0.093191002
0.071712529
0.057560923
0.044622625
0.037237388
0.02493887
0.021930519
0.015174479
0.010238549
0.0072348092
0.0049175675
0.002771007
0.00092869632
0.19840611
0.1974655
0.19667582
0.19601542
0.19545525
0.19497683
0.19456339
0.1942029
0.19388611
0.19360637
0.19335785
0.193137
0.19293921
0.19276109
0.19260047
0.19245512
0.19232428
0.19220657
0.19210053
0.19200383
0.19191521
0.19183493
0.19176466
0.1917047
0.19165303
0.1916107
0.19157824
0.19155495
0.19154537
0.19155466
0.19159561
0.19161571
0.19180769
0.182916
0.14265334
0.11693963
0.091292761
0.075663448
0.058502844
0.048324635
0.032593656
0.029406219
0.018473778
0.013288963
0.011554111
0.0062980053
0.0039835267
0.0027043104
0.00090340091
0.19837077
0.19737778
0.19655718
0.19588024
0.19531426
0.19483483
0.19442306
0.19406677
0.19375579
0.19348235
0.19324084
0.1930258
0.192835
0.19266298
0.19250842
0.19236896
0.19224349
0.19213133
0.19203013
0.19193791
0.191854
0.19177802
0.19171188
0.19165566
0.19160777
0.19157044
0.19154191
0.19152227
0.19151786
0.19153178
0.19158226
0.1916167
0.19179421
0.17230898
0.14829747
0.11199801
0.087002088
0.069078485
0.055812478
0.041851287
0.036350651
0.024968167
0.019973913
0.018057618
0.0090453694
0.0074193908
0.0053310144
0.0029291456
0.00089158226
0.19833007
0.19728251
0.19643178
0.19573896
0.19516809
0.19468844
0.19427967
0.19392826
0.19362351
0.1933571
0.19312247
0.19291421
0.19273007
0.19256445
0.19241578
0.19228241
0.19216302
0.19205605
0.19196012
0.19187293
0.19179338
0.19172023
0.19165796
0.19160786
0.19156513
0.19153065
0.19150399
0.19148868
0.19149122
0.19151212
0.191566
0.19163935
0.19178032
0.18093282
0.1296285
0.10843403
0.092557295
0.076132629
0.057173352
0.045651036
0.034304325
0.025195962
0.02263034
0.012260025
0.012813411
0.0058239505
0.0045365609
0.0027195018
0.00092085298
0.19828597
0.19718141
0.19629962
0.19559344
0.19501882
0.19453993
0.19413548
0.19378983
0.19349177
0.19323241
0.19300477
0.19280393
0.19262603
0.19246728
0.19232473
0.1921972
0.19208397
0.19198218
0.19189188
0.1918091
0.19173173
0.19166385
0.19160833
0.19156196
0.19152152
0.19149104
0.19146848
0.19145746
0.1914656
0.19149397
0.19154401
0.19166405
0.19177798
0.15802837
0.15494316
0.10868904
0.080824953
0.064198658
0.052171908
0.042969181
0.031838333
0.028084353
0.016126874
0.017196582
0.0084304491
0.0070171942
0.0056011952
0.003322918
0.00087383126
0.19824248
0.19707559
0.19616313
0.19544507
0.19486833
0.19439149
0.19399239
0.193653
0.19336204
0.19310989
0.19288896
0.19269562
0.19252425
0.19237245
0.19223622
0.19211462
0.1920076
0.19191088
0.19182529
0.19174615
0.19167195
0.19161168
0.19156051
0.19151555
0.19147973
0.19145261
0.19143324
0.19142877
0.19144317
0.19147632
0.19153064
0.19166641
0.19180989
0.18657925
0.11389364
0.091133355
0.096402749
0.071301168
0.057621344
0.043813934
0.035814604
0.024249517
0.024727612
0.014338121
0.013723204
0.0087774356
0.0047051846
0.0029461095
0.00084878211
0.1981894
0.19696391
0.19602402
0.19529633
0.19471868
0.19424546
0.19385225
0.19351949
0.19323561
0.19299089
0.19277673
0.19259042
0.19242587
0.19228069
0.1921509
0.19203566
0.19193462
0.19184286
0.19176042
0.19168544
0.19161719
0.19156102
0.19151369
0.19147085
0.19143847
0.19141487
0.19140024
0.19140342
0.19142225
0.19145976
0.19153335
0.19166048
0.1918261
0.13988484
0.15255129
0.13025722
0.07513784
0.061446554
0.054706015
0.041025133
0.031173777
0.026065488
0.017889976
0.014007851
0.0082471839
0.0063641542
0.0051991909
0.0034661715
0.00080758861
0.19812902
0.1968469
0.19588342
0.19514905
0.19457208
0.19410357
0.19371649
0.19339087
0.19311453
0.19287622
0.19266912
0.19249
0.19233217
0.19219331
0.19206891
0.19196002
0.19186541
0.1917786
0.19169886
0.19162729
0.19156554
0.19151299
0.1914695
0.19142966
0.19139792
0.19137788
0.19137414
0.19138159
0.19140148
0.19144075
0.19154147
0.19165374
0.17938047
0.1793257
0.11885213
0.081069529
0.085844225
0.068742707
0.051350762
0.04032285
0.033697479
0.02518825
0.019074951
0.015290518
0.013340839
0.0074351537
0.0062558408
0.0035432493
0.00078773133
0.19806325
0.19672202
0.19574127
0.19500369
0.19442919
0.19396663
0.1935862
0.19326778
0.19299875
0.19276733
0.1925677
0.19239552
0.19224411
0.19211059
0.19199228
0.19188836
0.19179884
0.19171709
0.19164076
0.19157289
0.19151629
0.19146665
0.19142666
0.19139125
0.19136059
0.19134415
0.19134854
0.19136007
0.19138166
0.19142449
0.19154176
0.19167319
0.19187812
0.1479334
0.12909871
0.12235766
0.072491083
0.066634381
0.054224783
0.042932083
0.036137125
0.024170535
0.022340207
0.014978717
0.0093423815
0.0086308897
0.0050945014
0.0034094623
0.00074375547
0.19800485
0.19660564
0.19560541
0.1948651
0.19429341
0.19383694
0.19346364
0.19315227
0.19289017
0.19266513
0.19247269
0.19230649
0.19216124
0.19203308
0.19191959
0.19182168
0.19173592
0.19165744
0.19158479
0.19152221
0.19147041
0.1914241
0.19138575
0.19135486
0.19132618
0.19131419
0.19132249
0.19134126
0.19136349
0.19141406
0.19153907
0.19169561
0.18410723
0.15970929
0.12642972
0.092324839
0.074843756
0.061584898
0.047105395
0.043590835
0.028005823
0.027203411
0.01742629
0.012926314
0.013417681
0.0080583317
0.0073057307
0.0046430807
0.00074234024
0.19790268
0.19644909
0.19545413
0.19472089
0.19415636
0.19370779
0.19334284
0.19303962
0.19278495
0.19256701
0.19238148
0.19222104
0.19208095
0.19195912
0.19185035
0.19175831
0.19167567
0.19160031
0.19153156
0.19147284
0.19142419
0.19138343
0.19134682
0.19131943
0.19129518
0.19128633
0.1912982
0.19132006
0.19134619
0.19141863
0.19153774
0.19172116
0.19165393
0.16502384
0.1076187
0.084813466
0.084101086
0.068067389
0.053915345
0.038455732
0.034659621
0.022451115
0.027084732
0.017462649
0.0093459692
0.0098284336
0.0036889339
0.0055725135
0.00073680183
0.19793264
0.19639981
0.19536437
0.19462209
0.19405637
0.19360943
0.19324757
0.19294916
0.19269908
0.19248615
0.19230523
0.19214908
0.19201252
0.19189497
0.19179093
0.19170273
0.19162266
0.19154945
0.19148527
0.19142976
0.19138227
0.1913453
0.19131124
0.19128441
0.1912641
0.19125848
0.19127605
0.19129625
0.19132501
0.19141855
0.19154658
0.1917329
0.18376003
0.14321539
0.13495364
0.10065153
0.070161449
0.060805851
0.060074705
0.03840723
0.038459025
0.026502542
0.013410794
0.01764487
0.018839583
0.0066769925
0.0065146915
0.0034326833
0.00071860102
0.0030074629
0.011134527
0.021246637
0.025686288
0.057932094
0.052820566
0.060612849
0.079189709
0.085861996
0.098661444
0.12912207
0.080044908
0.14351157
0.12623268
0.18130873
0.1929915
0.19401344
0.19418494
0.19381907
0.1931097
0.19236511
0.19174161
0.19123531
0.19085921
0.19060367
0.19043142
0.1902911
0.19018507
0.19012219
0.19006631
0.19002968
0.19000521
0.18999051
0.18998309
0.18997864
0.18997919
0.18998699
0.1900011
0.19002502
0.190061
0.1901127
0.19018388
0.19028015
0.19041295
0.19059342
0.19084271
0.19119805
0.1917348
0.19230521
0.0027165459
0.015079565
0.024194661
0.044073869
0.046785769
0.079355726
0.083784349
0.088743776
0.10294369
0.12133435
0.13111888
0.13570104
0.1747779
0.095459576
0.19129619
0.19327974
0.19407218
0.19412409
0.19370347
0.1929852
0.1922712
0.19168456
0.19121232
0.19086402
0.19061136
0.19044796
0.19031289
0.19021224
0.19015089
0.19009874
0.19006596
0.19004175
0.19002937
0.19002279
0.19001846
0.1900193
0.19002778
0.19004212
0.19006625
0.19010278
0.19015484
0.19022646
0.19032343
0.19045697
0.1906381
0.19088847
0.19124529
0.19178394
0.19238031
0.0026326348
0.015064952
0.026474118
0.044145486
0.066689083
0.054664815
0.064122548
0.074941485
0.076173818
0.083509249
0.099788001
0.078063042
0.10426026
0.17918816
0.19147944
0.19342079
0.19415446
0.19410225
0.19358549
0.1929017
0.19222331
0.19166733
0.19120492
0.19087147
0.190625
0.1904637
0.19033321
0.19023832
0.1901795
0.19013207
0.19010223
0.1900786
0.19006721
0.19006076
0.19005696
0.19005803
0.19006723
0.19008188
0.19010641
0.19014363
0.19019596
0.19026815
0.19036598
0.1905003
0.19068223
0.19093384
0.19129223
0.19183314
0.19243891
0.0025362624
0.014918396
0.026384759
0.045538251
0.048276778
0.088126115
0.092473485
0.10591023
0.11330052
0.12320519
0.12351308
0.16672181
0.17612284
0.11572402
0.1698289
0.19337738
0.19413534
0.19407349
0.19348201
0.1928037
0.19215556
0.19162828
0.1911913
0.1908757
0.19063948
0.19047938
0.19035267
0.19026373
0.19020879
0.19016552
0.19013756
0.19011543
0.19010403
0.19009753
0.19009466
0.19009603
0.19010601
0.1901212
0.19014638
0.19018423
0.19023716
0.19031004
0.19040895
0.19054411
0.19072725
0.19098038
0.19134072
0.19188427
0.19250555
0.0024381299
0.015037392
0.028175593
0.048448785
0.07027793
0.075005959
0.07789358
0.086189332
0.084475514
0.087549242
0.09696805
0.088555913
0.10183872
0.18827066
0.18526517
0.19328608
0.19410391
0.19403129
0.19344592
0.19272139
0.19209554
0.19158215
0.19118614
0.19088609
0.19065978
0.19049746
0.19037505
0.19028999
0.19023887
0.19019837
0.19017162
0.19015194
0.19013999
0.19013353
0.19013178
0.19013351
0.19014433
0.1901603
0.19018625
0.19022489
0.1902786
0.19035225
0.1904524
0.19058852
0.19077317
0.19102802
0.19139061
0.19193721
0.19257309
0.0023214837
0.015014492
0.029117119
0.049855519
0.061387281
0.090574177
0.088759574
0.1078506
0.11295904
0.13023046
0.12518965
0.15838049
0.17807572
0.14470637
0.17778081
0.19321915
0.19410696
0.19398777
0.19339749
0.19265138
0.19205773
0.19155579
0.19119566
0.19089426
0.19067788
0.19051573
0.19039931
0.19031634
0.19026927
0.19023068
0.19020458
0.19018751
0.19017539
0.1901691
0.19016843
0.1901707
0.19018236
0.19019935
0.19022621
0.19026584
0.1903204
0.19039503
0.19049646
0.19063386
0.19082018
0.19107696
0.1914421
0.19199214
0.19264344
0.0022044306
0.01524376
0.031830667
0.052874572
0.073712058
0.090918723
0.078261277
0.09798469
0.090156716
0.10926845
0.10503817
0.098607115
0.10377164
0.17235754
0.16447382
0.19309325
0.19393653
0.19388923
0.19334119
0.19261744
0.19204021
0.19153788
0.1912025
0.19090261
0.19069471
0.1905356
0.19042456
0.19034329
0.19029944
0.19026217
0.19023678
0.1902222
0.19021074
0.19020448
0.19020467
0.1902078
0.19022028
0.19023847
0.19026642
0.19030712
0.19036265
0.19043845
0.19054131
0.19068019
0.19086839
0.19112733
0.19149533
0.19204915
0.19271623
0.0021117384
0.015106733
0.032457733
0.053725158
0.055724155
0.090426381
0.075927838
0.11242475
0.098847956
0.1409892
0.12436448
0.13397504
0.12905809
0.14398542
0.17140181
0.19294329
0.19379206
0.1937929
0.19326663
0.19258565
0.19203569
0.1915432
0.19120905
0.19091168
0.19070968
0.1905549
0.19044745
0.19036956
0.190329
0.19029343
0.190269
0.19025603
0.19024619
0.19023993
0.19024057
0.190245
0.19025828
0.19027774
0.19030698
0.19034886
0.19040548
0.19048268
0.19058705
0.19072764
0.19091789
0.19117927
0.19155046
0.19210835
0.19279167
0.0020150521
0.015239255
0.033324736
0.054294838
0.061550673
0.089639314
0.065239645
0.11244201
0.082018473
0.11350755
0.10597218
0.13923578
0.10789207
0.1291955
0.13489373
0.18214695
0.19364597
0.19367773
0.19318548
0.19254741
0.19202883
0.19154759
0.19120325
0.19092217
0.19072064
0.19057164
0.19046642
0.19039525
0.19035829
0.19032444
0.19030147
0.19028886
0.19028125
0.19027541
0.19027612
0.19028232
0.19029648
0.19031714
0.19034777
0.1903911
0.19044899
0.19052774
0.19063372
0.19077624
0.19096873
0.19123283
0.19160753
0.19216984
0.19286995
0.001991481
0.015009746
0.033009036
0.053465832
0.056415173
0.087155841
0.074684311
0.11583689
0.083668751
0.1072986
0.10008057
0.16958114
0.14286589
0.15212886
0.13581875
0.16413159
0.19355875
0.1936076
0.19310804
0.1924787
0.19200773
0.19154663
0.1911965
0.19093076
0.19072824
0.19058586
0.19048425
0.19042166
0.19038776
0.19035513
0.19033423
0.1903209
0.19031548
0.19031102
0.19031166
0.19031984
0.19033515
0.19035678
0.19038888
0.19043391
0.19049328
0.19057369
0.1906814
0.19082604
0.19102109
0.19128814
0.19166664
0.19223376
0.19295078
0.0018945282
0.015415342
0.033609676
0.053009324
0.071157424
0.085683246
0.076842682
0.11281297
0.075037017
0.105069
0.083414087
0.10949843
0.11072001
0.16777514
0.16042736
0.17352096
0.18961625
0.19356119
0.19305088
0.19239026
0.19197
0.19153595
0.19119574
0.19093752
0.19073269
0.19060069
0.19050375
0.19044887
0.19041809
0.19038499
0.19036665
0.19035282
0.19034874
0.19034667
0.19034779
0.19035779
0.19037459
0.19039693
0.19043059
0.19047742
0.19053852
0.19062069
0.19073026
0.19087728
0.19107521
0.19134538
0.19172801
0.1923003
0.19303503
0.0018764317
0.015451341
0.033512038
0.052444213
0.052199224
0.085205335
0.062102134
0.093276055
0.071840848
0.12656592
0.096822018
0.10070438
0.098679749
0.14108662
0.16566613
0.19244739
0.18687281
0.19349711
0.19298918
0.19229711
0.19193399
0.19152246
0.19119942
0.19094036
0.19073564
0.19061681
0.19052697
0.19047597
0.19044855
0.19041442
0.19039769
0.19038502
0.19038138
0.19038209
0.19038484
0.19039615
0.19041489
0.1904377
0.19047301
0.19052175
0.19058473
0.19066876
0.19078045
0.19093008
0.19113109
0.19140466
0.19179173
0.19236963
0.19312257
0.0018624056
0.015369957
0.03419264
0.052339029
0.040482849
0.085283849
0.061515353
0.10256519
0.069616764
0.092262619
0.091068606
0.153599
0.10962425
0.12013165
0.12177535
0.19239496
0.19322029
0.19335157
0.192912
0.1922717
0.19191067
0.19151108
0.19118799
0.19093829
0.19074317
0.19063511
0.19055433
0.19050303
0.19047723
0.1904448
0.19042752
0.19041723
0.19041434
0.19041705
0.19042269
0.19043476
0.19045584
0.19047908
0.19051617
0.19056661
0.1906318
0.19071789
0.19083199
0.19098442
0.19118873
0.19146612
0.19185791
0.19244185
0.19321371
0.0018136105
0.014927302
0.03385629
0.042024272
0.051226921
0.069868958
0.064694107
0.10432512
0.071014642
0.076026244
0.070777615
0.10805672
0.11964175
0.15922153
0.11599252
0.13926578
0.17894783
0.19322898
0.19281719
0.19229792
0.19190031
0.19150823
0.19116239
0.19093136
0.19075777
0.19065605
0.19058232
0.19053166
0.19050303
0.19047569
0.19045767
0.19044933
0.19044812
0.19045185
0.19046103
0.19047355
0.19049729
0.19052121
0.19056013
0.19061225
0.19067993
0.19076825
0.19088499
0.19104037
0.19124824
0.19152982