/*--------------------------------*- C++ -*----------------------------------*\
| =========                 |                                                 |
| \\      /  F ield         | OpenFOAM: The Open Source CFD Toolbox           |
|  \\    /   O peration     | Version:  2506                                  |
|   \\  /    A nd           | Website:  www.openfoam.com                      |
|    \\/     M anipulation  |                                                 |
\*---------------------------------------------------------------------------*/
FoamFile
{
    version     2.0;
    format      ascii;
    arch        "LSB;label=32;scalar=64";
    class       volVectorField;
    location    "2.6";
    object      wallShearStress;
}
// * * * * * * * * * * * * * * * * * * * * * * * * * * * * * * * * * * * * * //

dimensions      [1 -1 -2 0 0 0 0];

internalField   uniform (0 0 0);

boundaryField
{
    Side
    {
        type            empty;
    }
    Inlet
    {
        type            calculated;
        value           uniform (0 0 0);
    }
    Airfoil
    {
        type            calculated;
        value           nonuniform List<vector> 
117
(
(-5.309468 -1.9646812 9.2763935e-19)
(-4.9986673 -2.0623125 -5.7471275e-19)
(-4.7972667 -2.2997331 6.9637143e-19)
(-4.6626232 -2.153151 -2.3205293e-18)
(-4.3828438 -2.1496815 -4.2773493e-19)
(-4.2595182 -2.0679863 5.8717647e-19)
(-4.0376795 -1.8294753 3.5727205e-20)
(-3.8974506 -1.8240988 7.7483886e-19)
(-3.762435 -1.4553892 4.2461377e-19)
(-3.6789156 -1.5624173 7.7357314e-18)
(-3.7516022 -1.1412282 2.3803786e-19)
(-3.5750326 -1.1217124 1.242191e-19)
(-3.6855368 -0.80700026 -1.0792404e-17)
(-3.5479553 -0.74154002 1.1647217e-17)
(-3.6887977 -0.54191796 -3.2691945e-19)
(-3.5789109 -0.41577272 1.2551953e-17)
(-3.6579835 -0.29867139 -1.3257103e-17)
(-3.5684273 -0.18783158 -3.7647413e-20)
(-3.6458169 -0.10342181 -1.5972709e-18)
(-3.6682125 0.0091574935 4.5310137e-23)
(-3.6291818 0.10659691 -1.8579072e-18)
(-3.5944262 0.20122116 -3.7399915e-20)
(-3.6346352 0.30707323 -2.662106e-17)
(-3.6049493 0.42216048 3.8643569e-17)
(-3.6632182 0.56615941 -2.4641595e-17)
(-3.5787656 0.72804634 2.3267565e-17)
(-3.6626876 0.84685943 -1.009818e-17)
(-3.6137347 1.0987615 7.6000069e-19)
(-3.7209413 1.1997836 0)
(-3.7188452 1.5181896 -7.935932e-18)
(-3.7561911 1.5425328 -2.8075694e-20)
(-3.9086111 1.7823149 1.2704053e-17)
(-4.0561439 1.9018466 -1.0608315e-17)
(-4.2465445 2.0713467 8.3134925e-18)
(-4.4088743 2.1723281 -4.2159555e-18)
(-4.6684271 2.2225296 4.8148249e-35)
(-4.7833318 2.3618556 -2.805345e-18)
(-4.9334861 2.1223307 2.0943637e-18)
(-5.2792289 2.0013452 -9.1197794e-19)
(-6.022178 1.0386317 -2.2414854e-18)
(-6.9893806 0.25539502 2.7867086e-18)
(-7.2509294 1.0511906 1.0532429e-35)
(-7.5175913 0.34299004 1.8041385e-18)
(-7.6454886 1.0706709 -1.9084449e-18)
(-7.7312399 0.41203859 3.9304604e-18)
(-7.6266851 1.0883906 -3.0092655e-35)
(-7.7275393 -0.076848712 -2.4074124e-35)
(-7.7854839 0.93699088 1.6070308e-18)
(-7.8782758 0.014775577 -5.3645809e-19)
(-7.8758894 0.56227756 1.8745113e-21)
(-7.7800346 0.30883735 -1.144731e-18)
(-7.870113 0.35127121 1.8125641e-18)
(-8.1487692 -0.43031952 6.389589e-19)
(-8.0282621 0.48131164 -6.0604591e-19)
(-7.8227808 0.14994021 6.3744991e-19)
(-7.7912587 0.029070018 3.384154e-21)
(-7.7287191 -0.10564459 -3.2965498e-19)
(-7.653295 -0.018225998 -3.5196311e-19)
(-7.5054759 -0.26910574 5.5558879e-19)
(-7.4259164 -0.23620296 -9.3737028e-20)
(-7.4548575 -0.55751469 1.2225141e-36)
(-7.3788956 -0.37282095 3.5410693e-19)
(-7.1956833 -0.46539939 -1.7113995e-19)
(-7.019607 -0.44132816 -3.9134347e-19)
(-6.9081257 -0.76917968 -2.0497075e-19)
(-6.9525817 -0.92732671 -9.3582605e-20)
(-6.84324 -0.85185514 1.0538089e-19)
(-6.6248338 -0.73267771 -4.9370258e-19)
(-6.5352929 -1.2848614 -3.9207206e-19)
(-6.4666488 -1.0129039 -7.0455485e-19)
(-6.1914666 -1.2650037 2.5334608e-19)
(-6.22736 -1.6957301 1.7876701e-20)
(-6.2189615 -1.3752306 0)
(-5.9655131 -1.463841 8.9357131e-19)
(-5.7829346 -1.578612 -1.1022088e-18)
(-5.6352472 -1.7855179 -5.3874224e-19)
(-5.6491878 -1.990157 1.6290251e-18)
(-5.5364302 -1.9540008 -1.7841171e-18)
(-5.4361972 2.0855678 6.0185311e-35)
(-5.6751152 1.8714202 0)
(-5.7133785 1.8831863 4.9953856e-19)
(-5.8302849 1.4995251 1.426665e-20)
(-6.0361505 1.4575304 -8.4870667e-19)
(-6.1812513 1.3990434 -4.6640868e-19)
(-6.352343 1.3929738 -2.7812835e-20)
(-6.3739175 1.4650124 -4.4666602e-19)
(-6.4258408 1.0808326 4.8997061e-19)
(-6.5431237 1.1577288 5.0695301e-19)
(-6.681189 0.84785028 -5.3380593e-21)
(-6.8155044 0.80922482 -4.0512544e-19)
(-6.9483532 0.77360515 -2.0347046e-19)
(-6.9791294 0.62085489 -1.8411997e-19)
(-7.2475766 0.25055166 -4.8745088e-22)
(-7.3172723 0.96576854 -9.9004103e-20)
(-7.3046265 0.20574339 3.7631055e-19)
(-7.4315245 0.52208293 -3.8961371e-19)
(-7.5608583 0.061908942 9.4351446e-20)
(-7.6934039 0.23391333 -7.0925541e-19)
(-7.7566943 0.17034841 6.9649592e-19)
(-7.7761783 0.035447793 1.0376878e-18)
(-7.8242556 -0.035934145 -6.8002865e-19)
(-7.846825 -0.14212511 -6.4367398e-19)
(-8.0152855 -0.58697196 6.2511897e-19)
(-8.1649648 0.18041182 -9.780113e-36)
(-7.9929515 -0.31319139 1.2354712e-18)
(-7.8448823 -0.35557915 -1.1517004e-18)
(-7.9362472 -0.61379503 1.1146554e-18)
(-7.9165113 0.032690201 -1.145118e-18)
(-7.8333282 -0.96127269 5.4049997e-19)
(-7.7954917 0.10416895 -2.6809136e-18)
(-7.6615434 -1.0291768 5.1812009e-19)
(-7.7266999 -0.39335426 2.0322332e-18)
(-7.607988 -1.0173267 -1.9412216e-18)
(-7.4706359 -0.39589469 -9.2231961e-19)
(-7.232308 -1.0417877 -2.6604574e-18)
(-6.9640286 -0.19414123 -3.3425203e-18)
(-5.9691439 -1.096611 -7.5647265e-19)
)
;
    }
    Outlet
    {
        type            calculated;
        value           uniform (0 0 0);
    }
}


// ************************************************************************* //
