/*--------------------------------*- C++ -*----------------------------------*\
| =========                 |                                                 |
| \\      /  F ield         | OpenFOAM: The Open Source CFD Toolbox           |
|  \\    /   O peration     | Version:  2506                                  |
|   \\  /    A nd           | Website:  www.openfoam.com                      |
|    \\/     M anipulation  |                                                 |
\*---------------------------------------------------------------------------*/
FoamFile
{
    version     2.0;
    format      ascii;
    arch        "LSB;label=32;scalar=64";
    class       volScalarField;
    location    "0.05";
    object      k;
}
// * * * * * * * * * * * * * * * * * * * * * * * * * * * * * * * * * * * * * //

dimensions      [0 2 -2 0 0 0 0];

internalField   nonuniform List<scalar> 
30607
(
10.126703
10.127407
10.128122
10.12888
10.123987
10.124633
10.125295
10.125983
10.126697
10.127389
10.128069
10.128755
10.129465
10.130213
10.131009
10.13186
10.132775
10.133765
10.134858
10.121207
10.12184
10.122482
10.123127
10.123795
10.124484
10.125186
10.125898
10.126631
10.127397
10.128208
10.129077
10.130013
10.131025
10.132118
10.133278
10.134451
10.135646
10.136874
10.138136
10.139429
10.140746
10.142081
10.14343
10.144796
10.146199
10.118365
10.118981
10.119624
10.120268
10.12093
10.121622
10.122341
10.123084
10.123857
10.124665
10.125517
10.126423
10.127393
10.128432
10.129544
10.130724
10.131958
10.133229
10.134526
10.135845
10.137184
10.138541
10.139911
10.141291
10.14268
10.144075
10.145456
10.14677
10.148034
10.149266
10.150475
10.151664
10.152833
10.153984
10.155121
10.156254
10.157407
10.115467
10.116067
10.116716
10.117374
10.118048
10.118753
10.119491
10.120264
10.121075
10.121931
10.122838
10.123802
10.124829
10.125923
10.127085
10.128313
10.1296
10.130934
10.132302
10.133692
10.135096
10.136508
10.137925
10.139342
10.140751
10.142147
10.143528
10.144878
10.146185
10.147448
10.14867
10.149859
10.151022
10.152162
10.153288
10.154406
10.155525
10.156633
10.157688
10.158714
10.159728
10.160735
10.161742
10.162756
10.163779
10.164821
10.1659
10.112582
10.113162
10.113814
10.114486
10.115176
10.115902
10.116667
10.117476
10.118332
10.119241
10.120207
10.121236
10.122331
10.123494
10.124722
10.126014
10.127363
10.128761
10.130196
10.131654
10.133122
10.134587
10.136043
10.13748
10.138902
10.140308
10.14169
10.143045
10.144364
10.145643
10.146881
10.14808
10.149246
10.150386
10.151507
10.152613
10.153708
10.154792
10.155857
10.156897
10.157901
10.158878
10.15985
10.160826
10.161812
10.162814
10.163832
10.164846
10.165806
10.166735
10.167654
10.168572
10.169487
10.170398
10.1713
10.172198
10.173106
10.109844
10.110414
10.111066
10.111748
10.112455
10.1132
10.113992
10.114832
10.115726
10.11668
10.117698
10.118786
10.119944
10.121174
10.122472
10.123833
10.125249
10.126709
10.128199
10.129707
10.13122
10.132727
10.134221
10.135696
10.137147
10.138571
10.139962
10.14132
10.142643
10.143928
10.145172
10.146374
10.147537
10.148667
10.149769
10.150845
10.151898
10.152926
10.153924
10.15489
10.155847
10.156808
10.157769
10.158728
10.159688
10.160655
10.161626
10.162599
10.163557
10.164491
10.1654
10.166291
10.167166
10.168029
10.168882
10.169727
10.170564
10.171374
10.172107
10.17279
10.173446
10.174083
10.174702
10.175301
10.17588
10.176445
10.177018
10.107308
10.107876
10.108532
10.109228
10.109953
10.110721
10.11154
10.112413
10.113344
10.11434
10.115406
10.116545
10.117758
10.119044
10.120398
10.121812
10.123276
10.124779
10.126309
10.127854
10.129402
10.130941
10.132462
10.133953
10.135411
10.136836
10.138226
10.139582
10.1409
10.142176
10.14341
10.144599
10.145743
10.146846
10.147913
10.14895
10.149964
10.150963
10.15195
10.152926
10.153887
10.154827
10.155751
10.156663
10.157571
10.158478
10.159389
10.160304
10.161216
10.162117
10.163
10.163863
10.164707
10.165534
10.166348
10.16715
10.167937
10.168704
10.169435
10.170123
10.170772
10.171391
10.171989
10.172569
10.173137
10.173695
10.174246
10.174772
10.175226
10.175644
10.176054
10.176467
10.176889
10.177325
10.177782
10.178272
10.178822
10.104889
10.105477
10.106158
10.10689
10.107652
10.108459
10.109318
10.110233
10.111208
10.112249
10.113362
10.114549
10.115811
10.117145
10.118543
10.119997
10.121496
10.123027
10.124576
10.12613
10.127677
10.12921
10.130722
10.132214
10.133677
10.135102
10.13649
10.137834
10.139137
10.140398
10.141619
10.14279
10.143905
10.14498
10.14602
10.147025
10.148002
10.148955
10.149888
10.150809
10.15172
10.152627
10.153529
10.154427
10.155323
10.156216
10.157106
10.157993
10.158874
10.159744
10.160599
10.161436
10.162253
10.163051
10.163833
10.1646
10.165351
10.166084
10.166795
10.167476
10.168125
10.168745
10.169339
10.169915
10.170476
10.171025
10.171564
10.172088
10.172584
10.17305
10.173498
10.173944
10.1744
10.174873
10.175373
10.175908
10.176485
10.177088
10.177677
10.178296
10.178976
10.179728
10.180556
10.181458
10.182435
10.183493
10.184656
10.102542
10.103169
10.103887
10.104666
10.105479
10.106338
10.107252
10.108223
10.109256
10.110354
10.111522
10.112761
10.114069
10.115441
10.116872
10.118352
10.119869
10.121413
10.122972
10.124536
10.126097
10.127644
10.129168
10.130658
10.132108
10.133512
10.134868
10.136173
10.137425
10.138622
10.139766
10.140874
10.141954
10.142995
10.143997
10.144969
10.145913
10.146834
10.147737
10.148627
10.149507
10.150381
10.151252
10.152122
10.152989
10.153854
10.154716
10.155575
10.156428
10.157274
10.158111
10.158935
10.159743
10.160535
10.161308
10.162064
10.162803
10.163524
10.164227
10.164908
10.165564
10.166193
10.166798
10.167383
10.16795
10.168505
10.169049
10.169583
10.170103
10.170607
10.171098
10.171582
10.172068
10.172568
10.173094
10.173654
10.174253
10.174894
10.175567
10.176275
10.177032
10.177852
10.178744
10.179714
10.18077
10.181918
10.183155
10.184445
10.185744
10.1871
10.188527
10.190021
10.19157
10.193166
10.194804
10.196489
10.100297
10.100969
10.101724
10.102547
10.103413
10.104327
10.105298
10.106328
10.10742
10.108573
10.109792
10.111078
10.11243
10.113842
10.115309
10.11682
10.118366
10.119934
10.12151
10.123084
10.124645
10.126182
10.127689
10.129157
10.130581
10.131956
10.133279
10.134548
10.135762
10.136922
10.138031
10.13909
10.140105
10.141081
10.142022
10.142934
10.143821
10.14469
10.145547
10.146394
10.147235
10.148074
10.148913
10.149753
10.150595
10.151439
10.152284
10.153129
10.153971
10.154808
10.155636
10.156453
10.157255
10.158042
10.158813
10.159568
10.160306
10.161029
10.161736
10.162426
10.163096
10.163745
10.164376
10.164987
10.165582
10.16616
10.166724
10.167273
10.167809
10.168332
10.168841
10.169343
10.169851
10.170374
10.170924
10.171509
10.172138
10.172816
10.173545
10.174326
10.175162
10.176059
10.177027
10.178074
10.179201
10.180407
10.181688
10.183032
10.18442
10.185846
10.187319
10.188838
10.190394
10.191985
10.193611
10.195262
10.196901
10.198474
10.200025
10.201566
10.203092
10.204593
10.206063
10.207505
10.208934
10.098178
10.098895
10.099686
10.100551
10.101465
10.102428
10.103446
10.104521
10.105656
10.106856
10.108119
10.109444
10.110832
10.112279
10.113778
10.115318
10.116887
10.118473
10.120063
10.121645
10.123207
10.12474
10.126233
10.127681
10.129076
10.130416
10.131698
10.132922
10.134089
10.135201
10.13626
10.137269
10.138232
10.139155
10.140044
10.140906
10.141747
10.142572
10.143386
10.144195
10.145001
10.145808
10.146618
10.147431
10.148248
10.149068
10.149891
10.150715
10.151539
10.152362
10.153181
10.153995
10.1548
10.155594
10.156377
10.157146
10.157901
10.158641
10.159366
10.160075
10.160768
10.161441
10.162091
10.162718
10.163323
10.163908
10.164473
10.165023
10.165561
10.166091
10.166619
10.167152
10.167696
10.16826
10.168851
10.169477
10.170147
10.17087
10.171653
10.172499
10.173399
10.174352
10.175371
10.176464
10.177634
10.178877
10.18019
10.181563
10.182984
10.184439
10.185922
10.187439
10.189004
10.190611
10.192241
10.193873
10.19549
10.197064
10.198594
10.20009
10.201557
10.202995
10.204404
10.205785
10.207138
10.208437
10.209644
10.210818
10.211984
10.213147
10.214312
10.215486
10.216681
10.217925
10.096218
10.096981
10.097808
10.098708
10.099659
10.100658
10.101709
10.102816
10.10398
10.105205
10.106495
10.10785
10.109267
10.11074
10.11226
10.113818
10.1154
10.116995
10.11859
10.120171
10.121726
10.123246
10.12472
10.126143
10.127507
10.128809
10.130052
10.131237
10.132364
10.133435
10.134451
10.135416
10.136337
10.137219
10.138068
10.138892
10.139694
10.140483
10.141263
10.142041
10.14282
10.143602
10.14439
10.145185
10.145987
10.146795
10.147608
10.148425
10.149241
10.150056
10.150867
10.151672
10.152472
10.153265
10.154051
10.154828
10.155595
10.156351
10.157093
10.157819
10.158526
10.159212
10.159874
10.160512
10.161127
10.161721
10.162297
10.162858
10.163403
10.163941
10.164483
10.165037
10.165604
10.166192
10.166811
10.167471
10.16818
10.16894
10.169749
10.170608
10.171533
10.172537
10.173618
10.174767
10.175985
10.177269
10.178616
10.180021
10.181476
10.182973
10.184501
10.18605
10.187614
10.189186
10.190763
10.192339
10.193902
10.195439
10.196936
10.198393
10.199815
10.201207
10.202569
10.203903
10.205209
10.206479
10.207701
10.208886
10.210057
10.211232
10.212421
10.213633
10.214879
10.216163
10.217466
10.218755
10.220088
10.221476
10.222915
10.224396
10.225913
10.227465
10.229062
10.094434
10.095244
10.096103
10.09703
10.098007
10.099031
10.100108
10.101241
10.102433
10.103686
10.105
10.106376
10.10781
10.109299
10.110832
10.112401
10.11399
10.115587
10.117176
10.118744
10.120279
10.121769
10.123208
10.12459
10.125913
10.127176
10.128375
10.129508
10.130581
10.131599
10.132565
10.133484
10.134362
10.135205
10.136019
10.136811
10.137588
10.138355
10.139119
10.139883
10.140653
10.14143
10.142215
10.143009
10.143812
10.144622
10.145438
10.146255
10.147071
10.147886
10.148705
10.149523
10.150338
10.151147
10.151949
10.152741
10.153519
10.154281
10.155026
10.15575
10.156453
10.157132
10.157787
10.158417
10.159022
10.159601
10.160159
10.160703
10.161244
10.161788
10.162334
10.162892
10.163472
10.164082
10.164726
10.165411
10.166146
10.166939
10.167793
10.168713
10.169699
10.17075
10.171867
10.173051
10.174301
10.175614
10.176989
10.17842
10.179899
10.181414
10.182955
10.184512
10.186078
10.187647
10.189211
10.190761
10.192287
10.193782
10.195239
10.196654
10.198032
10.199375
10.200691
10.201983
10.203253
10.204502
10.205729
10.206939
10.208145
10.209364
10.210607
10.211886
10.213204
10.214561
10.215947
10.21734
10.218752
10.220199
10.221687
10.223211
10.224765
10.226343
10.227937
10.229503
10.231
10.232481
10.233949
10.235396
10.23681
10.238189
10.239554
10.092787
10.093623
10.094496
10.095436
10.096436
10.097489
10.098596
10.099758
10.100978
10.102257
10.103594
10.10499
10.106441
10.107945
10.109489
10.111058
10.112638
10.114217
10.115778
10.11731
10.118802
10.120247
10.121638
10.122971
10.124243
10.125454
10.126602
10.127689
10.128718
10.12969
10.130612
10.131491
10.132332
10.133144
10.133932
10.134705
10.135467
10.136225
10.136982
10.137743
10.138511
10.139289
10.140077
10.140879
10.141692
10.142516
10.14335
10.144193
10.145045
10.1459
10.14675
10.147594
10.148428
10.149251
10.150059
10.150851
10.151625
10.152379
10.153112
10.153821
10.154506
10.155165
10.155798
10.156407
10.156995
10.157564
10.158116
10.158655
10.159184
10.159713
10.160248
10.160799
10.161377
10.161989
10.162639
10.163331
10.164081
10.164895
10.165777
10.166729
10.167753
10.168849
10.170012
10.171244
10.172543
10.173909
10.175333
10.176806
10.178313
10.179844
10.181392
10.182948
10.184504
10.186052
10.187586
10.189101
10.19059
10.192048
10.19347
10.194855
10.196204
10.197523
10.198817
10.200094
10.201356
10.202608
10.203854
10.205099
10.206351
10.207621
10.208919
10.210253
10.211625
10.213036
10.214481
10.21595
10.217439
10.218949
10.220483
10.222037
10.223608
10.225186
10.226758
10.228304
10.229799
10.231249
10.232666
10.234054
10.235412
10.236743
10.238047
10.239294
10.240463
10.241626
10.242798
10.243979
10.245175
10.246394
10.247662
10.091236
10.092103
10.093013
10.09399
10.095022
10.0961
10.097223
10.098395
10.099621
10.100903
10.102242
10.103638
10.105084
10.106572
10.108093
10.109639
10.111195
10.112747
10.11428
10.115784
10.117248
10.118664
10.120024
10.121324
10.122561
10.123732
10.12484
10.125885
10.126871
10.127804
10.128689
10.129532
10.130342
10.131125
10.131888
10.132638
10.133382
10.134127
10.134877
10.135638
10.136412
10.137202
10.138006
10.138826
10.139659
10.140504
10.141357
10.142218
10.143083
10.143951
10.144818
10.14568
10.146533
10.147375
10.148202
10.149011
10.149799
10.150563
10.151299
10.152005
10.15268
10.153324
10.153937
10.15452
10.155078
10.155615
10.156135
10.156642
10.157143
10.157645
10.158154
10.158679
10.159227
10.159814
10.160457
10.161171
10.161951
10.162796
10.163715
10.16471
10.165784
10.166935
10.16816
10.169451
10.1708
10.1722
10.173645
10.175128
10.176643
10.178182
10.179735
10.181292
10.182843
10.184382
10.1859
10.187393
10.188856
10.190288
10.191688
10.193054
10.194389
10.195698
10.196987
10.198262
10.199531
10.2008
10.202077
10.20337
10.204678
10.206009
10.207368
10.208761
10.21019
10.211654
10.213148
10.214665
10.216197
10.217741
10.219294
10.220853
10.222414
10.223968
10.225504
10.227007
10.228465
10.229873
10.23124
10.232572
10.233874
10.235152
10.236406
10.23763
10.238813
10.239981
10.241158
10.242354
10.243573
10.244823
10.246107
10.247391
10.248655
10.249962
10.251313
10.252692
10.254093
10.255515
10.256973
10.089862
10.090731
10.09163
10.092592
10.093616
10.094693
10.095822
10.097005
10.098243
10.099536
10.100884
10.102286
10.103736
10.105226
10.106748
10.108288
10.109831
10.111363
10.112871
10.114341
10.115766
10.117138
10.118449
10.119695
10.120876
10.121992
10.123045
10.12404
10.12498
10.125872
10.126721
10.127534
10.128319
10.129081
10.12983
10.130572
10.131313
10.13206
10.132818
10.133589
10.134378
10.135185
10.136009
10.136852
10.13771
10.138581
10.139463
10.140351
10.141241
10.142128
10.143009
10.143879
10.144737
10.145579
10.146404
10.147207
10.147987
10.14874
10.149463
10.150156
10.150815
10.151443
10.152039
10.152602
10.153135
10.153642
10.15413
10.154605
10.155076
10.155551
10.156044
10.156565
10.157123
10.157726
10.158382
10.159099
10.159886
10.160753
10.161701
10.162732
10.163844
10.165033
10.166296
10.167626
10.169016
10.170458
10.171942
10.173456
10.174993
10.176541
10.178091
10.179637
10.181171
10.182687
10.184181
10.185648
10.187087
10.188497
10.189879
10.191235
10.19257
10.193889
10.195197
10.196501
10.197807
10.19912
10.20044
10.201768
10.203116
10.204489
10.205892
10.207328
10.208798
10.2103
10.211827
10.213372
10.214929
10.216489
10.218047
10.219596
10.221132
10.222645
10.22413
10.225577
10.226981
10.22834
10.229659
10.230946
10.232209
10.233454
10.234681
10.235895
10.237094
10.238289
10.239498
10.240733
10.242002
10.243306
10.244641
10.24599
10.247335
10.248696
10.250085
10.2515
10.252936
10.254391
10.255863
10.257309
10.258709
10.260128
10.261564
10.263011
10.264468
10.265949
10.088551
10.089438
10.090358
10.091336
10.092373
10.093461
10.094595
10.095779
10.097013
10.098297
10.099633
10.101019
10.102451
10.103921
10.105418
10.106932
10.108446
10.109944
10.111415
10.112846
10.114227
10.115551
10.116817
10.118023
10.119167
10.120251
10.121274
10.122241
10.123154
10.124018
10.124841
10.125628
10.12639
10.127134
10.127869
10.128603
10.129343
10.130095
10.130863
10.13165
10.132458
10.133288
10.134141
10.135014
10.135905
10.136807
10.137715
10.138626
10.139532
10.14043
10.141317
10.14219
10.143047
10.143884
10.1447
10.145491
10.146256
10.14699
10.147691
10.148358
10.148987
10.149578
10.150132
10.150652
10.151142
10.151609
10.152058
10.152498
10.152936
10.153384
10.153858
10.154369
10.154929
10.155549
10.156236
10.156997
10.157836
10.158757
10.15976
10.160844
10.162004
10.163237
10.164538
10.165902
10.16732
10.168785
10.170287
10.171816
10.173362
10.174916
10.176468
10.17801
10.179536
10.181041
10.182519
10.18397
10.185391
10.186784
10.188153
10.189502
10.190834
10.192155
10.193468
10.194781
10.196099
10.197429
10.19878
10.200155
10.201555
10.202982
10.204437
10.20592
10.207429
10.208958
10.210504
10.212059
10.213616
10.215167
10.216707
10.218228
10.219727
10.221198
10.222634
10.22403
10.225384
10.226697
10.227973
10.229222
10.230456
10.231682
10.232908
10.234137
10.235373
10.236621
10.23789
10.239189
10.240521
10.241886
10.243279
10.24469
10.246109
10.247536
10.248976
10.25043
10.251893
10.253363
10.254832
10.256287
10.257713
10.259136
10.26057
10.262012
10.263464
10.264922
10.266343
10.267712
10.269087
10.270458
10.271815
10.273158
10.274499
10.087336
10.088224
10.089149
10.090126
10.091158
10.092243
10.093376
10.094556
10.095783
10.097058
10.098381
10.09975
10.101163
10.10261
10.104083
10.105566
10.107048
10.108515
10.109956
10.111357
10.112708
10.114003
10.115236
10.116405
10.117509
10.118549
10.11953
10.120456
10.121333
10.122168
10.122969
10.123743
10.124498
10.125242
10.125983
10.126728
10.127483
10.128253
10.129042
10.129854
10.130689
10.131547
10.132423
10.133315
10.134219
10.135132
10.136049
10.136966
10.137878
10.138781
10.139673
10.140553
10.141411
10.142241
10.143042
10.143811
10.144545
10.145241
10.145898
10.146515
10.147092
10.147629
10.14813
10.148596
10.149032
10.149445
10.149843
10.150243
10.150662
10.15111
10.151593
10.152121
10.152707
10.15336
10.154087
10.154895
10.155785
10.156759
10.157816
10.158954
10.160172
10.161464
10.162823
10.164241
10.165708
10.167212
10.168743
10.17029
10.171844
10.173398
10.174943
10.176473
10.177985
10.179472
10.180933
10.182365
10.183769
10.185147
10.186506
10.187849
10.189179
10.190501
10.19182
10.193145
10.194482
10.195838
10.197216
10.198619
10.200049
10.201508
10.202994
10.204506
10.206038
10.207586
10.209141
10.210698
10.212246
10.21378
10.215292
10.216777
10.21823
10.21965
10.221032
10.222378
10.223689
10.224968
10.226223
10.227463
10.228697
10.229936
10.231185
10.23245
10.233735
10.235045
10.236384
10.237754
10.239159
10.240596
10.242054
10.243524
10.244996
10.246467
10.24794
10.249417
10.250895
10.252372
10.253839
10.25529
10.256719
10.258134
10.259549
10.26097
10.262396
10.26382
10.265222
10.266585
10.267934
10.269271
10.270592
10.2719
10.273194
10.274426
10.275593
10.276762
10.277928
10.279094
10.28027
10.281479
10.086188
10.087064
10.087969
10.08893
10.089955
10.091032
10.092156
10.093327
10.094546
10.095812
10.097125
10.098483
10.099881
10.101311
10.102764
10.104227
10.105687
10.107128
10.108536
10.109901
10.111215
10.112471
10.113666
10.114799
10.115868
10.116877
10.117828
10.118726
10.119578
10.120391
10.121174
10.121936
10.122684
10.123428
10.124176
10.124933
10.125707
10.1265
10.127317
10.128157
10.12902
10.129902
10.1308
10.131712
10.132632
10.133556
10.134479
10.135397
10.136307
10.137205
10.138084
10.138938
10.139768
10.140574
10.141349
10.142087
10.142784
10.14344
10.144051
10.144618
10.145142
10.145623
10.146067
10.146479
10.146868
10.147243
10.147614
10.147993
10.148391
10.148824
10.149306
10.149847
10.150459
10.15115
10.151926
10.152791
10.153747
10.154792
10.155926
10.157141
10.158433
10.159792
10.16121
10.162677
10.164183
10.165719
10.167274
10.168838
10.170401
10.171957
10.1735
10.175025
10.176529
10.178008
10.179457
10.180878
10.182272
10.183639
10.184981
10.186303
10.187614
10.188924
10.19024
10.19157
10.19292
10.194296
10.195698
10.197124
10.198575
10.200055
10.20156
10.203084
10.204622
10.206169
10.207715
10.209254
10.21078
10.212285
10.213763
10.21521
10.216622
10.217998
10.219339
10.220648
10.221932
10.223197
10.224451
10.225704
10.226966
10.228244
10.229546
10.230874
10.23223
10.233615
10.23503
10.236473
10.237939
10.239424
10.240921
10.242421
10.243919
10.245408
10.246889
10.248365
10.249838
10.251301
10.252749
10.254188
10.255616
10.257036
10.258455
10.259872
10.261281
10.262672
10.264038
10.26537
10.266681
10.267975
10.269252
10.270507
10.271737
10.272931
10.274084
10.275235
10.276399
10.277582
10.27879
10.280026
10.281249
10.282461
10.283714
10.28499
10.286279
10.287579
10.288903
10.085146
10.08601
10.086905
10.087853
10.088858
10.089915
10.091019
10.092169
10.093365
10.094608
10.095898
10.097231
10.098603
10.100009
10.101439
10.10288
10.104316
10.105729
10.107107
10.108441
10.109725
10.110952
10.112119
10.113224
10.114268
10.115253
10.116182
10.117063
10.117901
10.118705
10.11948
10.120237
10.120987
10.121737
10.122497
10.123272
10.124069
10.124888
10.12573
10.126595
10.12748
10.128383
10.129299
10.130223
10.13115
10.132075
10.132992
10.133899
10.134794
10.135672
10.136531
10.137365
10.138171
10.138943
10.139677
10.14037
10.141019
10.141617
10.142167
10.142671
10.14313
10.143548
10.143933
10.144291
10.144634
10.144973
10.14532
10.145689
10.146092
10.146542
10.147049
10.147626
10.148282
10.149023
10.149855
10.15078
10.151799
10.152912
10.154113
10.155397
10.156758
10.158184
10.159665
10.16119
10.162745
10.16432
10.165902
10.167484
10.169058
10.170617
10.172153
10.173662
10.175139
10.176583
10.177995
10.179377
10.180736
10.182076
10.183404
10.184724
10.186042
10.187364
10.188695
10.19004
10.191401
10.192781
10.194188
10.19563
10.197103
10.198598
10.200109
10.201636
10.20317
10.204704
10.206234
10.20775
10.209246
10.210717
10.212157
10.213564
10.214937
10.216279
10.217593
10.218885
10.220164
10.221438
10.222716
10.224007
10.225317
10.226653
10.228018
10.229413
10.230838
10.232291
10.233767
10.235263
10.236774
10.238292
10.239809
10.241321
10.24282
10.244304
10.245774
10.247229
10.248672
10.250114
10.251557
10.252991
10.254413
10.255826
10.257231
10.25863
10.260017
10.261385
10.262725
10.264032
10.26531
10.266566
10.267806
10.269029
10.270233
10.271416
10.272579
10.273743
10.274927
10.276138
10.277379
10.278646
10.279921
10.281193
10.282486
10.283799
10.28512
10.286449
10.287785
10.289087
10.290369
10.291685
10.293023
10.294381
10.295767
10.08418
10.085021
10.085895
10.086823
10.087805
10.088836
10.08991
10.091029
10.092195
10.093409
10.094674
10.095989
10.097347
10.098738
10.100148
10.10156
10.102964
10.104349
10.105703
10.107017
10.10828
10.109485
10.110628
10.111709
10.11273
10.113695
10.114608
10.115476
10.116307
10.117109
10.11789
10.118661
10.119426
10.120194
10.120972
10.121764
10.122574
10.123405
10.124257
10.12513
10.126023
10.126932
10.127851
10.128778
10.129707
10.130634
10.131548
10.132448
10.133329
10.134187
10.135016
10.135812
10.136572
10.13729
10.137964
10.138592
10.139176
10.139715
10.140209
10.140654
10.141057
10.141424
10.141762
10.142079
10.142388
10.1427
10.14303
10.143392
10.1438
10.144269
10.14481
10.145433
10.146147
10.146956
10.147863
10.14887
10.149974
10.15117
10.152451
10.153808
10.155233
10.156714
10.158241
10.159803
10.161386
10.162979
10.164573
10.166162
10.167737
10.169286
10.170804
10.172287
10.173734
10.175146
10.176526
10.17788
10.179214
10.180532
10.181842
10.18315
10.184465
10.185792
10.187136
10.188502
10.189892
10.191307
10.192746
10.194208
10.19569
10.197189
10.198702
10.200221
10.201739
10.203251
10.204748
10.206227
10.207683
10.209113
10.210514
10.211887
10.213233
10.214557
10.215865
10.217164
10.218463
10.219768
10.221087
10.222427
10.223791
10.225183
10.226605
10.228056
10.229534
10.231034
10.232551
10.234077
10.235606
10.237132
10.238649
10.240154
10.241643
10.243116
10.244577
10.246027
10.247469
10.248905
10.250333
10.251752
10.253158
10.25455
10.255929
10.257296
10.258649
10.259984
10.261295
10.26258
10.263838
10.265075
10.266296
10.267505
10.268704
10.269896
10.271087
10.272291
10.273522
10.274784
10.276076
10.277389
10.27871
10.280027
10.281347
10.282673
10.284003
10.285336
10.286668
10.287988
10.289297
10.290629
10.291985
10.293359
10.294741
10.296076
10.297371
10.298662
10.299927
10.301159
10.30236
10.083226
10.084034
10.084876
10.085766
10.086711
10.087712
10.088766
10.089871
10.091026
10.092231
10.093484
10.094785
10.096127
10.097501
10.098897
10.100299
10.101693
10.103063
10.104398
10.105686
10.106922
10.108101
10.109222
10.110283
10.111287
10.112237
10.113139
10.113999
10.114824
10.115624
10.116405
10.117178
10.117951
10.118729
10.119519
10.120325
10.12115
10.121996
10.122862
10.123746
10.124644
10.125552
10.126469
10.127387
10.128301
10.129206
10.130103
10.130982
10.131838
10.132668
10.133467
10.134229
10.134949
10.135624
10.13625
10.136824
10.137346
10.137815
10.138238
10.138618
10.138961
10.139275
10.139569
10.139853
10.140139
10.140443
10.140776
10.141154
10.141591
10.142099
10.14269
10.143373
10.144155
10.145039
10.146027
10.147116
10.1483
10.149574
10.150929
10.152354
10.15384
10.155374
10.156943
10.158535
10.16014
10.161746
10.163342
10.164914
10.166456
10.167965
10.169439
10.170877
10.172281
10.173656
10.175006
10.176337
10.177655
10.178964
10.180272
10.181584
10.182907
10.184245
10.185602
10.186982
10.188388
10.18982
10.191277
10.192758
10.194258
10.195771
10.197291
10.198809
10.20032
10.201815
10.203289
10.20474
10.206164
10.207562
10.208934
10.210282
10.211613
10.212932
10.214247
10.215564
10.216892
10.218235
10.2196
10.220988
10.222403
10.223845
10.225313
10.226805
10.228317
10.22984
10.231369
10.232897
10.234421
10.235937
10.237439
10.238927
10.240399
10.241855
10.243299
10.244732
10.246156
10.247573
10.248982
10.250384
10.251777
10.253158
10.254527
10.255879
10.257213
10.258525
10.259815
10.26108
10.262324
10.26355
10.264766
10.265978
10.267194
10.268417
10.269656
10.270918
10.272208
10.273525
10.274864
10.276213
10.27756
10.278898
10.280229
10.281557
10.282887
10.28422
10.285553
10.286884
10.288213
10.289558
10.290922
10.292295
10.293661
10.294994
10.296283
10.297553
10.298797
10.300007
10.301168
10.302233
10.303226
10.304204
10.305183
10.306198
10.082263
10.083042
10.083858
10.084728
10.085658
10.086645
10.087683
10.08877
10.089906
10.091092
10.092327
10.09361
10.094935
10.096294
10.097674
10.09906
10.100439
10.101795
10.103116
10.104392
10.105616
10.106783
10.107891
10.10894
10.109932
10.110873
10.111767
10.112622
10.113446
10.114247
10.115035
10.115816
10.116597
10.117384
10.118181
10.118993
10.119822
10.120668
10.121531
10.122411
10.123304
10.124207
10.125117
10.126027
10.12693
10.127822
10.128698
10.12955
10.130372
10.131162
10.131914
10.132625
10.133291
10.133909
10.134477
10.134995
10.135463
10.135881
10.136253
10.136583
10.136879
10.13715
10.137408
10.137666
10.137938
10.138239
10.138585
10.13899
10.139468
10.140031
10.140688
10.141448
10.142313
10.143285
10.144362
10.14554
10.146813
10.148169
10.149599
10.151088
10.152622
10.154187
10.155769
10.157359
10.158944
10.160517
10.162069
10.163596
10.16509
10.166552
10.167981
10.169378
10.170747
10.172089
10.173412
10.174719
10.17602
10.17732
10.178626
10.179944
10.181279
10.182636
10.184018
10.185429
10.186866
10.18833
10.189816
10.191319
10.192835
10.194355
10.195874
10.197385
10.198881
10.200357
10.20181
10.203239
10.204644
10.206026
10.207389
10.208736
10.210073
10.211406
10.21274
10.214084
10.215443
10.216822
10.218225
10.219652
10.221102
10.222574
10.224065
10.225571
10.227088
10.22861
10.230132
10.231647
10.233151
10.234639
10.236112
10.23757
10.239016
10.240452
10.241879
10.243301
10.244718
10.246132
10.247541
10.248943
10.250334
10.251709
10.253064
10.254398
10.25571
10.257001
10.258273
10.259529
10.260772
10.26201
10.263249
10.264496
10.265755
10.267028
10.268318
10.26963
10.270963
10.272316
10.273681
10.275047
10.276405
10.27775
10.279083
10.280411
10.28174
10.283073
10.284412
10.285754
10.287101
10.288456
10.28982
10.291184
10.292534
10.293853
10.295134
10.296388
10.297613
10.2988
10.299935
10.301003
10.302012
10.303015
10.304043
10.305116
10.306209
10.307351
10.308572
10.309849
10.311175
10.312549
10.081395
10.082138
10.082918
10.08375
10.084642
10.085594
10.086603
10.087668
10.088787
10.08996
10.091187
10.092463
10.093783
10.095136
10.096509
10.097888
10.099257
10.100602
10.101911
10.103175
10.104388
10.105544
10.106644
10.107687
10.108675
10.109612
10.110505
10.111362
10.112189
10.112993
10.113781
10.11456
10.115339
10.116123
10.116919
10.11773
10.118558
10.119404
10.120267
10.121145
10.122034
10.122927
10.12382
10.124707
10.125582
10.126441
10.127278
10.128091
10.128874
10.129621
10.130328
10.13099
10.131605
10.13217
10.132682
10.133142
10.13355
10.133912
10.13423
10.134514
10.134772
10.135016
10.135258
10.135512
10.135794
10.136117
10.136498
10.136951
10.137489
10.138121
10.138857
10.139701
10.140655
10.141717
10.142882
10.144142
10.145488
10.146907
10.148386
10.149911
10.15147
10.15305
10.154635
10.156214
10.157777
10.159316
10.160824
10.162297
10.163734
10.165136
10.166505
10.167845
10.169161
10.17046
10.171748
10.173032
10.17432
10.175618
10.176932
10.178266
10.179624
10.181009
10.182422
10.183862
10.185327
10.186815
10.188322
10.18984
10.191364
10.192887
10.194405
10.195911
10.197402
10.198872
10.200319
10.201742
10.203142
10.204523
10.205889
10.207245
10.208597
10.209952
10.211316
10.212695
10.214092
10.21551
10.216949
10.218407
10.219883
10.221372
10.222871
10.224374
10.225877
10.227375
10.228863
10.230341
10.231804
10.233255
10.234693
10.236124
10.237548
10.23897
10.240389
10.241805
10.243217
10.244625
10.246026
10.247418
10.248799
10.250167
10.251521
10.252857
10.254174
10.25547
10.256747
10.25801
10.259266
10.260523
10.261788
10.26307
10.264372
10.265695
10.267039
10.268399
10.269772
10.271149
10.272523
10.273887
10.275235
10.276568
10.27789
10.27921
10.280538
10.281878
10.28323
10.284591
10.285957
10.287325
10.288692
10.29005
10.291388
10.292696
10.293969
10.295209
10.296413
10.297575
10.298686
10.299748
10.300783
10.301836
10.302936
10.304089
10.305278
10.306505
10.307798
10.30915
10.310551
10.311966
10.313306
10.314548
10.315675
10.316654
10.317489
10.080541
10.081242
10.081985
10.082791
10.083664
10.084601
10.085597
10.086649
10.087756
10.088918
10.090133
10.091399
10.092709
10.094054
10.095421
10.096794
10.098157
10.099497
10.100801
10.102059
10.103264
10.104413
10.105505
10.10654
10.107524
10.108459
10.10935
10.110204
10.111025
10.111823
10.112608
10.113384
10.11416
10.114943
10.115735
10.116542
10.117364
10.118203
10.119056
10.11992
10.120792
10.121666
10.122536
10.123395
10.12424
10.125066
10.125866
10.126637
10.127372
10.128068
10.128722