/*--------------------------------*- C++ -*----------------------------------*\
| =========                 |                                                 |
| \\      /  F ield         | OpenFOAM: The Open Source CFD Toolbox           |
|  \\    /   O peration     | Version:  2506                                  |
|   \\  /    A nd           | Website:  www.openfoam.com                      |
|    \\/     M anipulation  |                                                 |
\*---------------------------------------------------------------------------*/
FoamFile
{
    version     2.0;
    format      ascii;
    arch        "LSB;label=32;scalar=64";
    class       volScalarField;
    location    "1.3";
    object      alphat;
}
// * * * * * * * * * * * * * * * * * * * * * * * * * * * * * * * * * * * * * //

dimensions      [1 -1 -1 0 0 0 0];

internalField   nonuniform List<scalar> 
1375
(
0.00052102239
0.010449494
0.012321469
0.009055224
0.00055269793
0.011959396
0.0086306673
0.012091519
0.018320241
0.014589693
0.019463975
0.019780697
0.031098091
0.012306403
0.022946493
0.045514901
0.00055654226
0.012023119
0.010611432
0.014105747
0.015381749
0.022443586
0.029347689
0.048827552
0.026076949
0.019780586
0.018459359
0.054025691
0.035362842
0.084800055
0.077920042
0.10110004
0.12788958
0.12778305
0.12760788
0.12741629
0.12732469
0.12727562
0.00057830606
0.012126655
0.016340181
0.013665516
0.015141864
0.010622157
0.031585442
0.016699398
0.0249541
0.012518971
0.026255385
0.014207652
0.035100618
0.043670386
0.060747036
0.077567641
0.067729289
0.12783222
0.1274279
0.12744319
0.12734891
0.12725433
0.12725952
0.12719273
0.12719529
0.1271853
0.12719101
0.12721189
0.12723365
0.12724648
0.12726589
0.12729271
0.12732282
0.12735541
0.00060038718
0.012377433
0.013088888
0.018494887
0.020868496
0.016603738
0.019359956
0.012874763
0.023589547
0.027155878
0.021183284
0.027276759
0.038905886
0.042811632
0.056394338
0.057460313
0.08782524
0.092315691
0.12570903
0.12747687
0.12733827
0.12724783
0.12721801
0.12725084
0.1271841
0.12715785
0.12716164
0.12718467
0.12720571
0.1272243
0.12723942
0.12726428
0.12729014
0.12732288
0.12735376
0.12738891
0.1274296
0.12747934
0.12754138
0.12761394
0.12770015
0.1278045
0.12793436
0.12809979
0.12830697
0.12858009
0.12893053
0.12944474
0.13019144
0.0006144431
0.012237741
0.017724387
0.028251079
0.017216588
0.027148391
0.030761605
0.024043409
0.027715736
0.036327705
0.11297934
0.042514175
0.082801098
0.081240436
0.12716007
0.12762048
0.12778572
0.12782026
0.12763901
0.12747729
0.12739518
0.12725867
0.12720552
0.12724646
0.12714466
0.12713757
0.12714352
0.12716473
0.12718951
0.12719474
0.12721421
0.12723561
0.12726101
0.12729065
0.12731799
0.12735048
0.12738999
0.12743781
0.12749594
0.12756495
0.12764731
0.12774732
0.12787266
0.128033
0.12823321
0.12849928
0.12884176
0.12934554
0.13007154
0.00064890093
0.011578613
0.015572333
0.018612665
0.019698596
0.021744621
0.023098654
0.038814092
0.048909948
0.045967709
0.04283624
0.046862104
0.04290106
0.092761756
0.063354908
0.070774646
0.082788133
0.12786416
0.12417105
0.12748637
0.12740839
0.12723512
0.12720751
0.12717783
0.12715531
0.12712535
0.12712801
0.12714328
0.12717539
0.12716935
0.12718457
0.1272067
0.12723113
0.12725739
0.12728421
0.12731482
0.12735253
0.12739779
0.12745202
0.12751767
0.12759664
0.12769236
0.12781342
0.12796899
0.12816278
0.12842214
0.12875724
0.1292487
0.12995848
0.00069013847
0.011511932
0.011804076
0.020568946
0.022600395
0.020233171
0.020895862
0.027927093
0.036068071
0.035577869
0.058731057
0.023349428
0.049883245
0.033890086
0.036171155
0.057416524
0.068356223
0.076696923
0.1054969
0.12754775
0.12737084
0.12723691
0.12719667
0.12723397
0.12716821
0.12711359
0.12710738
0.12711952
0.12715479
0.1271446
0.12715824
0.12718107
0.12720198
0.12722392
0.12725091
0.12728089
0.12731702
0.1273587
0.12740979
0.12747208
0.12754825
0.12764069
0.12775642
0.12790714
0.1280955
0.1283483
0.12867615
0.12915659
0.12985085
0.00071870462
0.011488291
0.014014919
0.034579894
0.018428393
0.032065587
0.033119671
0.023366517
0.035163457
0.03350717
0.046381099
0.05262936
0.068042749
0.047042759
0.12640072
0.0888812
0.12764873
0.1278331
0.12765625
0.12755637
0.12742777
0.12727265
0.12720503
0.12725813
0.12712905
0.12709364
0.12708632
0.12709857
0.12712324
0.12711952
0.12713505
0.12715583
0.12717359
0.12719286
0.12721902
0.12724802
0.12728261
0.12732072
0.12736876
0.12742824
0.12750149
0.12759066
0.12770175
0.12784832
0.12803125
0.12827808
0.12859856
0.12906815
0.12974822
0.00073957177
0.011377192
0.021298668
0.033358818
0.022361406
0.035336597
0.028331141
0.040181241
0.041810674
0.036712048
0.037588956
0.045966364
0.066193005
0.06365585
0.1266827
0.10848975
0.12768314
0.12791667
0.12771693
0.1275585
0.12749047
0.12729634
0.12720272
0.12723364
0.1270997
0.12707795
0.12707202
0.12707938
0.12709717
0.12709772
0.12711114
0.12712984
0.1271452
0.12716409
0.12718908
0.12721603
0.12724812
0.12728409
0.1273294
0.12738607
0.12745626
0.12754222
0.12764939
0.12779135
0.12796955
0.12821103
0.12852505
0.12898508
0.12964939
0.00077684696
0.010723331
0.026643874
0.033163975
0.028466329
0.035495473
0.029984823
0.035989883
0.035380605
0.0309419
0.044193847
0.047184761
0.068040113
0.095608856
0.08312204
0.11062407
0.078082533
0.10654478
0.12678075
0.12765407
0.12754845
0.12730418
0.12719041
0.1271963
0.12709548
0.1270709
0.12705405
0.12705922
0.12707653
0.12707946
0.12708832
0.12710323
0.12711655
0.12713669
0.12715965
0.12718524
0.12721406
0.12724808
0.12729142
0.12734533
0.12741268
0.12749577
0.12759931
0.12773644
0.12791038
0.12814626
0.12845489
0.12890739
0.1295544
0.00083516199
0.010564121
0.013236436
0.024186865
0.026788125
0.034798121
0.031816993
0.034518568
0.036926647
0.041513141
0.0716458
0.066730526
0.061698949
0.091242211
0.082364063
0.081532021
0.087059734
0.12799895
0.12779693
0.12769718
0.12754887
0.12729489
0.12719849
0.12716951
0.12709296
0.12705735
0.12703658
0.12703657
0.12705844
0.12705996
0.12706592
0.12707743
0.12708952
0.12710969
0.12713014
0.12715489
0.12718138
0.12721376
0.12725461
0.12730601
0.12737069
0.12745114
0.12755128
0.12768383
0.12785366
0.12808376
0.12838774
0.12883341
0.12946378
0.0008612526
0.010273469
0.016809938
0.036000175
0.023311038
0.05019877
0.032113373
0.045380969
0.04942006
0.07117708
0.045901038
0.051570023
0.080498017
0.060064764
0.076985583
0.094926251
0.12778679
0.12806317
0.12783494
0.12769786
0.12750717
0.12729979
0.12721032
0.12715118
0.12708288
0.12704536
0.1270208
0.12701645
0.12704398
0.12703869
0.12704336
0.1270533
0.1270643
0.12708303
0.12710163
0.1271251
0.12714943
0.12718058
0.12721919
0.12726811
0.12733005
0.12740783
0.12750502
0.12763363
0.12779947
0.12802416
0.12832332
0.12876203
0.12937739
0.0009133234
0.010165461
0.02149197
0.030121863
0.039265092
0.053671361
0.034968469
0.055647583
0.040240902
0.046199503
0.039639209
0.066349867
0.062599774
0.060239134
0.079970357
0.1218479
0.095034107
0.11586195
0.12781948
0.12768124
0.12748568
0.12732632
0.12720897
0.1271368
0.12707603
0.1270333
0.12700524
0.12700053
0.12702905
0.12701616
0.12702189
0.12703007
0.1270401
0.12705654
0.12707395
0.12709573
0.1271183
0.12714824
0.12718519
0.12723143
0.12729055
0.12736601
0.12746036
0.12758522
0.1277473
0.12796743
0.12826175
0.00094561236
0.010404375
0.025233866
0.035717552
0.023591841
0.040215352
0.035224504
0.04315571
0.039116787
0.055173457
0.062368497
0.068718149
0.047168325
0.09400538
0.10890278
0.082682378
0.1077197
0.12816786
0.12789493
0.12772029
0.12750907
0.12734269
0.12719562
0.12714127
0.12707769
0.12701474
0.12699208
0.12698679
0.12701091
0.12699505
0.12700171
0.12700745
0.1270169
0.1270304
0.12704684
0.12706693
0.12708815
0.12711666
0.12715198
0.12719591
0.12725258
0.12732579
0.12741735
0.12753855
0.12769713
0.12791292
0.00098418865
0.01020349
0.020763559
0.03491756
0.030633864
0.04081868
0.034961626
0.048104004
0.046106759
0.064598013
0.050505937
0.051726415
0.073001517
0.10008355
0.073739945
0.084938376
0.12799248
0.12821331
0.12801593
0.12777005
0.12752962
0.12733699
0.12722333
0.12715488
0.12706071
0.12699692
0.12698281
0.12697386
0.12699024
0.12697637
0.12698131
0.12698544
0.12699389
0.12700484
0.12702041
0.12703851
0.12705905
0.127086
0.12711964
0.1271615
0.12721584
0.12728685
0.12737597
0.12749368
0.12764897
0.0010539884
0.010362077
0.024747472
0.034761875
0.034893366
0.063438717
0.036999536
0.051682463
0.036562201
0.047009188
0.049635813
0.078440644
0.070886337
0.077110424
0.072267166
0.12776698
0.10721902
0.099323351
0.12807587
0.12779635
0.12756607
0.12738062
0.1272675
0.12713594
0.12703451
0.1269888
0.12697265
0.12695993
0.12696768
0.12695822
0.12696026
0.12696393
0.1269707
0.12698002
0.12699436
0.12701057
0.12703088
0.12705623
0.12708808
0.12712813
0.12718019
0.1272492
0.12733598
0.12745056
0.0011165988
0.010311818
0.024194361
0.034284475
0.038898248
0.04707498
0.031953705
0.051595439
0.039952297
0.072561495
0.059931267
0.067454201
0.059902007
0.079401489
0.10672041
0.10419058
0.079957524
0.1283813
0.1280789
0.12786465
0.12763086
0.12744308
0.12726797
0.12711479
0.12703284
0.12698357
0.12695825
0.12694524
0.12694412
0.12694009
0.12693946
0.12694234
0.12694761
0.12695576
0.12696836
0.1269836
0.12700342
0.12702713
0.12705722
0.12709559
0.12714557
0.12721281
0.12729727
0.0011235903
0.010387488
0.024187752
0.034018365
0.030699996
0.048942044
0.034441085
0.078869873
0.053601688
0.066530646
0.048154648
0.061566219
0.070060755
0.096664749
0.082276482
0.077194889
0.12826794
0.12842635
0.12812845
0.12793094
0.127682
0.12745557
0.12723546
0.12712795
0.12705249
0.12697565
0.12694383
0.12692988
0.12692202
0.12692246
0.12691912
0.1269207
0.12692507
0.12693191
0.12694298
0.12695755
0.12697653
0.12699868
0.12702709
0.12706382
0.12711193
0.12717746
0.0012290252
0.0096776735
0.016387554
0.021842119
0.044162016
0.057574265
0.053666322
0.073646792
0.045502602
0.052079597
0.056335429
0.099028588
0.077956461
0.074105436
0.073231947
0.12538145
0.12833276
0.12741607
0.12819289
0.12795698
0.12768641
0.1274503
0.12722842
0.12714472
0.12705941
0.12696951
0.12693472
0.12691363
0.12690302
0.1269048
0.12689922
0.1268996
0.12690331
0.12690856
0.12691843
0.12693223
0.12695009
0.12697103
0.12699764
0.12703285
0.12707924
0.0012092432
0.0084631046
0.023306857
0.027596585
0.031417014
0.056242893
0.052336011
0.056677759
0.047313226
0.070940531
0.067272133
0.072759093
0.064300775
0.076754138
0.11783494
0.12614792
0.10995516
0.12859026
0.12823158
0.12796078
0.12770023
0.1274707
0.12729038
0.12715109
0.12705938
0.12697297
0.1269284
0.12689751
0.12688703
0.12688679
0.12688011
0.12687956
0.12688211
0.12688591
0.12689442
0.1269074
0.12692411
0.12694399
0.12696879
0.12700266
0.0012556309
0.0086536113
0.018745868
0.031181144
0.041496695
0.056209748
0.049247355
0.064658308
0.06334236
0.099819135
0.058162244
0.05715467
0.077478184
0.12501403
0.11272045
0.093202436
0.11251754
0.12860918
0.12834147
0.12802873
0.1277606
0.12752052
0.12733884
0.12715273
0.12706121
0.12697802
0.12692126
0.12688341
0.12687318
0.12686904
0.12686189
0.12686031
0.1268612
0.12686371
0.12687092
0.12688297
0.1268986
0.12691724
0.12694043
0.0012905428
0.0096165708
0.022314683
0.032672974
0.044533128
0.056605169
0.04834125
0.076012666
0.065745881
0.072798197
0.055629322
0.077162436
0.094239177
0.1029065
0.083253605
0.098837669
0.12856776
0.12866689
0.12845925
0.12812514
0.12783599
0.12756414
0.12735034
0.12716816
0.12706576
0.12697573
0.1269126
0.12687259
0.12686047
0.12685237
0.12684396
0.12684129
0.12684064
0.1268415
0.12684787
0.12685891
0.12687341
0.12689073
0.0013289032
0.01001111
0.021733234
0.032916607
0.039216055
0.057231335
0.047666225
0.074616795
0.058196388
0.064519003
0.071050891
0.1174979
0.093624904
0.087321263
0.096494306
0.12816572
0.12861189
0.12878694
0.12855458
0.12820755
0.12789164
0.12757307
0.1273455
0.12718249
0.12706419
0.12696592
0.12690501
0.12686317
0.12684764
0.12683706
0.1268259
0.1268224
0.12682014
0.1268193
0.12682511
0.12683512
0.12684839
0.0013776118
0.010115817
0.021609873
0.033679745
0.043281193
0.058529444
0.044327042
0.071318824
0.055614027
0.070345346
0.073387279
0.097329804
0.07609484
0.082481017
0.11084945
0.12822717
0.12872232
0.12889781
0.12863013
0.12827696
0.12790296
0.12758204
0.12734615
0.12717699
0.12705381
0.1269557
0.12689765
0.12685213
0.12683363
0.12682239
0.1268078
0.12680328
0.12679951
0.12679722
0.12680242
0.12681147
0.0014260827
0.0099643454
0.020588273
0.033888589
0.039111887
0.059847207
0.049780203
0.066532658
0.061966669
0.080464557
0.081360478
0.083730693
0.085337425
0.12519776
0.11859941
0.1283248
0.1265737
0.12898622
0.12871592
0.12834002
0.12790154
0.12761281
0.12734952
0.12716336
0.12704629
0.12694769
0.12688828
0.12683932
0.12681856
0.12680767
0.12679002
0.12678355
0.12677872
0.12677544
0.1267796
0.12678784
0.0014712474
0.010075207
0.020453596
0.034216339
0.049834551
0.061027035
0.053332769
0.061354434
0.052329176
0.065393437
0.063877816
0.072987283
0.073183988
0.096917087
0.10594885
0.12018545
0.12899565
0.12906315
0.12882154
0.12841294
0.1279298
0.12764323
0.12735088
0.12715908
0.12704414
0.12693956
0.12687692
0.12682559
0.12680268
0.12679189
0.12677242
0.12676308
0.12675764
0.12675389
0.1267567
0.0015234978
0.010006954
0.019584828
0.033808402
0.041358844
0.061224593
0.057483523
0.067751558
0.064747448
0.07495506
0.078010935
0.092877998
0.11051107
0.12541093
0.10538805
0.12851046
0.12910678
0.1291867
0.12892734
0.12850194
0.12799596
0.12766142
0.12736318
0.12716779
0.12704043
0.12693063
0.12686621
0.12681184
0.12678645
0.12677466
0.12675437
0.12674213
0.12673599
0.12673232
0.0015841087
0.010136732
0.019585895
0.03398923
0.049465919
0.054319024
0.049723523
0.060374115
0.054100064
0.062160414
0.062897767
0.08032772
0.069526543
0.087925881
0.12141162
0.12858745
0.12915747
0.12924564
0.1290127
0.12857653
0.12806093
0.12768146
0.12738762
0.12717826
0.1270329
0.12692362
0.1268572
0.12679805
0.12677031
0.12675655
0.12673555
0.12672084
0.12671361
0.0016499096
0.010103865
0.018512942
0.032914951
0.03427645
0.059860677
0.063291206
0.074731885
0.076565368
0.082625339
0.0873127
0.098604942
0.11463638
0.12492989
0.11437
0.12862982
0.12926072
0.12933021
0.12907617
0.12862285
0.12810853
0.12770902
0.12741247
0.12718097
0.12702193
0.12691596
0.12684794
0.12678401
0.12675386
0.12673759
0.12671549
0.0017363054
0.010250262
0.018539924
0.028956117
0.047768811
0.038246421
0.041635311
0.050069573
0.054424349
0.060826103
0.067475882
0.073016278
0.070484973
0.10632018
0.12733834
0.12867855
0.12931147
0.12937551
0.12911278
0.12864507
0.1281489
0.12774522
0.12742907
0.12717973
0.12701328
0.12690662
0.12683696
0.12677038
0.12673716
0.12671876
0.0018059414
0.010308602
0.016690572
0.031499157
0.033790143
0.05111472
0.056932351
0.062811527
0.070269908
0.078383659
0.082408969
0.10315363
0.089719812
0.1231376
0.11485481
0.12869809
0.12934561
0.12942002
0.12913412
0.12863489
0.12818134
0.12777746
0.12744058
0.12717956
0.12700692
0.12689624
0.12682332
0.12675638
0.12671973
0.0020152765
0.0075178938
0.014516401
0.016411647
0.041999467
0.034234501
0.040862245
0.051173218
0.058197082
0.064367923
0.08032709
0.056787805
0.083146346
0.1244417
0.12689265
0.12853073
0.12930525
0.12942381
0.1291684
0.12873642
0.12826928
0.12783484
0.12746962
0.12719185
0.12701259
0.12689028
0.12680883
0.010593261
0.010353601
0.010229161
0.012536988
0.012281751
0.012062885
0.011860403
0.011397607
0.010800048
0.015028056
0.015022483
0.015145336
0.015627128
0.015729808
0.015225604
0.02728916
0.02747095
0.027854662
0.028954358
0.029225316
0.022306869
0.042127495
0.042368622
0.042835545
0.044001313
0.044368317
0.026086983
0.056189042
0.056266786
0.056636367
0.057457027
0.057662103
0.031063888
0.069182766
0.068961303
0.069126392
0.069607781
0.069629554
0.038283887
0.081268323
0.080887927
0.080697671
0.080852991
0.080705927
0.044642006
0.091498247
0.091065893
0.090449479
0.090693639
0.054159036
0.10113333
0.10064566
0.10038955
0.10004266
0.062978225
0.10956184
0.10917544
0.10887261
0.1084779
0.085557685
0.11647492
0.11631479
0.11606514
0.11570493
0.054028621
0.12122995
0.12119892
0.12111429
0.069613088
0.11550885
0.12459101
0.12463854
0.1246909
0.12466155
0.071089427
0.12690863
0.12696146
0.12702935
0.12258835
0.12694151
0.12838901
0.12846683
0.12853784
0.12856748
0.12912457
0.12917904
0.12927713
0.12930632
0.12930986
0.12937628
0.12944614
0.12943346
0.12919628
0.12921473
0.12918003
0.12880583
0.12879605
0.12876872
0.1283119
0.12830473
0.12829587
0.12783179
0.12784515
0.12745142
0.12746844
0.12718542
0.12719507
0.12701326
0.12688183
)
;

boundaryField
{
    Side
    {
        type            empty;
    }
    Inlet
    {
        type            calculated;
        value           nonuniform List<scalar> 9(0.13280477 0.13280682 0.13280999 0.1328101 0.13281065 0.13281325 0.1328148 0.13281362 0.13281104);
    }
    Airfoil
    {
        type            compressible::alphatWallFunction;
        value           nonuniform List<scalar> 
33
(
0.00070146753
0.0007127716
0.00072340509
0.00073470519
0.00074718529
0.0007616501
0.00077680618
0.00079137361
0.00080813837
0.00082486898
0.00084260483
0.00085878898
0.00087846807
0.00089640901
0.00090976363
0.00092878255
0.00094843573
0.00097209782
0.00098647842
0.00100548
0.0010088119
0.0010191667
0.0010246206
0.001039608
0.0010496146
0.0010634054
0.0010717971
0.0010839859
0.0010960371
0.001106549
0.0011218786
0.001124824
0.0011386084
)
;
    }
    Outlet
    {
        type            calculated;
        value           nonuniform List<scalar> 0();
    }
    procBoundary1to0
    {
        type            processor;
        value           nonuniform List<scalar> 
53
(
0.00049845129
0.013257151
0.011512886
0.01119793
0.016596769
0.016596769
0.0065681757
0.016071078
0.011744305
0.010850573
0.012897877
0.024782506
0.020819874
0.05281364
0.05281364
0.058133719
0.076208244
0.077689314
0.095691978
0.12776684
0.12760314
0.12742763
0.12728389
0.12727843
0.12725253
0.12725253
0.12722413
0.12720003
0.12720728
0.12722086
0.12723638
0.12726377
0.12727203
0.12729771
0.12732533
0.12735904
0.12739073
0.12738932
0.12738932
0.12742608
0.12747083
0.12752372
0.12758819
0.12766458
0.12775524
0.12786365
0.1279985
0.12817
0.12838355
0.12866464
0.12902421
0.12954941
0.13031701
)
;
    }
    procBoundary1to2
    {
        type            processor;
        value           nonuniform List<scalar> 
75
(
0.12869333
0.12929469
0.12869333
0.12820282
0.12820282
0.12786044
0.12786044
0.12760262
0.12760262
0.12740902
0.12740902
0.12725987
0.12725987
0.12714304
0.12714304
0.12704746
0.12704746
0.12697311
0.12697311
0.12691265
0.12691265
0.12686449
0.12686449
0.1268234
0.1268234
0.12679841
0.12676414
0.12676414
0.12673375
0.12673375
0.12671045
0.12669914
0.12671045
0.12669054
0.12669914
0.12669459
0.12669459
0.12669956
0.12674284
0.12669956
0.12670231
0.12674284
0.12678962
0.010857528
0.012780078
0.014883821
0.026748258
0.041448989
0.05562141
0.068687824
0.080725446
0.091949978
0.091949978
0.10156291
0.1099263
0.11658768
0.12128108
0.12462437
0.12693181
0.12837058
0.12837058
0.12913106
0.12930348
0.1291525
0.1291525
0.12875609
0.12827875
0.12781946
0.12781946
0.1274369
0.12716963
0.12700684
0.12700684
0.12686926
0.12678962
)
;
    }
    procBoundary1to8
    {
        type            processor;
        value           nonuniform List<scalar> 8(0.0097012107 0.01063982 0.010456432 0.010124207 0.010209394 0.010124207 0.0099123013 0.0097012107);
    }
}


// ************************************************************************* //
