/*--------------------------------*- C++ -*----------------------------------*\
| =========                 |                                                 |
| \\      /  F ield         | OpenFOAM: The Open Source CFD Toolbox           |
|  \\    /   O peration     | Version:  2506                                  |
|   \\  /    A nd           | Website:  www.openfoam.com                      |
|    \\/     M anipulation  |                                                 |
\*---------------------------------------------------------------------------*/
FoamFile
{
    version     2.0;
    format      ascii;
    arch        "LSB;label=32;scalar=64";
    class       volScalarField;
    location    "0.55";
    object      omega;
}
// * * * * * * * * * * * * * * * * * * * * * * * * * * * * * * * * * * * * * //

dimensions      [0 0 -1 0 0 0 0];

internalField   nonuniform List<scalar> 
1375
(
39.746102
39.552709
39.376892
39.217378
39.073583
38.945374
38.832496
38.735091
38.653574
38.597384
38.550865
38.557598
38.593357
38.681754
38.850968
39.145383
39.640957
40.472951
41.890864
44.431602
48.571626
55.194342
66.932619
97.596538
251.84937
1129.9855
58.955825
56.512292
54.412156
52.60994
51.046436
49.679293
48.476865
47.41473
46.472456
45.633135
44.882904
44.210265
43.605676
43.060888
42.568771
42.123377
41.719367
41.352021
41.017778
40.713319
40.435633
40.182192
39.950575
39.739004
39.546083
39.370522
39.211059
39.067136
38.938797
38.825931
38.728417
38.646691
38.590063
38.541874
38.54695
38.579642
38.662727
38.823697
39.105443
39.580808
40.379581
41.743297
44.169832
48.221181
54.699732
66.075023
94.874617
240.57462
1130.7565
58.937958
56.469252
54.353221
52.541743
50.973459
49.603765
48.400374
47.339053
46.399181
45.563228
44.816786
44.148034
43.547223
43.006048
42.517398
42.075349
41.674559
41.310316
40.979105
40.677558
40.402586
40.151661
39.922446
39.713093
39.522193
39.348468
39.19062
39.048039
38.920901
38.80912
38.712402
38.631387
38.575291
38.526997
38.531347
38.562146
38.640968
38.795531
39.067318
39.526922
40.297494
41.606962
43.985683
47.926276
54.257665
65.450662
93.625647
233.86038
1133.6882
58.907769
56.395981
54.252604
52.424339
50.846478
49.473052
48.269956
47.211043
46.274976
45.443945
44.703179
44.040644
43.446288
42.911581
42.42928
41.993345
41.598326
41.239515
40.913495
40.616875
40.346538
40.09998
39.8749
39.66941
39.48211
39.311752
39.157053
39.017421
38.89318
38.784161
38.69013
38.61204
38.558898
38.515032
38.521449
38.555841
38.639435
38.79941
39.078329
39.543793
40.319011
41.669896
43.939805
47.968637
54.363085
65.323684
93.258631
234.89963
1138.774
58.865129
56.293084
54.111922
52.261643
50.672805
49.295613
48.093385
47.038027
46.10732
45.282903
44.549547
43.895038
43.309054
42.782861
42.309055
41.881398
41.494246
41.142891
40.823963
40.534
40.269908
40.029265
39.809797
39.609611
39.427299
39.261611
39.11127
38.975742
38.855495
38.750282
38.660115
38.586433
38.537318
38.500676
38.510584
38.550645
38.643721
38.815827
39.111332
39.604245
40.46229
41.793984
44.496466
48.439077
54.712587
66.042785
93.817587
233.40227
1145.7655
58.809377
56.160514
53.93231
52.054889
50.451529
49.068869
47.867939
46.818596
45.896635
45.082283
44.359562
43.715833
43.140585
42.624925
42.16142
41.743738
41.366133
41.02394
40.713767
40.432037
40.175649
39.942302
39.729744
39.536077
39.359904
39.200014
39.05512
38.924692
38.809261
38.708575
38.623201
38.554733
38.510436
38.482308
38.496056
38.542761
38.644639
38.838038
39.153951
39.674494
40.487135
41.967198
44.46044
48.655448
55.353715
67.2557
95.737333
237.61186
1154.3632
58.740775
55.997559
53.712626
51.803852
50.18511
48.798538
47.601102
46.559892
45.648922
44.847003
44.137418
43.50697
42.944753
42.441693
41.990374
41.584402
41.217972
40.886538
40.586602
40.314428
40.066946
39.842054
39.637442
39.451235
39.282103
39.128843
38.990153
38.865602
38.755738
38.660311
38.580333
38.517773
38.478235
38.46022
38.477447
38.532466
38.645977
38.838915
39.174288
39.750217
40.641728
42.295778
44.671324
49.328836
56.257157
67.753595
98.670477
249.72756
1164.413
58.658568
55.805532
53.457056
51.514625
49.88162
48.492689
47.30042
46.269071
45.370852
44.583198
43.888699
43.273515
42.726348
42.237851
41.800535
41.407856
41.053988
40.734587
40.446075
40.184594
39.947141
39.731687
39.535891
39.357902
39.196465
39.050448
38.918517
38.800358
38.696617
38.607208
38.533327
38.477533
38.441239
38.436447
38.458968
38.520384
38.642072
38.867487
39.243729
39.760047
40.793034
42.263421
45.421121
49.743678
56.657993
68.728209
98.220556
248.2995
1175.6808
58.562656
55.584582
53.167355
51.19147
49.546097
48.156899
46.972119
45.952856
45.069206
44.297596
43.619879
43.02162
42.49116
42.018777
41.596854
41.218734
40.87862
40.572304
40.296101
40.04605
39.819382
39.614029
39.427671
39.258434
39.105282
38.967063
38.842347
38.731116
38.634024
38.551005
38.483551
38.435246
38.402902
38.410153
38.437927
38.511871
38.648221
38.872826
39.232832
39.898026
40.85951
42.416766
45.682799
50.322309
57.755717
70.442858
101.73785
261.56871
1187.8098
58.452231
55.334894
52.844486
50.835078
49.179882
47.794408
46.620765
45.616697
44.75023
43.996725
43.337489
42.757627
42.245052
41.789879
41.384345
41.021655
40.69613
40.403566
40.140171
39.902047
39.686706
39.491882
39.315345
39.155263
39.010769
38.88058
38.763266
38.659275
38.569265
38.493294
38.432674
38.3914
38.367271
38.379374
38.421731
38.501054
38.646567
38.923505
39.351556
40.028102
41.033238
43.104227
45.63356
50.830847
58.747944
71.716998
103.87426
261.31089
1200.3944
58.327284
55.055144
52.490422
50.451425
48.79034
47.412237
46.253101
45.267171
44.420313
43.686942
43.047706
42.4874
41.993534
41.556234
41.167602
40.820829
40.510284
40.231932
39.981659
39.755786
39.551953
39.367905
39.201347
39.050497
38.914801
38.792699
38.683005
38.586593
38.503657
38.434584
38.380547
38.347484
38.331884
38.351021
38.401112
38.496215
38.680665
38.921546
39.336481
40.027642
41.119975
42.962915
46.219486
51.81605
59.533042
73.597632
106.41755
275.72332
1213.1814
58.187475
54.75643
52.11668
50.049124
48.385259
47.017856
45.876179
44.910934
44.085729
43.374135
42.756129
42.216093
41.741478
41.322338
40.950717
40.620033
40.324677
40.060605
39.823461
39.609885
39.41759
39.244288
39.087626
38.946137
38.81929
38.705172
38.603021
38.513928
38.438138
38.37616
38.32928
38.302269
38.299745
38.323953
38.381736
38.498527
38.661853
38.963782
39.538618
40.239446
41.580871
43.291941
47.410513
52.281835
61.15885
75.05759
108.35407
282.86821
1225.9017
58.031364
54.428766
51.722845
49.634652
47.973305
46.620013
45.498261
44.555215
43.752799
43.063798
42.467573
41.948124
41.492883
41.091913
40.737286
40.422488
40.142267
39.892142
39.66793
39.466547
39.285565
39.122738
38.975778
38.843629
38.725391
38.618976
38.524432
38.442796
38.373823
38.318645
38.279179
38.258304
38.267184
38.297144
38.370488
38.487174
38.725068
39.060264
39.506278
40.278603
41.47872
43.777281
47.338316
53.026405
61.875226
77.372124
113.78964
297.98023
1238.4729
57.861858
54.085319
51.314412
49.212556
47.559744
46.224351
45.124746
44.204994
43.426196
42.760251
42.185969
41.687133
41.251034
40.867994
40.530084
40.230875
39.965399
39.728753
39.517051
39.327486
39.15752
39.004838
38.86725
38.743955
38.633811
38.535057
38.447946
38.373545
38.31161
38.263034
38.230405
38.217727
38.234048
38.276008
38.352339
38.504463
38.693954
39.06843
39.745579
40.601773
41.854886
44.584252
47.53154
54.140242
63.863977
80.096315
117.06205
314.16947
1250.9636
57.674224
53.725145
50.896973
48.787658
47.148716
45.835232
44.759847
43.86457
43.109787
42.466847
41.914337
41.435744
41.018342
40.652793
40.33109
40.047005
39.79556
39.57185
39.372235
39.193915
39.034405
38.891364
38.762736
38.647963
38.54563
38.454296
38.374346
38.306568
38.251294
38.209594
38.183657
38.17985
38.201848
38.252436
38.346726
38.488729
38.823522
39.303676
39.766274
40.54407
42.318052
44.459683
48.574596
55.417686
65.27339
82.328896
123.0852
336.57904
1263.5838
57.480457
53.356093
50.478472
48.368789
46.74779
45.45834
44.407984
43.537397
42.806555
42.186153
41.654749
41.195702
40.796568
40.447781
40.141609
39.87195
39.633903
39.422422
39.234188
39.066587
38.916933
38.782851
38.662934
38.556261
38.461001
38.376581
38.303655
38.242492
38.193304
38.157657
38.138269
38.143927
38.172423
38.233685
38.336368
38.529771
38.760406
39.282749
39.932825
41.058634
42.414272
44.673513
50.077874
56.705045
68.649186
86.230752
127.73563
354.16826
1276.8205
57.258325
52.969081
50.057717
47.956072
46.357187
45.094281
44.070463
43.225053
42.517838
41.919511
41.408556
40.968227
40.586561
40.253668
39.962296
39.706259
39.480772
39.280768
39.10328
38.945693
38.805341
38.679619
38.567989
38.468798
38.379998
38.302185
38.235971
38.180587
38.137311
38.108182
38.095888
38.108721
38.144435
38.215848
38.329181
38.507104
38.980635
39.584266
40.062163
41.072341
42.514163
45.890912
50.044435
57.723372
70.472478
89.819599
137.77465
383.10207
1291.2482
57.062209
52.612067
49.660055
47.565465
45.988761
44.751972
43.753946
42.932701
42.2478
41.670129
41.178278
40.75555
40.3901
40.072107
39.794414
39.551023
39.337086
39.147667
38.980164
38.831744
38.699877
38.582085
38.478044
38.385406
38.302845
38.231195
38.170862
38.121676
38.083868
38.059815
38.054411
38.074092
38.120001
38.19593
38.326777
38.568713
38.937301
39.616436
40.427084
41.317032
43.010539
46.501539
50.394894
59.11391
73.070344
95.428542
140.17472
402.72901
1307.4844
56.694611
52.1323
49.217452
47.158784
45.615561
44.410692
43.441742
42.646665
41.98528
41.42885
40.956005
40.550923
40.201397
39.897884
39.633444
39.402171
39.199265
39.020022
38.862014
38.722303
38.598445
38.488206
38.391137
38.304802
38.228257
38.162566
38.107168
38.063712
38.031985
38.012662
38.015741
38.041576
38.094763
38.185461
38.319192
38.557028
38.998409
40.060256
40.881826
41.922491
43.396215
46.505018
51.549665
61.926724
75.21898
102.19747
149.07725
425.02275
1326.2111
56.777637
51.975982
48.959361
46.884742
45.347192
44.155023
43.201138
42.421398
41.774881
41.232585
40.773112
40.380573
40.04278
39.750087
39.495716
39.273806
39.079521
38.908336
38.757982
38.625088
38.507782
38.403812
38.312039
38.230993
38.159818
38.099167
38.048145
38.008631
37.981399
37.967333
37.976228
38.008068
38.065012
38.164596
38.328378
38.554077
39.47657
40.830128
40.915491
41.810935
44.025481
47.060504
51.917449
61.547066
77.853049
104.36037
155.08714
433.73329
1348.7783
1371.6053
465.70827
155.26387
113.49597
81.004227
64.073587
54.278029
48.583357
44.441989
42.254595
41.748071
42.342264
39.457759
38.689393
38.356541
38.155134
38.048384
37.980056
37.940813
37.923854
37.930046
37.951275
37.985192
38.03024
38.084183
38.149083
38.223811
38.308622
38.404667
38.513978
38.637584
38.777863
38.938
39.120195
39.328785
39.568451
39.844424
40.163585
40.535233
40.970784
41.485941
42.10087
42.843578
43.753282
44.891465
46.361663
48.349387
51.251946
55.903081
1402.6179
467.2155
159.38889
130.91592
83.695769
68.539531
57.581017
49.65499
45.590361
43.84314
43.769284
43.205928
39.450563
38.706633
38.346862
38.169202
38.036219
37.954972
37.90788
37.882569
37.879977
37.894502
37.923128
37.962033
38.009989
38.068465
38.136635
38.214563
38.302868
38.403573
38.517907
38.648223
38.797136
38.967254
39.162608
39.387277
39.646385
39.946775
40.297351
40.708966
41.196769
41.77993
42.485403
43.350806
44.43462
45.836587
47.735603
50.513786
54.977496
1434.0831
528.38196
172.48453
146.73109
87.731799
73.266905
57.823275
51.695324
45.616155
43.839696
44.164213
44.223533
39.788857
38.722423
38.362443
38.165237
38.019751
37.932454
37.875697
37.839567
37.830089
37.839218
37.862671
37.895311
37.938008
37.989935
38.051682
38.122616
38.203542
38.296138
38.401965
38.522649
38.661041
38.819779
39.002557
39.212803
39.456058
39.738753
40.069459
40.458575
40.920497
41.473889
42.144421
42.968292
44.001349
45.33968
47.155767
49.815611
54.101632
1465.6311
531.73475
193.14672
145.73941
88.701949
73.224619
57.661909
51.515228
45.691118
43.835606
44.154535
44.740231
40.650509
38.766367
38.435322
38.165687
38.011442
37.903624
37.840635
37.7994
37.78355
37.786417
37.804388
37.830171
37.867058
37.913207
37.968493
38.032934
38.107482
38.19305
38.289749
38.401187
38.529667
38.677773
38.848372
39.04508
39.273525
39.539515
39.851489
40.219495
40.657295
41.182913
41.820941
42.60611
43.592083
44.872026
46.612444
49.162387
53.286786
1496.9821
518.42507
200.70613
140.2676
88.914187
74.765585
58.028199
51.746115
47.327131
44.583581
44.121466
46.136042
41.488511
39.018635
38.482763
38.203926
38.005018
37.892375
37.813628
37.762743
37.737819
37.734887
37.745398
37.765187
37.797564
37.83824
37.8882
37.946198
38.014028
38.092305
38.180846
38.283838
38.402835
38.540782
38.699784
38.883988
39.098482
39.348721
39.643099
39.991264
40.406575
40.906281
41.514083
42.263264
43.205601
44.431724
46.101346
48.549952
52.52931
1528.8354
502.12768
198.792
140.59283
88.680303
81.331075
59.651139
54.650214
50.120769
46.404896
44.944834
47.442451
41.344613
39.053611
38.481035
38.210207
38.001301
37.871263
37.778625
37.722024
37.689047
37.681772
37.685694
37.701599
37.730019
37.764421
37.809005
37.86094
37.922448
37.99399
38.075165
38.170258
38.280664
38.408417
38.556688
38.729182
38.930453
39.165905
39.443758
39.773441
40.1676
40.643129
41.222636
41.938314
42.840324
44.016262
45.619546
47.976165
51.821913
88.787547
83.044117
61.906529
60.065326
50.107
46.56503
46.005759
47.718366
41.278109
39.05707
38.473762
38.184803
37.978172
37.833797
37.7456
37.681969
37.645077
37.63334
37.631627
37.642502
37.664776
37.693681
37.731468
37.777713
37.834428
37.899392
37.97295
38.060272
38.162216
38.28085
38.418887
38.580254
38.768985
38.990546
39.252889
39.565253
39.939645
40.392562
40.945714
41.63023
42.494943
43.62432
45.167024
47.436054
51.161721
41.47135
39.300701
38.66514
38.245209
38.001041
37.842869
37.73129
37.655223
37.608745
37.587279
37.57731
37.582742
37.59919
37.623825
37.657146
37.697471
37.747476
37.808514
37.87356
37.953455
38.04737
38.157374
38.285934
38.436683
38.613626
38.822103
39.069958
39.366021
39.721982
40.15383
40.682492
41.337886
42.168045
43.254348
44.741846
46.93147
50.547714
37.516987
37.519839
37.532405
37.552967
37.582619
37.617998
37.662561
37.717878
37.776536
37.849699
37.936525
38.037586
38.15741
38.298079
38.464106
38.66032
38.894498
39.175246
39.514001
39.926172
40.431939
41.060214
41.858172
42.904798
44.341269
46.457229
49.974171
38.033396
38.164385
38.320092
38.504852
38.726159
38.992547
39.31515
39.708895
40.193199
40.796163
41.564214
42.573948
43.962581
46.009476
49.437527
)
;

boundaryField
{
    Side
    {
        type            empty;
    }
    Inlet
    {
        type            fixedValue;
        value           uniform 60.24606;
    }
    Airfoil
    {
        type            omegaWallFunction;
        blending        binomial;
        n               2;
        value           nonuniform List<scalar> 
26
(
1129.9855
1130.7565
1133.6882
1138.774
1145.7655
1154.3632
1164.413
1175.6808
1187.8098
1200.3944
1213.1814
1225.9017
1238.4729
1250.9636
1263.5838
1276.8205
1291.2482
1307.4844
1326.2111
1348.7783
1371.6053
1402.6179
1434.0831
1465.6311
1496.9821
1528.8354
)
;
    }
    Outlet
    {
        type            inletOutlet;
        inletValue      nonuniform List<scalar> 0();
        value           nonuniform List<scalar> 0();
    }
    procBoundary0to1
    {
        type            processor;
        value           nonuniform List<scalar> 
53
(
1562.5776
505.71985
199.65936
149.61536
149.61536
93.18968
88.747972
63.844438
61.068867
49.477829
46.060241
46.084032
48.042103
48.042103
42.64701
39.889625
38.82344
38.370457
38.018422
37.826602
37.698852
37.610096
37.558433
37.528971
37.528971
37.466719
37.462793
37.469817
37.485715
37.508414
37.539738
37.580349
37.628968
37.682424
37.749076
37.828694
37.922561
37.922561
37.913412
38.035434
38.181228
38.355255
38.564373
38.817418
39.124981
39.501413
39.965541
40.544925
41.285156
42.260596
43.60456
45.587914
48.93417
)
;
    }
    procBoundary0to7
    {
        type            processor;
        value           nonuniform List<scalar> 
50
(
39.739031
39.546124
39.370627
39.211234
39.067458
38.939114
38.825845
38.728082
38.646248
38.589375
38.540844
38.545729
38.578334
38.661882
38.823548
39.105382
39.581142
40.379782
41.742527
44.173645
48.22347
54.67963
66.081825
94.928902
240.59868
1130.7449
58.961632
56.525956
54.430323
52.630746
51.068722
49.701608
48.498333
47.435243
46.492131
45.652063
44.901089
44.227558
43.621949
43.076047
42.582827
42.136395
41.731424
41.363197
41.028126
40.722904
40.444519
40.190474
39.958271
39.958271
)
;
    }
}


// ************************************************************************* //
