/*--------------------------------*- C++ -*----------------------------------*\
| =========                 |                                                 |
| \\      /  F ield         | OpenFOAM: The Open Source CFD Toolbox           |
|  \\    /   O peration     | Version:  2506                                  |
|   \\  /    A nd           | Website:  www.openfoam.com                      |
|    \\/     M anipulation  |                                                 |
\*---------------------------------------------------------------------------*/
FoamFile
{
    version     2.0;
    format      ascii;
    arch        "LSB;label=32;scalar=64";
    class       volScalarField;
    location    "0.85";
    object      omega;
}
// * * * * * * * * * * * * * * * * * * * * * * * * * * * * * * * * * * * * * //

dimensions      [0 0 -1 0 0 0 0];

internalField   nonuniform List<scalar> 
1375
(
42.699169
45.550586
40.891424
42.452509
45.271913
39.676805
40.685635
42.217819
45.009259
38.803001
39.499802
40.489259
41.994743
44.760092
38.141886
38.647898
39.330226
40.301662
41.782155
44.522762
37.629898
38.004024
38.49882
39.16771
40.122408
41.579486
44.296816
37.225524
37.505802
37.871189
38.355525
39.011953
39.951071
41.386188
44.082516
36.902777
37.112261
37.385736
37.742989
38.217611
38.862507
39.787098
41.201804
43.879356
36.642054
36.798129
37.002148
37.269318
37.619029
38.084664
38.718919
39.629981
41.025854
43.687419
36.429226
36.544429
36.696084
36.895057
37.156389
37.499125
37.95646
38.580913
39.479384
40.85767
43.504765
36.254084
36.337419
36.448974
36.596563
36.790876
37.046804
37.383111
37.832791
38.448211
39.334971
40.696714
43.330344
36.108623
36.166829
36.247129
36.355358
36.499229
36.68926
36.940205
37.270617
37.713277
38.320381
39.196276
40.542641
43.163587
36.024686
36.080501
36.158044
36.263259
36.403753
36.589877
36.836258
37.161298
37.597557
38.197031
39.062875
40.395105
43.004508
35.905352
35.941379
35.995031
36.070096
36.17259
36.310029
36.492602
36.734828
37.054997
37.48544
38.077939
38.934508
40.253621
42.853281
35.803756
35.824406
35.858603
35.910305
35.983172
36.083218
36.217909
36.397278
36.635747
36.951526
37.376699
37.962845
38.810887
40.117935
42.709939
35.715649
35.724154
35.743499
35.776079
35.826044
35.896994
35.994866
36.127105
36.303615
36.538724
36.850586
37.271021
37.851408
38.691658
39.987684
42.573242
35.646462
35.638226
35.636626
35.644057
35.662297
35.69348
35.74193
35.811248
35.907226
36.03731
36.211314
36.443465
36.751876
37.168106
37.743317
38.576518
39.862556
42.443936
35.583908
35.568143
35.558881
35.556562
35.563065
35.580379
35.610396
35.657555
35.725507
35.819868
35.948092
36.119937
36.349528
36.654932
37.067465
37.638051
38.464908
39.741848
42.316909
35.524323
35.504095
35.487907
35.477748
35.474979
35.48075
35.497333
35.526471
35.572616
35.639517
35.732593
35.859314
36.029414
36.256917
36.559833
36.969276
37.535924
38.357351
39.626536
42.20666
35.504331
35.470587
35.441971
35.421165
35.40464
35.393681
35.39055
35.395677
35.411542
35.439952
35.485215
35.551215
35.643177
35.768586
35.937165
36.162839
36.463541
36.870186
37.433168
38.24943
39.510611
42.067822
254.72666
269.70773
286.147
303.86864
322.76116
342.99093
364.68724
387.85132
412.57595
438.95826
466.86818
496.14513
527.13725
561.14285
599.95272
644.14961
691.97642
741.46998
793.64195
852.65491
922.20057
1003.1565
1094.909
252.39052
267.57266
284.42242
302.49835
321.79815
342.63885
364.9339
388.48807
413.31439
438.8853
463.89338
488.12236
514.24762
546.06609
582.97304
619.32601
652.71147
686.77781
727.29191
774.09089
819.57128
861.31084
903.75259
221.73163
232.73809
244.83133
257.15301
269.76366
283.25194
297.35068
311.40079
324.90994
337.05653
346.89591
354.88929
363.97596
377.8566
393.64388
404.59028
410.96361
417.29747
428.65671
443.13577
452.60984
456.88446
459.26281
169.74901
175.02485
180.51234
185.54445
190.40928
195.78725
201.41752
206.45338
210.41065
213.12318
214.65208
215.48683
216.68729
220.0164
223.61016
224.82565
224.75725
224.36359
225.39774
229.23413
232.01077
233.28369
233.98259
124.55179
126.86361
129.06187
130.91517
132.83196
135.4312
138.46768
140.94336
142.38725
143.00177
143.17726
143.21311
143.43192
144.63091
145.81318
146.10563
145.8267
145.44546
145.54053
147.27107
149.8455
151.98435
153.40772
95.610097
96.971912
98.14333
99.124762
100.32859
102.33447
104.85287
106.75228
107.58972
107.76019
107.64218
107.44973
107.48714
108.29199
109.34132
109.75881
109.79022
109.69835
109.72711
110.70011
112.74317
114.60004
115.61973
77.66936
78.666226
79.466637
80.15259
81.10861
82.843233
85.016193
86.549693
87.115095
87.161496
86.752857
86.404109
86.377296
87.043979
88.418031
89.347016
89.671507
89.719141
89.694465
89.787893
90.580061
91.601254
92.106568
65.747998
66.518845
67.125323
67.665638
68.469684
69.915714
71.634261
72.765777
73.123234
73.097298
72.568001
72.198946
72.157955
72.760854
74.372873
75.794289
76.478599
76.634179
76.469243
76.008085
75.809576
75.796427
75.838591
57.256747
57.848799
58.326829
58.780281
59.464925
60.596845
61.817573
62.553208
62.757736
62.683907
62.206845
61.92002
61.890503
62.40332
63.912474
65.484385
66.479837
66.849574
66.867621
66.388296
65.766716
65.422649
65.258904
65.136662
50.943079
51.391683
51.777905
52.175495
52.75831
53.596754
54.389604
54.820199
54.926841
54.843536
54.508238
54.333734
54.322276
54.705555
55.786473
57.031354
58.085356
58.775217
59.051525
59.080618
58.876085
58.630716
58.518149
58.453668
46.159074
46.501905
46.82323
47.181137
47.674313
48.28104
48.782524
49.031236
49.088764
49.033673
48.852425
48.775225
48.784656
49.07487
49.706354
50.424013
51.180285
51.96136
52.629329
53.052388
53.240701
53.312317
53.362364
53.390157
42.794727
43.072018
43.39615
43.811278
44.262814
44.608927
44.782963
44.830021
44.822698
44.767182
44.750408
44.805391
45.049381
45.403581
45.773611
46.197689
46.743274
47.357663
47.883794
48.238917
48.472004
48.679871
48.902023
39.998258
40.24701
40.539314
40.88934
41.246393
41.525518
41.692661
41.772022
41.8045
41.823614
41.865666
41.979759
42.164591
42.378516
42.596753
42.845482
43.167009
43.538223
43.880299
44.160295
44.413644
44.699153
45.024721
37.900919
38.131861
38.396116
38.696073
38.995493
39.244423
39.422989
39.543116
39.628366
39.704522
39.795825
39.91769
40.065149
40.225938
40.392606
40.571862
40.772865
40.975681
41.153235
41.312672
41.487718
41.723683
42.023176
36.335501
36.556108
36.797583
37.059795
37.320838
37.551906
37.740463
37.891675
38.017702
38.133046
38.250541
38.377347
38.513134
38.656482
38.804798
38.957402
39.113613
39.257192
39.375075
39.483024
39.620061
39.824263
40.072868
35.170348
35.386124
35.610626
35.844109
36.075673
36.28979
36.478187
36.642769
36.790905
36.932133
37.073995
37.219615
37.367769
37.51749
37.665214
37.804506
37.9345
38.053448
38.160182
38.263493
38.379211
38.524466
38.697932
38.857617
34.301701
34.516391
34.729716
34.942737
35.152063
35.351235
35.535246
35.703691
35.861295
36.016304
36.174652
36.335849
36.494815
36.649762
36.800143
36.939997
37.065996
37.180613
37.289759
37.401906
37.520339
37.636629
37.749374
37.857445
33.647896
33.863812
34.072909
34.276276
34.473592
34.663373
34.844052
35.014739
35.177243
35.336631
35.497281
35.65888
35.817111
35.969834
36.117519
36.257214
36.384464
36.502134
36.617337
36.73438
36.853341
36.965508
37.060505
37.143995
33.150561
33.36764
33.577411
33.780246
33.975347
34.162066
34.340875
34.512052
34.676079
34.835104
34.992266
35.148884
35.302759
35.450493
35.590456
35.722834
35.847835
35.967409
36.084981
36.202044
36.316178
36.42302
36.520278
36.608185
36.683662
32.774958
32.991309
33.201472
33.40531
33.601225
33.788044
33.966511
34.137883
34.302482
34.460895
34.614896
34.766416
34.915701
35.059784
35.194223
35.318995
35.437348
35.55489
35.674286
35.791223
35.90097
36.001351
36.098491
36.193385
36.281204
32.499589
32.713964
32.92233
33.124694
33.319994
33.507198
33.686401
33.858378
34.023141
34.181353
34.334596
34.484041
34.629522
34.769269
34.900677
35.02302
35.139242
35.254215
35.369987
35.483634
35.589883
35.687568
35.782227
35.876698
35.969224
32.302992
32.51538
32.721311
32.920854
33.11375
33.299542
33.477932
33.649149
33.813559
33.972473
34.127233
34.277491
34.421748
34.558485
34.687475
34.808714
34.924324
35.036645
35.147512
35.256614
35.360934
35.459563
35.553093
35.643959
35.734759
35.823561
32.164166
32.37461
32.578176
32.77494
32.965128
33.148589
33.324996
33.494475
33.65791
33.81679
33.972147
34.122834
34.265684
34.399082
34.524767
34.645321
34.762501
34.876313
34.986366
35.092142
35.193881
35.292657
35.387644
35.480019
35.569977
35.654647
32.066147
32.274289
32.475646
32.670308
32.858577
33.040388
33.215412
33.383604
33.545843
33.703569
33.857248
34.005692
34.146456
34.278445
34.403679
34.524877
34.642953
34.757245
34.866642
34.971356
35.072667
35.171135
35.267402
35.360471
35.44805
35.528536
31.99652
32.202227
32.401348
32.594153
32.780797
32.961091
33.13476
33.301792
33.462802
33.618843
33.770472
33.917014
34.057041
34.189765
34.315928
34.437167
34.554653
34.668309
34.777616
34.88232
34.983933
35.082312
35.177306
35.268388
35.35417
35.434249
35.511235
32.150054
32.347204
32.538118
32.722782
32.901128
33.073282
33.239327
33.39962
33.554672
33.70484
33.849695
33.988347
34.12051
34.246951
34.36893
34.487206
34.601106
34.710266
34.815271
34.916341
35.013682
35.107537
35.197691
35.283346
35.365079
35.444114
32.111113
32.30653
32.49575
32.678813
32.855773
33.026831
33.192083
33.351642
33.505689
33.654497
33.797898
33.935582
34.067252
34.193169
34.31464
34.432633
34.547055
34.657238
34.762752
34.863773
34.960652
35.054059
35.144011
35.230154
35.312059
35.391332
35.467361
32.081544
32.275824
32.463871
32.645707
32.821329
32.990923
33.154833
33.313251
33.466194
33.613664
33.755619
33.892137
34.023149
34.149019
34.270649
34.388407
34.502249
34.612091
34.717577
34.818597
34.915449
35.008936
35.098892
35.185189
35.268095
35.347734
35.424304
32.059371
32.252237
32.438907
32.619424
32.793796
32.96219
33.124844
33.281847
33.433368
33.579586
33.720711
33.85689
33.988077
34.114266
34.235663
34.352756
34.465891
34.575337
34.680751
34.781926
34.87894
34.97206
35.061887
35.148387
35.231894
35.312378
35.389773
32.043605
32.235106
32.420499
32.599727
32.772802
32.939943
33.101405
33.257326
33.407836
33.552932
33.693051
33.828546
33.959552
34.085834
34.207469
34.324423
34.437084
34.546009
34.650964
34.751813
34.84876
34.94208
35.032079
35.118997
35.202692
35.283315
35.360919
32.033382
32.223223
32.406728
32.5841
32.755681
32.921735
33.082441
33.237776
33.387687
33.532239
33.671721
33.806446
33.936619
34.062426
34.18381
34.300856
34.41367
34.52232
34.626883
34.727516
34.824507
34.918152
35.008615
35.096001
35.180288
35.261508
35.339724
32.216231
32.39827
32.574517
32.745145
32.910317
33.070073
33.224429
33.37351
33.51748
33.656554
33.790863
33.920374
34.04539
34.166125
34.282754
34.39555
34.504437
34.60927
34.710116
34.807198
34.900791
34.991184
35.07854
35.162967
35.244457
35.323025
32.215854
32.39628
32.570986
32.740089
32.903776
33.062108
33.215227
33.363301
33.506516
33.644975
33.778717
33.907793
34.032329
34.152648
34.268992
34.381528
34.490292
34.595223
34.696326
34.793767
34.887772
34.978542
35.066231
35.150922
35.2327
35.311677
32.221953
32.40076
32.573875
32.741487
32.903815
33.061006
33.213172
33.360367
33.50269
33.640309
33.773441
33.902211
34.026731
34.147114
34.263396
34.375694
34.484195
34.589001
34.690231
34.787996
34.882419
34.973607
35.061688
35.146766
35.228944
35.308345
32.412471
32.584047
32.750229
32.911252
33.067306
33.218506
33.364896
33.506493
33.643367
33.77572
33.903798
34.027847
34.148002
34.2643
34.376708
34.48529
34.590161
34.691489
34.789467
34.884241
34.975905
35.064536
35.150202
35.232996
35.313036
32.433878
32.604134
32.769065
32.928811
33.083603
33.233634
33.379043
33.519926
33.656334
33.788363
33.91615
34.039837
34.159573
34.275479
34.387651
34.496191
34.60122
34.70284
34.801189
34.896383
34.988522
35.077701
35.164007
35.247525
35.328353
32.466831
32.635634
32.799327
32.957984
33.111738
33.260773
33.405288
33.545434
33.681293
33.812913
33.94035
34.063713
34.183156
34.298847
34.410945
34.519571
34.624827
34.726791
34.825549
34.921196
35.013831
35.103557
35.190472
35.274665
35.356242
32.681666
32.843867
33.001315
33.154067
33.302235
33.445961
33.585379
33.720611
33.851764
33.978933
34.102208
34.22169
34.337504
34.449774
34.558618
34.664154
34.766481
34.865693
34.961889
35.055156
35.145592
35.233287
35.318334
35.400834
32.746311
32.907159
33.06337
33.215014
33.362192
33.505047
33.643739
33.778426
33.909226
34.03621
34.159442
34.27901
34.395016
34.507577
34.616808
34.722818
34.825706
34.925571
35.022504
35.11659
35.207912
35.296547
35.38258
35.46611
32.993526
33.148546
33.299194
33.445553
33.587745
33.725905
33.860171
33.990664
34.117483
34.240713
34.360437
34.476736
34.589702
34.699435
34.806031
34.909594
35.010222
35.108005
35.203032
35.295381
35.385129
35.472351
35.557136
33.263368
33.413103
33.558761
33.70044
33.838227
33.972231
34.102578
34.229382
34.352748
34.47277
34.589512
34.703052
34.81347
34.920855
35.0253
35.126902
35.22575
35.321925
35.4155
35.506554
35.595163
35.681417
33.416274
33.565198
33.71026
33.851554
33.989162
34.123153
34.253614
34.380646
34.504352
34.624839
34.7422
34.85652
34.967871
35.076324
35.181952
35.284832
35.385042
35.482656
35.577752
35.6704
35.760673
35.848657
33.76653
33.911305
34.052508
34.190234
34.324579
34.455604
34.583361
34.707921
34.829367
34.94779
35.063281
35.17592
35.285779
35.392935
35.497449
35.599383
35.698799
35.795765
35.890348
35.982623
36.072683
34.178686
34.320145
34.458315
34.593286
34.725118
34.853878
34.979634
35.102457
35.222418
35.339585
35.454022
35.565793
35.674959
35.781584
35.885729
35.987454
36.086813
36.183863
36.278671
36.371315
34.682993
34.822104
34.958195
35.091336
35.221604
35.349062
35.473776
35.595813
35.715222
35.832054
35.946352
36.058156
36.167522
36.274491
36.379119
36.481458
36.581564
36.679499
36.775335
35.461932
35.597489
35.730329
35.860523
35.988132
36.113208
36.235816
36.356006
36.473807
36.589273
36.702436
36.813316
36.921955
37.028382
37.132642
37.234778
37.33483
36.331898
36.469129
36.603904
36.736241
36.866163
36.993705
37.118913
37.241824
37.362471
37.480877
37.59707
37.711094
37.822982
37.932767
38.040505
38.146231
37.751408
37.890939
38.028408
38.163784
38.297031
38.428159
38.557089
38.683744
38.808294
38.930831
39.051292
39.169632
39.286
39.400194
40.551517
40.687839
40.823311
40.957822
41.090603
41.220487
41.348668
41.475182
41.600136
41.722843
41.842694
41.95986
)
;

boundaryField
{
    Side
    {
        type            empty;
    }
    Inlet
    {
        type            fixedValue;
        value           uniform 60.24606;
    }
    Airfoil
    {
        type            omegaWallFunction;
        blending        binomial;
        n               2;
        value           nonuniform List<scalar> 0();
    }
    Outlet
    {
        type            inletOutlet;
        inletValue      nonuniform List<scalar> 0();
        value           nonuniform List<scalar> 0();
    }
    procBoundary2to1
    {
        type            processor;
        value           nonuniform List<scalar> 
75
(
42.958486
45.846328
41.107226
41.107226
39.861819
39.861819
38.964465
38.964465
38.284972
38.284972
37.758392
37.758392
37.3423
37.3423
37.010125
37.010125
36.741907
36.741907
36.522869
36.522869
36.342581
36.342581
36.193245
36.193245
36.068329
35.986626
35.986626
35.88321
35.88321
35.794016
35.794016
35.723503
35.716275
35.716275
35.661508
35.661508
35.603817
35.603817
35.584894
35.552151
35.552151
35.546832
35.546832
1198.0062
953.19877
462.58302
234.3244
153.83885
115.8059
92.143482
75.725879
75.725879
65.086981
58.423795
53.39251
49.13927
45.367934
42.332984
40.299678
40.299678
38.98005
37.951423
37.220915
37.220915
36.749561
36.360469
36.057035
36.057035
35.902838
35.731913
35.604189
35.604189
35.586244
35.519883
35.519883
)
;
    }
    procBoundary2to3
    {
        type            processor;
        value           nonuniform List<scalar> 
65
(
238.74888
212.0608
165.18965
122.53854
94.346327
76.687372
64.971391
56.663159
50.500605
45.825349
42.520404
42.520404
39.762125
37.682267
36.121954
34.954861
34.080993
33.422583
32.924343
32.550972
32.278306
32.083892
31.94713
31.851481
31.78418
31.946481
31.946481
31.909253
31.880962
31.860185
31.845879
31.837175
32.02818
32.02818
32.029513
32.037351
32.235259
32.235259
32.258197
32.292895
32.514614
32.514614
32.580731
32.834021
32.834021
33.10944
33.10944
33.263331
33.618079
33.618079
34.033842
34.033842
34.540774
34.540774
35.182412
35.323598
35.323598
36.192158
36.192158
37.46553
37.609527
37.609527
40.27419
40.413316
40.413316
)
;
    }
    procBoundary2to9
    {
        type            processor;
        value           nonuniform List<scalar> 
23
(
254.53087
269.37973
285.78136
303.35514
321.85803
341.72509
363.4862
387.06652
411.99663
438.00525
465.13258
493.81796
525.14897
560.36875
599.68899
642.34434
688.42677
739.522
796.44412
858.22282
924.64051
998.97052
1086.4186
)
;
    }
    procBoundary2to10
    {
        type            processor;
        value           uniform 240.97377;
    }
}


// ************************************************************************* //
