/*--------------------------------*- C++ -*----------------------------------*\
| =========                 |                                                 |
| \\      /  F ield         | OpenFOAM: The Open Source CFD Toolbox           |
|  \\    /   O peration     | Version:  2506                                  |
|   \\  /    A nd           | Website:  www.openfoam.com                      |
|    \\/     M anipulation  |                                                 |
\*---------------------------------------------------------------------------*/
FoamFile
{
    version     2.0;
    format      ascii;
    arch        "LSB;label=32;scalar=64";
    class       surfaceScalarField;
    location    "0.03";
    object      phi;
}
// * * * * * * * * * * * * * * * * * * * * * * * * * * * * * * * * * * * * * //

dimensions      [1 0 -1 0 0 0 0];

oriented        oriented;

internalField   nonuniform List<scalar> 
27059
(
-57.580744
-57.572561
-57.564349
-57.556108
-57.547838
-57.53954
-57.531212
-57.522856
0.0043340785
-53.100371
-57.514475
0.0043639663
-53.093545
-57.506067
0.0043922954
-53.0867
-57.497634
0.0044202743
-53.079837
-57.489178
0.0044473072
-53.072957
-57.480699
0.0044734016
-53.066061
-57.472197
0.0044985368
-53.059148
-57.463674
0.0045256721
-53.052217
-57.455129
0.0087520562
-48.870355
0.0045524578
-53.04527
-57.446561
0.0087960461
-48.863469
0.0045770909
-53.038307
-57.437971
0.0088394197
-48.856565
0.0046026015
-53.031329
-57.429361
0.0088803873
-48.849643
0.0046253727
-53.024335
-57.420732
0.0089195555
-48.842705
0.004649024
-53.017329
-57.412083
0.0089575369
-48.835751
0.0046705501
-53.010309
-57.403416
0.0089931367
-48.828782
0.0046917612
-53.003278
-57.394733
0.012787259
-45.061704
0.0090287647
-48.821799
0.0047120632
-52.996235
-57.386034
0.012833049
-45.055781
0.0090614182
-48.814802
0.0047314495
-52.989181
-57.377319
0.012882403
-45.049849
0.009096986
-48.80779
0.0047522789
-52.982116
-57.368588
0.012931558
-45.043906
0.0091325242
-48.800764
0.0047733759
-52.97504
-57.359839
0.012978694
-45.037955
0.0091662893
-48.793723
0.0047929533
-52.967952
-57.351075
0.013023693
-45.031994
0.00919948
-48.786669
0.0048122243
-52.960854
0.013066764
-45.026026
0.0092303124
-48.779602
-52.953746
0.013107658
-45.02005
0.0092599869
-48.772523
-52.946629
0.01661221
-41.489766
0.013146639
-45.014067
0.0092879171
-48.765432
-52.939505
0.016645663
-41.484467
0.013183595
-45.008078
0.0093153081
-48.758331
-52.932373
0.016676665
-41.479159
0.013218591
-45.002084
0.0093403651
-48.751219
-52.925234
0.016705161
-41.473844
0.01325158
-44.996084
0.0093648929
-48.744097
-52.918089
0.016733164
-41.468521
0.013284227
-44.990079
0.0093888648
-48.736966
-52.910938
0.016765729
-41.463189
0.013320499
-44.984069
0.0094145949
-48.729824
-52.903781
0.016796256
-41.457849
0.013355054
-44.978053
0.0094403857
-48.722673
0.016824158
-41.452502
0.013387596
-44.972033
-48.715512
0.022911956
-38.24532
0.016849462
-41.447148
0.013418204
-44.966008
-48.708342
0.02292468
-38.24028
0.016872284
-41.441788
0.013446697
-44.959979
-48.701163
0.022934132
-38.235237
0.016892522
-41.436422
0.013473272
-44.953948
-48.693979
0.022940627
-38.230191
0.016910251
-41.431051
0.013497812
-44.947913
-48.686787
0.02294399
-38.225144
0.016925472
-41.425675
0.013520385
-44.941876
-48.679589
0.022944179
-38.220095
0.016938199
-41.420296
0.013540999
-44.935837
-48.672386
0.022941321
-38.215045
0.016948378
-41.414913
0.013559722
-44.929798
-48.665178
0.034579025
-35.188465
0.022938971
-38.209993
0.016959146
-41.409527
0.013578686
-44.923756
0.034575324
-35.18393
0.022942038
-38.20494
0.016974324
-41.404136
-44.917713
0.03456832
-35.179401
0.022942353
-38.199886
0.016987367
-41.398742
-44.911667
0.034557604
-35.174877
0.022939563
-38.19483
0.016997923
-41.393345
-44.905619
0.034543267
-35.170359
0.022933939
-38.189773
0.017006071
-41.387945
-44.899571
0.034525256
-35.165847
0.022925244
-38.184717
0.017011814
-41.382543
-44.893521
0.034503579
-35.161343
0.022913484
-38.179661
0.01701516
-41.37714
-44.887472
0.045943005
-32.431861
0.034478376
-35.156845
0.022898917
-38.174605
0.017016059
-41.371735
-44.881423
0.045924019
-32.427219
0.034449477
-35.152356
0.02288137
-38.169552
0.017014579
-41.366331
-44.875374
0.045900922
-32.422575
0.034417013
-35.147874
0.022860796
-38.1645
0.017010666
-41.360926
0.045873603
-32.417927
0.034380997
-35.143402
0.022837318
-38.15945
-41.355522
0.04584519
-32.413276
0.034344153
-35.138938
0.022813314
-38.154403
-41.350119
0.04582454
-32.408621
0.034314241
-35.134482
0.022795483
-38.149357
-41.344716
0.045800965
-32.403963
0.034281965
-35.130035
0.022775827
-38.144313
-41.339312
0.049599638
-29.881934
0.045773289
-32.399301
0.034246144
-35.125596
0.022753214
-38.139272
-41.33391
0.049602713
-29.877897
0.045741596
-32.394637
0.034206923
-35.121166
0.02272779
-38.134233
-41.328509
0.049601647
-29.873858
0.045705887
-32.389971
0.034164175
-35.116746
0.022699552
-38.129197
-41.323109
0.049596407
-29.86982
0.045666182
-32.385302
0.034118053
-35.112335
0.022668521
-38.124165
0.049586925
-29.865781
0.045622485
-32.380632
0.034068492
-35.107935
-38.119137
0.049573268
-29.861742
0.045574737
-32.375961
0.034015501
-35.103546
-38.114114
0.049555391
-29.857704
0.045523023
-32.371289
0.033959096
-35.099168
-38.109095
0.047075284
-27.556352
0.049533416
-29.853667
0.045467276
-32.366617
0.033899223
-35.094801
-38.104082
0.047049657
-27.552914
0.049507694
-29.849631
0.045408098
-32.361945
0.033836422
-35.090447
-38.099075
0.047033993
-27.549479
0.049490841
-29.845596
0.045356603
-32.357272
0.033780727
-35.086103
-38.094073
0.047019718
-27.546046
0.049474975
-29.841561
0.045305929
-32.352598
0.033725904
-35.081771
-38.089076
0.047001015
-27.542617
0.049454784
-29.837526
0.045251061
-32.347924
0.033667449
-35.07745
-38.084084
0.046977721
-27.53919
0.049430159
-29.833493
0.045192022
-32.34325
0.033605383
-35.073141
0.046949966
-27.535767
0.049401107
-29.829462
0.045128812
-32.338575
-35.068844
0.047967473
-25.408326
0.046917794
-27.532348
0.049367738
-29.825432
0.045061427
-32.333902
-35.064559
0.047900949
-25.40553
0.046881126
-27.528933
0.049330025
-29.821405
0.044989899
-32.32923
-35.060288
0.047829549
-25.402735
0.046839932
-27.525522
0.049287814
-29.81738
0.044914207
-32.324559
-35.056031
0.047753189
-25.399942
0.046794361
-27.522116
0.049241322
-29.813358
0.044834439
-32.31989
-35.051787
0.047672104
-25.39715
0.046744228
-27.518715
0.049190417
-29.80934
0.044750469
-32.315224
-35.047558
0.047586111
-25.39436
0.046689708
-27.515319
0.049135154
-29.805326
0.044662356
-32.31056
-35.043344
0.052472089
-23.421661
0.047499967
-25.391573
0.04663498
-27.511928
0.049079454
-29.801315
0.044573723
-32.305899
-35.039144
0.052385156
-23.418901
0.047426161
-25.388786
0.046591783
-27.508542
0.049034001
-29.797307
0.044494221
-32.301241
0.052294888
-23.416147
0.047349395
-25.386
0.04654577
-27.50516
0.048985814
-29.793302
-32.296584
0.052199801
-23.413398
0.047268182
-25.383216
0.046495757
-27.501782
0.048933593
-29.789301
-32.29193
0.052099911
-23.410654
0.047182646
-25.380434
0.046441629
-27.498409
0.048877283
-29.785303
-32.287279
0.051995102
-23.407915
0.047092554
-25.377653
0.046383394
-27.495041
0.048817011
-29.78131
-32.282632
0.051885499
-23.405182
0.04699815
-25.374873
0.046321167
-27.491679
0.048752774
-29.77732
-32.277989
0.055498218
-21.621677
0.051771053
-23.402455
0.046899259
-25.372095
0.046254774
-27.488322
0.048684392
-29.773335
-32.273351
0.055396666
-21.619325
0.051651658
-23.399733
0.046795953
-25.369319
0.046184345
-27.484971
0.048612058
-29.769355
-32.268718
0.055290246
-21.616971
0.051527554
-23.397017
0.046688221
-25.366545
0.046109808
-27.481627
0.04853564
-29.76538
0.055178601
-21.614614
0.051398507
-23.394306
0.046575955
-25.363773
0.046031049
-27.478289
-29.76141
0.055061914
-21.612257
0.051264587
-23.391602
0.046459339
-25.361002
0.04594825
-27.474959
-29.757446
0.054949205
-21.609898
0.05113438
-23.388904
0.046346238
-25.358234
0.045868738
-27.471635
-29.753487
0.055489684
-19.951314
0.054848578
-21.607537
0.051015551
-23.38621
0.046244146
-25.355467
0.045799404
-27.468318
-29.749532
0.055378604
-19.949325
0.054743127
-21.605174
0.050892203
-23.383521
0.046137614
-25.352701
0.045725994
-27.465008
-29.745582
0.055261991
-19.94734
0.054632298
-21.60281
0.050763664
-23.380838
0.046026579
-25.349936
0.045648328
-27.461705
-29.741636
0.055139979
-19.945358
0.054516226
-21.600445
0.050630141
-23.378161
0.045910815
-25.347174
0.045566295
-27.458409
-29.737696
0.055012572
-19.943379
0.054394849
-21.59808
0.050491641
-23.375489
0.045790511
-25.344413
0.045480076
-27.455122
0.054879638
-19.941405
0.054268164
-21.595714
0.050348039
-23.372824
0.045665418
-25.341656
-27.451844
0.05718793
-18.406512
0.054741238
-19.939435
0.054136108
-21.59335
0.050199413
-23.370165
0.045535849
-25.338901
-27.448574
0.057032042
-18.404762
0.054597438
-19.93747
0.0539988
-21.590986
0.050045757
-23.367512
0.045401561
-25.33615
-27.445314
0.056870275
-18.403015
0.054448045
-19.935509
0.053856114
-21.588623
0.049887083
-23.364867
0.045262557
-25.333402
-27.442064
0.056702749
-18.401273
0.054293181
-19.933553
0.05370799
-21.586262
0.049723271
-23.36223
0.045118899
-25.330659
-27.438823
0.056529276
-18.399534
0.054132779
-19.931602
0.053554473
-21.583904
0.049554381
-23.3596
0.04497059
-25.32792
-27.435593
0.059074445
-17.011833
0.056360245
-18.3978
0.053976649
-19.929656
0.053404981
-21.581548
0.049389329
-23.356977
0.044825879
-25.325185
-27.432372
0.058924811
-17.010377
0.056206773
-18.396069
0.053835434
-19.927715
0.053269576
-21.579194
0.049237671
-23.354361
0.044693911
-25.322454
0.058769929
-17.008921
0.056048197
-18.394342
0.053689456
-19.925777
0.053129428
-21.576842
0.049081537
-23.351752
-25.319726
0.058608929
-17.007464
0.0558839
-18.392618
0.05353816
-19.923845
0.052984044
-21.574492
0.048920565
-23.349149
-25.317002
0.058442148
-17.006006
0.0557141
-18.390899
0.053381512
-19.921917
0.052833571
-21.572146
0.048754788
-23.346553
-25.314283
0.058269233
-17.004548
0.055538511
-18.389183
0.053219475
-19.919994
0.052677727
-21.569804
0.048583991
-23.343964
-25.311568
0.059090196
-15.711817
0.058090456
-17.003089
0.05535729
-18.387472
0.053052017
-19.918076
0.052516659
-21.567466
0.048408393
-23.341382
-25.308858
0.058903411
-15.71064
0.057905544
-17.001631
0.055170293
-18.385765
0.052879241
-19.916164
0.052350342
-21.565133
0.048227916
-23.338808
-25.306153
0.058710404
-15.709463
0.057714609
-17.000172
0.054977578
-18.384062
0.052701019
-19.914258
0.052178709
-21.562804
0.04804244
-23.33624
-25.303453
0.05851137
-15.708286
0.057517594
-16.998714
0.054779154
-18.382364
0.052517299
-19.912357
0.052001705
-21.560482
0.047852036
-23.33368
0.058306047
-15.70711
0.057314413
-16.997256
0.054574948
-18.380671
0.052328189
-19.910462
0.051819435
-21.558165
-23.331127
0.059438588
-14.520367
0.058094493
-15.705934
0.057105181
-16.995799
0.054364959
-18.378982
0.052133563
-19.908573
0.05163177
-21.555855
-23.328581
0.059223168
-14.519325
0.057882335
-15.70476
0.056895137
-16.994343
0.054154354
-18.377299
0.051938453
-19.90669
0.051443421
-21.553552
-23.326043
0.059028383
-14.518282
0.057690215
-15.703585
0.056704246
-16.992887
0.053962312
-18.375619
0.051761107
-19.904812
0.051271911
-21.551255
-23.323512
0.058831068
-14.517236
0.057495614
-15.702409
0.056510854
-16.991431
0.053767967
-18.373943
0.051581648
-19.902939
0.051098213
-21.548963
-23.320987
0.058627837
-14.516189
0.057295225
-15.701234
0.056311786
-16.989975
0.053568272
-18.372271
0.051397036
-19.901071
0.050919417
-21.546679
-23.318468
0.059775586
-13.433134
0.05841874
-14.515141
0.057089162
-15.70006
0.056107031
-16.98852
0.053363279
-18.370603
0.05120751
-19.899209
0.050735875
-21.544401
0.059564697
-13.432303
0.058203782
-14.514091
0.056877434
-15.698885
0.055896665
-16.987066
0.053152936
-18.36894
0.051012893
-19.897352
-21.542131
0.059347728
-13.43147
0.057982769
-14.51304
0.056659975
-15.697711
0.055680611
-16.985613
0.052937236
-18.367281
0.050813239
-19.8955
-21.539868
0.05912461
-13.430633
0.057755944
-14.511989
0.056436717
-15.696538
0.055458812
-16.98416
0.0527163
-18.365626
0.050608479
-19.893654
-21.537613
0.059638869
-12.42658
0.058895258
-13.429795
0.057523106
-14.510936
0.056207648
-15.695366
0.055231307
-16.982709
0.052489803
-18.363977
0.050398603
-19.891813
-21.535367
0.059404577
-12.425892
0.058659802
-13.428954
0.057284255
-14.509884
0.055972841
-15.694194
0.054997987
-16.98126
0.052257945
-18.362332
0.050183557
-19.889978
-21.533128
0.059163909
-12.4252
0.058417979
-13.428111
0.057039264
-14.508832
0.0557321
-15.693024
0.054758968
-16.979812
0.05202071
-18.360692
0.049963454
-19.888149
-21.530898
0.058916709
-12.424503
0.058169887
-13.427266
0.056788292
-14.507779
0.05548559
-15.691855
0.054514039
-16.978366
0.051777901
-18.359057
0.049737968
-19.886325
-21.528677
0.058663555
-12.423802
0.057915786
-13.426419
0.056531477
-14.506728
0.05523339
-15.690688
0.054263651
-16.976921
0.051529896
-18.357428
0.049507725
-19.884508
0.059258993
-11.503249
0.05842721
-12.423097
0.057678034
-13.42557
0.056290592
-14.505676
0.054996626
-15.689521
0.054027818
-16.975479
0.051296176
-18.355804
-19.882695
0.05903242
-11.502723
0.058198689
-12.422386
0.05744793
-13.424719
0.056057093
-14.504625
0.054767037
-15.688355
0.053798924
-16.974037
0.051069074
-18.354184
-19.880887
0.05879977
-11.502191
0.057964457
-12.421671
0.057212068
-13.423865
0.055818002
-14.503573
0.054532073
-15.687189
0.053564637
-16.972597
0.050837089
-18.35257
-19.879084
0.058561221
-11.501652
0.057724193
-12.420951
0.056970316
-13.423009
0.055573441
-14.502522
0.05429186
-15.686025
0.053325021
-16.971158
0.050599972
-18.350961
-19.877285
0.059024644
-10.654256
0.058316589
-11.501107
0.05747809
-12.420227
0.056722936
-13.422151
0.055323231
-14.501472
0.054046091
-15.684861
0.053080087
-16.969721
0.050357857
-18.349357
-19.875492
0.058776832
-10.653888
0.058065786
-11.500557
0.057226065
-12.4195
0.056469718
-13.421291
0.055067413
-14.500422
0.053795068
-15.683699
0.052829822
-16.968286
0.050110792
-18.34776
-19.873703
0.058522738
-10.653512
0.057808988
-11.5
0.056968046
-12.418768
0.05621053
-13.420429
0.054805986
-14.499374
0.05353853
-15.682538
0.052574095
-16.966853
0.049858588
-18.346168
0.058262343
-10.653128
0.057545995
-11.499438
0.056704017
-12.418034
0.055945553
-13.419566
0.054538871
-14.498328
0.053276535
-15.681378
0.05231303
-16.965422
-18.344583
0.058555976
-9.8698067
0.057995635
-10.652737
0.057276791
-11.49887
0.056433971
-12.417296
0.05567465
-13.418701
0.054266005
-14.497282
0.053009078
-15.68022
0.052046435
-16.963994
-18.343005
0.058286011
-9.8695573
0.057722603
-10.652337
0.057001364
-11.498297
0.056157832
-12.416555
0.05539775
-13.417835
0.053987436
-14.496239
0.052736026
-15.679064
0.051774493
-16.962568
-18.341434
0.058009424
-9.8692995
0.057443098
-10.65193
0.056719634
-11.497719
0.055875583
-12.415812
0.055114907
-13.416968
0.053703092
-14.495198
0.052457493
-15.67791
0.051496889
-16.961146
-18.33987
0.057726316
-9.8690334
0.057157174
-10.651516
0.056431588
-11.497137
0.055587091
-12.415066
0.054825982
-13.416099
0.053412837
-14.494159
0.052173223
-15.676758
0.051213864
-16.959727
-18.338314
0.057983112
-9.1500276
0.057441311
-9.8687588
0.056869604
-10.651094
0.056141787
-11.496549
0.055297015
-12.414319
0.054535436
-13.41523
0.053121115
-14.493123
0.051887642
-15.675609
0.050929217
-16.958311
-18.336766
0.057727588
-9.1498874
0.057179555
-9.8684753
0.05660457
-10.650665
0.055874156
-11.495957
0.05502841
-12.413568
0.054265717
-13.414359
0.052849656
-14.492088
0.05162164
-15.674461
0.050663479
-16.956897
0.057470996
-9.1497372
0.0569167
-9.8681828
0.056338627
-10.650228
0.055605439
-11.495359
0.054758824
-12.412816
0.053995172
-13.413487
0.052577329
-14.491056
0.051354869
-15.673315
-16.955486
0.057208398
-9.1495768
0.056648097
-9.8678815
0.056066959
-10.649784
0.055331229
-11.494757
0.054483819
-12.41206
0.05371919
-13.412613
0.05229979
-14.490025
0.05108312
-15.672172
-16.954079
0.057312413
-8.4850603
0.056939812
-9.1494065
0.056373565
-9.8675715
0.055789651
-10.649332
0.055051418
-11.494149
0.054203406
-12.411303
0.053437979
-13.411738
0.052017245
-14.488996
0.050806483
-15.67103
-16.952674
0.057046365
-8.4849942
0.056664997
-9.1492261
0.056093129
-9.8672528
0.055506526
-10.648873
0.0547659
-11.493537
0.053917489
-12.410544
0.053151378
-13.410862
0.051729473
-14.48797
0.050524861
-15.669891
-16.951272
0.056773886
-8.4849178
0.056384151
-9.1490358
0.055806718
-9.8669257
0.055217588
-10.648408
0.054474736
-11.492921
0.053626001
-12.409784
0.052859393
-13.409985
0.051436539
-14.486947
0.050238322
-15.668754
-16.949874
0.056495087
-8.4848311
0.056096993
-9.1488354
0.055514384
-9.8665903
0.054922881
-10.647936
0.05417791
-11.492301
0.053328929
-12.409022
0.052562008
-13.409108
0.051138309
-14.485926
0.049946732
-15.667621
-16.948479
0.056473987
-7.8733571
0.05620989
-8.4847341
0.055803773
-9.1486251
0.055215982
-9.8662468
0.054622266
-10.647457
0.053875224
-11.491676
0.053026327
-12.408259
0.052259094
-13.40823
0.050834835
-14.484908
0.049650085
-15.66649
0.056192244
-7.8733614
0.055918067
-8.4846268
0.055504071
-9.1484051
0.05491142
-9.8658953
0.054315714
-10.646973
0.053566713
-11.491048
0.052718043
-12.407496
0.051950691
-13.407351
0.050526038
-14.483893
-15.665363
0.055903876
-7.8733548
0.055619819
-8.4845091
0.055198214
-9.1481753
0.054600761
-9.8655359
0.054003165
-10.646482
0.05325245
-11.490417
0.052404021
-12.406731
0.051636807
-13.406472
0.050211924
-14.482882
-15.66424
0.055759368
-7.3088094
0.05560858
-7.8733372
0.055314914
-8.4843811
0.054885849
-9.147936
0.054283849
-9.865169
0.053684526
-10.645986
0.052932212
-11.489782
0.052084294
-12.405967
0.051317289
-13.405593
0.049892406
-14.481873
-15.663121
0.055468477
-7.308887
0.055306467
-7.8733086
0.055003394
-8.4842429
0.054567013
-9.1476871
0.053960727
-9.8647946
0.053359898
-10.645485
0.052605982
-11.489144
0.051758718
-12.405202
0.050992127
-13.404714
0.049567349
-14.480868
-15.662006
0.055179098
-7.3089529
0.05500592
-7.8732689
0.054693391
-8.4840943
0.054249854
-9.1474287
0.053639224
-9.8644129
0.053036759
-10.644978
0.052281383
-11.488503
0.051434627
-12.404437
0.050668427
-13.403836
0.049243897
-14.479866
-15.660895
0.054968895
-6.7876406
0.054912935
-7.3090062
0.054728026
-7.8732173
0.054405777
-8.4839348
0.05395465
-9.1471603
0.053339175
-9.8640233
0.052734815
-10.644466
0.051977263
-11.487859
0.051130641
-12.403671
0.050364233
-13.402957
0.048939333
-14.478867
0.054711982
-6.7877925
0.054643078
-7.309047
0.054446802
-7.8731541
0.054114753
-8.4837643
0.053656165
-9.1468821
0.05303608
-9.8636262
0.052429784
-10.643948
0.051670228
-11.487211
0.050823865
-12.402905
0.050057256
-13.402078
-14.477871
0.054448825
-6.7879308
0.054367216
-7.3090752
0.054159569
-7.8730789
0.053818123
-8.483583
0.053352213
-9.1465941
0.052727705
-9.8632216
0.052119631
-10.643425
0.051358198
-11.48656
0.050512042
-12.402139
0.049745626
-13.401198
-14.476878
0.054156869
-6.3061792
0.054179263
-6.7880552
0.054085204
-7.309091
0.053866441
-7.8729921
0.053515606
-8.4833908
0.053042652
-9.1462965
0.052413842
-9.8628098
0.051804153
-10.642897
0.051040908
-11.485906
0.050195224
-12.401372
0.049429021
-13.400319
-14.475887
0.053894985
-6.3064044
0.053903544
-6.7881661
0.053797082
-7.3090941
0.053567207
-7.8728933
0.05320732
-8.4831879
0.052727468
-9.1459895
0.052094539
-9.862391
0.051483465
-10.642365
0.050718604
-11.485249
0.049873465
-12.400605
0.049107555
-13.39944
-14.4749
0.053626602
-6.3066147
0.053621307
-6.7882633
0.053502638
-7.3090848
0.053262044
-7.8727828
0.052893182
-8.4829743
0.052406641
-9.1456733
0.051769789
-9.8619656
0.051157361
-10.641828
0.050390956
-11.484589
0.049546628
-12.399839
0.048781228
-13.398562
-14.473916
0.053242677
-5.8606971
0.053351486
-6.30681
0.053332729
-6.7883469
0.053201912
-7.3090628
0.052950742
-7.8726607
0.052573112
-8.4827502
0.052080098
-9.1453482
0.05143944
-9.8615335
0.050825892
-10.641287
0.050058211
-11.483928
0.049214637
-12.399073
0.04845002
-13.397684
-14.472935
0.052975888
-5.8609916
0.053069872
-6.3069906
0.05303758
-6.7884167
0.052894943
-7.3090283
0.052633269
-7.8725268
0.052247149
-8.4825157
0.051747875
-9.1450143
0.051103604
-9.8610952
0.050489099
-10.640742
0.049720089
-11.483263
0.048877604
-12.398308
0.048113735
-13.396807
0.052519627
-5.4483432
0.052702238
-5.8612701
0.052781403
-6.3071563
0.052735904
-6.7884731
0.052581589
-7.3089814
0.052309618
-7.8723813
0.051915089
-8.482271
0.051409704
-9.1446718
0.050762078
-9.8606508
0.050146785
-10.640193
0.04937672
-11.482597
0.048535396
-12.397543
-13.395931
0.052255594
-5.4487211
0.052421635
-5.8615324
0.052486188
-6.3073071
0.052427554
-6.7885157
0.052261695
-7.308922
0.051979708
-7.8722243
0.051577046
-8.4820161
0.051065769
-9.1443211
0.050414915
-9.8602007
0.049798937
-10.639641
0.049027965
-11.48193
0.048187878
-12.396779
-13.395056
0.051984136
-5.4490814
0.052133961
-5.8617787
0.052184118
-6.3074431
0.052112621
-6.7885449
0.051935427
-7.3088502
0.051643503
-7.8720558
0.051232859
-8.4817513
0.050715906
-9.1439623
0.050062022
-9.8597451
0.049445592
-10.639085
0.0486738
-11.48126
0.047835153
-12.396016
-13.394183
0.051469671
-5.0668483
0.051705489
-5.4494245
0.051839121
-5.8620088
0.051875104
-6.3075645
0.05179082
-6.7885605
0.051602503
-7.3087661
0.051300928
-7.871876
0.050882516
-8.4814766
0.050360041
-9.1435957
0.049703387
-9.8592844
0.049086548
-10.638527
0.048314155
-11.480589
0.047477152
-12.395254
-13.393311
0.051207816
-5.0672903
0.051425555
-5.4497501
0.051543237
-5.8622229
0.051565007
-6.307671
0.051468102
-6.7885625
0.051268631
-7.3086695
0.050957516
-7.8716849
0.050531448
-8.4811924
0.050003635
-9.1432215
0.049344119
-9.8588184
0.048727075
-10.637966
0.047954078
-11.479917
0.04711858
-12.394493
-13.392441
0.050647765
-4.7128359
0.050968098
-5.0677132
0.05116741
-5.4500578
0.0512687
-5.8624204
0.051276101
-6.3077623
0.051166219
-6.7885504
0.050955452
-7.3085601
0.050634414
-7.871482
0.050200193
-8.4808979
0.0496667
-9.1428394
0.049004102
-9.8583471
0.048386427
-10.637401
0.047612349
-11.479244
0.046778056
-12.393733
0.050426154
-4.7133562
0.05072641
-5.0681171
0.050907482
-5.4503477
0.05099257
-5.8626013
0.050985645
-6.3078383
0.050862893
-6.7885243
0.050640679
-7.3084377
0.050309838
-7.8712675
0.049867841
-8.4805937
0.049328726
-9.1424496
0.048663027
-9.8578706
0.048044673
-10.636834
0.047269706
-11.478568
-12.392974
0.050198761
-4.7138566
0.050479108
-5.0685018
0.050642047
-5.4506196
0.050711158
-5.8627657
0.050689993
-6.3078989
0.050554514
-6.788484
0.050321325
-7.3083027
0.04998076
-7.8710413
0.049530997
-8.4802797
0.048986407
-9.1420523
0.048317927
-9.8573891
0.047699118
-10.636264
0.046923228
-11.477891
-12.392216
0.049571888
-4.3848178
0.049965508
-4.714337
0.050226123
-5.0688675
0.050371136
-5.4508737
0.050424362
-5.8629135
0.050389244
-6.3079444
0.050241184
-6.7884298
0.049996966
-7.3081549
0.049647023
-7.8708038
0.049189703
-8.4799562
0.048639913
-9.1416479
0.047968588
-9.8569028
0.047349487
-10.635691
0.046572894
-11.477213
-12.391458
0.049353721
-4.3853905
0.049726354
-4.7147973
0.049967399
-5.0692141
0.050094674
-5.4511101
0.050132252
-5.8630448
0.05008327
-6.3079746
0.049922909
-6.7883616
0.049667873
-7.3079945
0.049308635
-7.870555
0.048843902
-8.4796233
0.048288997
-9.1412365
0.047615153
-9.856412
0.046995799
-10.635115
0.046218659
-11.476534
-12.390702
0.048649461
-4.0796823
0.049129366
-4.3859426
0.049481182
-4.7152377
0.049702847
-5.0695418
0.049812546
-5.4513287
0.049834645
-5.8631597
0.049772026
-6.3079896
0.049599451
-6.7882795
0.049333814
-7.3078215
0.048965437
-7.8702951
0.048493501
-8.4792815
0.047933696
-9.1408185
0.047257533
-9.855917
0.046638082
-10.634538
0.045860432
-11.475854
-12.389947
0.048440821
-4.0803216
0.048898736
-4.3864741
0.04922993
-4.7156582
0.049432398
-5.0698505
0.049524721
-5.4515295
0.049531517
-5.8632581
0.049455492
-6.3079896
0.04927086
-6.7881836
0.048994841
-7.3076362
0.048617539
-7.8700242
0.048138481
-8.4789307
0.047573992
-9.1403942
0.04689558
-9.855418
0.046276204
-10.633958
0.045498267
-11.475173
0.047666808
-3.7960734
0.04822563
-4.0809401
0.048661747
-4.3869849
0.048972516
-4.7160587
0.049155962
-5.0701403
0.049231173
-5.4517128
0.049222841
-5.8633401
0.049133579
-6.3079745
0.048937114
-6.7880739
0.048650732
-7.3074385
0.048264665
-7.8697425
0.04777883
-8.4785714
0.047209811
-9.1399638
0.046529356
-9.8549151
0.045910151
-10.633376
-11.474491
0.047467914
-3.7967736
0.048003816
-4.0815375
0.048418323
-4.3874752
0.04870883
-4.7164393
0.048873474
-5.0704113
0.048931661
-5.4518784
0.048908524
-5.8634059
0.048806125
-6.3079444
0.048598055
-6.7879506
0.048301604
-7.3072286
0.047906995
-7.8694504
0.047414404
-8.4782037
0.046841072
-9.1395276
0.046158714
-9.8544087
0.045539911
-10.632793
-11.473809
0.046629271
-3.5322996
0.047262088
-3.7974527
0.047775251
-4.082114
0.048168362
-4.3879448
0.048438832
-4.7168001
0.04858484
-5.0706635
0.048626292
-5.4520265
0.048588467
-5.8634554
0.048473243
-6.3078995
0.0482536
-6.7878137
0.047947301
-7.3070068
0.047544376
-7.8691479
0.047045247
-8.4778279
0.046467693
-9.1390859
0.045783707
-9.853899
0.045165342
-10.632208
-11.473127
0.045715531
-3.2859943
0.04644007
-3.5330547
0.047049226
-3.7981107
0.047539857
-4.0826695
0.047911773
-4.3883939
0.04816239
-4.7171411
0.048289995
-5.070897
0.048314901
-5.4521572
0.048262647
-5.8634888
0.048134637
-6.3078396
0.047903791
-6.7876635
0.04758781
-7.3067731
0.047176665
-7.8688353
0.046671214
-8.4774443
0.046089792
-9.138639
0.045404258
-9.8533862
0.044786435
-10.631622
-11.472444
0.045543203
-3.2868192
0.046243533
-3.5337888
0.046829221
-3.7987477
0.047297546
-4.083204
0.047648466
-4.3888225
0.04787944
-4.7174623
0.047988834
-5.0711118
0.047997452
-5.4522706
0.04793083
-5.863506
0.047790487
-6.3077652
0.047548541
-6.7874999
0.047222973
-7.3065277
0.046803839
-7.8685128
0.046292355
-8.4770533
0.045707029
-9.1381871
0.045020223
-9.8528707
0.044403238
-10.631034
-11.471762
0.044578827
-3.0573139
0.045364181
-3.2876236
0.046040474
-3.5345019
0.046602892
-3.7993635
0.047049086
-4.0837176
0.04737922
-4.3892305
0.047590751
-4.7177639
0.047682145
-5.071308
0.047674597
-5.4523666
0.047594001
-5.8635072
0.047441296
-6.3076761
0.047188552
-6.7873233
0.046853624
-7.3062708
0.046426725
-7.8681807
0.045909164
-8.4766549
0.045320349
-9.1377307
0.044632357
-9.8523525
0.04401618
-10.630445
0.043579692
-2.8432669
0.044440676
-3.0581806
0.045201575
-3.2884069
0.045853669
-3.5351937
0.046392667
-3.7999578
0.046816598
-4.0842098
0.047125794
-4.3896176
0.047317732
-4.7180454
0.047390966
-5.0714854
0.047367173
-5.4524451
0.047272466
-5.8634923
0.047107331
-6.3075722
0.046843385
-6.7871332
0.046499031
-7.3060023
0.046064055
-7.8678388
0.045540368
-8.4762493
0.044947773
-9.1372695
0.044258369
-9.8518314
-10.629855
0.04346976
-2.8441868
0.044306534
-3.0590268
0.045042984
-3.2891692
0.045670893
-3.5358639
0.046186503
-3.8005305
0.046588239
-4.0846805
0.046876541
-4.3899839
0.047048935
-4.7183069
0.047104056
-5.0716438
0.047064099
-5.452506
0.046955123
-5.8634609
0.046777586
-6.3074533
0.046502732
-6.7869299
0.046148776
-7.305722
0.045705815
-7.8674873
0.045175965
-8.4758364
0.044579562
-9.1368037
0.04388884
-9.8513076
-10.629264
0.042450755
-2.6445074
0.04335338
-2.8450873
0.044166052
-3.0598526
0.044878206
-3.2899103
0.045482112
-3.5365125
0.04597454
-3.8010814
0.046354263
-4.0851298
0.046621882
-4.3903292
0.046774918
-4.7185484
0.046812135
-5.0717834
0.046756161
-5.4525494
0.046633313
-5.8634134
0.046443554
-6.3073197
0.046157763
-6.7867132
0.045794501
-7.3054303
0.04534378
-7.8671263
0.044807985
-8.4754166
0.044207925
-9.1363335
0.043515971
-9.8507813
-10.628671
0.041394083
-2.4581219
0.042351075
-2.6454523
0.043230435
-2.8459682
0.044019162
-3.0606578
0.044707171
-3.2906301
0.04528725
-3.5371394
0.045756686
-3.8016107
0.046114599
-4.0855576
0.046361739
-4.3906536
0.046495632
-4.71877
0.04651516
-5.0719042
0.04644341
-5.4525753
0.046306823
-5.8633497
0.046105021
-6.3071714
0.04580853
-6.7864835
0.045436191
-7.3051274
0.044977873
-7.8667563
0.044436159
-8.4749901
0.043832734
-9.1358593
0.04313976
-9.8502526
-10.628077
0.040311604
-2.2841036
0.041309509
-2.4591006
0.042244589
-2.6463788
0.043100813
-2.8468295
0.043865715
-3.0614425
0.044529751
-3.2913287
0.045086187
-3.5377448
0.045532829
-3.8021183
0.045869158
-4.0859641
0.046096025
-4.3909573
0.046210974
-4.7189717
0.046213015
-5.0720064
0.046125712
-5.4525838
0.045975655
-5.86327
0.045762065
-6.3070086
0.045455117
-6.7862409
0.045073667
-7.3048133
0.04460785
-7.8663773
0.04406057
-8.4745573
0.043453936
-9.1353812
0.042760031
-9.8497217
0.040240085
-2.2851053
0.04121799
-2.4600627
0.042131269
-2.6472871
0.042964454
-2.8476714
0.043705695
-3.0622067
0.044345901
-3.292006
0.044878878
-3.5383285
0.045302943
-3.8026042
0.045617898
-4.0863491
0.045824697
-4.3912402
0.045920936
-4.7191537
0.045905723
-5.07209
0.045803035
-5.4525751
0.045639715
-5.8631745
0.045414451
-6.3068315
0.045097226
-6.7859857
0.044707096
-7.3044886
0.044234012
-7.8659898
0.043681259
-8.4741185
0.043071449
-9.1348995
-9.8491888
0.039154759
-2.122627
0.040161427
-2.2860923
0.041119402
-2.4610081
0.042010961
-2.6481772
0.042821245
-2.8484936
0.043538949
-3.0629502
0.044155515
-3.292662
0.044665218
-3.5388905
0.045066905
-3.8030685
0.045360701
-4.0867128
0.04554767
-4.3915025
0.045625398
-4.719316
0.04559314
-5.0721551
0.045475438
-5.4525494
0.045298994
-5.8630632
0.045062317
-6.3066401
0.044734992
-6.785718
0.044336156
-7.3041532
0.043856102
-7.865594
0.043298041
-8.4736738
0.042685345
-9.1344145
-9.8486542
0.038064695
-1.9709031
0.039086489
-2.1236281
0.040075542
-2.2870644
0.041013649
-2.4619368
0.041883591
-2.649049
0.042671082
-2.8492963
0.043365424
-3.0636731
0.043958501
-3.2932966
0.044445137
-3.5394308
0.044824676
-3.8035111
0.045097537
-4.0870553
0.045264867
-4.3917442
0.045324317
-4.7194588
0.045275254
-5.0722019
0.045142658
-5.4525066
0.04495337
-5.8629363
0.044705536
-6.3064349
0.044368294
-6.785438
0.04396112
-7.3038075
0.043474003
-7.8651901