/*--------------------------------*- C++ -*----------------------------------*\
| =========                 |                                                 |
| \\      /  F ield         | OpenFOAM: The Open Source CFD Toolbox           |
|  \\    /   O peration     | Version:  2506                                  |
|   \\  /    A nd           | Website:  www.openfoam.com                      |
|    \\/     M anipulation  |                                                 |
\*---------------------------------------------------------------------------*/
FoamFile
{
    version     2.0;
    format      ascii;
    arch        "LSB;label=32;scalar=64";
    class       volScalarField;
    location    "0.004";
    object      k;
}
// * * * * * * * * * * * * * * * * * * * * * * * * * * * * * * * * * * * * * //

dimensions      [0 2 -2 0 0 0 0];

internalField   nonuniform List<scalar> 
13761
(
0.20215735
0.21077484
0.2197242
0.22895637
0.23842939
0.24812168
0.25805525
0.26828728
0.27884581
0.28967896
0.30073739
0.31218042
0.32440617
0.33758494
0.3507319
0.362472
0.37082752
0.37146017
0.36710589
0.36420688
0.38221
0.45336352
0.63006772
0.9767055
1.555993
2.3626173
3.2538943
3.9845499
4.4306501
4.4877571
4.0807771
3.1679759
2.0192047
1.0094224
0.38085314
0.11996732
0.11405455
0.72558762
0.15163773
0.15742996
0.1635853
0.17012553
0.17705643
0.18437823
0.19209466
0.20023319
0.20873447
0.21756861
0.22668864
0.23602671
0.24554432
0.2552758
0.26529732
0.27565493
0.28632523
0.29722503
0.30820169
0.31909966
0.33002
0.34116561
0.35223386
0.36127952
0.36551471
0.36285724
0.35699904
0.35727071
0.38090927
0.45763504
0.62136727
0.90479327
1.3238411
1.84709
2.414266
2.8653552
3.0139883
2.7584781
2.1268876
1.340974
0.66512688
0.2524798
0.086790863
0.10420546
0.68414976
0.15048122
0.15621574
0.16232177
0.16878953
0.17560357
0.1827688
0.19030914
0.19823112
0.20655148
0.21524033
0.22421066
0.23337365
0.24271522
0.25230869
0.26223435
0.27247358
0.28288406
0.29334353
0.3039819
0.31527203
0.32771831
0.34089979
0.35259964
0.36099204
0.36274997
0.35889483
0.35243025
0.35856613
0.39443486
0.49120469
0.68163933
0.99343575
1.4219665
1.884576
2.2339218
2.4047726
2.3559338
2.0675064
1.5480178
0.95576962
0.46840155
0.17875359
0.067021051
0.095899617
0.64165823
0.1492941
0.15497427
0.16098278
0.16729462
0.17392149
0.18090925
0.18830413
0.19613453
0.20438033
0.21296356
0.2217748
0.23074638
0.23990833
0.24934998
0.2591161
0.26914993
0.27934545
0.28964306
0.30003608
0.31049919
0.3210531
0.33176414
0.34230257
0.3513356
0.35590607
0.35361531
0.34695111
0.34229944
0.35163051
0.39350668
0.48657493
0.64345492
0.86964145
1.1442673
1.4251223
1.6148228
1.6241348
1.4225645
1.0539514
0.64319446
0.31318573
0.12120818
0.051250611
0.087767659
0.59677819
0.1481324
0.1537276
0.15961007
0.16577861
0.17227732
0.1791598
0.18645639
0.19416261
0.20223571
0.21059167
0.2191452
0.22788466
0.23688659
0.24623435
0.25591729
0.26580439
0.27572897
0.28564378
0.29572923
0.30637384
0.31799318
0.33048665
0.34233425
0.35065639
0.35293187
0.3495064
0.34230645
0.33914663
0.35677522
0.41099965
0.51922437
0.69029358
0.91675502
1.1489447
1.2995282
1.3469844
1.2748839
1.072618
0.77206031
0.46158465
0.22241075
0.087218909
0.041216845
0.080301276
0.55146443
0.14176248
0.14697369
0.15245023
0.15817752
0.16419961
0.17058205
0.17736386
0.1845476
0.1921083
0.19998919
0.20811126
0.2164318
0.2249933
0.23388322
0.24313165
0.2526467
0.26226596
0.27189353
0.28158108
0.29147026
0.30164568
0.31204804
0.3225291
0.33272308
0.34149833
0.34620787
0.34419971
0.33698841
0.32951949
0.33101402
0.35223409
0.4046172
0.49253367
0.61617189
0.76207236
0.89068672
0.95027593
0.90749007
0.75356866
0.53405972
0.31502297
0.15096802
0.060629958
0.032957781
0.073031067
0.50593267
0.14073907
0.14581143
0.15110998
0.15669107
0.16263318
0.16897428
0.17569934
0.1827686
0.19013654
0.19775338
0.2055853
0.21365384
0.22203457
0.23078942
0.23988991
0.24921102
0.25861128
0.26802159
0.27748473
0.28715905
0.29730414
0.30820024
0.3198044
0.33104027
0.33956402
0.34272583
0.33979825
0.33228896
0.32426647
0.33067732
0.35975727
0.42026479
0.51348856
0.63009714
0.73441454
0.79063344
0.78461112
0.71429296
0.57222017
0.39463492
0.22830686
0.10852451
0.044597114
0.027388446
0.066218783
0.461243
0.13492991
0.13963062
0.14453376
0.1497132
0.15525477
0.16118777
0.167476
0.17406208
0.1809115
0.18801496
0.19536857
0.20297835
0.21088258
0.21913838
0.22776136
0.23668147
0.24576998
0.2549182
0.26410099
0.2733912
0.28291926
0.292782
0.30294308
0.31320354
0.32310721
0.33152204
0.33604884
0.33416126
0.32676606
0.31718501
0.31277043
0.32079009
0.34731518
0.3931887
0.45770003
0.52974199
0.58018643
0.58091529
0.52266853
0.4115909
0.27894598
0.15916392
0.075415625
0.032102304
0.022729415
0.059670156
0.41761632
0.1338977
0.13842442
0.14322112
0.14838063
0.15393084
0.15982344
0.16598522
0.17238093
0.17902453
0.18593679
0.19311688
0.20056429
0.20830685
0.21637859
0.2247688
0.2334108
0.24222047
0.25113708
0.26014008
0.26926073
0.27860269
0.28835056
0.29870499
0.30962488
0.32029587
0.32875149
0.33222272
0.32947528
0.32183932
0.31198147
0.30758852
0.32065576
0.35214171
0.39828374
0.44889825
0.4895988
0.50224667
0.47750065
0.41244478
0.31435328
0.20759209
0.1163131
0.054823727
0.02413375
0.019250405
0.053500352
0.37564362
0.1285119
0.13271875
0.13716876
0.14196556
0.14714697
0.15266521
0.15843363
0.16440968
0.17062049
0.17710855
0.18388358
0.19093082
0.19824593
0.20584492
0.21373542
0.22189007
0.23025598
0.2387763
0.24740304
0.25612157
0.26499085
0.27414949
0.28373919
0.2937647
0.30396314
0.31369708
0.32171152
0.32566226
0.32350179
0.31565744
0.30443475
0.29562509
0.29490304
0.30451295
0.32450585
0.35223352
0.37913729
0.38729992
0.36490486
0.30797674
0.22960055
0.14870107
0.082170415
0.0387212
0.017862986
0.016258441
0.047647547
0.33551537
0.12350358
0.12744824
0.13157857
0.13602281
0.1408357
0.14596509
0.15131437
0.15685402
0.16264509
0.16875451
0.17519531
0.1819387
0.1889495
0.19620344
0.20368155
0.21135962
0.21921392
0.22723295
0.23540858
0.24372808
0.25219765
0.26088197
0.26991418
0.27945724
0.28961323
0.30021599
0.31042278
0.31838596
0.32138961
0.31846307
0.31006231
0.29835107
0.28852457
0.28752759
0.29714874
0.31367099
0.33050407
0.339772
0.33098319
0.29885331
0.24311882
0.17572243
0.1110151
0.060321973
0.028374088
0.013676114
0.013864943
0.042184358
0.29766331
0.11879406
0.12256282
0.12644963
0.1305771
0.13501085
0.13972115
0.14463258
0.14973799
0.15512163
0.16086182
0.16696718
0.1733987
0.18011155
0.18706281
0.19420337
0.20148457
0.20888256
0.21641775
0.22413522
0.23205894
0.24017808
0.24849092
0.25706181
0.26602154
0.27548328
0.28540182
0.29543297
0.30481725
0.312188
0.31505322
0.3122293
0.30381462
0.29137631
0.2794154
0.27202639
0.27200774
0.27627853
0.28171803
0.28211482
0.26898717
0.23573413
0.18642638
0.13138162
0.081282179
0.043564728
0.020540584
0.010442249
0.01179377
0.037085981
0.26216228
0.1180396
0.12174022
0.12558766
0.12965861
0.13394761
0.13842367
0.14312727
0.14814382
0.15352314
0.15925967
0.16531939
0.17167436
0.17830298
0.18515387
0.1921406
0.19919598
0.20632706
0.21360883
0.22112018
0.22888566
0.23688495
0.2451157
0.25363831
0.26255621
0.27194942
0.28178723
0.29176911
0.30103356
0.30792343
0.30968759
0.30612389
0.29682935
0.28324074
0.26955909
0.25959404
0.25461783
0.25236864
0.24932476
0.24095468
0.22128543
0.18692766
0.14326222
0.098284009
0.059506989
0.031466393
0.014899748
0.0080261582
0.01001812
0.03236926
0.22916676
0.1137413
0.11730632
0.1209344
0.12468895
0.12861033
0.13272508
0.13709121
0.1417748
0.14680013
0.15214565
0.15778798
0.16373243
0.16997886
0.17646995
0.18309675
0.18977017
0.19650109
0.20339829
0.21057976
0.21808886
0.22587889
0.23387082
0.24203096
0.25040371
0.25907811
0.26810892
0.27741724
0.28667713
0.29516223
0.30152622
0.30296833
0.29931255
0.28989492
0.27569579
0.26032959
0.24739276
0.23743008
0.22895969
0.21953009
0.20587034
0.18232866
0.14882026
0.11059763
0.073884108
0.043800485
0.022870445
0.010894952
0.0062291835
0.0084890152
0.028030965
0.19870428
0.10965928
0.1130811
0.11652544
0.1200203
0.12363172
0.12743832
0.13151174
0.13589568
0.14059318
0.14557767
0.15082619
0.15634116
0.16212223
0.16811831
0.1742378
0.18044202
0.18680806
0.19346878
0.20050663
0.20790708
0.21557737
0.22338825
0.23123808
0.2391192
0.24712502
0.25538962
0.26400975
0.27296305
0.28196323
0.29021955
0.29623705
0.29693283
0.29278295
0.28237591
0.26676955
0.24933879
0.2334254
0.21982649
0.20652789
0.19111711
0.17190612
0.14682616
0.1162865
0.084120315
0.054878763
0.031925643
0.016495831
0.0079340309
0.0048409731
0.0071577414
0.024076806
0.17086541
0.10574245
0.10902616
0.11234249
0.11567699
0.11908344
0.12265195
0.12645456
0.13052923
0.13487958
0.13948171
0.14431806
0.14939634
0.15471899
0.16025949
0.16598609
0.171893
0.17800945
0.18439653
0.19111736
0.19817506
0.20547368
0.21285851
0.22021126
0.22752045
0.23487997
0.24243635
0.25032787
0.25863225
0.26729632
0.27600623
0.28399398
0.28986447
0.2903802
0.28613337
0.27538628
0.25906474
0.24008817
0.22146871
0.20418355
0.18680083
0.16772686
0.14607008
0.12080176
0.092805655
0.065272374
0.04155343
0.023717438
0.012125912
0.0058817489
0.0037979218
0.0060061106
0.020499587
0.14561793
0.10210057
0.1052386
0.10844303
0.11167418
0.11493741
0.11829109
0.12180378
0.12551845
0.12945294
0.13361882
0.13803683
0.14272938
0.14770083
0.15293331
0.15840306
0.16409556
0.17000388
0.1761238
0.18245307
0.18898518
0.19569801
0.20254437
0.2094535
0.21636577
0.22328994
0.23032393
0.23761572
0.245303
0.25346213
0.26203845
0.27069966
0.27861138
0.28429577
0.28429197
0.2795879
0.26799553
0.25050621
0.22997537
0.20927818
0.18940565
0.16927826
0.1474087
0.12392017
0.099255318
0.074103396
0.050759374
0.0315914
0.017722698
0.0089784421
0.0043940671
0.0029901401
0.0049977317
0.017260259
0.12271208
0.098737949
0.10168513
0.10473175
0.10783684
0.11096954
0.11414256
0.11741475
0.12084709
0.12447693
0.12832662
0.13241746
0.13677169
0.14140224
0.14630763
0.15147959
0.15690534
0.16255752
0.16839044
0.17435655
0.18042518
0.18658899
0.19286285
0.19926339
0.2057772
0.21236447
0.21901559
0.22580216
0.23286394
0.24034731
0.24833503
0.25675811
0.26524222
0.27289029
0.27814587
0.27784487
0.27260444
0.26045148
0.24214659
0.22012742
0.19704054
0.17419511
0.15132257
0.12784865
0.10428
0.081135046
0.058958025
0.039412445
0.024034228
0.013279748
0.0066760577
0.0032961476
0.002350052
0.0041106737
0.014335759
0.10200026
0.095606047
0.098357806
0.10123238
0.10419805
0.10721199
0.11024733
0.11333156
0.11653622
0.11992434
0.12352665
0.12735264
0.13140778
0.13570255
0.14024979
0.14505498
0.15010664
0.15536892
0.16078328
0.16629871
0.17191948
0.17770486
0.18371149
0.18994544
0.19635865
0.20287519
0.20943319
0.21603358
0.22276227
0.22976322
0.23717797
0.24507051
0.25332481
0.26148461
0.26854765
0.272791
0.27171206
0.26543763
0.25234383
0.2330089
0.20982139
0.18540952
0.16118002
0.13713136
0.11299479
0.089407372
0.06732427
0.047498875
0.03098216
0.0185272
0.010093241
0.0050372057
0.0025024264
0.0018490961
0.0033467758
0.011762161
0.083747676
0.095301727
0.098018089
0.10084635
0.10374435
0.10666363
0.10958737
0.11256328
0.11567085
0.11897058
0.1224945
0.12625667
0.13025963
0.1344981
0.1389639
0.14364792
0.14853786
0.15361965
0.15888348
0.16433384
0.16999642
0.17589906
0.1820355
0.18834884
0.19474508
0.20113383
0.20748327
0.21385215
0.2203687
0.22717466
0.23437166
0.24197098
0.24980426
0.25736157
0.26359168
0.2666582
0.26480373
0.25781997
0.24389489
0.22361692
0.19910139
0.17288606
0.14674674
0.12137238
0.097081215
0.074661775
0.054751129
0.037729794
0.024131401
0.014206382
0.007653467
0.003798513
0.0018977766
0.0014456596
0.0026932596
0.0095306959
0.06790542
0.092484405
0.095032066
0.097701542
0.10046003
0.10326028
0.10606048
0.10886782
0.11175189
0.11479512
0.11804839
0.12153075
0.12524527
0.1291915
0.1333702
0.1377812
0.14241858
0.14726579
0.15229996
0.15750777
0.16289961
0.16850613
0.17435099
0.18041681
0.18663443
0.19291141
0.19917977
0.20543086
0.21172232
0.21814785
0.22479078
0.231695
0.23884082
0.24607027
0.25292916
0.2584524
0.26077197
0.25844928
0.25043555
0.23530762
0.21385689
0.18828829
0.16119034
0.13445158
0.10896083
0.085168688
0.063728062
0.04539424
0.030518389
0.019141916
0.011100361
0.0059174373
0.002919117
0.0014589262
0.0011284566
0.0021406264
0.0076160364
0.054298375
0.089877102
0.092233705
0.094724423
0.097329883
0.10001346
0.1027267
0.10543938
0.10818039
0.11103021
0.11406022
0.11729913
0.12074313
0.12437776
0.12819818
0.13221711
0.13645616
0.14093039
0.1456328
0.15052807
0.15557372
0.16075942
0.16611819
0.17169288
0.17749287
0.18346819
0.18951919
0.19554986
0.2015317
0.20752924
0.2136702
0.22008993
0.22688551
0.23406954
0.24147269
0.24856986
0.25426813
0.25644991
0.25385512
0.24479548
0.22863777
0.20622871
0.17962577
0.15139422
0.12368584
0.097834263
0.074579769
0.054500334
0.038000079
0.025091379
0.01551597
0.0089025538
0.0047112301
0.0023114581
0.0011473264
0.00088088572
0.0016756786
0.0059822707
0.042675857
0.087465092
0.089636496
0.091948208
0.094394896
0.096953289
0.099580771
0.10222729
0.10487081
0.10755118
0.11034488
0.11330586
0.11645112
0.11977936
0.12328897
0.12698648
0.13088323
0.13498696
0.13929704
0.14380099
0.14847541
0.15330349
0.15829566
0.16348195
0.16888302
0.17448904
0.1802515
0.18609548
0.19196283
0.1978619
0.20387951
0.21014449
0.21677817
0.2238569
0.2313602
0.23905359
0.2462917
0.25180775
0.25310209
0.24972537
0.23987224
0.22289529
0.19967003
0.17231715
0.14349541
0.1154897
0.089778874
0.067173245
0.048118943
0.032864928
0.021295782
0.012978345
0.0073728132
0.0038757664
0.0018892451
0.0009236267
0.00068705271
0.0012898704
0.0046120581
0.032919338
0.085319009
0.087330794
0.08947532
0.091752017
0.094145405
0.096624836
0.099148908
0.10167952
0.10421543
0.10681217
0.10954188
0.11244751
0.11554481
0.11883745
0.1223242
0.12600328
0.12987539
0.13394124
0.13819229
0.14260239
0.14713853
0.15179252
0.15659548
0.16158936
0.1667885
0.17216506
0.17765678
0.18319582
0.1887566
0.19439046
0.20021268
0.20635075
0.21289722
0.21988252
0.2272315
0.23465849
0.24150018
0.2465434
0.24703402
0.24320434
0.23299358
0.21558612
0.19197981
0.16432253
0.13529422
0.10731242
0.082032645
0.060332186
0.042537471
0.028646272
0.018338574
0.011077562
0.0062568453
0.0032755303
0.0015868903
0.00075920654
0.00053405278
0.0009714202
0.0034712909
0.024789935
0.083341781
0.085208334
0.087196037
0.089301312
0.091515694
0.093826308
0.096211424
0.098635672
0.10106714
0.10351978
0.10606357
0.1087713
0.11167982
0.1147972
0.11811708
0.12162649
0.12531354
0.12917426
0.13320955
0.1374108
0.14174981
0.14619421
0.15074272
0.15543363
0.16030906
0.16537419
0.17058171
0.17584785
0.18109859
0.18632432
0.19160062
0.19705513
0.20280989
0.20894506
0.21548632
0.22236182
0.22928013
0.23554284
0.23987609
0.23956785
0.23495155
0.22409419
0.20622145
0.18238606
0.15483051
0.12625248
0.099035708
0.07479065
0.054325991
0.037854785
0.025208928
0.015981605
0.0095868042
0.005392035
0.0028147054
0.0013554149
0.00063183277
0.00041148547
0.00071058926
0.0025318452
0.018091107
0.081498369
0.083219437
0.085061404
0.087023071
0.08909666
0.091273108
0.093540863
0.095875444
0.098234978
0.10058911
0.10296586
0.10544276
0.10808469
0.11091963
0.11395452
0.11718915
0.1206166
0.12422028
0.12798266
0.13190151
0.13598932
0.1402489
0.14465726
0.14918701
0.15383649
0.15863449
0.16361613
0.16878062
0.17406711
0.17938178
0.18466266
0.18992431
0.19524631
0.20073219
0.20648115
0.21255815
0.21891268
0.22523306
0.23076423
0.23411291
0.2331425
0.22743672
0.21515606
0.19637003
0.17226456
0.14499883
0.11713975
0.090949973
0.067945216
0.048836388
0.033714911
0.022287271
0.014050019
0.008397172
0.0047166818
0.0024608649
0.0011797938
0.00053558736
0.00031706655
0.00050358231
0.0017780677
0.01270771
0.081380185
0.083070947
0.084874294
0.086793278
0.088827274
0.090965158
0.093180658
0.09543447
0.097689229
0.099943452
0.10225302
0.10469069
0.10729166
0.11005695
0.11298256
0.11607282
0.11933634
0.1227765
0.12638448
0.13014302
0.13404379
0.1381001
0.14233868
0.14677727
0.15140306
0.15618249
0.16109171
0.16612131
0.1712617
0.17650256
0.18184657
0.18730824
0.19290693
0.19866914
0.20464142
0.210865
0.21725562
0.2234426
0.22859914
0.23119905
0.22950452
0.22280137
0.20969177
0.1902454
0.16583867
0.13870426
0.11135287
0.08592228
0.063802034
0.045603259
0.031339562
0.020655775
0.013004381
0.007771875
0.0043696567
0.0022824931
0.001091103
0.00048187304
0.00025066764
0.00033890149
0.0011638308
0.0083117488
0.07969819
0.081253847
0.082917153
0.084689987
0.086572276
0.088560211
0.090643919
0.092801536
0.094993418
0.097177413
0.099355109
0.10159407
0.10397642
0.10654668
0.10931161
0.11225811
0.11537022
0.11864143
0.1220769
0.12567844
0.12942026
0.13324987
0.13713401
0.14111344
0.14528617
0.14971528
0.1543626
0.15911049
0.16384333
0.16853062
0.17325456
0.17816375
0.18337954
0.18894875
0.19485688
0.20105768
0.20747683
0.21395575
0.22007638
0.22492239
0.22675013
0.22438783
0.21679348
0.2029667
0.1832669
0.15915368
0.13280303
0.10652935
0.082236488
0.061141729
0.043776642
0.030144132
0.019911621
0.012566235
0.0075296707
0.0042452161
0.0022228262
0.0010616046
0.00045857505
0.00020762732
0.00021569346
0.00069344885
0.0049404153
0.078182182
0.079606004
0.081125356
0.082746511
0.084479571
0.086329645
0.088288513
0.090337241
0.092449676
0.094589841
0.096721955
0.098848724
0.10102463
0.10331272
0.10576048
0.1084022
0.11125459
0.1143136
0.11756328
0.12099077
0.12458888
0.12833635
0.13217691
0.13604642
0.13993811
0.14391813
0.14807826
0.15247266
0.15707271
0.16177568
0.16647717
0.17116267
0.17592363
0.18090738
0.18625518
0.19204333
0.19825581
0.20477984
0.21135845
0.2174547
0.22207147
0.22312262
0.2202005
0.21173443
0.19696985
0.17662231
0.15231705
0.12627789
0.1007392
0.077439933
0.057416628
0.041055253
0.028271705
0.01869901
0.011828599
0.0071092313
0.0040210281
0.0021109768
0.0010079891
0.00042827445
0.00017171908
0.00012620987
0.00036174424
0.00257631
0.076792816
0.078096084
0.079499562
0.08100608
0.082613322
0.084319523
0.086127887
0.088038631
0.090034465
0.09207943
0.094132284
0.096177267
0.098251693
0.10041831
0.10270911
0.1051272
0.10767695
0.11038015
0.11327297
0.11637812
0.11968728
0.12317864
0.12683975
0.13065544
0.1345841
0.13857156
0.14258886
0.14665183
0.15081058
0.15511364
0.15956705
0.16413906
0.16880001
0.17356696
0.17850341
0.18368681
0.18919924
0.19509214
0.20132746
0.2076836
0.21361194
0.21808983
0.21884701
0.2157845
0.20724043
0.19260003
0.17256496
0.14884297
0.12359043
0.098884655
0.076311315
0.05682802
0.040820011
0.028238808
0.018762545
0.0119219
0.0071964606
0.0040868231
0.0021522392
0.0010277737
0.00043068287
0.0001571047
8.1311966e-05
0.00020313348
0.0014631619
0.076733965
0.078015234
0.079386074
0.080859989
0.0824445
0.084138451
0.085933916
0.087819974
0.089778591
0.09177789
0.093778585
0.095771156
0.09780468
0.099954593
0.1022663
0.1047439
0.10736689
0.11011392
0.11298143
0.11599062
0.11916171
0.12247831
0.12590373
0.12944023
0.13314031
0.13703815
0.14109835
0.14524479
0.14942076
0.15361295
0.15784472
0.16215396
0.16657582
0.17115232
0.17592721
0.18094529
0.18625534
0.19188791
0.19778906
0.20371507
0.2090895
0.21285933
0.21272414
0.20891366
0.19958078
0.18450883
0.16461805
0.14162625
0.11758468
0.094350101
0.073242767
0.05499364
0.039874707
0.027847959
0.018669296
0.01195985
0.007271653
0.0041551587
0.0021995174
0.0010544535
0.00044210408
0.0001574925
6.8775914e-05
0.00015146577
0.0010962744
0.075490607
0.076676056
0.077948369
0.079303218
0.08073701
0.082262579
0.083899497
0.085649746
0.087493934
0.089397201
0.091317265
0.093225255
0.095135894
0.097098935
0.09915389
0.10133418
0.10369305
0.10626554
0.10903331
0.11195417
0.11501315
0.11821759
0.1215605
0.12500362
0.12850988
0.132094
0.13582227
0.13974662
0.14384944
0.14804652
0.15224769
0.15643117
0.16065235
0.16500667
0.16958079
0.17442046
0.1795348
0.18492232
0.19058154
0.19645859
0.20231138
0.20752194
0.21094393
0.2103717
0.20594187
0.19604848
0.18070849
0.1610206
0.13873087
0.11570578
0.093496801
0.07317797
0.055408667
0.040511657
0.028525124
0.019271869
0.012432721
0.0076056675
0.0043688042
0.0023227592
0.0011175789
0.00046912423
0.00016147921
4.2984816e-05
2.1447119e-05
0.00012119127
0.074369296
0.0754582
0.076632374
0.077897874
0.079256678
0.080698019
0.08221216
0.083802322
0.08548362
0.087261617
0.089110258
0.090974372
0.092815807
0.094671849
0.096622959
0.098698913
0.10087837
0.1031624
0.10559844
0.1082332
0.11105952
0.11403464
0.1171434
0.12040251
0.12379757
0.12727539
0.13080737
0.13442394
0.13817997
0.14208846
0.1460916
0.15010536
0.15409274
0.15810848
0.16227336
0.16669688
0.17142756
0.17646429
0.18179462
0.18740089
0.19319484
0.19887736
0.20374473
0.20648041
0.20534857
0.20002667
0.18935344
0.17364512
0.15418063
0.13270513
0.11091371
0.090114014
0.071154172
0.054509302
0.040383806
0.028806128
0.019691774
0.012832114
0.007915005
0.0045764354
0.0024460728
0.001182834
0.00050032706
0.00017566767
4.975592e-05
2.6976434e-05
0.00014779999
0.073328507
0.074320605
0.075400055
0.07656218
0.077801496
0.079133844
0.080571847
0.08209548
0.083681335
0.085327512
0.08703794
0.088799215
0.09057648
0.092343167
0.094133194
0.096032606
0.098100931
0.10032679
0.10266285
0.10510065
0.10768236
0.11045136
0.11340227
0.1164954
0.11970408
0.12302169
0.1264381
0.1299348
0.13350217
0.13715619
0.14091548
0.14475755
0.1486257
0.1524841
0.15637523
0.16040715
0.164689
0.16928259
0.17419971
0.17942446
0.18491726
0.19054986
0.19596011
0.20036155
0.20230494
0.20053319
0.19436769
0.18304787
0.16713814
0.14804238
0.12747581
0.10696931
0.087596947
0.069965824
0.054312261
0.040770914
0.02945203
0.020368932
0.013409845
0.0083429068
0.0048577871
0.0026113251
0.0012695629
0.00054170717
0.00019619849
6.7527144e-05
7.2536367e-05
0.00046093891
0.073307498
0.074286131
0.07534703
0.076495754
0.077723026
0.079020773
0.080410393
0.081916176
0.083519092
0.085180891
0.086875176
0.088578509
0.090267663
0.091952541
0.093687995
0.095531695
0.097526081
0.099701163
0.10204554
0.10451581
0.10709586
0.10981459
0.11269346
0.11571021
0.11882142
0.12201573
0.12531957
0.12874916
0.13228291
0.13589221
0.13956463
0.14329021
0.14705474
0.15084821
0.15470153
0.15868519
0.16287781
0.16733984
0.1721091
0.17719583
0.18256437
0.18805644
0.19324977
0.19729148
0.19861236
0.19635154
0.18957178
0.17785001
0.1620036
0.14356001
0.12415576
0.10506873
0.087067013
0.07051321
0.055550536
0.042339855
0.031037399
0.021749543
0.014476555
0.0090836305
0.0053225247
0.00287475
0.0014041771
0.00060509731
0.00022917202
0.00010212433
0.00017305794
0.0011624304
0.072391954
0.073289517
0.074258682
0.075304678
0.076437222
0.077655665
0.078944102
0.080298758
0.081738352
0.083284004
0.084921831
0.086607701
0.088292151
0.089944119
0.091586536
0.093286429
0.095090224
0.09701832
0.09910044
0.10136635
0.10380861
0.10639681
0.10912029
0.11198159
0.11495987
0.11800991
0.12111318
0.12430272
0.12761725
0.1310556
0.13458363
0.13816309
0.14177672
0.14543033
0.14914595
0.15296492
0.15693543
0.16110559
0.16551937
0.17021347
0.17519934
0.18044043
0.18576516
0.19072169
0.19442738
0.19518543
0.19250625
0.1852383
0.17323675
0.15750962
0.13967528
0.12133355
0.10360603
0.087020398
0.071553677
0.057284024
0.044365641
0.033015542
0.023448512
0.015787874
0.010000244
0.0059026033
0.0032056589
0.0015732917
0.00068329828
0.00026671545
0.00013616974
0.0002674561
0.0018201874
0.071570273
0.072382076
0.073261322
0.07421795
0.075252111
0.076367808
0.077573542
0.078861711
0.080211767
0.08162078
0.083103893
0.084666893
0.086288145
0.087925268
0.089551202
0.091195476
0.092914565
0.094728459
0.096633636
0.098644614
0.10080504
0.10314251
0.10565648
0.10833735
0.11117374
0.11413214
0.11715742
0.12022062
0.12334487
0.12656868
0.12990172
0.13331428
0.13676348
0.14024015
0.14377288
0.14741187
0.15119913
0.15515779
0.15930815
0.16368263
0.16832128
0.17324026
0.17839865
0.18360041
0.18835237
0.19174775
0.19179576
0.18865735
0.18089543
0.16872563
0.15340349
0.13659093
0.11966647
0.10339582
0.088067945
0.073615411
0.059981143
0.047273172
0.035754912
0.025755154
0.017539179
0.01120447
0.006653385
0.0036287292
0.0017875215
0.00078193361
0.00031524265
0.00018495055
0.00041119587
0.002828494
0.071555693
0.072372387
0.07324771
0.074190259
0.075202367
0.076287137
0.07746316
0.078738954
0.080093265
0.081503735
0.082967921
0.084482227
0.086022137
0.08755925
0.089099504
0.090702568
0.092428202
0.094278142
0.096220256
0.098237221
0.10035391
0.10260526
0.10502395
0.10762234
0.110392
0.1133021
0.11630335
0.11935725
0.12245845
0.12562196
0.12885482
0.13213669
0.1354362
0.13875901
0.14215305
0.14569286
0.14943017
0.15337916
0.15754016
0.16192446
0.16655357
0.17143111
0.17650601
0.18155943
0.18604899
0.18896533
0.1884739
0.18464321
0.17634906
0.1640292
0.14909188
0.13322219
0.11770498
0.10312993
0.089351352
0.076077987
0.063161148
0.050685066
0.038971559
0.028480023
0.019630404
0.012658104
0.0075660618
0.0041444347
0.0020482077
0.00090048528
0.00037045918
0.0002344594
0.00055115539
0.0038080339
0.070800414
0.07153599
0.07234927
0.073228036
0.074168121
0.075173765
0.076244341
0.07738384
0.078614802
0.079948124
0.081360615
0.082823336
0.08431558
0.085808437
0.087272679
0.088728263
0.090255208
0.091924861
0.093755142
0.095719905
0.097779434
0.099917543
0.1021459
0.10450215
0.10701442
0.10968765
0.11250498
0.11543671
0.11845256
0.12152986
0.12465774
0.12782734
0.13101437
0.13419707
0.1373945
0.14067154
0.14411356
0.14777361
0.15166333
0.15577983
0.16012796
0.16472007
0.16954833
0.1745417
0.17944113
0.18363571
0.18599532
0.18499673
0.18045811
0.17165612
0.15931098
0.14498801
0.13033358
0.11642801
0.10367475
0.091536859
0.079538181
0.067390123
0.055126577
0.04312323
0.03197738
0.02229606
0.014498465
0.0087160657
0.0047923807
0.0023747253
0.0010478661
0.00043787143
0.00029435722
0.00072257274
0.0050113086
0.070137338
0.070799322
0.071522848
0.072320504
0.073191197
0.074128752
0.07513555
0.076207309
0.077337167
0.078534227
0.079815468
0.081184959
0.082622261
0.084094118
0.085560409
0.086989828
0.088408824
0.089891878
0.09149514
0.093248892
0.095165836
0.097230545
0.099402756
0.10165637
0.1040039
0.10646504
0.10904748
0.11175216
0.11458195
0.1175306
0.12057108
0.12366871
0.12679076
0.12990409
0.13299866
0.13610272
0.13929136
0.14265044
0.14623358
0.150058
0.15412468
0.15843206
0.16298042
0.1677482
0.17264444
0.17737352
0.18126815
0.18310394
0.18165943
0.17652538
0.16730333
0.15497021
0.14127193
0.12794039
0.11600703
0.1051551
0.094711851
0.084027217
0.072666261
0.060588222
0.048211053
0.036272783
0.025582474
0.016774451
0.010141129
0.0055956638
0.0027786583
0.0012284047
0.0005169734
0.00035794436
0.00089777131
0.0062389012
0.07012499
0.070791949
0.071516947
0.072304597
0.073159002
0.074079572
0.075074182
0.076145864
0.07728197
0.078474391
0.079729566
0.081051433
0.082430669
0.083844884
0.085262884
0.086666437
0.088088136
0.089579172
0.091160029
0.092848616
0.094680965
0.096683501
0.098832495
0.10109194
0.10344537
0.10588749
0.10841385
0.11102891
0.11375444
0.11660662
0.11957099
0.12260919
0.12567452
0.12872774
0.13176643
0.13482299
0.13797066
0.1412809
0.14479909
0.14854927
0.15254356
0.15678626
0.16127631
0.16598149
0.17078689
0.17535622
0.17897105
0.18031698
0.17846232
0.17283202
0.16337996
0.15138092
0.13872094
0.1269846
0.11683437
0.10777326
0.098953479
0.089577057
0.079092633
0.067267037
0.054470406
0.041574349
0.029645232
0.019593298
0.011909282
0.0065933188
0.0032798042
0.0014508113
0.00061136082
0.00042815983
0.0010857998
0.0075556964
0.069526649
0.070116798
0.070779323
0.071505749
0.072291405
0.073138367
0.074043553
0.075010303
0.076057822
0.077188682
0.078384392
0.079636037
0.080940466
0.082279886
0.083624288
0.084955001
0.086293344
0.087700866
0.089213501
0.090814704
0.092493502
0.09427401
0.096197781
0.098276462
0.10050302
0.10285298
0.10529261
0.10779374
0.11035435
0.11300208
0.11576277
0.11863356
0.12158239
0.12456173
0.12753721
0.13051448
0.13353196
0.13665295
0.13993101
0.14340454
0.14710308
0.15104437
0.15523489
0.15967075
0.16431046
0.16901817
0.17342028
0.17675751
0.17760454
0.1753513
0.16927543
0.15966617
0.14805277
0.13644223
0.1263616
0.11818686
0.11108489
0.10413297
0.096381685
0.086921755
0.075429265
0.062169614
0.048128531
0.034687535
0.023102558
0.014115014
0.0078384416
0.0039042429
0.0017257769
0.00072378096
0.00050293074
0.0012755713
0.0088817311
0.068999554
0.069529858
0.070115455
0.070765822
0.0714842
0.072269684
0.073116883
0.074019636
0.074975785
0.075996065
0.07709449
0.078270572
0.079513602
0.080810007
0.082131514
0.083435158
0.084695045
0.085953844
0.087307019
0.088803463
0.090419489
0.092118731
0.093896109
0.09577777
0.09778984
0.099956498
0.10226915
0.10468806
0.10716981
0.10970105
0.11230047
0.11498722
0.11776125
0.12059975
0.1234668
0.12634659
0.1292555
0.13224036
0.13534843
0.13860959
0.14205071
0.14570195
0.14958753
0.15372171
0.15810219
0.16267866
0.16728925
0.17151564
0.17455862
0.17480971
0.17212877
0.16561732
0.1559543
0.14494863
0.13467659
0.12649726
0.12044234
0.11574993
0.11133697
0.10560164
0.097296014
0.085953201
0.071993368
0.056431286
0.041054009
0.02753067
0.016899259
0.0094101161
0.00469136
0.0020701779
0.00086019056
0.00058415214
0.0014690342
0.010229416
0.06898793
0.069524734
0.070117125
0.070765733
0.071471912
0.072241707
0.073080364
0.073984361
0.074942357
0.075952129
0.077024198
0.078165487
0.079373908
0.080641662
0.081941712
0.083222392
0.084449051
0.085666765
0.08696903
0.088410662
0.089997762
0.091704353
0.093501811
0.095380874
0.09736014
0.099474914
0.10173343
0.1041074
0.1065568
0.10906341
0.1116324
0.11427025
0.11697076
0.11971042
0.12246296
0.12523505
0.12805913
0.13098963
0.13406203
0.13729309
0.14070327
0.14431794
0.14815993
0.15224493
0.1565692
0.16107458
0.16557306
0.16959806
0.17228002
0.1719842
0.16878207
0.16188425
0.15226362
0.14195812
0.1331411
0.12718023
0.12370459
0.12211842
0.12059899
0.11721642
0.11034576
0.099235304
0.08425341
0.06684853
0.049083208
0.033137334
0.020432372
0.011406185
0.0056901729
0.0025047908
0.0010271964
0.00067176479
0.0016596333
0.011550527
0.068516734
0.068981101
0.069513592
0.070108478
0.070759681