/*--------------------------------*- C++ -*----------------------------------*\
| =========                 |                                                 |
| \\      /  F ield         | OpenFOAM: The Open Source CFD Toolbox           |
|  \\    /   O peration     | Version:  2506                                  |
|   \\  /    A nd           | Website:  www.openfoam.com                      |
|    \\/     M anipulation  |                                                 |
\*---------------------------------------------------------------------------*/
FoamFile
{
    version     2.0;
    format      ascii;
    arch        "LSB;label=32;scalar=64";
    class       volScalarField;
    location    "0.3";
    object      k;
}
// * * * * * * * * * * * * * * * * * * * * * * * * * * * * * * * * * * * * * //

dimensions      [0 2 -2 0 0 0 0];

internalField   nonuniform List<scalar> 
1376
(
11.199072
10.161568
9.5220306
9.0873556
8.767482
8.5209824
8.32493
8.1651493
8.0328336
7.9221273
7.828572
7.748871
7.6802801
7.6208523
7.5692071
7.5240597
7.4843347
7.4493843
7.4186259
7.3916435
7.36746
7.3462658
7.3278163
7.3116483
7.2974558
7.2852883
7.2758936
7.2698564
7.2666493
7.2672945
7.2720195
7.2848248
7.3063603
7.3322972
7.3619265
7.3983846
7.4392352
7.4921279
7.5546056
7.6305498
7.7256752
7.8429758
8.0130545
8.2088582
8.3848644
8.7194827
9.0055906
10.502382
10.653621
11.181432
10.195294
9.5774686
9.1456546
8.8244912
8.5753248
8.3760894
8.2130819
8.0775844
7.9638132
7.8673504
7.7849112
7.7137546
7.6519835
7.5980064
7.5510046
7.509509
7.4728384
7.4404899
7.4119956
7.3865612
7.3640148
7.3443224
7.3268948
7.3118631
7.2987865
7.288268
7.2810301
7.277027
7.2758163
7.2801614
7.2918405
7.3115632
7.3347123
7.3627255
7.3974721
7.440678
7.4873659
7.5444366
7.615837
7.707749
7.8182699
7.9768647
8.1527389
8.3904466
8.6361986
8.8695482
10.316882
10.352805
11.259718
10.298832
9.6718212
9.2321844
8.9038361
8.6477941
8.4423331
8.2737519
8.1332373
8.0148866
7.9142765
7.8280312
7.7534776
7.6885536
7.6317236
7.582221
7.5383466
7.49954
7.4652229
7.434933
7.407829
7.38369
7.3625315
7.3438286
7.3275073
7.313274
7.3013985
7.292903
7.2876337
7.2847863
7.2882513
7.2978767
7.3150249
7.3364759
7.3627818
7.3949116
7.4340719
7.4810406
7.53782
7.6073597
7.6919547
7.7982638
7.9315402
8.1153982
8.296272
8.5261589
8.8922126
10.162466
10.114099
11.303766
10.375303
9.7567127
9.3158041
8.9826757
8.7209632
8.5098752
8.3360737
8.1907199
8.0678767
7.9631278
7.8730197
7.7949183
7.726797
7.6670569
7.6147702
7.5684894
7.5274487
7.4910725
7.458827
7.4299647
7.4042267
7.3814389
7.361292
7.3435719
7.3282377
7.3150855
7.3050347
7.298251
7.2946245
7.2967827
7.3040074
7.3189366
7.3384897
7.3635425
7.394122
7.4311104
7.4748378
7.5278075
7.5928148
7.6769886
7.7788796
7.9233798
8.096343
8.2666409
8.4736231
8.7793783
9.9628018
9.9296337
11.35004
10.457569
9.8470359
9.4045953
9.0665871
8.7991396
8.5821145
8.4027626
8.2523339
8.1247094
8.0154525
7.921174
7.8393291
7.7678195
7.7049236
7.6496206
7.6007027
7.5572427
7.5185965
7.4841813
7.4534568
7.4258433
7.4013903
7.3797579
7.3605915
7.3438655
7.3294684
7.3178796
7.3097347
7.3048365
7.3048867
7.310403
7.3234127
7.3414916
7.3644625
7.3932988
7.4278405
7.4710992
7.5221899
7.5862089
7.6633124
7.7653417
7.8872633
8.0569579
8.2234783
8.4207851
8.7101242
9.8037941
9.7867866
11.391081
10.537436
9.9376876
9.495475
9.1534422
8.8804979
8.6576323
8.472735
8.3171107
8.1845367
8.0706595
7.9720744
7.8862741
7.8111496
7.7449497
7.6865139
7.6348121
7.5887602
7.5476727
7.5109213
7.4781713
7.4486968
7.422385
7.3990553
7.3784405
7.3602109
7.3444149
7.3313797
7.3214756
7.3153565
7.3135412
7.3178681
7.328057
7.3445773
7.3661602
7.393294
7.4262395
7.4660862
7.5151278
7.5772014
7.653596
7.7468578
7.878039
8.0322892
8.1886929
8.3797865
8.6540162
9.6437116
9.6771328
11.432289
10.615557
10.028069
9.587241
9.2422288
8.9642452
8.73593
8.5456475
8.3848256
8.2472327
8.1285303
8.0254463
7.9355186
7.856649
7.7870011
7.7253426
7.6706736
7.6218794
7.5782361
7.5390887
7.504095
7.4726738
7.4444267
7.4192528
7.3970129
7.3772479
7.3599695
7.3455484
7.3342298
7.3262246
7.3224244
7.325406
7.3335971
7.3481773
7.3683825
7.3930792
7.4240967
7.462728
7.510444
7.5670395
7.6428985
7.7332128
7.8538154
8.0064297
8.1696205
8.3484089
8.6035366
9.5115739
9.5931801
11.470207
10.691373
10.116982
9.6785678
9.3314118
9.0493056
8.8161025
8.6206617
8.4546819
8.3120693
8.1885167
8.0808974
7.9867677
7.9040108
7.8308068
7.7658219
7.7080514
7.6564088
7.6100847
7.5684761
7.5311362
7.4975911
7.4673113
7.4401983
7.4162741
7.3950168
7.3761337
7.360089
7.3471637
7.3376521
7.3322658
7.3330302
7.3393545
7.3524775
7.3708286
7.3937391
7.4227634
7.4588711
7.504564
7.5622763
7.6309068
7.7251553
7.8374513
7.9845508
8.1390968
8.3139672
8.5623905
9.4000155
9.5279283
11.503366
10.761338
10.201334
9.7675855
9.4198598
9.1346698
8.8971587
8.6968633
8.5258499
8.3783226
8.2500387
8.1379612
8.0396026
7.9529033
7.8760559
7.8076476
7.7466593
7.692053
7.642939
7.5987867
7.5590495
7.5232701
7.4908996
7.4618977
7.4361394
7.4131962
7.3927053
7.3751339
7.3606352
7.3493683
7.3426142
7.3403979
7.3456853
7.3575114
7.3736978
7.3947701
7.4216947
7.4567368
7.4996657
7.5535699
7.624487
7.707267
7.8293381
7.9656141
8.117264
8.2891381
8.5293564
9.301986
9.4766124
11.535595
10.828595
10.283374
9.8550252
9.5074133
9.2196542
8.9781526
8.7732534
8.5974044
8.4451321
8.3122775
8.1958173
8.0932765
8.0026676
7.9221457
7.8503042
7.7860641
7.7283959
7.6764737
7.6297264
7.5874733
7.5493932
7.5149873
7.4840022
7.4563664
7.4317213
7.4095986
7.3903721
7.3743118
7.3615238
7.3531256
7.3484015
7.3525474
7.362572
7.3768206
7.3960788
7.4210345
7.4538784
7.4956207
7.5476709
7.6132517
7.7013933
7.806283
7.9462145
8.0956796
8.2629065
8.4982171
9.2293742
9.4360488
11.565436
10.891864
10.362094
9.9407258
9.593861
9.3035375
9.0581521
8.8487724
8.6683126
8.5115
8.3742778
8.2536086
8.1470108
8.0525445
7.9683779
7.8930826
7.8255891
7.7648844
7.7101332
7.6607298
7.6160638
7.5756844
7.5391645
7.506173
7.4766393
7.4502997
7.42663
7.4057951
7.3881856
7.3739003
7.3637563
7.3569321
7.3597185
7.3677036
7.3801022
7.3976062
7.42143
7.4520352
7.4918692
7.5423781
7.6051941
7.6878754
7.8026677
7.9325426
8.0765143
8.242058
8.4749192
9.1678563
9.4034665
11.591632
10.949716
10.436395
10.021686
9.6762913
9.3841642
9.1355048
8.9220826
8.7374022
8.5763839
8.4350598
8.3103738
8.1998923
8.1016452
8.0138857
7.9351934
7.8644935
7.8007976
7.743292
7.6912906
7.6442087
7.6015764
7.5629968
7.5280567
7.496656
7.4685926
7.4433868
7.4209963
7.4018511
7.3860826
7.3741888
7.3659615
7.3666782
7.3724773
7.383611
7.3995737
7.4217243
7.4505664
7.4888528
7.5373005
7.6001097
7.6772455
7.7858252
7.9154015
8.0576202
8.2220193
8.4516156
9.117959
9.3780178
11.617011
11.000758
10.501738
10.093815
9.7509545
9.4587994
9.2081143
8.9915617
8.8032994
8.638529
8.4934243
8.3649414
8.2507336
8.1488487
8.0576441
7.9756946
7.9019359
7.8353774
7.775211
7.7207547
7.6714064
7.6266239
7.5860311
7.5491959
7.5159832
7.4862416
7.4595187
7.4356254
7.4149866
7.3978172
7.384262
7.3754465
7.3725611
7.3773749
7.3872067
7.4020439
7.4221625
7.4498517
7.4854743
7.5328992
7.5929827
7.6725182
7.7735796
7.900709
8.0418279
8.205452
8.434005
9.0765749
9.3581164
11.639241
11.049079
10.563084
10.161305
9.8200721
9.527131
9.2746472
9.0557223
8.8644867
8.6963987
8.5478317
8.4158227
8.2981387
8.192908
8.0985313
8.0135719
7.9369878
7.8677934
7.805154
7.7483826
7.6968774
7.6500951
7.6076173
7.5690203
7.5341159
7.5027738
7.4746224
7.4493896
7.4273937
7.408902
7.3939349
7.3839624
7.3784732
7.3823947
7.39079
7.4040848
7.423002
7.4487551
7.483601
7.5288684
7.587642
7.6637417
7.7663481
7.8898438
8.0285165
8.1907607
8.4208176
9.0456645
9.3432811
11.662863
11.091259
10.61529
10.218765
9.8801727
9.5876852
9.3342165
9.1132139
8.9192794
8.7482261
8.5965366
8.4614135
8.3406637
8.2324897
8.1353111
8.0476953
7.9685897
7.8970415
7.8322343
7.7734446
7.7200267
7.6714307
7.6272246
7.5870158
7.5505962
7.5178433
7.4884123
7.4619632
7.438734
7.4190337
7.4028274
7.3917298
7.3839497
7.3868975
7.394022
7.4059338
7.4235597
7.448332
7.4816757
7.5253167
7.5831833
7.6567789
7.75773
7.8790038
8.0164984
8.1795646
8.4074122
9.0178938
9.3330169
11.680543
11.124536
10.658633
10.268282
9.932548
9.6404665
9.3858059
9.1625921
8.9661404
8.7923864
8.6380199
8.5003232
8.3770614
8.2664486
8.1669175
8.0770745
7.995861
7.9223259
7.8556517
7.7951023
7.7400272
7.6898871
7.6442276
7.602648
7.5649265
7.5309381
7.5003621
7.4728301
7.4485018
7.4277204
7.4103672
7.3982437
7.3884552
7.3905086
7.3964603
7.4073075
7.4239804
7.4475539
7.4794266
7.5222551
7.5774334
7.6518289
7.749373
7.8698384
8.0080842
8.1734744
8.4012042
9.0086576
9.3273022
11.69773
11.154889
10.695913
10.308347
9.973556
9.6817456
9.4259535
9.2012665
9.0030985
8.8275553
8.6713298
8.5317218
8.4065255
8.2939842
8.1925809
8.1009574
8.0180615
7.9429337
7.8747481
7.8127582
7.7563134
7.70488
7.6580153
7.6153072
7.5765178
7.5415116
7.5099812
7.4815645
7.4563366
7.4346525
7.4163772
7.4033491
7.3919838
7.3932508
7.3983661
7.4084187
7.4243452
7.4470727
7.4781867
7.5196455
7.575055
7.6463448
7.7442723
7.8658844
8.0051662
8.1707223
8.401165
8.9999144
9.3247409
11.710067
11.175019
10.720477
10.335795
10.002784
9.7115221
9.455566
9.2301008
9.0308111
8.8539411
8.6962401
8.5550936
8.4283678
8.3143759
8.2116019
8.1186654
8.0345131
7.9581861
7.8888667
7.8257989
7.7683361
7.7159441
7.668189
7.6246459
7.5850652
7.5492944
7.5170312
7.4879761
7.4621514
7.4398513
7.4209559
7.407311
7.3950251
7.39588
7.4006064
7.4103238
7.4260004
7.4485285
7.4792933
7.5204981
7.5748125
7.6469757
7.7436638
7.8658074
8.0060999
8.1713144
8.4004748
8.9959168
9.3262774
11.71801
11.188184
10.736559
10.353561
10.02126
9.729951
9.4734364
9.2472404
9.0472245
8.8695684
8.7110639
8.5690872
8.4415074
8.3266583
8.2230333
8.1292635
8.0443004
7.9671979
7.897167
7.8334513
7.7753998
7.7224771
7.6742223
7.6302039
7.5901793
7.55399
7.5213161
7.4919546
7.4659242
7.4434242
7.4243604
7.4106145
7.3984545
7.3995244
7.4043532
7.4141255
7.4299499
7.4527024
7.4836466
7.5250523
7.5800342
7.6525268
7.7509755
7.872471
8.0110497
8.1749813
8.4041128
9.0135388
9.333029
11.720648
11.192036
10.741049
10.358251
10.026041
9.7347872
9.4783027
9.2520193
9.0518093
8.8739179
8.7151553
8.5729082
8.4450501
8.3298968
8.2259497
8.1318652
8.0466066
7.9692524
7.899025
7.8351588
7.7770043
7.7240211
7.6757082
7.2666216
7.2921647
7.3228785
7.3595432
7.4034231
7.4567231
7.521546
7.6008688
7.6990102
7.8224411
7.9803731
8.1886267
8.473936
8.9008117
9.6284028
7.1790491
7.1722706
7.1705018
7.1699886
7.1729245
7.1777039
7.1844974
7.1927645
7.2030143
7.2156109
7.2303728
7.2476185
7.2681413
7.2920479
7.3197351
7.352587
7.3916857
7.4381938
7.4944949
7.5627086
7.6458939
7.7485699
7.8772055
8.0415334
8.2578145
8.5532235
8.9948828
9.7430546
7.6048939
7.5257097
7.4506917
7.4010919
7.35194
7.3073325
7.2672847
7.232669
7.2066206
7.1930699
7.1850794
7.181278
7.1802989
7.1817013
7.1859531
7.1922528
7.2004775
7.2100409
7.2216898
7.2357684
7.2517928
7.2705039
7.2927633
7.3184328
7.3482993
7.3834294
7.4250891
7.4744777
7.5339333
7.6057245
7.6930632
7.8006046
7.9347872
8.10596
8.3308197
8.6373102
9.0951782
9.8656816
9.4965562
9.3494704
8.6817797
8.7594294
8.3090076
8.1366012
7.9079832
7.79319
7.6626981
7.5887404
7.5089879
7.4453507
7.3921085
7.3474599
7.3081784
7.2708067
7.2399657
7.2177881
7.2029904
7.1961016
7.1935829
7.1929147
7.1956077
7.2007243
7.20814
7.2174349
7.2281802
7.2410361
7.2562931
7.2737328
7.2941625
7.3183184
7.3459003
7.3779665
7.4155356
7.4598277
7.5123122
7.5751659
7.650751
7.7425174
7.8551817
7.995437
8.1738735
8.4078266
8.7263764
9.201467
9.9969206
12.676039
10.907483
9.3612744
9.3029256
8.6342449
8.6132009
8.238087
8.0495662
7.8863035
7.7401639
7.6383469
7.5785585
7.4982929
7.4315395
7.3843268
7.3415233
7.3048727
7.2694034
7.2396296
7.2217364
7.2112703
7.2063798
7.2049869
7.2051133
7.2094124
7.2156977
7.2243465
7.2342909
7.2465149
7.2607156
7.2773977
7.2965708
7.3187753
7.344738
7.3744617
7.4087718
7.4489602
7.4961221
7.5518482
7.6183019
7.6979714
7.7945074
7.9125925
8.0592901
8.2455672
8.4892107
8.8207744
9.3149152
10.137494
12.265284
10.940263
9.2812146
9.2060126
8.6197974
8.5083927
8.1805587
7.9969524
7.8357738
7.7311914
7.6286489
7.5579305
7.4860775
7.4263243
7.380584
7.3405897
7.3059635
7.2747561
7.2454157
7.2282836
7.219222
7.2158932
7.2159171
7.2171168
7.2225366
7.2303317
7.2402978
7.2517182
7.2652075
7.2809889
7.2992848
7.3200838
7.3441522
7.372105
7.4041207
7.440832
7.4838227
7.5340631
7.5931765
7.6634476
7.7475625
7.8491533
7.973098
8.1267001
8.321336
8.5754154
8.9210568
9.4359919
10.288314
11.89043
11.032263
9.2561437
9.1125959
8.5964086
8.4570006
8.1140182
7.9766622
7.8311403
7.713128
7.6266698
7.5468555
7.4747461
7.4238887
7.3760762
7.3382699
7.3056376
7.2761585
7.2511107
7.2353789
7.2284017
7.2264013
7.2273061
7.2302333
7.236879
7.2457899
7.2568756
7.2695734
7.2845528
7.3018863
7.3218206
7.3443106
7.370412
7.4004573
7.434887
7.4742592
7.5201741
7.5737036
7.6364549
7.7107935
7.7996442
7.9066675
8.0369031
8.1979135
8.4015298
8.666947
9.0278895
9.5654854
10.450191
11.542016
10.827181
9.2928901
9.0663784
8.5360095
8.3965449
8.0958034
7.9209749
7.7963437
7.6873385
7.5969929
7.5303721
7.4712515
7.4140968
7.371806
7.33558
7.305322
7.2773313
7.2553213
7.2425156
7.2374955
7.237263
7.2388864
7.2434982
7.2515528
7.2619247
7.2741249
7.2880409
7.3043175
7.3233938
7.3448754
7.3694573
7.3976393
7.4299089
7.466845
7.5090849
7.5580894
7.6151072
7.6817774
7.7605164
7.8543829
7.9672086
8.1042652
8.2732366
8.486599
8.7643341
9.1417478
9.7032408
10.624689
11.231118
10.731982
9.1617741
8.9031375
8.5110959
8.3129499
8.0402241
7.8988265
7.769209
7.6684813
7.5924549
7.5166726
7.4550165
7.4116006
7.3691891
7.3346439
7.3054876
7.2793072
7.2607874
7.2505149
7.2464841
7.2477745
7.2507711
7.2570584
7.2662799
7.2780833
7.2914869
7.3070612
7.32484
7.3455726
7.3688586
7.3954277
7.4258383
7.4605167
7.500052
7.5453152
7.5976703
7.6583882
7.729229
7.8126971
7.9119218
8.0309689
8.1752886
8.3528815
8.5767802
8.8679403
9.2633434
9.8505263
10.812673
10.952505
10.68516
9.109954
8.8213755
8.4449614
8.2521061
8.0035285
7.8800945
7.7451216
7.6477725
7.5663238
7.5059177
7.4522257
7.4045981
7.3658921
7.3332976
7.3061038
7.2817826
7.2663373
7.2589609
7.2562933
7.2585957
7.2630627
7.2710652
7.2818285
7.2946983
7.309374
7.3264283
7.3459903
7.3684566
7.3936066
7.4222618
7.4549766
7.4922116
7.5345203
7.5829792
7.6388955
7.7035376
7.7788101
7.8673249
7.9722842
8.0979912
8.2500265
8.4368762
8.6721133
8.977666
9.3927936
10.006743
11.012561
)
;

boundaryField
{
    Side
    {
        type            empty;
    }
    Inlet
    {
        type            turbulentIntensityKineticEnergyInlet;
        intensity       0.03;
        value           nonuniform List<scalar> 
30
(
11.974536
11.972474
11.966747
11.965993
11.962731
11.958073
11.957189
11.955753
11.953359
11.95331
11.953377
11.95413
11.956661
11.961411
11.966842
11.97333
11.979301
11.98468
11.9883
11.98959
12.051306
12.049323
12.047259
12.046097
12.046402
12.050669
12.054847
12.056858
12.024944
11.988262
)
;
    }
    Airfoil
    {
        type            kqRWallFunction;
        value           nonuniform List<scalar> 
25
(
10.653621
10.352805
10.114099
9.9296337
9.7867866
9.6771328
9.5931801
9.5279283
9.4766124
9.4360488
9.4034665
9.3780178
9.3581164
9.3432811
9.3330169
9.3273022
9.3247409
9.3262774
9.333029
12.676039
12.265284
11.89043
11.542016
11.231118
10.952505
)
;
    }
    Outlet
    {
        type            inletOutlet;
        inletValue      nonuniform List<scalar> 0();
        value           nonuniform List<scalar> 0();
    }
    procBoundary7to0
    {
        type            processor;
        value           nonuniform List<scalar> 
50
(
7.6316489
7.5916177
7.5554303
7.5227247
7.4933923
7.4674618
7.4450407
7.4260441
7.412422
7.4007458
7.4022254
7.4072751
7.4171908
7.4332319
7.4562991
7.4876147
7.5294724
7.5850838
7.6585851
7.7585653
7.8796037
8.0173677
8.1805526
8.4121127
9.0360589
9.3390071
11.717994
11.188187
10.736596
10.353576
10.021272
9.7299447
9.4734029
9.2471545
9.0470745
8.8693737
8.7108628
8.5688992
8.4413706
8.3265735
8.2229825
8.1292475
8.0443013
7.9672023
7.897171
7.83344
7.7753854
7.722464
7.6316489
7.6741765
)
;
    }
    procBoundary7to8
    {
        type            processor;
        value           nonuniform List<scalar> 
53
(
7.2419613
7.2654811
7.2941764
7.3285776
7.3700375
7.4205192
7.4821924
7.5578759
7.6517725
7.7702796
7.9222273
8.1230111
8.3991395
8.8119764
9.5214833
7.1693716
7.1615185
7.1593481
7.1575557
7.1597935
7.1632595
7.1692251
7.176006
7.1850114
7.1960655
7.2095309
7.2252935
7.2442656
7.2442656
7.6380169
7.5368967
7.4580155
7.4020884
7.3505897
7.3068059
7.2653757
7.2327499
7.2040079
7.1880796
7.1880796
9.6999056
9.4829473
8.7862068
8.7393256
8.292458
8.1423634
7.9395396
7.7922256
7.6740276
7.6740276
13.13205
10.976018
10.976018
)
;
    }
}


// ************************************************************************* //
