/*--------------------------------*- C++ -*----------------------------------*\
| =========                 |                                                 |
| \\      /  F ield         | OpenFOAM: The Open Source CFD Toolbox           |
|  \\    /   O peration     | Version:  2506                                  |
|   \\  /    A nd           | Website:  www.openfoam.com                      |
|    \\/     M anipulation  |                                                 |
\*---------------------------------------------------------------------------*/
FoamFile
{
    version     2.0;
    format      ascii;
    arch        "LSB;label=32;scalar=64";
    class       volScalarField;
    location    "0.3";
    object      rho;
}
// * * * * * * * * * * * * * * * * * * * * * * * * * * * * * * * * * * * * * //

dimensions      [1 -3 0 0 0 0 0];

internalField   nonuniform List<scalar> 
1376
(
0.66645135
0.66583868
0.66573402
0.66565459
0.66558509
0.66559748
0.66558828
0.66557487
0.66557167
0.66556752
0.66556018
0.66554917
0.66552798
0.66551596
0.66549168
0.66547971
0.66545732
0.66543463
0.66542155
0.66540259
0.66539731
0.6653693
0.66535279
0.66530457
0.66526965
0.66524373
0.66520595
0.66518249
0.6651718
0.6651244
0.66509233
0.66509316
0.66507575
0.66505995
0.66504947
0.66503812
0.66505139
0.66508598
0.66508076
0.66505579
0.66513165
0.66492411
0.6647015
0.66443644
0.66322252
0.66325395
0.66187187
0.66314483
0.65511318
0.66650151
0.66564333
0.66567116
0.66563631
0.6655692
0.66557465
0.66556264
0.66555805
0.66556284
0.66555909
0.66555466
0.66554116
0.6655309
0.66550928
0.66549122
0.66547684
0.66546257
0.66544849
0.66543788
0.6654152
0.66541707
0.6653937
0.6653826
0.6653503
0.6653182
0.66530164
0.66527288
0.66525629
0.66524797
0.66522578
0.66521066
0.66521171
0.66522302
0.66524312
0.66525232
0.66526117
0.66531514
0.66541243
0.66547904
0.66552687
0.66552593
0.66554351
0.6655709
0.66535027
0.66547159
0.66529822
0.66323406
0.66355053
0.65527033
0.66644594
0.66552848
0.66562112
0.6656126
0.6655694
0.66554969
0.6655425
0.66554816
0.66555551
0.66555197
0.665552
0.6655434
0.66552819
0.66550795
0.66550118
0.66548885
0.66548337
0.66546337
0.6654562
0.66542863
0.66543334
0.6654211
0.66541758
0.66539921
0.66536825
0.66535477
0.66533726
0.66532195
0.6653171
0.66533312
0.66532535
0.66532593
0.66537007
0.66541485
0.66545019
0.66548184
0.66556016
0.66569414
0.6658072
0.66593227
0.66597531
0.66620893
0.66640027
0.66642945
0.66612725
0.66566626
0.66550192
0.66532613
0.65730985
0.66652302
0.66559681
0.66558096
0.6656027
0.6655735
0.6655366
0.6655445
0.66554139
0.66555103
0.66554349
0.66554438
0.66553799
0.66553184
0.66552089
0.66551593
0.66550637
0.66549372
0.66547393
0.66547366
0.6654496
0.66545554
0.66545118
0.665454
0.66544121
0.66541849
0.66540711
0.66539996
0.66538683
0.66539275
0.66543431
0.66543464
0.66544514
0.66550807
0.66557883
0.66564148
0.66570067
0.66579891
0.6659642
0.6661402
0.6662893
0.66653993
0.66678394
0.66705221
0.66729317
0.66737334
0.66712754
0.66687508
0.66707183
0.6597914
0.66674096
0.66555886
0.66551636
0.66556775
0.66557047
0.66553969
0.66553108
0.66552386
0.66553709
0.66553584
0.66552718
0.66554264
0.66554081
0.66552284
0.66551043
0.66550554
0.66549666
0.6654884
0.66548833
0.66547412
0.66547725
0.66547841
0.66548545
0.6654819
0.66547093
0.66546403
0.66546326
0.66546099
0.66547731
0.66552705
0.66554928
0.6655692
0.66564619
0.66573961
0.6658243
0.66591244
0.66603413
0.66621312
0.66642235
0.66666874
0.66686584
0.66723698
0.66770185
0.66809899
0.66828004
0.66840761
0.66860384
0.66879773
0.66232508
0.66678707
0.66551285
0.6654506
0.6655346
0.66558205
0.66554053
0.66551746
0.66550701
0.66552487
0.6655333
0.66553587
0.66554742
0.66554072
0.66552943
0.6655297
0.66551646
0.66551668
0.66551001
0.66550494
0.66550054
0.66550131
0.66551024
0.66551895
0.66552352
0.66552536
0.66553221
0.66553325
0.66553898
0.66556474
0.66562186
0.66566506
0.66569387
0.66578101
0.6658973
0.66600932
0.66612502
0.66626749
0.66646635
0.66670332
0.6669858
0.66734746
0.66779206
0.6682498
0.66875536
0.669252
0.66948631
0.67021833
0.66991577
0.66576367
0.66689701
0.66552489
0.66542293
0.66552397
0.66557991
0.66553273
0.66550556
0.66550156
0.66552018
0.66553542
0.66554387
0.66555022
0.66555338
0.66554854
0.66554549
0.66553915
0.66554429
0.66553391
0.66552661
0.66553182
0.66553278
0.66554269
0.66555247
0.66557171
0.66558186
0.66559835
0.6656049
0.66561654
0.66565438
0.66571812
0.66577905
0.6658211
0.66591505
0.66605188
0.66619011
0.66633068
0.66649772
0.66671368
0.66697497
0.66730819
0.66770947
0.66818232
0.66876265
0.66934539
0.67012667
0.67064686
0.67158255
0.67137691
0.66932901
0.66702917
0.66556064
0.66539181
0.66550261
0.66557293
0.66552949
0.66550703
0.66550574
0.66551519
0.66553349
0.66554492
0.66554899
0.66555253
0.66555801
0.66555317
0.66554837
0.6655523
0.66555721
0.66555203
0.66556083
0.6655608
0.66557376
0.66559166
0.66561976
0.66563499
0.66566012
0.66567846
0.66569487
0.66574223
0.66581587
0.66589312
0.66595181
0.66605008
0.66620509
0.66636962
0.66653449
0.6667256
0.66696092
0.66724142
0.66759061
0.66807193
0.66865783
0.66924478
0.67001326
0.67081061
0.6717219
0.67263489
0.6735414
0.67246518
0.66715632
0.66560256
0.66534834
0.66547644
0.66557045
0.66552061
0.66549357
0.66549526
0.6655078
0.6655266
0.66553772
0.66554853
0.66555292
0.66555323
0.66555585
0.66556064
0.66556726
0.6655778
0.66557568
0.66558472
0.66559495
0.66561249
0.66563424
0.66566578
0.66568729
0.66572037
0.66575654
0.66577609
0.66582835
0.66591465
0.66600615
0.66608098
0.66618441
0.66635234
0.66654392
0.66673561
0.66694607
0.66721045
0.66750049
0.66787584
0.66839751
0.66901443
0.6697558
0.67055756
0.67145565
0.6728114
0.67381368
0.67511909
0.67527881
0.66732734
0.6656436
0.66519502
0.66546889
0.66563598
0.66553262
0.66547874
0.66547451
0.66549268
0.66551036
0.66552752
0.6655504
0.66555935
0.66555975
0.6655691
0.66557685
0.6655852
0.66559929
0.66560268
0.6656124
0.66563101
0.6656502
0.66567576
0.6657132
0.66574366
0.66577997
0.66583111
0.6658606
0.66591288
0.66600865
0.66611439
0.66620589
0.66631682
0.6664932
0.66670928
0.66692713
0.66715954
0.66744677
0.66776522
0.66815146
0.66868829
0.66940431
0.670187
0.67104092
0.67218693
0.67348332
0.67521334
0.6761961
0.67796828
0.66754307
0.66567092
0.66513234
0.6654664
0.66557592
0.66551815
0.66545628
0.66545501
0.66548171
0.66550558
0.66552548
0.66554975
0.66556661
0.66556705
0.66557436
0.66558586
0.66559725
0.66561506
0.66562722
0.66564098
0.66566383
0.66568683
0.66571514
0.66575773
0.66579678
0.66583723
0.6659012
0.66594628
0.66599945
0.66609888
0.66621709
0.66632288
0.66644249
0.66662547
0.66686274
0.66710892
0.66736438
0.66767252
0.66801955
0.66841277
0.66897508
0.66974041
0.67058088
0.67155962
0.67278666
0.67420659
0.67607908
0.67787552
0.68054751
0.66775428
0.66568168
0.66505383
0.66543273
0.66557991
0.6655086
0.66545299
0.66545154
0.66547902
0.66550722
0.66553017
0.66555133
0.66556994
0.66557429
0.66557998
0.66559303
0.66560904
0.66563222
0.66565203
0.66566994
0.66569419
0.66572152
0.66575324
0.66580162
0.66584909
0.66589289
0.66596553
0.66602954
0.6660892
0.66618718
0.6663137
0.66643338
0.66656218
0.66674931
0.66700142
0.66727647
0.66755682
0.66788494
0.66825776
0.66866838
0.66924227
0.67003287
0.67097551
0.67201896
0.67322167
0.67498882
0.67669215
0.67961079
0.68257824
0.66803686
0.66566077
0.6650318
0.66542664
0.6655658
0.66549762
0.6654472
0.66544298
0.66547134
0.66550219
0.66552232
0.66554505
0.66557028
0.6655803
0.66558907
0.66560361
0.66561889
0.66564391
0.66567162
0.66569591
0.66572213
0.66575368
0.66578991
0.66584279
0.66589883
0.66594666
0.66602388
0.66610371
0.66617544
0.66627408
0.6664054
0.66653788
0.66667601
0.66686513
0.6671253
0.66742449
0.6677341
0.66808029
0.66848217
0.66891358
0.66948651
0.67030088
0.67129533
0.67240058
0.67375138
0.67549128
0.67771266
0.68022418
0.684407
0.66819891
0.66566522
0.66497707
0.66538581
0.66554487
0.66548117
0.66543768
0.66542787
0.6654572
0.66549018
0.66551478
0.66554
0.66556255
0.66557492
0.66558698
0.66560746
0.66562851
0.66565407
0.66568552
0.6657148
0.66574319
0.66577828
0.66582057
0.66587781
0.66594234
0.66599472
0.66607396
0.66616586
0.66625236
0.66635721
0.66649139
0.66663433
0.66678301
0.6669744
0.66723645
0.66755234
0.66789081
0.66825875
0.66868466
0.66914514
0.66972389
0.6705516
0.67157998
0.67274208
0.67422194
0.67593537
0.6784558
0.6812597
0.68618196
0.66845142
0.66569862
0.66491343
0.66532732
0.66549934
0.66546706
0.66542715
0.66542375
0.66545604
0.66549321
0.66551868
0.66553733
0.66555905
0.6655734
0.66558608
0.66560807
0.66563482
0.66566257
0.66569742
0.66573256
0.66576384
0.66580054
0.66584747
0.66590697
0.66597772
0.66603538
0.66611576
0.66621575
0.66631519
0.66643074
0.6665691
0.66672008
0.66688051
0.66707619
0.6673363
0.66766017
0.66802449
0.66841726
0.66886209
0.66935617
0.66995182
0.67077563
0.67182966
0.67306351
0.67451993
0.67649558
0.67882067
0.6824609
0.68751186
0.66863135
0.66569612
0.66486496
0.66529572
0.66551279
0.665518
0.66547546
0.66547301
0.66548198
0.66550824
0.66552577
0.66553893
0.66556165
0.66557832
0.66559087
0.66561135
0.66564206
0.66567334
0.66571065
0.66575017
0.66578531
0.66582407
0.66587591
0.66593696
0.66601112
0.66607401
0.6661542
0.66625806
0.6663663
0.66649266
0.66663659
0.66679359
0.66696541
0.6671674
0.66742498
0.66774994
0.6681343
0.66855297
0.66901945
0.66954186
0.67016089
0.6709851
0.6720461
0.67332983
0.67485515
0.6768637
0.67942493
0.68301408
0.68860193
0.66885172
0.66573891
0.66484146
0.66529189
0.66549695
0.66554112
0.66549524
0.66546115
0.66545854
0.66548817
0.66551218
0.66553225
0.66555907
0.66558078
0.6655972
0.66561868
0.66565055
0.66568327
0.66572089
0.66576303
0.66580238
0.66584403
0.66590117
0.6659641
0.66603947
0.66610796
0.666189
0.66629487
0.66640876
0.6665431
0.6666921
0.66685352
0.66703499
0.66724407
0.66749899
0.66782082
0.66821883
0.66866126
0.66914639
0.66969685
0.67033735
0.67115866
0.67221721
0.67352396
0.67514845
0.67712454
0.6799436
0.68355168
0.68962398
0.66899366
0.66574271
0.66480331
0.66523093
0.66544829
0.66552104
0.66545234
0.66541835
0.66542449
0.66546343
0.66549967
0.66552705
0.66555577
0.66557842
0.66559868
0.66562393
0.66565746
0.66569041
0.66572673
0.66576951
0.66581125
0.66585461
0.66591582
0.66598038
0.6660552
0.66612838
0.66621207
0.66632014
0.66643927
0.66657899
0.66673085
0.66689529
0.66708373
0.66729777
0.66754822
0.66786186
0.66826284
0.66872013
0.66922217
0.66979779
0.67045907
0.67127176
0.6723179
0.67364552
0.67528511
0.67736698
0.68012336
0.68402178
0.69024174
0.66908966
0.66576033
0.66479105
0.66521131
0.66544369
0.66552286
0.66546629
0.66543127
0.66543544
0.66547077
0.66550056
0.66552428
0.66555188
0.66557478
0.66559727
0.66562487
0.66565923
0.66569176
0.66572655
0.6657694
0.66581165
0.66585514
0.66591873
0.6659843
0.66605682
0.66613091
0.66621592
0.66632537
0.66644912
0.66659171
0.66674305
0.66690886
0.66710146
0.66731698
0.66756067
0.66786402
0.66826233
0.66872595
0.66924064
0.66983746
0.67051285
0.67131239
0.67233674
0.67366386
0.67531872
0.67739554
0.6802029
0.68414598
0.69044026
0.66911998
0.66576629
0.66478168
0.66519052
0.66542937
0.66551807
0.66546223
0.66542615
0.66542681
0.66546197
0.66548884
0.6655115
0.66554027
0.66556454
0.6655885
0.66561783
0.66565399
0.66568811
0.66572322
0.66576642
0.66580845
0.6658521
0.66591673
0.66550375
0.66553876
0.66557447
0.66560653
0.66563684
0.66566982
0.66570291
0.665727
0.66574051
0.66575876
0.66575
0.66577713
0.665762
0.66578666
0.66617235
0.66458137
0.66468808
0.66480077
0.66490534
0.66499925
0.66508654
0.6651532
0.66521235
0.66527365
0.66532691
0.66538208
0.66542883
0.66545733
0.66549897
0.66553559
0.66557049
0.66560054
0.66563092
0.66566131
0.66568963
0.66571601
0.66573462
0.66575071
0.6657447
0.66578188
0.66575673
0.66581766
0.66616032
0.66247598
0.66298715
0.66330796
0.66351091
0.66369477
0.66386795
0.6640587
0.66423795
0.66438498
0.66452299
0.66464459
0.66473682
0.66482404
0.66492285
0.66501866
0.66509241
0.66516348
0.66522367
0.6652722
0.66533682
0.66538848
0.6654284
0.66545226
0.66549535
0.66553109
0.66556414
0.66559303
0.66562417
0.66564893
0.66566934
0.66570333
0.66573373
0.66574505
0.66573459
0.66577225
0.66575402
0.66582068
0.66615774
0.65532568
0.65875306
0.65784456
0.65972934
0.66000843
0.66118082
0.66158077
0.66200446
0.66241134
0.66293602
0.66322489
0.66346604
0.66365931
0.66382885
0.66399003
0.66417083
0.66434223
0.66448042
0.66461292
0.66471749
0.66479682
0.66488517
0.66497669
0.66504983
0.6651101
0.6651812
0.6652433
0.66529571
0.66534526
0.66537364
0.66541508
0.66545585
0.66549551
0.66552645
0.66556098
0.66558782
0.66561558
0.6656376
0.66565674
0.66569022
0.66572028
0.66573918
0.66572535
0.66575527
0.66573294
0.66581502
0.66614695
0.65143259
0.65759151
0.65458608
0.65961004
0.65756106
0.66036928
0.66154176
0.66153786
0.6619692
0.6625507
0.66302528
0.66316789
0.66348551
0.66371646
0.6638741
0.66400847
0.66414185
0.66429673
0.66445745
0.66456478
0.66467505
0.66477272
0.66484578
0.66493526
0.66501706
0.66507935
0.66514326
0.66521043
0.66526436
0.66532232
0.66535864
0.66538002
0.66541366
0.66546238
0.66549699
0.66552441
0.66555475
0.66558223
0.66560952
0.66562735
0.66565051
0.66568054
0.66569638
0.6657263
0.6657192
0.66574491
0.66570521
0.66583118
0.66613636
0.65186499
0.65729972
0.655394
0.66042544
0.65912647
0.66066243
0.66082436
0.66203311
0.66259938
0.66283917
0.66314624
0.66350686
0.6638122
0.66393961
0.66403795
0.66416294
0.66429365
0.66443709
0.66456959
0.66465594
0.66475116
0.6648298
0.66490201
0.66498147
0.66505201
0.6651072
0.66517144
0.66523614
0.66528428
0.6653317
0.66535497
0.66539677
0.66543092
0.66547078
0.66550456
0.66552489
0.66554906
0.66557745
0.66560056
0.66561775
0.66563779
0.66566749
0.66568469
0.66570746
0.66570523
0.66574245
0.66569676
0.66585926
0.66608835
0.65202093
0.65828689
0.65644192
0.66029972
0.65853896
0.66136891
0.66212011
0.66260529
0.6630186
0.66329098
0.66353193
0.66386357
0.66403884
0.66413574
0.66422725
0.6643386
0.66444845
0.66457536
0.66468525
0.66474711
0.66483539
0.66490629
0.66496719
0.66503661
0.66509804
0.66514361
0.66520638
0.66526069
0.66530231
0.66534492
0.66536606
0.66540525
0.66542778
0.66546597
0.66550437
0.66552805
0.66555241
0.66557066
0.66558972
0.66560532
0.66562792
0.66565041
0.66567028
0.66569316
0.66568597
0.66571882
0.66570332
0.66589091
0.66601185
0.65205123
0.658937
0.65600972
0.66182075
0.66033327
0.66249178
0.66270399
0.66305798
0.66350263
0.66381974
0.66397504
0.66413766
0.66431858
0.66436688
0.66444083
0.6645278
0.66461507
0.66471694
0.66479025
0.66483193
0.66491148
0.66497454
0.66503069
0.66509108
0.66514478
0.665187
0.66524628
0.6652893
0.66532356
0.66536249
0.66538204
0.66540942
0.66542766
0.66546626
0.66549645
0.66552601
0.66555007
0.66556134
0.66558341
0.66559973
0.66561246
0.66562843
0.66565143
0.66568109
0.6656705
0.66569629
0.66570093
0.66591492
0.66595742
0.65202391
0.65942909
0.65647151
0.66342978
0.66253388
0.66268394
0.66310095
0.66362803
0.66401234
0.66414962
0.66428478
0.66447847
0.66456122
0.66458793
0.66463073
0.66470445
0.66477268
0.66485377
0.66489515
0.66492524
0.66499827
0.66504223
0.66508929
0.66514164
0.66518867
0.66523092
0.66528767
0.66531824
0.6653472
0.66537516
0.66539265
0.66542373
0.66544191
0.66547229
0.66548791
0.66551429
0.66554091
0.66555617
0.66557811
0.66559253
0.6656024
0.66561434
0.66562656
0.66565631
0.66564859
0.66568954
0.66572247
0.6659487
0.6660297
0.65336869
0.66173517
0.65803384
0.66294424
0.6628026
0.66344868
0.66396924
0.66419617
0.66421827
0.66459737
0.66473662
0.66477408
0.66481165
0.66480417
0.6648357
0.66488411
0.66492726
0.66497349
0.66499645
0.66502763
0.66508859
0.6651124
0.66514675
0.66519101
0.665229
0.66526863
0.66532406
0.66534642
0.66537139
0.66538821
0.66540666
0.66543169
0.66545706
0.66547922
0.66549388
0.66550607
0.66552736
0.66555514
0.66556981
0.66558
0.66558551
0.66559912
0.66561076
0.6656235
0.66561899
0.66567986
0.66572992
0.66592533
0.66631631
)
;

boundaryField
{
    Side
    {
        type            empty;
    }
    Inlet
    {
        type            calculated;
        value           nonuniform List<scalar> 
30
(
0.6658171
0.66583001
0.66582654
0.66582095
0.66584212
0.66585073
0.6658505
0.66585412
0.66585872
0.66586112
0.66586136
0.66585803
0.66585168
0.6658405
0.66582769
0.6658134
0.66579937
0.66578701
0.66577865
0.66577567
0.66563982
0.66563831
0.66563881
0.66564359
0.66564752
0.6656412
0.6656253
0.6656188
0.6656827
0.66576692
)
;
    }
    Airfoil
    {
        type            calculated;
        value           nonuniform List<scalar> 
25
(
0.65511318
0.65527033
0.65730985
0.6597914
0.66232508
0.66576367
0.66932901
0.67246518
0.67527881
0.67796828
0.68054751
0.68257824
0.684407
0.68618196
0.68751186
0.68860193
0.68962398
0.69024174
0.69044026
0.65143259
0.65186499
0.65202093
0.65205123
0.65202391
0.65336869
)
;
    }
    Outlet
    {
        type            calculated;
        value           nonuniform List<scalar> 0();
    }
    procBoundary7to0
    {
        type            processor;
        value           nonuniform List<scalar> 
50
(
0.665983
0.66605318
0.66612619
0.66621168
0.6663218
0.66644846
0.66659079
0.66673987
0.66690754
0.66710275
0.66731694
0.66755511
0.66785303
0.66824925
0.66871458
0.66924042
0.66985362
0.67053411
0.67132058
0.67232866
0.6736481
0.67529789
0.67736847
0.68017044
0.68413811
0.69046919
0.6690896
0.66576531
0.6647885
0.66519947
0.6654331
0.66552673
0.66547587
0.6654376
0.66543805
0.66546635
0.66548984
0.66551248
0.66554193
0.66556558
0.66558937
0.66561855
0.66565571
0.6656915
0.66572603
0.66576747
0.66580838
0.66585304
0.665983
0.66591803
)
;
    }
    procBoundary7to8
    {
        type            processor;
        value           nonuniform List<scalar> 
53
(
0.6655078
0.66554151
0.66557857
0.66561148
0.66564457
0.66567793
0.66570956
0.66573742
0.6657487
0.66576505
0.66575435
0.66577804
0.66577206
0.66582391
0.66619069
0.6645304
0.66466904
0.66476671
0.66488556
0.66497581
0.66505423
0.66513426
0.66519648
0.66526299
0.6653249
0.6653743
0.66541614
0.66546151
0.66546151
0.66223321
0.66257773
0.66297612
0.66332021
0.66355865
0.66372433
0.66394604
0.66415893
0.66429077
0.66443968
0.66443968
0.65468054
0.65831766
0.65838314
0.659876
0.65829147
0.66055964
0.66109031
0.66177213
0.66208833
0.66208833
0.65140413
0.65721072
0.65721072
)
;
    }
}


// ************************************************************************* //
