/*--------------------------------*- C++ -*----------------------------------*\
| =========                 |                                                 |
| \\      /  F ield         | OpenFOAM: The Open Source CFD Toolbox           |
|  \\    /   O peration     | Version:  2506                                  |
|   \\  /    A nd           | Website:  www.openfoam.com                      |
|    \\/     M anipulation  |                                                 |
\*---------------------------------------------------------------------------*/
FoamFile
{
    version     2.0;
    format      ascii;
    arch        "LSB;label=32;scalar=64";
    class       volScalarField;
    location    "3e-05";
    object      T;
}
// * * * * * * * * * * * * * * * * * * * * * * * * * * * * * * * * * * * * * //

dimensions      [0 0 0 1 0 0 0];

internalField   nonuniform List<scalar> 
13761
(
245.48001
245.48001
245.48001
245.48001
245.48001
245.48001
245.48001
245.48001
245.48
245.48001
245.48
245.48001
245.48
245.48001
245.48
245.48001
245.48
245.48001
245.48
245.48001
245.48
245.48001
245.48
245.48001
245.48
245.48
245.48001
245.48
245.48
245.48001
245.48
245.48
245.48001
245.48
245.48
245.48001
245.48
245.48
245.48001
245.48
245.48
245.48001
245.48
245.48
245.48001
245.48
245.48
245.48
245.48001
245.48
245.48
245.48
245.48001
245.48
245.48
245.48
245.48001
245.48
245.48
245.48
245.48001
245.48
245.48
245.48
245.48001
245.48
245.48
245.48
245.48001
245.48
245.48
245.48
245.48
245.48
245.48
245.48
245.48
245.48
245.48
245.48
245.48
245.48
245.48
245.48
245.48
245.48
245.48
245.48
245.48
245.48
245.48
245.48
245.48
245.48
245.48
245.48
245.48
245.48
245.48
245.48
245.48
245.48
245.48
245.48
245.48
245.48
245.48
245.48
245.48
245.48
245.48
245.48
245.48
245.48
245.48
245.48
245.48
245.48
245.48
245.48
245.48
245.48
245.48
245.48
245.48
245.48
245.48
245.48
245.48
245.48
245.48
245.48
245.48
245.48
245.48
245.48
245.48
245.48
245.48
245.48
245.48
245.48
245.48
245.48
245.48
245.48
245.48
245.48
245.48
245.48
245.48
245.48
245.48
245.48
245.48
245.48
245.48
245.48
245.48
245.48
245.48
245.48
245.48
245.48
245.48
245.48
245.48
245.48
245.48
245.48
245.48
245.48
245.48
245.48
245.48
245.48
245.48
245.48
245.48
245.48
245.48
245.48
245.48
245.48
245.48
245.48
245.48
245.48
245.48
245.48
245.48
245.48
245.48
245.48
245.48
245.48
245.48
245.48
245.48
245.48
245.48
245.48
245.48
245.48
245.48
245.48
245.48
245.48
245.48
245.48
245.48
245.48
245.48
245.48
245.48
245.48
245.48
245.48
245.48
245.48
245.48
245.48
245.48
245.48
245.48
245.48
245.48
245.48
245.48
245.48
245.48
245.48
245.48
245.48
245.48
245.48
245.48
245.48
245.48
245.48
245.48
245.48
245.48
245.48
245.48
245.48
245.48
245.48
245.48
245.48
245.48
245.48
245.48
245.48
245.48
245.48
245.48
245.48
245.48
245.48
245.48
245.48
245.48
245.48
245.48
245.48
245.48
245.48
245.48
245.48
245.48
245.48
245.48
245.48
245.48
245.48
245.48
245.48
245.48
245.48
245.48
245.48
245.48
245.48
245.48
245.48
245.48
245.48
245.48
245.48
245.48
245.48
245.48
245.48
245.48
245.48
245.48
245.48
245.48
245.48
245.48
245.48
245.48
245.48
245.48
245.48
245.48
245.48
245.48
245.48
245.48
245.48
245.48
245.48
245.48
245.48
245.48
245.48
245.48
245.48
245.48
245.48
245.48
245.48
245.48
245.48
245.48
245.48
245.48
245.48
245.48
245.48
245.48
245.48
245.48
245.48
245.48
245.48
245.48
245.48
245.48
245.48
245.48
245.48
245.48
245.48
245.48
245.48
245.48
245.48
245.48
245.48
245.48
245.48
245.48
245.48
245.48
245.48
245.48
245.48
245.48
245.48
245.48
245.48
245.48
245.48
245.48
245.48
245.48
245.48
245.48
245.48
245.48
245.48
245.48
245.48
245.48
245.48
245.48
245.48
245.48
245.48
245.48
245.48
245.48
245.48
245.48
245.48
245.48
245.48
245.48
245.48
245.48
245.48
245.48
245.48
245.48
245.48
245.48
245.48
245.48
245.48
245.48
245.48
245.48
245.48
245.48
245.48
245.48
245.48
245.48
245.48
245.48
245.48
245.48
245.48
245.48
245.48
245.48
245.48
245.48
245.48
245.48
245.48
245.48
245.48
245.48
245.48
245.48
245.48
245.48
245.48
245.48
245.48
245.48
245.48
245.48
245.48
245.48
245.48
245.48
245.48
245.48
245.48
245.48
245.48
245.48
245.48
245.48
245.48
245.48
245.48
245.48
245.48
245.48
245.48
245.48
245.48
245.48
245.48
245.48
245.48
245.48
245.48
245.48
245.48
245.48
245.48
245.48
245.48
245.48
245.48
245.48
245.48
245.48
245.48
245.48
245.48
245.48
245.48
245.48
245.48
245.48
245.48
245.48
245.48
245.48
245.48
245.48
245.48
245.48
245.48
245.48
245.48
245.48
245.48
245.48
245.48
245.48
245.48
245.48
245.48
245.48
245.48
245.48
245.48
245.48
245.48
245.48
245.48
245.48
245.48
245.48
245.48
245.48
245.48
245.48
245.48
245.48
245.48
245.48
245.48
245.48
245.48
245.48
245.48
245.48
245.48
245.48
245.48
245.48
245.48
245.48
245.48
245.48
245.48
245.48
245.48
245.48
245.48
245.48
245.48
245.48
245.48
245.48
245.48
245.48
245.48
245.48
245.48
245.48
245.48
245.48
245.48
245.48
245.48
245.48
245.48
245.48
245.48
245.48
245.48
245.48
245.48
245.48
245.48
245.48
245.48
245.48
245.48
245.48
245.48
245.48
245.48
245.48
245.48
245.48
245.48
245.48
245.48
245.48
245.48
245.48
245.48
245.48
245.48
245.48
245.48
245.48
245.48
245.48
245.48
245.48
245.48
245.48
245.48
245.48
245.48
245.48
245.48
245.48
245.48
245.48
245.48
245.48
245.48
245.48
245.48
245.48
245.48
245.48
245.48
245.48
245.48
245.48
245.48
245.48
245.48
245.48
245.48
245.48
245.48
245.48
245.48
245.48
245.48
245.48
245.48
245.48
245.48
245.48
245.48
245.48
245.48
245.48
245.48
245.48
245.48
245.48
245.48
245.48
245.48
245.48
245.48
245.48
245.48
245.48
245.48
245.48
245.48
245.48
245.48
245.48
245.48
245.48
245.48
245.48
245.48
245.48
245.48
245.48
245.48
245.48
245.48
245.48
245.48
245.48
245.48
245.48
245.48
245.48
245.48
245.48
245.48
245.48
245.48
245.48
245.48
245.48
245.48
245.48
245.48
245.48
245.48
245.48
245.48
245.48
245.48
245.48
245.48
245.48
245.48
245.48
245.48
245.48
245.48
245.48
245.48
245.48
245.48
245.48
245.48
245.48
245.48
245.48
245.48
245.48
245.48
245.48
245.48
245.48
245.48
245.48
245.48
245.48
245.48
245.48
245.48
245.48
245.48
245.48
245.48
245.48
245.48
245.48
245.48
245.48
245.48
245.48
245.48
245.48
245.48
245.48
245.48
245.48
245.48
245.48
245.48
245.48
245.48
245.48
245.48
245.48
245.48
245.48
245.48
245.48
245.48
245.48
245.48
245.48
245.48
245.48
245.48
245.48
245.48
245.48
245.48
245.48
245.48
245.48
245.48
245.48
245.48
245.48
245.48
245.48
245.48
245.48
245.48
245.48
245.48
245.48
245.48
245.48
245.48
245.48
245.48
245.48
245.48
245.48
245.48
245.48
245.48
245.48
245.48
245.48
245.48
245.48
245.48
245.48
245.48
245.48
245.48
245.48
245.48
245.48
245.48
245.48
245.48
245.48
245.48
245.48
245.48
245.48
245.48
245.48
245.48
245.48
245.48
245.48
245.48
245.48
245.48
245.48
245.48
245.48
245.48
245.48
245.48
245.48
245.48
245.48
245.48
245.48
245.48
245.48
245.48
245.48
245.48
245.48
245.48
245.48
245.48
245.48
245.48
245.48
245.48
245.48
245.48
245.48
245.48
245.48
245.48
245.48
245.48
245.48
245.48
245.48
245.48
245.48
245.48
245.48
245.48
245.48
245.48
245.48
245.48
245.48
245.48
245.48
245.48
245.48
245.48
245.48
245.48
245.48
245.48
245.48
245.48
245.48
245.48
245.48
245.48
245.48
245.48
245.48
245.48
245.48
245.48
245.48
245.48
245.48
245.48
245.48
245.48
245.48
245.48
245.48
245.48
245.48
245.48
245.48
245.48
245.48
245.48
245.48
245.48
245.48
245.48
245.48
245.48
245.48
245.48
245.48
245.48
245.48
245.48
245.48
245.48
245.48
245.48
245.48
245.48
245.48
245.48
245.48
245.48
245.48
245.48
245.48
245.48
245.48
245.48
245.48
245.48
245.48
245.48
245.48
245.48
245.48
245.48
245.48
245.48
245.48
245.48
245.48
245.48
245.48
245.48
245.48
245.48
245.48
245.48
245.48
245.48
245.48
245.48
245.48
245.48
245.48
245.48
245.48
245.48
245.48
245.48
245.48
245.48
245.48
245.48
245.48
245.48
245.48
245.48
245.48
245.48
245.48
245.48
245.48
245.48
245.48
245.48
245.48
245.48
245.48
245.48
245.48
245.48
245.48
245.48
245.48
245.48
245.48
245.48
245.48
245.48
245.48
245.48
245.48
245.48
245.48
245.48
245.48
245.48
245.48
245.48
245.48
245.48
245.48
245.48
245.48
245.48
245.48
245.48
245.48
245.48
245.48
245.48
245.48
245.48
245.48
245.48
245.48
245.48
245.48
245.48
245.48
245.48
245.48
245.48
245.48
245.48
245.48
245.48
245.48
245.48
245.48
245.48
245.48
245.48
245.48
245.48
245.48
245.48
245.48
245.48
245.48
245.48
245.48
245.48
245.48
245.48
245.48
245.48
245.48
245.48
245.48
245.48
245.48
245.48
245.48
245.48
245.48
245.48
245.48
245.48
245.48
245.48
245.48
245.48
245.48
245.48
245.48
245.48
245.48
245.48
245.48
245.48
245.48
245.48
245.48
245.48
245.48
245.48
245.48
245.48
245.48
245.48
245.48
245.48
245.48
245.48
245.48
245.48
245.48
245.48
245.48
245.48
245.48
245.48
245.48
245.48
245.48
245.48
245.48
245.48
245.48
245.48
245.48
245.48
245.48
245.48
245.48
245.48
245.48
245.48
245.48
245.48
245.48
245.48
245.48
245.48
245.48
245.48
245.48
245.48
245.48
245.48
245.48
245.48
245.48
245.48
245.48
245.48
245.48
245.48
245.48
245.48
245.48
245.48
245.48
245.48
245.48
245.48
245.48
245.48
245.48
245.48
245.48
245.48
245.48
245.48
245.48
245.48
245.48
245.48
245.48
245.48
245.48
245.48
245.48
245.48
245.48
245.48
245.48
245.48
245.48
245.48
245.48
245.48
245.48
245.48
245.48
245.48
245.48
245.48
245.48
245.48
245.48
245.48
245.48
245.48
245.48
245.48
245.48
245.48
245.48
245.48
245.48
245.48
245.48
245.48
245.48
245.48
245.48
245.48
245.48
245.48
245.48
245.48
245.48
245.48
245.48
245.48
245.48
245.48
245.48
245.48
245.48
245.48
245.48
245.48
245.48
245.48
245.48
245.48
245.48
245.48
245.48
245.48
245.48
245.48
245.48
245.48
245.48
245.48
245.48
245.48
245.48
245.48
245.48
245.48
245.48
245.48
245.48
245.48
245.48
245.48
245.48
245.48
245.48
245.48
245.48
245.48
245.48
245.48
245.48
245.48
245.48
245.48
245.48
245.48
245.48
245.48
245.48
245.48
245.48
245.48
245.48
245.48
245.48
245.48
245.48
245.48
245.48
245.48
245.48
245.48
245.48
245.48
245.48
245.48
245.48
245.48
245.48
245.48
245.48
245.48
245.48
245.48
245.48
245.48
245.48
245.48
245.48
245.48
245.48
245.48
245.48
245.48
245.48
245.48
245.48
245.48
245.48
245.48
245.48
245.48
245.48
245.48
245.48
245.48
245.48
245.48
245.48
245.48
245.48
245.48
245.48
245.48
245.48
245.48
245.48
245.48
245.48
245.48
245.48
245.48
245.48
245.48
245.48
245.48
245.48
245.48
245.48
245.48
245.48
245.48
245.48
245.48
245.48
245.48
245.48
245.48
245.48
245.48
245.48
245.48
245.48
245.48
245.48
245.48
245.48
245.48
245.48
245.48
245.48
245.48
245.48
245.48
245.48
245.48
245.48
245.48
245.48
245.48
245.48
245.48
245.48
245.48
245.48
245.48
245.48
245.48
245.48
245.48
245.48
245.48
245.48
245.48
245.48
245.48
245.48
245.48
245.48
245.48
245.48
245.48
245.48
245.48
245.48
245.48
245.48
245.48
245.48
245.48
245.48
245.48
245.48
245.48
245.48
245.48
245.48
245.48
245.48
245.48
245.48
245.48
245.48
245.48
245.48
245.48
245.48
245.48
245.48
245.48
245.48
245.48
245.48
245.48
245.48
245.48
245.48
245.48
245.48
245.48
245.48
245.48
245.48
245.48
245.48
245.48
245.48
245.48
245.48
245.48
245.48
245.48
245.48
245.48
245.48
245.48
245.48
245.48
245.48
245.48
245.48
245.48
245.48
245.48
245.48
245.48
245.48
245.48
245.48
245.48
245.48
245.48
245.48
245.48
245.48
245.48
245.48
245.48
245.48
245.48
245.48
245.48
245.48
245.48
245.48
245.48
245.48
245.48
245.48
245.48
245.48
245.48
245.48
245.48
245.48
245.48
245.48
245.48
245.48
245.48
245.48
245.48
245.48
245.48
245.48
245.48
245.48
245.48
245.48
245.48
245.48
245.48
245.48
245.48
245.48
245.48
245.48
245.48
245.48
245.48
245.48
245.48
245.48
245.48
245.48
245.48
245.48
245.48
245.48
245.48
245.48
245.48
245.48
245.48
245.48
245.48
245.48
245.48
245.48
245.48
245.48
245.48
245.48
245.48
245.48
245.48
245.48
245.48
245.48
245.48
245.48
245.48
245.48
245.48
245.48
245.48
245.48
245.48
245.48
245.48
245.48
245.48
245.48
245.48
245.48
245.48
245.48
245.48
245.48
245.48
245.48
245.48
245.48
245.48
245.48
245.48
245.48
245.48
245.48
245.48
245.48
245.48
245.48
245.48
245.48
245.48
245.48
245.48
245.48
245.48
245.48
245.48
245.48
245.48
245.48
245.48
245.48
245.48
245.48
245.48
245.48
245.48
245.48
245.48
245.48
245.48
245.48
245.48
245.48
245.48
245.48
245.48
245.48
245.48
245.48
245.48
245.48
245.48
245.48
245.48
245.48
245.48
245.48
245.48
245.48
245.48
245.48
245.48
245.48
245.48
245.48
245.48
245.48
245.48
245.48
245.48
245.48
245.48
245.48
245.48
245.48
245.48
245.48
245.48
245.48
245.48
245.48
245.48
245.48
245.48
245.48
245.48
245.48
245.48
245.48
245.48
245.48
245.48
245.48
245.48
245.48
245.48
245.48
245.48
245.48
245.48
245.48
245.48
245.48
245.48
245.48
245.48
245.48
245.48
245.48
245.48
245.48
245.48
245.48
245.48
245.48
245.48
245.48
245.48
245.48
245.48
245.48
245.48
245.48
245.48
245.48
245.48
245.48
245.48
245.48
245.48
245.48
245.48
245.48
245.48
245.48
245.48
245.48
245.48
245.48
245.48
245.48
245.48
245.48
245.48
245.48
245.48
245.48
245.48
245.48
245.48
245.48
245.48
245.48
245.48
245.48
245.48
245.48
245.48
245.48
245.48
245.48
245.48
245.48
245.48
245.48
245.48
245.48
245.48
245.48
245.48
245.48
245.48
245.48
245.48
245.48
245.48
245.48
245.48
245.48
245.48
245.48
245.48
245.48
245.48
245.48
245.48
245.48
245.48
245.48
245.48
245.48
245.48
245.48
245.48
245.48
245.48
245.48
245.48
245.48
245.48
245.48
245.48
245.48
245.48
245.48
245.48
245.48
245.48
245.48
245.48
245.48
245.48
245.48
245.48
245.48
245.48
245.48
245.48
245.48
245.48
245.48
245.48
245.48
245.48
245.48
245.48
245.48
245.48
245.48
245.48
245.48
245.48
245.48
245.48
245.48
245.48
245.48
245.48
245.48
245.48
245.48
245.48
245.48
245.48
245.48
245.48
245.48
245.48
245.48
245.48
245.48
245.48
245.48
245.48
245.48
245.48
245.48
245.48
245.48
245.48
245.48
240.84501
240.84948
240.85907
240.87403
240.89117
240.90364
240.90823
240.90762
240.90361
240.89706
240.88854
240.8782
240.86604
240.85179
240.83504
240.81526
240.7918
240.764
240.73102
240.69207
240.64604
240.59173
240.52747
240.4512
240.36015
240.25113
240.12047
239.9647
239.78086
239.56723
239.32352
239.05108
238.75262
238.43283
238.1009
237.77437
237.48076
237.25094
237.10568
237.05005
237.08453
237.2067
237.39391
237.57618
237.72583
237.81446
237.80148
237.72222
237.51434
237.08467
236.52064
235.9477
235.27763
234.54178
233.23897
232.02614
232.26161
234.70808
238.11053
241.53286
244.00403
245.12471
245.43389
245.47985
245.48155
245.48046
245.48008
245.48001
245.48
245.48
245.48
245.48
245.48
245.48
245.48
245.48
245.48
245.48
245.48
245.48
245.48
245.48
245.48
245.48
245.48
245.48
245.48
245.48
245.48
245.48
245.48
245.48
245.48
245.48
245.48
245.48
245.48
245.48
245.48
245.48
245.48
245.48
245.48
245.48
245.48
245.48
245.48
245.48
245.48
245.48
245.48
245.48
245.48
245.48
245.48
245.48
245.48
245.48
245.48
245.48
245.48
245.48
245.48
245.48
245.48
240.7377
240.74629
240.76468
240.79354
240.82805
240.8558
240.87098
240.87789
240.87967
240.87788
240.87342
240.86664
240.85767
240.84636
240.83234
240.81516
240.79418
240.76875
240.73805
240.70127
240.65734
240.60503
240.54272
240.46835
240.37921
240.27211
240.14345
239.9898
239.80821
239.59697
239.35583
239.08619
238.79081
238.47441
238.14605
237.82304
237.53266
237.30572
237.16285
237.10837
237.14278
237.26485
237.45033
237.63063
237.77862
237.86647
237.85123
237.76968
237.56053
237.13402
236.57356
236.00219
235.33422
234.60336
233.30598
232.10389
232.34988
234.79668
238.18415
241.58377
244.02787
245.13117
245.4344
245.47957
245.48143
245.48043
245.48007
245.48001
245.48
245.48
245.48
245.48
245.48
245.48
245.48
245.48
245.48
245.48
245.48
245.48
245.48
245.48
245.48
245.48
245.48
245.48
245.48
245.48
245.48
245.48
245.48
245.48
245.48
245.48
245.48
245.48
245.48
245.48
245.48
245.48
245.48
245.48
245.48
245.48
245.48
245.48
245.48
245.48
245.48
245.48
245.48
245.48
245.48
245.48
245.48
245.48
245.48
245.48
245.48
245.48
245.48
245.48
245.48
245.48
240.80751
240.81549
240.83238
240.85863
240.88916
240.91251
240.9243
240.92871
240.92855
240.9251
240.91918
240.91107
240.90086
240.88837
240.87324
240.855
240.83302
240.80669
240.77519
240.73772
240.69323
240.64052
240.57796
240.50351
240.41445
240.30762
240.17941
240.02642
239.84573
239.63566
239.39599
239.12812
238.83473
238.52046
238.19423
237.87315
237.58428
237.35818
237.21547
237.16075
237.19436
237.31492
237.49939
237.67834
237.82558
237.91286
237.89834
237.81793
237.60925
237.1851
236.62798
236.06072
235.39762
234.67271
233.38384
232.18635
232.42783
234.86104
238.23139
241.61256
244.04002
245.13463
245.43521
245.47966
245.48141
245.48043
245.48007
245.48001
245.48
245.48
245.48
245.48
245.48
245.48
245.48
245.48
245.48
245.48
245.48
245.48
245.48
245.48
245.48
245.48
245.48
245.48
245.48
245.48
245.48
245.48
245.48
245.48
245.48
245.48
245.48
245.48
245.48
245.48
245.48
245.48
245.48
245.48
245.48
245.48
245.48
245.48
245.48
245.48
245.48
245.48
245.48
245.48
245.48
245.48
245.48
245.48
245.48
245.48
245.48
245.48
245.48
245.48
245.48
245.48
240.84319
240.85091
240.86719
240.89238
240.92129
240.94278
240.9533
240.95692
240.9562
240.95235
240.94611
240.93776
240.92736
240.91473
240.8995
240.88119
240.85921
240.83291
240.80152
240.76422
240.71998
240.66761
240.60549
240.53157
240.44316
240.33712
240.20986
240.05801
239.87868
239.67022
239.43242
239.16667
238.87559
238.56373
238.23989
237.92105
237.63414
237.40953
237.26759
237.21285
237.2459
237.36567
237.54872
237.72624
237.87285
237.95995
237.94524
237.86598
237.65696
237.2342
236.68113
236.11734
235.459
234.73905
233.45624
232.26402
232.50544
234.92963
238.28455
241.64739
244.05661
245.14061
245.43701
245.4801
245.48149
245.48043
245.48007
245.48001
245.48
245.48
245.48
245.48
245.48
245.48
245.48
245.48
245.48
245.48
245.48
245.48
245.48
245.48
245.48
245.48
245.48
245.48
245.48
245.48
245.48
245.48
245.48
245.48
245.48
245.48
245.48
245.48
245.48
245.48
245.48
245.48
245.48
245.48
245.48
245.48
245.48
245.48
245.48
245.48
245.48
245.48
245.48
245.48
245.48
245.48
245.48
245.48
245.48
245.48
245.48
245.48
245.48
245.48
245.48
245.48
240.87053
240.87841
240.895
240.92062
240.94964
240.97057
240.98056
240.98379
240.9828
240.97873
240.9723
240.96377
240.95321
240.94044
240.9251
240.90674
240.88476
240.85853
240.82726
240.79018
240.74624
240.69426
240.63264
240.55933
240.47166
240.36648
240.24026
240.08965
239.91181
239.70515
239.4695
239.20619
238.91777
238.6086
238.28729
237.97071
237.68566
237.4623
237.32073
237.26561
237.29785
237.4162
237.59773
237.77378
237.91949
238.00611
237.99145
237.91373
237.70561
237.28503
236.73456
236.1745
235.52141
234.80685
233.53093
232.34429
232.58462
234.99838
238.33743
241.68191
244.07315
245.14652
245.43878
245.48064
245.48167
245.48048
245.48008
245.48001
245.48
245.48
245.48
245.48
245.48
245.48
245.48
245.48
245.48
245.48
245.48
245.48
245.48
245.48
245.48
245.48
245.48
245.48
245.48
245.48
245.48
245.48
245.48
245.48
245.48
245.48
245.48
245.48
245.48
245.48
245.48
245.48
245.48
245.48
245.48
245.48
245.48
245.48
245.48
245.48
245.48
245.48
245.48
245.48
245.48
245.48
245.48
245.48
245.48
245.48
245.48
245.48
245.48
245.48
245.48
245.48
240.91222
240.91957
240.93504
240.95876
240.98502
241.0031
241.01121
241.01326
241.01144
241.00676
240.99986
240.99096
240.98009
240.96708
240.95156
240.93305
240.91096
240.88467
240.85341
240.8164
240.77259
240.72084
240.65952
240.58664
240.49951
240.39504
240.26971
240.12024
239.94385
239.739
239.50556
239.24487
238.95935
238.65319
238.33479
238.02078
237.73779
237.51573
237.37435
237.31838
237.34934
237.46637
237.64577
237.82027
237.96521
238.05135
238.03687
237.95994
237.75337
237.33561
236.78816
236.23134
235.58325
234.87395
233.60484
232.42431
232.66446
235.06843
238.39158
241.71727
244.08983
245.1521
245.44018
245.48097
245.48177
245.4805
245.48008
245.48001
245.48
245.48
245.48
245.48
245.48
245.48
245.48
245.48
245.48
245.48
245.48
245.48
245.48
245.48
245.48
245.48
245.48
245.48
245.48
245.48
245.48
245.48
245.48
245.48
245.48
245.48
245.48
245.48
245.48
245.48
245.48
245.48
245.48
245.48
245.48
245.48
245.48
245.48
245.48
245.48
245.48
245.48
245.48
245.48
245.48
245.48
245.48
245.48
245.48
245.48
245.48
245.48
245.48
245.48
245.48
245.48
240.93497
240.94257
240.95855
240.98297
241.00965
241.02754
241.03545
241.0374
241.03556
241.0309
241.02404
241.01518
241.00438
240.99142
240.97595
240.95748
240.93544
240.90919
240.87797
240.841
240.79725
240.74557
240.6844
240.61175
240.52501
240.42117
240.29678
240.14865
239.97407
239.77149
239.54073
239.28304
239.00074
238.69792
238.3829
238.07205
237.79149
237.57053
237.42884
237.37184
237.40141
237.51656
237.69373
237.86664
238.01054
238.09632
238.08217
238.00591
237.80084
237.38565
236.84139
236.28794
235.64448
234.94021
233.67821
232.50402
232.74414
235.13835
238.44552
241.75215
244.10582
245.15702
245.44114
245.48108
245.48177
245.48048
245.48008
245.48001
245.48
245.48
245.48
245.48
245.48
245.48
245.48
245.48
245.48
245.48
245.48
245.48
245.48
245.48
245.48
245.48
245.48
245.48
245.48
245.48
245.48
245.48
245.48
245.48
245.48
245.48
245.48
245.48
245.48
245.48
245.48
245.48
245.48
245.48
245.48
245.48
245.48
245.48
245.48
245.48
245.48
245.48
245.48
245.48
245.48
245.48
245.48
245.48
245.48
245.48
245.48
245.48
245.48
245.48
245.48
240.97467
240.98184
240.99683
241.01947
241.04356
241.05886
241.06507
241.06589
241.06321
241.05789
241.05049
241.04116
241.02993
241.01659
241.00077
240.982
240.95969
240.93323
240.90183
240.86474
240.82093
240.76926
240.7082
240.6358
240.54951
240.44637
240.32307
240.17645
240.00389
239.80384
239.57606
239.32166
239.04283
238.74357
238.43206
238.12443
237.84627
237.62627
237.48403
237.42574
237.45369
237.56683
237.7418
237.91329
238.05631
238.14171
238.12766
238.05172
237.8478
237.43513
236.89401
236.34375
235.70454
235.00471
233.74953
232.58173
232.82225
235.2073
238.49902
241.78683
244.12161
245.16164
245.44186
245.48108
245.48172
245.48047
245.48008
245.48001
245.48
245.48
245.48
245.48
245.48
245.48
245.48
245.48
245.48
245.48
245.48
245.48
245.48
245.48
245.48
245.48
245.48
245.48
245.48
245.48
245.48
245.48
245.48
245.48
245.48
245.48
245.48
245.48
245.48
245.48
245.48
245.48
245.48
245.48
245.48
245.48
245.48
245.48
245.48
245.48
245.48
245.48
245.48
245.48
245.48
245.48
245.48
245.48
245.48
245.48
245.48
245.48
245.48
245.48
245.48
241.00251
241.00973
241.02482
241.04746
241.07082
241.085
241.09052
241.09091
241.08796
241.08244
241.07488
241.06542
241.05409
241.04066
241.02476
241.00594
240.9836
240.95712
240.92575
240.88873
240.84504
240.79357
240.7328
240.66083
240.57514
240.47286
240.35075
240.20574
240.03527
239.83779
239.61302
239.36193
239.08656
238.79076
238.48259
238.17795
237.90199
237.68287
237.54005
237.48044
237.50684
237.61809
237.79095
237.96091
238.10306
238.18812
238.17429
238.09895
237.89604
237.48556
236.94748
236.40053
235.76557
235.07034
233.82183
232.65994
232.90009
235.27526
238.55118
241.82027
244.13665
245.16607
245.44266
245.48116
245.48172
245.48046
245.48008
245.48001
245.48
245.48
245.48
245.48
245.48
245.48
245.48
245.48
245.48
245.48
245.48
245.48
245.48
245.48
245.48
245.48
245.48
245.48
245.48
245.48
245.48
245.48
245.48
245.48
245.48
245.48
245.48
245.48
245.48
245.48
245.48
245.48
245.48
245.48
245.48
245.48
245.48
245.48
245.48
245.48
245.48
245.48
245.48
245.48
245.48
245.48
245.48
245.48
245.48
245.48
245.48
245.48
245.48
245.48
245.48
241.03745
241.04444
241.05897
241.08052
241.10212
241.11452
241.11886
241.11847
241.11493
241.10894
241.10099
241.09118
241.07953
241.06581
241.04965
241.0306
241.00806
240.98144
240.94998
240.91292
240.86927
240.81793
240.75739
240.68578
240.60065
240.49918
240.3782
240.23473
240.06624
239.87119
239.64923
239.40125
239.12914
238.83664
238.53169
238.22999
237.95626
237.73816
237.59504
237.53441
237.55944
237.66903
237.83995
238.00838
238.14976
238.23444
238.22083
238.14615
237.94423
237.53561
237.00055
236.45701
235.82655
235.13611
233.89442
232.73866
232.97884
235.34435
238.60423
241.85435
244.15212
245.17093
245.44378
245.48138
245.48175
245.48046
245.48008
245.48001
245.48
245.48
245.48
245.48
245.48
245.48
245.48
245.48
245.48
245.48
245.48
245.48
245.48
245.48
245.48
245.48
245.48
245.48
245.48
245.48
245.48
245.48
245.48
245.48
245.48
245.48
245.48
245.48
245.48
245.48
245.48
245.48
245.48
245.48
245.48
245.48
245.48
245.48
245.48
245.48
245.48
245.48
245.48
245.48
245.48
245.48
245.48
245.48
245.48
245.48
245.48
245.48
245.48
245.48
245.48
241.07449
241.08118
241.09501
241.11535
241.1349
241.14539
241.14852
241.1473
241.14313
241.13663
241.12822
241.11802
241.106
241.09195
241.07549
241.05616
241.0334
241.0066
240.97501
240.9379
240.89428
240.84307
240.78278
240.71156
240.627
240.52633
240.40643
240.26439
240.09772
239.90492
239.68564
239.44071
239.17191
238.88285
238.58124
238.2825
238.01095
237.79388
237.6506
237.58898
237.61245
237.72026
237.88914
238.05586
238.19638
238.2806
238.26745
238.19349
237.99266
237.58611
237.05418
236.51417
235.88841
235.20292
233.96825
232.81845
233.0584
235.41391
238.65753
241.88859
244.16779
245.17592
245.44494
245.48163
245.48182
245.48047
245.48008
245.48001
245.48
245.48
245.48
245.48
245.48
245.48
245.48
245.48
245.48
245.48
245.48
245.48
245.48
245.48
245.48
245.48
245.48
245.48
245.48
245.48
245.48
245.48
245.48
245.48
245.48
245.48
245.48
245.48
245.48
245.48
245.48
245.48
245.48
245.48
245.48
245.48
245.48
245.48
245.48
245.48
245.48
245.48
245.48
245.48
245.48
245.48
245.48
245.48
245.48
245.48
245.48
245.48
245.48
245.48
245.48
241.11096
241.11735
241.13048
241.14949
241.16704
241.17573
241.17769
241.17566
241.17088
241.16386
241.15502
241.14441
241.13203
241.11764
241.10086
241.08126
241.05825
241.03125
240.99953
240.96234
240.91873
240.86762
240.80756
240.73672
240.65273
240.55286
240.43407
240.29351
240.12876
239.93833
239.72187
239.48016
239.21487
238.92944
238.63139
238.3358
238.06654
237.85053
237.70698
237.64422
237.66594
237.77174
237.93837
238.10322
238.24288
238.32666
238.31406
238.24077
238.04104
237.63679
237.1082
236.57165
235.95052
235.26988
234.0422
232.89868
233.13877
235.48439
238.71159
241.92332
244.18366
245.18094
245.4461
245.48191
245.48192
245.4805
245.48008
245.48001
245.48
245.48
245.48
245.48
245.48
245.48
245.48
245.48
245.48
245.48
245.48
245.48
245.48
245.48
245.48
245.48
245.48
245.48
245.48
245.48
245.48
245.48
245.48
245.48
245.48
245.48
245.48
245.48
245.48
245.48
245.48
245.48
245.48
245.48
245.48
245.48
245.48
245.48
245.48
245.48
245.48
245.48
245.48
245.48
245.48
245.48
245.48
245.48
245.48
245.48
245.48
245.48
245.48
245.48
241.15471
241.16041
241.17203
241.18857
241.20282
241.20888
241.20918
241.20598
241.20029
241.19254
241.18305
241.17188
241.15898
241.14412
241.12691
241.10692
241.08357
241.05627
241.02432
240.98698
240.94331
240.89225
240.83237
240.76187
240.67842
240.57934
240.46167
240.3226
240.15979
239.97179
239.75825
239.51987
239.25824
238.97662
238.68227
238.38995
238.12307
237.90809
237.76421
237.7002
237.72009
237.8238
237.98807
238.15097
238.28972
238.37311
238.36118
238.2887
238.09018
237.6881
237.16287
236.62977
236.01339
235.33761
234.11698
232.97965
233.21972
235.55532
238.76592
241.95814
244.1995
245.18589
245.44722
245.48217
245.482
245.48052
245.48009
245.48001
245.48
245.48
245.48
245.48
245.48
245.48
245.48
245.48
245.48
245.48
245.48
245.48
245.48
245.48
245.48
245.48
245.48
245.48
245.48
245.48
245.48
245.48
245.48
245.48
245.48
245.48
245.48
245.48
245.48
245.48
245.48
245.48
245.48
245.48
245.48
245.48
245.48
245.48
245.48
245.48
245.48
245.48
245.48
245.48
245.48
245.48
245.48
245.48
245.48
245.48
245.48
245.48
245.48
245.48
241.18381
241.18937
241.20065
241.21638
241.22916
241.23407
241.23375
241.23016
241.2242
241.21624
241.20659
241.19528
241.18225
241.16727
241.14997
241.1299
241.10651
241.07921
241.0473
241.01006
240.96657
240.91577
240.85625
240.78626
240.7035
240.60534
240.48889
240.35143
240.19066
240.00519
239.79467
239.55975
239.30187
239.02413
238.73353
238.44451
238.18005
237.96618
237.82195
237.75657
237.77455
237.87626
238.03803
238.19896
238.3368
238.41981
238.40852
238.33676
238.1397
237.73996
237.218
236.68827
236.07653
235.4056
234.19218
233.06137
233.30165
235.62714
238.82085
241.99324
244.21541
245.19086
245.44831
245.48235
245.48202
245.48052
245.48009
245.48001
245.48
245.48
245.48
245.48
245.48
245.48
245.48
245.48
245.48
245.48
245.48
245.48
245.48
245.48
245.48
245.48
245.48
245.48
245.48
245.48
245.48
245.48
245.48
245.48
245.48
245.48
245.48
245.48
245.48
245.48
245.48
245.48
245.48
245.48
245.48
245.48
245.48
245.48
245.48
245.48
245.48
245.48
245.48
245.48
245.48
245.48
245.48
245.48
245.48
245.48
245.48
245.48
245.48
245.48
241.2224
241.22759
241.23794
241.25206
241.26262
241.26581
241.26437
241.25997
241.25337
241.24486
241.23473
241.22298
241.20954
241.19418
241.17652
241.15612
241.13244
241.1049
241.07279
241.03543
240.99189
240.94115
240.88182
240.81216
240.72992
240.63254
240.51716
240.38114
240.22227
240.03921
239.83162
239.60007
239.34588
239.07193
238.78498
238.49917
238.2371
238.0244
237.87988
237.81317
237.82933
237.92905
238.0884
238.24747
238.38438
238.46701
238.45619
238.38519
238.18927
237.792
237.27366
236.74738
236.14027
235.47425
234.26797
233.14361
233.38414
235.69962
238.87644
242.02883
244.23158
245.19595
245.44945
245.48255
245.48203
245.48051
245.48008
245.48001
245.48
245.48
245.48
245.48
245.48
245.48
245.48
245.48
245.48
245.48
245.48
245.48
245.48
245.48
245.48
245.48
245.48
245.48
245.48
245.48
245.48
245.48
245.48
245.48
245.48
245.48
245.48
245.48
245.48
245.48
245.48
245.48
245.48
245.48
245.48
245.48
245.48
245.48
245.48
245.48
245.48
245.48
245.48
245.48
245.48
245.48
245.48
245.48
245.48
245.48
245.48
245.48
245.48
245.48
241.26509
241.26955
241.2783
241.28974
241.29716
241.29821
241.29543
241.29006
241.2827
241.27357
241.26288
241.25063
241.23673
241.22094
241.20289
241.18213
241.15813
241.13033
241.09803
241.06056
241.01702
240.96641
240.90736
240.83815
240.75657
240.66007
240.54587
240.41137
240.25442
240.07375
239.86903
239.6408
239.39023
239.11999
238.83659
238.55386
238.2941
238.08258
237.93797
237.87019
237.88469
237.98254
238.13971
238.29697
238.43307
238.51536
238.5049
238.43469
238.23958
237.84414
237.32959
236.80722
236.205
235.54387
234.34469
233.22687
233.46763