/*--------------------------------*- C++ -*----------------------------------*\
| =========                 |                                                 |
| \\      /  F ield         | OpenFOAM: The Open Source CFD Toolbox           |
|  \\    /   O peration     | Version:  2506                                  |
|   \\  /    A nd           | Website:  www.openfoam.com                      |
|    \\/     M anipulation  |                                                 |
\*---------------------------------------------------------------------------*/
FoamFile
{
    version     2.0;
    format      ascii;
    arch        "LSB;label=32;scalar=64";
    class       volScalarField;
    location    "1.4";
    object      Cp;
}
// * * * * * * * * * * * * * * * * * * * * * * * * * * * * * * * * * * * * * //

dimensions      [0 0 0 0 0 0 0];

internalField   nonuniform List<scalar> 
1375
(
0.022428138
0.022666132
0.022381978
0.022423501
0.022658672
0.022450888
0.02238778
0.022423783
0.022654691
0.022108764
0.022442225
0.022382673
0.022430486
0.022644512
0.021818896
0.022087273
0.022423527
0.022374059
0.022422157
0.022627669
0.021583118
0.021810056
0.02207183
0.022395587
0.022373565
0.022423127
0.022601816
0.021539292
0.021619167
0.021804573
0.022054344
0.022377542
0.022364611
0.022439598
0.022581527
0.021197744
0.02154054
0.021640644
0.021812336
0.022030825
0.022365223
0.022346581
0.022438779
0.02256568
0.020527246
0.02122643
0.021563908
0.021630974
0.021817516
0.022003825
0.022354408
0.022334542
0.022422862
0.022546635
0.020015798
0.020572398
0.02124799
0.021590303
0.021628956
0.021819774
0.021982144
0.022351962
0.022323788
0.022410587
0.022522064
0.019746418
0.02008543
0.020631571
0.021267271
0.021602769
0.021642057
0.021820119
0.021974166
0.022357001
0.022310515
0.02240689
0.022498658
0.019426013
0.019846638
0.020151516
0.020691563
0.021298073
0.02161083
0.021652805
0.021817488
0.021976103
0.022356397
0.022300837
0.022396213
0.022474736
0.019529434
0.019938531
0.020216473
0.020741968
0.021333152
0.0216287
0.021656166
0.021821338
0.021975864
0.022347156
0.022291159
0.022384156
0.022452517
0.018948996
0.019632337
0.020026786
0.020280482
0.020791632
0.021366963
0.021654245
0.021660746
0.021833741
0.021967866
0.022345091
0.022275646
0.022373999
0.02243044
0.018445766
0.019076134
0.019733591
0.020111409
0.020340497
0.020843798
0.021402205
0.021680832
0.021670635
0.021848983
0.021957386
0.022345844
0.022254659
0.022361508
0.022407843
0.017911206
0.018626488
0.019212287
0.019838212
0.020193407
0.020397816
0.020891892
0.021437624
0.021704881
0.021678366
0.021867788
0.021950895
0.022346561
0.022229715
0.022345136
0.022388819
0.017121874
0.017633003
0.018138823
0.018815292
0.019356635
0.019946403
0.020275741
0.020454261
0.020933598
0.021469148
0.021725864
0.021688083
0.021883431
0.021935378
0.022353291
0.022204604
0.022331429
0.022371535
0.016938599
0.017485558
0.017919511
0.018373552
0.019003008
0.01951109
0.020064076
0.020362715
0.02051228
0.020971251
0.021495796
0.021745793
0.021702826
0.021896825
0.021917306
0.02235782
0.022183044
0.02232322
0.02235465
0.017110069
0.017389625
0.017830217
0.018200125
0.018589559
0.019185894
0.01966919
0.0201848
0.020455537
0.020572809
0.021007545
0.021517954
0.021768382
0.021720837
0.021916902
0.021909216
0.022359777
0.022160561
0.022306647
0.022338974
0.0174404
0.017568485
0.017668636
0.017864708
0.018201702
0.018481565
0.018803274
0.019365727
0.01983406
0.020315761
0.020554999
0.020638818
0.021047301
0.021539119
0.021793562
0.021731513
0.021944915
0.021902341
0.022363824
0.022136762
0.022289771
0.022324533
0.025153689
0.025522045
0.025828315
0.02617016
0.026603887
0.027233562
0.027935102
0.028521747
0.029113315
0.029900951
0.030930163
0.032310832
0.033753439
0.03501601
0.03651429
0.038593727
0.041432419
0.044522949
0.048319807
0.051996115
0.056435431
0.05989111
0.062365034
0.025144754
0.025509659
0.025819498
0.026161614
0.026580368
0.027194603
0.027902158
0.028498549
0.029074083
0.029851031
0.03089165
0.032166163
0.033607302
0.034944406
0.036422151
0.038340912
0.041079162
0.044347861
0.047817042
0.051668598
0.055401153
0.059232327
0.061377941
0.025139793
0.025505602
0.02581541
0.02615981
0.026566912
0.027168364
0.027884498
0.02849127
0.029064966
0.029814182
0.030861713
0.032149714
0.033547643
0.034893398
0.036422202
0.038183724
0.040894855
0.044375534
0.047400455
0.051361442
0.055148728
0.05922285
0.060789762
0.025130521
0.025498407
0.025805642
0.026152439
0.026547891
0.027127659
0.027846553
0.028465009
0.029035804
0.029752369
0.030811265
0.03201506
0.033440658
0.03475243
0.036256883
0.037884647
0.040610876
0.043861654
0.046921113
0.050646368
0.054612668
0.058449293
0.060495459
0.0251164
0.02548884
0.025800124
0.026141901
0.026531531
0.02708184
0.027819449
0.028437971
0.028999127
0.029706853
0.03075452
0.031933999
0.033328935
0.034665491
0.036074804
0.037744725
0.040397391
0.043492926
0.046433737
0.049869765
0.053926594
0.057860784
0.060167765
0.025089871
0.025486292
0.025790488
0.026129638
0.026516464
0.02703089
0.027774913
0.02839713
0.02894039
0.029634137
0.030622879
0.031871311
0.033201272
0.034511392
0.035840946
0.037494679
0.040042353
0.043063536
0.04594009
0.049041953
0.052865289
0.056868841
0.059683286
0.025077491
0.025473579
0.025770985
0.026116498
0.026496351
0.026993062
0.027711808
0.02835547
0.028884464
0.029559712
0.03053305
0.031756168
0.033061986
0.034349775
0.035630027
0.037226228
0.039648395
0.042583611
0.045405537
0.048179671
0.051701522
0.055607688
0.058777192
0.025081252
0.025437462
0.025751472
0.026096248
0.026467115
0.026958762
0.027646072
0.028301234
0.028817811
0.029476067
0.030426838
0.03162417
0.032890904
0.034157306
0.035414502
0.036937716
0.039182473
0.042016089
0.044777452
0.047274144
0.050440138
0.054317404
0.05762186
0.025081466
0.025411266
0.025726235
0.02607231
0.026438828
0.026916453
0.02757614
0.02823736
0.028744328
0.029386834
0.030311421
0.03146999
0.032689246
0.033937116
0.035185302
0.036618165
0.038633255
0.041328503
0.04407701
0.04633547
0.049011294
0.052932198
0.056071628
0.057791018
0.025072806
0.025387748
0.025694794
0.026041813
0.026408245
0.026869744
0.027500225
0.028162049
0.028663852
0.029291801
0.030187583
0.031296548
0.032453807
0.033681178
0.03494306
0.036288332
0.038030068
0.04056155
0.043336667
0.045375178
0.047362066
0.051428678
0.054407909
0.056527052
0.02506008
0.02536312
0.025659146
0.026001906
0.026371904
0.026819854
0.02741838
0.028075903
0.028575877
0.029187589
0.03005502
0.031107573
0.032178848
0.033366306
0.034671999
0.035978645
0.037417468
0.039713172
0.042541423
0.044403036
0.045517411
0.049599735
0.052762647
0.054931475
0.025339152
0.025619505
0.025952169
0.026326207
0.026764858
0.027331463
0.027980862
0.028480249
0.029068931
0.029910681
0.030907642
0.031877597
0.032981126
0.034337153
0.035694911
0.036853632
0.038713367
0.041618005
0.043521953
0.043877915
0.047172287
0.050767636
0.052680019
0.025321624
0.025575773
0.025892051
0.026270591
0.026702183
0.027237396
0.027878856
0.028377784
0.028934615
0.029746946
0.030690856
0.031570522
0.032527078
0.033898153
0.035371961
0.0364151
0.03757015
0.04045026
0.042693326
0.043184689
0.044000232
0.047901611
0.049934052
0.025309139
0.025528438
0.025819594
0.026206803
0.026628736
0.027130705
0.027771894
0.028268924
0.028787398
0.029549735
0.030435572
0.031274297
0.032045682
0.033350031
0.034913906
0.0360661
0.036553434
0.038798736
0.041343698
0.042307118
0.04165557
0.044608871
0.045931477
0.025297122
0.025479371
0.025732278
0.026138323
0.026541495
0.027008261
0.027657164
0.028154448
0.028634492
0.029312042
0.030120319
0.030956297
0.031637665
0.03269772
0.034281667
0.035605221
0.036133054
0.036861087
0.039191824
0.040442665
0.040834829
0.041715689
0.042334664
0.025276844
0.025434523
0.025631869
0.026066441
0.026438315
0.026869167
0.027524501
0.028033123
0.028477812
0.029047562
0.029753825
0.030539
0.031316737
0.032057154
0.033324217
0.034678926
0.03565383
0.035706892
0.037409501
0.038875389
0.039504155
0.038785574
0.040208911
0.039472952
0.025237868
0.02539555
0.025528301
0.025982157
0.026322766
0.026719699
0.027359781
0.027899922
0.028302431
0.028773905
0.029366657
0.030024384
0.03085204
0.031619836
0.032377329
0.033453165
0.034572126
0.034925282
0.035629787
0.036954391
0.037102749
0.036851914
0.037568089
0.037133245
0.025175507
0.025366381
0.025437808
0.025862296
0.026199754
0.026568371
0.027147638
0.027740105
0.028094813
0.028483382
0.029018798
0.02956872
0.030139803
0.03090512
0.031787152
0.032424649
0.033192307
0.033842499
0.034011134
0.034683188
0.034551288
0.035317422
0.034809287
0.034983676
0.025090493
0.025343548
0.025371439
0.025688352
0.026072685
0.026410284
0.026875068
0.027542289
0.027877478
0.028166855
0.028650513
0.029188944
0.029636993
0.029996757
0.03077506
0.031597318
0.031921272
0.032652465
0.032794632
0.032676155
0.032521199
0.033035255
0.032474229
0.031782539
0.031658245
0.024979185
0.025309484
0.025328717
0.025488505
0.025944137
0.02622762
0.026570386
0.02727732
0.027632141
0.027854858
0.028252026
0.028730355
0.029291035
0.029533847
0.029611469
0.03047304
0.030939484
0.031272237
0.031571774
0.031058221
0.031009689
0.030599997
0.030065821
0.029807407
0.030015219
0.024849833
0.025253878
0.025307447
0.02528753
0.02579284
0.026001983
0.026262823
0.026945248
0.02736631
0.027468167
0.027897006
0.028288375
0.028696366
0.029134943
0.028911231
0.029216305
0.029810431
0.029918248
0.029969826
0.029683325
0.029461039
0.029410834
0.028286865
0.028084451
0.028239802
0.024709302
0.025168968
0.025292897
0.025148477
0.025545693
0.025795967
0.026021422
0.026425617
0.027060027
0.027079838
0.027344373
0.02791558
0.028174397
0.028315806
0.028262529
0.028521138
0.028707052
0.028768113
0.028424926
0.0283238
0.028326606
0.027853546
0.026627432
0.026629528
0.026817112
0.024666862
0.024563623
0.024971642
0.025195296
0.025120541
0.025306878
0.025587177
0.025791879
0.025899425
0.02665374
0.026834841
0.02674636
0.027231388
0.027610123
0.027507389
0.027760792
0.02785645
0.027707394
0.027575288
0.027294108
0.027103696
0.027198796
0.026530294
0.025677676
0.025199172
0.025229495
0.023579063
0.024480603
0.024758225
0.025046721
0.025137544
0.025046794
0.025275912
0.02547773
0.025708275
0.026032775
0.026369585
0.026464621
0.026537881
0.026814309
0.026918179
0.027082209
0.026928451
0.026569495
0.026451528
0.026733029
0.026217705
0.026010599
0.025422896
0.024361192
0.024127025
0.023942565
0.022529618
0.024432309
0.024566216
0.024865113
0.025034632
0.024963826
0.025009909
0.025176465
0.025368802
0.025363312
0.025753122
0.026075959
0.026184472
0.026085386
0.026226136
0.026328905
0.026030682
0.025883165
0.025954483
0.025566664
0.025153713
0.025234568
0.024325884
0.023605405
0.023518824
0.022759712
0.021405683
0.020574533
0.024350366
0.024571121
0.024870159
0.024940053
0.024845456
0.02483466
0.024959614
0.02494088
0.025180375
0.025484733
0.025634631
0.0255284
0.025516953
0.025387413
0.025207031
0.025316687
0.025333441
0.024421046
0.024212902
0.024353299
0.023332834
0.022837389
0.02274189
0.021627603
0.020444362
0.019743647
0.024265378
0.024306464
0.024607114
0.02479418
0.024718785
0.024616931
0.024611382
0.024645182
0.024620536
0.024762608
0.025027256
0.024942897
0.024783481
0.024730576
0.024620189
0.024747009
0.024402532
0.023743407
0.023776218
0.023373572
0.022403601
0.021983477
0.02171392
0.020777479
0.019961094
0.019341621
0.018325121
0.02421325
0.024191272
0.024290929
0.024493114
0.024530575
0.024593009
0.024431272
0.024266483
0.024245641
0.024244858
0.024318188
0.024332775
0.024193139
0.024120467
0.023989629
0.023869584
0.023440498
0.023229765
0.023248118
0.02268824
0.021955785
0.021340495
0.02093259
0.020205829
0.019566807
0.019089187
0.018272898
0.024077772
0.024127556
0.024114369
0.02417011
0.024193894
0.02427392
0.02422818
0.024016044
0.023964332
0.023932689
0.023716888
0.023779417
0.023661104
0.023453823
0.02329772
0.023089934
0.022887731
0.022641516
0.022380742
0.021971815
0.021447803
0.021010554
0.020602454
0.01999739
0.01946765
0.018947992
0.018264325
0.02393224
0.023990714
0.024002975
0.023947886
0.023889787
0.023838227
0.023880245
0.023785944
0.023658913
0.023626611
0.023346417
0.023320999
0.023170785
0.022965581
0.022967844
0.022859206
0.022439052
0.022018206
0.021695664
0.021304728
0.020830065
0.020482797
0.020132803
0.019639755
0.019206585
0.018743807
0.018197878
0.023805994
0.023853769
0.023830581
0.023777721
0.023716628
0.023651684
0.023462439
0.023433329
0.023471817
0.0232548
0.023175323
0.02299445
0.022646696
0.022524244
0.022497695
0.022281414
0.02203472
0.021803506
0.021466272
0.021156088
0.020733721
0.020347923
0.019998035
0.019533623
0.019116164
0.018689586
0.01826568
0.02367761
0.023625253
0.023602218
0.023558161
0.02343683
0.023263747
0.023262686
0.023094253
0.022959521
0.023013755
0.022715205
0.022483232
0.02236724
0.022066637
0.021813112
0.021652611
0.021334181
0.021071208
0.020790848
0.020426065
0.020161284
0.019871442
0.019523829
0.019206106
0.018862007
0.018541427
0.023454839
0.023539994
0.023507222
0.023372655
0.023286082
0.023253081
0.023075717
0.022915964
0.022884017
0.022666012
0.022438145
0.022320155
0.022098638
0.021828152
0.021612237
0.021353925
0.021082762
0.02085393
0.020583809
0.02033957
0.020096201
0.01982406
0.01954667
0.01926396
0.018994724
0.01874473
0.023294663
0.02342292
0.023373783
0.023253266
0.023284976
0.023116959
0.02291079
0.022833805
0.022790167
0.022610807
0.02236893
0.022135453
0.021960513
0.021765944
0.021549593
0.021324429
0.021089832
0.020869638
0.020642821
0.020382053
0.020135935
0.019886995
0.019637089
0.01941324
0.019197169
0.019003133
0.023061408
0.023089408
0.023171303
0.023085096
0.023007487
0.022904796
0.022759436
0.022696603
0.022528168
0.022304477
0.022188406
0.022061555
0.021830006
0.021656487
0.021469787
0.021277152
0.021102137
0.020888323
0.0206772
0.020473788
0.020259696
0.020069978
0.019884532
0.019709453
0.019542875
0.022806023
0.022838821
0.022777116
0.022704401
0.022721797
0.022733098
0.022661878
0.022612021
0.022532153
0.022406718
0.022254931
0.022071094
0.021916693
0.021770468
0.021602314
0.021442474
0.021269187
0.021084444
0.020917042
0.020742393
0.020586261
0.020432421
0.020283022
0.020137483
0.019987112
0.022803605
0.022722552
0.022554303
0.022502137
0.022467506
0.022357634
0.022342256
0.02237239
0.022286685
0.022180951
0.022103767
0.021999589
0.021908292
0.021812731
0.021695613
0.021573223
0.02143093
0.02129449
0.021168506
0.021049791
0.020940321
0.020820003
0.020698166
0.020569836
0.020444947
0.022720354
0.022634512
0.0225509
0.022424104
0.022295741
0.022265794
0.022185464
0.022076773
0.022011838
0.021914778
0.02183939
0.021768632
0.021661409
0.021568571
0.021472253
0.021368756
0.021286838
0.021193786
0.021111601
0.021027252
0.020937087
0.020847877
0.020751823
0.020656673
0.022688622
0.022601442
0.022512882
0.022453696
0.022408564
0.022303906
0.022205617
0.0221258
0.022027597
0.021931175
0.021846384
0.021748625
0.021660288
0.021579429
0.021488313
0.021404717
0.021315416
0.021223202
0.021138543
0.021048058
0.020961048
0.020874041
0.020789553
0.020713188
0.022596763
0.022529946
0.02251321
0.022469415
0.022394104
0.022340222
0.022274627
0.02219593
0.022130951
0.02205886
0.02197814
0.021890059
0.021806519
0.0217273
0.021647049
0.021567346
0.02148822
0.02141088
0.02133786
0.02126854
0.021203298
0.021144498
0.021093323
0.022475483
0.02246279
0.02241268
0.02238822
0.02236993
0.022328539
0.02227353
0.02222364
0.022179613
0.022118802
0.022066508
0.022016024
0.021956176
0.02190715
0.021854674
0.021799718
0.021751387
0.021702819
0.021658109
0.021619262
0.021587685
0.021562479
0.022414545
0.022371682
0.022337149
0.022338934
0.022335436
0.022318092
0.022295631
0.022273584
0.022247775
0.022219123
0.022190017
0.022152445
0.022117092
0.02208272
0.022044793
0.022010034
0.021975051
0.021941808
0.021913335
0.021887932
0.021861407
0.021829267
0.022128769
0.022132746
0.022104417
0.022078661
0.022082355
0.022078294
0.022056335
0.0220366
0.02201569
0.021996565
0.021976283
0.021939503
0.021898056
0.02186684
0.021839054
0.021811082
0.02178532
0.021759248
0.021732252
0.021722647
0.02172842
0.022194958
0.022171666
0.022175817
0.022185329
0.022184147
0.02217974
0.022167414
0.022147972
0.022129696
0.022108411
0.022091232
0.022099233
0.022114658
0.022095012
0.022069675
0.022064385
0.022042104
0.022020603
0.022004389
0.021976338
0.022111706
0.022112658
0.022108048
0.022097235
0.022082699
0.0220676
0.022054475
0.022042405
0.022028567
0.022015084
0.022006334
0.021999202
0.02199201
0.021982112
0.02196344
0.021928446
0.021908481
0.02189657
0.021895574
0.022257016
0.022264623
0.022270852
0.022278699
0.022286451
0.022292673
0.022298121
0.022303887
0.022307774
0.022306432
0.022298027
0.02230694
0.022320306
0.022328322
0.022350258
0.022370796
0.022367898
0.022045767
0.022043899
0.022037626
0.022030969
0.02202839
0.022029039
0.02203061
0.022031078
0.022033266
0.022040806
0.022053203
0.0220585
0.022064936
0.022074336
0.022086829
0.022108524
0.022105712
0.022111124
0.022116159
0.022122167
0.022129621
0.022138008
0.022148154
0.022161985
0.022182072
0.022205087
0.022225377
0.022246451
0.022268911
0.022280878
0.022184511
0.022190668
0.022197389
0.022205524
0.022217942
0.022230748
0.022241662
0.022252825
0.022265754
0.022280189
0.022295293
0.02231024
)
;

boundaryField
{
    Side
    {
        type            empty;
    }
    Inlet
    {
        type            calculated;
        value           nonuniform List<scalar> 
32
(
0.022375336
0.022373714
0.022373606
0.022375647
0.022379689
0.022383257
0.022386571
0.022387307
0.022387145
0.022388504
0.022392378
0.022398465
0.022406695
0.022416288
0.022424973
0.022429248
0.022429266
0.022427443
0.02242423
0.022419448
0.022333191
0.022332116
0.022331807
0.022331735
0.022335902
0.022343801
0.022353047
0.022364001
0.022377281
0.022391121
0.022403315
0.022412791
)
;
    }
    Airfoil
    {
        type            calculated;
        value           nonuniform List<scalar> 0();
    }
    Outlet
    {
        type            calculated;
        value           nonuniform List<scalar> 0();
    }
    procBoundary2to1
    {
        type            processor;
        value           nonuniform List<scalar> 
75
(
0.022438198
0.022674989
0.022364932
0.022364932
0.022470761
0.022470761
0.022123208
0.022123208
0.021831336
0.021831336
0.021558527
0.021558527
0.021537362
0.021537362
0.021177197
0.021177197
0.020492227
0.020492227
0.019944902
0.019944902
0.019639771
0.019639771
0.019323149
0.019323149
0.018722375
0.01883171
0.01883171
0.018270667
0.018270667
0.017686962
0.017686962
0.016746716
0.017344994
0.017344994
0.016483201
0.016483201
0.016543408
0.016543408
0.016622688
0.016855173
0.016855173
0.017318193
0.017318193
0.066760383
0.065847068
0.064928186
0.063113042
0.061963133
0.061304991
0.060306603
0.059174464
0.059174464
0.059124737
0.055616996
0.051836974
0.050178855
0.049430019
0.046512078
0.042650934
0.042650934
0.040112814
0.037505545
0.034535737
0.034535737
0.031522749
0.028565088
0.026179496
0.026179496
0.023731164
0.022609961
0.021583844
0.021583844
0.019544859
0.018630025
0.018630025
)
;
    }
    procBoundary2to3
    {
        type            processor;
        value           nonuniform List<scalar> 
65
(
0.02479324
0.024788533
0.024783294
0.024778448
0.024770872
0.024766871
0.024752565
0.024730489
0.024720679
0.024711575
0.025045896
0.025045896
0.025024438
0.024992696
0.024946174
0.024886849
0.024817908
0.024741911
0.024665115
0.024595565
0.024533299
0.024475801
0.024448028
0.024421949
0.024367351
0.024386847
0.024386847
0.024324824
0.024194647
0.023995317
0.023886698
0.023828678
0.023670037
0.023670037
0.023454023
0.023199646
0.023051981
0.023051981
0.022889245
0.022869428
0.022779388
0.022779388
0.022724185
0.022721344
0.022721344
0.022489105
0.022489105
0.022424807
0.022135394
0.022135394
0.022217215
0.022217215
0.022115192
0.022115192
0.022233483
0.022245528
0.022245528
0.022045801
0.022045801
0.022098451
0.02210109
0.02210109
0.022173597
0.022178669
0.022178669
)
;
    }
    procBoundary2to9
    {
        type            processor;
        value           nonuniform List<scalar> 
23
(
0.025152356
0.025520422
0.025825956
0.02616652
0.026611552
0.02724208
0.027934869
0.028516334
0.029114098
0.029919755
0.030937748
0.032273562
0.033645902
0.035048861
0.036636077
0.038527695
0.04123013
0.044544827
0.048631428
0.052848463
0.056277961
0.059525288
0.062109176
)
;
    }
    procBoundary2to10
    {
        type            processor;
        value           uniform 0.024803631;
    }
}


// ************************************************************************* //
