/*--------------------------------*- C++ -*----------------------------------*\
| =========                 |                                                 |
| \\      /  F ield         | OpenFOAM: The Open Source CFD Toolbox           |
|  \\    /   O peration     | Version:  2506                                  |
|   \\  /    A nd           | Website:  www.openfoam.com                      |
|    \\/     M anipulation  |                                                 |
\*---------------------------------------------------------------------------*/
FoamFile
{
    version     2.0;
    format      ascii;
    arch        "LSB;label=32;scalar=64";
    class       volVectorField;
    location    "0.0135";
    object      wallShearStress;
}
// * * * * * * * * * * * * * * * * * * * * * * * * * * * * * * * * * * * * * //

dimensions      [1 -1 -2 0 0 0 0];

internalField   uniform (0 0 0);

boundaryField
{
    Side
    {
        type            empty;
    }
    Inlet
    {
        type            calculated;
        value           uniform (0 0 0);
    }
    Airfoil
    {
        type            calculated;
        value           nonuniform List<vector> 
65
(
(-5.4155071 -0.66654338 2.3199225e-39)
(-5.4829299 -0.67725924 6.8310328e-33)
(-5.3774514 -0.66593203 3.0370647e-16)
(-5.2183822 -0.64749007 -3.0566437e-26)
(-5.035776 -0.62758051 -1.6533375e-26)
(-4.9093899 -0.61325303 -7.3504905e-23)
(-4.8959077 -0.61458703 3.10038e-16)
(-4.9396443 -0.62248079 3.1185086e-16)
(-4.975208 -0.62897401 -7.4781771e-23)
(-4.9835219 -0.63242544 -3.1554022e-16)
(-4.9843693 -0.63439169 -7.5693081e-23)
(-4.9945138 -0.63773393 7.6165507e-23)
(-5.0274597 -0.64348078 -1.6076034e-16)
(-5.0602966 -0.64973259 1.6182195e-16)
(-5.0268839 -0.64657761 1.5533341e-22)
(-4.9345315 -0.63687447 -1.5614776e-22)
(-4.7952816 -0.62194116 1.5034291e-32)
(-4.7155671 -0.61357551 1.6634826e-16)
(-4.7336561 -0.61809702 -1.6763002e-16)
(-4.787245 -0.62702372 -1.6894162e-16)
(-4.8170485 -0.63298231 1.7028409e-16)
(-4.7800687 -0.62980394 -1.7166044e-16)
(-4.6986546 -0.61972999 1.730508e-16)
(-4.6184061 -0.6105762 1.7450619e-16)
(-4.5837753 -0.60795866 1.9601791e-24)
(-4.5804006 -0.60981051 -1.6941815e-22)
(-4.5714125 -0.61049294 1.7095662e-22)
(-4.5258474 -0.60622846 0)
(-4.4432433 -0.5971404 -1.8270549e-16)
(-4.3849105 -0.5907017 3.7225129e-26)
(-4.3664444 -0.58949851 -3.7290562e-16)
(-4.3551746 -0.58901732 -1.7969174e-22)
(-4.2982823 -0.58307869 -1.8168609e-22)
(-4.2167921 -0.57390303 -1.9263746e-16)
(-4.2288157 -0.57740851 7.4629785e-34)
(-4.3192564 -0.5922813 1.9733216e-16)
(-4.5890008 -0.62906513 -1.5046328e-36)
(-4.8624395 -0.67044067 1.5046328e-36)
(-4.8162917 -0.66253639 2.0494321e-16)
(-4.4066555 -0.60648304 0)
(-3.591139 -0.49703182 -2.0062965e-22)
(-2.8648827 -0.39657218 2.1334762e-16)
(-2.8007676 -0.39215651 -2.1678383e-16)
(-3.2477574 -0.45843532 -2.1309273e-22)
(-3.796003 -0.53298598 2.1373952e-22)
(-4.3902811 -0.61657538 3.169085e-33)
(-4.6735505 -0.65771907 -2.2163244e-22)
(-4.4483902 -0.62727218 2.1726379e-22)
(-3.9625679 -0.56004695 -1.2058808e-16)
(-3.2514544 -0.46075409 2.4593882e-16)
(-2.8883689 -0.40740815 1.2568573e-16)
(-2.9707295 -0.42227878 7.4755798e-33)
(-3.3223025 -0.47439725 1.3184229e-16)
(-3.8054934 -0.54644261 1.3529325e-16)
(-3.982392 -0.56643147 -1.3888382e-16)
(-3.721213 -0.52905067 1.4272304e-16)
(-2.3263073 -0.33257852 -1.9933453e-23)
(0.049342875 0.015753168 5.5009374e-33)
(1.396865 0.19652028 -1.5746294e-16)
(0.91068299 0.12766241 -6.2717648e-22)
(-0.26117848 -0.043982758 6.552592e-22)
(-1.5005441 -0.22492768 9.0611759e-17)
(-2.338052 -0.3301685 3.0092655e-36)
(-3.1336865 -0.44572974 -1.0291976e-16)
(-4.6203586 -0.6512608 1.8629945e-21)
)
;
    }
    Outlet
    {
        type            calculated;
        value           nonuniform List<vector> 0();
    }
    procBoundary5to4
    {
        type            processor;
        value           uniform (0 0 0);
    }
    procBoundary5to6
    {
        type            processor;
        value           uniform (0 0 0);
    }
    procBoundary5to12
    {
        type            processor;
        value           uniform (0 0 0);
    }
    procBoundary5to13
    {
        type            processor;
        value           uniform (0 0 0);
    }
}


// ************************************************************************* //
