/*--------------------------------*- C++ -*----------------------------------*\
| =========                 |                                                 |
| \\      /  F ield         | OpenFOAM: The Open Source CFD Toolbox           |
|  \\    /   O peration     | Version:  2506                                  |
|   \\  /    A nd           | Website:  www.openfoam.com                      |
|    \\/     M anipulation  |                                                 |
\*---------------------------------------------------------------------------*/
FoamFile
{
    version     2.0;
    format      ascii;
    arch        "LSB;label=32;scalar=64";
    class       volVectorField;
    location    "0.0265";
    object      wallShearStress;
}
// * * * * * * * * * * * * * * * * * * * * * * * * * * * * * * * * * * * * * //

dimensions      [1 -1 -2 0 0 0 0];

internalField   uniform (0 0 0);

boundaryField
{
    Side
    {
        type            empty;
    }
    Inlet
    {
        type            calculated;
        value           uniform (0 0 0);
    }
    Airfoil
    {
        type            calculated;
        value           nonuniform List<vector> 
92
(
(-4.2146569 0.50176928 4.2595148e-16)
(-3.7990992 0.45286536 -2.122456e-16)
(-3.0969048 0.37236311 -2.0160537e-22)
(-1.9026767 0.23277109 2.0129139e-22)
(-0.16998723 0.031199831 2.0997296e-16)
(1.3291735 -0.14447755 -2.08887e-16)
(1.4539076 -0.16780354 -6.0185311e-36)
(-0.89434344 0.099199972 2.079473e-16)
(-3.0771798 0.34336613 -4.1649623e-16)
(-3.7503745 0.42940308 -1.2714147e-32)
(-4.0195952 0.46134319 3.0092655e-36)
(-3.5513395 0.40998113 -2.0709523e-16)
(-3.0349056 0.35083359 4.1269903e-16)
(-2.7761702 0.31834904 -1.9604525e-22)
(-2.7544943 0.31302627 1.9563166e-22)
(-2.9481098 0.33289713 1.9513829e-22)
(-3.1355829 0.35246061 -2.0415085e-16)
(-3.2083775 0.36022064 -4.0735712e-16)
(-3.2336997 0.36206031 4.4288268e-26)
(-3.2542842 0.36270669 1.9332231e-22)
(-3.2988882 0.36601583 -2.0222816e-16)
(-3.3351664 0.3691155 2.017947e-16)
(-3.2969177 0.36375416 4.0267834e-16)
(-3.1901326 0.35108301 1.9159805e-22)
(-3.1039484 0.34002955 1.9102064e-22)
(-3.1773132 0.34528804 -1.9069402e-22)
(-3.4983726 0.3777618 -1.8401538e-38)
(-3.8693098 0.41534454 6.9213107e-35)
(-4.0804707 0.4369203 -3.9811597e-16)
(-4.0652118 0.43525264 1.8948837e-22)
(-3.8797354 0.41435356 -1.8919665e-22)
(-3.7263622 0.39664676 -1.8872073e-22)
(-3.6786165 0.3894108 -1.9755839e-16)
(-3.8004056 0.40014846 1.8791593e-22)
(-4.0057921 0.41909079 1.9698322e-16)
(-4.1198136 0.42933249 -1.9672437e-16)
(-4.1604001 0.43185753 1.8735208e-22)
(-4.1634852 0.43026596 3.2693058e-33)
(-4.1823719 0.43005856 -1.867926e-22)
(-4.2507173 0.43520751 3.7315098e-22)
(-4.3335569 0.44188313 -1.8636393e-22)
(-4.3739538 0.44426418 -3.903802e-16)
(-4.384611 0.44353581 1.9496014e-16)
(-4.4078299 0.4437558 -1.947305e-16)
(-4.5037538 0.45116406 1.9453172e-16)
(-4.6455859 0.46268463 1.9437661e-16)
(-4.729746 0.46880415 -1.9422987e-16)
(-4.7411757 0.46797951 1.8508137e-22)
(-4.7279587 0.46465322 -4.3047889e-42)
(-4.7328508 0.46237246 -1.8471487e-22)
(-4.8097741 0.46739501 1.3390261e-26)
(-4.9457867 0.47813425 1.9347519e-16)
(-5.0493089 0.48604901 1.9339666e-16)
(-5.0960355 0.48850073 -1.9949667e-33)
(-5.106303 0.48716612 1.9319316e-16)
(-5.1221596 0.48619948 -3.683008e-22)
(-5.1741719 0.48845962 1.9301236e-16)
(-5.2364296 0.49154017 1.9294185e-16)
(-5.2932685 0.49398602 1.8393053e-22)
(-5.3698545 0.49807112 -1.8389737e-22)
(-5.4494316 0.50242505 -1.927932e-16)
(-5.4947073 0.50413929 6.0185311e-36)
(-5.5214993 0.50410889 1.9272294e-16)
(-5.564846 0.50540503 1.8376611e-22)
(-5.6245815 0.50807872 -1.8377049e-22)
(-5.6745929 0.50978321 1.837462e-22)
(-5.7278824 0.51150569 -1.0275715e-26)
(-5.8030279 0.51512602 -1.8399407e-27)
(-5.8645975 0.51735611 1.9271283e-16)
(-5.8895583 0.51640352 0)
(-5.9161327 0.51530469 1.8669847e-24)
(-5.980778 0.51718919 -7.3426079e-34)
(-6.0568427 0.52018097 -1.928141e-16)
(-6.1013628 0.52107509 1.839349e-22)
(-6.1297569 0.52049573 1.929114e-16)
(-6.1746714 0.52105696 -1.9296557e-16)
(-6.2347377 0.52278004 -1.9303925e-16)
(-6.2805848 0.52323018 7.5231638e-37)
(-6.3278215 0.5236022 1.5046328e-36)
(-6.3879945 0.5249114 1.9328204e-16)
(-6.4327473 0.52495277 -1.9337606e-16)
(-6.4613987 0.52338968 2.8892336e-26)
(-6.5160441 0.52357801 -1.9355735e-16)
(-6.5876816 0.52512534 3.7615819e-37)
(-6.6340336 0.52497665 -9.6903926e-17)
(-6.6546389 0.52311853 9.6965426e-17)
(-6.6863264 0.52190543 9.7027801e-17)
(-6.7509309 0.5231868 -9.7103662e-17)
(-6.8109886 0.52389081 9.7185734e-17)
(-6.837733 0.52197683 -1.8439449e-22)
(-6.8620007 0.5196237 -3.3204272e-39)
(-6.9211063 0.51970306 1.8581829e-22)
)
;
    }
    Outlet
    {
        type            calculated;
        value           nonuniform List<vector> 0();
    }
    procBoundary11to3
    {
        type            processor;
        value           uniform (0 0 0);
    }
    procBoundary11to4
    {
        type            processor;
        value           uniform (0 0 0);
    }
    procBoundary11to10
    {
        type            processor;
        value           uniform (0 0 0);
    }
    procBoundary11to12
    {
        type            processor;
        value           uniform (0 0 0);
    }
}


// ************************************************************************* //
