/*--------------------------------*- C++ -*----------------------------------*\
| =========                 |                                                 |
| \\      /  F ield         | OpenFOAM: The Open Source CFD Toolbox           |
|  \\    /   O peration     | Version:  2506                                  |
|   \\  /    A nd           | Website:  www.openfoam.com                      |
|    \\/     M anipulation  |                                                 |
\*---------------------------------------------------------------------------*/
FoamFile
{
    version     2.0;
    format      ascii;
    arch        "LSB;label=32;scalar=64";
    class       volScalarField;
    location    "0.8";
    object      k;
}
// * * * * * * * * * * * * * * * * * * * * * * * * * * * * * * * * * * * * * //

dimensions      [0 2 -2 0 0 0 0];

internalField   nonuniform List<scalar> 
1376
(
2.3150912
2.6343759
2.8571851
2.9974749
1.95198
2.3040131
2.6220367
2.842602
2.9802015
3.0541904
3.0855146
3.0935671
3.0928615
3.0863393
3.0819959
1.9396823
2.2921001
2.6091138
2.8276474
2.9627426
3.0344184
3.0641048
3.0714349
3.0703435
3.0639687
3.0598928
3.0580993
3.0577777
3.0597371
3.0637023
3.0683304
1.9266118
2.2794918
2.5956138
2.8122716
2.9450329
3.0145611
3.0427644
3.0494799
3.0480454
3.0418689
3.0380565
3.0364616
3.0362522
3.0384975
3.0424653
3.0470449
3.0522049
3.0578509
3.0639211
3.0703882
1.9132392
2.2664801
2.5817247
2.7965887
2.9271357
2.9946538
3.021511
3.0276968
3.0259729
3.0200276
3.0164715
3.0150708
3.0149726
3.0174806
3.0214358
3.0259663
3.0310494
3.0365939
3.0425463
3.0488841
3.0556023
3.0627089
3.0702192
3.0781573
3.0865596
1.8998946
2.2533143
2.5676323
2.7807292
2.9091412
2.974761
3.0003884
3.0061109
3.0041514
2.9984529
2.9951415
2.9939324
2.9939367
2.9966799
3.0006116
3.0050929
3.0101005
3.0155479
3.0213872
3.0276007
3.0341862
3.0411508
3.0485092
3.0562845
3.0645089
3.0732276
3.0824889
3.0923528
3.1028736
1.8867553
2.2401779
2.5534957
2.7648093
2.8911311
2.9549391
2.9794308
2.9847416
2.9825948
2.9771508
2.9740775
2.9730263
2.9731674
2.9761013
2.9800025
2.9844338
2.9893661
2.9947175
3.0004469
3.0065397
3.0129948
3.0198197
3.0270281
3.0346419
3.0426992
3.0512258
3.0602838
3.0699254
3.0801988
3.0911816
3.1029468
3.1155738
3.1291352
1.8739437
2.2272369
2.5394774
2.748959
2.873197
2.93524
2.9586581
2.963592
2.9612955
2.9561107
2.9532689
2.9523472
2.9526661
2.9557466
2.9596136
2.9639949
2.9688531
2.9741106
2.9797313
2.985703
2.9920266
2.9987121
3.0057753
3.0132352
3.0211142
3.0294634
3.0383215
3.0477334
3.0577703
3.0684959
3.0799939
3.0923389
3.1056014
3.1198768
3.1352563
3.1518368
1.8616476
2.2146936
2.5257487
2.733319
2.8554405
2.9157296
2.9381039
2.9426778
2.940249
2.9353226
2.9326993
2.9318871
2.9324157
2.9356017
2.9394339
2.9437687
2.9485572
2.9537259
2.9592418
2.9650956
2.9712914
2.9778402
2.9847559
2.9920564
2.9997684
3.0079309
3.0165821
3.025781
3.0355886
3.0460614
3.0572672
3.0692958
3.0822419
3.0962017
3.1112836
3.1275882
3.1452254
3.1643433
3.1851279
1.8502358
2.202862
2.512544
2.7180713
2.8379932
2.8964891
2.9178112
2.9220241
2.9194517
2.9147729
2.9123489
2.9116331
2.9123926
2.9156494
2.919449
2.9237423
2.9284674
2.9335548
2.9389749
2.94472
2.9507941
2.9572075
2.9639744
2.971115
2.9786583
2.986637
2.9950886
3.0040628
3.0136198
3.0238256
3.0347495
3.046473
3.0590942
3.0727195
3.0874565
3.1034382
3.1207936
3.1396596
3.1601945
3.1825824
3.2070188
3.2336574
1.8402347
2.192159
2.5002017
2.7034808
2.8210435
2.877636
2.8978468
2.9016724
2.8989099
2.8944622
2.8922143
2.8915829
2.8925783
2.8958735
2.8996384
2.9038894
2.9085554
2.9135706
2.9189064
2.9245535
2.9305142
2.9368
2.9434265
2.9504129
2.9577848
2.9655759
2.9738276
2.9825839
2.991896
3.0018279
3.0124548
3.0238648
3.0361558
3.049435
3.0638222
3.0794559
3.0964857
3.1150602
3.1353274
3.1574207
3.1814859
3.2076368
3.2359232
3.266579
3.300805
1.832074
2.1829551
2.4890635
2.6898284
2.8047918
2.8592989
2.8782881
2.8816732
2.878642
2.8744008
2.8723057
2.8717504
2.8729746
2.8762796
2.8800046
2.8842075
2.8888101
2.8937491
2.8989983
2.9045497
2.9104047
2.9165731
2.92307
2.9299131
2.9371249
2.9447343
2.95278
2.9613107
2.9703814
2.9800535
2.9903991
3.0015041
3.0134651
3.0263943
3.0404179
3.0556823
3.0723538
3.0905948
3.1105522
3.1323385
3.1560353
3.1816764
3.2092948
3.2390799
3.272251
3.3141485
3.3868457
1.8257533
2.1753708
2.4792697
2.6772343
2.7893243
2.8415358
2.8591752
2.8620579
2.8586702
2.8546052
2.852643
2.852158
2.8535938
2.8568807
2.8605552
2.8646989
2.8692277
2.8740831
2.8792421
2.8846969
2.8904479
2.8965042
2.9028774
2.9095852
2.9166503
2.9240947
2.9319502
2.9402621
2.9490893
2.9584996
2.9685675
2.9793739
2.9910112
3.003589
3.0172478
3.0321442
3.0484389
3.0663001
3.0858961
3.1073153
3.1306149
3.1557649
3.1827024
3.211616
3.2437597
3.2846809
3.3576291
3.6054228
5.3211963
1.8207783
2.1692307
2.4707374
2.6656399
2.7745926
2.8243109
2.8404821
2.8428067
2.8389967
2.8350778
2.8332313
2.832813
2.8344356
2.8376833
2.841295
2.8453641
2.8498061
2.8545685
2.8596308
2.8649867
2.8706353
2.8765799
2.8828323
2.889409
2.8963289
2.903616
2.9112986
2.9194179
2.9280262
2.9371859
2.9469729
2.9574727
2.9687815
2.9810159
2.9943155
3.0088342
3.0247302
3.0421798
3.0613433
3.0823349
3.1051759
3.1297959
3.1560838
3.1841611
3.2153343
3.2554066
3.3288012
3.5865842
5.3913289
1.8164154
2.1641084
2.4631805
2.6548235
2.7604296
2.8075099
2.822131
2.8238614
2.8196
2.8158019
2.814061
2.8137081
2.8154917
2.8186842
2.8222251
2.8262103
2.8305555
2.8352151
2.8401711
2.8454182
2.8509576
2.8567917
2.8629275
2.869378
2.8761592
2.8832929
2.8908105
2.8987453
2.9071409
2.9160591
2.9255764
2.9357824
2.9467819
2.9586894
2.9716312
2.9857548
3.0012353
3.0182425
3.0369337
3.0574048
3.0797047
3.1037414
3.129366
3.1566561
3.186973
3.2263792
3.3005664
3.5700808
5.4645314
1.8119994
2.1594818
2.4561763
2.6444418
2.7465792
2.7909619
2.8040132
2.8051467
2.8004521
2.7967574
2.7951174
2.7948318
2.7967552
2.7998849
2.803352
2.8072491
2.8114936
2.8160461
2.8208921
2.8260273
2.831452
2.8371675
2.8431781
2.8494932
2.856129
2.8631076
2.8704557
2.8782065
2.8864056
2.8951068
2.9043737
2.9142922
2.9249758
2.936549
2.9491428
2.9629013
2.9779746
2.9945125
3.0126782
3.0325898
3.0542757
3.077643
3.1025506
3.1290831
3.1586622
3.1976789
3.2732455
3.5582492
5.5028113
1.8070276
2.1548039
2.4491918
2.634041
2.7327113
2.7744576
2.7860059
2.786585
2.7815249
2.7779292
2.7763891
2.776171
2.7782132
2.7812739
2.7846669
2.7884755
2.7926218
2.7970691
2.8018033
2.8068208
2.8121213
2.8177075
2.8235851
2.8297636
2.8362547
2.8430774
2.8502571
2.8578266
2.865828
2.8743109
2.8833386
2.8929947
2.9033804
2.9146206
2.9268553
2.9402301
2.9548892
2.9709733
2.9886138
3.0079221
3.028932
3.0515677
3.0757048
3.1014686
3.1303835
3.1692217
3.2467515
3.5511818
5.6028946
1.8011863
2.1496331
2.4417877
2.6232537
2.7185629
2.75783
2.7680054
2.7681202
2.7627933
2.7593027
2.7578621
2.7577067
2.7598463
2.7628337
2.7661539
2.7698763
2.7739258
2.7782675
2.7828873
2.7877812
2.7929523
2.7984036
2.8041408
2.8101744
2.8165153
2.823177
2.8301866
2.8375782
2.8453886
2.8536666
2.8624751
2.8718905
2.8820049
2.8929352
2.9048167
2.917798
2.9320259
2.9476306
2.9647273
2.9834027
3.0036999
3.0255554
3.0488705
3.0738565
3.1021512
3.1410021
3.2210461
3.5459765
5.7104158
1.7943066
2.1436155
2.4336387
2.611843
2.7039831
2.7409798
2.7500189
2.7496982
2.7442387
2.740867
2.7395271
2.7394286
2.74165
2.7445615
2.7478112
2.7514509
2.7554055
2.7596431
2.764148
2.7689163
2.7739504
2.7792562
2.7848416
2.7907172
2.7968956
2.8033925
2.8102321
2.8174441
2.8250683
2.833154
2.8417583
2.8509488
2.8608155
2.8714657
2.8830228
2.8956244
2.9094185
2.9245322
2.941075
2.9591143
2.9786763
2.99971
3.022161
3.0463275
3.0740232
3.1129731
3.1961001
3.5420089
5.7562415
1.7863566
2.1365054
2.4245309
2.5996932
2.6889333
2.7239158
2.7320544
2.7313291
2.7258566
2.7226162
2.7213813
2.7213381
2.7236293
2.7264662
2.7296479
2.7332058
2.737066
2.7411966
2.7455825
2.7502212
2.7551146
2.7602712
2.765703
2.7714224
2.7774415
2.7837741
2.7904409
2.7974703
2.8049037
2.8127912
2.8211861
2.8301511
2.8397751
2.8501585
2.8614205
2.873683
2.8870723
2.9017034
2.9176659
2.9350418
2.953849
2.9740386
2.9956106
3.0189613
3.0460786
3.0852762
3.1720019
3.5404911
5.8394587
1.777457
2.1282165
2.4143877
2.5868039
2.6734673
2.7067124
2.7141399
2.7130609
2.7076504
2.7045453
2.7034161
2.7034253
2.7057737
2.7085354
2.7116469
2.7151179
2.7188779
2.7228986
2.7271666
2.7316792
2.7364383
2.7414493
2.7467228
2.7522738
2.7581187
2.7642779
2.7707733
2.7776313
2.7848877
2.7925918
2.8007894
2.8095468
2.8189419
2.8290631
2.8400163
2.8519294
2.864906
2.8790458
2.8944485
2.9111664
2.9292187
2.9485599
2.9692409
2.9917683
3.0183396
3.0578808
3.1484816
3.5446997
5.9732033
1.7678996
2.1189125
2.4033765
2.5733564
2.6577504
2.6894957
2.6963424
2.6949583
2.6896446
2.6866725
2.6856354
2.6857012
2.6880884
2.690774
2.6938106
2.6971882
2.7008397
2.7047417
2.7088849
2.7132654
2.7178841
2.7227465
2.7278615
2.7332446
2.7389173
2.7449038
2.7512277
2.7579106
2.7649882
2.7725055
2.7805067
2.7890564
2.7982231
2.8080957
2.8187756
2.8303586
2.842941
2.8566197
2.871466
2.8875286
2.9048201
2.9233165
2.9431237
2.9648344
2.9908698
3.0308328
3.125601
3.5436048
6.074072
1.7580606
2.1089188
2.3918151
2.5596228
2.6419843
2.6723984
2.6787433
2.6770822
2.6718744
2.6690266
2.6680634
2.668186
2.6705864
2.6731912
2.6761465
2.6794242
2.6829615
2.686739
2.6907509
2.6949948
2.6994702
2.7041832
2.7091428
2.7143622
2.7198609
2.725663
2.7317983
2.7382926
2.74518
2.7524964
2.7602963
2.7686389
2.7775873
2.7872194
2.797622
2.8088984
2.8211189
2.8343497
2.848665
2.8640958
2.8806392
2.8983043
2.9172489
2.9381839
2.9636968
3.0041463
3.1036512
3.5526964
6.1518459
1.7483407
2.0986293
2.3800239
2.5458298
2.6263106
2.6554988
2.661389
2.6594596
2.6543543
2.6516175
2.6507093
2.6508885
2.6532762
2.6557952
2.6586617
2.6618337
2.6652522
2.6688996
2.6727715
2.6768676
2.6811898
2.6857448
2.6905454
2.6956047
2.7009388
2.70657
2.7125273
2.7188394
2.7255335
2.7326438
2.740234
2.7483553
2.7570728
2.7664542
2.7765788
2.7875437
2.7994043
2.8122087
2.8260146
2.8408391
2.8566704
2.8735201
2.8916087
2.9117577
2.9368204
2.9778467
3.0825528
3.5531166
6.2186963
1.7391477
2.0885206
2.3683506
2.5321816
2.6108249
2.638827
2.6442836
2.6420792
2.6370709
2.6344299
2.6335628
2.6337983
2.6361496
2.6385771
2.6413504
2.6444109
2.647704
2.6512155
2.6549404
2.658881
2.6630451
2.6674415
2.6720824
2.6769829
2.6821545
2.6876198
2.6934061
2.6995359
2.706038
2.7129489
2.7203197
2.7282083
2.7366888
2.745826
2.7556881
2.7663619
2.7778843
2.7902844
2.8035925
2.8178052
2.8329133
2.8489535
2.8661897
2.8855962
2.9102919
2.952093
3.0627064
3.5577079
6.2876266
1.7308123
2.0790966
2.3571908
2.5189125
2.5956314
2.6224115
2.6274251
2.6249193
2.6200055
2.6174514
2.6166187
2.6169097
2.6192055
2.6215387
2.6242097
2.6271549
2.6303212
2.6336955
2.6372767
2.6410669
2.645077
2.6493169
2.6537976
2.6585352
2.663542
2.6688369
2.6744489
2.6803956
2.6867062
2.6934255
2.7005914
2.7082587
2.7165078
2.725408
2.7350213
2.7453978
2.7565718
2.7685663
2.7813734
2.7949883
2.8094013
2.8246447
2.8410336
2.8597276
2.8841381
2.9270403
3.0445633
3.5681423
6.3707851
1.7234233
2.0707163
2.3468549
2.5062103
2.5808162
2.6062833
2.6108225
2.607976
2.6031556
2.600679
2.5998752
2.6002208
2.6024447
2.6046799
2.6072463
2.6100721
2.6131111
2.6163502
2.619789
2.6234337
2.6272925
2.6313798
2.6357068
2.6402868
2.6451331
2.6502606
2.6556972
2.6614615
2.6675832
2.6741086
2.681074
2.6885283
2.6965543
2.7052118
2.7145772
2.7246703
2.7355009
2.7470883
2.7594014
2.772412
2.7860912
2.8005333
2.8161549
2.8342271
2.8585423
2.9030643
3.028755
3.5879581
6.491425
1.7168372
2.0634743
2.337443
2.4941313
2.5664047
2.5904569
2.5944885
2.591264
2.586538
2.584132
2.5833526
2.5837473
2.5858827
2.5880158
2.5904725
2.5931773
2.5960882
2.5991953
2.6024961
2.605997
2.6097109
2.6136474
2.6178216
2.6222454
2.626927
2.6318835
2.6371393
2.6427164
2.6486478
2.654978
2.6617464
2.6690052
2.6768255
2.6852556
2.6943715
2.7041787
2.7146668
2.725836
2.7376405
2.7500406
2.7630299
2.776733
2.7916396
2.8092452
2.833683
2.8803097
3.0159805
3.6175669
6.6350459
1.7105996
2.0571822
2.3288326
2.4825762
2.5523143
2.5748619
2.5783576
2.5747314
2.5701037
2.5677655
2.5670118
2.567451
2.569484
2.5715102
2.5738528
2.5764325
2.5792111
2.582184
2.5853512
2.5887152
2.5922883
2.5960806
2.6001051
2.6043748
2.6088933
2.6136764
2.6187472
2.6241294
2.629863
2.6359896
2.6425489
2.6496027
2.6572129
2.6654246
2.674283
2.6837872
2.6939267
2.7046673
2.7159565
2.7277546
2.740072
2.7530938
2.7673997
2.7847174
2.8095192
2.8594469
3.0072259
3.6666442
6.8282666
1.7045268
2.0515186
2.3208297
2.4714722
2.5385654
2.5595725
2.5625207
2.5584913
2.5539619
2.5516856
2.5509557
2.5514341
2.553356
2.5552725
2.5575024
2.5599587
2.5626076
2.5654454
2.5684761
2.571705
2.5751429
2.5787988
2.5826797
2.5868009
2.5911626
2.5957754
2.6006662
2.6058555
2.611391
2.6173145
2.6236641
2.6305117
2.6378984
2.6458716
2.6544594
2.6636463
2.6734058
2.6836998
2.6944809
2.7056972
2.7173952
2.7298037
2.7436474
2.760931
2.7863505
2.839674
3.0032259
3.7267138
7.0173164
1.697487
2.0458682
2.3128778
2.4602558
2.5245785
2.5439973
2.5463883
2.5419651
2.5375346
2.5353143
2.5346056
2.5351116
2.53691
2.5387103
2.5408199
2.543148
2.5456633
2.5483614
2.5512495
2.5543347
2.5576262
2.5611352
2.5648653
2.5688249
2.5730231
2.5774665
2.5821756
2.5871724
2.5925062
2.5982215
2.6043613
2.6109883
2.6181355
2.6258525
2.6341372
2.6429691
2.6523197
2.6621464
2.6723958
2.6830392
2.6941391
2.7059964
2.7195043
2.7370021
2.7635493
2.8234352
3.0087115
3.828985
7.300989
1.6914105
2.0405104
2.3055492
2.4501579
2.5121577
2.5302806
2.532218
2.5274952
2.5231577
2.5209885
2.5202886
2.5208054
2.5224837
2.5241766
2.5261767
2.5283914
2.5307911
2.5333693
2.5361357
2.5390947
2.5422532
2.5456194
2.5491988
2.5529936
2.5570206
2.5612965
2.565834
2.5706607
2.5758192
2.5813446
2.5873004
2.5937334
2.6006683
2.6081505
2.616167
2.6246819
2.6336755
2.6431027
2.6529039
2.6630781
2.6736994
2.6851352
2.6984386
2.7164258
2.7438069
2.808666
3.0190197
3.9299241
7.5331466
1.6774141
2.0297691
2.2919402
2.4320882
2.4904229
2.506541
2.5078329
2.5027396
2.4985538
2.49646
2.4957909
2.4963014
2.497769
2.4992774
2.5010814
2.5030928
2.5052883
2.5076614
2.510221
2.5129648
2.515897
2.5190187
2.5223356
2.525848
2.5295731
2.5335424
2.5377708
2.5422946
2.5471465
2.5523641
2.5580032
2.5640975
2.5706732
2.5777502
2.5853118
2.593301
2.6017066
2.610474
2.6195477
2.6289535
2.6388665
2.6498127
2.6630673
2.6829385
2.7135976
2.8016071
3.0810368
4.2474193
8.1168846
)
;

boundaryField
{
    Side
    {
        type            empty;
    }
    Inlet
    {
        type            turbulentIntensityKineticEnergyInlet;
        intensity       0.03;
        value           nonuniform List<scalar> 
21
(
12.046984
12.046136
12.045331
12.045351
12.045741
12.046529
12.048127
12.05004
12.05069
12.050594
12.051803
12.054463
12.059669
12.067777
12.073568
12.077651
12.082327
12.089544
12.098796
12.110109
12.116252
)
;
    }
    Airfoil
    {
        type            kqRWallFunction;
        value           nonuniform List<scalar> 0();
    }
    Outlet
    {
        type            inletOutlet;
        inletValue      uniform 1.48208e-06;
        value           nonuniform List<scalar> 
49
(
1.6774141
2.0297691
2.2919402
2.4320882
2.4904229
2.506541
2.5078329
2.5027396
2.4985538
2.49646
2.4957909
2.4963014
2.497769
2.4992774
2.5010814
2.5030928
2.5052883
2.5076614
2.510221
2.5129648
2.515897
2.5190187
2.5223356
2.525848
2.5295731
2.5335424
2.5377708
2.5422946
2.5471465
2.5523641
2.5580032
2.5640975
2.5706732
2.5777502
2.5853118
2.593301
2.6017066
2.610474
2.6195477
2.6289535
2.6388665
2.6498127
2.6630673
2.6829385
2.7135976
2.8016071
3.0810368
4.2474193
8.1168846
)
;
    }
    procBoundary13to6
    {
        type            processor;
        value           nonuniform List<scalar> 
34
(
1.9630895
1.9630895
1.9501431
1.939047
1.9268135
1.9141659
1.9017411
1.8899532
1.8789624
1.8687782
1.8594186
1.8510459
1.8438054
1.8375374
1.8318463
1.8262612
1.8203127
1.8135686
1.8058201
1.7971049
1.7876738
1.7779503
1.7684933
1.759789
1.7519854
1.7449215
1.7383207
1.7318009
1.7249642
1.7174278
1.709291
1.699837
1.6915374
1.6754959
)
;
    }
    procBoundary13to12
    {
        type            processor;
        value           nonuniform List<scalar> 
60
(
2.3254581
2.6463898
2.8716688
3.0147935
3.0739342
3.0739342
3.107035
3.1159303
3.1156197
3.1090094
3.1043917
3.0800006
3.0800006
3.0795702
3.08123
3.0851719
3.0898439
3.0735687
3.0735687
3.0793182
3.0855106
3.0921131
3.0772463
3.0772463
3.0844995
3.092166
3.1002747
3.1088617
3.0954734
3.0954734
3.1049435
3.1150275
3.1257735
3.1141149
3.1141149
3.1261381
3.1390193
3.1528267
3.1437033
3.1437033
3.1593482
3.1761608
3.1697296
3.1697296
3.189083
3.2101192
3.2078078
3.2078078
3.2326174
3.2597528
3.2626066
3.2626066
3.2941329
3.3294009
3.3437455
3.3437455
3.4163551
3.6260637
3.6260637
5.3352397
)
;
    }
}


// ************************************************************************* //
