/*--------------------------------*- C++ -*----------------------------------*\
| =========                 |                                                 |
| \\      /  F ield         | OpenFOAM: The Open Source CFD Toolbox           |
|  \\    /   O peration     | Version:  2506                                  |
|   \\  /    A nd           | Website:  www.openfoam.com                      |
|    \\/     M anipulation  |                                                 |
\*---------------------------------------------------------------------------*/
FoamFile
{
    version     2.0;
    format      ascii;
    arch        "LSB;label=32;scalar=64";
    class       volScalarField;
    location    "0.8";
    object      omega;
}
// * * * * * * * * * * * * * * * * * * * * * * * * * * * * * * * * * * * * * //

dimensions      [0 0 -1 0 0 0 0];

internalField   nonuniform List<scalar> 
1376
(
24.131797
21.659
19.936075
18.83492
26.30757
23.834661
21.407474
19.725307
18.655151
17.997084
17.607196
17.389518
17.278642
17.229846
17.213785
25.995495
23.548054
21.163744
19.520514
18.480089
17.843888
17.469855
17.263244
17.159517
17.114824
17.100835
17.099793
17.115248
17.138974
17.164997
17.19346
25.696394
23.272036
20.92818
19.322046
18.309993
17.694625
17.335639
17.139456
17.042371
17.001433
16.989373
16.989127
17.006019
17.029606
17.055379
17.083494
17.11361
17.145534
17.179207
17.214633
25.40838
23.006256
20.700861
19.130007
18.144923
17.549308
17.204523
17.018098
16.927149
16.889649
16.879264
16.879876
16.897946
16.921322
16.946809
16.974543
17.004202
17.035626
17.068777
17.103672
17.140354
17.178888
17.219357
17.261869
17.306573
25.129809
22.750511
20.481921
18.944537
17.984964
17.407971
17.076504
16.899149
16.813841
16.779471
16.770441
16.772064
16.79102
16.814132
16.839305
16.866637
16.895825
16.926738
16.959355
16.993704
17.029836
17.067816
17.107723
17.14966
17.193762
17.240208
17.289204
17.341005
17.395874
24.859443
22.504303
20.271061
18.765433
17.829985
17.270535
16.951523
16.782562
16.702416
16.670852
16.662919
16.665665
16.685239
16.70806
16.732901
16.759817
16.788524
16.818917
16.85099
16.884779
16.920341
16.957743
16.997062
17.038398
17.081895
17.127682
17.175992
17.22705
17.281089
17.338435
17.399427
17.464452
17.533921
24.596149
22.266408
20.067238
18.591873
17.679393
17.136589
16.829306
16.668158
16.592753
16.563702
16.556689
16.560619
16.580596
16.603112
16.627611
16.654102
16.682326
16.712195
16.743715
16.776928
16.811896
16.848694
16.887409
16.928132
16.97097
17.016111
17.063723
17.114006
17.167236
17.22369
17.283714
17.34766
17.41591
17.488965
17.567392
17.651879
24.338593
22.035015
19.868897
18.422654
17.532292
17.005517
16.709459
16.555699
16.484709
16.457931
16.451722
16.45686
16.477061
16.499259
16.523412
16.549483
16.57723
16.606582
16.637547
16.670176
16.704539
16.740717
16.778792
16.818858
16.861032
16.90547
16.952337
17.00186
17.054282
17.109847
17.168847
17.231651
17.298679
17.37041
17.447428
17.530411
17.620188
17.717841
17.824654
24.084914
21.807558
19.673892
18.256194
17.38757
16.876574
16.591516
16.444914
16.378125
16.353438
16.347956
16.354314
16.374591
16.396463
16.420272
16.445933
16.473218
16.502068
16.532496
16.564554
16.598312
16.63385
16.671254
16.710625
16.75209
16.795788
16.841883
16.890577
16.942104
16.996724
17.054718
17.116418
17.182231
17.252642
17.328207
17.409654
17.49783
17.593746
17.698564
17.813459
17.939312
18.076285
23.832912
21.581112
19.479771
18.090632
17.243895
16.748871
16.474937
16.335505
16.27284
16.250146
16.245355
16.252942
16.27315
16.294676
16.318129
16.343377
16.370209
16.398576
16.42849
16.459998
16.493162
16.528067
16.564803
16.60347
16.644186
16.687096
16.732374
16.780205
16.830801
16.884412
16.941327
17.001887
17.066485
17.135584
17.209748
17.289684
17.376249
17.470431
17.573297
17.685824
17.808703
17.94196
18.08499
18.238583
18.412168
23.580527
21.353225
19.28457
17.92444
17.100125
16.621627
16.359245
16.227211
16.168729
16.14801
16.143913
16.152758
16.172763
16.193917
16.216991
16.241806
16.26817
16.296038
16.325427
16.35638
16.388959
16.423241
16.459316
16.497279
16.537243
16.579343
16.623746
16.67065
16.720277
16.772868
16.828704
16.888117
16.951493
17.019293
17.092076
17.170536
17.255522
17.347989
17.448903
17.559093
17.679016
17.808464
17.946869
18.095257
18.263955
18.501151
19.039283
23.326461
21.122618
19.087507
17.757123
16.955922
16.494616
16.244307
16.119967
16.065762
16.047034
16.043664
16.053781
16.073463
16.09421
16.116871
16.141221
16.167088
16.194435
16.223282
16.253671
16.285658
16.319315
16.354721
16.391973
16.431184
16.472474
16.515994
16.561936
16.610536
16.662053
16.716777
16.775032
16.837191
16.903701
16.975142
17.052203
17.135672
17.226437
17.325414
17.433234
17.550177
17.675835
17.809519
17.952632
18.116521
18.352715
18.911835
21.433363
35.636725
23.070752
20.88937
18.88885
17.589014
16.81159
16.368065
16.130257
16.01383
15.963954
15.947229
15.944615
15.955967
15.975229
15.995545
16.01775
16.041594
16.066928
16.093727
16.122013
16.151828
16.18322
16.216245
16.250977
16.287509
16.325944
16.366407
16.409044
16.454039
16.501616
16.55203
16.605583
16.662614
16.723514
16.788749
16.858883
16.934574
17.016549
17.105631
17.20261
17.308031
17.42194
17.543763
17.672791
17.810681
17.96993
18.205904
18.79027
21.487428
36.042871
22.815092
20.655206
18.690115
17.421348
16.668067
16.242611
16.017464
15.90896
15.863352
15.848598
15.846747
15.859236
15.878012
15.897876
15.919595
15.942902
15.967672
15.993891
16.021584
16.050792
16.081564
16.113947
16.148004
16.183814
16.221471
16.261097
16.302844
16.346882
16.393418
16.442711
16.495075
16.550869
16.610516
16.674483
16.743302
16.817592
16.898071
16.985458
17.080413
17.183296
17.294071
17.412032
17.536453
17.669313
17.82435
18.061277
18.674682
21.535591
36.492359
22.56247
20.423177
18.493838
17.256129
16.526836
16.119237
15.906484
15.805617
15.764046
15.751158
15.750037
15.763508
15.781773
15.801181
15.822399
15.845154
15.869346
15.89497
15.922054
15.950638
15.980764
16.012473
16.045816
16.080862
16.117704
16.156463
16.197285
16.240341
16.285847
16.334051
16.385241
16.439782
16.498126
16.560777
16.628278
16.701226
16.780233
16.865888
16.958745
17.059076
17.166639
17.280632
17.400443
17.528514
17.679946
17.919478
18.566455
21.602127
36.990134
22.316327
20.196828
18.302927
17.095661
16.389597
15.999054
15.797936
15.704083
15.666137
15.65492
15.654448
15.66869
15.686435
15.705386
15.726097
15.748301
15.771921
15.796955
15.823425
15.851369
15.880822
15.911825
15.944428
15.978698
16.014716
16.052595
16.092476
16.134534
16.178981
16.226059
16.276068
16.329373
16.386409
16.447693
16.513796
16.585309
16.662798
16.746753
16.837537
16.935265
17.039567
17.149587
17.264863
17.388395
17.536847
17.780653
18.467549
21.712963
37.497913
22.079512
19.978722
18.119105
16.941186
16.257235
15.882615
15.692103
15.604466
15.569653
15.559871
15.559918
15.574692
15.59191
15.610403
15.630608
15.652267
15.675319
15.69976
15.725608
15.752893
15.781655
15.811934
15.843776
15.877249
15.91243
15.949417
15.988356
16.029427
16.072829
16.118807
16.167665
16.21976
16.275512
16.335428
16.400077
16.470053
16.545902
16.628028
16.716657
16.811711
16.912721
17.01879
17.129641
17.248969
17.395128
17.64517
18.380039
21.867067
37.999378
21.853729
19.770409
17.943197
16.793107
16.129921
15.769958
15.588947
15.506715
15.474565
15.465882
15.466428
15.481479
15.498174
15.516212
15.535917
15.557043
15.579534
15.603383
15.628601
15.655214
15.683256
15.712774
15.743818
15.776455
15.810766
15.846853
15.884857
15.924943
15.967318
16.012233
16.059979
16.110895
16.165402
16.223989
16.287202
16.355603
16.429728
16.509924
16.596312
16.688651
16.786327
16.888451
16.995004
17.110424
17.255043
17.513327
18.3038
22.034644
38.493155
21.639177
19.572275
17.775222
16.651219
16.007363
15.66079
15.488231
15.410668
15.380755
15.372899
15.373925
15.389056
15.405243
15.422835
15.442053
15.462658
15.484594
15.507849
15.532428
15.558357
15.585668
15.61441
15.644646
15.676445
15.709887
15.745069
15.782123
15.821208
15.862538
15.906368
15.952978
16.002698
16.055948
16.113206
16.175009
16.24188
16.31428
16.392486
16.476489
16.565994
16.660283
16.758481
16.860902
16.97283
17.116783
17.385907
18.240281
22.232302
39.026378
21.434648
19.383455
17.614345
16.514749
15.888898
15.554598
15.389604
15.316109
15.288079
15.280852
15.282328
15.297393
15.313087
15.330236
15.348967
15.369045
15.390418
15.413074
15.437018
15.46227
15.488862
15.516835
15.546248
15.577179
15.609717
15.643978
15.680092
15.718212
15.758537
15.801319
15.846818
15.895372
15.947372
16.00327
16.063566
16.128794
16.199345
16.275424
16.356987
16.443592
16.53446
16.62877
16.727212
16.836017
16.980173
17.262464
18.188212
22.46435
39.601203
21.237996
19.202039
17.458938
16.382361
15.7735
15.450676
15.292647
15.222827
15.196444
15.189722
15.191632
15.206526
15.221735
15.238438
15.256673
15.276212
15.297002
15.319034
15.342318
15.366871
15.39272
15.419908
15.44849
15.478546
15.510183
15.543523
15.578699
15.61585
15.655172
15.696903
15.741297
15.788682
15.839427
15.893981
15.952829
16.016416
16.085085
16.159
16.238008
16.321598
16.408955
16.499395
16.59405
16.700124
16.845375
17.143443
18.147749
22.713583
40.143466
21.046863
19.026138
17.307612
16.252968
15.66035
15.348482
15.197061
15.130698
15.105834
15.099551
15.101901
15.116533
15.13125
15.147494
15.165222
15.184207
15.204398
15.225787
15.248389
15.272224
15.297315
15.323706
15.351454
15.380634
15.41135
15.443724
15.477902
15.514035
15.552308
15.592935
15.636195
15.682399
15.731902
15.785122
15.842497
15.904465
15.971276
16.042988
16.119404
16.199925
16.283703
16.370273
16.461261
16.565037
16.712291
17.02908
18.125154
22.982644
40.665576
20.858993
18.854083
17.159421
16.12597
15.549042
15.24776
15.102713
15.039673
15.016242
15.01036
15.013161
15.027453
15.041669
15.057437
15.074639
15.093055
15.112632
15.133359
15.155254
15.178339
15.202646
15.228217
15.255121
15.283434
15.31325
15.344686
15.377888
15.413007
15.45021
15.489702
15.531784
15.576748
15.62495
15.676776
15.73263
15.792911
15.857806
15.927281
16.00105
16.078448
16.158638
16.241332
16.328737
16.430477
16.580801
16.919841
18.119668
23.255046
41.161977
20.672511
18.684208
17.0134
16.000841
15.439299
15.148365
15.00953
14.94971
14.927639
14.922126
14.92538
14.939265
14.952967
14.968239
14.984898
15.002723
15.021661
15.041705
15.062867
15.085179
15.108686
15.133437
15.159498
15.186951
15.215878
15.246396
15.278642
15.312751
15.34889
15.387266
15.42815
15.471848
15.518734
15.569176
15.62353
15.682142
15.745111
15.812298
15.883303
15.957401
16.033829
16.112572
16.196428
16.296528
16.451211
16.816384
18.1176
23.533001
41.62712
20.486241
18.515133
16.868644
15.877056
15.330851
15.050177
14.917459
14.860779
14.840009
14.834851
14.838556
14.851969
14.865151
14.879909
14.895994
14.913209
14.931494
14.950841
14.971274
14.992822
15.015538
15.039477
15.064699
15.091289
15.119328
15.148922
15.18021
15.213312
15.248395
15.285686
15.325419
15.367892
15.413492
15.462582
15.515483
15.572412
15.633404
15.698227
15.76634
15.837016
15.909589
15.984295
16.064625
16.163491
16.324077
16.720814
18.142394
23.864023
42.120946
20.299775
18.346053
16.72468
15.754393
15.223638
14.953215
14.826539
14.772908
14.753374
14.748552
14.75268
14.765565
14.778218
14.792442
14.80794
14.824525
14.842147
14.860798
14.880503
14.901302
14.923244
14.946391
14.970804
14.996559
15.023736
15.052425
15.082763
15.11487
15.148915
15.185127
15.223732
15.265013
15.309358
15.357093
15.408549
15.463815
15.522791
15.585166
15.650293
15.717404
15.785907
15.85651
15.933619
16.031965
16.200674
16.636623
18.203563
24.285439
42.717049
20.113488
18.176875
16.581528
15.632961
15.117807
14.857625
14.736891
14.686193
14.667812
14.663305
14.667809
14.680105
14.692212
14.705882
14.720768
14.736709
14.753661
14.771623
14.790614
14.810677
14.83187
14.854245
14.87787
14.902813
14.929136
14.956934
14.98633
15.017454
15.050482
15.085637
15.123149
15.163307
15.206461
15.252889
15.302888
15.356451
15.413348
15.473156
15.535153
15.598576
15.66305
15.729732
15.803969
15.902922
16.082892
16.568681
18.311766
24.80662
43.385801
19.928221
18.007675
16.438994
15.512541
15.013157
14.763204
14.648303
14.600416
14.583113
14.578906
14.583732
14.595392
14.606935
14.620024
14.634276
14.649556
14.665822
14.683086
14.701377
14.720726
14.741191
14.762822
14.78568
14.80983
14.835319
14.862233
14.890694
14.920832
14.952844
14.986941
15.023353
15.062387
15.104356
15.149507
15.198012
15.249784
15.30452
15.361652
15.420422
15.480121
15.540617
15.603647
15.675671
15.77673
15.971776
16.520853
18.482724
25.46236
44.165505
19.746605
17.841017
16.298866
15.39437
14.91061
14.670706
14.561446
14.516215
14.499905
14.495969
14.501048
14.512043
14.523011
14.535502
14.549119
14.563738
14.579323
14.595891
14.613479
14.632128
14.651888
14.672803
14.694917
14.718295
14.742971
14.769017
14.79656
14.825726
14.85673
14.889783
14.925108
14.96303
15.003793
15.047616
15.094576
15.144488
15.196943
15.251319
15.306863
15.362918
15.41968
15.47948
15.550142
15.655177
15.870293
16.50204
18.713772
26.197191
44.921459
19.565698
17.672206
16.15645
15.274331
14.806522
14.576807
14.473181
14.43055
14.415183
14.411509
14.416758
14.427031
14.437395
14.449251
14.4622
14.476135
14.491021
14.506873
14.523738
14.541657
14.560676
14.580839
14.602176
14.624733
14.64856
14.673718
14.70032
14.728495
14.758464
14.790444
14.82467
14.861431
14.900928
14.943347
14.988634
15.036529
15.086564
15.138069
15.190291
15.242752
15.295977
15.35307
15.423631
15.536201
15.781544
16.519969
19.06593
27.169586
45.887629
19.407736
17.52731
16.034171
15.170766
14.716322
14.495121
14.396149
14.355624
14.341034
14.337538
14.34285
14.35246
14.362263
14.373538
14.385885
14.399213
14.413486
14.428713
14.444947
14.46222
14.480566
14.50002
14.520611
14.542364
14.565351
14.589657
14.615374
14.64265
14.671687
14.702683
14.735921
14.77164
14.809996
14.851128
14.894908
14.940985
14.988864
15.037846
15.087192
15.13662
15.186981
15.242133
15.313371
15.43421
15.707228
16.572008
19.45053
28.111675
46.700047
19.157405
17.287735
15.828823
14.996043
14.563569
14.356219
14.264703
14.227469
14.213999
14.210838
14.216041
14.224509
14.233343
14.2436
14.254891
14.267157
14.280365
14.294522
14.309672
14.325824
14.342998
14.361204
14.380467
14.400807
14.4223
14.445073
14.469229
14.494939
14.522383
14.551766
14.583344
14.617302
14.65375
14.692699
14.733928
14.776944
14.821205
14.865978
14.910654
14.955348
15.001851
15.055839
15.132855
15.283741
15.655335
16.843383
20.53165
30.29622
48.385808
)
;

boundaryField
{
    Side
    {
        type            empty;
    }
    Inlet
    {
        type            fixedValue;
        value           uniform 60.24606;
    }
    Airfoil
    {
        type            omegaWallFunction;
        blending        binomial;
        n               2;
        value           nonuniform List<scalar> 0();
    }
    Outlet
    {
        type            inletOutlet;
        inletValue      uniform 60.24606;
        value           nonuniform List<scalar> 
49
(
19.157405
17.287735
15.828823
14.996043
14.563569
14.356219
14.264703
14.227469
14.213999
14.210838
14.216041
14.224509
14.233343
14.2436
14.254891
14.267157
14.280365
14.294522
14.309672
14.325824
14.342998
14.361204
14.380467
14.400807
14.4223
14.445073
14.469229
14.494939
14.522383
14.551766
14.583344
14.617302
14.65375
14.692699
14.733928
14.776944
14.821205
14.865978
14.910654
14.955348
15.001851
15.055839
15.132855
15.283741
15.655335
16.843383
20.53165
30.29622
48.385808
)
;
    }
    procBoundary13to6
    {
        type            processor;
        value           nonuniform List<scalar> 
34
(
26.633934
26.633934
26.330926
26.013686
25.710571
25.418063
25.132869
24.852663
24.576417
24.30417
24.036259
23.772568
23.512636
23.256115
23.002937
22.753846
22.510625
22.275523
22.049931
21.834115
21.627115
21.426895
21.230762
21.036353
20.84235
20.648466
20.455327
20.264474
20.077896
19.896876
19.723101
19.552154
19.403373
19.162506
)
;
    }
    procBoundary13to12
    {
        type            processor;
        value           nonuniform List<scalar> 
60
(
24.438381
21.917254
20.151956
19.018769
18.154058
18.154058
17.747606
17.518294
17.399806
17.346559
17.328255
17.211869
17.211869
17.2257
17.249473
17.2757
17.304467
17.224011
17.224011
17.256414
17.290593
17.326537
17.251853
17.251853
17.290923
17.331936
17.375017
17.420323
17.353661
17.353661
17.40334
17.455874
17.511525
17.454117
17.454117
17.516072
17.582134
17.652728
17.608292
17.608292
17.688109
17.774062
17.743283
17.743283
17.842722
17.951586
17.941955
17.941955
18.070778
18.211434
18.223853
18.223853
18.382606
18.561107
18.650913
18.650913
19.17132
21.421841
21.421841
35.297506
)
;
    }
}


// ************************************************************************* //
