/*--------------------------------*- C++ -*----------------------------------*\
| =========                 |                                                 |
| \\      /  F ield         | OpenFOAM: The Open Source CFD Toolbox           |
|  \\    /   O peration     | Version:  2506                                  |
|   \\  /    A nd           | Website:  www.openfoam.com                      |
|    \\/     M anipulation  |                                                 |
\*---------------------------------------------------------------------------*/
FoamFile
{
    version     2.0;
    format      ascii;
    arch        "LSB;label=32;scalar=64";
    class       volScalarField;
    location    "1.95";
    object      T;
}
// * * * * * * * * * * * * * * * * * * * * * * * * * * * * * * * * * * * * * //

dimensions      [0 0 0 1 0 0 0];

internalField   nonuniform List<scalar> 
1376
(
245.56912
245.56972
245.57146
245.57245
245.57358
245.57465
245.57525
245.57674
245.57768
245.57847
245.57949
245.58016
245.58065
245.58061
245.58126
245.58138
245.58164
245.58157
245.5824
245.58402
245.58213
245.57545
245.56859
245.57038
245.57186
245.57332
245.57432
245.57611
245.57704
245.57786
245.57901
245.57982
245.58038
245.58045
245.58108
245.58133
245.5816
245.58165
245.58236
245.58398
245.58204
245.57565
245.56833
245.57021
245.57206
245.57343
245.57542
245.57627
245.57727
245.57868
245.5795
245.5801
245.58027
245.58094
245.58136
245.5815
245.58172
245.58233
245.58391
245.58184
245.57584
245.56849
245.57076
245.57251
245.57469
245.57558
245.57671
245.57843
245.57919
245.57976
245.5801
245.58081
245.58138
245.58137
245.58177
245.58229
245.58382
245.58169
245.57602
245.57157
245.57391
245.57487
245.57618
245.57819
245.57887
245.57942
245.57992
245.58072
245.58124
245.58128
245.58179
245.58227
245.58375
245.58164
245.57618
245.57307
245.57419
245.57571
245.57797
245.57857
245.57907
245.57973
245.58062
245.58105
245.58123
245.58176
245.58225
245.58373
245.58159
245.57631
245.57352
245.57527
245.57774
245.57827
245.57873
245.57957
245.58049
245.58095
245.58117
245.58169
245.5822
245.58367
245.58145
245.57638
245.57481
245.57747
245.57801
245.57844
245.57944
245.58038
245.58088
245.58108
245.5816
245.58214
245.58361
245.58134
245.5764
245.57434
245.57717
245.57776
245.57819
245.57931
245.58029
245.58078
245.5809
245.58151
245.58205
245.58358
245.58126
245.57639
245.57685
245.57752
245.57794
245.57919
245.58017
245.58065
245.58077
245.5814
245.58192
245.5836
245.58113
245.57634
245.57726
245.57767
245.57907
245.58003
245.58054
245.5807
245.58124
245.58179
245.58358
245.581
245.57629
245.5774
245.57889
245.57985
245.58042
245.58057
245.58108
245.58165
245.58354
245.58091
245.57624
245.57868
245.5796
245.58024
245.58051
245.58089
245.58149
245.58344
245.58082
245.5762
245.57933
245.58006
245.58043
245.58067
245.58141
245.58334
245.58064
245.57618
245.57985
245.58028
245.58054
245.58136
245.58323
245.58048
245.57617
245.58024
245.58049
245.58116
245.58311
245.58037
245.57608
245.58035
245.58108
245.58294
245.58033
245.57596
245.58112
245.58282
245.58038
245.57578
245.58274
245.58061
245.57555
245.58096
245.57539
246.2543
246.21658
246.18467
246.14601
246.09756
246.05083
246.01467
245.98522
245.95803
245.93385
245.91292
245.89457
245.8768
245.85886
245.84231
245.8286
245.81727
245.80748
245.79839
245.78898
245.77868
245.76768
245.75769
246.22341
246.20053
246.19024
246.18521
246.17156
246.14307
246.11317
246.09416
246.07963
246.06064
246.0381
246.0171
245.99792
245.977
245.95233
245.92851
245.90825
245.89064
245.8744
245.85863
245.84272
245.82634
245.81101
245.88452
245.87068
245.87464
245.88483
245.89269
245.88305
245.86692
245.86703
245.87297
245.8764
245.87817
245.88183
245.88653
245.88692
245.8826
245.87466
245.8676
245.8618
245.85626
245.85061
245.8443
245.83586
245.82615
245.78233
245.76101
245.7603
245.7588
245.75866
245.75012
245.72956
245.72064
245.72187
245.72385
245.72675
245.73153
245.73903
245.74589
245.74843
245.74888
245.74992
245.75202
245.7555
245.76043
245.76531
245.76757
245.769
245.75777
245.73896
245.73222
245.72194
245.71486
245.70192
245.6843
245.67197
245.66806
245.66477
245.66327
245.66396
245.66726
245.67179
245.67295
245.67247
245.6726
245.67356
245.67638
245.68189
245.68839
245.69335
245.69761
245.74822
245.72914
245.72058
245.71165
245.70109
245.68487
245.66783
245.65691
245.65088
245.64528
245.63992
245.63818
245.63887
245.64062
245.64034
245.63754
245.63511
245.63453
245.63522
245.63831
245.64255
245.64588
245.64904
245.74478
245.72549
245.71502
245.70794
245.69554
245.67723
245.6619
245.65252
245.64587
245.63883
245.63191
245.62857
245.62781
245.62806
245.62656
245.62265
245.61878
245.61685
245.61636
245.6175
245.61939
245.62058
245.62189
245.74343
245.72025
245.71129
245.7061
245.69238
245.67372
245.66042
245.65162
245.64447
245.63651
245.62896
245.62532
245.62371
245.62307
245.62082
245.61671
245.61252
245.60993
245.6085
245.60853
245.60868
245.60835
245.60836
245.756
245.73837
245.71235
245.70708
245.70278
245.68903
245.67181
245.66079
245.65249
245.64478
245.6357
245.6279
245.62453
245.62266
245.62143
245.61877
245.61488
245.61078
245.60774
245.60598
245.60536
245.60461
245.60306
245.60231
245.74353
245.7342
245.70996
245.70118
245.69782
245.68606
245.67093
245.66162
245.65389
245.64579
245.63578
245.62808
245.62501
245.62307
245.6214
245.61855
245.61484
245.61096
245.6079
245.60587
245.60493
245.60366
245.60157
245.60024
245.72729
245.72562
245.70692
245.69586
245.69397
245.68323
245.66955
245.66187
245.65491
245.64679
245.63653
245.62931
245.62626
245.62407
245.62213
245.61938
245.6156
245.61202
245.6089
245.60668
245.60573
245.60423
245.60186
245.60025
245.7187
245.71337
245.70098
245.69218
245.69006
245.67941
245.66783
245.66126
245.65447
245.64669
245.63759
245.63146
245.62793
245.62523
245.62331
245.62034
245.6167
245.61351
245.61018
245.60781
245.60699
245.60548
245.60294
245.71153
245.70451
245.69264
245.68829
245.68451
245.6738
245.66609
245.66092
245.65367
245.64581
245.63818
245.63331
245.62951
245.62618
245.62426
245.62081
245.61771
245.61518
245.61159
245.60908
245.60839
245.60689
245.60421
245.70073
245.69445
245.68466
245.68225
245.67545
245.6657
245.66391
245.66075
245.65283
245.64439
245.63804
245.63397
245.63039
245.62724
245.62477
245.62049
245.61794
245.61625
245.61284
245.61041
245.60979
245.60814
245.6053
245.69048
245.68754
245.68143
245.68257
245.67944
245.66523
245.65958
245.6599
245.65597
245.64872
245.64278
245.63845
245.63416
245.63027
245.62799
245.62485
245.61954
245.6175
245.61608
245.61324
245.61134
245.61089
245.60905
245.60614
245.6815
245.67621
245.6718
245.67239
245.67067
245.65903
245.65521
245.65521
245.6485
245.64398
245.64126
245.63831
245.63364
245.62897
245.62723
245.62385
245.61864
245.617
245.61567
245.61273
245.61133
245.61114
245.60936
245.60674
245.66956
245.66636
245.66545
245.66222
245.65732
245.65574
245.65218
245.64937
245.64245
245.63992
245.63794
245.6356
245.63175
245.62741
245.62593
245.62224
245.61763
245.61629
245.6148
245.61166
245.61074
245.61057
245.60894
245.60688
245.65365
245.65806
245.65718
245.65193
245.64859
245.64913
245.64603
245.64101
245.63919
245.63634
245.63325
245.63147
245.62834
245.62563
245.62369
245.61984
245.61643
245.61524
245.61312
245.61008
245.60972
245.60946
245.60809
245.6065
245.64225
245.64183
245.6457
245.64411
245.64172
245.64287
245.64077
245.639
245.63564
245.63401
245.63032
245.6281
245.62728
245.62395
245.62371
245.62077
245.61703
245.61459
245.61387
245.61142
245.60843
245.60827
245.60773
245.60657
245.6054
245.62983
245.62969
245.63273
245.63668
245.63591
245.63546
245.63425
245.63213
245.63012
245.62811
245.62448
245.62479
245.62301
245.62025
245.62073
245.61813
245.61426
245.61261
245.61206
245.60899
245.60671
245.6069
245.60601
245.60474
245.60366
245.62015
245.62135
245.62289
245.62609
245.62782
245.62738
245.62741
245.62616
245.62481
245.62292
245.62185
245.62132
245.61858
245.61773
245.61725
245.61462
245.6111
245.6109
245.60986
245.60625
245.60581
245.60591
245.60449
245.60321
245.60197
245.6034
245.61184
245.61507
245.61525
245.61607
245.62055
245.62033
245.62052
245.62004
245.61968
245.61943
245.61837
245.61697
245.61551
245.61477
245.61336
245.61067
245.61017
245.6098
245.60745
245.60468
245.60501
245.60474
245.60286
245.60181
245.60056
245.59569
245.60529
245.60777
245.60802
245.61024
245.61186
245.61351
245.61521
245.61536
245.61465
245.61491
245.61431
245.61349
245.61255
245.61169
245.61059
245.60857
245.60898
245.60862
245.60548
245.60351
245.60363
245.60309
245.60157
245.60077
245.59944
245.59
245.5979
245.60381
245.6023
245.60569
245.60712
245.60761
245.60945
245.61095
245.61059
245.61075
245.611
245.61061
245.60963
245.60883
245.60759
245.60751
245.60686
245.6058
245.60461
245.60331
245.60277
245.60165
245.60045
245.59965
245.59834
245.5846
245.58723
245.59245
245.59846
245.5975
245.60059
245.60426
245.60239
245.60454
245.60666
245.6063
245.60677
245.60714
245.60755
245.6075
245.60649
245.60552
245.60567
245.60436
245.60383
245.60349
245.60236
245.60174
245.60066
245.59978
245.59874
245.59713
245.58083
245.58427
245.58799
245.59371
245.59488
245.597
245.60106
245.59949
245.60055
245.6026
245.60244
245.60374
245.60512
245.60471
245.60478
245.60368
245.60361
245.60338
245.60234
245.60209
245.60138
245.60125
245.60086
245.59995
245.59891
245.59762
245.57268
245.57801
245.58158
245.58449
245.58942
245.59212
245.59399
245.59657
245.59657
245.59668
245.59967
245.60003
245.60088
245.60281
245.60317
245.60206
245.60211
245.60106
245.6008
245.60055
245.60007
245.59971
245.60017
245.59971
245.59887
245.598
245.59646
245.5725
245.57642
245.5799
245.58193
245.58567
245.58856
245.59
245.59284
245.59515
245.5947
245.59666
245.5986
245.59895
245.59918
245.6002
245.60001
245.59961
245.59897
245.59921
245.59884
245.59832
245.59902
245.59884
245.59798
245.59737
245.59681
245.59558
245.57235
245.57509
245.57807
245.57978
245.58249
245.58534
245.58701
245.59005
245.59217
245.59293
245.59502
245.5953
245.59593
245.59746
245.59704
245.59756
245.59701
245.59738
245.59739
245.59774
245.59757
245.59783
245.59733
245.59652
245.59581
245.5951
245.59445
245.57365
245.57563
245.57793
245.57929
245.5812
245.58354
245.58474
245.58723
245.58952
245.58986
245.59135
245.59277
245.5927
245.59413
245.59499
245.59503
245.59525
245.59599
245.59636
245.59656
245.59626
245.59637
245.59568
245.59475
245.59426
245.59388
245.59373
245.57453
245.57607
245.57789
245.5792
245.58045
245.58268
245.58377
245.58545
245.58786
245.58885
245.59009
245.59081
245.59106
245.59184
245.59247
245.59289
245.59464
245.59395
245.5942
245.59479
245.59434
245.59393
245.59404
245.59336
245.59286
245.59303
245.59326
245.57533
245.57683
245.57842
245.57992
245.58109
245.58261
245.58354
245.58451
245.5864
245.58706
245.58835
245.58981
245.58894
245.58956
245.59099
245.59079
245.59193
245.59294
245.59177
245.59182
245.59252
245.5919
245.59247
245.59231
245.59219
245.59244
245.57596
245.57726
245.57858
245.57986
245.58097
245.58198
245.58305
245.58361
245.585
245.58607
245.58661
245.58836
245.58838
245.58854
245.58951
245.58946
245.58972
245.59084
245.59041
245.5901
245.59113
245.59078
245.59118
245.5917
245.59237
245.59286
245.57629
245.57738
245.57859
245.57985
245.581
245.58197
245.58292
245.58361
245.5845
245.58547
245.58598
245.58686
245.58748
245.58749
245.58835
245.58834
245.58831
245.58903
245.58923
245.58912
245.58996
245.59054
245.59116
245.5917
245.59237
245.59274
245.57748
245.57819
245.5791
245.58003
245.5809
245.58166
245.58219
245.58286
245.58338
245.58435
245.58502
245.58546
245.58659
245.58671
245.58702
245.58765
245.58741
245.58818
245.58928
245.58908
245.58972
245.59051
245.59098
245.59148
245.59166
245.57828
245.57874
245.57917
245.57968
245.5801
245.58066
245.58117
245.58176
245.5824
245.58311
245.58405
245.585
245.5861
245.58713
245.58776
245.58827
245.58858
245.58871
245.58916
245.58917
245.58901
245.58932
245.58965
245.59003
245.59047
245.57904
245.5796
245.58011
245.58066
245.58117
245.58164
245.58218
245.58266
245.58323
245.58399
245.58444
245.58502
245.58584
245.58638
245.58685
245.58748
245.58813
245.58809
245.58809
245.58828
245.58833
245.58862
245.58909
245.5895
245.58995
245.58003
245.58054
245.5811
245.58168
245.58216
245.5826
245.58319
245.58357
245.58385
245.58456
245.58508
245.58492
245.58511
245.58548
245.58571
245.5863
245.58701
245.58747
245.58767
245.58788
245.58829
245.58845
245.58858
245.5892
245.58051
245.5809
245.58128
245.58168
245.58203
245.58235
245.58261
245.58293
245.58324
245.58353
245.58411
245.58442
245.5846
245.58509
245.58556
245.58576
245.58641
245.58686
245.5873
245.58769
245.58784
245.588
245.58824
245.58842
245.58092
245.58115
245.58143
245.58168
245.58199
245.58227
245.58253
245.58282
245.58308
245.58342
245.58375
245.58422
245.58452
245.58475
245.58516
245.58536
245.58561
245.58619
245.58639
245.58662
245.58697
245.58733
245.58765
245.58076
245.58094
245.58121
245.5815
245.58181
245.5821
245.58235
245.58261
245.583
245.58319
245.5834
245.58364
245.58398
245.58407
245.58428
245.58481
245.58511
245.58539
245.58571
245.58601
245.58624
245.58653
245.58156
245.5818
245.58177
245.58181
245.5821
245.58235
245.58232
245.58239
245.58277
245.58293
245.58304
245.58335
245.58364
245.58376
245.58394
245.58435
245.58483
245.58518
245.58545
245.58571
245.58605
245.58632
245.58145
245.58146
245.58149
245.5816
245.58165
245.58177
245.58184
245.58187
245.58195
245.58209
245.58215
245.58236
245.58265
245.583
245.58333
245.58362
245.58406
245.58443
245.58464
245.58492
245.58521
245.58169
245.58173
245.58171
245.58168
245.58168
245.58167
245.58166
245.58171
245.58179
245.5818
245.58186
245.58201
245.58223
245.58241
245.5827
245.58298
245.5832
245.58345
245.58366
245.58393
245.58153
245.58151
245.58154
245.58159
245.58157
245.58158
245.58166
245.58165
245.58168
245.58179
245.5818
245.5818
245.58188
245.58197
245.58202
245.58212
245.58226
245.58245
245.58263
245.58248
245.58257
245.58263
245.5827
245.58279
245.5828
245.58283
245.58282
245.58275
245.58268
245.58261
245.58255
245.58254
245.5825
245.58249
245.5825
245.58254
245.58412
245.58422
245.58429
245.58437
245.5844
245.58438
245.58433
245.58426
245.58418
245.58408
245.584
245.58392
245.58389
245.58386
245.58383
245.58383
245.58215
245.58221
245.58221
245.58221
245.5822
245.5822
245.58217
245.58215
245.58216
245.58222
245.58229
245.58236
245.58248
245.58264
245.57526
245.5751
245.57497
245.57486
245.57478
245.57471
245.57463
245.57456
245.5745
245.57447
245.57447
245.57453
)
;

boundaryField
{
    Side
    {
        type            empty;
    }
    Inlet
    {
        type            totalTemperature;
        gamma           1.4;
        T0              uniform 250;
        value           nonuniform List<scalar> 
32
(
245.58498
245.58495
245.58494
245.58493
245.5849
245.58487
245.58485
245.58485
245.58485
245.58483
245.58481
245.5848
245.58479
245.58479
245.58478
245.58478
245.58483
245.58488
245.58491
245.58496
245.58502
245.58505
245.5851
245.58516
245.58524
245.58533
245.58545
245.58558
245.58573
245.58586
245.58591
245.58591
)
;
    }
    Airfoil
    {
        type            zeroGradient;
    }
    Outlet
    {
        type            inletOutlet;
        inletValue      nonuniform List<scalar> 0();
        value           nonuniform List<scalar> 0();
    }
    procBoundary9to2
    {
        type            processor;
        value           nonuniform List<scalar> 
23
(
245.75913
245.76862
245.77903
245.78835
245.79663
245.8052
245.81592
245.82957
245.84544
245.86194
245.87831
245.89601
245.91647
245.94092
245.96539
245.98852
246.01449
246.05227
246.1002
246.14217
246.17718
246.21823
246.26598
)
;
    }
    procBoundary9to8
    {
        type            processor;
        value           nonuniform List<scalar> 
75
(
245.56874
245.56874
245.56502
245.56629
245.56629
245.56612
245.56612
245.56615
245.56615
245.5667
245.56945
245.56945
245.57057
245.57057
245.57224
245.57224
245.57288
245.57288
245.57227
245.57385
245.57385
245.57652
245.57652
245.57696
245.57696
245.57715
245.57715
245.57847
245.57847
245.57916
245.57916
245.57965
245.57965
245.58025
245.58025
245.58029
245.58029
245.58116
245.58116
245.58278
245.58278
245.58133
245.57531
246.3079
246.25346
245.92074
245.82526
245.79686
245.78312
245.76704
245.75699
245.75699
245.75888
245.74708
245.7373
245.72664
245.71365
245.70014
245.70014
245.69081
245.67663
245.66602
245.65409
245.65409
245.63677
245.61815
245.61095
245.61095
245.5963
245.59126
245.58694
245.58694
245.57694
245.57418
245.57418
)
;
    }
    procBoundary9to10
    {
        type            processor;
        value           nonuniform List<scalar> 
66
(
245.74955
245.79773
245.81687
245.76927
245.70206
245.6529
245.62427
245.60929
245.60246
245.59986
245.59947
245.60114
245.60114
245.60224
245.60322
245.60399
245.60454
245.60475
245.60436
245.60335
245.60172
245.59993
245.59853
245.59748
245.59669
245.59603
245.59617
245.59617
245.59547
245.59499
245.59445
245.5937
245.59315
245.59296
245.59296
245.59304
245.59262
245.59171
245.59171
245.59091
245.59043
245.58944
245.58944
245.58854
245.58772
245.58772
245.58677
245.58677
245.58654
245.58543
245.58543
245.58421
245.58421
245.58287
245.58262
245.58287
245.58275
245.58262
245.58387
245.58274
245.58387
245.58288
245.57464
245.58274
245.57476
245.57464
)
;
    }
}


// ************************************************************************* //
