/*--------------------------------*- C++ -*----------------------------------*\
| =========                 |                                                 |
| \\      /  F ield         | OpenFOAM: The Open Source CFD Toolbox           |
|  \\    /   O peration     | Version:  2506                                  |
|   \\  /    A nd           | Website:  www.openfoam.com                      |
|    \\/     M anipulation  |                                                 |
\*---------------------------------------------------------------------------*/
FoamFile
{
    version     2.0;
    format      ascii;
    arch        "LSB;label=32;scalar=64";
    class       volScalarField;
    location    "0.02";
    object      rho;
}
// * * * * * * * * * * * * * * * * * * * * * * * * * * * * * * * * * * * * * //

dimensions      [1 -3 0 0 0 0 0];

internalField   nonuniform List<scalar> 
13761
(
0.66984342
0.66983767
0.66983176
0.66982555
0.6698189
0.66981161
0.66980348
0.66979427
0.66978366
0.6697713
0.66975669
0.66973922
0.66971807
0.66969212
0.66965981
0.66961895
0.66956638
0.66949758
0.6694065
0.66928781
0.66914823
0.66902034
0.66891574
0.6688054
0.66913127
0.66913238
0.66913491
0.66913896
0.66914449
0.6691516
0.66916023
0.66917036
0.66918168
0.66919376
0.66920597
0.66921767
0.66922846
0.66923812
0.66924666
0.66925414
0.66926064
0.66926624
0.66927099
0.66927492
0.66927805
0.66928038
0.6692819
0.66928259
0.66928242
0.66928134
0.66927931
0.66927624
0.66927206
0.66926667
0.66925996
0.66925177
0.66924196
0.66923033
0.66921663
0.66920057
0.66918179
0.66915984
0.66913413
0.66910393
0.66906825
0.66902579
0.66897479
0.66891292
0.66883727
0.66874544
0.66864108
0.66854614
0.66847952
0.66839669
0.668796
0.66879576
0.66879539
0.6687948
0.66879395
0.6687927
0.66879099
0.66878872
0.66878585
0.66878237
0.66877843
0.66877418
0.66876978
0.66876528
0.66876071
0.66875601
0.66875116
0.66874608
0.66874075
0.66873511
0.66872912
0.66872273
0.6687159
0.66870858
0.66870073
0.66869229
0.6686832
0.66867339
0.66866279
0.66865132
0.66863889
0.6686254
0.66861073
0.66859476
0.66857732
0.66855819
0.66853712
0.66851383
0.66848795
0.66845903
0.6684265
0.66838961
0.66834732
0.66829825
0.66824061
0.66817322
0.66809968
0.66802955
0.66819697
0.66819582
0.66819371
0.66819045
0.66818605
0.66818037
0.66817342
0.66816517
0.66815582
0.66814564
0.66813518
0.66812485
0.66811501
0.66810571
0.66809692
0.66808849
0.66808032
0.66807227
0.66806425
0.66805618
0.66804798
0.66803958
0.66803093
0.66802196
0.66801262
0.66800285
0.6679926
0.6679818
0.66797039
0.6679583
0.66794547
0.6679318
0.66791722
0.66790164
0.66788496
0.66786711
0.667848
0.66782752
0.66780553
0.66778187
0.66775632
0.66772857
0.66769813
0.66766281
0.66761883
0.66755939
0.66717552
0.66717585
0.66717682
0.66717843
0.66718064
0.66718343
0.66718672
0.66719044
0.66719441
0.66719841
0.66720216
0.66720544
0.66720813
0.66721017
0.66721159
0.66721241
0.66721267
0.66721236
0.66721152
0.66721014
0.66720821
0.66720573
0.66720269
0.66719908
0.66719488
0.66719007
0.66718462
0.66717852
0.66717174
0.66716424
0.66715598
0.66714694
0.66713706
0.66712631
0.6671146
0.66710188
0.66708801
0.66707284
0.66705611
0.66703737
0.66701589
0.66699036
0.66695841
0.66647164
0.66647067
0.66646899
0.66646644
0.666463
0.66645861
0.66645328
0.66644704
0.66644006
0.66643261
0.66642513
0.66641795
0.6664113
0.66640519
0.66639955
0.66639425
0.66638918
0.66638424
0.66637936
0.66637446
0.6663695
0.66636441
0.66635916
0.6663537
0.66634801
0.66634204
0.66633575
0.66632912
0.66632209
0.66631464
0.6663067
0.66629823
0.66628914
0.66627936
0.66626874
0.66625712
0.66624422
0.66622964
0.66621278
0.66547457
0.66547328
0.66547109
0.66546788
0.66546386
0.66545909
0.66545382
0.66544822
0.66544262
0.66543731
0.66543261
0.66542865
0.66542545
0.66542288
0.66542078
0.665419
0.66541743
0.66541596
0.66541452
0.66541303
0.66541146
0.66540974
0.66540784
0.6654057
0.66540329
0.66540056
0.66539748
0.66539398
0.66539001
0.6653855
0.66538036
0.66537449
0.66536773
0.66535989
0.66535072
0.66453839
0.66453894
0.6645401
0.66454187
0.66454405
0.66454661
0.66454936
0.66455226
0.66455511
0.66455787
0.66456039
0.66456265
0.6645646
0.66456627
0.6645677
0.66456892
0.66456994
0.66457078
0.66457143
0.66457189
0.66457214
0.66457218
0.66457197
0.66457149
0.66457069
0.66456954
0.66740191
0.66740165
0.66740107
0.66740009
0.66739863
0.66739661
0.66739397
0.66739075
0.66738706
0.66738305
0.66737885
0.66737453
0.66737014
0.66736569
0.66736119
0.66735661
0.66735196
0.66734721
0.66734235
0.66733736
0.66733224
0.66732698
0.66732155
0.66731597
0.66731021
0.66730427
0.66729815
0.66729184
0.66728535
0.66727866
0.66727179
0.66726473
0.66725751
0.66725012
0.66724258
0.66723493
0.6672272
0.66721943
0.66721169
0.66720407
0.66719669
0.66718977
0.66718363
0.66717883
0.6671765
0.66717908
0.66719296
0.66723855
0.66739166
0.66739064
0.66739039
0.66738981
0.66738882
0.66738735
0.66738532
0.66738266
0.66737941
0.66737568
0.66737163
0.66736738
0.66736302
0.66735858
0.66735408
0.66734953
0.66734491
0.66734022
0.66733542
0.66733052
0.6673255
0.66732035
0.66731505
0.66730959
0.66730397
0.66729818
0.66729221
0.66728606
0.66727973
0.66727321
0.6672665
0.6672596
0.66725252
0.66724527
0.66723785
0.66723029
0.66722261
0.66721484
0.66720702
0.66719923
0.66719155
0.6671841
0.66717708
0.66717082
0.66716586
0.66716331
0.66716558
0.66717895
0.6672236
0.66737453
0.66782417
0.66862183
0.66967584
0.67078823
0.67171713
0.67232051
0.67261695
0.67271818
0.67273022
0.67271258
0.67268818
0.67266345
0.67263972
0.67261711
0.67259562
0.6725753
0.67255605
0.67253798
0.67252105
0.67250516
0.6724905
0.67247718
0.6724651
0.67245423
0.67244487
0.67243694
0.67243049
0.67242557
0.67242227
0.67242066
0.67242079
0.67242275
0.67242661
0.67243244
0.6724403
0.67245027
0.67246237
0.67247666
0.67249316
0.67251189
0.6725328
0.66737922
0.66737896
0.66737838
0.66737739
0.66737591
0.66737387
0.66737122
0.66736797
0.66736425
0.66736021
0.66735597
0.66735161
0.66734718
0.6673427
0.66733816
0.66733355
0.66732887
0.66732408
0.66731919
0.66731417
0.66730902
0.66730372
0.66729826
0.66729264
0.66728685
0.66728088
0.66727472
0.66726838
0.66726184
0.66725512
0.66724821
0.66724111
0.66723383
0.66722639
0.6672188
0.66721108
0.66720328
0.66719542
0.66718758
0.66717984
0.66717231
0.66716521
0.66715883
0.66715372
0.66715096
0.66715293
0.66716581
0.66720953
0.66735826
0.66780235
0.66859145
0.66963802
0.67075067
0.67168953
0.67230723
0.67261549
0.67272327
0.67273781
0.6727207
0.67269616
0.67267113
0.67264706
0.6726241
0.67260226
0.67258159
0.67256197
0.67254352
0.67252622
0.67250997
0.67249492
0.67248122
0.67246876
0.67245749
0.67244773
0.6724394
0.67243255
0.67242723
0.67242352
0.67242149
0.67242119
0.67242271
0.67242612
0.67243147
0.67243884
0.67244828
0.67245983
0.67247353
0.6724894
0.67250745
0.67252762
0.67254995
0.67257418
0.6726003
0.67262823
0.67265767
0.67268831
0.67271979
0.67275166
0.67278341
0.6673678
0.66736754
0.66736697
0.66736599
0.66736454
0.66736253
0.66735991
0.6673567
0.66735301
0.667349
0.66734479
0.66734046
0.66733606
0.66733161
0.66732709
0.66732251
0.66731784
0.66731308
0.66730821
0.66730321
0.66729808
0.66729279
0.66728735
0.66728175
0.66727596
0.66727
0.66726385
0.66725752
0.66725098
0.66724426
0.66723734
0.66723024
0.66722295
0.66721549
0.66720789
0.66720015
0.66719231
0.66718442
0.66717653
0.66716874
0.66716115
0.66715396
0.66714747
0.66714222
0.66713927
0.66714094
0.66715335
0.66719618
0.6673427
0.66778126
0.66856187
0.66960093
0.67071353
0.67166202
0.67229396
0.67261419
0.67272876
0.67274594
0.67272942
0.67270477
0.67267943
0.67265502
0.67263171
0.67260952
0.67258849
0.67256851
0.67254968
0.67253201
0.67251539
0.67249996
0.67248586
0.67247302
0.67246134
0.67245117
0.67244244
0.67243518
0.67242944
0.67242532
0.67242285
0.67242212
0.67242319
0.67242613
0.67243101
0.67243787
0.67244679
0.67245778
0.67247089
0.67248613
0.6725035
0.67252295
0.67254449
0.67256786
0.67259307
0.67262001
0.67264839
0.67267792
0.67270822
0.67273889
0.67276944
0.67279928
0.67282761
0.67285355
0.67287565
0.67289259
0.66735653
0.66735627
0.6673557
0.66735474
0.6673533
0.66735131
0.66734871
0.66734553
0.66734187
0.66733789
0.6673337
0.66732941
0.66732504
0.66732061
0.66731612
0.66731157
0.66730693
0.6673022
0.66729735
0.66729239
0.66728728
0.66728202
0.66727661
0.66727103
0.66726527
0.66725933
0.6672532
0.66724688
0.66724036
0.66723365
0.66722675
0.66721965
0.66721236
0.66720491
0.66719729
0.66718954
0.66718169
0.66717377
0.66716585
0.66715801
0.66715037
0.6671431
0.66713652
0.66713114
0.667128
0.6671294
0.66714137
0.66718332
0.66732768
0.66776077
0.66853298
0.66956449
0.67067674
0.67163451
0.67228059
0.67261294
0.6727345
0.67275446
0.6727386
0.67271386
0.67268823
0.67266348
0.67263982
0.67261729
0.67259591
0.67257558
0.67255637
0.67253831
0.67252134
0.67250553
0.67249102
0.67247779
0.67246573
0.67245513
0.672446
0.67243832
0.67243218
0.67242762
0.67242472
0.67242355
0.67242416
0.67242664
0.67243103
0.67243739
0.67244578
0.67245621
0.67246873
0.67248334
0.67250004
0.67251876
0.67253952
0.67256205
0.67258635
0.67261231
0.67263966
0.67266808
0.67269723
0.67272672
0.67275608
0.67278479
0.67281209
0.6728372
0.67285875
0.67287554
0.67288509
0.67288553
0.67287442
0.66734505
0.6673448
0.66734424
0.66734329
0.66734187
0.6673399
0.66733733
0.66733418
0.66733056
0.66732662
0.66732248
0.66731822
0.66731389
0.66730951
0.66730506
0.66730055
0.66729595
0.66729126
0.66728646
0.66728153
0.66727646
0.66727125
0.66726587
0.66726033
0.6672546
0.6672487
0.6672426
0.66723632
0.66722983
0.66722315
0.66721626
0.66720918
0.66720192
0.66719447
0.66718687
0.66717912
0.66717126
0.66716334
0.6671554
0.66714752
0.66713984
0.66713251
0.66712584
0.66712035
0.66711705
0.66711819
0.66712973
0.66717084
0.66731308
0.66774081
0.66850476
0.66952869
0.67064028
0.67160698
0.67226704
0.67261162
0.67274036
0.67276324
0.6727481
0.67272329
0.67269739
0.67267232
0.67264832
0.67262545
0.67260373
0.67258305
0.67256347
0.67254504
0.67252772
0.67251154
0.67249664
0.67248303
0.67247058
0.67245957
0.67245004
0.67244195
0.67243539
0.67243041
0.67242708
0.67242546
0.67242562
0.67242763
0.67243153
0.67243738
0.67244524
0.67245511
0.67246704
0.67248102
0.67249705
0.67251505
0.67253504
0.67255674
0.67258013
0.67260513
0.67263145
0.67265879
0.67268681
0.67271513
0.67274334
0.67277093
0.67279722
0.6728215
0.67284251
0.67285914
0.67286899
0.67287023
0.67286041
0.67283604
0.67280119
0.67274607
0.66733269
0.66733244
0.66733189
0.66733095
0.66732955
0.66732762
0.66732508
0.66732198
0.66731841
0.66731452
0.66731043
0.66730623
0.66730195
0.66729761
0.66729322
0.66728876
0.66728422
0.66727958
0.66727483
0.66726996
0.66726494
0.66725978
0.66725445
0.66724896
0.66724329
0.66723743
0.66723139
0.66722515
0.6672187
0.66721206
0.66720522
0.66719818
0.66719095
0.66718353
0.66717595
0.66716823
0.66716039
0.66715247
0.66714453
0.66713665
0.66712894
0.66712158
0.66711485
0.66710927
0.66710583
0.66710675
0.66711791
0.66715822
0.66729848
0.66772103
0.6684769
0.66949328
0.67060396
0.6715792
0.67225308
0.67260998
0.67274609
0.67277206
0.67275773
0.6727329
0.67270675
0.67268138
0.67265707
0.67263387
0.67261183
0.67259082
0.6725709
0.67255211
0.67253445
0.67251792
0.67250264
0.67248865
0.67247584
0.67246443
0.6724545
0.67244602
0.67243905
0.67243365
0.67242989
0.67242783
0.67242754
0.67242908
0.67243248
0.67243783
0.67244516
0.67245447
0.67246581
0.67247916
0.67249452
0.67251181
0.67253103
0.6725519
0.67257441
0.67259847
0.67262377
0.67265004
0.67267694
0.67270413
0.67273119
0.67275769
0.67278299
0.67280646
0.67282693
0.67284338
0.67285351
0.6728555
0.67284692
0.67282403
0.67279071
0.67273661
0.67268433
0.67262171
0.67257146
0.66732041
0.66732017
0.66731963
0.66731871
0.66731734
0.66731544
0.66731295
0.6673099
0.6673064
0.66730257
0.66729855
0.66729442
0.66729021
0.66728594
0.66728162
0.66727723
0.66727276
0.66726819
0.66726351
0.6672587
0.66725375
0.66724866
0.6672434
0.66723797
0.66723237
0.66722658
0.66722059
0.66721441
0.66720803
0.66720145
0.66719466
0.66718767
0.66718049
0.66717312
0.66716557
0.66715788
0.66715007
0.66714217
0.66713424
0.66712636
0.66711863
0.66711124
0.66710446
0.6670988
0.66709522
0.66709594
0.66710672
0.66714629
0.66728468
0.66770233
0.66845035
0.66945918
0.6705686
0.6715519
0.67223926
0.67260839
0.67275194
0.67278104
0.67276754
0.67274269
0.67271628
0.67269061
0.67266598
0.67264247
0.67262012
0.67259881
0.67257856
0.67255943
0.67254146
0.67252461
0.67250896
0.67249461
0.67248146
0.67246967
0.67245936
0.67245049
0.67244312
0.67243731
0.67243313
0.67243063
0.67242989
0.67243096
0.67243389
0.67243872
0.67244552
0.67245428
0.67246503
0.67247776
0.67249245
0.67250903
0.67252749
0.67254755
0.67256918
0.6725923
0.67261661
0.67264183
0.67266764
0.6726937
0.67271965
0.67274507
0.67276939
0.67279207
0.672812
0.67282827
0.67283866
0.67284136
0.67283396
0.67281247
0.67278062
0.67272746
0.67267496
0.67261112
0.67255735
0.67255001
0.67252339
0.66730428
0.66730404
0.66730351
0.66730262
0.66730128
0.66729942
0.66729699
0.66729401
0.66729057
0.66728682
0.66728289
0.66727883
0.66727471
0.66727053
0.66726629
0.66726198
0.6672576
0.66725312
0.66724852
0.6672438
0.66723895
0.66723394
0.66722878
0.66722344
0.66721793
0.66721224
0.66720635
0.66720026
0.66719398
0.66718749
0.6671808
0.6671739
0.66716681
0.66715953
0.66715208
0.66714447
0.66713674
0.66712892
0.66712107
0.66711325
0.66710559
0.66709824
0.66709149
0.66708582
0.6670822
0.6670828
0.66709332
0.66713225
0.66726888
0.6676817
0.66842195
0.66942323
0.67053125
0.67152251
0.67222352
0.67260529
0.67275671
0.67278928
0.67277682
0.67275209
0.67272554
0.67269966
0.67267481
0.67265105
0.67262846
0.67260689
0.67258636
0.67256693
0.67254869
0.67253155
0.67251557
0.67250088
0.67248741
0.67247526
0.67246458
0.67245534
0.67244759
0.67244138
0.67243679
0.67243386
0.67243267
0.67243328
0.67243572
0.67244005
0.67244632
0.67245452
0.67246468
0.67247679
0.67249082
0.67250669
0.67252441
0.67254365
0.67256442
0.67258662
0.67260995
0.67263414
0.67265887
0.67268384
0.67270869
0.67273307
0.67275644
0.67277833
0.67279773
0.67281381
0.67282443
0.6728278
0.67282153
0.67280138
0.67277089
0.67271861
0.67266584
0.67260075
0.67254344
0.67253208
0.6725039
0.67241178
0.6720144
0.66728771
0.66728748
0.66728697
0.66728609
0.66728479
0.66728297
0.66728059
0.66727768
0.66727432
0.66727065
0.66726679
0.66726282
0.66725877
0.66725467
0.66725052
0.6672463
0.66724199
0.6672376
0.66723309
0.66722846
0.6672237
0.66721879
0.66721372
0.66720848
0.66720307
0.66719747
0.66719169
0.66718571
0.66717953
0.66717314
0.66716655
0.66715976
0.66715278
0.6671456
0.66713825
0.66713074
0.66712309
0.66711536
0.66710759
0.66709984
0.66709224
0.66708494
0.66707821
0.66707254
0.66706888
0.66706935
0.66707959
0.66711788
0.6672527
0.66766051
0.66839281
0.66938635
0.6704927
0.67149171
0.67220645
0.67260121
0.67276087
0.67279717
0.67278589
0.67276135
0.67273471
0.67270868
0.67268364
0.67265969
0.67263689
0.67261511
0.67259435
0.67257466
0.67255616
0.67253876
0.67252248
0.67250747
0.6724937
0.67248121
0.67247017
0.67246057
0.67245244
0.67244584
0.67244084
0.67243749
0.67243586
0.672436
0.67243796
0.67244179
0.67244753
0.67245517
0.67246476
0.67247624
0.67248962
0.67250479
0.67252176
0.67254021
0.67256012
0.67258142
0.67260379
0.67262697
0.67265065
0.67267454
0.67269833
0.67272168
0.67274412
0.67276523
0.6727841
0.67279999
0.67281082
0.67281482
0.67280962
0.67279073
0.67276155
0.67271007
0.67265695
0.6725906
0.67252974
0.67251429
0.67248441
0.672397
0.67199979
0.67192091
0.66727228
0.66727206
0.66727155
0.66727071
0.66726944
0.66726768
0.66726537
0.66726253
0.66725925
0.66725566
0.66725189
0.66724801
0.66724405
0.66724004
0.66723597
0.66723184
0.66722762
0.66722331
0.6672189
0.66721436
0.66720969
0.66720487
0.6671999
0.66719476
0.66718944
0.66718395
0.66717827
0.66717239
0.66716632
0.66716004
0.66715356
0.66714688
0.66714
0.66713293
0.66712568
0.66711827
0.66711073
0.66710309
0.6670954
0.66708774
0.6670802
0.66707296
0.66706626
0.6670606
0.66705689
0.66705725
0.66706723
0.66710488
0.66723788
0.66764059
0.66836484
0.66935046
0.67045479
0.67146124
0.67218963
0.67259755
0.67276568
0.67280583
0.67279575
0.67277135
0.67274456
0.6727183
0.67269303
0.67266884
0.6726458
0.67262377
0.67260276
0.67258279
0.67256403
0.67254637
0.67252977
0.67251444
0.67250037
0.67248754
0.67247615
0.67246618
0.67245768
0.67245069
0.67244528
0.6724415
0.67243943
0.67243912
0.67244059
0.67244392
0.67244914
0.67245623
0.67246523
0.6724761
0.67248883
0.67250331
0.67251954
0.6725372
0.67255628
0.67257668
0.67259811
0.6726203
0.67264296
0.6726658
0.67268854
0.67271089
0.67273242
0.67275278
0.67277113
0.6727868
0.67279782
0.67280242
0.67279822
0.67278054
0.67275257
0.67270183
0.6726483
0.67258066
0.67251625
0.67249666
0.67246496
0.67238224
0.67198546
0.67190559
0.67154787
0.67146017
0.66725689
0.66725668
0.66725619
0.66725537
0.66725415
0.66725244
0.6672502
0.66724745
0.66724427
0.66724078
0.66723711
0.66723333
0.66722948
0.66722556
0.66722159
0.66721756
0.66721344
0.66720923
0.66720491
0.66720048
0.66719591
0.66719119
0.66718632
0.66718129
0.66717608
0.6671707
0.66716513
0.66715937
0.66715341
0.66714725
0.66714089
0.66713433
0.66712757
0.66712063
0.6671135
0.66710621
0.66709879
0.66709127
0.66708369
0.66707614
0.6670687
0.66706153
0.66705491
0.66704929
0.66704559
0.66704588
0.66705564
0.66709272
0.66722399
0.66762164
0.66833783
0.66931544
0.6704175
0.67143111
0.67217311
0.6725944
0.67277128
0.67281545
0.67280662
0.67278235
0.67275536
0.67272883
0.67270327
0.67267878
0.67265544
0.67263312
0.6726118
0.67259152
0.67257244
0.67255448
0.67253755
0.67252187
0.67250748
0.67249429
0.67248252
0.67247219
0.6724633
0.67245591
0.67245009
0.67244589
0.67244338
0.6724426
0.6724436
0.67244642
0.67245111
0.67245765
0.67246608
0.67247634
0.67248843
0.67250222
0.67251773
0.67253462
0.67255286
0.67257239
0.6725929
0.67261412
0.67263578
0.6726576
0.67267933
0.6727007
0.67272134
0.67274096
0.67275879
0.67277426
0.67278544
0.67279059
0.67278735
0.67277079
0.67274395
0.67269389
0.67263988
0.67257093
0.67250296
0.67247919
0.67244553
0.67236752
0.67197138
0.67189043
0.67153957
0.6714454
0.67144162
0.66724097
0.66724077
0.66724031
0.66723952
0.66723835
0.66723671
0.66723456
0.6672319
0.66722883
0.66722547
0.66722192
0.66721825
0.66721451
0.66721072
0.66720686
0.66720294
0.66719894
0.66719484
0.66719064
0.66718632
0.66718186
0.66717726
0.66717251
0.6671676
0.66716251
0.66715725
0.6671518
0.66714617
0.66714034
0.66713431
0.66712809
0.66712166
0.66711504
0.66710823
0.66710124
0.66709409
0.66708681
0.66707942
0.66707198
0.66706455
0.66705723
0.66705018
0.66704365
0.66703811
0.66703445
0.66703471
0.66704432
0.6670809
0.66721053
0.66760328
0.66831146
0.66928099
0.67038053
0.671401
0.67215656
0.67259141
0.67277732
0.67282573
0.67281824
0.67279413
0.67276694
0.67274012
0.67271426
0.67268945
0.67266578
0.67264313
0.67262148
0.67260085
0.67258142
0.67256312
0.67254584
0.67252978
0.67251504
0.67250147
0.6724893
0.67247858
0.67246929
0.6724615
0.67245526
0.67245063
0.67244767
0.67244643
0.67244694
0.67244927
0.67245344
0.67245943
0.67246728
0.67247694
0.67248839
0.67250151
0.6725163
0.67253242
0.67254986
0.67256854
0.67258815
0.67260843
0.6726291
0.67264993
0.67267067
0.6726911
0.67271087
0.67272978
0.6727471
0.67276234
0.67277367
0.67277933
0.67277699
0.67276148
0.6727357
0.67268624
0.6726317
0.67256141
0.67248987
0.67246188
0.67242616
0.67235282
0.67195757
0.67187541
0.67153147
0.67143061
0.67143489
0.67086956
0.66722414
0.66722394
0.6672235
0.66722275
0.66722163
0.66722007
0.66721801
0.66721547
0.66721252
0.66720928
0.66720586
0.66720233
0.66719873
0.66719506
0.66719134
0.66718754
0.66718367
0.6671797
0.66717563
0.66717143
0.66716711
0.66716264
0.66715802
0.66715324
0.6671483
0.66714317
0.66713787
0.66713237
0.66712669
0.66712081
0.66711473
0.66710845
0.66710198
0.66709533
0.66708849
0.6670815
0.66707437
0.66706714
0.66705985
0.66705258
0.66704541
0.6670385
0.6670321
0.66702666
0.66702309
0.66702338
0.66703289
0.66706905
0.66719719
0.66758523
0.66828551
0.66924692
0.67034369
0.67137073
0.67213973
0.67258831
0.67278352
0.67283638
0.67283034
0.67280643
0.67277905
0.67275195
0.67272578
0.67270065
0.67267664
0.67265366
0.67263167
0.67261067
0.67259088
0.67257222
0.67255457
0.67253812
0.672523
0.67250905
0.67249646
0.67248534
0.67247564
0.67246743
0.67246076
0.67245569
0.67245227
0.67245057
0.6724506
0.67245242
0.67245607
0.67246152
0.6724688
0.67247786
0.67248868
0.67250114
0.67251523
0.67253061
0.67254726
0.6725651
0.67258383
0.67260319
0.67262292
0.67264278
0.67266256
0.67268207
0.67270101
0.67271921
0.67273603
0.67275105
0.6727625
0.67276864
0.67276714
0.67275262
0.67272781
0.67267888
0.67262374
0.67255209
0.67247699
0.67244474
0.67240683
0.67233815
0.67194401
0.67186052
0.67152354
0.67141582
0.67142784
0.67085244
0.67123089
0.67013851
0.66720589
0.66720571
0.6672053
0.66720459
0.66720353
0.66720205
0.6672001
0.66719769
0.66719488
0.6671918
0.66718853
0.66718515
0.6671817
0.66717818
0.6671746
0.66717096
0.66716723
0.66716341
0.66715948
0.66715543
0.66715126
0.66714694
0.66714247
0.66713784
0.66713305
0.66712808
0.66712293
0.6671176
0.66711208
0.66710636
0.66710045
0.66709434
0.66708804
0.66708156
0.6670749
0.66706809
0.66706114
0.66705408
0.66704697
0.66703987
0.66703288
0.66702614
0.6670199
0.66701462
0.66701116
0.66701154
0.66702103
0.66705688
0.66718368
0.66756726
0.66825982
0.6692131
0.67030688
0.67134017
0.67212248
0.67258493
0.6727897
0.6728472
0.67284273
0.67281905
0.67279149
0.67276411
0.67273764
0.67271219
0.67268785
0.67266453
0.6726422
0.67262085
0.67260068
0.67258166
0.67256363
0.67254678
0.67253128
0.67251694
0.67250392
0.67249238
0.67248227
0.67247363
0.67246653
0.67246102
0.67245715
0.67245497
0.67245452
0.67245585
0.67245898
0.67246389
0.67247061
0.67247908
0.67248928
0.67250109
0.67251449
0.67252914
0.67254502
0.67256205
0.67257993
0.6725984
0.67261721
0.67263614
0.67265499
0.67267361
0.67269174
0.67270925
0.67272559
0.67274038
0.67275194
0.67275851
0.6727578
0.67274419
0.67272027
0.67267181
0.67261602
0.67254298
0.67246431
0.67242776
0.67238757
0.6723235
0.6719307
0.67184575
0.67151577
0.67140103
0.6714205
0.67083549
0.67121718
0.67014025
0.67016324
0.66718593
0.66718576
0.66718537
0.66718471
0.66718372
0.66718233
0.66718049
0.66717822
0.66717556
0.66717264
0.66716954
0.66716633
0.66716304
0.66715969
0.66715628
0.66715279
0.66714923
0.66714557
0.6671418
0.66713792
0.66713391
0.66712976
0.66712546
0.667121
0.66711638
0.66711158
0.66710661
0.66710146
0.66709612
0.66709059
0.66708487
0.66707895
0.66707284
0.66706656
0.6670601
0.66705348
0.66704673
0.66703989
0.66703298
0.66702609
0.66701929
0.66701276
0.66700672
0.66700162
0.66699834
0.66699885
0.6670084
0.66704406
0.66716971
0.66754914
0.6682342
0.66917939
0.67026996
0.67130919
0.67210466
0.67258108
0.67279565
0.67285801
0.67285521
0.67283182
0.6728041
0.67277644
0.67274967
0.67272391
0.67269924
0.67267558
0.67265292
0.67263122
0.67261068
0.6725913
0.67257291
0.67255566
0.67253976
0.67252504
0.67251159
0.67249964
0.67248911
0.67248005
0.67247251
0.67246655
0.67246223
0.67245959
0.67245866
0.67245949
0.67246211
0.67246649
0.67247266
0.67248055
0.67249014
0.67250131
0.67251404
0.67252798
0.67254311
0.67255936
0.67257642
0.67259403
0.67261195
0.67262998
0.67264794
0.67266571
0.67268305
0.6726999
0.67271576
0.67273032
0.67274196
0.67274894
0.67274897
0.6727362
0.6727131
0.67266503
0.67260852
0.67253408
0.67245184
0.67241097
0.67236837
0.67230889
0.67191763
0.6718311
0.67150813
0.67138624
0.6714129
0.67081876
0.67120347
0.67014228
0.67015297
0.67035285
0.6671637
0.66716354
0.66716319
0.66716258
0.66716166
0.66716037
0.66715867
0.66715655
0.66715407
0.66715134
0.66714843
0.6671454
0.6671423
0.66713914
0.66713591
0.66713261
0.66712922
0.66712575
0.66712216
0.66711846
0.66711463
0.66711067
0.66710655
0.66710229
0.66709786
0.66709326
0.66708849
0.66708354
0.66707841
0.66707308
0.66706757
0.66706187
0.66705598
0.66704991
0.66704368
0.66703729
0.66703077
0.66702415
0.66701748
0.66701082
0.66700427
0.66699797
0.66699217
0.6669873
0.66698425
0.66698496
0.66699466
0.66703025
0.66715497
0.66753059
0.66820848
0.66914565
0.67023282
0.67127767
0.6720861
0.67257658
0.67280118
0.67286861
0.6728676
0.67284454
0.67281668
0.67278877
0.67276171
0.67273564
0.67271065
0.67268667
0.67266368
0.67264165
0.67262074
0.672601
0.67258225
0.67256463
0.67254834
0.67253324
0.67251937
0.67250701
0.67249607
0.67248659
0.67247862
0.67247222
0.67246745
0.67246435
0.67246295
0.67246329
0.67246541
0.67246926
0.67247489
0.67248221
0.67249122
0.67250176
0.67251385
0.6725271
0.67254151
0.672557
0.67257326
0.67259005
0.67260712
0.67262429
0.67264139
0.67265833
0.67267492
0.67269114
0.67270653
0.67272086
0.67273258
0.67273992
0.67274063
0.67272864
0.67270628
0.67265855
0.67260126
0.67252538
0.67243957
0.67239436
0.67234925
0.67229429
0.6719048
0.67181654
0.67150062
0.67137148
0.67140507
0.67080228
0.67118975
0.67014457
0.67014257
0.67036276
0.66920133
0.66713895
0.66713881
0.66713849
0.66713793
0.66713709
0.66713591
0.66713435
0.66713239
0.6671301
0.66712757
0.66712486
0.66712205
0.66711915
0.66711619
0.66711316
0.66711005
0.66710687
0.66710359
0.66710021
0.66709671
0.66709308
0.66708932
0.66708542
0.66708136
0.66707715
0.66707277
0.66706822
0.66706349
0.66705859
0.6670535
0.66704822
0.66704276
0.66703711
0.6670313
0.66702531
0.66701918
0.66701292
0.66700656
0.66700016
0.66699377
0.66698749
0.66698146
0.66697594
0.66697135
0.66696858
0.66696956
0.66697949
0.66701516
0.66713919
0.6675114
0.66818246
0.66911175
0.67019536
0.6712455
0.67206669
0.67257126
0.6728061
0.67287879
0.67287969
0.67285701
0.67282904
0.67280089
0.67277356
0.6727472
0.67272191
0.67269762
0.67267432
0.67265196
0.67263071
0.67261062
0.67259154
0.67257355
0.67255688
0.67254142
0.67252714
0.67251439
0.67250304
0.67249315
0.67248477
0.67247794
0.67247273
0.67246918
0.67246732
0.67246718
0.6724688
0.67247215
0.67247724
0.67248402
0.67249245
0.67250239
0.67251385
0.67252644
0.67254016
0.67255492
0.67257043
0.67258643
0.67260269
0.67261903
0.67263532
0.67265148
0.67266734
0.67268295
0.6726979
0.672712
0.67272377
0.67273144
0.67273279
0.67272151
0.67269981
0.67265236
0.67259424
0.67251689
0.67242751
0.67237793
0.67233021
0.67227971
0.67189218
0.67180207
0.67149321
0.67135674
0.67139704
0.6707861
0.67117602
0.67014705
0.67013203
0.67037218
0.66919385
0.66986299
0.66711074
0.66711062
0.66711033
0.66710984
0.66710909
0.66710803
0.66710663
0.66710486
0.66710278
0.66710047
0.667098
0.66709541
0.66709274
0.66709
0.6670872
0.66708432
0.66708135
0.66707829
0.66707513
0.66707185
0.66706845
0.66706492
0.66706125
0.66705743
0.66705345
0.66704931
0.66704501
0.66704053
0.66703588
0.66703105
0.66702603
0.66702084
0.66701547
0.66700993
0.66700423
0.66699838
0.66699242
0.66698636
0.66698026
0.66697418
0.66696822
0.66696251
0.66695732
0.66695307
0.66695064
0.66695198
0.66696226
0.66699818
0.66712182
0.66749111
0.66815581
0.66907741
0.67015734
0.67121245
0.67204618
0.67256487
0.67281013
0.67288829
0.67289123
0.67286901
0.67284096
0.6728126
0.67278502
0.6727584
0.67273283
0.67270825
0.67268467
0.67266201
0.67264044
0.67262001
0.67260062
0.67258229
0.67256525
0.67254945
0.6725348
0.67252165
0.67250993
0.67249964
0.67249085
0.67248361
0.67247798
0.67247399
0.67247168
0.67247108
0.67247222
0.67247507
0.67247965
0.67248589
0.67249377
0.67250314
0.67251399
0.67252595
0.67253901
0.67255309
0.67256788
0.67258313
0.67259863
0.67261419
0.6726297
0.67264512
0.6726603
0.67267532
0.67268984
0.67270372
0.67271554
0.67272351
0.67272543
0.67271481
0.6726937
0.67264646
0.67258745
0.67250862
0.67241566
0.67236169
0.67231125
0.67226514
0.67187978
0.67178768
0.67148588
0.67134204
0.67138887
0.67077025
0.67116226
0.67014968
0.67012136
0.67038112
0.66918647
0.66984842
0.66892178
0.66707986
0.66707976
0.66707951
0.66707908
0.66707843
0.6670775
0.66707626
0.6670747
0.66707285
0.66707078
0.66706855
0.66706622
0.6670638
0.66706131
0.66705875
0.66705611
0.66705339
0.66705058
0.66704766
0.66704463
0.66704148
0.66703819
0.66703478
0.66703121
0.6670275
0.66702363
0.6670196
0.6670154
0.66701102
0.66700648
0.66700176
0.66699686
0.66699179
0.66698656
0.66698117
0.66697564
0.66697
0.66696428
0.66695851
0.66695277
0.66694716
0.66694181
0.66693699
0.66693312
0.66693109
0.66693285
0.66694357
0.6669799
0.66710346
0.66747035
0.66812922
0.66904334
0.67011943
0.67117911
0.67202501
0.6725577
0.67281346
0.67289718
0.67290222
0.67288048
0.67285236
0.67282378
0.67279596
0.67276909
0.67274326
0.67271841
0.67269456
0.67267164
0.67264977
0.67262904
0.67260935
0.67259072
0.67257334
0.67255721
0.67254221
0.6725287
0.67251661
0.67250595
0.67249678
0.67248914
0.67248309
0.67247869
0.67247594
0.67247489
0.67247557
0.67247794
0.67248203
0.67248776
0.67249511
0.67250392
0.67251421
0.67252557
0.672538
0.67255144
0.67256555
0.67258011
0.67259489
0.67260972
0.67262451
0.67263923
0.67265377
0.67266824
0.67268234
0.67269601
0.67270786
0.6727161
0.67271856
0.67270853
0.67268795
0.67264086
0.6725809
0.67250056
0.67240403
0.67234564
0.67229239
0.67225058
0.67186757
0.67177335
0.67147863
0.6713274
0.67138058
0.67075476
0.67114846
0.67015243
0.67011057
0.67038958
0.66917921
0.66983364
0.66893827
0.66813563
0.66704191
0.66704183
0.66704162
0.66704127
0.66704073
0.66703995
0.6670389
0.66703756
0.66703597
0.66703417
0.66703222
0.66703017
0.66702802
0.66702581
0.66702352
0.66702115
0.6670187
0.66701616
0.66701351
0.66701076
0.66700789
0.66700489
0.66700176
0.66699849
0.66699508
0.66699151
0.66698779
0.66698391
0.66697987
0.66697566
0.66697128
0.66696674
0.66696203
0.66695716
0.66695215
0.66694702
0.66694177
0.66693645
0.66693111
0.6669258
0.66692063
0.66691574
0.66691139
0.66690802
0.66690652
0.66690884
0.66692017
0.66695713
0.66708089
0.66744574
0.66809914
0.66900598
0.6700782
0.67114239
0.67200061
0.67254773
0.67281454
0.67290431
0.67291177
0.6728907
0.67286265
0.67283397
0.67280601
0.67277897
0.67275297
0.67272791
0.67270385
0.67268071
0.67265858
0.67263758
0.67261764
0.67259874
0.67258104
0.6725646
0.67254928
0.67253543
0.67252299
0.67251197
0.67250243
0.67249442
0.67248798
0.67248317
0.67248
0.67247852
0.67247876