/*--------------------------------*- C++ -*----------------------------------*\
| =========                 |                                                 |
| \\      /  F ield         | OpenFOAM: The Open Source CFD Toolbox           |
|  \\    /   O peration     | Version:  2506                                  |
|   \\  /    A nd           | Website:  www.openfoam.com                      |
|    \\/     M anipulation  |                                                 |
\*---------------------------------------------------------------------------*/
FoamFile
{
    version     2.0;
    format      ascii;
    arch        "LSB;label=32;scalar=64";
    class       volScalarField;
    location    "1.1";
    object      omega;
}
// * * * * * * * * * * * * * * * * * * * * * * * * * * * * * * * * * * * * * //

dimensions      [0 0 -1 0 0 0 0];

internalField   nonuniform List<scalar> 
1375
(
42.728186
45.573614
40.923863
42.48195
45.294634
39.707915
40.718618
42.247738
45.030804
38.830322
39.531616
40.522788
42.024819
44.781451
38.166473
38.675819
39.362734
40.335683
41.812402
44.545142
37.652838
38.028952
38.527328
39.200892
40.15681
41.60988
44.321226
37.247901
37.52889
37.896437
38.38459
39.045761
39.985748
41.416697
44.108906
36.924013
37.134809
37.408952
37.768543
38.247209
38.896849
39.821949
41.232254
43.907148
36.662253
36.819555
37.024842
37.292656
37.644882
38.114768
38.753696
39.664887
41.055962
43.714683
36.449153
36.564806
36.717702
36.917878
37.179848
37.525276
37.987032
38.616021
39.514233
40.887422
43.531081
36.273816
36.357451
36.46953
36.618363
36.813809
37.070402
37.409561
37.863788
38.483546
39.369677
40.726232
43.356081
36.128204
36.186648
36.267253
36.376097
36.521194
36.712291
36.963976
37.297368
37.744658
38.355847
39.230779
40.571885
43.188932
36.04449
36.100392
36.178249
36.284176
36.425864
36.612997
36.860232
37.188341
37.629269
38.232543
39.097136
40.423938
43.029115
35.924806
35.96137
36.015002
36.090372
36.193665
36.332265
36.515816
36.759016
37.082315
37.517422
38.113415
38.968502
40.282097
42.876743
35.822984
35.843892
35.878754
35.930381
36.003516
36.104435
36.240256
36.420598
36.660139
36.979096
37.40889
37.998215
38.844597
40.146023
42.731584
35.734591
35.743487
35.763017
35.796373
35.846256
35.917414
36.01622
36.14956
36.327052
36.56331
36.878372
37.303359
37.886619
38.725075
40.015337
42.592926
35.665253
35.65673
35.655644
35.663524
35.681857
35.713915
35.762314
35.831758
35.928705
36.059876
36.234873
36.468232
36.779834
37.200525
37.778335
38.60964
39.889756
42.461925
35.601855
35.5868
35.577431
35.575708
35.582668
35.59999
35.630971
35.678138
35.746134
35.841457
35.970772
36.143622
36.374454
36.683015
37.099904
37.672857
38.497726
39.768594
42.333396
35.544165
35.522194
35.506568
35.496539
35.494275
35.500467
35.517015
35.547202
35.593419
35.660286
35.754297
35.882108
36.053231
36.28198
36.588004
37.001689
37.570511
38.389853
39.65285
42.222536
35.52346
35.489311
35.462499
35.439607
35.423391
35.412797
35.409962
35.415436
35.431298
35.460834
35.506242
35.57215
35.664982
35.791481
35.961099
36.188002
36.491745
36.902527
37.467533
38.281628
39.536551
42.084058
256.15803
271.51161
287.69976
304.71953
322.68545
341.8987
362.86759
386.09045
411.54535
438.54072
466.49089
495.75158
527.49783
562.69002
601.2008
642.82319
688.59648
740.06511
796.97434
857.98285
924.45168
1000.6926
1090.7079
254.77947
269.68321
285.38109
302.15052
320.28176
339.95878
361.45815
385.11262
410.66309
437.01758
462.83399
487.5496
512.6135
541.35162
576.97967
618.68485
660.32023
696.93351
729.48093
763.6921
807.97832
859.72156
911.59486
225.45322
235.02199
244.73963
255.36173
267.20012
279.91461
293.09572
306.72796
320.59233
333.89037
345.40091
354.50155
362.64334
372.74661
388.07058
406.99739
421.78039
428.79343
430.53911
431.59592
441.50157
454.81322
465.03657
173.20976
176.55921
179.77535
183.70546
188.56689
193.64719
198.23163
202.26859
205.91527
209.21626
211.94452
213.89566
215.54547
217.89464
222.18271
227.18507
229.9121
230.3971
228.65432
227.31694
228.37966
232.38832
234.84722
127.05963
127.74645
128.37413
129.60285
131.80064
134.10685
135.76514
136.84841
137.67099
138.5235
139.55196
140.63588
141.78789
143.40764
145.90435
148.27612
149.30043
149.36652
148.36592
147.78175
148.69012
151.92171
154.31219
97.73469
97.792752
97.783208
98.159082
99.563731
101.12217
102.0586
102.50259
102.76281
103.0973
103.77186
104.75806
105.89662
107.40248
109.48659
111.29529
112.02057
112.05631
111.37348
110.97463
111.56815
114.58073
117.84133
79.930006
79.754751
79.539437
79.601226
80.472284
81.632691
82.289077
82.541017
82.65327
82.820133
83.324671
84.183846
85.14522
86.329808
87.928973
89.340143
89.93172
89.978101
89.465709
89.105699
89.331708
91.567546
94.871946
68.335073
68.022419
67.639966
67.582438
67.989276
68.773084
69.239701
69.40519
69.467576
69.567605
69.945504
70.616405
71.321199
72.118031
73.172172
74.159442
74.631379
74.708004
74.457461
74.20344
74.266312
75.541138
77.902057
60.08324
59.784725
59.284959
59.130397
59.203621
59.609364
59.916923
60.03808
60.090211
60.176497
60.46602
60.95094
61.436304
61.936398
62.556557
63.172976
63.539945
63.652052
63.647548
63.592224
63.69827
64.441214
65.70525
67.239249
53.790148
53.642454
53.135333
52.835813
52.770175
52.842668
53.00774
53.109488
53.178848
53.286926
53.526002
53.872433
54.219391
54.559891
54.925374
55.265836
55.507793
55.665078
55.790387
55.950942
56.275482
56.794462
57.486152
58.375439
48.791217
48.794743
48.476138
48.079302
47.878404
47.831266
47.850547
47.939619
48.055803
48.202455
48.408602
48.661837
48.924351
49.186495
49.439421
49.649916
49.806001
49.943952
50.114772
50.369325
50.749739
51.219837
51.753508
52.396448
44.83409
44.766537
44.446694
44.169129
44.059441
44.044818
44.109807
44.277355
44.456555
44.636599
44.827645
45.027946
45.23107
45.420366
45.576125
45.701113
45.827474
45.995136
46.236534
46.57813
47.00753
47.495657
48.070562
41.639277
41.671824
41.55126
41.324045
41.21712
41.203586
41.29198
41.497737
41.688482
41.849236
42.003162
42.162102
42.320948
42.465825
42.591594
42.708405
42.838881
43.002762
43.208096
43.469286
43.802224
44.201205
44.677577
39.059829
39.157067
39.160396
39.081014
39.036947
39.049318
39.199363
39.423698
39.61321
39.764987
39.902535
40.041479
40.17979
40.306353
40.421039
40.536429
40.668811
40.823777
40.990372
41.165516
41.368261
41.616013
41.926369
37.016526
37.187381
37.263549
37.29715
37.335585
37.439717
37.631316
37.84631
38.033225
38.187739
38.324657
38.460689
38.600311
38.733295
38.853496
38.968396
39.091678
39.231491
39.378947
39.521477
39.662397
39.816922
40.007884
35.483982
35.683902
35.831936
35.955212
36.085336
36.246793
36.441235
36.643597
36.830334
36.993371
37.137813
37.277928
37.423
37.565644
37.695176
37.813434
37.930901
38.055838
38.185083
38.308343
38.42592
38.550858
38.689458
38.82816
34.414935
34.620283
34.807918
34.987277
35.167369
35.35278
35.543719
35.735414
35.92047
36.090933
36.243772
36.386665
36.530232
36.674429
36.811745
36.939716
37.061846
37.183569
37.306536
37.42715
37.543134
37.654724
37.767784
37.875963
33.686012
33.8923
34.094488
34.294542
34.49106
34.682
34.868063
35.051175
35.23091
35.402572
35.560195
35.704806
35.844506
35.984702
36.124133
36.260263
36.391925
36.517647
36.636541
36.749229
36.856222
36.959133
37.061304
37.1604
33.17548
33.383044
33.587622
33.789876
33.987329
34.177047
34.358572
34.534145
34.706329
34.874818
35.034899
35.183216
35.323103
35.460364
35.596966
35.731906
35.863694
35.990857
36.11147
36.223444
36.326512
36.422633
36.518667
36.615991
36.710533
32.804431
33.013009
33.216733
33.416415
33.610829
33.797898
33.976532
34.147774
34.313987
34.476817
34.635027
34.785702
34.928839
35.067015
35.201771
35.332608
35.459463
35.583461
35.703057
35.815378
35.91733
36.010412
36.100503
36.192154
36.285809
32.532012
32.741394
32.944797
33.142782
33.334793
33.51961
33.696351
33.86521
34.027762
34.185893
34.340195
34.490086
34.634521
34.773256
34.906426
35.034659
35.159208
35.280363
35.397071
35.505943
35.605509
35.698855
35.788668
35.878411
35.969771
32.333979
32.543481
32.747073
32.94496
33.136519
33.320552
33.496175
33.663701
33.824332
33.979614
34.130711
34.2776
34.419859
34.557114
34.689222
34.81628
34.938841
35.057202
35.170231
35.276542
35.376529
35.472036
35.5635
35.652404
35.741241
35.825472
32.1913
32.399966
32.603673
32.802215
32.994157
33.177831
33.352616
33.51929
33.679006
33.832819
33.981709
34.125875
34.265646
34.400929
34.531425
34.657348
34.778647
34.894788
35.00567
35.110669
35.2111
35.308
35.40095
35.491226
35.578566
35.659914
32.089916
32.297015
32.49919
32.696096
32.886193
33.068197
33.242044
33.408723
33.569098
33.723438
33.871978
34.015232
34.153624
34.287523
34.416852
34.541581
34.661709
34.776437
34.885245
34.988996
35.089624
35.186985
35.280672
35.370818
35.457015
35.538373
32.018068
32.223506
32.423352
32.617404
32.804641
32.984439
33.1571
33.32329
33.48359
33.638047
33.78673
33.930231
34.068785
34.202275
34.330627
34.453924
34.572266
34.68637
34.795248
34.899499
35.000393
35.097483
35.191026
35.280829
35.366307
35.447795
35.526316
32.170277
32.367999
32.559641
32.744771
32.923034
33.09451
33.259662
33.419106
33.57293
33.721421
33.864608
34.002794
34.135882
34.263751
34.386602
34.504547
34.618138
34.727173
34.831228
34.93156
35.02856
35.122369
35.212552
35.297843
35.37969
35.458403
32.130909
32.326794
32.516702
32.700432
32.877506
33.047872
33.211918
33.370314
33.523562
33.671583
33.814297
33.951876
34.084486
34.212052
34.33451
34.45219
34.565209
34.673754
34.77854
34.879901
34.977723
35.071972
35.162282
35.247914
35.329889
35.40909
35.48498
32.102179
32.296636
32.485026
32.667231
32.842965
33.012207
33.175392
33.332869
33.48501
33.63193
33.77375
33.910475
34.042199
34.169165
34.291451
34.408875
34.521811
34.630778
34.735812
34.836887
34.934206
35.028044
35.1181
35.204464
35.287218
35.367035
35.443485
32.080685
32.273544
32.460163
32.640493
32.814588
32.982646
33.145032
33.301861
33.453284
33.599425
33.740439
33.876582
34.00791
34.134329
34.255917
34.373285
34.486384
34.595169
34.699937
34.800555
34.8975
34.991311
35.081883
35.168894
35.25254
35.33262
35.409303
32.065343
32.256446
32.441284
32.619913
32.792503
32.959375
33.120818
33.276976
33.427879
33.573453
33.713872
33.849345
33.979888
34.105733
34.227112
34.344167
34.457301
34.566359
34.671147
34.771727
34.868535
34.962045
35.052441
35.139705
35.223774
35.30449
35.381921
32.055362
32.244931
32.428259
32.605494
32.776883
32.942669
33.103003
33.258017
33.407879
33.552661
33.692574
33.827697
33.958016
34.083469
34.204213
34.32067
34.433174
34.541812
34.646578
34.747467
34.844686
34.938472
35.028912
35.116051
35.199988
35.280755
35.358563
32.238803
32.420697
32.596583
32.766725
32.93142
33.090914
33.245269
33.394462
33.538389
33.677239
33.811256
33.940711
34.065643
34.186202
34.302472
34.414707
34.523111
34.627759
34.728737
34.826131
34.920074
35.010683
35.098099
35.182391
35.263663
35.341983
32.238859
32.419471
32.594183
32.763037
32.926192
33.083942
33.236678
33.384643
33.527795
33.666098
33.799624
33.928415
34.052802
34.173023
34.289177
34.401334
34.509661
34.614311
34.715412
34.813042
34.907309
34.998286
35.086073
35.170738
35.252386
35.331117
32.244666
32.423518
32.59662
32.764105
32.926161
33.083053
33.235063
33.382318
33.524764
33.662354
33.795173
33.923378
34.047388
34.167415
34.283596
34.395931
34.504439
34.609161
34.71023
34.807796
34.902027
34.993098
35.081138
35.166226
35.248431
35.32782
32.435149
32.606919
32.773437
32.93475
33.090809
33.24169
33.387581
33.528747
33.665349
33.797525
33.925412
34.049196
34.169096
34.285223
34.397588
34.506148
34.610969
34.712169
34.809928
34.904431
34.995847
35.084308
35.169907
35.252714
35.332789
32.457004
32.627149
32.792058
32.951852
33.106599
33.256396
33.401408
33.541887
33.677986
33.809898
33.937691
34.061395
34.181124
34.29692
34.408966
34.517423
34.622397
34.723964
34.822196
34.917214
35.00913
35.098073
35.184163
35.267509
35.34821
32.490486
32.659008
32.822355
32.980719
33.134332
33.283325
33.427802
33.567798
33.703415
33.83477
33.961987
34.085228
34.204643
34.320344
34.432461
34.541153
34.646484
34.748515
34.847337
34.943026
35.035622
35.125233
35.211948
35.295916
35.377301
32.705554
32.867717
33.024975
33.177489
33.325453
33.469
33.608227
33.743206
33.874046
34.000886
34.123869
34.243152
34.358879
34.47117
34.580108
34.685743
34.788154
34.887418
34.983612
35.076843
35.167204
35.254793
35.339714
35.422056
32.769914
32.930711
33.086895
33.238525
33.385689
33.528537
33.667208
33.801797
33.932407
34.059136
34.182089
34.301409
34.417236
34.529693
34.638884
34.744881
34.847749
34.947568
35.044425
35.138394
35.229564
35.318025
35.40387
35.487221
33.017068
33.171997
33.32261
33.468988
33.611239
33.749466
33.883759
34.01424
34.140994
34.264105
34.383662
34.499766
34.612537
34.722096
34.828561
34.932039
35.032619
35.130363
35.225331
35.317601
35.407252
35.494375
35.579051
33.2871
33.436809
33.582484
33.724202
33.862032
33.996101
34.126498
34.253308
34.376648
34.4966
34.613258
34.726699
34.837017
34.94431
35.048676
35.150226
35.249031
35.345168
35.4387
35.529699
35.618244
35.704413
33.439918
33.58877
33.733836
33.87521
34.012956
34.147126
34.27777
34.40497
34.528809
34.649365
34.766756
34.881063
34.992376
35.10079
35.206379
35.309232
35.409416
35.506994
35.602039
35.694625
35.78482
35.872706
33.791928
33.936576
34.077713
34.215433
34.349817
34.480932
34.608816
34.733521
34.855117
34.973662
35.089226
35.201888
35.311728
35.418816
35.523241
35.62507
35.724391
35.821275
35.915778
36.007972
36.097944
34.206371
34.347841
34.486051
34.621082
34.753003
34.881874
35.007753
35.130696
35.250743
35.367969
35.482443
35.594226
35.703391
35.809999
35.914112
36.015803
36.115135
36.212165
36.306951
36.399564
34.714076
34.853254
34.989483
35.122819
35.253303
35.380979
35.505868
35.628006
35.747456
35.864265
35.978511
36.090268
36.199589
36.306537
36.411168
36.513535
36.613694
36.711697
36.807608
35.495882
35.631301
35.764092
35.894313
36.021984
36.147133
36.269781
36.38997
36.507745
36.623154
36.736254
36.847094
36.955718
37.06218
37.16652
37.268775
37.368995
36.365106
36.501908
36.636278
36.768257
36.897876
37.02517
37.150167
37.272897
37.393401
37.511722
37.627908
37.742003
37.854042
37.964059
38.072079
38.178115
37.781885
37.921074
38.058
38.192694
38.325194
38.455544
38.58378
38.70994
38.834071
38.956227
39.076457
39.194796
39.311249
39.42575
40.606838
40.74435
40.87887
41.010306
41.138735
41.264225
41.387009
41.507592
41.626663
41.744748
41.861893
41.977173
)
;

boundaryField
{
    Side
    {
        type            empty;
    }
    Inlet
    {
        type            fixedValue;
        value           uniform 60.24606;
    }
    Airfoil
    {
        type            omegaWallFunction;
        blending        binomial;
        n               2;
        value           nonuniform List<scalar> 0();
    }
    Outlet
    {
        type            inletOutlet;
        inletValue      nonuniform List<scalar> 0();
        value           nonuniform List<scalar> 0();
    }
    procBoundary2to1
    {
        type            processor;
        value           nonuniform List<scalar> 
75
(
42.987203
45.86856
41.139106
41.139106
39.892229
39.892229
38.991142
38.991142
38.309193
38.309193
37.78115
37.78115
37.364475
37.364475
37.031181
37.031181
36.761924
36.761924
36.542671
36.542671
36.362197
36.362197
36.212569
36.212569
36.08766
36.006032
36.006032
35.90235
35.90235
35.812957
35.812957
35.742514
35.734921
35.734921
35.679441
35.679441
35.622969
35.622969
35.603553
35.570035
35.570035
35.564648
35.564648
1198.0172
963.49458
472.57263
236.01059
155.55325
120.16607
97.734914
80.360401
80.360401
68.7662
59.396205
53.148731
48.744731
45.227149
42.30152
40.222009
40.222009
38.948091
37.9669
37.247815
37.247815
36.802958
36.379156
36.058586
36.058586
35.901974
35.735394
35.615258
35.615258
35.602198
35.534736
35.534736
)
;
    }
    procBoundary2to3
    {
        type            processor;
        value           nonuniform List<scalar> 
65
(
240.38429
215.33003
168.92036
125.80166
97.369872
79.793062
68.247686
59.988289
53.653346
48.571407
44.749913
44.749913
41.446916
38.783719
36.722064
35.223871
34.186891
33.470684
32.961089
32.58857
32.315427
32.117914
31.976929
31.877072
31.806393
31.966488
31.966488
31.928825
31.901537
31.881608
31.867876
31.859379
32.050732
32.050732
32.052219
32.059922
32.257976
32.257976
32.281434
32.316606
32.538375
32.538375
32.604454
32.857754
32.857754
33.133249
33.133249
33.28718
33.643659
33.643659
34.061579
34.061579
34.571883
34.571883
35.216916
35.357786
35.357786
36.225818
36.225818
37.496629
37.640409
37.640409
40.323357
40.466314
40.466314
)
;
    }
    procBoundary2to9
    {
        type            processor;
        value           nonuniform List<scalar> 
23
(
256.77455
272.22214
288.31337
305.12702
322.90942
342.05203
363.01362
386.1409
411.43693
438.46043
466.56974
495.58986
526.34356
560.517
599.54185
643.09776
689.40261
738.08205
791.7384
853.94221
925.92751
1007.4248
1098.2221
)
;
    }
    procBoundary2to10
    {
        type            processor;
        value           uniform 241.62244;
    }
}


// ************************************************************************* //
