/*--------------------------------*- C++ -*----------------------------------*\
| =========                 |                                                 |
| \\      /  F ield         | OpenFOAM: The Open Source CFD Toolbox           |
|  \\    /   O peration     | Version:  2506                                  |
|   \\  /    A nd           | Website:  www.openfoam.com                      |
|    \\/     M anipulation  |                                                 |
\*---------------------------------------------------------------------------*/
FoamFile
{
    version     2.0;
    format      ascii;
    arch        "LSB;label=32;scalar=64";
    class       surfaceScalarField;
    location    "2.95";
    object      phi;
}
// * * * * * * * * * * * * * * * * * * * * * * * * * * * * * * * * * * * * * //

dimensions      [1 0 -1 0 0 0 0];

oriented        oriented;

internalField   nonuniform List<scalar> 
2661
(
-0.095618325
2.496056
-0.0026388139
-0.19346921
2.5988537
-0.29083021
2.7137694
-0.38739165
2.8353082
-0.48292244
2.9621866
-0.57729291
3.0953957
3.2365959
-0.095354882
2.5948273
-0.19364963
2.6971535
-0.29140143
2.8115235
-0.388326
2.9322326
-0.48421641
3.0580761
-0.57895173
3.1901299
-0.67244776
3.3300905
-0.76464164
3.4796
-0.85543748
3.6400758
-0.94472323
3.8128822
-1.0323963
3.9992605
-1.1183353
4.2004629
-1.2024082
4.4177543
-1.2844737
4.6525001
-1.3643615
4.9061104
-1.4418613
5.1800817
-1.5168594
5.4760332
-1.5891386
5.7955972
6.1406965
-0.095763183
2.6940881
-0.1945227
2.7959176
-0.29269444
2.9096958
-0.3900264
3.0295604
-0.48633976
3.1543821
-0.58152189
3.2853026
-0.67548144
3.4240395
-0.76811995
3.572228
-0.85935909
3.7313047
-0.94908428
3.9025968
-1.0371928
4.0873581
-1.1235631
4.2868222
-1.2080714
4.5022505
-1.2905494
4.7349669
-1.3708382
4.9863916
-1.4487599
5.2579952
-1.5241198
5.5513798
-1.5967443
5.8682022
-1.6663813
6.2103133
-1.7327753
6.5797349
-1.7956368
6.9786432
-1.8547249
7.4094399
-1.9097636
7.8746748
-1.9604371
8.3771184
-2.0063968
8.9197338
-2.0472653
9.505729
10.138595
-0.096951802
2.7939181
-0.19629665
2.8952647
-0.29499192
3.0083892
-0.3927883
3.1273494
-0.48952786
3.2511109
-0.58511631
3.3808776
-0.67947368
3.5183803
-0.7725158
3.6652511
-0.86416116
3.8229314
-0.95429849
3.9927172
-1.0428117
4.1758564
-1.1295735
4.3735725
-1.2144525
4.58712
-1.2973145
4.8178211
-1.3779849
5.0670576
-1.4562854
5.3362912
-1.5320139
5.6270954
-1.6049728
5.9411361
-1.674928
6.2802324
-1.7416423
6.6464029
-1.8048789
7.0418234
-1.8643257
7.4688269
-1.9196547
7.9299527
-1.9705323
8.4279546
-2.0166488
8.965813
-2.0576405
9.5466881
-2.0930923
10.174011
-2.1225355
10.851492
-2.1454911
11.58314
-2.1613957
12.373302
-2.1698016
13.226783
-2.1701267
14.148612
-2.1615453
15.144123
16.219119
-0.098528837
2.8944025
-0.19856182
2.9953064
-0.2979066
3.1077434
-0.39630531
3.2257537
-0.49360785
3.3484131
-0.58972204
3.4769867
-0.68457031
3.6132208
-0.77807029
3.7587429
-0.87013573
3.9149907
-0.96067562
4.0832542
-1.049581
4.2647607
-1.1367315
4.4607235
-1.222001
4.6723897
-1.3052512
4.9010676
-1.3863143
5.1481131
-1.4649919
5.4149582
-1.5410667
5.703153
-1.6143323
6.0143733
-1.6845732
6.3504319
-1.751534
6.713309
-1.8149444
7.1051612
-1.8745378
7.5283372
-1.9300253
7.9853647
-1.9810683
8.4789385
-2.0272946
9.0120008
-2.0683447
9.5877135
-2.1038362
10.209475
-2.1333044
10.880929
-2.1562755
11.606074
-2.1722625
12.38924
-2.1806063
13.235052
-2.180559
14.148509
-2.1715434
15.135018
-2.1530103
16.200474
-2.1242666
17.350854
-2.0844623
18.593209
-2.0325345
19.935078
21.384243
-0.099394468
2.9955665
-0.2001722
3.0961017
-0.30026265
3.2078519
-0.39938018
3.3248879
-0.49737288
3.4464203
-0.59415047
3.5737774
-0.68963869
3.7087211
-0.78376407
3.8528782
-0.87643944
4.0076728
-0.96757787
4.1743958
-1.0570803
4.3542619
-1.1448291
4.5484673
-1.2306915
4.7582447
-1.3145129
4.9848785
-1.3961135
5.2297005
-1.4752965
5.4941295
-1.5518376
5.7796869
-1.6254909
6.0880229
-1.6960154
6.4209542
-1.7631944
6.7804843
-1.8267975
7.16875
-1.8865448
7.5880583
-1.9421319
8.0409187
-1.9932779
8.5300493
-2.0396088
9.0582963
-2.0807449
9.6288075
-2.1162637
10.244938
-2.1457417
10.910335
-2.1686791
11.628931
-2.1844721
12.404965
-2.192568
13.243069
-2.1923625
14.148206
-2.1831753
15.125759
-2.1642957
16.181527
-2.1351811
17.32166
-2.0947688
18.552776
-2.042208
19.88254
-1.9764796
21.318568
-1.8963761
22.869474
-1.8009133
24.544446
-1.6886754
26.353668
28.308574
-0.10003536
3.0972921
-0.20141961
3.197502
-0.30215096
3.3086002
-0.40192903
3.4246835
-0.50058864
3.5450965
-0.59803209
3.6712366
-0.69417888
3.8048827
-0.78895031
3.9476629
-0.8822742
4.1010079
-0.97405198
4.2661819
-1.0641818
4.4443957
-1.1525441
4.6368291
-1.2390029
4.8447007
-1.323386
5.0692586
-1.4054968
5.3118102
-1.4851236
5.5737602
-1.562067
5.8566399
-1.6361395
6.162106
-1.7071305
6.4919527
-1.7747702
6.8481295
-1.8387906
7.2327715
-1.8989129
7.6481743
-1.9548079
8.0968027
-2.0061544
8.5813765
-2.0526499
9.1047615
-2.093881
9.6699912
-2.1294401
10.280452
-2.1588525
10.939731
-2.1816827
11.65168
-2.1973253
12.420519
-2.2051808
13.250854
-2.2046608
14.147594
-2.1951118
15.116112
-2.1759059
16.162241
-2.1464894
17.292144
-2.1057496
18.511978
-2.0524063
19.829168
-1.986201
21.252364
-1.905827
22.789089
-1.8101757
24.448625
-1.6974826
26.240729
-1.566521
28.177421
-1.4158488
30.267698
32.527584
-0.10099459
3.1995379
-0.20289428
3.2994204
-0.30417214
3.4098971
-0.40451983
3.5250502
-0.50376242
3.6443566
-0.60179705
3.7692864
-0.69853607
3.9016347
-0.79389064
4.0430289
-0.88776166
4.194889
-0.9800797
4.3585076
-1.070724
4.5350441
-1.1595674
4.7256715
-1.2464688
4.9315965
-1.3312761
5.1540581
-1.4138159
5.3943418
-1.4938949
5.6538322
-1.5712875
5.9340273
-1.6457681
6.2365828
-1.7171106
6.5632933
-1.7850878
6.9161074
-1.8494393
7.2971308
-1.909902
7.7086484
-1.9661747
8.1530856
-2.0178574
8.6330637
-2.0645896
9.1514925
-2.1060352
9.7114282
-2.1417549
10.316158
-2.1712771
10.969229
-2.1940958
11.674495
-2.2096696
12.43612
-2.217437
13.258606
-2.2168554
14.146884
-2.2072249
15.106354
-2.1877873
16.142703
-2.1576067
17.26185
-2.1163616
18.470619
-2.0631498
19.775893
-1.9962902
21.185497
-1.915056
22.70775
-1.8187788
24.352231
-1.705854
26.127647
-1.5746893
28.046037
-1.4235652
30.116486
-1.2506324
32.354808
-1.0547441
34.770949
37.381531
-0.10130218
3.3022439
-0.20362124
3.4017479
-0.30535164
3.5116393
-0.40620165
3.6259146
-0.50598515
3.7441548
-0.60459394
3.8679087
-0.70194866
3.9990009
-0.79796811
4.1390579
-0.8925296
4.2894582
-0.98549489
4.4514791
-1.0767612
4.6263139
-1.166209
4.8151194
-1.2536797
5.019064
-1.3390047
5.2393777
-1.4220104
5.4773407
-1.5025086
5.7343213
-1.5803064
6.0118152
-1.6551924
6.3114569
-1.7269401
6.6350308
-1.7953071
6.9844698
-1.8600219
7.3618441
-1.9207615
7.7693931
-1.9772683
8.2095998
-2.0292585
8.6850586
-2.076307
9.198542
-2.1179892
9.7531077
-2.1539129
10.352062
-2.1836314
10.998913
-2.2066081
11.697471
-2.2223986
12.451874
-2.2303686
13.266529
-2.2298273
14.146345
-2.2200902
15.096591
-2.2004224
16.123005
-2.1701357
17.231527
-2.1283059
18.428722
-2.0744147
19.721917
-2.0074074
21.11843
-1.9258338
22.626127
-1.828542
24.254855
-1.7146267
26.013609
-1.5827323
27.91394
-1.4311187
29.964737
-1.2575111
32.18132
-1.0604297
34.574162
-0.83836555
37.159589
-0.58986742
39.947456
42.976199
-0.10150964
3.4054704
-0.20429555
3.5045344
-0.30648942
3.6138366
-0.4078117
3.7272448
-0.50806978
3.844424
-0.60714297
3.9669942
-0.70493973
4.0968097
-0.80136694
4.2354958
-0.89640768
4.3845086
-0.98992514
4.5450059
-1.0817805
4.7181784
-1.1718057
4.9051534
-1.2598581
5.1071229
-1.3457609
5.3252832
-1.4293403
5.5609168
-1.5104211
5.8153931
-1.5888087
6.0901888
-1.6642717
6.386904
-1.7365703
6.7073064
-1.8054424
7.0533125
-1.8706316
7.4270036
-1.9318824
7.8306169
-1.9888053
8.2664988
-2.0410578
8.7372848
-2.0883466
9.2458047
-2.1302839
9.7950249
-2.1663986
10.388157
-2.1962565
11.02876
-2.2193691
11.720571
-2.2352251
12.467687
-2.2432143
13.274482
-2.2427095
14.14582
-2.2330575
15.086923
-2.2134436
16.103381
-2.1831466
17.201226
-2.1411921
18.386761
-2.0866343
19.667261
-2.018682
21.050449
-1.9366584
22.544095
-1.8388263
24.15699
-1.7240358
25.898741
-1.5911288
27.78086
-1.4388079
29.812281
-1.2644254
32.006967
-1.0662365
34.376172
-0.84312892
36.936695
-0.59330791
39.697662
-0.31429645
42.697363
45.93305
-0.10141344
3.5091485
-0.20457604
3.6076994
-0.30712099
3.7163855
-0.40880541
3.8289364
-0.50945361
3.9450828
-0.60894825
4.066501
-0.70720418
4.1950795
-0.80414446
4.3324511
-0.89961433
4.4799938
-0.9935666
4.6389738
-1.085875
4.8105039
-1.1764103
4.9957024
-1.2650034
5.1957274
-1.3514811
5.4117676
-1.4356723
5.6451091
-1.5173645
5.8970805
-1.5963538
6.1691631
-1.6724269
6.4629586
-1.7453512
6.7802081
-1.8148657
7.1227982
-1.8806399
7.4927426
-1.9423986
7.8923347
-1.9998734
8.3239337
-2.0526595
8.790032
-2.1003545
9.2934553
-2.1425911
9.8372203
-2.1789786
10.424502
-2.2090025
11.058752
-2.2322487
11.743766
-2.2482137
12.48357
-2.2563167
13.2825
-2.2558554
14.145282
-2.246098
15.077116
-2.226354
16.083599
-2.1959053
17.170758
-2.1538723
18.344734
-2.0991686
19.612555
-2.0306133
20.981891
-1.9477358
22.461171
-1.8494761
24.058646
-1.7340875
25.783306
-1.6000841
27.646763
-1.4464263
29.65852
-1.271186
31.831656
-1.0720968
34.177188
-0.84796174
36.712855
-0.59682291
39.446627
-0.31616908
42.416758
45.620168
-0.10220508
3.6134766
-0.20600128
3.7115037
-0.30913442
3.8195277
-0.41134966
3.9311618
-0.51247077
4.0462181
-0.61238492
4.1664353
-0.71100906
4.2937269
-0.80827728
4.4297429
-0.9041121
4.5758498
-0.99840214
4.7332815
-1.0910355
4.9031539
-1.1819007
5.0865865
-1.2708554
5.2846985
-1.3577585
5.4986817
-1.4423833
5.729739
-1.5245317
5.9792272
-1.6039743
6.2485987
-1.6804721
6.5394469
-1.7537941
6.8535165
-1.823711
7.1926916
-1.8899603
7.5589619
-1.952205
7.9545432
-2.0101081
8.3817933
-2.063364
8.8432473
-2.1116182
9.3416643
-2.1543845
9.8799327
-2.1912507
10.461313
-2.2217479
11.089184
-2.2453791
11.767324
-2.2616129
12.499705
-2.2698865
13.290642
-2.2695744
14.144835
-2.2598803
15.067313
-2.2399563
16.063609
-2.2090375
17.139797
-2.1665048
18.30217
-2.1115569
19.557633
-2.0430205
20.913311
-1.9595078
22.377577
-1.8602976
23.959362
-1.7442288
25.667206
-1.6093926
27.511883
-1.4545154
29.503584
-1.2781457
31.655179
-1.0781093
33.977123
-0.85281277
36.487824
-0.60042193
39.194559
-0.31798522
42.134336
45.305276
-0.10294941
3.7183853
-0.20730758
3.8158584
-0.31097755
3.9231996
-0.4137422
4.0339336
-0.51543387
4.1479208
-0.61593243
4.2669466
-0.71513292
4.3929425
-0.81293258
4.5275593
-0.90924713
4.6721793
-1.0039664
4.8280239
-1.0969857
4.9962005
-1.1882039
5.1778194
-1.2774763
5.3739834
-1.3646382
5.5858605
-1.4495498
5.8146687
-1.5320332
6.0617276
-1.6118937
6.3284691
-1.6889168
6.6164642
-1.7628238
6.9274158
-1.8333208
7.2631768
-1.9000892
7.62571
-1.9627829
8.0172131
-2.0210807
8.4400649
-2.074681
8.8968247
-2.1231429
9.3900997
-2.1661222
9.9228728
-2.2031954
10.498329
-2.2339792
11.119899
-2.2578645
11.79113
-2.2743422
12.516068
-2.2828677
13.299007
-2.2827449
14.144524
-2.2732064
15.057595
-2.2534909
16.04376
-2.2227005
17.108928
-2.1799033
18.259326
-2.1242603
19.501979
-2.0552638
20.844258
-1.9714949
22.293763
-1.8716398
23.859459
-1.7546596
25.550151
-1.6189843
27.376177
-1.4629249
29.347541
-1.2854082
31.477584
-1.084434
33.776013
-0.85792905
36.261473
-0.60405076
38.941249
-0.31959159
41.850068
44.988541
-0.1037795
3.8239851
-0.20887273
3.9209382
-0.31323262
4.027549
-0.4166183
4.1373101
-0.51888178
4.2501781
-0.61992684
4.3679904
-0.71967361
4.4926931
-0.81803765
4.6259338
-0.91490722
4.7690707
-1.0101663
4.923303
-1.1037057
5.0897526
-1.1953733
5.2695072
-1.2850468
5.4636769
-1.3725606
5.6733916
-1.4577533
5.8998725
-1.5404574
6.1444284
-1.6204738
6.408478
-1.6975805
6.6935621
-1.7715566
7.0013856
-1.8422079
7.3338208
-1.9093191
7.6928146
-1.9725568
8.0804507
-2.0314359
8.4989418
-2.0854983
8.950882
-2.1345275
9.4391211
-2.1781128
9.9664393
-2.2156762
10.535846
-2.246555
11.150716
-2.2704955
11.814977
-2.2870531
12.5325
-2.2956337
13.307427
-2.295589
14.144284
-2.2861228
15.047922
-2.2664261
16.023875
-2.2356332
17.07799
-2.1929198
18.216525
-2.1371805
19.446215
-2.0677181
20.774749
-1.9835368
22.209503
-1.8832124
23.759058
-1.7653252
25.432176
-1.6285877
27.239424
-1.4716538
29.190664
-1.2930973
31.299024
-1.0910528
33.573829
-0.86333572
36.033798
-0.60778459
38.686225
-0.32162254
41.564195
44.670173
-0.10535596
3.9301503
-0.21102149
4.0265759
-0.31593689
4.1324436
-0.41987707
4.2412352
-0.52269908
4.3529871
-0.62429427
4.4695748
-0.72456545
4.5929568
-0.82342284
4.7247869
-0.92079119
4.8664366
-1.0165639
5.0190752
-1.1106149
5.1838066
-1.2028029
5.3617007
-1.2929774
5.5538546
-1.3809798
5.7613935
-1.4666263
5.985513
-1.5497236
6.2275175
-1.6300925
6.4888416
-1.7075534
6.7710239
-1.781863
7.0756983
-1.8526692
7.4046302
-1.9196985
7.7598418
-1.9827591
8.1435016
-2.0417148
8.5578856
-2.0961571
9.0053109
-2.1454676
9.4884239
-2.1892346
10.010194
-2.2271552
10.573755
-2.2587367
11.182259
-2.2832486
11.839423
-2.3001068
12.549261
-2.3087605
13.315945
-2.3087018
14.14404
-2.2992344
15.038244
-2.2795151
16.003951
-2.2486428
17.046935
-2.2057687
18.173523
-2.1498966
19.390276
-2.0800566
20.70485
-1.9953124
22.124656
-1.8944595
23.658101
-1.7760737
25.313735
-1.6384873
27.101915
-1.4803747
29.032676
-1.3005773
31.119347
-1.0973984
33.370617
-0.86841221
35.804785
-0.61162583
38.429687
-0.32366775
41.276422
44.350299
-0.1059367
4.0372071
-0.21249288
4.133108
-0.31825921
4.2381875
-0.42297953
4.3459357
-0.52650873
4.4564984
-0.62876633
4.571816
-0.72968111
4.6938572
-0.82916904
4.8242628
-0.92713085
4.9643894
-1.0234672
5.1154056
-1.1180597
5.2783965
-1.2107806
5.4544216
-1.3014783
5.6445538
-1.3899897
5.8499031
-1.4761293
6.0716496
-1.5596935
6.3110808
-1.6404575
6.5696024
-1.7182114
6.8487648
-1.7928026
7.1502637
-1.8640627
7.4758594
-1.9316234
7.8273625
-1.995037
8.2068763
-2.0539551
8.6167757
-2.1081925
9.0595242
-2.1574544
9.5376553
-2.201265
10.053996
-2.239184
10.611656
-2.2708445
11.213889
-2.2955401
11.864057
-2.3125345
12.566194
-2.3214385
13.324754
-2.3215642
14.144026
-2.312221
15.028708
-2.2925317
15.984051
-2.2616606
17.015867
-2.218664
18.130387
-2.1626825
19.334194
-2.0925791
20.634663
-2.0074113
22.03937
-1.9057208
23.556353
-1.7865727
25.19463
-1.648442
26.963901
-1.4896559
28.874054
-1.3087842
30.938692
-1.1044285
33.166318
-0.87376252
35.57413
-0.61520032
38.171091
-0.32565741
40.986849
44.028619
-0.1059781
4.1449907
-0.21322366
4.240332
-0.31972323
4.3446659
-0.42522022
4.4514128
-0.52954027
4.5607995
-0.63257008
4.6748275
-0.73422423
4.7954944
-0.83442077
4.9244449
-0.93307328
5.0630308
-1.0300821
5.212407
-1.1253267
5.3736374
-1.2186724
5.547765
-1.3099643
5.7358396
-1.3990348
5.9389567
-1.4857034
6.1582949
-1.5697745
6.395131
-1.6510512
6.6508614
-1.7293005
6.9269909
-1.8042187
7.2251473
-1.8755916
7.5471842
-1.9433239
7.8950415
-2.0071176
8.2706342
-2.0664984
8.6761294
-2.1210049
9.1139999
-2.1703365
9.5869609
-2.2141299
10.097731
-2.2519081
10.64937
-2.2832335
11.245112
-2.3078525
11.888591
-2.3251969
12.583448
-2.3342066
13.333681
-2.3343548
14.144055
-2.3251367
15.019325
-2.3056688
15.964411
-2.2749653
16.984984
-2.2320123
18.087281
-2.175879
19.277944
-2.1054625
20.564145
-2.0197066
21.953527
-1.9174235
23.454058
-1.7974089
25.074668
-1.6584029
26.825006
-1.4988697
28.714704
-1.3166826
30.756689
-1.1108507
32.960612
-0.87902407
35.342404
-0.61876824
37.910667
-0.32770092
40.695453
43.704963
-0.10610487
4.2535228
-0.21412446
4.3483307
-0.32141557
4.4519349
-0.42766933
4.5576449
-0.53272058
4.6658296
-0.63646302
4.7785488
-0.73881019
4.8978205
-0.83968326
5.0252986
-0.93899158
5.1623226
-1.0366331
5.3100352
-1.1324942
5.4694871
-1.2264456
5.6417052
-1.3183338
5.827717
-1.4079893
6.0286017
-1.4952237
6.2455189
-1.5798434
6.4797356
-1.6616458
6.732641
-1.7404196
7.0057395
-1.8159432
7.3006453
-1.887874
7.6190691
-1.9558324
7.9629547
-2.0196961
8.3344316
-2.0792849
8.7356527
-2.1341908
9.1688527
-2.1838707
9.6365616
-2.2279161
10.14169
-2.2658751
10.687251
-2.2972992
11.276469
-2.3215756
11.912774
-2.338464
12.600218
-2.3474311
13.34254
-2.3475644
14.144043
-2.3380221
15.009638
-2.3183639
15.944605
-2.2876795
16.954161
-2.2448053
18.044267
-2.1885417
19.221552
-2.1178747
20.493378
-2.0317032
21.867302
-1.9289119
23.351235
-1.8081679
24.953945
-1.6682852
26.685165
-1.5077923
28.55432
-1.3246471
30.573734
-1.1173708
32.753539
-0.88408644
35.109294
-0.62238666
37.648853
-0.32983824
40.402545
43.379152
-0.10573889
4.3627329
-0.21444995
4.4570203
-0.32248118
4.5599406
-0.42955436
4.6646924
-0.53546572
4.7717169
-0.64007839
4.8831384
-0.74329376
5.0010128
-0.84501625
5.1269975
-0.9451441
5.2624274
-1.0435629
5.4084328
-1.1401442
5.5660494
-1.2347485
5.736292
-1.3272255
5.9201783
-1.417412
6.1187732
-1.5051411
6.3332324
-1.5902315
6.5648064
-1.6724828
6.8148641
-1.7516696
7.084891
-1.8275549
7.376498
-1.8999118
7.6914121
-1.9684624
8.0314739
-2.0327751
8.3986942
-2.0924856
8.7952943
-2.1474241
9.2236837
-2.1973669
9.6863868
-2.24179
10.186005
-2.2801117
10.725469
-2.3118671
11.308125
-2.3364892
11.937287
-2.3532924
12.616897
-2.3617783
13.35087
-2.3615599
14.143669
-2.3518764
14.999797
-2.3318688
15.924434
-2.3007413
16.922876
-2.2575859
18.000991
-2.2012236
19.165136
-2.1302708
20.422398
-2.0436634
21.780668
-1.9403564
23.247874
-1.8190095
24.832609
-1.6783215
26.544543
-1.5167725
28.392872
-1.3325932
30.389716
-1.1239974
32.54513
-0.88919515
34.874654
-0.62594996
37.385554
-0.33212472
40.108584
43.051023
-0.10464505
4.472557
-0.21397707
4.5663454
-0.32265107
4.6685969
-0.43040831
4.7724259
-0.53704522
4.8783284
-0.64242331
4.9884911
-0.74643751
5.1050012
-0.84899235
5.2295251
-0.94998555
5.3633913
-1.0492943
5.5077117
-1.1467739
5.6635012
-1.2422617
5.8317563
-1.3355857
6.0134843
-1.4265688
6.2097418
-1.5150272
6.4216764
-1.6007737
6.6505375
-1.6836098
6.8976812
-1.7633254
7.1645788
-1.8396775
7.4528149
-1.9124138
7.76411
-1.981314
8.1003286
-2.0461053
8.4634355
-2.1063926
8.8555247
-2.1617074
9.2789205
-2.2116784
9.736246
-2.2559873
10.230182
-2.2943591
10.7637
-2.3262487
11.33988
-2.3511062
11.962018
-2.3682328
12.633896
-2.376999
13.359481
-2.3766634
14.143156
-2.3666598
14.989627
-2.3462099
15.90386
-2.3146249
16.891165
-2.2709771
17.957232
-2.2142129
19.108331
-2.1429014
20.351103
-2.0558233
21.693629
-1.9519457
23.144009
-1.8299493
24.710584
-1.6884238
26.403045
-1.5259013
28.230391
-1.3406883
30.204575
-1.1307408
32.335296
-0.89448607
34.638517
-0.62966219
37.120724
-0.33437555
39.81325
42.721081
-0.10481614
4.5828647
-0.21452659
4.6760766
-0.32357496
4.7776542
-0.43173654
4.8805864
-0.53883613
4.9854199
-0.64474642
5.0943884
-0.74935264
5.2095903
-0.8525433
5.3326941
-0.95419971
5.465021
-1.0541935
5.6076756
-1.1523832
5.7616617
-1.24861
5.9279588
-1.3427072
6.1075632
-1.4344981
6.301518
-1.5237868
6.5109517
-1.610366
6.7371046
-1.6940202
6.9813222
-1.774522
7.2450593
-1.8516176
7.529882
-1.9250347
7.8374993
-1.9944688
8.1697333
-2.0596443
8.528565
-2.120321
8.9161344
-2.1761792
9.3346998
-2.2267075
9.7866952
-2.2714257
10.274819
-2.3098958
10.802061
-2.3416697
11.371518
-2.3663549
11.986564
-2.3833926
12.65079
-2.3921217
13.368076
-2.3917586
14.142675
-2.381548
14.979268
-2.3607573
15.882895
-2.3286472
16.858966
-2.284452
17.91298
-2.2271555
19.051011
-2.1556195
20.279633
-2.0681998
21.6063
-1.9637443
23.039619
-1.8410448
24.587882
-1.6986344
26.26069
-1.5351458
28.066935
-1.3489277
30.01837
-1.137688
32.124114
-0.89991917
34.400839
-0.63342191
36.854254
-0.33657731
39.516403
42.389571
-0.10628975
4.6938345
-0.21663034
4.786455
-0.32624756
4.8873036
-0.43488469
4.9892499
-0.54239331
5.0929494
-0.64867083
5.2006813
-0.75363757
5.3145665
-0.85721497
5.4362737
-0.95930869
5.5671084
-1.0598003
5.7081533
-1.1585441
5.8603878
-1.255367
6.0247638
-1.350081
6.2022588
-1.4424957
6.3939129
-1.5324087
6.6008442
-1.6196103
6.8242855
-1.7038953
7.0655843
-1.7850164
7.3261532
-1.8627617
7.6075945
-1.9368547
7.9115583
-2.0070085
8.2398542
-2.0728724
8.5943872
-2.134084
8.977292
-2.1903018
9.3908535
-2.2412161
9.8375316
-2.2864536
10.319962
-2.3254621
10.840964
-2.3576586
11.403612
-2.3825147
12.01132
-2.399473
12.667628
-2.4079425
13.376417
-2.4073256
14.141904
-2.3969122
14.9687
-2.3758409
15.86172
-2.3432251
16.826267
-2.2983446
17.86798
-2.2402939
18.992946
-2.1681495
20.207571
-2.0804272
21.518747
-1.9755405
22.934888
-1.8522646
24.464709
-1.7091063
26.11765
-1.5446411
27.902529
-1.3573379
29.831081
-1.1449807
31.911784
-0.9055733
34.161541
-0.63721575
36.585888
-0.33876187
39.218031
42.056317
-0.10732302
4.8053863
-0.2182543
4.897421
-0.32844766
4.9975309
-0.43769692
5.0985316
-0.54584421
5.2011271
-0.65277653
5.3076421
-0.75839695
5.4202136
-0.86259263
5.5404934
-0.96523688
5.6697724
-1.0662057
5.8091354
-1.1653763
5.9595639
-1.262613
6.1219984
-1.3577606
6.2973978
-1.450652
6.4867901
-1.5411065
6.6912783
-1.6289041
6.9120533
-1.7138138
7.1504642
-1.7955888
7.4078936
-1.8739329
7.6858912
-1.9485726
7.9861508
-2.0192093
8.3104394
-2.085583
8.6607063
-2.1473342
9.038983
-2.2040842
9.4475374
-2.2554158
9.8887888
-2.3009422
10.365395
-2.340202
10.880107
-2.3727009
11.435974
-2.3978553
12.036321
-2.4150809
12.684685
-2.4237298
13.384943
-2.4231208
14.141231
-2.4125076
14.958024
-2.3912111
15.840293
-2.3584511
16.793348
-2.3131871
17.822655
-2.2544649
18.934238
-2.1814172
20.134612
-2.0929958
21.43051
-1.987592
22.829725
-1.8636672
24.341019
-1.7197226
25.973912
-1.5542931
27.737244
-1.3658491
29.642727
-1.1523414
31.698376
-0.91139646
33.920728
-0.6415485
36.315974
-0.34148071
38.918003
41.720883
-0.10918896
4.9175253
-0.22071286
5.0089658
-0.33141674
5.1082575
-0.44108352
5.2082213
-0.54958231
5.3096472
-0.65684606
5.4149247
-0.76282134
5.5262058
-0.86745297
5.6451412
-0.97065761
5.7729935
-1.0723046
5.9107989
-1.172221
6.0594955
-1.2702087
6.2199982
-1.3660513
6.3932478
-1.4595283
6.5802682
-1.550452
6.782195
-1.6386685
7.0002539
-1.7239748
7.2357452
-1.8061734
7.4900548
-1.8850108
7.7646795
-1.9601925
8.0612761
-2.0314094
8.3815957
-2.0983191
8.7275557
-2.1605943
9.1011905
-2.2178263
9.5046932
-2.2695795
9.9404516
-2.315433
10.41115
-2.3549631
10.919526
-2.3877045
11.468585
-2.4130927
12.061563
-2.4305278
12.701971
-2.4393258
13.393616
-2.4388042
14.140624
-2.428269
14.947429
-2.4068663
15.818833
-2.3737865
16.760191
-2.3282334
17.77703
-2.2691048
18.875107
-2.195359
20.060911
-2.1060177
21.341354
-1.9997755
22.723783
-1.8751426
24.2167
-1.7305392
25.829592
-1.564154
27.571119
-1.3744228
29.453213
-1.1595798
31.483752
-0.91726259
33.678538
-0.64610014
36.044655
-0.34426615
38.616097
41.383012
-0.11182175
-0.2240577
-0.33547936
-0.44584202
-0.55499483
5.4188074
-0.66283759
5.5227715
-0.76927086
5.6326391
-0.87419771
5.750064
-0.97753397
5.8763228
-1.0792042
6.0124602
-1.1791312
6.1594127
-1.2772273
6.3180859
-1.3733811
6.4893961
-1.4674175
6.674303
-1.5590609
6.8738396
-1.6479955
7.0891896
-1.7339706
7.3217153
-1.8167408
7.5728083
-1.8960788
7.8439877
-1.9717166
8.1368726
-2.0433691
8.4531994
-2.1107005
8.7948336
-2.1733872
9.1638156
-2.231083
9.5623157
-2.2833849
9.9926627
-2.3297782
10.457439
-2.3697388
10.959372
-2.4027881
11.501508
-2.4283835
12.087024
-2.4459974
12.719445
-2.4549865
13.402468
-2.4545739
14.140109
-2.4440986
14.93689
-2.422744
15.797431
-2.3895608
16.726924
-2.3435981
17.730988
-2.2840613
18.815504
-2.209835
19.986661
-2.1196955
21.251409
-2.0127097
22.61704
-1.8872443
24.091519
-1.7415893
25.68426
-1.5742178
27.404093
-1.3830808
29.262411
-1.1667843
31.267775
-0.923019
33.434869
-0.65048826
35.771918
-0.34682159
38.312368
41.042813
-0.560179
-0.66888529
-0.77618771
-0.88198665
-0.98616242
-1.0885785
-1.1890839
6.259905
-1.287515
6.4165022
-1.3837148
6.5855778
-1.4775694
6.7681371
-1.5690154
6.9652678
-1.6579471
7.1781112
-1.7441452
7.4079103
-1.8273363
7.656001
-1.907203
7.9238539
-1.9834127
8.2130764
-2.0556002
8.5253724
-2.1234453
8.8626543
-2.186614
9.2269476
-2.2447018
9.6203523
-2.2973266
10.045216
-2.3440625
10.504082
-2.3844474
10.999645
-2.4179079
11.53484
-2.4438719
12.112851
-2.4616752
12.737104
-2.4707537
13.4114
-2.4704738
14.139697
-2.4599772
14.926277
-2.4385663
15.775918
-2.4053415
16.693603
-2.3592778
17.68482
-2.2994043
18.755476
-2.2246517
19.911881
-2.1339103
21.160722
-2.0259788
22.509237
-1.8996345
23.965437
-1.7529987
25.537958
-1.5843711
27.235802
-1.3919633
29.070342
-1.1740683
31.050235
-0.92882
33.189767
-0.65473199
35.497686
-0.34904789
38.006579
40.7006
-1.1981389
-1.2975398
-1.3947162
-1.4894555
-1.5815289
-1.6707459
7.2673249
-1.7569343
7.4940956
-1.8399404
7.7390064
-1.9196108
8.0035276
-1.9957301
8.2892011
-2.0680233
8.5976747
-2.1361165
8.9307493
-2.1995979
9.2904178
-2.2580865
9.6788151
-2.3111227
10.09821
-2.3582392
10.551135
-2.3989962
11.040307
-2.4328584
11.568577
-2.4592238
12.139071
-2.4775031
12.75523
-2.4868911
13.420627
-2.4866879
14.139329
-2.4762362
14.91567
-2.4546675
15.754196
-2.4211956
16.659984
-2.3749312
17.638384
-2.314758
18.695121
-2.2395487
19.836571
-2.1482178
21.069325
-2.039466
22.400578
-1.9119357
23.838111
-1.7642217
25.390479
-1.5945423
27.066394
-1.4009928
28.877062
-1.1817048
30.831294
-0.93493185
32.943246
-0.65888261
35.221627
-0.35116286
37.698712
40.35623
-1.6829937
-1.7701402
-1.8539642
-1.9341872
-2.0105543
8.3655812
-2.0828226
8.6699495
-2.1507639
8.9986905
-2.2140796
9.3537225
-2.2724582
9.7371717
-2.3255336
10.151252
-2.3728062
10.598357
-2.4137202
11.081145
-2.4477739
11.602522
-2.4743884
12.165542
-2.4928975
12.773574
-2.5026824
13.430234
-2.5028322
14.139283
-2.492557
14.905193
-2.4710975
15.732537
-2.4374962
16.626171
-2.3908939
17.591551
-2.330326
18.634342
-2.2547386
19.760783
-2.1628792
20.977354
-2.0533293
22.291094
-1.9248082
23.70968
-1.7759281
25.241733
-1.6048774
26.895546
-1.4101527
28.682546
-1.1894592
30.610893
-0.94121899
32.695354
-0.66310731
34.943696
-0.35272878
37.388262
40.010032
-2.0252016
-2.0983196
-2.1669286
-2.2306836
-2.2891796
9.795649
-2.3420788
10.204118
-2.3890529
10.645289
-2.4297459
11.121784
-2.4636169
11.636316
-2.4901134
12.191928
-2.5085995
12.791916
-2.5184147
13.439873
-2.5189387
14.13959
-2.5089504
14.894957
-2.4875524
15.710899
-2.4540143
16.592386
-2.4073321
17.544619
-2.346463
18.573232
-2.2703449
19.684392
-2.17771
20.884489
-2.0672992
22.180585
-1.937737
23.580187
-1.7877804
25.091881
-1.6156087
26.723534
-1.419494
28.486629
-1.1974349
30.389059
-0.94746102
32.445763
-0.66755114
34.664141
-0.35460799
37.075182
39.661631
-2.3056674
-2.3593097
-2.406751
-2.4475883
-2.4813129
11.669999
-2.5075148
12.218064
-2.5256733
12.809979
-2.5349791
13.449034
-2.5349457
14.139343
-2.5250363
14.884782
-2.5038293
15.689402
-2.4703369
16.558609
-2.423486
17.497483
-2.3623894
18.511828
-2.285794
19.607495
-2.1924811
20.790957
-2.0812416
22.069231
-1.950659
23.449668
-1.799546
24.94091
-1.6264476
26.550592
-1.4290376
28.289405
-1.205578
30.165734
-0.95371111
32.194206
-0.67159394
34.382469
-0.35661698
36.760061
39.310751
-2.4990741
-2.5255841
-2.5437365
-2.5531594
13.458359
-2.5527844
14.138816
-2.542035
14.873798
-2.5204626
15.667542
-2.4867314
16.524581
-2.4397502
17.450204
-2.3782996
18.450079
-2.3013443
19.530277
-2.2076071
20.696994
-2.0956783
21.957186
-1.9643368
23.318361
-1.8120116
24.788727
-1.6374376
26.37615
-1.4386692
28.090854
-1.2138608
29.941022
-0.9604719
31.94099
-0.67608403
34.09852
-0.35891279
36.442897
38.957381
-2.5710217
-2.5709254
-2.560171
-2.5379155
15.645098
-2.5035313
16.489957
-2.4560594
17.402467
-2.3943542
18.388074
-2.3169533
19.452595
-2.2227336
20.602538
-2.110341
21.844654
-1.9781065
23.186094
-1.8247683
24.635466
-1.648795
26.200291
-1.4483959
27.890695
-1.2217802
29.714636
-0.96671312
31.686055
-0.68083621
33.812863
-0.36137723
36.123617
38.601742
-2.5554065
-2.5209838
-2.473074
17.354344
-2.4107108
18.325457
-2.3327354
19.374338
-2.2377806
20.507341
-2.1246713
21.731372
-1.9919329
23.053326
-1.8377904
24.481343
-1.6606433
26.023212
-1.4586265
27.688931
-1.2301863
29.486535
-0.97327693
31.429301
-0.6855248
33.525164
-0.36374175
35.802068
38.243971
-2.4897761
-2.4273298
-2.349115
-2.2535873
20.411607
-2.1394665
21.61709
-2.0056142
22.919383
-1.8505561
24.326269
-1.6722324
25.844975
-1.4688458
27.485829
-1.2385019
29.25659
-0.97967133
31.170683
-0.68990504
33.235423
-0.36623584
35.478618
37.883872
-2.2692713
-2.1548188
-2.0200351
22.784469
-1.8637341
24.169886
-1.6842368
25.665577
-1.4792756
27.281156
-1.2473605
29.024989
-0.9867146
30.910239
-0.69448946
32.943338
-0.36867551
35.152912
37.521466
-2.0345114
-1.877303
-1.6965379
25.484822
-1.490239
27.075074
-1.2564685
28.791455
-0.99356547
30.64752
-0.69906332
32.6491
-0.37096037
34.824733
37.156794
-1.7088305
-1.5014785
26.867755
-1.266267
28.556386
-1.001256
30.382745
-0.70460511
32.352647
-0.37379272
34.493811
36.789145
-1.5126648
-1.2760129
-1.0089592
30.115952
-0.70992049
32.053694
-0.37668766
34.160523
36.418624
-1.0169399
-0.71546368
31.752212
-0.37963353
33.824639
36.045269
-0.7221614
-0.38304763
35.668813
)
;

boundaryField
{
    Side
    {
        type            empty;
    }
    Inlet
    {
        type            calculated;
        value           nonuniform List<scalar> 
32
(
-0.003252402
-0.0033570288
-0.0033115917
-0.0031290767
-0.0033057874
-0.0034644955
-0.0037194227
-0.003984208
-0.0042738703
-0.0046460253
-0.0049770108
-0.0052721646
-0.0055658643
-0.0058814681
-0.0061573
-0.0064477674
-0.0067372207
-0.0068090737
-0.0066625882
-0.0063870733
-0.0058739905
-0.0057244499
-0.0057981548
-0.0058762259
-0.0059267037
-0.0059674141
-0.0059391946
-0.0059550439
-0.0061283442
-0.0064152107
-0.0067489477
-0.007362784
)
;
    }
    Airfoil
    {
        type            calculated;
        value           nonuniform List<scalar> 0();
    }
    Outlet
    {
        type            calculated;
        value           nonuniform List<scalar> 0();
    }
    procBoundary11to3
    {
        type            processor;
        value           uniform -2.3976634;
    }
    procBoundary11to4
    {
        type            processor;