/*--------------------------------*- C++ -*----------------------------------*\
| =========                 |                                                 |
| \\      /  F ield         | OpenFOAM: The Open Source CFD Toolbox           |
|  \\    /   O peration     | Version:  2506                                  |
|   \\  /    A nd           | Website:  www.openfoam.com                      |
|    \\/     M anipulation  |                                                 |
\*---------------------------------------------------------------------------*/
FoamFile
{
    version     2.0;
    format      ascii;
    arch        "LSB;label=32;scalar=64";
    class       volScalarField;
    location    "0.00012";
    object      Co;
}
// * * * * * * * * * * * * * * * * * * * * * * * * * * * * * * * * * * * * * //

dimensions      [0 0 0 0 0 0 0];

internalField   nonuniform List<scalar> 
13761
(
0.00099568407
0.0009522191
0.0009106808
0.0012348261
0.0012890372
0.0013454855
0.0014042683
0.0014654724
0.0011686556
0.0012195805
0.0012725728
0.0013277194
0.001385099
0.0014447699
0.0015068161
0.0011054423
0.0011532262
0.0012029156
0.0012545881
0.0013083136
0.0013641409
0.0014221465
0.0014824123
0.0015450283
0.0010458375
0.0010906895
0.0011372988
0.0011857348
0.0012360597
0.0012883133
0.0013425664
0.001398882
0.0014573504
0.0015179715
0.0015807205
0.00098925149
0.0010313336
0.0010750348
0.0011204171
0.0011675342
0.0012164204
0.0012671377
0.0013197368
0.0013743025
0.001430831
0.0014892878
0.0015490093
0.001606188
0.00093540124
0.00097485547
0.0010157982
0.0010582845
0.0011023614
0.001148059
0.0011954282
0.0012445124
0.001295389
0.0013480475
0.001402452
0.0014579701
0.0015111183
0.0015497026
0.0015773642
0.00088448925
0.00092147905
0.00095983673
0.00099961104
0.0010408442
0.0010835612
0.0011277995
0.00117361
0.0012210449
0.0012701023
0.0013207413
0.0013723772
0.0014217918
0.0014575571
0.0014824184
0.0015373467
0.0016283385
0.0017131792
0.00083621831
0.00087088501
0.00090680865
0.00094403202
0.00098258909
0.0010225049
0.0010638094
0.0011065423
0.0011507508
0.0011964366
0.0012435497
0.0012915456
0.0013374839
0.0013708968
0.0013930176
0.001444365
0.0015284419
0.0016063731
0.0017011629
0.0017543574
0.00079052805
0.00082301233
0.00085665141
0.00089148071
0.00092753098
0.00096482203
0.0010033815
0.0010432384
0.0010844337
0.001126972
0.0011708006
0.0012154171
0.0012580932
0.0012892113
0.0013091357
0.0013568154
0.00143314
0.0015054507
0.0015882671
0.0016337752
0.0016452025
0.0017115176
0.00074729098
0.00077772647
0.00080922032
0.00084180481
0.00087550803
0.00091034196
0.00094632841
0.00098350433
0.0010218842
0.0010614876
0.0011022567
0.0011437293
0.0011834119
0.0012122478
0.0012300222
0.001273289
0.0013447037
0.0014132028
0.0014849026
0.0015204358
0.0015403181
0.0015935595
0.0016405866
0.0017009116
0.00070616665
0.00073466035
0.0007641235
0.00079458257
0.00082606548
0.00085857632
0.00089213328
0.00092677435
0.00096250055
0.00099933525
0.0010372223
0.001075724
0.0011125833
0.0011393084
0.0011546486
0.0011943403
0.0012656901
0.0013278031
0.0013939823
0.0014165502
0.0014430796
0.0014874
0.0015353121
0.0015643451
0.0016697988
0.0016783034
0.00066720766
0.00069387431
0.00072142922
0.00074989132
0.00077928774
0.00080962151
0.00084090542
0.00087316881
0.00090641429
0.00094066151
0.00097586208
0.0010115902
0.0010458252
0.0010704965
0.0010839101
0.0011199323
0.0011910869
0.0012466003
0.0013151076
0.0013282661
0.0013636885
0.0013988966
0.0014587095
0.0014564619
0.001551454
0.0015655239
0.0011844649
0.00030697704
0.00097050299
0.00063039324
0.00065534934
0.00068111698
0.00070771327
0.00073516039
0.00076346341
0.00079263032
0.00082267917
0.00085361691
0.00088545912
0.00091815701
0.00095133556
0.00098314334
0.001006038
0.0010176337
0.0010492191
0.0011169584
0.0011682929
0.0012396099
0.0012527429
0.001291461
0.0013251351
0.0013928229
0.0014005635
0.0014533835
0.0014896499
0.0011235649
0.00031834194
0.00098704538
0.0023966011
0.0087999957
0.00059551998
0.00061886748
0.00064295656
0.00066780176
0.00069342107
0.00071981825
0.000746999
0.00077497604
0.00080375714
0.00083335344
0.00086371627
0.0008945193
0.00092406905
0.00094542969
0.00095520896
0.00098302955
0.0010445016
0.001093889
0.001165917
0.001186332
0.0012127147
0.0012520959
0.0013162741
0.0013581947
0.0013865161
0.0014121328
0.0010683504
0.00033731332
0.0010037091
0.0023774812
0.0084441282
0.051417499
0.013074997
0.0021342663
0.0005624835
0.00058431826
0.0006068302
0.00063003075
0.00065393299
0.00067854525
0.00070386311
0.00072990357
0.00075666733
0.00078416633
0.00081235668
0.00084092719
0.00086827524
0.00088826532
0.00089685685
0.000921311
0.00097683633
0.0010245695
0.0010962856
0.0011256437
0.0011316532
0.0011727869
0.0012292596
0.0012937176
0.0013311088
0.0013157271
0.0010028799
0.0003575459
0.0010191737
0.0023565577
0.0080717476
0.053448842
0.013476297
0.001770192
0.0010620361
0.033695477
0.011759685
0.00053118099
0.00055159253
0.00057262171
0.00059427565
0.00061656932
0.00063950436
0.00066308014
0.00068730701
0.0007121834
0.00073772171
0.00076388001
0.00079036253
0.00081578104
0.00083435689
0.00084236472
0.0008641939
0.00091409867
0.00095988248
0.0010260187
0.0010591206
0.0010566056
0.0010883421
0.0011391839
0.0012075524
0.0012581188
0.0012154226
0.0009250794
0.00037690157
0.0010326818
0.0023339188
0.0076841926
0.048798267
0.014084136
0.0016786289
0.00059877168
0.030097842
0.01136113
0.00050151365
0.00052058574
0.00054022022
0.00056042209
0.00058120564
0.00060256661
0.00062450781
0.00064703674
0.00067014837
0.0006938528
0.00071810913
0.0007426733
0.00076628039
0.00078363753
0.0007908539
0.00081156591
0.00085574688
0.00089969044
0.00095506485
0.00098589796
0.00098869156
0.0010082792
0.0010565758
0.0011136671
0.0011680195
0.0011291457
0.0008480171
0.00039333005
0.0010418771
0.0023081342
0.0073513794
0.041581596
0.011749227
0.0015464826
0.00034663551
0.024600603
0.010958505
0.00047343136
0.00049124649
0.00050957212
0.00052841394
0.00054778091
0.00056767226
0.00058808603
0.00060902731
0.00063049432
0.0006524916
0.00067498515
0.00069776488
0.00071958485
0.00073610878
0.0007420669
0.00076170308
0.00080068668
0.00084407256
0.00088927712
0.00091685293
0.00092537948
0.00093762157
0.0009838935
0.0010299862
0.0010820612
0.001058614
0.0007826627
0.00040350427
0.0010481711
0.0022794217
0.0070528946
0.039515666
0.0063307846
0.0012306044
0.00047233168
0.02218112
0.010561371
0.00044692889
0.00046357046
0.00048067569
0.00049824933
0.00051629778
0.00053482151
0.00055381792
0.00057328289
0.00059322688
0.00061364271
0.00063450355
0.00065559924
0.00067591591
0.00069142946
0.00069647794
0.00071371012
0.00074913179
0.00079181925
0.0008302535
0.00085667673
0.00086615271
0.00087500659
0.00091720752
0.00095825045
0.0010040673
0.00099239993
0.00072822311
0.00041061092
0.0010542263
0.0022563655
0.0067433051
0.038080367
0.0016966835
0.00079367748
0.00078525211
0.021172019
0.010193858
0.00042184659
0.00043738648
0.00045334736
0.00046973242
0.00048654751
0.00050379189
0.00052146027
0.0005395514
0.0005580726
0.00057701569
0.00059635296
0.0006159103
0.00063476002
0.00064914377
0.0006534282
0.00066857251
0.00070066861
0.00074184183
0.00077619175
0.00080285933
0.00081113876
0.00081863657
0.00085495933
0.00089220216
0.00092961467
0.00092477499
0.00067956671
0.00042442684
0.0010572024
0.0022310822
0.0064434387
0.033993721
0.00059114386
0.00047197483
0.00084558247
0.020031408
0.0098388318
0.00039807883
0.00041258274
0.00042746808
0.00044273746
0.00045839598
0.00047444014
0.00049086466
0.0005076723
0.00052486129
0.00054243112
0.00056034775
0.00057846706
0.00059589654
0.0006093942
0.00061311967
0.00062592387
0.00065388506
0.00069453963
0.00072624495
0.00075213767
0.00075935442
0.00076779315
0.00079755062
0.00083092817
0.00086028441
0.00085857657
0.00063472184
0.00044338902
0.0010604351
0.00220007
0.0061742664
0.031164267
0.00094182379
0.00038778867
0.00079357158
0.017620285
0.0094839692
0.00037563526
0.00038917113
0.00040305294
0.0004172819
0.00043186076
0.00044679006
0.00046205878
0.00047767185
0.00049362566
0.00050992004
0.00052652152
0.00054330549
0.00055948441
0.00057214483
0.00057575625
0.00058650682
0.00061095831
0.0006505185
0.0006793276
0.00070373512
0.00070964697
0.00071991526
0.00074491341
0.00077349689
0.00079595657
0.00079783116
0.00059392779
0.00045095482
0.0010670906
0.0021717833
0.0059111615
0.02935155
0.00074544486
0.00045685925
0.00079479567
0.016146488
0.0091226611
0.00035441193
0.00036704089
0.00037998321
0.00039323893
0.00040681143
0.00042069899
0.00043489075
0.00044938943
0.000464196
0.00047930429
0.00049469219
0.00051024954
0.00052529346
0.00053718626
0.0005407851
0.00055054715
0.00057164917
0.00060921916
0.00063577858
0.00065805486
0.00066346
0.00067436764
0.00069501952
0.000721167
0.00074034149
0.00074267933
0.0005559388
0.00044033406
0.0010729735
0.0021405216
0.0056566619
0.026968714
0.00039685077
0.00042357194
0.00089748624
0.015320817
0.0087472713
0.00033433663
0.0003461157
0.00035817807
0.00037052336
0.00038315392
0.00039606794
0.00040925442
0.00042271913
0.00043645438
0.00045046125
0.00046472055
0.00047912018
0.00049311407
0.00050430804
0.00050773042
0.00051677301
0.00053521416
0.00056979161
0.00059497589
0.00061437034
0.00062057863
0.00063154381
0.00064814176
0.0006731496
0.00069461304
0.00069358021
0.00051735331
0.00042409438
0.0010794832
0.0021080377
0.005424065
0.024758371
0.0002205158
0.00032697879
0.001000466
0.014064212
0.008371231
0.00031538895
0.00032637483
0.00033761723
0.0003491143
0.00036086782
0.00037287926
0.00038513158
0.00039763352
0.00041037806
0.0004233634
0.00043656941
0.00044990876
0.00046285728
0.00047323267
0.00047644921
0.0004843648
0.00050160973
0.00053210137
0.00055679263
0.00057390606
0.00058099901
0.00059067206
0.00060460961
0.00062826989
0.00065161195
0.00064797623
0.00048087947
0.00041511814
0.001084592
0.0020727793
0.0051994714
0.022964309
0.00033208344
0.00043773629
0.0010124969
0.012815061
0.0079996509
0.00029746831
0.00030771128
0.00031818616
0.00032888999
0.0003398257
0.00035099161
0.00036237659
0.00037398042
0.00038580465
0.0003978396
0.00041007779
0.00042244248
0.00043446211
0.00044414392
0.00044735192
0.00045376841
0.00046998447
0.00049650932
0.00052149087
0.00053747635
0.00054430909
0.00055209423
0.00056426574
0.00058627501
0.00060844909
0.00060461475
0.00044863866
0.00041571392
0.0010822583
0.0020279163
0.0049747469
0.021188138
0.00049140819
0.00033515123
0.00097221353
0.011785198
0.007623071
0.0002805521
0.00029010157
0.00029986049
0.00030982568
0.00031999844
0.00033037732
0.000340957
0.00035173013
0.00036269947
0.00037385661
0.0003851969
0.00039664778
0.00040782235
0.00041703547
0.00042008681
0.00042592576
0.00044077525
0.00046381364
0.00048830987
0.00050347251
0.00050930214
0.00051555827
0.00052750904
0.00054638441
0.00056638163
0.00056456033
0.00042033636
0.00041268176
0.0010761513
0.0019833117
0.0047586437
0.019512016
0.00045666383
0.00038391946
0.00095789382
0.010803597
0.0072583882
0.00026457246
0.0002734738
0.00028256424
0.00029184043
0.00030130294
0.00031095047
0.00032077911
0.0003307801
0.00034095642
0.00035130049
0.00036180362
0.00037241484
0.00038276833
0.0003913844
0.00039420513
0.00039945888
0.00041387378
0.00043319908
0.00045662875
0.00047144627
0.00047666375
0.00048076326
0.00049349456
0.00050985598
0.00052762906
0.00052767464
0.00039434204
0.00039471274
0.0010725522
0.0019369292
0.0045518234
0.018008901
0.00027791327
0.00044258005
0.00095102081
0.0098712528
0.0069080871
0.00024947957
0.00025777544
0.00026624203
0.00027487614
0.00028367689
0.00029264447
0.00030177423
0.00031105901
0.00032049822
0.00033008912
0.00033982448
0.00034965639
0.00035928795
0.00036736102
0.00037011543
0.00037415024
0.00038811011
0.00040463545
0.0004267873
0.00044205542
0.00044675436
0.00044875272
0.00046125778
0.00047682369
0.00049407201
0.00049457066
0.00036939005
0.00037623659
0.001068083
0.001882728
0.0043512219
0.01660747
0.00021685733
0.00031926186
0.00088129862
0.0090355247
0.0065561694
0.00023523008
0.00024296102
0.00025084578
0.00025888176
0.00026706679
0.00027540227
0.00028388284
0.0002925027
0.00030125878
0.00031015221
0.00031917511
0.00032827999
0.00033723577
0.00034483911
0.00034753611
0.00035072415
0.00036360707
0.00037875771
0.00039887583
0.00041483989
0.00041811458
0.00042002732
0.00043116316
0.00044564675
0.00046181556
0.00046311028
0.00034797489
0.00036851008
0.0010556693
0.0018278172
0.0041533953
0.015299107
0.00030718175
0.00046780622
0.00078748438
0.0082603236
0.0062373862
0.00022178251
0.00022898674
0.00023632941
0.00024380827
0.00025142122
0.00025916878
0.00026704761
0.0002750507
0.00028317548
0.00029142271
0.00029978656
0.00030822699
0.00031655058
0.00032367965
0.00032639537
0.00032870496
0.00034034016
0.00035485918
0.00037260414
0.0003882672
0.00039142284
0.00039371004
0.00040293961
0.00041507905
0.00042923023
0.00043324076
0.00033017231
0.00035854503
0.0010390806
0.0017723398
0.0039582209
0.014095556
0.00027567013
0.0005858126
0.00076046007
0.007555058
0.0059418848
0.00020909246
0.00021580531
0.00022264307
0.00022960362
0.00023668462
0.0002438865
0.00025120671
0.00025863774
0.00026617899
0.0002738282
0.00028158367
0.0002894133
0.00029715894
0.00030390176
0.00030669946
0.00030808981
0.00031801241
0.00033275006
0.00034844682
0.00036258106
0.00036709355
0.00036903032
0.00037609102
0.00038664449
0.00039967588
0.00040496441
0.00031372146
0.00034395158
0.0010245436
0.0017141548
0.0037738307
0.012981025
0.00018110219
0.00057760097
0.00077123161
0.0069094733
0.0056272022
0.00019713356
0.00020338915
0.00020975793
0.00021623727
0.00022282493
0.00022952174
0.00023632425
0.00024322726
0.00025022966
0.00025732832
0.00026452282
0.00027178954
0.00027899386
0.00028536882
0.00028833215
0.00028907575
0.00029718657
0.00031220106
0.0003262284
0.00033866757
0.00034459643
0.00034560036
0.00035127841
0.00036079342
0.00037339741
0.00037860739
0.00029847855
0.00032881469
0.0010102177
0.0016638618
0.0036010913
0.011955946
0.0002869234
0.00055679744
0.00074575129
0.006313747
0.0053003721
0.00018585072
0.00019168052
0.00019761253
0.00020364423
0.00020977366
0.00021600146
0.00022232463
0.00022873894
0.00023524179
0.00024183297
0.00024850876
0.00025525427
0.00026195698
0.00026802882
0.0002711723
0.0002714253
0.00027784441
0.00029240911
0.00030561621
0.00031664959
0.00032404618
0.00032326023
0.00032849994
0.00033701801
0.00034882194
0.00035396209
0.00028411672
0.00031189593
0.00099514277
0.0016162755
0.0034379376
0.01100469
0.00044537263
0.0005476428
0.00070388008
0.0057930278
0.0049857515
0.00017520394
0.00018063693
0.00018616206
0.00019177774
0.00019748122
0.00020327312
0.0002091527
0.00021511353
0.00022115447
0.0002272763
0.00023347341
0.00023973728
0.00024597344
0.00025172843
0.00025502917
0.00025508914
0.00026008646
0.000273126
0.00028649112
0.00029661144
0.00030450573
0.00030277136
0.00030749136
0.00031547718
0.00032571123
0.00033039464
0.00027014848
0.00029445846
0.00097954369
0.0015670144
0.0032834578
0.010117963
0.0004400456
0.00052667336
0.00068169296
0.0053155766
0.0046736448
0.00016517175
0.00017023573
0.00017538323
0.00018061299
0.00018592175
0.00019131017
0.00019677843
0.00020232096
0.00020793651
0.00021362416
0.00021938115
0.00022520307
0.00023101522
0.00023643392
0.00023987503
0.00023997983
0.0002440519
0.00025490459
0.00026824036
0.00027818819
0.0002854702
0.00028480854
0.00028814753
0.00029577558
0.00030380328
0.00030847067
0.00025670515
0.00027637757
0.00096741377
0.0015277143
0.0031357668
0.0092981609
0.00034349788
0.00050706571
0.00066024276
0.0048690604
0.0043654492
0.00015571328
0.000160434
0.00016523072
0.00017010159
0.00017504496
0.00018005956
0.0001851462
0.00019030292
0.00019552487
0.0002008129
0.00020616405
0.00021157676
0.00021700103
0.00022212432
0.0002256467
0.00022586425
0.00022944884
0.00023823551
0.0002506261
0.00026089926
0.00026712927
0.0002687396
0.00027033953
0.00027714124
0.00028394851
0.00028822767
0.00024382066
0.0002546743
0.00095798528
0.0014867829
0.0029877692
0.0085472509
0.00028388357
0.00049578071
0.00063007266
0.0044683773
0.0041095999
0.00014680356
0.00015120549
0.00015567643
0.00016021473
0.00016481936
0.00016948859
0.00017422316
0.00017902312
0.00018388192
0.00018880121
0.00019378013
0.00019881503
0.00020387211
0.00020871785
0.00021229436
0.00021259759
0.00021572768
0.00022324162
0.00023399306
0.00024470017
0.0002503725
0.00025339891
0.00025383064
0.00025916476
0.00026623463
0.00026986587
0.00023151529
0.00022775884
0.00094285308
0.0014362277
0.0028427525
0.0078533544
0.00027610371
0.00048587773
0.00060731052
0.0040794605
0.0038876124
0.00013841131
0.00014251714
0.00014668574
0.00015091623
0.00015520683
0.00015955674
0.00016396681
0.00016843682
0.00017296092
0.00017753999
0.00018217695
0.00018686411
0.00019158022
0.00019615008
0.00019974266
0.00020018771
0.00020251702
0.0002095889
0.00021883531
0.00022950511
0.00023536923
0.0002383194
0.00023844463
0.00024247701
0.00024962561
0.00025332525
0.00021974513
0.00020005114
0.00091492924
0.0013931902
0.0027072971
0.007208401
0.00029294436
0.00048988425
0.00059271497
0.0037181285
0.0036364907
0.0001305105
0.00013434157
0.00013823013
0.00014217535
0.000146176
0.00015023069
0.00015434068
0.00015850578
0.00016272212
0.00016699029
0.00017131152
0.00017568137
0.00018008644
0.00018440026
0.00018796208
0.00018868056
0.00018993537
0.00019650811
0.00020535088
0.00021490993
0.00022147919
0.00022387866
0.00022404621
0.00022746346
0.00023349104
0.00023769862
0.00020926804
0.00017693663
0.00087941953
0.0013548452
0.0025751665
0.0066088952
0.00031031139
0.00049920325
0.00057899739
0.0034267642
0.003338975
0.00012306864
0.00012664466
0.00013027354
0.00013395433
0.00013768639
0.00014146842
0.00014530093
0.00014918431
0.00015311832
0.00015710033
0.00016113017
0.00016520955
0.00016932741
0.00017339665
0.00017691396
0.00017807291
0.00017851836
0.00018381654
0.00019281362
0.00020115864
0.00020819862
0.00021075115
0.00021097052
0.00021377491
0.00021850722
0.00022284371
0.00019976612
0.00015725779
0.00085019117
0.0013090889
0.0024471794
0.0060578643
0.00031267787
0.0004950336
0.00056009555
0.0031811308
0.0030470335
0.00011606547
0.00011940512
0.0001227934
0.00012622973
0.00012971355
0.00013324401
0.00013682094
0.00014044612
0.00014411963
0.00014783682
0.00015159961
0.00015541025
0.0001592599
0.00016309608
0.00016656301
0.0001682178
0.00016837632
0.00017222114
0.00018044371
0.00018864779
0.00019544687
0.00019857801
0.00019951859
0.00020131844
0.00020533275
0.000209085
0.00019066698
0.00013807168
0.00082822407
0.0012733221
0.0023272277
0.0055543894
0.00030623035
0.00048705918
0.00053850407
0.0029384002
0.0028086285
0.00010947359
0.00011259404
0.00011575953
0.00011896969
0.00012222405
0.00012552212
0.00012886356
0.00013225061
0.00013568246
0.0001391565
0.00014267607
0.00014624099
0.00014984717
0.00015346155
0.00015685009
0.00015893459
0.00015902049
0.00016196075
0.00016861293
0.00017681736
0.00018337595
0.00018717894
0.00018897891
0.00019000367
0.0001935266
0.00019658673
0.00018224493
0.00011911746
0.00080160924
0.0012421291
0.0022125911
0.0050793038
0.00030185913
0.00048271691
0.0005241987
0.002675106
0.0026151693
0.00010326931
0.00010618661
0.00010914583
0.00011214668
0.00011518898
0.00011827257
0.00012139698
0.00012456368
0.00012777332
0.00013102624
0.0001343213
0.00013766008
0.00014104176
0.00014445004
0.00014773448
0.00015014917
0.0001503031
0.00015244232
0.00015810283
0.00016539983
0.00017234703
0.00017651405
0.00017848869
0.00017941512
0.00018257044
0.00018549167
0.00017406915
0.0001003535
0.00076667852
0.001200459
0.0020988516
0.0046415881
0.00029986574
0.00047512639
0.00050924414
0.0024125063
0.0024338146
9.7436908e-05
0.00010016632
0.00010293492
0.00010574261
0.0001085894
0.00011147534
0.00011440028
0.00011736488
0.00012037147
0.00012342037
0.00012650843
0.00012964026
0.00013281598
0.00013602316
0.00013918039
0.0001417913
0.00014233235
0.0001434603
0.00014840078
0.00015516324
0.00016195456
0.00016647469
0.00016844292
0.00016984757
0.00017209314
0.00017517053
0.00016590963
8.1448979e-05
0.00072660933
0.0011659202
0.0019878129
0.0042320843
0.00029990393
0.00046933298
0.00049334965
0.0021768313
0.0022586494
9.1950809e-05
9.4506257e-05
9.7098574e-05
9.9727808e-05
0.00010239413
0.00010509776
0.00010783901
0.00011061796
0.00011343743
0.00011629725
0.00011919734
0.00012214051
0.00012512691
0.00012815052
0.00013116619
0.00013386497
0.00013502136
0.00013543843
0.00013920283
0.00014563399
0.00015213412
0.00015690219
0.00015949498
0.00016129192
0.00016264836
0.00016555334
0.00015874536
6.3348812e-05
0.00067981365
0.0011380723
0.001882432
0.0038564515
0.00029766845
0.00046236733
0.00048275839
0.0019531111
0.0020869511
8.6792231e-05
8.9186763e-05
9.1616161e-05
9.4080629e-05
9.6580491e-05
9.9116156e-05
0.00010168818
0.00010429684
0.00010694379
0.00010963117
0.0001123593
0.00011512768
0.00011793946
0.00012079594
0.00012366759
0.00012638637
0.00012811291
0.00012836686
0.00013097785
0.00013640606
0.00014281262
0.00014776336
0.00015102768
0.00015290569
0.0001545215
0.00015684791
0.00015270243
6.1564819e-05
0.00062583986
0.0011034531
0.0017819388
0.0035111307
0.00029345099
0.00045171222
0.00046987815
0.0017571994
0.0019319574
8.1944046e-05
8.4189859e-05
8.6468846e-05
8.8781361e-05
9.1127841e-05
9.3508875e-05
9.5925191e-05
9.8377539e-05
0.00010086666
0.00010339575
0.00010596506
0.00010857483
0.00011122891
0.00011392521
0.00011665678
0.0001193313
0.00012144553
0.0001219475
0.00012357837
0.00012801866
0.00013397746
0.00013942687
0.00014284083
0.00014473655
0.00014670953
0.00014868793
0.00014643267
7.392417e-05
0.00056558639
0.0010720654
0.0016851074
0.0031905178
0.00029032943
0.00044679809
0.00045847463
0.0016002618
0.0017918102
7.738807e-05
7.9496457e-05
8.1636594e-05
8.3808966e-05
8.6014153e-05
8.8252878e-05
9.0526048e-05
9.2834636e-05
9.5179462e-05
9.7562646e-05
9.998667e-05
0.00010245213
0.00010495969
0.00010751362
0.00011010917
0.00011270437
0.0001150356
0.00011611557
0.00011693536
0.00012041393
0.00012585964
0.00013146011
0.00013513086
0.00013744022
0.00013933985
0.0001413394
0.00013982417
8.5305388e-05
0.00049972208
0.0010446349
0.0015895298
0.0028936619
0.00028778382
0.00044634453
0.0004526033
0.001451897
0.0016421861
7.3107558e-05
7.5089041e-05
7.7101074e-05
7.914427e-05
8.1219355e-05
8.3327167e-05
8.5468734e-05
8.764523e-05
8.9857852e-05
9.2107808e-05
9.4398551e-05
9.6731186e-05
9.9106441e-05
0.00010152735
0.00010399421
0.00010649208
0.0001088945
0.00011057837
0.00011116151
0.00011356888
0.00011816671
0.00012363708
0.00012791507
0.00013048488
0.00013233751
0.00013439989
0.00013403096
9.4769506e-05
0.00043077246
0.0010064414
0.001494757
0.002611275
0.00028685234
0.00044115831
0.0004457197
0.001304801
0.001494337
6.9086963e-05
7.0951299e-05
7.2845201e-05
7.4769404e-05
7.6724739e-05
7.8712181e-05
8.0732881e-05
8.2788128e-05
8.4879378e-05
8.7007904e-05
8.9176042e-05
9.1387053e-05
9.364175e-05
9.594128e-05
9.8290315e-05
0.00010068147
0.00010306171
0.00010511193
0.00010601228
0.00010755254
0.0001111866
0.0001163263
0.00012100716
0.00012386624
0.00012573868
0.00012774958
0.0001284391
0.00010284129
0.00035509464
0.00096263412
0.0014075748
0.0023537522
0.00028736197
0.00043414913
0.00043762844
0.0011903059
0.0013905408
6.5310101e-05
6.7066304e-05
6.8851271e-05
7.0665835e-05
7.2510947e-05
7.4387704e-05
7.6297359e-05
7.8241322e-05
8.0221184e-05
8.2238562e-05
8.4295061e-05
8.6394114e-05
8.8538373e-05
9.072839e-05
9.2966713e-05
9.5255855e-05
9.7572554e-05
9.9773157e-05
0.00010123393
0.00010228084
0.00010501022
0.0001094551
0.00011418992
0.00011769278
0.00011984403
0.00012168194
0.00012278549
0.00010872675
0.00026635365
0.00093407727
0.0013260359
0.002117815
0.00028815064
0.00043367196
0.00043305303
0.0011507583
0.0013284608
6.1764723e-05
6.3421235e-05
6.5105866e-05
6.6819547e-05
6.8563339e-05
7.0338438e-05
7.2146194e-05
7.3988125e-05
7.5865925e-05
7.7781434e-05
7.9736444e-05
8.1733235e-05
8.3775677e-05
8.586591e-05
8.8004875e-05
9.0195668e-05
9.2433518e-05
9.4656166e-05
9.6553762e-05
9.7640597e-05
9.9537254e-05
0.00010311126
0.00010767294
0.00011156082
0.00011423076
0.00011621059
0.00011768436
0.00011142179
0.00016813968
0.00090153729
0.0012392302
0.0018904728
0.00028565397
0.00043810994
0.00043140546
0.0011538859
0.0011911932
5.8436219e-05
6.0000804e-05
6.1592997e-05
6.3213834e-05
6.4864462e-05
6.6546168e-05
6.8260411e-05
7.0008788e-05
7.1793089e-05
7.3615263e-05
7.547741e-05
7.7381581e-05
7.9330578e-05
8.1328573e-05
8.3377486e-05
8.547881e-05
8.763348e-05
8.9819684e-05
9.1898771e-05
9.3386327e-05
9.4753884e-05
9.7484352e-05
0.00010145224
0.00010553896
0.0001087494
0.00011109507
0.00011291861
0.00011156063
9.1769798e-05
0.00078230505
0.0011553548
0.00168406
0.00027522332
0.00043744423
0.00043271511
0.0011236695
0.00088283137
5.5312951e-05
5.6792863e-05
5.83e-05
5.9835469e-05
6.1400508e-05
6.2996499e-05
6.4624985e-05
6.6287652e-05
6.798636e-05
6.9723154e-05
7.1500269e-05
7.3320029e-05
7.518476e-05
7.7097921e-05
7.9063455e-05
8.1083543e-05
8.3159512e-05
8.5286206e-05
8.740803e-05
8.9262088e-05
9.0561185e-05
9.2534351e-05
9.5704043e-05
9.9677391e-05
0.00010325044
0.00010611268
0.00010826428
0.00010942413
8.0246296e-05
0.00052682151
0.0010815924
0.0014885593
0.00025680183
0.00042803444
0.00042590426
0.0010009876
0.00044896247
5.238246e-05
5.3784381e-05
5.5213237e-05
5.6670225e-05
5.8156655e-05
5.9673989e-05
6.1223839e-05
6.2807972e-05
6.4428342e-05
6.6087056e-05
6.7786405e-05
6.9528888e-05
7.1317123e-05
7.3153794e-05
7.5042645e-05
7.6987505e-05
7.8990772e-05
8.105226e-05
8.3153436e-05
8.5182408e-05
8.6776801e-05
8.826158e-05
9.0669341e-05
9.4089846e-05
9.7717285e-05
0.0001009976
0.00010356011
0.00010575303
9.7267971e-05
0.00024831152
0.001006621
0.0013105899
0.00021652642
0.00042639124
0.00041860602
0.00086335717
0.00017694355
4.963279e-05
5.0962884e-05
5.2319717e-05
5.3704544e-05
5.5118766e-05
5.6563907e-05
5.8041653e-05
5.9553846e-05
6.1102485e-05
6.2689754e-05
6.4318023e-05
6.5989857e-05
6.770801e-05
6.9475374e-05
7.129504e-05
7.3170753e-05
7.5106421e-05
7.7104376e-05
7.9160343e-05
8.1234706e-05
8.314321e-05
8.4636484e-05
8.6421469e-05
8.9115148e-05
9.2366881e-05
9.5659242e-05
9.8679731e-05
0.00010147066
0.00010105889
9.5769761e-05
0.00082654595
0.0010741631
0.00013485719
0.00042788415
0.00042888792
0.00072831977
7.4133838e-05
4.7053837e-05
4.8317828e-05
4.9608432e-05
5.0926979e-05
5.2274914e-05
5.3653841e-05
5.5065512e-05
5.651182e-05
5.7994825e-05
5.9516777e-05
6.1080106e-05
6.2687422e-05
6.4341543e-05
6.6045484e-05
6.7802422e-05
6.9615695e-05
7.1489242e-05
7.342708e-05
7.543056e-05
7.7488839e-05
7.953917e-05
8.1357363e-05
8.2958867e-05
8.4989466e-05
8.7600554e-05
9.0513293e-05
9.3490881e-05
9.6628999e-05
9.9016452e-05
7.7465893e-05
0.00045978824
0.0006486695
9.3132621e-05
0.00033566532
0.00041717735
0.00065233188
8.7176374e-05
4.4635487e-05
4.5838664e-05
4.7068396e-05
4.8326061e-05
4.9613171e-05
5.0931391e-05
5.2282518e-05
5.3668507e-05
5.509148e-05
5.6553725e-05
5.8057718e-05
5.9606122e-05
6.1201795e-05
6.2847813e-05
6.4547441e-05
6.6304117e-05
6.8121484e-05
7.0003681e-05
7.1954644e-05
7.3973999e-05
7.6044251e-05
7.8090287e-05
7.9938568e-05
8.1691557e-05
8.3761787e-05
8.612434e-05
8.8554634e-05
9.1216288e-05
9.4255611e-05
9.2838369e-05
0.00016060672
0.00022551707
0.00011021531
0.00015751462
0.00028189427
0.00051185616
0.00014350753
4.2367785e-05
4.3515022e-05
4.4688793e-05
4.5890541e-05
4.712184e-05
4.8384386e-05
4.9680042e-05
5.1010806e-05
5.2378843e-05
5.378649e-05
5.5236266e-05
5.6730869e-05
5.8273207e-05
5.986638e-05
6.1513687e-05
6.3218672e-05
6.4985053e-05
6.6816757e-05
6.8718087e-05
7.0692635e-05
7.2738653e-05
7.4835601e-05
7.6917321e-05
7.8858456e-05
8.076757e-05
8.274373e-05
8.463254e-05
8.639219e-05
8.8679961e-05
9.008194e-05
8.3012838e-05
7.4770153e-05
0.00010312651
9.1761646e-05
0.00013285061
0.000264931
0.00017101245
4.0242347e-05
4.1338157e-05
4.2460534e-05
4.3610974e-05
4.4791087e-05
4.6002618e-05
4.7247481e-05
4.8527708e-05
4.9845515e-05
5.1203271e-05
5.2603522e-05
5.4049017e-05
5.5542684e-05
5.708766e-05
5.8687275e-05
6.0345101e-05
6.2064929e-05
6.3850774e-05
6.570682e-05
6.7637417e-05
6.9646033e-05
7.1730405e-05
7.387195e-05
7.6023122e-05
7.8103259e-05
8.0094145e-05
8.1769994e-05
8.2971653e-05
8.3837054e-05
8.4483628e-05
8.0654078e-05
7.3103064e-05
7.9697056e-05
9.321273e-05
9.5236044e-05
0.00012637239
0.00014749608
3.8249829e-05
3.9298355e-05
4.0373515e-05
4.1476843e-05
4.2609996e-05
4.3774765e-05
4.4973091e-05
4.620705e-05
4.7478891e-05
4.8791018e-05
5.0146015e-05
5.1546655e-05
5.2995886e-05
5.4496871e-05
5.6052964e-05
5.7667762e-05
5.9345065e-05
6.1088961e-05
6.2903746e-05
6.4793835e-05
6.6763791e-05
6.8817034e-05
7.0952077e-05
7.3155285e-05
7.5393765e-05
7.758802e-05
7.9485372e-05
8.0730789e-05
8.1048711e-05
8.055209e-05
7.6975798e-05
6.6202056e-05
7.4226189e-05
8.5682027e-05
9.3241356e-05
0.00010308552
0.00010992561
3.6382266e-05
3.7387329e-05
3.8419116e-05
3.9479202e-05
4.0569278e-05
4.1691174e-05
4.2846869e-05
4.4038474e-05
4.5268263e-05
4.6538666e-05
4.7852294e-05
4.9211944e-05
5.0620585e-05
5.2081406e-05
5.3597783e-05
5.5173312e-05
5.681182e-05
5.8517409e-05
6.0294392e-05
6.2147317e-05
6.4080996e-05
6.6100139e-05
6.8208594e-05
7.0406247e-05
7.2682821e-05
7.5002129e-05
7.7238861e-05
7.9027236e-05
7.9925234e-05
7.9645997e-05
7.7653693e-05
7.021982e-05
6.7856327e-05
9.2596416e-05
0.00010759837
0.00011356837
0.00011267352
3.4632573e-05
3.5597704e-05
3.6589672e-05
3.7610091e-05
3.8660682e-05
3.9743301e-05
4.0859962e-05
4.2012807e-05
4.3204127e-05
4.443638e-05
4.571221e-05
4.7034419e-05
4.8405999e-05
4.9830159e-05
5.1310274e-05
5.2849966e-05
5.445307e-05
5.6123691e-05
5.7866139e-05
5.9684999e-05
6.1585173e-05
6.3571685e-05
6.56497e-05
6.7823754e-05
7.009531e-05
7.2456901e-05
7.4873039e-05
7.7227758e-05
7.9241861e-05
8.0563812e-05
8.1188284e-05
7.9390105e-05
7.0209582e-05
7.7812768e-05
9.7891597e-05
0.0001145906
0.00012363313
3.2993189e-05
3.3921631e-05
3.4877042e-05
3.5861062e-05
3.6875438e-05
3.7922061e-05
3.9002971e-05
4.0120325e-05
4.1276444e-05
4.2473807e-05
4.371506e-05
4.5003037e-05
4.6340752e-05