/*--------------------------------*- C++ -*----------------------------------*\
| =========                 |                                                 |
| \\      /  F ield         | OpenFOAM: The Open Source CFD Toolbox           |
|  \\    /   O peration     | Version:  2506                                  |
|   \\  /    A nd           | Website:  www.openfoam.com                      |
|    \\/     M anipulation  |                                                 |
\*---------------------------------------------------------------------------*/
FoamFile
{
    version     2.0;
    format      ascii;
    arch        "LSB;label=32;scalar=64";
    class       volVectorField;
    location    "0.00012";
    object      wallShearStress;
}
// * * * * * * * * * * * * * * * * * * * * * * * * * * * * * * * * * * * * * //

dimensions      [1 -1 -2 0 0 0 0];

internalField   uniform (0 0 0);

boundaryField
{
    Side
    {
        type            empty;
    }
    Inlet
    {
        type            calculated;
        value           uniform (0 0 0);
    }
    Airfoil
    {
        type            calculated;
        value           nonuniform List<vector> 
65
(
(-1.7747731 14.629289 2.023475e-41)
(-1.8051422 14.536488 5.2603372e-35)
(-1.8441318 14.655883 2.246644e-18)
(-1.8575653 14.63084 -2.1698544e-28)
(-1.8589941 14.63602 -1.4724167e-28)
(-1.8512322 14.579997 -5.8477267e-25)
(-1.8524182 14.523528 2.300215e-18)
(-1.8569492 14.512264 2.3135451e-18)
(-1.8602084 14.441201 -5.9523691e-25)
(-1.868868 14.412607 -2.4402706e-18)
(-1.8871012 14.501396 -6.0247532e-25)
(-1.8791146 14.420162 6.063912e-25)
(-1.8680649 14.350116 -1.1939482e-18)
(-1.8546837 14.292556 1.2023047e-18)
(-1.8674605 14.2075 1.23674e-24)
(-1.8930548 14.320878 5.0541845e-20)
(-1.8388518 14.117799 9.5720505e-35)
(-1.8545827 14.126424 1.2894127e-18)
(-1.8728384 14.074093 -1.2478898e-18)
(-1.8800448 14.083723 -1.3093051e-18)
(-1.880074 14.103718 1.3202656e-18)
(-1.8778077 14.033648 -1.2798025e-18)
(-1.8620983 14.075481 1.3433153e-18)
(-1.8745266 13.880051 1.3537201e-18)
(-1.9180374 13.940977 5.2900495e-20)
(-1.8878586 13.894011 -1.3548325e-24)
(-1.8803489 13.778155 1.3683498e-24)
(-1.866334 13.647374 1.1754944e-38)
(-1.861836 13.634442 -1.424087e-18)
(-1.8512409 13.607193 -3.6046824e-29)
(-1.838015 13.58796 -2.8514347e-18)
(-1.8280484 13.721544 -1.4392247e-24)
(-1.8790017 13.744202 -1.4509183e-24)
(-1.9504123 13.666219 -1.4988977e-18)
(-1.9261779 13.481791 2.1252938e-35)
(-1.8832697 13.474876 1.4807203e-18)
(-1.8341225 13.18007 -2.3509887e-38)
(-1.8038833 13.138853 0)
(-1.8267699 13.450469 1.5391175e-18)
(-1.929482 13.485909 -1.1754944e-38)
(-1.8400103 12.962998 -1.6136105e-24)
(-1.906934 13.453992 1.6000718e-18)
(-1.938473 13.159249 -1.693309e-18)
(-1.8770871 13.02483 -6.2087443e-20)
(-1.8241662 12.9664 1.7135707e-24)
(-1.8003207 13.005352 7.4794407e-35)
(-1.8284501 13.030269 -1.7701993e-24)
(-1.866629 12.906545 3.3006013e-20)
(-1.8931192 12.97125 -9.0471746e-19)
(-1.8913247 12.900568 1.8855007e-18)
(-1.8112433 12.741001 9.8292985e-19)
(-1.8123855 12.786279 3.3608118e-35)
(-1.8321314 12.58397 1.0258756e-18)
(-1.8161631 12.605403 1.0511607e-18)
(-1.8440523 12.835034 -1.0799063e-18)
(-1.8700702 12.888458 1.1107358e-18)
(-1.8563277 12.884756 4.1070998e-20)
(-1.8574972 12.722232 4.3493291e-36)
(-1.926543 12.705379 -1.2281972e-18)
(-2.011246 12.778602 -5.0059581e-24)
(1.3930323 13.110978 5.2355623e-24)
(137.56251 28.699314 7.2966486e-19)
(614.45298 88.869353 -2.3509887e-38)
(1064.0091 129.41161 -9.4595398e-19)
(1742.1726 130.82865 -2.8515919e-19)
)
;
    }
    Outlet
    {
        type            calculated;
        value           nonuniform List<vector> 0();
    }
    procBoundary5to4
    {
        type            processor;
        value           uniform (0 0 0);
    }
    procBoundary5to6
    {
        type            processor;
        value           uniform (0 0 0);
    }
    procBoundary5to12
    {
        type            processor;
        value           uniform (0 0 0);
    }
    procBoundary5to13
    {
        type            processor;
        value           uniform (0 0 0);
    }
}


// ************************************************************************* //
