/*--------------------------------*- C++ -*----------------------------------*\
| =========                 |                                                 |
| \\      /  F ield         | OpenFOAM: The Open Source CFD Toolbox           |
|  \\    /   O peration     | Version:  2506                                  |
|   \\  /    A nd           | Website:  www.openfoam.com                      |
|    \\/     M anipulation  |                                                 |
\*---------------------------------------------------------------------------*/
FoamFile
{
    version     2.0;
    format      ascii;
    arch        "LSB;label=32;scalar=64";
    class       volScalarField;
    location    "0.00043";
    object      Ma;
}
// * * * * * * * * * * * * * * * * * * * * * * * * * * * * * * * * * * * * * //

dimensions      [0 0 0 0 0 0 0];

internalField   nonuniform List<scalar> 
3455
(
0.29959232
0.29959232
0.29959231
0.29959231
0.29959231
0.29959231
0.2995923
0.2995923
0.29959231
0.29959232
0.29959232
0.29959232
0.29959231
0.29959231
0.29959231
0.29959232
0.29959231
0.29959231
0.29959231
0.2995923
0.2995923
0.29959231
0.29959232
0.29959232
0.29959232
0.29959231
0.29959231
0.29959231
0.29959232
0.29959232
0.29959231
0.29959231
0.29959231
0.29959231
0.2995923
0.2995923
0.29959231
0.29959232
0.29959232
0.29959232
0.29959231
0.29959231
0.29959231
0.29959231
0.29959232
0.29959232
0.29959231
0.29959231
0.29959231
0.29959231
0.29959231
0.2995923
0.2995923
0.29959231
0.29959232
0.29959232
0.29959232
0.29959231
0.29959231
0.29959231
0.29959231
0.29959232
0.29959232
0.29959232
0.29959231
0.29959231
0.29959231
0.29959231
0.29959231
0.29959231
0.2995923
0.2995923
0.29959231
0.29959232
0.29959232
0.29959232
0.29959231
0.29959231
0.29959231
0.29959231
0.29959232
0.29959232
0.29959232
0.29959232
0.29959231
0.29959231
0.29959231
0.29959231
0.29959231
0.29959231
0.29959231
0.2995923
0.2995923
0.29959231
0.29959232
0.29959232
0.29959232
0.29959231
0.29959231
0.29959231
0.29959231
0.29959232
0.29959232
0.29959232
0.29959232
0.29959232
0.29959172
0.28511715
0.78316809
2.5442862
3.2378885
0.29959231
0.29959231
0.29959231
0.29959231
0.29959231
0.29959231
0.29959231
0.29959231
0.2995923
0.2995923
0.29959231
0.29959232
0.29959232
0.29959232
0.29959232
0.29959231
0.29959231
0.29959231
0.29959232
0.29959232
0.29959232
0.29959232
0.29959232
0.29959213
0.29672813
0.52852336
2.0721902
2.649425
0.29959231
0.29959231
0.29959231
0.29959231
0.29959231
0.29959231
0.29959231
0.29959231
0.29959231
0.2995923
0.2995923
0.29959231
0.29959232
0.29959232
0.29959232
0.29959232
0.29959231
0.29959231
0.29959231
0.29959232
0.29959232
0.29959232
0.29959232
0.29959232
0.29959218
0.2982579
0.45624306
1.8724628
2.2941126
2.907793
4.1871792
4.9028176
5.7730569
0.29959231
0.29959231
0.29959231
0.29959231
0.29959231
0.29959231
0.29959231
0.29959231
0.29959231
0.29959231
0.2995923
0.2995923
0.29959231
0.29959232
0.29959232
0.29959232
0.29959232
0.29959231
0.29959231
0.29959231
0.29959232
0.29959232
0.29959232
0.29959232
0.29959232
0.29959218
0.29838361
0.45152294
1.7872141
2.0994132
2.500181
3.4645815
4.4854108
5.0809581
5.8199507
5.6651768
0.29959231
0.29959231
0.29959231
0.29959231
0.29959231
0.29959231
0.29959231
0.29959231
0.29959231
0.29959231
0.29959231
0.2995923
0.2995923
0.2995923
0.29959232
0.29959232
0.29959232
0.29959232
0.29959231
0.29959231
0.29959231
0.29959232
0.29959232
0.29959232
0.29959232
0.29959232
0.29959217
0.29789149
0.48179237
1.751434
1.9596779
2.1747035
2.9107672
3.8500378
4.921769
5.2857562
5.7119185
5.5057999
0.29959231
0.29959231
0.29959231
0.29959231
0.29959231
0.29959231
0.29959231
0.29959231
0.29959231
0.29959231
0.29959231
0.2995923
0.2995923
0.2995923
0.29959232
0.29959232
0.29959232
0.29959232
0.29959231
0.29959231
0.29959231
0.29959232
0.29959232
0.29959232
0.29959232
0.29959232
0.29959213
0.29616348
0.55455421
1.7516701
1.8647917
1.9282128
2.3563693
3.2090389
4.4276869
5.2315787
5.3038513
5.6024067
5.1543835
4.3207538
0.29959231
0.29959231
0.29959231
0.29959231
0.29959231
0.29959231
0.29959231
0.29959231
0.29959231
0.29959231
0.29959231
0.2995923
0.2995923
0.2995923
0.29959231
0.29959232
0.29959232
0.29959232
0.29959231
0.29959231
0.29959231
0.29959231
0.29959232
0.29959232
0.29959232
0.29959232
0.299592
0.29121753
0.67880671
1.7606775
1.8133148
1.8120384
2.0204802
2.6229889
3.6328632
4.9188139
5.1335174
5.5953964
5.3199865
4.4709654
4.0700055
3.1746433
2.5675673
2.3819682
0.29959231
0.29959231
0.29959231
0.29959231
0.29959231
0.29959231
0.29959231
0.29959231
0.29959231
0.29959231
0.29959231
0.2995923
0.2995923
0.2995923
0.29959231
0.29959232
0.29959232
0.29959232
0.29959231
0.29959231
0.29959231
0.29959231
0.29959232
0.29959232
0.29959232
0.29959232
0.29959167
0.28162149
0.81306357
1.7550423
1.7832145
1.761526
1.8591863
2.2971133
3.0665911
4.1823731
5.0109376
5.2455645
5.3670642
4.7534917
3.859911
3.5530544
2.4731534
2.3004082
0.29959231
0.29959231
0.29959231
0.29959231
0.29959231
0.29959231
0.29959231
0.29959231
0.29959231
0.29959231
0.29959231
0.2995923
0.2995923
0.2995923
0.29959231
0.29959232
0.29959232
0.29959232
0.29959231
0.29959231
0.29959231
0.29959231
0.29959232
0.29959232
0.29959232
0.29959232
0.29959097
0.26628545
0.9317902
1.7288903
1.753258
1.729198
1.7566468
2.0070545
2.5343636
3.4797676
4.821163
4.8030895
5.3417146
4.9461445
3.8878269
3.4346734
2.9729823
2.216112
2.0856856
1.7798128
0.29959231
0.29959231
0.29959231
0.29959231
0.29959231
0.29959231
0.29959231
0.29959231
0.29959231
0.29959231
0.29959231
0.2995923
0.2995923
0.2995923
0.29959231
0.29959232
0.29959232
0.29959232
0.29959231
0.29959231
0.29959231
0.29959231
0.29959232
0.29959232
0.29959232
0.29959231
0.29958815
0.23313928
1.10642
1.683951
1.711554
1.6959575
1.6695434
1.7361885
2.0181391
2.7037009
4.2821299
4.8652212
4.8773498
5.0543929
4.0993633
3.1758793
3.3888833
2.2341579
1.997574
1.8561027
1.423756
0.29959231
0.29959231
0.29959231
0.29959231
0.29959231
0.29959231
0.29959231
0.29959231
0.29959231
0.29959231
0.29959231
0.2995923
0.2995923
0.2995923
0.29959231
0.29959232
0.29959232
0.29959232
0.29959231
0.29959231
0.29959231
0.29959231
0.29959232
0.29959232
0.29959232
0.29959229
0.2995757
0.17416936
1.2442571
1.6242258
1.666956
1.6771649
1.6075968
1.5923708
1.7088485
2.1670843
3.5453688
4.7762818
4.6633309
5.0860912
4.3934891
3.1635639
2.8700118
2.8774673
1.9202517
1.903998
1.5272821
1.1743892
1.1337527
1.3579947
2.0289865
3.2256514
4.6938895
5.1712749
4.7488352
0.29959231
0.29959231
0.29959231
0.29959231
0.29959231
0.29959231
0.29959231
0.29959231
0.29959231
0.29959231
0.29959231
0.2995923
0.2995923
0.2995923
0.29959231
0.29959232
0.29959232
0.29959232
0.29959231
0.29959231
0.29959231
0.29959231
0.29959232
0.29959232
0.29959232
0.29959225
0.29953838
0.15699696
1.2984631
1.5550688
1.6225821
1.6548783
1.5730301
1.4856519
1.504374
1.77039
2.7449623
4.4146988
4.5937038
4.8871122
4.5999003
3.3254657
2.7625132
2.9839015
2.2620758
1.8586825
1.6608533
1.2298532
1.2029123
1.5142284
2.5193067
3.9492509
5.0565268
5.0207354
4.4521448
0.29959231
0.29959231
0.29959231
0.29959231
0.29959231
0.29959231
0.29959231
0.29959231
0.29959231
0.29959231
0.29959231
0.2995923
0.2995923
0.2995923
0.29959231
0.29959232
0.29959232
0.29959232
0.29959231
0.29959231
0.29959231
0.29959231
0.29959232
0.29959232
0.29959232
0.29959216
0.29940876
0.2933989
1.301306
1.4733796
1.5768178
1.6286365
1.5719299
1.413365
1.3618272
1.4533238
2.0980169
3.6906813
4.5908103
4.5324215
4.7379697
3.5345823
2.5900429
2.4741514
2.8853074
1.8947139
1.782771
1.3439597
1.3372012
1.8976379
3.0992344
4.6066089
5.2652588
4.8218766
4.4317726
0.29959231
0.29959231
0.29959231
0.29959231
0.29959231
0.29959231
0.29959231
0.29959231
0.29959231
0.29959231
0.29959231
0.2995923
0.2995923
0.2995923
0.29959231
0.29959232
0.29959232
0.29959232
0.29959231
0.29959231
0.29959231
0.29959231
0.29959232
0.29959232
0.29959232
0.29959194
0.29440561
0.4817934
1.270584
1.36548
1.5179449
1.5998058
1.5728744
1.4052139
1.2973414
1.312738
1.6835388
2.9169124
4.4558023
4.6193981
4.4618559
3.8900948
2.6599965
2.3113165
2.4896833
2.5165477
1.7691456
1.447351
1.4497378
2.2345841
3.7571091
5.0681973
5.3134351
4.7413403
4.6095381
0.29959231
0.29959231
0.29959231
0.29959231
0.29959231
0.29959231
0.29959231
0.29959231
0.29959231
0.29959231
0.2995923
0.2995923
0.2995923
0.29959231
0.29959232
0.29959232
0.29959232
0.29959231
0.29959231
0.29959231
0.29959231
0.29959232
0.29959232
0.29959232
0.29959073
0.27447928
0.67731644
1.2328383
1.2893414
1.4485696
1.5692246
1.5647899
1.4309723
1.2654755
1.2468961
1.444154
2.3371701
4.0120372
4.6049718
4.4031397
4.1620332
2.7261618
2.2535763
2.3853086
2.7911855
2.2008012
1.6842223
1.712272
2.8463397
4.5087367
5.3330643
5.0409983
4.4718902
5.0862473
0.29959231
0.29959231
0.29959231
0.29959231
0.29959231
0.29959231
0.29959231
0.29959231
0.29959231
0.29959231
0.2995923
0.2995923
0.2995923
0.29959231
0.29959232
0.29959232
0.29959232
0.29959231
0.29959231
0.29959231
0.29959231
0.29959232
0.29959232
0.29959231
0.29958435
0.23540147
0.84286173
1.1972905
1.2304289
1.3749193
1.5331443
1.5480996
1.4584421
1.2605116
1.2130685
1.3054159
1.8813957
3.3006915
4.4849257
4.4370205
4.1353366
2.9272611
2.2356643
2.1048104
2.748656
2.7020243
1.9555051
1.93077
3.4344227
5.2171655
5.4594079
4.7816669
4.6374021
5.3743093
0.29959231
0.29959231
0.29959231
0.29959231
0.29959231
0.29959231
0.29959231
0.29959231
0.29959231
0.29959231
0.2995923
0.2995923
0.2995923
0.29959231
0.29959232
0.29959232
0.29959232
0.29959231
0.29959231
0.29959231
0.29959231
0.29959232
0.29959232
0.29959229
0.29956902
0.16414647
0.95522259
1.1598919
1.17551
1.3005799
1.4901203
1.5265678
1.473717
1.2789227
1.1977959
1.2295821
1.5958193
2.6544686
4.1830853
4.508988
4.1187404
3.2076041
2.2829432
2.0662132
2.6412535
3.0101948
2.7082233
2.4328661
4.2574368
5.6220507
5.5757613
4.9172182
5.2227819
5.7487398
0.29959231
0.29959231
0.29959231
0.29959231
0.29959231
0.29959231
0.29959231
0.29959231
0.29959231
0.29959231
0.2995923
0.2995923
0.2995923
0.29959231
0.29959232
0.29959232
0.29959232
0.29959231
0.29959231
0.29959231
0.29959231
0.29959231
0.29959232
0.29959225
0.29953635
0.091206438
1.0256629
1.1295534
1.1266106
1.2367243
1.4405095
1.5043733
1.4768841
1.3046337
1.1780872
1.1671237
1.3536563
2.1316487
3.6654547
4.5457305
4.2992391
3.4001369
2.3093572
2.0583012
2.3658116
3.2463686
3.9924864
3.3507533
4.7030094
5.6763742
5.3382832
5.0218961
5.6279331
6.1188481
0.29959231
0.29959231
0.29959231
0.29959231
0.29959231
0.29959231
0.29959231
0.29959231
0.29959231
0.29959231
0.2995923
0.2995923
0.2995923
0.29959231
0.29959232
0.29959232
0.29959232
0.29959231
0.29959231
0.29959231
0.29959231
0.29959231
0.29959232
0.29959218
0.29946969
0.1628436
1.065136
1.1073218
1.0889141
1.1843179
1.3790553
1.4771613
1.469157
1.3278568
1.1609134
1.1340476
1.2440583
1.826628
3.1082154
4.4027731
4.4369114
3.7171347
2.4603895
2.1700711
2.2347162
3.3676259
4.4197841
4.4224905
5.1131945
5.5011626
5.0230686
4.9482186
5.9213873
6.4824911
6.7375924
0.29959231
0.29959231
0.29959231
0.29959231
0.29959231
0.29959231
0.29959231
0.29959231
0.29959231
0.29959231
0.2995923
0.2995923
0.2995923
0.29959231
0.29959232
0.29959232
0.29959232
0.29959231
0.29959231
0.29959231
0.29959231
0.29959232
0.29959232
0.29959204
0.29812011
0.36016542
1.0813892
1.081318
1.0511591
1.1279406
1.3088809
1.4495992
1.4570657
1.354224
1.1529396
1.1041316
1.1425399
1.5165951
2.5612384
4.0385718
4.5019355
4.0087788
2.6738808
2.3372251
2.3228068
3.4513334
5.5570806
5.2109417
5.3910535
5.0538721
4.7619664
5.5308699
6.5157096
7.1260325
7.4118151
0.29959231
0.29959231
0.29959231
0.29959231
0.29959231
0.29959231
0.29959231
0.29959231
0.29959231
0.29959231
0.2995923
0.2995923
0.2995923
0.29959231
0.29959232
0.29959232
0.29959232
0.29959231
0.29959231
0.29959231
0.29959231
0.29959231
0.29959231
0.29959035
0.27385209
0.63525712
1.0926657
1.0490559
1.0232933
1.0869377
1.2488775
1.4206314
1.442662
1.3724936
1.1648489
1.0909718
1.1035143
1.3895591
2.2420709
3.5474325
4.5466502
4.4036133
2.9779402
2.6257953
2.659661
3.775545
6.334518
4.8152299
5.8787544
5.2855132
5.3836595
7.7374682
8.2309074
8.5072173
8.6114834
8.1668625
0.29959231
0.29959231
0.29959231
0.29959231
0.29959231
0.29959231
0.29959231
0.29959231
0.29959231
0.2995923
0.2995923
0.2995923
0.29959231
0.29959232
0.29959232
0.29959232
0.29959231
0.29959231
0.29959231
0.29959231
0.29959231
0.29959229
0.29957334
0.17710514
0.89393579
1.0941749
1.0131603
0.99571553
1.0423011
1.1853011
1.383851
1.4231526
1.3788552
1.1812229
1.076589
1.0653646
1.2220484
1.8303991
3.041102
4.3814294
4.6286593
3.5344578
2.9004975
3.0502892
4.1340143
6.3584711
5.0594434
5.0624657
5.7343121
5.9151927
7.4786233
8.5481805
8.0519245
7.4850864
6.8426815
0.29959231
0.29959231
0.29959231
0.29959231
0.29959231
0.29959231
0.29959231
0.29959231
0.29959231
0.2995923
0.2995923
0.2995923
0.29959231
0.29959232
0.29959232
0.29959232
0.29959231
0.29959231
0.29959231
0.29959231
0.29959232
0.29959223
0.29950709
0.069538394
1.0392417
1.0803228
0.98618016
0.97255889
1.0028071
1.1316059
1.3405947
1.4022349
1.3783548
1.2032555
1.0631207
1.0413314
1.1287799
1.6595633
2.726393
3.9622519
4.7282134
4.382515
2.8954498
3.5882252
4.616642
6.1419268
6.2347415
3.6329943
4.7196904
5.6659248
6.4241249
6.29134
5.4734161
5.0576737
4.8610105
5.2755238
0.29959231
0.29959231
0.29959231
0.29959231
0.29959231
0.29959231
0.29959231
0.29959231
0.29959231
0.2995923
0.2995923
0.2995923
0.29959231
0.29959232
0.29959232
0.29959232
0.29959231
0.29959231
0.29959231
0.29959231
0.29959231
0.29959206
0.29802666
0.35928606
1.0956484
1.0581033
0.96614292
0.95337106
0.97156393
1.0906784
1.2939748
1.3841398
1.3749452
1.2254822
1.0578629
1.023665
1.0699985
1.4623314
2.2940062
3.5003596
4.6918097
4.845435
3.2069034
4.1788473
4.9702806
5.8656004
6.5079317
5.5282419
3.8020896
4.0663497
4.7909321
5.1023563
5.4062926
5.7384808
5.7908978
4.3718735
0.29959231
0.29959231
0.29959231
0.29959231
0.29959231
0.29959231
0.29959231
0.29959231
0.2995923
0.29959229
0.2995923
0.29959231
0.29959232
0.29959232
0.29959232
0.29959231
0.29959231
0.29959231
0.29959231
0.29959231
0.29958838
0.26093331
0.71152558
1.1281113
1.0190091
0.94727667
0.93020802
0.93423239
1.0453971
1.2416236
1.362714
1.3647652
1.2429466
1.0519536
1.004439
1.0257603
1.3117321
2.0927268
3.2150604
4.406904
5.0609824
4.380522
4.0725658
5.2650734
5.7738773
6.5185024
7.5169549
7.6384738
6.8114648
6.6363845
6.8636885
6.7122845
5.906602
2.8349769
1.0968108
0.29959231
0.29959231
0.29959231
0.29959231
0.29959231
0.29959231
0.29959231
0.29959231
0.2995923
0.29959229
0.2995923
0.29959231
0.29959232
0.29959232
0.29959232
0.29959231
0.29959231
0.29959231
0.29959231
0.29959228
0.29955553
0.091694361
1.0108878
1.1395655
0.98390379
0.9368636
0.91228542
0.91052964
1.0151694
1.1958582
1.3418415
1.3549289
1.2607844
1.0593671
0.99883413
0.99419865
1.1881266
1.8688551
2.8278352
3.9950361
5.1408657
5.1097612
3.608925
5.6202015
6.2017641
6.822906
8.6610034
8.9250848
8.3479884
7.8690486
7.0793364
4.9895599
1.8330252
1.0467561
0.97300264
0.29959231
0.29959231
0.29959231
0.29959231
0.29959231
0.29959231
0.29959231
0.29959231
0.2995923
0.29959229
0.2995923
0.29959231
0.29959232
0.29959232
0.29959232
0.29959231
0.29959231
0.29959231
0.29959231
0.29959217
0.29944544
0.25365221
1.1524634
1.1324084
0.96823927
0.93093086
0.88934261
0.88342418
0.97197529
1.1496998
1.3191846
1.3428072
1.2711496
1.0614143
0.98027768
0.96785105
1.1256611
1.6939288
2.5863049
3.6920808
4.8674665
5.3678822
4.9018103
4.1247
6.865925
7.5765095
8.6458442
9.0530644
8.5659009
7.3664718
3.6369811
1.4991432
1.2220318
0.99924444
0.91646811
0.29959231
0.29959231
0.29959231
0.29959231
0.29959231
0.29959231
0.29959231
0.2995923
0.29959229
0.2995923
0.29959231
0.29959232
0.29959232
0.29959232
0.29959231
0.29959231
0.29959231
0.29959231
0.29958955
0.26712562
0.70486247
1.2201555
1.0992383
0.96004056
0.9241923
0.86313761
0.85778522
0.93991362
1.1117896
1.292442
1.3273814
1.2772676
1.0779615
0.98257296
0.96833862
1.0612236
1.5075284
2.4118234
3.4374329
4.6475685
5.4023004
5.1650141
5.3133572
4.4433134
7.3418077
8.4137553
8.885411
6.9946301
2.9720222
1.5033723
1.3215385
1.1556882
0.9509189
0.29959231
0.29959231
0.29959231
0.29959231
0.29959231
0.29959231
0.29959231
0.2995923
0.29959229
0.2995923
0.29959231
0.29959232
0.29959232
0.29959232
0.29959231
0.29959231
0.29959231
0.29959228
0.2995564
0.085568956
1.0862661
1.2543127
1.0554974
0.95608737
0.91120052
0.83928144
0.83480109
0.90648919
1.0677804
1.2674415
1.3153177
1.2802466
1.0911845
0.96787046
0.94514509
1.0004309
1.4046087
2.1886
3.1284967
4.2635663
5.3046521
5.3220202
5.408207
5.4290979
3.9483875
3.6186829
4.0204662
2.27995
1.6602801
1.504667
1.2977209
1.1422321
0.93078129
0.29959231
0.29959231
0.29959231
0.29959231
0.29959231
0.29959231
0.29959231
0.2995923
0.29959229
0.2995923
0.29959231
0.29959232
0.29959232
0.29959232
0.29959231
0.29959231
0.29959231
0.29959218
0.29932843
0.30389808
1.2616915
1.2520954
1.0264603
0.95166504
0.88953312
0.83275909
0.82388905
0.8764729
1.028266
1.240059
1.2993361
1.27944
1.1054802
0.96943644
0.9488682
0.98852639
1.3057672
2.0324868
3.0098597
4.0147878
5.1807148
5.3305165
5.3308577
5.5851201
4.9692425
3.8572728
3.4158299
2.5368236
1.635445
1.4854224
1.287923
1.0812122
0.29959231
0.29959231
0.29959231
0.29959231
0.29959231
0.29959231
0.29959231
0.2995923
0.29959229
0.2995923
0.29959231
0.29959232
0.29959232
0.29959232
0.29959231
0.29959231
0.29959231
0.29958786
0.2551596
0.79954923
1.3345122
1.2148099
1.022029
0.95865662
0.86946074
0.81883824
0.81067488
0.85028091
1.0057598
1.2148039
1.2853607
1.2794078
1.1164522
0.95769109
0.92806153
0.93616688
1.1945907
1.8744523
2.7608556
3.7726128
5.0664761
5.3923947
5.202088
5.6110567
5.1437123
4.0318888
3.5226773
2.8810284
1.7159886
1.4759415
1.2984245
1.0333547
0.29959231
0.29959231
0.29959231
0.29959231
0.29959231
0.29959231
0.29959231
0.2995923
0.29959229
0.2995923
0.29959231
0.29959232
0.29959232
0.29959232
0.29959231
0.29959231
0.29959228
0.29955217
0.063384923
1.1864299
1.3710106
1.1717536
1.0311643
0.97015093
0.85191143
0.80386601
0.79299956
0.82920397
0.9846016
1.189763
1.2677805
1.2753184
1.1267169
0.95614694
0.92723697
0.93742914
1.1603633
1.78169
2.6359254
3.5795144
4.7211178
5.3418278
5.1931153
5.6035775
5.3210904
4.2110207
3.6075893
3.1281657
1.801534
1.4904091
1.3176566
0.29959231
0.29959231
0.29959231
0.29959231
0.29959231
0.29959231
0.2995923
0.29959229
0.2995923
0.29959231
0.29959232
0.29959232
0.29959232
0.29959231
0.29959231
0.29959221
0.29945611
0.28924853
1.3649891
1.3880223
1.152361
1.0530398
0.97778551
0.84446612
0.80182054
0.78500493
0.81730093
0.97482082
1.1666309
1.2506426
1.2719016
1.1371962
0.95014597
0.91460002
0.90497326
1.072813
1.6372595
2.4526903
3.4037986
4.5946582
5.4048559
5.2114017
5.5172661
5.4222314
4.4141681
3.6496859
3.3934897
1.9412003
1.5584704
1.3073668
0.29959231
0.29959231
0.29959231
0.29959231
0.29959231
0.29959231
0.2995923
0.29959229
0.2995923
0.29959231
0.29959232
0.29959232
0.29959232
0.29959231
0.29959231
0.29959187
0.28808291
0.58136442
1.4284645
1.3797
1.1467808
1.0705305
0.9839744
0.84538444
0.80114408
0.78137535
0.81497878
0.97238113
1.1433362
1.2384943
1.2666437
1.144171
0.9466521
0.90864742
0.90347728
1.0583932
1.5875744
2.3731847
3.225814
4.3542307
5.3486292
5.4160947
5.4038163
5.4842239
4.5377322
3.7211772
3.4638327
2.0721359
1.6255472
1.2974082
0.29959231
0.29959231
0.29959231
0.29959231
0.29959231
0.29959231
0.2995923
0.29959229
0.2995923
0.29959231
0.29959232
0.29959232
0.29959232
0.29959231
0.29959231
0.29958996
0.26612681
0.78032086
1.460247
1.3644032
1.141858
1.0798836
0.97988357
0.83637408
0.79062533
0.77675096
0.8156523
0.96334294
1.123266
1.2294395
1.2620565
1.1525519
0.94335223
0.90069003
0.88943312
1.0097074
1.489096
2.2286722
3.110324
4.2274568
5.2271209
5.3086403
5.3682494
5.4869838
4.6940692
3.7491876
3.6763053
2.193556
1.7015438
1.2945013
0.29959231
0.29959231
0.29959231
0.29959231
0.29959231
0.29959231
0.2995923
0.29959229
0.2995923
0.29959231
0.29959232
0.29959232
0.29959232
0.29959231
0.29959231
0.29958728
0.24582943
0.90224943
1.4756116
1.3533454
1.1443525
1.0850529
0.96636846
0.82068939
0.77862444
0.77005055
0.80947721
0.95725436
1.1095968
1.2139724
1.2570302
1.1585015
0.94228618
0.89557715
0.88612289
0.99986024
1.4352246
2.1288956
2.993047
3.9947088
5.2326033
5.389658
5.2209325
5.4807848
4.7544748
3.7926939
3.6574482
2.3305018
1.7937139
0.29959231
0.29959231
0.29959231
0.29959231
0.29959231
0.29959231
0.2995923
0.29959229
0.2995923
0.29959231
0.29959232
0.29959232
0.29959232
0.29959231
0.29959231
0.29958591
0.23666293
0.94905131
1.4776257
1.3414529
1.1357186
1.0737013
0.94377015
0.78960091
0.74451103
0.74310516
0.80501112
0.96131209
1.0896817
1.2018705
1.2531908
1.1640089
0.94643281
0.89685945
0.8875017
0.9810895
1.3767632
2.0707606
2.8892085
3.9277796
5.0379691
5.3920107
5.220288
5.4694975
4.8628923
3.847102
3.7899548
2.4079477
1.8529893
0.29959231
0.29959231
0.29959231
0.29959231
0.29959231
0.29959231
0.2995923
0.29959229
0.2995923
0.29959231
0.29959232
0.29959232
0.29959232
0.29959231
0.29959231
0.2995857
0.23525121
0.95691266
1.4778524
1.3353476
1.1184224
1.0505221
0.90906206
0.76627564
0.73106827
0.72995967
0.80942987
0.96289206
1.0721201
1.1934587
1.2475742
1.1696867
0.94916548
0.896578
0.886517
0.96739261
1.3302981
1.9631635
2.7965627
3.7942344
4.975758
5.4265122
5.215447
5.4702294
4.9043053
3.8934849
3.7357218
2.5344889
1.9322192
0.29959231
0.29959231
0.29959231
0.29959231
0.29959231
0.29959231
0.2995923
0.29959229
0.2995923
0.29959231
0.29959232
0.29959232
0.29959232
0.29959231
0.29959231
0.29958621
0.23828796
0.94615328
1.4792152
1.3394844
1.1146287
1.0453805
0.90018967
0.75267613
0.71675157
0.72533288
0.81450719
0.95653282
1.0605707
1.1869848
1.2414201
1.1735482
0.95163621
0.89669833
0.88616794
0.95489948
1.2837665
1.9203918
2.7446664
3.7149011
4.9156967
5.3249765
5.2710135
5.5109255
4.9667614
4.0006139
3.8401794
2.5635255
0.29959231
0.29959231
0.29959231
0.29959231
0.29959231
0.29959231
0.2995923
0.29959229
0.2995923
0.29959231
0.29959232
0.29959232
0.29959232
0.29959231
0.29959231
0.29958791
0.24900058
0.89640568
1.4719266
1.3352109
1.1041999
1.0346212
0.88459709
0.74348033
0.71088448
0.71966078
0.8068434
0.94859932
1.0556569
1.1796593
1.2358732
1.1774164
0.95307326
0.89552262
0.88271382
0.93559528
1.2414241
1.8570994
2.6659658
3.6937254
4.8949575
5.4639313
5.3161665
5.6821408
5.2344858
4.3324443
4.1054863
2.7909604
0.29959231
0.29959231
0.29959231
0.29959231
0.29959231
0.29959231
0.2995923
0.29959229
0.2995923
0.29959231
0.29959232
0.29959232
0.29959231
0.29959231
0.29959231
0.29959096
0.27309645
0.74642159
1.4528792
1.3446303
1.0884563
1.01759
0.87748703
0.73539528
0.70433712
0.71915861
0.80685644
0.93767169
1.0621258
1.1820368
1.2495658
1.1981169
0.96510461
0.89796727
0.88301215
0.93073812
1.2241484
1.8490631
2.7275057
3.8094294
5.165949
5.890039
5.9352877
6.354965
5.8715859
4.8888028
4.5718408
3.1290097
0.29959231
0.29959231
0.29959231
0.29959231
0.29959231
0.2995923
0.29959229
0.2995923
0.29959231
0.29959232
0.29959232
0.29959231
0.29959231
0.29959231
0.29959218
0.29810949
0.37487401
1.3791964
1.3631445
1.0788466
0.98868847
0.87495979
0.73221643
0.71116647
0.71246374
0.74391734
0.8371372
0.95788787
1.0819016
1.143619
1.0942568
0.88569046
0.84293237
0.83089619
0.84906677
1.0880045
1.688428
2.5659596
3.6321679
4.9366979
5.708187
5.8490973
6.095352
5.5324638
4.5617305
4.1981752
2.8201732
0.29959231
0.29959231
0.29959231
0.29959231
0.29959231
0.2995923
0.29959229
0.2995923
0.29959231
0.29959232
0.29959232
0.29959232
0.29959231
0.29959231
0.29959229
0.29956604
0.17308387
1.0595154
1.3333971
1.1194988
0.93820266
0.86856419
0.75153569
0.72268883
0.72163311
0.74914431
0.8318262
0.94961415
1.075286
1.1333345
1.0824991
0.88192226
0.8436223
0.83460758
0.85104474
1.0796657
1.6656048
2.4891383
3.4751187
4.6606018
5.3781239
5.3671401
5.6107235
5.1297778
4.119841
3.7280835
2.601966
0.29959231
0.29959231
0.29959231
0.29959231
0.29959231
0.2995923
0.29959229
0.2995923
0.29959232
0.29959232
0.29959232
0.29959231
0.29959231
0.29959231
0.29959231
0.29959171
0.29510887
0.14245426
1.0981974
1.1637181
0.96110101
0.82718145
0.7641982
0.73293281
0.73038732
0.75553207
0.82972827
0.94870088
1.0777385
1.1407478
1.0871629
0.89016118
0.84797301
0.83975144
0.85938344
1.0850214
1.6735847
2.5065055
3.4644854
4.6037487
5.2456859
5.2062796
5.3213907
4.855179
3.8180046
3.4969708
2.4990339
0.29959231
0.29959231
0.29959231
0.29959231
0.29959231
0.2995923
0.29959229
0.2995923
0.29959232
0.29959232
0.29959232
0.29959231
0.29959231
0.29959231
0.29959231
0.29959229
0.29945646
0.28198788
0.12679557
0.85987157
0.95834538
0.84567065
0.75687365
0.732864
0.73298887
0.7613996
0.82843985
0.94870467
1.0848147
1.1471925
1.0926583
0.8970004
0.85307505
0.84512821
0.86979462
1.1005365
1.6969816
2.5257992
3.501177
4.60331
5.2735487
5.2007907
5.2930172
4.825303
3.759782
3.5237582
2.5078486
0.29959231
0.29959231
0.29959231
0.29959231
0.29959231
0.2995923
0.29959229
0.2995923
0.29959232
0.29959232
0.29959232
0.29959231
0.29959231
0.29959231
0.29959231
0.29959231
0.29958841
0.298798
0.27953739
0.14924217
0.41182154
0.70538651
0.70464355
0.68931585
0.70637004
0.76831357
0.84402077
0.94612944
1.0962856
1.1534454
1.1004493
0.90303955
0.8567162
0.84849898
0.88089901
1.1172966
1.7166419
2.5596903
3.535984
4.669909
5.2834185
5.1421109
5.2931694
4.7868294
3.7144832
3.5053057
2.5170542
0.29959231
0.29959231
0.29959231
0.29959231
0.29959231
0.2995923
0.29959229
0.2995923
0.29959232
0.29959232
0.29959232
0.29959231
0.29959231
0.29959231
0.29959231
0.29959231
0.2995922
0.2995568
0.29838459
0.28607423
0.22646586
0.1170594
0.25141035
0.38119422
0.50895339
0.74174324
0.87746666
0.94767794
1.0997219
1.1572114
1.1058602
0.90483236
0.85523927
0.84718176
0.89084012
1.1543101
1.760124
2.6234625
3.5807532
4.6814578
5.3058037
5.198393
5.3398133
4.7790685
3.6694844
3.5513082
2.4905605
0.29959231
0.29959231
0.29959231
0.29959231
0.29959231
0.2995923
0.29959229
0.2995923
0.29959232
0.29959232
0.29959232
0.29959231
0.29959231
0.29959231
0.29959231
0.29959231
0.29959231
0.29959072
0.29952065
0.2985469
0.29233931
0.27018177
0.22085815
0.16521316
0.12517956
0.47211061
0.86498365
0.9598468
1.0996115
1.1661539
1.1099987
0.90720031
0.85428883
0.84537361
0.89202472
1.1742673
1.7949512
2.673535
3.6647388
4.7919446
5.351052
5.2023979
5.3183695
4.744497
3.6283169
3.5552335
2.4630125
0.29959231
0.29959231
0.29959231
0.29959231
0.29959231
0.29959229
0.29959229
0.2995923
0.29959232
0.29959232
0.29959232
0.29959231
0.29959231
0.29959231
0.29959231
0.29959231
0.29959231
0.29959224
0.29958812
0.29951491
0.29893011
0.29628849
0.28845399
0.27280406
0.25361283
0.17208806
0.82774941
0.98799135
1.1006159
1.1727872
1.1128249
0.91016189
0.8555092
0.84544977
0.89929859
1.213979
1.8646235
2.7474572
3.7187152
4.8338381
5.3058379
5.1600506
5.3326769
4.7140455
3.6038071
3.5536044
2.4225608
0.29959231
0.29959231
0.29959231
0.29959231
0.29959231
0.29959229
0.29959229
0.2995923
0.29959232
0.29959232
0.29959232
0.29959231
0.29959231
0.29959231
0.29959231
0.29959231
0.29959231
0.29959231
0.29959207
0.29958674
0.29953411
0.2992422
0.29819131
0.29549342
0.29034562
0.15880025
0.82011376
1.0050168
1.1151857
1.1807219
1.1168724
0.91209779
0.85645724
0.84416955
0.89872534
1.2329121
1.9188301
2.8232361
3.8186655
4.9352856
5.3499775
5.2105938
5.3446691
4.6073244
3.5828915
3.5758504
2.3543391
0.29959231
0.29959231
0.29959231
0.29959231
0.29959231
0.29959229
0.29959229
0.2995923
0.29959232
0.29959232
0.29959232
0.29959231
0.29959231
0.29959231
0.29959231
0.29959231
0.29959231
0.29959232
0.2995923
0.29959192
0.29958734
0.29955671
0.29942561
0.29902619
0.29782283
0.1812435
0.84207475
1.0223791
1.1219602
1.1849823
1.1209764
0.91514597
0.86029851
0.84726984
0.91233831
1.2797436
1.9968796
2.9181545
3.9228895
4.9934292
5.3629842
5.2391473
5.3160179
4.4929339
3.5726082
3.5670749
2.2817993
0.29959231
0.29959231
0.29959231
0.29959231
0.29959231
0.29959229
0.29959229
0.2995923
0.29959232
0.29959232
0.29959232
0.29959231
0.29959231
0.29959231
0.29959231
0.29959231
0.29959231
0.29959232
0.29959232
0.29959229
0.2995919
0.29958881
0.29957325
0.29950597
0.29132643
0.39219005
0.8939703
1.0218967
1.1322342
1.1913229
1.1252423
0.91681221
0.86209106
0.84771507
0.91762631
1.3156514
2.0816008
3.0111739
4.0333439
5.0639646
5.3261573
5.2509493
5.2891898
4.3439417
3.5662179
3.5467602
2.2124303
0.29959231
0.29959231
0.29959231
0.29959231
0.29959231
0.29959229
0.29959229
0.2995923
0.29959232
0.29959232
0.29959232
0.29959231
0.29959231
0.29959231
0.29959231
0.29959231
0.29959232
0.29959232
0.29959232
0.29959231
0.29959228
0.29959198
0.29959017
0.29952706
0.22231609
0.6718591
0.92126787
1.0136081
1.1431698
1.1998116
1.1286033
0.91989682
0.86758652
0.85313317
0.93703449
1.3666806
2.163719
3.1413066
4.2040357
5.1044556
5.2453761
5.2812397
5.2309388
4.1989694
3.5797379
3.498579
2.1348938
0.29959231
0.29959231
0.29959231
0.29959231
0.29959231
0.29959229
0.29959229
0.2995923
0.29959232
0.29959232
0.29959232
0.29959231
0.29959231
0.29959231
0.29959231
0.29959231
0.29959232
0.29959232
0.29959232
0.29959232
0.29959231
0.29959228
0.29959188
0.29942007
0.16341867
0.78710143
0.94301087
1.014213
1.1632356
1.2114028
1.1305009
0.92157963
0.87072792
0.85635272
0.95448055
1.4354941
2.2716675
3.2515215
4.3243425
5.2090644
5.2957978
5.3408289
5.1711538
4.0484639
3.5677658
3.4433371
2.0792993
0.29959231
0.29959231
0.29959231
0.29959231
0.29959231
0.29959229
0.29959229
0.29959231
0.29959232
0.29959232
0.29959232
0.29959231
0.29959231
0.29959231
0.29959231
0.29959231
0.29959232
0.29959232
0.29959232
0.29959232
0.29959231
0.29959231
0.29959188
0.29931406
0.30025475
0.83967699
0.94435155
1.0181561
1.1827926
1.223401
1.1309657
0.92614638
0.8779505
0.86407725
0.97611069
1.4853296
2.3785406
3.3872427
4.5056119
5.2786448
5.2871674
5.4022398
5.0919993
3.9235303
3.6073864
3.3536145
2.0082612
0.29959231
0.29959231
0.29959231
0.29959231
0.29959231
0.29959229
0.29959229
0.29959231
0.29959232
0.29959232
0.29959231
0.29959231
0.29959231
0.29959231