/*--------------------------------*- C++ -*----------------------------------*\
| =========                 |                                                 |
| \\      /  F ield         | OpenFOAM: The Open Source CFD Toolbox           |
|  \\    /   O peration     | Version:  2506                                  |
|   \\  /    A nd           | Website:  www.openfoam.com                      |
|    \\/     M anipulation  |                                                 |
\*---------------------------------------------------------------------------*/
FoamFile
{
    version     2.0;
    format      ascii;
    arch        "LSB;label=32;scalar=64";
    class       volScalarField;
    location    "0.35";
    object      alphat;
}
// * * * * * * * * * * * * * * * * * * * * * * * * * * * * * * * * * * * * * //

dimensions      [1 -1 -1 0 0 0 0];

internalField   nonuniform List<scalar> 
1376
(
0.12154919
0.12152849
0.12151732
0.12152092
0.1215744
0.12157845
0.12157662
0.12157407
0.1215714
0.12156972
0.12157449
0.12158296
0.1215849
0.12158608
0.12158714
0.12157709
0.12158002
0.12157915
0.12157802
0.12157645
0.12157471
0.12157509
0.12158056
0.12158278
0.12158431
0.12158528
0.12158869
0.12159191
0.12159585
0.1215989
0.12160047
0.12157866
0.1215808
0.12158017
0.12157926
0.12157775
0.12157587
0.12157543
0.12157808
0.12157978
0.1215818
0.12158362
0.12158666
0.12159016
0.1215942
0.12159774
0.12159919
0.1215977
0.12160108
0.12159931
0.12159574
0.12158067
0.12158225
0.12158114
0.12157982
0.12157805
0.12157655
0.12157578
0.12157616
0.12157708
0.12157867
0.12158054
0.12158306
0.12158662
0.12159102
0.12159485
0.12159604
0.12159524
0.12159994
0.12159923
0.12159726
0.12159494
0.12159285
0.12159123
0.12159045
0.12158994
0.12158356
0.12158465
0.12158315
0.12158139
0.12157915
0.12157712
0.12157549
0.12157467
0.12157465
0.12157534
0.12157658
0.12157854
0.12158154
0.12158555
0.12158939
0.12159127
0.12159217
0.12159703
0.12159751
0.12159634
0.12159459
0.12159363
0.12159232
0.12159113
0.12159024
0.12159044
0.12159124
0.12159246
0.12159414
0.12158626
0.12158671
0.1215849
0.12158285
0.1215802
0.12157771
0.12157538
0.12157339
0.12157243
0.12157205
0.12157226
0.12157321
0.12157513
0.12157812
0.12158145
0.1215841
0.12158677
0.12159066
0.12159232
0.12159273
0.1215924
0.12159183
0.12159071
0.12158963
0.12158882
0.12158875
0.12158926
0.12159017
0.12159149
0.12159349
0.12159614
0.12159915
0.12160209
0.12158707
0.12158671
0.12158475
0.12158275
0.12158006
0.12157743
0.12157462
0.12157198
0.1215699
0.12156838
0.1215674
0.1215671
0.12156767
0.12156926
0.12157161
0.12157441
0.12157776
0.12158089
0.1215834
0.12158531
0.12158667
0.12158689
0.12158658
0.12158608
0.12158575
0.1215859
0.12158627
0.12158698
0.12158819
0.12159021
0.12159255
0.1215953
0.121598
0.1216003
0.12160308
0.12160571
0.12158448
0.12158431
0.12158258
0.12158069
0.12157796
0.12157527
0.12157231
0.1215694
0.12156656
0.12156398
0.1215618
0.12156016
0.12155925
0.12155933
0.12156039
0.12156253
0.12156552
0.12156844
0.12157159
0.12157462
0.12157733
0.12157904
0.12158007
0.12158063
0.12158114
0.12158185
0.1215825
0.1215833
0.12158467
0.12158667
0.1215887
0.12159101
0.12159343
0.12159606
0.12159863
0.12160113
0.12160328
0.12160554
0.121607
0.12157852
0.1215791
0.12157779
0.12157626
0.12157377
0.12157127
0.12156838
0.12156524
0.12156192
0.12155852
0.12155531
0.12155246
0.1215502
0.12154887
0.12154866
0.12154972
0.12155192
0.12155477
0.12155826
0.12156207
0.12156588
0.12156921
0.121572
0.1215741
0.12157592
0.12157769
0.12157913
0.12158025
0.12158154
0.12158334
0.12158523
0.12158727
0.12158951
0.12159214
0.12159455
0.12159705
0.12159972
0.12160186
0.12160344
0.12160444
0.121606
0.12160796
0.12156986
0.12157111
0.12157032
0.12156934
0.12156725
0.12156494
0.12156229
0.12155929
0.12155577
0.12155197
0.12154812
0.1215446
0.12154153
0.12153915
0.12153788
0.12153795
0.12153934
0.12154187
0.12154536
0.1215496
0.12155426
0.121559
0.12156342
0.12156727
0.12157076
0.12157399
0.12157672
0.12157897
0.12158111
0.1215833
0.1215853
0.12158703
0.12158878
0.12159075
0.12159273
0.12159471
0.12159695
0.12159852
0.1216
0.12160169
0.12160325
0.12160504
0.12160723
0.12161062
0.12161021
0.12155877
0.12156042
0.12155999
0.12155952
0.12155806
0.12155642
0.1215543
0.12155176
0.12154862
0.12154497
0.12154108
0.12153749
0.12153429
0.12153147
0.12152953
0.12152889
0.1215296
0.12153159
0.12153481
0.12153916
0.12154434
0.12155
0.12155567
0.12156109
0.12156622
0.12157104
0.12157541
0.12157919
0.12158248
0.12158537
0.12158784
0.12158992
0.12159175
0.12159347
0.12159479
0.12159568
0.12159622
0.12159685
0.12159749
0.12159911
0.12160085
0.12160283
0.12160516
0.12160859
0.12160938
0.12161766
0.12135484
0.12154462
0.12154664
0.12154662
0.121547
0.12154658
0.12154607
0.12154509
0.12154349
0.12154118
0.12153831
0.12153512
0.12153192
0.12152898
0.12152639
0.1215244
0.12152337
0.12152358
0.12152509
0.12152795
0.12153215
0.12153745
0.12154351
0.12154993
0.12155644
0.12156286
0.12156908
0.121575
0.12158042
0.12158511
0.12158915
0.12159257
0.12159525
0.1215972
0.1215985
0.12159906
0.12159912
0.12159899
0.12159888
0.12159874
0.12159894
0.12159976
0.12160078
0.12160236
0.12160554
0.12160679
0.12161513
0.12131502
0.11788212
0.1079804
0.12152788
0.12153041
0.12153098
0.12153255
0.12153369
0.12153487
0.12153543
0.1215353
0.12153426
0.12153253
0.12153047
0.12152827
0.12152607
0.12152404
0.12152245
0.12152153
0.12152155
0.12152269
0.12152516
0.12152898
0.12153398
0.12153992
0.12154652
0.12155352
0.12156067
0.12156781
0.12157483
0.12158156
0.12158768
0.12159289
0.12159727
0.12160074
0.12160321
0.12160471
0.12160522
0.12160498
0.12160409
0.1216028
0.12160132
0.12160008
0.12159983
0.12159968
0.12160034
0.12160357
0.12160285
0.1216102
0.12127137
0.11762596
0.10830072
0.12151004
0.12151291
0.12151401
0.12151684
0.12151976
0.12152316
0.12152582
0.12152749
0.12152811
0.12152802
0.12152742
0.12152655
0.1215254
0.12152424
0.12152332
0.12152279
0.12152282
0.12152369
0.12152576
0.12152911
0.12153356
0.12153895
0.12154517
0.12155211
0.12155952
0.12156715
0.12157484
0.12158235
0.12158933
0.12159539
0.12160055
0.12160478
0.12160795
0.12161003
0.1216109
0.12161063
0.1216093
0.12160717
0.12160462
0.12160246
0.12160094
0.12159956
0.1215993
0.12160241
0.12160069
0.12160938
0.12122021
0.11732915
0.1085664
0.1214931
0.12149611
0.12149749
0.12150122
0.12150557
0.12151121
0.12151638
0.12152031
0.12152294
0.12152474
0.12152588
0.12152632
0.12152644
0.1215264
0.12152627
0.12152619
0.12152623
0.12152683
0.12152845
0.12153127
0.12153509
0.12153981
0.12154547
0.121552
0.12155912
0.12156666
0.12157441
0.12158213
0.12158943
0.12159614
0.12160184
0.12160664
0.12161049
0.12161326
0.12161473
0.12161484
0.12161367
0.12161138
0.1216085
0.12160549
0.12160285
0.12160074
0.12159988
0.12160271
0.12160108
0.12161129
0.12116002
0.11700209
0.10903162
0.12147878
0.12148193
0.12148343
0.12148758
0.12149277
0.1215001
0.12150757
0.12151367
0.12151823
0.1215218
0.12152454
0.12152659
0.12152807
0.12152908
0.12152974
0.12153001
0.12153002
0.12153032
0.12153168
0.12153426
0.12153758
0.1215415
0.12154624
0.12155206
0.12155877
0.12156592
0.1215733
0.12158069
0.12158797
0.12159487
0.12160108
0.12160646
0.12161091
0.12161427
0.12161635
0.12161707
0.12161644
0.12161449
0.12161179
0.12160858
0.12160531
0.12160313
0.12160253
0.1216052
0.1216042
0.12161888
0.12109533
0.11668852
0.10984147
0.12146841
0.12147177
0.12147331
0.12147751
0.12148283
0.12149088
0.12149973
0.12150711
0.1215129
0.12151787
0.12152217
0.12152567
0.12152833
0.12153046
0.12153196
0.12153266
0.12153282
0.12153302
0.12153429
0.12153675
0.12153967
0.12154287
0.12154681
0.12155181
0.12155775
0.12156419
0.12157083
0.12157762
0.12158459
0.12159143
0.12159784
0.12160352
0.12160828
0.12161203
0.12161464
0.12161602
0.12161631
0.12161542
0.12161351
0.12161089
0.121608
0.12160596
0.12160576
0.12160836
0.12160828
0.12162204
0.12100948
0.11635644
0.11040725
0.12146234
0.12146594
0.12146736
0.12147115
0.12147585
0.12148341
0.1214923
0.12150002
0.12150643
0.12151222
0.12151756
0.12152224
0.12152627
0.12152928
0.12153135
0.12153258
0.121533
0.12153342
0.12153489
0.12153742
0.1215402
0.12154289
0.1215462
0.12155048
0.12155553
0.12156105
0.12156684
0.12157298
0.12157945
0.12158607
0.12159252
0.12159842
0.12160348
0.12160759
0.12161065
0.12161267
0.12161372
0.12161383
0.12161318
0.12161193
0.12161015
0.1216088
0.12160973
0.12161376
0.12161234
0.12162131
0.12091708
0.11598404
0.11079341
0.12145969
0.12146324
0.12146422
0.12146727
0.12147087
0.12147719
0.12148507
0.1214922
0.12149851
0.12150466
0.12151069
0.12151629
0.12152121
0.12152526
0.12152817
0.12152974
0.12153025
0.12153093
0.12153286
0.12153571
0.1215385
0.12154103
0.12154391
0.12154769
0.12155213
0.1215568
0.12156175
0.12156718
0.12157306
0.12157933
0.12158566
0.12159165
0.12159698
0.12160149
0.12160512
0.12160795
0.12161006
0.12161154
0.12161225
0.12161204
0.12161152
0.12161151
0.12161446
0.1216219
0.1216184
0.1216279
0.12082192
0.11563653
0.11111349
0.1214592
0.1214623
0.12146246
0.12146462
0.12146702
0.12147181
0.12147797
0.12148391
0.12148964
0.12149565
0.12150185
0.12150787
0.12151339
0.12151809
0.12152155
0.12152374
0.12152488
0.12152609
0.1215285
0.12153163
0.12153447
0.12153683
0.12153971
0.12154346
0.12154754
0.12155152
0.12155567
0.1215603
0.12156551
0.12157124
0.12157729
0.12158329
0.12158892
0.12159399
0.12159845
0.12160243
0.12160582
0.12160857
0.12161054
0.12161158
0.12161216
0.12161332
0.12161818
0.12163136
0.12162527
0.12163543
0.12072348
0.115369
0.11168158
0.12146004
0.12146258
0.12146178
0.12146285
0.12146397
0.12146709
0.12147119
0.12147545
0.12148009
0.12148539
0.12149123
0.12149722
0.121503
0.12150809
0.12151209
0.12151488
0.12151682
0.12151891
0.12152211
0.12152557
0.1215285
0.121531
0.12153413
0.12153809
0.12154202
0.12154551
0.12154895
0.12155275
0.12155713
0.12156213
0.12156769
0.12157356
0.12157944
0.12158507
0.1215903
0.12159519
0.12159962
0.12160355
0.12160711
0.1216101
0.12161194
0.12161382
0.12161978
0.12163718
0.12163249
0.12164068
0.12062076
0.11511136
0.11208278
0.12146144
0.12146327
0.12146154
0.12146187
0.12146174
0.12146318
0.12146518
0.12146757
0.12147077
0.1214749
0.12147982
0.12148525
0.12149087
0.12149612
0.12150061
0.12150415
0.12150721
0.12151052
0.12151453
0.12151838
0.12152161
0.12152456
0.12152814
0.12153231
0.12153619
0.12153934
0.12154214
0.12154509
0.12154858
0.12155286
0.12155797
0.12156363
0.1215695
0.12157525
0.12158081
0.1215862
0.12159129
0.12159605
0.1216007
0.12160526
0.12160872
0.12161196
0.12161948
0.12163729
0.12164078
0.12165041
0.12049644
0.11473436
0.11214472
0.12146253
0.12146386
0.12146141
0.12146095
0.12146007
0.12146031
0.12146058
0.12146128
0.12146293
0.1214656
0.12146917
0.12147354
0.12147843
0.12148342
0.12148811
0.12149239
0.1214966
0.12150113
0.12150597
0.12151042
0.12151427
0.12151788
0.12152189
0.12152613
0.12152986
0.12153269
0.12153503
0.12153744
0.12154034
0.12154404
0.12154858
0.1215537
0.12155912
0.12156465
0.1215702
0.12157567
0.12158098
0.12158609
0.12159112
0.12159648
0.12160156
0.12160584
0.12161614
0.12164092
0.12164098
0.12163077
0.12034609
0.11426851
0.111938
0.12146227
0.1214635
0.12146058
0.12145972
0.12145818
0.12145767
0.12145703
0.1214566
0.1214569
0.12145818
0.12146037
0.12146347
0.12146728
0.12147145
0.12147581
0.1214804
0.12148538
0.1214908
0.12149627
0.12150132
0.1215058
0.12151002
0.12151434
0.12151852
0.12152201
0.12152462
0.12152671
0.1215288
0.12153128
0.12153443
0.12153833
0.12154283
0.12154786
0.12155329
0.12155891
0.12156441
0.1215697
0.12157483
0.12157986
0.12158514
0.12159089
0.12159667
0.12160903
0.12163672
0.12163438
0.12160272
0.12017186
0.11385128
0.11215865
0.12146041
0.12146158
0.12145846
0.12145735
0.1214555
0.12145465
0.12145359
0.12145264
0.12145218
0.12145248
0.12145364
0.1214556
0.12145827
0.12146143
0.12146506
0.12146931
0.12147431
0.12147989
0.12148549
0.12149074
0.12149561
0.12150026
0.12150473
0.12150879
0.1215121
0.1215146
0.12151666
0.12151868
0.12152101
0.12152385
0.12152724
0.12153129
0.121536
0.12154122
0.12154673
0.12155217
0.12155737
0.12156238
0.12156701
0.12157137
0.12157668
0.12158377
0.12159939
0.12162924
0.12162742
0.12157632
0.11997917
0.11357535
0.11291605
0.12145667
0.12145794
0.12145493
0.12145387
0.12145193
0.12145098
0.12144997
0.12144894
0.12144823
0.12144808
0.12144864
0.12144985
0.12145157
0.12145375
0.1214565
0.12146006
0.12146449
0.12146946
0.12147451
0.12147944
0.12148426
0.12148896
0.12149344
0.12149743
0.12150074
0.12150341
0.12150565
0.12150782
0.12151021
0.12151289
0.12151592
0.12151954
0.12152382
0.1215285
0.12153347
0.12153864
0.12154364
0.1215481
0.12155216
0.12155668
0.12156296
0.12157148
0.12158921
0.12162585
0.12161725
0.12152747
0.11976637
0.11330851
0.11352963
0.12145247
0.1214537
0.12145075
0.12144991
0.12144812
0.1214473
0.12144648
0.12144564
0.12144498
0.12144473
0.12144496
0.12144564
0.12144671
0.12144822
0.1214503
0.12145307
0.12145657
0.12146055
0.12146473
0.12146901
0.1214734
0.12147782
0.12148205
0.12148587
0.1214892
0.12149211
0.12149472
0.12149723
0.12149982
0.12150248
0.12150526
0.12150841
0.12151209
0.12151605
0.12152016
0.12152467
0.12152943
0.12153392
0.12153828
0.12154376
0.12155103
0.12155999
0.12157612
0.12161087
0.12160357
0.12147253
0.11951865
0.11286299
0.11371826
0.12144888
0.12145004
0.1214471
0.12144649
0.12144499
0.12144434
0.12144371
0.12144307
0.12144242
0.12144201
0.12144197
0.12144234
0.12144303
0.12144417
0.12144582
0.12144796
0.12145059
0.1214536
0.12145691
0.12146045
0.12146421
0.12146808
0.12147181
0.12147522
0.12147838
0.12148135
0.12148416
0.12148692
0.12148968
0.1214924
0.12149502
0.1214977
0.12150069
0.12150389
0.12150716
0.12151078
0.12151502
0.12151946
0.12152372
0.12152912
0.121537
0.12154734
0.1215631
0.12159672
0.12159066
0.12140072
0.11922626
0.11230687
0.11371785
0.12144575
0.12144697
0.12144419
0.12144383
0.12144244
0.121442
0.12144167
0.12144109
0.12144034
0.12143963
0.12143917
0.1214392
0.12143978
0.12144064
0.12144177
0.12144345
0.1214455
0.12144779
0.1214503
0.12145306
0.12145606
0.12145917
0.12146221
0.12146508
0.12146784
0.12147057
0.12147329
0.121476
0.12147876
0.1214815
0.1214841
0.12148662
0.12148926
0.12149211
0.12149505
0.12149809
0.12150166
0.12150581
0.12151015
0.12151538
0.12152346
0.12153522
0.12154912
0.12158464
0.12157563
0.12132878
0.11887704
0.11175255
0.11402889
0.12144156
0.12144284
0.1214403
0.12144022
0.12143916
0.12143899
0.12143872
0.12143828
0.12143776
0.12143709
0.12143647
0.12143622
0.12143628
0.12143678
0.12143752
0.12143858
0.12144013
0.12144182
0.12144357
0.12144545
0.12144752
0.12144981
0.12145218
0.12145446
0.12145669
0.121459
0.12146132
0.12146371
0.12146622
0.12146873
0.1214712
0.12147364
0.12147613
0.12147876
0.1214814
0.12148397
0.12148729
0.12149157
0.12149632
0.12150204
0.12151027
0.12152206
0.12153716
0.12157643
0.12155945
0.12123377
0.11843261
0.11133752
0.11487308
0.12143484
0.12143604
0.12143369
0.121434
0.12143335
0.12143365
0.12143387
0.12143401
0.12143416
0.12143408
0.12143369
0.12143329
0.12143312
0.12143313
0.12143327
0.12143387
0.1214348
0.12143553
0.12143626
0.12143746
0.12143914
0.12144074
0.12144219
0.12144384
0.12144561
0.12144745
0.12144937
0.12145137
0.12145333
0.12145524
0.12145722
0.12145927
0.12146151
0.12146403
0.12146684
0.12146987
0.12147308
0.12147696
0.12148198
0.12148863
0.12149872
0.12151383
0.12152639
0.12158422
0.12154641
0.12115199
0.11793383
0.11102912
0.11598255
0.12142751
0.12142848
0.12142635
0.12142702
0.12142662
0.12142745
0.12142842
0.12142943
0.12143023
0.12143072
0.12143088
0.12143091
0.1214308
0.12143049
0.12143028
0.12143047
0.12143077
0.12143094
0.12143132
0.12143191
0.12143248
0.12143311
0.12143388
0.1214348
0.12143579
0.12143704
0.12143871
0.12144011
0.12144098
0.12144204
0.12144325
0.12144454
0.12144648
0.12144884
0.12145144
0.12145496
0.12145786
0.12146109
0.12146619
0.12147383
0.12148558
0.12150523
0.12152892
0.12161617
0.12151047
0.12091775
0.11673268
0.11128738
0.11906447
)
;

boundaryField
{
    Side
    {
        type            empty;
    }
    Inlet
    {
        type            calculated;
        value           nonuniform List<scalar> 
21
(
0.13271827
0.13275346
0.13274998
0.13270502
0.13268697
0.13269403
0.13267281
0.13265974
0.13266273
0.13266882
0.13270169
0.13277565
0.13286992
0.13298865
0.13314412
0.13326153
0.13333714
0.1334168
0.13353884
0.13371397
0.13363451
)
;
    }
    Airfoil
    {
        type            compressible::alphatWallFunction;
        value           nonuniform List<scalar> 0();
    }
    Outlet
    {
        type            calculated;
        value           nonuniform List<scalar> 
49
(
0.12142369
0.12142444
0.12142233
0.12142278
0.1214222
0.12142271
0.12142337
0.1214241
0.12142472
0.12142524
0.12142559
0.12142588
0.12142619
0.12142653
0.12142681
0.12142699
0.12142715
0.12142727
0.12142734
0.12142739
0.12142744
0.12142754
0.12142766
0.12142785
0.12142815
0.12142852
0.12142889
0.12142926
0.1214296
0.12142989
0.12143024
0.1214307
0.12143136
0.12143227
0.12143341
0.12143483
0.12143621
0.12143811
0.12144122
0.12144622
0.12145466
0.12147103
0.12149326
0.12156917
0.12147313
0.12083252
0.11671505
0.11113946
0.11906789
)
;
    }
    procBoundary13to6
    {
        type            processor;
        value           nonuniform List<scalar> 
34
(
0.12155043
0.12155043
0.1215794
0.12158049
0.12158097
0.12158261
0.12158521
0.1215875
0.12158779
0.12158528
0.12157963
0.12157117
0.12156005
0.12154567
0.12152845
0.12151024
0.12149305
0.12147864
0.12146839
0.12146261
0.12146032
0.12146011
0.12146102
0.12146237
0.12146333
0.12146298
0.12146102
0.12145718
0.12145299
0.12144927
0.12144577
0.12144118
0.12143436
0.1214273
)
;
    }
    procBoundary13to12
    {
        type            processor;
        value           nonuniform List<scalar> 
60
(
0.12121807
0.12117318
0.12122144
0.12133158
0.12154083
0.12154083
0.12157321
0.12158671
0.12159292
0.12159916
0.12160665
0.12159233
0.12159233
0.12159546
0.12159842
0.12160019
0.12160116
0.12159991
0.12159991
0.12160038
0.12159712
0.12159311
0.12159263
0.12159263
0.12159048
0.1215891
0.12158862
0.12158891
0.1215905
0.1215905
0.12159179
0.1215934
0.1215955
0.12159635
0.12159635
0.12159934
0.12160253
0.12160559
0.1216046
0.1216046
0.12160752
0.1216103
0.12160785
0.12160785
0.12160992
0.12161116
0.1216076
0.1216076
0.12160907
0.12161084
0.12160946
0.12160946
0.12161174
0.12161109
0.1216187
0.1216187
0.1213854
0.11810722
0.11810722
0.10787123
)
;
    }
}


// ************************************************************************* //
