/*--------------------------------*- C++ -*----------------------------------*\
| =========                 |                                                 |
| \\      /  F ield         | OpenFOAM: The Open Source CFD Toolbox           |
|  \\    /   O peration     | Version:  2506                                  |
|   \\  /    A nd           | Website:  www.openfoam.com                      |
|    \\/     M anipulation  |                                                 |
\*---------------------------------------------------------------------------*/
FoamFile
{
    version     2.0;
    format      ascii;
    arch        "LSB;label=32;scalar=64";
    class       volScalarField;
    location    "2.25";
    object      nut;
}
// * * * * * * * * * * * * * * * * * * * * * * * * * * * * * * * * * * * * * //

dimensions      [0 2 -1 0 0 0 0];

internalField   nonuniform List<scalar> 
1375
(
0.072944248
0.073566857
0.096094608
0.12181554
0.14342996
0.15917257
0.074015832
0.096707446
0.12254496
0.14412337
0.1597096
0.16963005
0.17516475
0.17783258
0.17895298
0.17910684
0.074488691
0.097369454
0.12332528
0.14486048
0.1602791
0.16998175
0.17531606
0.17784622
0.17887469
0.17899222
0.17891761
0.17883653
0.17866454
0.1785534
0.17852434
0.07498736
0.098098035
0.12417404
0.14565339
0.16088753
0.17035644
0.17547977
0.17786961
0.17879902
0.17888077
0.17879686
0.17871748
0.17853528
0.17844174
0.17841641
0.17840324
0.17840386
0.1784146
0.17843241
0.17845537
0.075504761
0.09887439
0.12506968
0.14648069
0.16151586
0.17073945
0.17564659
0.17789618
0.17872318
0.17877063
0.17867814
0.1785982
0.17840806
0.17833093
0.17830876
0.17829803
0.17830044
0.17831222
0.17833055
0.17835369
0.17838047
0.17841013
0.1784422
0.17847648
0.17851296
0.076025046
0.099649336
0.12595615
0.14729055
0.16212238
0.1711018
0.1757989
0.17791458
0.17864302
0.17865996
0.17856166
0.17847697
0.17828348
0.17822077
0.17820127
0.17819291
0.1781971
0.17820997
0.17822886
0.17825216
0.17827888
0.17830834
0.17834016
0.17837417
0.17841039
0.17844883
0.17848952
0.17853259
0.1785783
0.076547799
0.10040017
0.12680132
0.14804945
0.16267789
0.17142198
0.17592268
0.17791526
0.17855519
0.17854743
0.17844631
0.17835387
0.17816185
0.17811146
0.17809419
0.17808809
0.17809397
0.17810787
0.17812728
0.17815073
0.17817735
0.17820661
0.1782382
0.17827197
0.1783079
0.17834596
0.17838623
0.17842895
0.17847433
0.17852254
0.178574
0.17862881
0.17868723
0.077081288
0.10112957
0.12760143
0.14874993
0.16317406
0.171693
0.17601259
0.177894
0.17845827
0.17843233
0.17833108
0.17822937
0.17804345
0.17800341
0.17798799
0.17798397
0.17799135
0.17800617
0.17802603
0.17804963
0.17807619
0.17810527
0.17813657
0.17816998
0.17820545
0.17824301
0.17828293
0.17832539
0.17837046
0.1784183
0.17846915
0.17852356
0.17858165
0.17864385
0.17871055
0.17878236
0.077617466
0.10183059
0.1283512
0.14938927
0.16361039
0.17191564
0.17606945
0.17785139
0.17835296
0.1783149
0.17821559
0.17810429
0.17792848
0.17789688
0.17788301
0.17788081
0.17788942
0.17790494
0.17792516
0.17794885
0.17797534
0.17800422
0.17803525
0.1780683
0.1781034
0.1781407
0.17818023
0.17822212
0.17826659
0.17831396
0.17836462
0.17841869
0.17847601
0.17853763
0.17860315
0.17867415
0.17875076
0.1788338
0.1789241
0.078149101
0.10251488
0.12906816
0.14998572
0.16400294
0.17210208
0.1761013
0.17779277
0.17824179
0.1781963
0.17810023
0.17797963
0.17781704
0.17779198
0.17777932
0.1777786
0.17778814
0.17780412
0.17782452
0.17784822
0.1778746
0.17790326
0.17793396
0.17796664
0.17800134
0.1780382
0.17807741
0.17811903
0.17816326
0.17821016
0.17825985
0.17831278
0.17837013
0.17843145
0.17849659
0.17856641
0.17864188
0.17872357
0.17881266
0.17891283
0.17902898
0.17916768
0.078681289
0.10322423
0.12980154
0.15058366
0.16438621
0.17227579
0.17612241
0.17772693
0.1781283
0.17807793
0.17798554
0.17785604
0.17770896
0.17768878
0.17767718
0.17767769
0.1776879
0.17770415
0.17772457
0.17774812
0.1777742
0.1778025
0.17783281
0.17786509
0.17789938
0.17793578
0.17797449
0.17801564
0.17805927
0.17810566
0.17815513
0.17820808
0.17826439
0.17832462
0.17838925
0.17845828
0.1785329
0.1786135
0.17870181
0.1788012
0.17891665
0.1790559
0.17922618
0.17942437
0.079205441
0.10397455
0.13058107
0.15121568
0.16478817
0.17245698
0.17614552
0.17766168
0.17801548
0.17796069
0.17787167
0.17773368
0.17760372
0.17758714
0.17757658
0.17757814
0.17758884
0.17760523
0.17762556
0.17764887
0.1776746
0.17770244
0.17773229
0.17776416
0.17779812
0.17783413
0.17787232
0.17791292
0.17795589
0.17800147
0.17805027
0.17810267
0.17815829
0.17821752
0.17828141
0.17834999
0.17842361
0.178503
0.17859051
0.17868958
0.17880523
0.17894525
0.17911554
0.17931103
0.17948718
0.17945373
0.17818841
0.079697467
0.10474061
0.13139347
0.15187955
0.16521276
0.17265128
0.17617555
0.17760079
0.17790502
0.17784496
0.17775856
0.17761261
0.17750028
0.17748626
0.17747667
0.17747911
0.17749016
0.17750662
0.17752683
0.17754989
0.17757533
0.1776029
0.17763244
0.17766397
0.17769746
0.17773288
0.17777033
0.17781011
0.17785254
0.17789797
0.17794664
0.17799825
0.17805272
0.17811066
0.1781735
0.17824112
0.1783136
0.17839227
0.17847929
0.17857774
0.17869335
0.17883392
0.17900467
0.17919775
0.17936263
0.17928926
0.17784111
0.1683415
0.14922219
0.080145528
0.10550448
0.13222476
0.15256757
0.16565746
0.17285895
0.1762136
0.17754562
0.17779796
0.17773115
0.17764655
0.17749333
0.17739822
0.17738596
0.17737735
0.17738053
0.17739176
0.17740808
0.177428
0.17745074
0.17747586
0.1775031
0.17753228
0.17756337
0.17759653
0.17763178
0.17766907
0.17770842
0.17774985
0.17779403
0.17784164
0.1778925
0.17794655
0.17800427
0.17806679
0.17813311
0.17820413
0.17828174
0.17836767
0.17846518
0.17858118
0.17872255
0.17889349
0.17908314
0.17923518
0.1791156
0.17744374
0.16693877
0.14976231
0.080549031
0.10625344
0.13306332
0.15327131
0.16611683
0.17307682
0.17625788
0.17749529
0.1776942
0.17761908
0.17753554
0.17737586
0.17729708
0.1772862
0.17727869
0.17728254
0.17729384
0.17730994
0.17732961
0.17735213
0.17737698
0.17740381
0.17743254
0.1774632
0.17749592
0.17753065
0.17756734
0.17760629
0.17764751
0.17769081
0.17773711
0.17778713
0.17784043
0.17789726
0.1779584
0.17802357
0.17809392
0.17817119
0.17825639
0.17835394
0.17847035
0.17861206
0.17878207
0.17896726
0.1791042
0.17893176
0.1770081
0.16574257
0.15190308
0.080903105
0.10695157
0.13387143
0.15395994
0.1665692
0.17329155
0.17630103
0.17744578
0.17759229
0.17750786
0.17742493
0.17725989
0.1771961
0.17718641
0.17718015
0.17718479
0.17719634
0.17721245
0.17723196
0.17725417
0.1772786
0.17730497
0.17733315
0.17736312
0.17739501
0.1774293
0.17746615
0.17750521
0.17754603
0.17758845
0.1776335
0.17768181
0.17773364
0.17778978
0.17785011
0.177914
0.17798347
0.17805971
0.17814397
0.17824166
0.17835845
0.17850132
0.17867083
0.17885138
0.1789712
0.17873689
0.17655013
0.16476041
0.15048495
0.081209382
0.10756555
0.13460657
0.15459548
0.166987
0.17348636
0.17633413
0.17739273
0.17749093
0.17739718
0.17731461
0.17714554
0.17709494
0.17708622
0.17708121
0.17708659
0.17709839
0.17711453
0.17713395
0.17715598
0.17718016
0.17720629
0.17723421
0.17726386
0.17729524
0.17732845
0.17736394
0.17740186
0.17744223
0.17748472
0.17752977
0.17757794
0.1776291
0.17768417
0.17774287
0.17780508
0.17787322
0.17794781
0.17803147
0.1781293
0.17824658
0.17838997
0.17855843
0.17873309
0.17883305
0.1785286
0.17605017
0.16356045
0.14887484
0.081503981
0.10812332
0.13528059
0.15517888
0.1673662
0.17365624
0.176354
0.17733359
0.1773891
0.17728671
0.17720491
0.17703324
0.1769942
0.17698625
0.17698247
0.17698864
0.17700074
0.1770169
0.1770361
0.17705771
0.17708138
0.17710698
0.17713447
0.17716375
0.17719477
0.17722745
0.17726201
0.17729919
0.17733884
0.17738074
0.17742533
0.17747275
0.17752292
0.17757715
0.17763486
0.1776967
0.17776426
0.17783747
0.17792093
0.17801841
0.17813604
0.17827926
0.17844616
0.17861377
0.17869065
0.17830523
0.17547497
0.16214408
0.14906911
0.081828271
0.10866736
0.13592154
0.15572406
0.16771117
0.17380065
0.17636201
0.17726575
0.17728596
0.17717732
0.17709586
0.17692343
0.17689468
0.17688734
0.17688466
0.17689141
0.17690363
0.1769196
0.17693843
0.17695962
0.17698284
0.17700799
0.17703506
0.17706407
0.17709495
0.17712737
0.1771611
0.17719697
0.17723532
0.1772764
0.17732064
0.17736742
0.17741702
0.17747023
0.17752662
0.17758749
0.17765372
0.17772605
0.17780961
0.17790738
0.1780263
0.17816962
0.17833481
0.17849439
0.1785446
0.17806319
0.17481599
0.16063995
0.150331
0.082199186
0.10921414
0.13653827
0.15623352
0.16802137
0.17391901
0.17635688
0.17718884
0.17718107
0.17706889
0.17698662
0.1768159
0.17679598
0.17678908
0.17678748
0.17679488
0.17680735
0.1768233
0.17684191
0.17686266
0.17688528
0.17690962
0.17693564
0.17696362
0.17699393
0.17702643
0.17706065
0.17709633
0.17713363
0.1771736
0.17721695
0.17726283
0.17731188
0.1773639
0.17741887
0.17747857
0.17754325
0.17761504
0.17769818
0.17779618
0.17791595
0.17805936
0.17822218
0.17837232
0.17839182
0.17779665
0.17407374
0.15901199
0.1505666
0.082628597
0.10979125
0.1371516
0.15671958
0.16830327
0.17401507
0.17633956
0.17710405
0.17707477
0.17696134
0.1768773
0.17671052
0.17669791
0.17669127
0.17669067
0.17669862
0.17671134
0.17672729
0.17674573
0.1767662
0.17678836
0.17681215
0.1768375
0.17686447
0.17689355
0.17692504
0.17695878
0.17699423
0.17703122
0.17707045
0.17711278
0.17715795
0.17720669
0.17725786
0.17731201
0.17737051
0.17743378
0.17750514
0.17758777
0.17768616
0.17780652
0.17794988
0.17810963
0.17824785
0.17823096
0.17750249
0.1732552
0.15721689
0.15010528
0.083117008
0.11042563
0.13779034
0.15720454
0.1685715
0.17409741
0.17631407
0.17701378
0.17696781
0.17685483
0.17676841
0.17660752
0.17660093
0.17659432
0.17659451
0.17660285
0.17661569
0.1766316
0.17664991
0.17667027
0.17669229
0.17671583
0.17674075
0.17676681
0.17679453
0.17682475
0.17685748
0.1768923
0.17692909
0.17696785
0.17700888
0.17705289
0.17710046
0.17715052
0.177204
0.17726169
0.17732424
0.17739555
0.17747802
0.17757714
0.17769802
0.17784121
0.17799724
0.1781212
0.17806029
0.17717471
0.17235368
0.15590424
0.15038608
0.083642982
0.11111359
0.13846222
0.15769867
0.16883493
0.17417233
0.17628394
0.17692028
0.17686112
0.17674957
0.17666032
0.17650712
0.1765054
0.17649867
0.1764994
0.1765078
0.17652035
0.17653581
0.17655364
0.17657362
0.17659553
0.17661913
0.1766441
0.17667
0.17669698
0.1767259
0.17675727
0.17679123
0.17682768
0.17686603
0.17690596
0.17694888
0.17699511
0.17704393
0.17709638
0.17715297
0.17721478
0.17728565
0.17736824
0.17746837
0.17759006
0.17773303
0.17788416
0.17799143
0.17787878
0.17681144
0.17131056
0.15415938
0.15140827
0.084169285
0.11181835
0.13914399
0.15819097
0.16909033
0.17424024
0.17625016
0.1768248
0.17675482
0.17664506
0.1765526
0.17640834
0.17641041
0.17640358
0.17640487
0.17641334
0.17642564
0.17644064
0.17645781
0.17647691
0.176498
0.17652102
0.17654566
0.17657152
0.17659846
0.17662669
0.17665687
0.17668983
0.17672556
0.17676333
0.17680256
0.17684465
0.17688968
0.17693738
0.17698885
0.17704452
0.17710599
0.17717666
0.17725975
0.17736079
0.17748304
0.17762487
0.17776945
0.17785677
0.17768544
0.17639304
0.17011645
0.15214009
0.1524315
0.084659193
0.1124962
0.13980373
0.158664
0.16933078
0.17429939
0.1762125
0.17672795
0.17664903
0.17654097
0.17644507
0.17631053
0.17631541
0.17630856
0.17631045
0.17631918
0.17633148
0.17634626
0.17636292
0.17638105
0.17640088
0.17642275
0.17644647
0.17647187
0.17649876
0.17652671
0.17655606
0.17658796
0.17662253
0.17665934
0.17669795
0.17673921
0.17678305
0.17682957
0.17687992
0.17693471
0.17699598
0.17706674
0.17715083
0.17725326
0.17737633
0.17751665
0.17765319
0.17771716
0.17747128
0.17589735
0.16871825
0.15018729
0.15329797
0.085098194
0.11313425
0.14043427
0.15911558
0.16955685
0.17435086
0.17617145
0.1766305
0.17654383
0.17643717
0.17633791
0.17621346
0.17622025
0.17621332
0.17621574
0.17622476
0.17623736
0.17625234
0.17626894
0.17628659
0.17630534
0.17632584
0.17634824
0.17637264
0.17639905
0.17642676
0.17645574
0.17648673
0.17651995
0.17655556
0.1765934
0.17663369
0.17667627
0.17672156
0.17677063
0.17682448
0.17688552
0.17695657
0.17704197
0.177146
0.17726971
0.17740764
0.17753441
0.17757122
0.17723163
0.17531857
0.16711767
0.14845928
0.15450729
0.085480123
0.11372642
0.14103218
0.15954418
0.16976805
0.17439447
0.17612664
0.17653268
0.1764393
0.17633379
0.17623154
0.17611744
0.17612533
0.17611817
0.17612076
0.17612969
0.17614229
0.17615749
0.17617444
0.17619227
0.17621074
0.17623035
0.17625155
0.17627463
0.17629992
0.17632702
0.17635565
0.17638596
0.17641807
0.17645255
0.17648948
0.1765288
0.17657028
0.17661451
0.17666235
0.17671524
0.17677595
0.17684737
0.17693412
0.17703983
0.17716412
0.17729912
0.17741429
0.17741871
0.17696661
0.17465384
0.16539021
0.1468794
0.15583102
0.085801158
0.11425787
0.14158327
0.1599399
0.16995884
0.17442747
0.17607663
0.17643438
0.17633543
0.17623087
0.17612629
0.17602283
0.17603119
0.1760239
0.17602644
0.17603485
0.17604692
0.17606176
0.17607867
0.17609689
0.17611582
0.17613538
0.17615593
0.17617791
0.17620181
0.17622782
0.17625588
0.17628548
0.17631665
0.17635007
0.1763859
0.1764241
0.17646451
0.1765079
0.17655487
0.17660714
0.17666786
0.17673999
0.17682814
0.17693534
0.17705955
0.17718996
0.17729048
0.17725386
0.17666238
0.17385035
0.16338695
0.14532771
0.15758566
0.086067908
0.11473534
0.14208907
0.1603016
0.1701276
0.17444838
0.17602013
0.17633498
0.17623159
0.17612808
0.17602206
0.17592936
0.17593775
0.17593058
0.17593312
0.1759409
0.17595206
0.175966
0.1759823
0.17600043
0.17601965
0.1760395
0.17605998
0.17608141
0.17610425
0.17612913
0.17615634
0.17618516
0.17621551
0.17624787
0.17628242
0.17631919
0.17635836
0.17640084
0.17644703
0.17649899
0.17655995
0.17663315
0.17672289
0.17683133
0.17695476
0.17707915
0.17716189
0.17707514
0.17629713
0.17286756
0.16115952
0.14382954
0.15957978
0.086320463
0.11518662
0.1425629
0.16063397
0.1702752
0.17445719
0.17595722
0.17623459
0.17612831
0.17602626
0.17591975
0.17583779
0.1758458
0.17583901
0.17584175
0.17584905
0.17585931
0.17587216
0.17588739
0.17590471
0.17592366
0.17594353
0.17596413
0.17598551
0.17600784
0.1760319
0.17605821
0.17608625
0.17611589
0.17614729
0.17618059
0.1762159
0.17625376
0.17629515
0.17634072
0.17639278
0.1764544
0.17652919
0.17662094
0.17673091
0.1768535
0.17697037
0.17703156
0.17688857
0.17589121
0.17169333
0.1586127
0.14250586
0.16175411
0.086565709
0.11566755
0.14305418
0.16096773
0.17041562
0.17445712
0.17588673
0.17612955
0.17602154
0.17592137
0.17581555
0.1757444
0.17575167
0.17574548
0.1757486
0.17575559
0.1757651
0.17577673
0.17579052
0.17580647
0.17582436
0.17584367
0.17586405
0.17588537
0.17590743
0.17593095
0.17595645
0.17598366
0.17601253
0.17604298
0.17607512
0.17610905
0.17614559
0.17618563
0.17623035
0.17628241
0.1763448
0.17642116
0.17651454
0.17662496
0.17674478
0.17685162
0.17688598
0.1766498
0.17528623
0.17028418
0.15582373
0.14166421
0.16416226
0.086852033
0.11609307
0.14346165
0.16123248
0.17051671
0.17444382
0.17581711
0.17603493
0.17592685
0.17582926
0.1757248
0.17566254
0.175669
0.17566352
0.17566717
0.17567422
0.17568338
0.1756942
0.17570676
0.17572133
0.17573789
0.17575612
0.17577588
0.17579696
0.17581885
0.17584213
0.17586709
0.1758937
0.17592208
0.17595206
0.17598366
0.17601691
0.1760527
0.17609194
0.17613642
0.17618903
0.17625275
0.17633144
0.1764272
0.17653903
0.17665815
0.17675614
0.17676157
0.17648405
0.17502618
0.16852059
0.153142
0.14115591
0.166555
0.087311643
0.1169342
0.14425129
0.16172705
0.17069983
0.17441854
0.17569552
0.17587202
0.17576469
0.1756697
0.17557023
0.17552089
0.17552509
0.17552012
0.17552408
0.17553121
0.17554022
0.17555058
0.17556196
0.17557473
0.17558929
0.17560565
0.1756237
0.17564353
0.17566449
0.17568679
0.17571076
0.17573621
0.17576342
0.17579244
0.17582305
0.17585507
0.1758898
0.1759283
0.17597282
0.17602665
0.1760927
0.1761748
0.17627328
0.17638407
0.17649398
0.17656559
0.17649192
0.17595608
0.17319214
0.16508075
0.14827264
0.14273977
0.17247066
)
;

boundaryField
{
    Side
    {
        type            empty;
    }
    Inlet
    {
        type            calculated;
        value           nonuniform List<scalar> 
21
(
0.19934347
0.19935556
0.19937203
0.19938951
0.19941025
0.19943454
0.19945574
0.19948154
0.19951752
0.19955336
0.1995885
0.19963809
0.19970538
0.19976562
0.19983727
0.19994
0.20006877
0.20020667
0.20039497
0.20070616
0.20061835
)
;
    }
    Airfoil
    {
        type            nutkWallFunction;
        blending        stepwise;
        value           nonuniform List<scalar> 0();
    }
    Outlet
    {
        type            calculated;
        value           nonuniform List<scalar> 
49
(
0.087311643
0.1169342
0.14425129
0.16172705
0.17069983
0.17441854
0.17569552
0.17587202
0.17576469
0.1756697
0.17557023
0.17552089
0.17552509
0.17552012
0.17552408
0.17553121
0.17554022
0.17555058
0.17556196
0.17557473
0.17558929
0.17560565
0.1756237
0.17564353
0.17566449
0.17568679
0.17571076
0.17573621
0.17576342
0.17579244
0.17582305
0.17585507
0.1758898
0.1759283
0.17597282
0.17602665
0.1760927
0.1761748
0.17627328
0.17638407
0.17649398
0.17656559
0.17649192
0.17595608
0.17319214
0.16508075
0.14827264
0.14273977
0.17247066
)
;
    }
    procBoundary6to5
    {
        type            processor;
        value           nonuniform List<scalar> 
61
(
0.073143034
0.095507533
0.12110848
0.14275405
0.15864671
0.16929864
0.16929864
0.17502414
0.1778278
0.17903356
0.17922447
0.17903966
0.17903966
0.17895645
0.17879577
0.17866621
0.17863269
0.17850875
0.17850875
0.17850762
0.17851738
0.17853473
0.17855753
0.17848218
0.17848218
0.178512
0.17854433
0.1785789
0.17861568
0.17855169
0.17855169
0.17859268
0.17863608
0.17868212
0.17862689
0.17862689
0.17867862
0.17873392
0.17879324
0.17874988
0.17874988
0.17881757
0.17889049
0.17885982
0.17885982
0.1789435
0.17903514
0.17902476
0.17902476
0.17914114
0.17927951
0.17933736
0.17933736
0.17953762
0.17961101
0.17961101
0.17961278
0.17850442
0.16944019
0.16944019
0.15114464
)
;
    }
    procBoundary6to12
    {
        type            processor;
        value           uniform 0.072398078;
    }
    procBoundary6to13
    {
        type            processor;
        value           nonuniform List<scalar> 
34
(
0.094984853
0.073516773
0.073516773
0.074085389
0.074625431
0.075134006
0.075635996
0.076156065
0.07670157
0.077274366
0.077856091
0.0784047
0.078890064
0.079301725
0.079637333
0.079912524
0.080169786
0.080460489
0.080809914
0.081225575
0.081707611
0.082230727
0.08276747
0.083301084
0.083824754
0.084336421
0.084825198
0.085280379
0.085702128
0.086084395
0.086428575
0.08671919
0.08699885
0.087393231
)
;
    }
}


// ************************************************************************* //
