/*--------------------------------*- C++ -*----------------------------------*\
| =========                 |                                                 |
| \\      /  F ield         | OpenFOAM: The Open Source CFD Toolbox           |
|  \\    /   O peration     | Version:  2506                                  |
|   \\  /    A nd           | Website:  www.openfoam.com                      |
|    \\/     M anipulation  |                                                 |
\*---------------------------------------------------------------------------*/
FoamFile
{
    version     2.0;
    format      ascii;
    arch        "LSB;label=32;scalar=64";
    class       volScalarField;
    location    "2.15";
    object      nut;
}
// * * * * * * * * * * * * * * * * * * * * * * * * * * * * * * * * * * * * * //

dimensions      [0 2 -1 0 0 0 0];

internalField   nonuniform List<scalar> 
1375
(
0.030312299
0.029715572
0.029024156
0.02837258
0.027743238
0.027150262
0.026596872
0.026090005
0.025631673
0.032710548
0.032266579
0.031594981
0.030989365
0.030377715
0.029810364
0.02931269
0.028865295
0.028425994
0.027998676
0.037036009
0.03668266
0.035877853
0.03520033
0.034503042
0.033856287
0.033278746
0.032733026
0.03215806
0.031566381
0.043025065
0.042829341
0.041844138
0.041138918
0.040440713
0.039833346
0.039314393
0.03883594
0.038341638
0.037878083
0.051516361
0.051872378
0.050810872
0.050366749
0.049990559
0.049764342
0.049638296
0.049573668
0.049557976
0.049663379
0.063064944
0.064468559
0.063244739
0.063211426
0.063298586
0.063587553
0.063941612
0.064333703
0.06483213
0.065538898
0.077202756
0.079251015
0.07806902
0.078295317
0.078747835
0.079468978
0.080200677
0.080894955
0.081718157
0.08283245
0.092670305
0.095117879
0.09380747
0.094102393
0.094781714
0.095840678
0.096872387
0.097747065
0.098715061
0.10003962
0.10841308
0.1110269
0.10946301
0.10971493
0.11054687
0.11189901
0.11321716
0.11423156
0.11522523
0.1165975
0.12368808
0.12628791
0.1244733
0.12466741
0.12563259
0.12724585
0.12884746
0.13000989
0.13096216
0.1322494
0.13798717
0.14043055
0.13847869
0.13866565
0.1397578
0.14156929
0.14340286
0.14471749
0.14560049
0.14670354
0.15093017
0.15308064
0.15117749
0.15142469
0.15261582
0.15451914
0.15646117
0.15786884
0.15867058
0.15953684
0.16075761
0.16218706
0.16394815
0.16228902
0.16263431
0.16385718
0.16571494
0.1675938
0.16895458
0.16965475
0.17028921
0.17120873
0.17149453
0.17281942
0.17158468
0.17201282
0.17316783
0.17483383
0.17647313
0.17762769
0.17820086
0.17865259
0.17929256
0.17868331
0.17962247
0.17892434
0.17937474
0.18036232
0.1817103
0.18298251
0.1838501
0.18429352
0.18461932
0.18504463
0.18382799
0.1845311
0.18426392
0.1846801
0.1854398
0.18641354
0.18729567
0.18789271
0.1882241
0.18846673
0.18875024
0.18718485
0.18772061
0.18771954
0.1880703
0.18860053
0.18923499
0.18979663
0.19018939
0.19043562
0.19062564
0.19082736
0.18906606
0.18945242
0.18958234
0.18985886
0.19020748
0.1905968
0.19094328
0.19120398
0.19139175
0.19154872
0.19170677
0.18983801
0.19009253
0.19026406
0.19047438
0.19070621
0.19095065
0.19117496
0.19135993
0.19150999
0.19164357
0.19177546
0.18987603
0.19003237
0.19020188
0.19036409
0.19053265
0.19070514
0.19086937
0.19101504
0.19114194
0.19125766
0.19137147
0.18951012
0.18961133
0.18976782
0.18990273
0.19004268
0.19018515
0.1903241
0.19045201
0.19056727
0.19067362
0.19077879
0.18899201
0.18907667
0.18922413
0.1893489
0.18947981
0.18961339
0.18974478
0.18986773
0.18998049
0.19008601
0.19019021
0.18848292
0.18857525
0.18871956
0.18884422
0.18897511
0.18910898
0.18924112
0.1893657
0.18948095
0.18958976
0.18969571
0.18806081
0.18816903
0.1883131
0.18844152
0.18857533
0.18871223
0.1888482
0.18897664
0.18909566
0.18920789
0.18931513
0.18774407
0.18786693
0.18801204
0.18814554
0.18828263
0.18842151
0.18855893
0.18868897
0.18881019
0.18892432
0.18903225
0.18752093
0.18765501
0.18780291
0.18794168
0.18808025
0.18821772
0.18835266
0.18848162
0.18860323
0.18871744
0.18882517
0.18892723
0.18737237
0.18751329
0.18766363
0.18780575
0.18794438
0.18807951
0.1882113
0.18833816
0.18845856
0.18857201
0.18867986
0.18878397
0.18727159
0.18741797
0.18756751
0.1877102
0.18784815
0.18798174
0.18811197
0.18823772
0.18835752
0.18847064
0.18857848
0.18868295
0.1872078
0.18735526
0.18750312
0.18764532
0.18778316
0.18791604
0.18804494
0.18816896
0.18828754
0.18840083
0.18850972
0.18861594
0.18717064
0.1873194
0.18746668
0.18760924
0.18774666
0.18787789
0.18800387
0.18812605
0.18824423
0.18835834
0.18846785
0.18857318
0.18715242
0.18730044
0.18744598
0.18758743
0.18772338
0.18785369
0.18797914
0.18810132
0.1882195
0.18833269
0.18844082
0.18854481
0.18714596
0.18729333
0.18743694
0.18757624
0.1877101
0.18783895
0.18796391
0.18808496
0.18820166
0.18831318
0.18842024
0.18852331
0.18862301
0.18714949
0.18729649
0.18743819
0.18757513
0.18770685
0.18783405
0.18795677
0.18807526
0.18818931
0.18829916
0.18840541
0.18850838
0.18860765
0.18715958
0.18730516
0.18744463
0.18757967
0.18771027
0.18783616
0.18795714
0.18807375
0.188186
0.18829484
0.18840033
0.18850263
0.18860127
0.18717744
0.18732094
0.1874582
0.18759105
0.18771971
0.18784398
0.18796421
0.18807919
0.18819045
0.18829808
0.18840228
0.18850304
0.18860019
0.1886939
0.18720209
0.18734352
0.18747844
0.18760901
0.18773534
0.18785767
0.18797615
0.18809014
0.18820027
0.18830661
0.18840932
0.18850854
0.18860448
0.18869722
0.18723486
0.18737412
0.18750657
0.18763501
0.18775922
0.18787969
0.18799603
0.18810872
0.18821714
0.18832197
0.18842313
0.18852093
0.18861564
0.18870714
0.18727633
0.18741299
0.18754287
0.1876689
0.18779094
0.18790936
0.18802382
0.18813451
0.18824167
0.18834517
0.18844494
0.18854138
0.18863472
0.18872509
0.18881229
0.18732781
0.18746204
0.18758947
0.18771331
0.18783306
0.18794904
0.18806135
0.18817002
0.1882755
0.18837733
0.18847561
0.18857065
0.18866263
0.18875175
0.18883783
0.18739161
0.18752302
0.18764782
0.18776922
0.18788662
0.1880004
0.18811072
0.18821748
0.18832086
0.188421
0.18851788
0.18861163
0.18870235
0.18879007
0.18887508
0.1889575
0.18747154
0.18760028
0.1877222
0.18784076
0.18795564
0.18806703
0.18817482
0.18827934
0.18838071
0.18847906
0.1885744
0.18866684
0.18875628
0.1888427
0.18892631
0.18900735
0.1890858
0.18757254
0.18769818
0.18781674
0.18793219
0.1880441
0.1881526
0.188258
0.18836047
0.18845998
0.18855644
0.18864992
0.18874054
0.18882843
0.18891364
0.18899623
0.18907628
0.18915398
0.18769887
0.1878208
0.18793602
0.18804867
0.18815787
0.1882639
0.18836691
0.18846694
0.18856411
0.18865851
0.18875022
0.18883932
0.18892591
0.18900998
0.18909154
0.18917066
0.1892474
0.18932187
0.1878587
0.18797692
0.18808857
0.188198
0.18830428
0.18840765
0.18850807
0.18860578
0.18870087
0.18879332
0.18888329
0.18897089
0.18905614
0.18913899
0.18921952
0.18929774
0.18937373
0.18944756
0.18951929
0.18806568
0.18817993
0.18828769
0.18839349
0.18849654
0.18859706
0.18869509
0.18879058
0.18888358
0.18897414
0.18906231
0.1891482
0.18923185
0.18931333
0.18939269
0.18946993
0.18954511
0.18961834
0.18968966
0.18975917
0.18833664
0.18844713
0.18855118
0.18865354
0.1887534
0.18885102
0.18894637
0.18903944
0.18913027
0.1892189
0.18930537
0.1893897
0.18947198
0.18955227
0.18963063
0.18970711
0.18978178
0.18985468
0.18992586
0.18999538
0.19006324
0.19012947
0.18870467
0.18881167
0.18891219
0.18901129
0.18910811
0.18920293
0.18929574
0.18938657
0.18947544
0.1895623
0.18964721
0.18973024
0.18981137
0.18989063
0.18996817
0.19004404
0.19011833
0.19019107
0.19026229
0.19033202
0.19040031
0.19046716
0.19053261
0.18922014
0.18932083
0.18941932
0.189516
0.18961096
0.18970413
0.18979557
0.18988528
0.18997322
0.19005942
0.19014396
0.19022687
0.19030814
0.19038778
0.19046583
0.19054234
0.19061734
0.19069089
0.19076303
0.19083383
0.19090334
0.19097155
0.19103847
0.19110412
0.19116851
0.18871029
0.18890454
0.18904113
0.18918509
0.18932346
0.18945914
0.18959129
0.18972001
0.18984521
0.18996682
0.19008502
0.1902002
0.19031285
0.19042323
0.19053131
0.19063697
0.19074028
0.19084125
0.19093987
0.19103622
0.1911304
0.19122248
0.19131256
0.19140063
0.19148672
0.19157084
0.19165304
0.030999157
0.033656107
0.038422172
0.04503291
0.054197032
0.066301435
0.080840937
0.09649227
0.11221972
0.12732179
0.14130837
0.15379833
0.16453328
0.17333009
0.17999549
0.18464139
0.18756143
0.18911782
0.18968749
0.18962416
0.18922552
0.18871348
0.18822751
0.18783292
0.18754191
0.18733935
0.18720226
0.18711732
0.18705674
0.18702509
0.18701163
0.1870076
0.18701239
0.18702485
0.18704554
0.18707281
0.18710839
0.18715285
0.18720719
0.18727415
0.18735734
0.18746154
0.18759152
0.18775492
0.18796541
0.18823947
0.18861109
0.18912338
0.18855761
0.031655223
0.034592423
0.03980445
0.047028333
0.056879298
0.069584787
0.084453207
0.1001987
0.11582898
0.13068983
0.14431872
0.15634914
0.16657255
0.1748593
0.18102468
0.18524644
0.18781332
0.18910631
0.18950764
0.18935851
0.18893472
0.18843429
0.18797645
0.18761311
0.18734949
0.18716652
0.1870448
0.18697571
0.18691534
0.18689128
0.18688216
0.1868804
0.18688673
0.18690149
0.18692466
0.18695452
0.18699264
0.1870398
0.18709682
0.18716659
0.18725261
0.18735947
0.18749232
0.18765855
0.18787158
0.18814774
0.18852199
0.18902906
0.18840411
0.032346255
0.035559513
0.041196804
0.048990625
0.059477763
0.072722003
0.087864388
0.10365998
0.11916779
0.13377456
0.14704484
0.15864237
0.16840004
0.17620865
0.18189743
0.18572186
0.18797437
0.18903984
0.18929833
0.18907932
0.18863998
0.18815702
0.18773053
0.18739893
0.18715976
0.1869927
0.18689428
0.1868296
0.18677466
0.18675754
0.18675223
0.18675284
0.1867612
0.18677851
0.18680405
0.18683648
0.18687713
0.18692694
0.18698667
0.18705925
0.18714808
0.18725758
0.18739314
0.18756205
0.18777747
0.18805569
0.18843252
0.18893386
0.18824706
0.033103606
0.036622534
0.04269825
0.051049707
0.062132476
0.075851097
0.09122954
0.10705486
0.12243158
0.13677782
0.14968308
0.16084653
0.17014479
0.17746974
0.18268991
0.18612045
0.18807366
0.18893333
0.18906992
0.18879711
0.18835234
0.18789166
0.18749707
0.18719396
0.18697363
0.1868257
0.18674665
0.18668028
0.18663493
0.18662339
0.18662128
0.1866246
0.18663572
0.18665593
0.18668392
0.18671888
0.18676206
0.18681452
0.18687679
0.18695198
0.18704363
0.18715564
0.18729378
0.18746529
0.18768295
0.18796326
0.18834258
0.18883789
0.18808645
0.033921464
0.037808652
0.04437802
0.053316545
0.064983628
0.079132764
0.0947118
0.11053822
0.12575606
0.13981039
0.15231765
0.1630157
0.17183015
0.17864065
0.18339682
0.18644445
0.18811734
0.18879418
0.18883017
0.18851926
0.18807781
0.18764202
0.18727738
0.18699764
0.18679245
0.18666933
0.18659648
0.18653237
0.18649638
0.18648903
0.18648984
0.18649642
0.18651094
0.18653415
0.18656457
0.18660203
0.18664775
0.1867026
0.18676719
0.18684497
0.18693918
0.18705362
0.18719428
0.18736818
0.18758802
0.1878704
0.18825215
0.18874116
0.18792171
0.034772397
0.039081358
0.046209457
0.055779866
0.068036201
0.082589788
0.098337276
0.11412724
0.12914096
0.14285306
0.1549135
0.16510431
0.17340762
0.17968188
0.18398983
0.18668264
0.18810559
0.18862717
0.18858401
0.18824883
0.18781717
0.18740677
0.18706827
0.18680665
0.18662005
0.18652168
0.18644465
0.18638757
0.1863595
0.18635529
0.18635879
0.18636897
0.18638719
0.18641341
0.18644624
0.18648609
0.18653415
0.18659104
0.18665794
0.18673808
0.18683475
0.18695152
0.18709452
0.18727074
0.18749271
0.18777717
0.18816132
0.18864358
0.18775189
0.035622548
0.040362186
0.048090599
0.058326907
0.071179232
0.086123246
0.1020159
0.11773607
0.13250302
0.14582735
0.15740066
0.16705532
0.17483743
0.18057899
0.18446666
0.18684072
0.18804682
0.18843909
0.18833456
0.18798534
0.18756746
0.18718166
0.18686543
0.1866203
0.18646036
0.18637395
0.18629535
0.18624633
0.18622471
0.18622307
0.18622918
0.18624292
0.18626463
0.18629365
0.18632876
0.18637073
0.18642088
0.18647992
0.18654919
0.18663134
0.18673016
0.18684924
0.18699449
0.18717299
0.18739702
0.1876836
0.18807012
0.18854515
0.18757591
0.036439485
0.041567366
0.049894924
0.060801768
0.074246092
0.089571501
0.10559784
0.12123211
0.13573302
0.14865231
0.15972815
0.16884649
0.1761213
0.18135574
0.18485483
0.18694206
0.18795737
0.18823913
0.18808516
0.18772815
0.18732576
0.18696266
0.18666524
0.18643884
0.1863111
0.18622429
0.18614949
0.18610827
0.18609215
0.18609292
0.18610158
0.18611855
0.18614329
0.18617467
0.18621182
0.18625575
0.18630796
0.18636916
0.18644053
0.18652466
0.18662552
0.18674686
0.18689425
0.1870749
0.18730093
0.18758973
0.18797857
0.18844581
0.18739297
0.037204868
0.042653514
0.051539832
0.063085806
0.077096124
0.092787327
0.10894229
0.12449349
0.13873913
0.15127228
0.16187617
0.17048774
0.17728766
0.18205178
0.18519006
0.18701276
0.18785351
0.18803586
0.18783929
0.18747759
0.18709036
0.18674659
0.18646615
0.18626859
0.18616491
0.18607196
0.18600652
0.1859726
0.18596141
0.18596473
0.18597586
0.18599555
0.18602278
0.18605622
0.18609521
0.18614106
0.18619528
0.18625844
0.18633182
0.18641791
0.18652083
0.18664435
0.18679377
0.18697649
0.18720443
0.18749552
0.18788665
0.18834553
0.18720284
0.037920475
0.043629631
0.053015281
0.065141038
0.079666415
0.095692065
0.11196756
0.1274487
0.14147008
0.15366122
0.16384298
0.17199535
0.17836209
0.18269435
0.18549444
0.18706736
0.18774338
0.18783319
0.18759845
0.18723375
0.18686023
0.18653261
0.18627048
0.18610938
0.18601349
0.18592114
0.18586576
0.18583872
0.18583202
0.18583791
0.18585145
0.18587344
0.18590272
0.18593794
0.18597874
0.18602649
0.18608258
0.18614765
0.18622298
0.18631113
0.18641618
0.1865417
0.18669305
0.1868777
0.18710752
0.18740093
0.18779428
0.18824437
0.18700625
0.038610655
0.044555174
0.054391422
0.067034991
0.082013489
0.098327332
0.11470221
0.13011823
0.1439426
0.15583408
0.16564242
0.1733889
0.17934886
0.18328807
0.18576945
0.18710515
0.18762547
0.18762991
0.18736212
0.18699631
0.18663446
0.18632063
0.18608477
0.18595681
0.18585718
0.18577262
0.18572664
0.18570591
0.18570321
0.18571172
0.18572773
0.18575187
0.18578293
0.18581984
0.18586241
0.18591205
0.18596992
0.18603675
0.18611409
0.18620447
0.18631145
0.18643877
0.18659198
0.18677852
0.1870102
0.18730598
0.18770146
0.1881424
0.18680491
0.039303573
0.045494157
0.055760027
0.068880076
0.084260764
0.1008164
0.11725978
0.13259853
0.14623099
0.15784041
0.16730167
0.1746786
0.18024417
0.18382108
0.1860027
0.18711621
0.18749313
0.18742204
0.18712784
0.18676332
0.18641222
0.18611422
0.18591323
0.18580415
0.18569942
0.18562675
0.1855892
0.18557408
0.18557485
0.18558589
0.18560442
0.1856307
0.18566348
0.18570196
0.18574626
0.18579768
0.18585733
0.18592605
0.18600535
0.18609759
0.18620654
0.1863358
0.18649077
0.18667898
0.18691249
0.1872107
0.1876081
0.18803967
0.18660015
0.13499686
0.14841599
0.15973055
0.16884365
0.17586151
0.1810358
0.1842745
0.18617809
0.18708966
0.18734017
0.18720625
0.18689347
0.1865333
0.18619399
0.1859166
0.1857547
0.18564812
0.18554521
0.18548396
0.18545358
0.18544325
0.18544705
0.18546047
0.18548144
0.18550983
0.18554438
0.1855844
0.18563036
0.18568353
0.18574498
0.18581562
0.18589678
0.1859908
0.1861016
0.18623278
0.18638936
0.18657912
0.18681451
0.18711504
0.18751412
0.18793608
0.18638119
0.18630474
0.18597962
0.1857343
0.18560361
0.18549041
0.18539587
0.18534418
0.18531958
0.18531311
0.1853196
0.18533535
0.18535879
0.18538927
0.18542547
0.18546714
0.18551482
0.18556982
0.18563313
0.18570552
0.18578838
0.18588421
0.18599679
0.18612961
0.18628776
0.18647909
0.18671624
0.18701898
0.18741948
0.18783148
0.18611431
0.18518378
0.18519289
0.18521092
0.18523644
0.1852688
0.18530681
0.1853502
0.18539969
0.1854565
0.18552155
0.18559559
0.18568018
0.18577776
0.18589202
0.18602642
0.18618611
0.18637893
0.1866177
0.18692247
0.1873241
0.18772591
0.18588037
0.1852849
0.18534342
0.18541009
0.1854858
0.18557206
0.18567142
0.18578725
0.18592318
0.18608441
0.18627865
0.18651889
0.18682546
0.1872279
0.1876194
0.18567543
0.18546394
0.18556508
0.18568257
0.18581996
0.18598265
0.18617824
0.18641966
0.18672785
0.18713093
0.18751179
0.18545678
0.18571678
0.18588079
0.18607761
0.18632005
0.18662964
0.18703323
0.18740287
0.18522162
0.18622
0.18653085
0.18693484
0.18729256
0.18497067
0.18683572
0.18718092
0.18470716
0.1844347
)
;

boundaryField
{
    Side
    {
        type            empty;
    }
    Inlet
    {
        type            calculated;
        value           nonuniform List<scalar> 
48
(
0.19944371
0.19944295
0.19944198
0.19944054
0.19943879
0.19943796
0.19943813
0.1994392
0.19944058
0.19944241
0.19944654
0.19945245
0.19945662
0.19945895
0.19946088
0.19946274
0.19946401
0.19946503
0.19946625
0.19946762
0.19946894
0.19946988
0.19947031
0.19947038
0.19947009
0.19946976
0.19946943
0.19944378
0.1994426
0.19944079
0.19943982
0.19943932
0.19943848
0.19943736
0.1994365
0.199436
0.19943572
0.19943517
0.19943381
0.19943227
0.19943159
0.19943132
0.19943176
0.1994327
0.19943392
0.19943501
0.19943571
0.1994355
)
;
    }
    Airfoil
    {
        type            nutkWallFunction;
        blending        stepwise;
        value           nonuniform List<scalar> 0();
    }
    Outlet
    {
        type            calculated;
        value           nonuniform List<scalar> 0();
    }
    procBoundary3to2
    {
        type            processor;
        value           nonuniform List<scalar> 
65
(
0.02762577
0.031023889
0.03754916
0.049971982
0.066470835
0.084192798
0.10164704
0.11829635
0.13390091
0.14818602
0.14818602
0.16202798
0.1722072
0.18001627
0.18554042
0.18908325
0.1910556
0.19187355
0.19190887
0.19148841
0.19088948
0.1902981
0.18980089
0.18941745
0.18913336
0.18913336
0.1890269
0.18888682
0.18878563
0.18872009
0.1886751
0.18864627
0.18864627
0.18871914
0.1887031
0.18869624
0.18869624
0.18878438
0.18878664
0.18879518
0.18879518
0.18889628
0.18892094
0.18892094
0.18903703
0.18903703
0.18916202
0.18922944
0.18922944
0.1893942
0.1893942
0.18958903
0.18958903
0.18982689
0.18982689
0.18989288
0.19019412
0.19019412
0.19059667
0.19059667
0.19065937
0.19123167
0.19123167
0.1912936
0.19173338
)
;
    }
    procBoundary3to4
    {
        type            processor;
        value           nonuniform List<scalar> 
57
(
0.046491414
0.05719331
0.07077489
0.086527047
0.10328715
0.11976388
0.11976388
0.13736448
0.15053316
0.16152204
0.17026918
0.17692509
0.1817091
0.1846334
0.1862855
0.18702041
0.18716494
0.18698215
0.18665825
0.18665825
0.18607761
0.18577209
0.18556729
0.18545227
0.18533327
0.18525083
0.18520674
0.18518683
0.18518683
0.18505535
0.18506714
0.18508735
0.18511485
0.18514891
0.18518849
0.18523362
0.18523362
0.18517036
0.18523048
0.18529872
0.18537602
0.18537602
0.18535575
0.18545873
0.1855779
0.1855779
0.18561345
0.1857788
0.18597671
0.18597671
0.18611951
0.18643148
0.18643148
0.18673591
0.18706806
0.18706806
0.18415533
)
;
    }
    procBoundary3to10
    {
        type            processor;
        value           nonuniform List<scalar> 
23
(
0.030420891
0.029791853
0.029040447
0.028350431
0.027720318
0.027121972
0.026524373
0.02598194
0.02522112
0.025572035
0.02522112
0.031109146
0.031756875
0.032432012
0.033132562
0.033832787
0.034535539
0.035273124
0.036067784
0.036904888
0.037750919
0.038576286
0.039369535
)
;
    }
    procBoundary3to11
    {
        type            processor;
        value           uniform 0.040017673;
    }
}


// ************************************************************************* //
