/*--------------------------------*- C++ -*----------------------------------*\
| =========                 |                                                 |
| \\      /  F ield         | OpenFOAM: The Open Source CFD Toolbox           |
|  \\    /   O peration     | Version:  2506                                  |
|   \\  /    A nd           | Website:  www.openfoam.com                      |
|    \\/     M anipulation  |                                                 |
\*---------------------------------------------------------------------------*/
FoamFile
{
    version     2.0;
    format      ascii;
    arch        "LSB;label=32;scalar=64";
    class       volVectorField;
    location    "0.0001";
    object      wallShearStress;
}
// * * * * * * * * * * * * * * * * * * * * * * * * * * * * * * * * * * * * * //

dimensions      [1 -1 -2 0 0 0 0];

internalField   uniform (0 0 0);

boundaryField
{
    Side
    {
        type            empty;
    }
    Inlet
    {
        type            calculated;
        value           uniform (0 0 0);
    }
    Airfoil
    {
        type            calculated;
        value           nonuniform List<vector> 
1047
(
(144.63808 -457.63413 -5.9708804e-24)
(133.5286 -423.68725 -1.1411653e-18)
(134.2263 -427.42493 4.1154139e-19)
(137.1318 -440.94265 7.4721291e-19)
(131.43921 -425.85966 0)
(135.0292 -437.14751 -1.1972726e-18)
(131.40576 -428.48842 4.5625981e-24)
(131.61271 -430.83247 -1.2278703e-18)
(132.99114 -434.71846 7.8240904e-35)
(133.7719 -436.56135 1.0099857e-18)
(133.60384 -435.48508 4.4759729e-24)
(134.59489 -437.04565 2.7268762e-19)
(134.94408 -436.88585 -4.471596e-24)
(136.00195 -438.62202 1.1446385e-18)
(137.34683 -439.11188 -1.4113321e-18)
(137.84891 -437.45603 -4.3927429e-24)
(138.50414 -436.95747 0)
(139.02707 -435.00096 -2.564848e-19)
(139.68982 -434.21415 0)
(139.94363 -431.34528 2.1466821e-19)
(141.57432 -431.10415 9.1341989e-24)
(143.47443 -430.68462 1.624941e-19)
(145.76753 -430.97681 -1.70443e-18)
(147.63843 -430.23681 1.5698469e-18)
(149.82852 -430.28072 -7.5231638e-37)
(153.41878 -432.18437 -1.5328238e-18)
(152.72102 -423.29623 5.1167742e-20)
(156.38569 -428.63169 6.9589266e-35)
(157.33387 -427.35672 1.6570181e-18)
(159.69679 -429.71073 1.880791e-37)
(162.52168 -431.98118 -3.5289374e-35)
(166.42079 -437.4168 1.880791e-37)
(170.94656 -442.79457 1.8202849e-18)
(170.78394 -438.32675 1.7441505e-18)
(170.28425 -434.2903 -1.6444657e-18)
(174.18839 -438.59264 1.8025954e-18)
(177.86739 -441.82586 7.616375e-24)
(183.31123 -448.89973 1.8761381e-18)
(187.64832 -454.5291 -1.880791e-37)
(187.29653 -450.75938 -1.0520805e-19)
(190.62729 -455.19024 -1.8929514e-18)
(194.08146 -458.64647 3.7788155e-24)
(195.19008 -458.96924 -1.9784531e-18)
(195.71497 -456.84778 -2.087018e-18)
(200.0761 -458.68724 -3.043916e-24)
(209.21868 -466.61892 -8.196055e-20)
(219.76397 -480.80058 -1.880791e-37)
(215.68254 -464.76 7.5037724e-24)
(144.55677 -433.54883 1.9260709e-18)
(-3799.0423 -680.94196 8.9032692e-18)
(-3857.5105 -139.5917 3.1807965e-22)
(-2729.6617 -431.28653 7.5627865e-18)
(-2599.6114 679.98106 -1.3026028e-17)
(-2254.2359 136.45162 -1.880791e-37)
(-3492.0946 310.62941 -3.294534e-22)
(-2905.9381 -379.03966 -4.5959616e-18)
(-2106.8177 256.17009 -3.1428367e-23)
(2507.2122 2885.4844 5.5142711e-18)
(2680.1444 2985.924 -1.880791e-37)
(2581.0238 2996.9222 -5.0241962e-18)
(1963.8858 2428.3307 4.514768e-18)
(1950.7973 2953.0336 -1.1492464e-17)
(721.89573 -9.9754078 -1.9202317e-18)
(176.79746 -323.09355 -5.776214e-18)
(-677.75106 -960.80129 -5.8677905e-23)
(-3696.8514 -1256.0782 -2.4957812e-22)
(241.6099 -175.55663 1.4793604e-22)
(380.46198 1879.5812 6.2796652e-18)
(-2187.7713 242.58884 3.7615819e-37)
(-188.50651 2486.0993 -2.9340339e-35)
(-184.8871 -547.16241 -3.6601294e-19)
(2734.8675 -4761.4177 -9.5450779e-18)
(386.18564 -2094.6616 0)
(-1372.6881 -1265.8502 3.2569504e-23)
(-1902.89 -1770.8678 -2.263625e-22)
(4628.3727 5940.0212 5.3991732e-22)
(1313.0158 1206.4854 -2.4325598e-22)
(1717.6354 -5088.2363 -7.7676667e-35)
(-2110.9749 -26.400098 -3.6333737e-18)
(-872.16071 -1055.2153 0)
(-801.09945 -964.10758 -4.9659861e-18)
(77.605655 -836.1245 5.0985127e-23)
(437.08293 -295.6905 -1.7662179e-23)
(475.10927 -255.80935 -8.4845019e-24)
(291.29292 -622.75883 2.2106706e-23)
(-360.42807 -1018.7808 -3.1857749e-23)
(696.96947 -994.17758 -1.1211665e-17)
(-76.013336 -596.38696 8.2399644e-18)
(-3360.5513 544.97603 7.965575e-18)
(3673.4074 -2407.4871 7.5231638e-37)
(-119.80475 -1225.7509 6.4873773e-18)
(-1863.965 723.85165 -3.3278849e-23)
(-40.045316 -1686.153 -7.9940178e-18)
(-798.96101 -2247.899 -6.2913331e-23)
(-521.87875 -1259.7436 2.9856711e-22)
(2117.5818 -1754.7192 6.1242491e-18)
(1298.5499 -470.37799 -2.5202599e-35)
(1330.1132 -101.81139 3.4584881e-35)
(-363.49896 -967.04379 -3.5970127e-35)
(595.26104 -1684.423 7.029086e-18)
(-240.16239 -900.06267 -4.4758491e-18)
(1008.7514 -1528.3873 -1.2562361e-22)
(-139.7509 -686.93389 -8.0671882e-24)
(181.17819 -640.66754 2.3187208e-23)
(461.41869 -429.74999 0)
(-2269.4509 -1831.0408 -2.7809312e-18)
(1372.2328 -479.35189 -4.5995785e-23)
(379.87766 -244.27825 6.8926831e-19)
(351.40667 -178.33365 3.8532459e-23)
(289.25447 -178.48638 -1.1107111e-18)
(-3116.5916 2170.0205 -7.3161961e-22)
(-1942.9761 1982.566 4.3722839e-18)
(126.32896 -240.4875 -1.2760837e-18)
(404.86294 -286.73963 1.2422377e-19)
(-1129.0704 1580.9096 2.8466558e-18)
(1372.7498 -652.94696 -8.9765264e-23)
(222.83476 -230.52578 -3.4384942e-19)
(2857.4678 -693.0785 6.3810767e-18)
(3267.0717 -602.18961 3.989614e-22)
(104.92223 -31.907651 1.3769219e-19)
(1026.7179 -127.75123 2.3509887e-38)
(192.47406 -42.177898 5.7039358e-19)
(386.76122 -27.016281 1.2479861e-19)
(256.33166 -100.62353 -5.5030341e-20)
(-794.04708 -1161.4185 -1.9958274e-39)
(162.72373 5.2401301 5.3849805e-20)
(342.54904 5.3472337 0)
(1355.9958 707.92084 -3.0262468e-19)
(-740.65347 -7599.7236 -1.8410314e-23)
(-2612.4657 7163.8439 -3.11071e-18)
(975.98368 -330.44693 -1.8857008e-23)
(-980.71901 -1334.2641 -2.5801419e-18)
(-1603.2921 -1427.2251 -1.5593785e-18)
(-739.69266 793.53206 2.1131021e-23)
(-1987.7503 1288.6804 4.4628722e-23)
(3435.9697 1421.8878 1.2200293e-17)
(-1698.6681 180.06353 -2.1373625e-18)
(106.12199 -35.974859 -9.1731653e-21)
(-850.07788 458.90638 -1.038664e-22)
(-662.1802 170.58423 -2.1486244e-18)
(265.37356 246.83831 -8.7782024e-19)
(543.23584 -3186.0429 2.2879582e-18)
(-10.682148 -2565.0229 -3.1814301e-18)
(-261.20939 -2441.7644 3.5032716e-22)
(258.07907 422.37492 1.7913432e-35)
(-1713.3807 254.18939 1.6427365e-22)
(275.3823 181.20436 -2.0314219e-22)
(284.66474 179.18485 3.7615819e-37)
(482.01748 328.99991 -2.3104039e-19)
(1429.4154 983.4801 9.3674429e-18)
(332.13401 187.97988 1.7905447e-18)
(-194.25024 -1302.0951 4.3894019e-18)
(-56.602962 77.628122 3.7615819e-37)
(1398.0264 1272.9648 5.4467238e-39)
(2523.7601 2206.9429 -2.0987864e-39)
(1564.1239 1473.1596 -4.0248927e-35)
(-254.03199 -951.94172 7.1522153e-18)
(4537.6689 4402.9982 -1.880791e-37)
(3363.2499 3196.3749 -2.0710681e-17)
(-119.01205 -719.9166 0)
(2597.7745 2794.1009 -2.3255346e-17)
(233.49756 216.41841 1.8403781e-23)
(273.75694 300.95368 -2.2152689e-23)
(-23.759739 46.110414 1.2363574e-34)
(622.85651 771.29281 0)
(-1301.85 -358.18974 -5.6967021e-18)
(363.38558 -97.288077 7.1174616e-19)
(1149.9913 1414.9701 2.3878037e-22)
(-1671.9117 -1524.3684 -8.9815163e-18)
(-622.22367 -799.07457 -1.0622763e-17)
(1722.5403 2307.5176 -2.5660328e-22)
(426.87784 580.78764 2.3340511e-22)
(1237.5454 1693.5049 7.1474648e-35)
(557.08847 -100.23192 0)
(949.85809 1699.3871 -8.3493598e-18)
(124.50317 183.03331 1.220691e-22)
(1069.2786 1573.0852 1.420148e-18)
(1158.3664 1761.2867 1.3004402e-17)
(655.91388 1022.8348 -3.7615819e-37)
(960.32631 1527.6506 1.4007084e-18)
(405.757 673.31358 -2.6001323e-18)
(292.21324 464.99415 -2.3965966e-18)
(307.0184 506.84094 2.9995553e-23)
(102.90187 187.20507 -2.8738754e-23)
(238.60462 396.63885 -1.981082e-18)
(384.32993 658.02768 -2.5194673e-23)
(99.477876 182.53128 6.4877e-19)
(64.744537 158.07966 -6.5566986e-19)
(-1489.5416 -272.35972 -1.1754079e-17)
(340.88715 526.55543 3.0944956e-24)
(157.45218 293.9123 -1.7871406e-23)
(160.23831 121.09755 -8.1622818e-19)
(127.07395 927.37422 -5.1905881e-18)
(-628.59801 -1994.8861 1.2985087e-17)
(54.009777 1188.508 4.4269749e-18)
(141.77371 531.64672 -2.3848543e-18)
(85.847079 103.95037 -6.6354455e-19)
(-6087.6046 1618.6972 -1.0430281e-17)
(-201.90622 526.46513 -4.9317413e-20)
(-182.00015 469.39757 -6.9428461e-20)
(-6631.0851 1311.5059 2.8945353e-22)
(-6416.6826 2268.6123 -1.7085998e-22)
(-164.04007 537.1968 -2.7877743e-19)
(-3591.6537 1293.035 9.5969489e-23)
(-217.06806 443.45819 -7.3190269e-23)
(147.94961 332.66567 -1.2434499e-18)
(75.421379 219.06236 -1.3102315e-22)
(-3231.8853 492.66359 1.2453036e-22)
(-7527.4547 2165.9691 1.2168203e-39)
(-8187.7491 1958.5387 -2.9570657e-22)
(-7468.2787 1750.1602 -4.2760672e-18)
(-4549.9653 214.43272 1.5252273e-17)
(-84.487892 307.9924 -5.7032074e-24)
(192.99027 593.11002 -4.3391165e-23)
(554.50523 575.18775 -2.8198392e-18)
(317.79295 800.6082 -1.0053953e-19)
(249.40418 624.40082 -2.6800415e-18)
(292.07256 755.58676 -5.9056836e-35)
(337.09546 697.30979 4.0776108e-19)
(-4376.5738 943.27992 3.7615819e-37)
(-598.55273 279.47073 -2.2211148e-18)
(-1983.9302 432.85679 4.3485448e-18)
(53.724206 285.54081 4.0404123e-19)
(-4936.0343 -11652.118 4.4126357e-17)
(-1240.7855 -1984.2291 0)
(3023.5739 8704.3296 1.4100043e-17)
(-495.61275 -941.17591 -7.4795872e-18)
(-59.085199 45.193442 -2.8664181e-18)
(766.00214 1669.8931 -5.4836846e-23)
(1972.3249 -1625.8358 -1.8201559e-22)
(-2418.8558 -41.674978 1.8930735e-22)
(985.54147 2959.9071 0)
(116.94962 216.93192 8.2592149e-19)
(233.02362 764.31662 -4.6312976e-23)
(260.13216 -1189.1212 4.752591e-23)
(18.817439 18.319913 1.1590028e-18)
(-848.3236 -1532.1959 1.7820607e-22)
(-1263.1994 -1916.4888 -1.8716845e-17)
(-1166.9945 -1435.24 1.4641477e-22)
(-1471.1946 -1016.3061 4.3280865e-18)
(106.07924 120.23742 7.8694204e-23)
(433.06969 1591.0488 9.0567664e-23)
(498.20549 1602.8135 -8.8925154e-23)
(645.85427 1887.963 -1.4638323e-18)
(2160.9653 5437.4822 1.2979311e-22)
(1080.0014 -2294.503 -4.7381637e-18)
(-92.057721 246.3293 4.7019774e-38)
(261.46948 133.91427 2.0031527e-18)
(1088.5833 401.64589 -1.5308448e-22)
(-4272.3548 1569.5953 5.5349532e-18)
(-141.72417 1039.3159 2.7828173e-23)
(-74.303439 -494.61068 2.3733262e-20)
(1.4816477 495.71924 -1.864011e-18)
(1643.9618 567.12293 -1.5611437e-18)
(2206.2954 458.00784 1.2414732e-24)
(2038.9202 255.58842 -4.9368458e-18)
(1894.7327 317.55654 -4.9608099e-18)
(1630.1674 102.34307 6.2068366e-18)
(1499.7288 122.96978 -3.5003732e-18)
(148.74003 329.27608 2.3730631e-18)
(-353.94201 451.10446 1.17708e-18)
(-335.13581 471.22059 -1.2144364e-18)
(-228.27017 399.43274 -2.2036619e-18)
(-45.616346 335.78281 -5.5174058e-24)
(-228.51645 506.6701 -8.9683102e-44)
(-326.82905 412.21524 5.1140279e-24)
(-451.89637 351.07403 2.6295252e-18)
(96.098774 -285.96558 1.0773939e-19)
(-337.52929 338.70836 2.6895311e-35)
(-280.21772 306.22428 -8.5835216e-18)
(-211.51093 357.79322 5.2172082e-18)
(-251.23879 350.58741 -1.4685342e-18)
(-191.3836 360.74558 -8.6945979e-18)
(-27.788214 314.91487 -4.4184268e-24)
(-199.54619 331.72712 4.8414287e-18)
(-337.05098 364.25871 0)
(-370.58865 331.906 4.5410779e-18)
(-357.86602 332.36494 4.7019774e-38)
(-346.21716 289.49786 9.4039548e-38)
(-415.67027 278.32851 3.0936849e-18)
(-168.50878 365.30798 4.5409516e-18)
(-22.817251 -169.32091 7.2316412e-35)
(56.798789 482.88793 -5.2302412e-18)
(-369.04982 304.90052 -3.0435442e-18)
(-377.95956 471.14247 3.0633297e-18)
(-374.77997 481.91653 8.8670259e-24)
(-370.94985 292.15814 6.820655e-18)
(-343.74964 139.5178 2.7825743e-18)
(-380.20067 311.70077 -5.9455024e-24)
(-369.90247 362.60915 3.9635226e-18)
(-262.9208 328.03477 3.9202406e-18)
(-14.21432 560.16173 2.0857663e-18)
(-1264.2329 489.18446 6.6761135e-18)
(-63.121918 540.54176 -6.284205e-24)
(-13.142968 -93.738901 6.0713274e-24)
(-224.45925 94.077244 0)
(-57.947375 454.70674 4.7019774e-38)
(-308.64808 169.44981 2.47378e-18)
(-238.11837 532.71832 -7.4525732e-24)
(-120.77585 255.90024 7.2420921e-24)
(-312.81098 252.20996 -5.8767694e-18)
(-191.46654 410.6372 4.0201714e-18)
(203.21962 716.67947 5.7305912e-18)
(-210.71206 865.49682 1.1251559e-23)
(-155.88787 897.40502 0)
(-8.7388486 -183.28744 -1.2533091e-18)
(-371.49886 277.13521 4.6931278e-18)
(-376.1147 326.43882 -6.8865647e-18)
(-371.20566 240.44027 1.0912652e-23)
(-394.32786 219.06551 5.783001e-18)
(-1216.2588 574.05808 6.2347978e-24)
(-344.93382 420.09121 4.7482262e-24)
(-15.910363 -105.69639 -4.7168247e-24)
(-839.55475 540.387 7.8388238e-18)
(-249.39061 343.77133 4.7019774e-38)
(-412.50262 504.49701 -7.9038543e-18)
(-405.24849 202.33516 -5.5351356e-18)
(-202.81086 233.09025 -4.5721984e-18)
(-194.45866 377.54938 6.2005167e-24)
(-419.18761 344.95113 -1.0873768e-17)
(-1215.3193 719.26759 5.2636708e-18)
(-33.041061 -84.714513 -5.4623833e-24)
(-352.09585 509.57946 7.3916447e-24)
(-1842.6838 693.19959 1.2919512e-17)
(-280.05644 167.037 -4.6174483e-18)
(-299.71554 241.50034 -5.5374584e-24)
(-380.76677 359.38968 5.5197126e-24)
(-407.84422 478.3008 7.3585083e-18)
(-328.76405 346.89836 -4.5887655e-18)
(-384.14061 285.48415 -4.7019774e-38)
(-395.63115 428.06186 6.8602932e-18)
(-4.7672883 -94.017825 -2.8316684e-18)
(-11.153075 -97.420662 -2.382492e-34)
(-9.1111756 -85.101152 2.3509887e-38)
(-326.26311 265.23581 -4.5217633e-18)
(-301.29679 132.95802 9.907485e-18)
(58.386602 -204.20262 -3.9524748e-24)
(-56.503395 388.43052 3.9378461e-24)
(-338.24846 537.41992 6.2502301e-24)
(-1123.7515 387.03649 -5.8551102e-18)
(-1902.292 642.74294 -1.1537238e-17)
(-1727.2432 590.88095 2.1537765e-24)
(-12.093596 -104.09622 4.322583e-24)
(-53.752928 56.211254 -4.1691326e-18)
(-201.7867 240.08825 4.3962339e-18)
(-126.66228 191.50537 9.4007562e-18)
(-11.12231 -103.14781 3.4540659e-24)
(-62.591645 366.2022 5.3969567e-24)
(-266.50741 242.86564 -5.3777064e-24)
(-1145.7482 392.63231 -1.6915354e-40)
(-1750.4184 564.80971 -8.4400494e-36)
(-96.627163 577.89073 -1.3054723e-17)
(-152.32858 73.503387 4.6421356e-24)
(-300.05221 374.02257 -4.6635743e-24)
(157.95968 708.07864 -7.897438e-24)
(-289.91074 524.31613 -7.4443684e-18)
(-357.79509 276.15722 -1.3144857e-18)
(-696.0102 209.82585 4.2485037e-18)
(-1183.8987 656.26774 -4.659362e-18)
(-735.9623 587.85136 7.1477099e-24)
(-337.09613 482.95079 6.4990747e-35)
(-471.27758 536.88507 -7.0013668e-24)
(-1159.7182 646.39212 1.2483521e-23)
(-264.89087 92.59183 -5.3182469e-24)
(-316.13136 308.95887 -1.0179245e-17)
(-281.67881 255.93824 5.4238877e-18)
(-295.10359 306.46048 -5.8025882e-18)
(-321.00458 298.88972 4.2633189e-18)
(-321.91977 417.19409 4.4321197e-18)
(-301.54125 485.02793 -4.5699597e-18)
(-256.69992 526.5144 6.7707035e-24)
(-797.07977 654.70534 -6.7262326e-44)
(-226.35521 489.59003 -7.8839323e-24)
(75.46369 795.04284 -1.4494478e-24)
(69.698589 863.22777 5.5844737e-18)
(2218.0416 586.87556 9.7403385e-18)
(2843.1353 500.05617 -4.6309794e-35)
(-116.89999 495.22475 7.2248456e-18)
(-282.07161 365.54722 -1.1100338e-23)
(-266.88763 171.67826 4.2135804e-18)
(-355.673 214.69448 4.4028831e-18)
(2695.7591 420.03809 7.1853803e-24)
(-1176.636 507.33675 -7.0615409e-24)
(-2014.6635 914.4188 -5.0476411e-18)
(1495.8317 500.99337 7.0529661e-38)
(-339.16112 467.20557 6.9026106e-18)
(-355.12991 639.54759 7.0625042e-24)
(-339.08996 478.8314 -7.0119424e-24)
(-341.20202 478.78836 6.2191506e-24)
(-334.4402 420.85762 -9.1908229e-25)
(-323.7799 231.00757 -3.4894649e-25)
(-328.03323 326.23049 4.4658383e-18)
(-260.7953 295.34169 0)
(-14.24501 -156.17197 8.8439038e-19)
(-323.48694 153.46297 1.9865855e-35)
(-353.48082 568.28111 -4.8025585e-18)
(-317.96045 403.73636 6.510784e-24)
(-340.57658 249.18876 5.4608877e-18)
(-335.08333 104.85646 -4.7115426e-18)
(78.689275 -241.91155 -8.4435755e-19)
(-6.0389759 -83.740828 0)
(-346.80535 376.44183 1.1754944e-38)
(-272.69595 563.64976 7.720996e-18)
(53.40428 778.94184 -5.3080449e-18)
(-214.79389 809.31778 -5.0922683e-25)
(-167.76358 936.12163 -5.7306486e-18)
(-196.17278 914.55016 0)
(-338.01824 769.26492 -2.6629628e-18)
(-342.3035 421.4283 3.388514e-18)
(-341.50433 251.42738 2.928232e-18)
(-365.13285 570.30687 -2.4578728e-18)
(-335.50059 711.03273 4.4669546e-18)
(-399.77666 506.08215 -1.2896056e-18)
(-358.2729 412.04414 9.1835496e-41)
(-347.0932 437.02983 5.9867199e-24)
(-314.80782 366.52454 -1.1979786e-23)
(-268.60204 449.34415 -1.8353803e-24)
(15.648149 843.2805 1.6810842e-23)
(-343.69165 635.12603 -6.712253e-18)
(-360.33222 315.81308 3.5264831e-38)
(-352.50788 467.8714 5.8774718e-39)
(-331.51012 440.23537 3.4946263e-18)
(-308.12559 193.67226 2.2346812e-18)
(-289.74294 330.64709 -2.9882834e-18)
(-284.07542 276.82015 4.8434761e-18)
(-336.68949 331.16567 3.023615e-18)
(-323.12326 296.50683 -5.365311e-24)
(-261.56064 138.08513 -2.0348341e-18)
(-243.55517 204.80097 2.7111601e-18)
(-297.48486 264.013 2.0917073e-18)
(-261.12928 158.79662 4.4228166e-18)
(-320.77416 199.08442 2.3509887e-38)
(-420.29143 682.42586 -1.5225715e-35)
(-412.32183 723.78907 1.7077372e-23)
(-362.26638 699.30001 -4.5334233e-18)
(-323.35771 377.80695 -5.4947492e-18)
(-243.82859 253.41958 5.4065857e-18)
(-84.933565 658.47857 -1.4605517e-35)
(-194.61749 443.3565 2.5755351e-18)
(-122.50938 457.46255 4.967933e-35)
(57.569219 530.48524 -1.6123901e-40)
(-138.94643 476.97603 -1.6026742e-23)
(-3044.2433 940.89447 2.7865541e-18)
(-1168.9936 634.56387 1.722709e-23)
(-324.33543 419.87262 1.1373573e-18)
(-221.567 196.99987 -1.1060507e-23)
(-211.86771 343.62873 -2.4581214e-18)
(-303.27592 420.9272 -3.456072e-18)
(-306.04811 461.55738 -3.6383552e-18)
(-380.50179 308.71994 -3.139109e-18)
(-338.97855 245.2974 -1.5775437e-25)
(-344.33438 327.9639 1.0992286e-23)
(-261.85202 646.72218 -8.2651947e-40)
(28.00107 869.26337 2.5286243e-18)
(-105.2802 831.66711 -5.3308501e-18)
(-894.69152 383.01697 -3.0870685e-24)
(1730.5724 352.80607 -1.9047805e-18)
(-279.78326 308.32129 -1.215265e-18)
(-353.70832 373.72838 -1.3408018e-25)
(-299.0958 297.38422 -1.1794095e-18)
(-188.33247 177.70348 2.0028945e-23)
(-314.4105 201.01202 1.0764031e-24)
(-347.74715 314.3183 -1.0807378e-23)
(-346.7376 387.51523 -2.753047e-40)
(-293.22479 235.73068 1.153325e-23)
(-314.68664 363.27227 -5.2015446e-19)
(-296.09869 383.44572 -1.7811885e-18)
(-279.16796 274.8533 1.2096268e-23)
(-322.22187 355.6608 1.7232645e-18)
(-248.82008 273.14686 -8.8162076e-39)
(-210.37573 269.13078 -1.6395207e-18)
(-303.25782 400.02844 -1.9054235e-18)
(41.931933 -181.57025 -1.1754944e-38)
(-317.97009 421.66605 -1.5939112e-23)
(-1218.7576 668.78226 -3.7537063e-18)
(-5.8057299 -208.9022 2.0522659e-19)
(-211.63638 586.44905 -1.1580515e-18)
(-194.18201 339.04306 -2.8265488e-23)
(1220.3013 368.02516 -6.1806717e-19)
(29.07923 562.95281 -1.8236882e-18)
(-597.25932 698.78804 6.6121557e-39)
(-337.14996 450.81197 3.4514692e-19)
(1877.3579 1023.19 4.0407618e-39)
(-297.66359 848.53629 -8.0707399e-19)
(2094.7794 845.62518 2.2616888e-23)
(-236.64961 337.48008 -6.8123512e-19)
(-161.50784 395.16833 1.0261331e-18)
(-258.36925 403.56463 -3.4237403e-19)
(7.7761151 623.88788 1.0058674e-18)
(-447.93118 974.39756 2.2489649e-23)
(-156.97967 676.40098 6.5978254e-19)
(977.86054 782.11941 -2.164379e-36)
(-258.38314 673.74855 -3.8892579e-19)
(-295.03121 490.13076 -2.7550649e-40)
(-240.95051 792.15832 -2.0701501e-23)
(162.55694 622.03526 2.0578838e-23)
(123.33208 703.77195 7.2857947e-20)
(658.31814 1090.103 2.5505168e-23)
(-219.754 791.69844 -4.7099368e-20)
(-280.56836 463.59847 -3.2103832e-24)
(-226.60705 432.98887 -1.6232385e-23)
(-199.09422 422.02767 -4.3880496e-20)
(-205.92949 458.32901 2.9804258e-19)
(-170.94836 499.44913 1.6996578e-23)
(-172.53629 701.49077 -1.5033663e-19)
(-201.13012 835.43973 -2.2795334e-23)
(-132.87474 423.76488 4.1626805e-19)
(13.869037 392.5586 -1.4693679e-39)
(37.741948 383.03637 -5.645912e-19)
(-120.77372 480.43297 -1.651353e-23)
(-53.213304 474.48521 -1.7318903e-23)
(-219.80137 457.19737 3.4220212e-23)
(-172.39877 409.96572 -4.1383561e-19)
(-141.37658 440.59126 3.8923195e-19)
(-67.7993 508.05884 8.5180629e-19)
(-61.544916 498.1834 2.9387359e-39)
(-15.630095 450.80508 -8.3065215e-19)
(-34.622861 459.49928 -1.7617905e-23)
(-32.832464 493.5726 -1.2921031e-18)
(-33.272493 455.13722 -8.4671213e-19)
(-69.640076 450.67118 -1.7790773e-23)
(-35.634308 451.68714 1.7903819e-23)
(-66.366093 457.16062 -8.6265841e-19)
(-107.82166 479.44242 -2.2040519e-39)
(-194.05622 499.76067 -1.8990163e-23)
(-190.55306 470.60467 1.9071798e-23)
(-110.94712 474.09269 1.3435789e-18)
(-179.98654 487.02619 4.5387202e-25)
(-110.13291 515.00421 5.4625504e-25)
(-76.933776 540.63978 -2.0312471e-23)
(-84.777725 522.13384 1.8745029e-18)
(8.5493308 579.95511 -3.0320039e-18)
(-112.27608 577.23963 1.1346057e-18)
(-192.49392 573.98375 -2.1898085e-23)
(128.09201 573.60742 -8.8162076e-39)
(-142.38364 512.7344 -2.9612968e-18)
(-143.65481 585.5638 -1.8367099e-40)
(-133.44048 481.36885 -1.9282372e-18)
(-71.425513 475.57236 -3.6734198e-40)
(-154.4409 486.01695 -2.9030706e-18)
(-148.91834 552.26617 -2.1375988e-23)
(-141.70412 469.08679 2.9294058e-18)
(-187.91527 466.70113 -2.2010546e-23)
(-241.96458 579.82704 3.1812082e-18)
(-371.09319 528.95579 4.9611178e-18)
(-378.5402 518.58818 5.8774718e-39)
(-255.97412 415.20082 1.9583164e-18)
(-363.26322 460.10467 2.2609958e-23)
(-535.01819 526.65289 -2.2868252e-23)
(-527.69884 452.25925 -1.1754944e-38)
(-597.39882 458.60014 3.238179e-18)
(-654.28725 688.45908 6.3225633e-18)
(-636.69973 934.56599 4.6896055e-18)
(-555.20341 674.48831 2.3008201e-18)
(-641.58033 909.7892 -2.1883804e-18)
(-586.56216 797.79579 2.2958874e-40)
(-622.48297 781.37109 -3.0413292e-35)
(-640.84753 956.70639 3.5470859e-23)
(-594.34499 800.48977 -7.0990971e-23)
(-580.0388 961.10304 -5.1039646e-18)
(-684.72195 956.90168 1.1754944e-38)
(-988.62653 803.35213 -5.4260819e-35)
(-1621.1722 662.97912 -6.8830443e-18)
(-1719.6167 217.36929 -1.9975785e-18)
(-1889.1111 413.78842 2.487664e-23)
(-618.29394 658.04368 4.2492774e-18)
(-642.01158 744.35932 -3.3219206e-23)
(-736.95298 830.80479 3.7505649e-23)
(-656.90403 847.57951 -8.2065845e-25)
(-640.66983 778.01714 4.8399772e-18)
(-651.05237 794.75834 -3.7684704e-23)
(-841.44185 814.41694 7.6583753e-23)
(-868.55822 789.21301 5.1124177e-18)
(-557.17086 876.05044 2.8471874e-18)
(-524.66034 937.48649 -4.1694584e-23)
(-428.56779 953.93527 2.980167e-18)
(-1312.4415 875.20658 -4.4271011e-23)
(-3176.1312 643.32795 -3.0694601e-18)
(-3615.3359 584.85583 4.5374968e-23)
(-3311.4726 618.64275 4.7128087e-23)
(-1316.5597 966.86506 -6.5214242e-18)
(-304.98947 1118.8714 -3.3874932e-18)
(-2306.5033 868.93832 3.4070022e-18)
(1104.7331 1377.2336 -7.1782713e-18)
(-715.86732 1195.6766 7.5883106e-18)
(-756.08471 1255.0719 -3.9495883e-18)
(-759.73601 1268.1236 -4.0311498e-18)
(-762.57724 1266.1058 6.1666988e-23)
(-763.62338 1256.3772 -6.2344221e-23)
(-763.00405 1246.4764 -2.3509887e-38)
(-761.16461 1225.5807 -4.2225803e-18)
(-758.41171 1194.9671 0)
(-741.6177 1091.4016 5.7066568e-23)
(-726.1267 947.01356 -5.7333172e-23)
(-733.67467 785.10199 4.6031912e-23)
(-842.99139 544.54215 -6.7903286e-24)
(-786.96301 386.67052 -3.9926499e-23)
(38.356699 -343.0086 1.1895743e-18)
(49.516283 -278.97447 3.2828455e-23)
(-711.26325 975.06293 -8.0653607e-18)
(76.601084 -417.6234 6.0839848e-23)
(-749.20307 982.39099 -1.0113983e-22)
(-810.48026 1224.5255 4.9351202e-18)
(-784.24659 1135.6472 -4.8715586e-18)
(-740.40669 922.64604 1.2912414e-17)
(-719.84026 858.82366 -5.5970752e-23)
(-663.90468 652.86813 1.1752669e-17)
(-893.72505 291.29805 4.2829728e-18)
(-1769.2905 3.5976168 1.4693679e-39)
(-1801.1531 -86.354883 4.6932977e-18)
(47.612927 -243.59128 -1.1653772e-18)
(-413.99094 339.47217 4.4515337e-18)
(-546.41575 159.23072 0)
(58.836504 -289.19573 -9.4039548e-38)
(58.19174 -248.7894 -1.2207691e-18)
(972.43841 334.2503 -4.5911263e-18)
(86.269576 679.57992 -4.1172735e-23)
(-857.70828 648.47946 0)
(-725.11446 807.96557 0)
(-472.27878 703.74604 6.2872047e-35)
(-293.15211 366.86334 -2.7011984e-23)
(65.872185 -292.42785 -8.642899e-24)
(-5.5205239 768.8782 3.7167816e-23)
(55.828407 -274.62814 8.3171885e-24)
(86.732584 -399.62646 3.5386955e-19)
(87.822165 -377.91214 -1.9965269e-19)
(92.506024 -372.29087 -3.0524658e-19)
(91.101026 -369.99675 3.7669647e-19)
(95.421887 -389.49928 -7.0207637e-19)
(100.03575 -403.13844 -5.1883949e-24)
(104.01721 -414.44644 2.6603595e-39)
(107.13024 -422.1458 5.2694994e-42)
(109.64954 -427.93292 -1.0419582e-34)
(112.20417 -434.53126 9.6589115e-19)
(114.14867 -439.77617 -3.0963541e-24)
(115.61074 -442.72853 -7.1694273e-19)
(116.49714 -443.25049 1.880791e-37)
(117.89459 -446.62258 2.4788919e-24)
(116.7533 -444.02522 -2.6190804e-24)
(118.35077 -450.64282 -3.9229148e-35)
(116.21898 -444.97904 2.2728619e-24)
(118.26715 -457.38504 -2.3469052e-24)
(115.27194 -444.36764 -3.2635903e-19)
(114.82799 -443.41283 -7.8805141e-35)
(115.11653 -446.82986 -1.5776426e-18)
(115.07715 -447.84106 3.7896326e-24)
(114.85257 -447.82199 -3.8536808e-24)
(110.03199 -433.73207 4.2860288e-19)
(1039.4341 4240.652 -3.0962115e-18)
(435.95077 1764.6283 -7.844466e-18)
(184.22989 489.703 -2.1172245e-18)
(274.9455 841.2017 6.3525405e-20)
(-40.144101 32.940163 0)
(464.66931 1902.6593 4.9502209e-23)
(890.16134 320.68943 -4.6998128e-23)
(9632.8913 -2888.0032 -9.8351487e-19)
(9069.129 -4064.5023 9.5756075e-18)
(87.54693 216.09287 6.7895432e-19)
(65.409519 242.70055 4.9708713e-19)
(81.065378 311.60743 1.3229324e-23)
(74.03268 335.98664 -3.7670973e-19)
(-46.011811 709.49214 2.5668477e-19)
(6175.3811 -2341.4758 2.828822e-18)
(6121.4743 -2956.6468 1.9732196e-22)
(6154.6538 -2976.1812 -1.0478341e-22)
(6146.3221 -2896.5676 9.4474869e-18)
(6011.3771 -2825.5066 -5.416678e-35)
(5123.0362 -2512.4223 8.3869073e-23)
(721.73897 -1181.184 4.8163771e-18)
(-3628.3506 -410.43451 9.0288487e-23)
(2105.9188 -1852.6962 6.1117952e-18)
(4242.8098 -2647.7455 -1.0405775e-22)
(4265.9882 -2462.0029 -6.3702855e-18)
(4265.9094 -2343.0068 0)
(4208.3564 -2321.4039 2.8620825e-18)
(3839.0378 -1896.1511 -4.650184e-18)
(-6378.0617 -117.6996 3.2810511e-18)
(-1002.2871 -1186.9299 -8.710438e-23)
(-741.74612 -1197.4257 -5.3069027e-18)
(-694.70856 -1423.7109 9.1091872e-23)
(-659.04973 -1585.4169 -1.3256179e-17)
(-600.1691 -1377.467 0)
(-609.57351 -1546.4318 4.7019774e-38)
(-596.47504 -1416.938 -1.1511593e-17)
(-654.66012 -1319.1867 5.1266825e-18)
(-654.62722 -1608.8865 5.8059682e-18)
(-768.46472 -1578.1356 1.2135598e-17)
(-66.204117 -1844.4807 1.754111e-22)
(-1100.5255 -724.61689 4.9604249e-18)
(-952.12196 -1174.874 1.0356895e-17)
(113.68027 589.53073 -3.712181e-19)
(-444.52908 -1352.6776 1.0222654e-17)
(-3229.5459 -947.20576 6.886248e-23)
(-2227.7143 -544.65732 -1.1074771e-17)
(54.638645 338.44031 2.9207885e-23)
(64.521853 375.09529 -3.789091e-24)
(-58.490967 157.88993 4.9686091e-35)
(288.7629 412.96786 4.7019774e-38)
(47.278523 279.27635 4.9905651e-19)
(45.4654 276.43361 5.0525411e-19)
(50.804231 282.87306 0)
(460.76303 327.441 3.5137897e-35)
(90.658031 580.43373 -8.8391893e-41)
(245.37403 1584.9447 4.7019774e-38)
(238.83388 1568.8988 6.3271868e-19)
(242.92639 1567.3143 -2.8426572e-23)
(148.0095 995.99277 -3.300495e-18)
(220.42786 1514.742 0)
(228.21459 1595.6207 -5.5802738e-18)
(225.70277 1602.6702 -7.3468397e-40)
(224.67767 1613.3421 -5.8668641e-19)
(221.85476 1615.6981 -5.4944636e-18)
(215.0649 1590.225 5.4879804e-19)
(219.12578 1642.4212 6.0221839e-19)
(212.14943 1615.1927 3.638551e-23)
(206.27725 1595.6099 5.1946345e-18)
(202.93008 1593.0454 5.2592673e-19)
(204.44568 1631.4288 -5.2390802e-18)
(204.1886 1656.7533 4.7019774e-38)
(203.86175 1679.1935 6.0005349e-19)
(196.35736 1641.3028 -5.6910897e-18)
(191.15637 1622.9213 -3.4770393e-23)
(227.29751 1639.7057 3.4468013e-23)
(189.6258 1671.7711 4.5312606e-18)
(166.6064 1489.9908 1.0975069e-24)
(178.79787 1601.2079 4.7771474e-18)
(144.92001 1512.6926 -4.4583097e-19)
(423.26005 1559.0965 -4.76439e-19)
(333.24409 1513.635 3.9782331e-18)
(259.48844 1596.9276 4.6139859e-18)
(301.68652 1517.0029 -4.7851551e-18)
(116.93764 1189.4814 1.4230595e-23)
(78.570405 809.73142 2.071037e-18)
(59.550017 624.67031 -1.5670346e-18)
(55.712876 594.38665 0)
(55.217546 601.81489 -1.423925e-18)
(55.96331 624.35798 1.5238093e-18)
(57.583536 653.31004 1.1269464e-34)
(90.324104 1045.6628 1.454212e-23)
(87.879488 1039.7398 -8.043416e-20)
(78.678771 949.79975 4.1158078e-20)
(62.159806 765.90727 1.794302e-18)
(50.400582 634.74536 0)
(45.079934 580.83266 -1.1754944e-38)
(41.993594 553.07082 -7.6148977e-20)
(40.892124 550.56914 2.6657628e-24)
(39.569397 544.15024 -1.2769569e-24)
(35.490478 524.63633 -1.5340125e-24)
(76.75618 578.06218 1.1322115e-24)
(139.78724 385.95426 -3.0562254e-19)
(204.54431 390.80879 -5.9988116e-19)
(182.18777 406.77991 5.8774718e-39)
(58.293258 333.17743 -1.4780084e-19)
(18.286086 295.92077 3.7259079e-19)
(20.169453 336.1396 4.4577703e-19)
(20.30271 351.38205 -3.7610132e-24)
(15.939482 241.13737 5.7487551e-35)
(11.422645 206.85777 -3.091697e-19)
(9.9907867 195.89516 -8.2383321e-20)
(6.5916323 169.99146 -8.9325685e-24)
(-27.276015 85.823928 6.8088784e-19)
(-10614.753 -552.71465 -2.327162e-23)
(-10887.24 -150.94072 3.5656354e-23)
(8825.287 -1991.3623 -3.7644842e-23)
(8852.3784 -1608.2556 -2.6964575e-18)
(-6611.9518 -1407.507 -6.3882997e-18)
(-257.23674 336.21535 1.0525532e-19)
(15.055364 417.69802 2.991411e-19)
(-561.04172 -262.95429 2.6521553e-23)
(-2946.9694 -1028.6223 -2.7670299e-23)
(-6683.5162 -843.2107 2.2468992e-18)
(-7192.6595 -1043.3243 2.5516321e-18)
(-7081.6005 -818.15976 1.2117224e-18)
(-6776.8591 -1034.7255 1.2994403e-18)
(-6164.1159 -943.2014 2.2903725e-18)
(-4673.9296 -756.45229 -1.9551094e-18)
(-4428.6035 -802.75757 3.100156e-18)
(-5853.0298 -1271.2199 -3.6101232e-23)
(-5037.0208 -884.99629 -3.1961441e-18)
(-3930.6283 -1726.0456 -4.3589557e-23)
(-5876.3023 -1706.7102 3.1495189e-18)
(-6847.7751 -1722.5656 2.3572305e-23)
(-8252.907 -1691.8542 1.4693679e-39)
(-8412.7374 -799.50079 9.3115753e-19)
(-8681.8834 -473.01143 -1.4675006e-23)
(-8369.0297 -1191.1954 6.1085515e-19)
(-9296.9904 -1545.6999 -1.2856969e-39)