/*--------------------------------*- C++ -*----------------------------------*\
| =========                 |                                                 |
| \\      /  F ield         | OpenFOAM: The Open Source CFD Toolbox           |
|  \\    /   O peration     | Version:  2506                                  |
|   \\  /    A nd           | Website:  www.openfoam.com                      |
|    \\/     M anipulation  |                                                 |
\*---------------------------------------------------------------------------*/
FoamFile
{
    version     2.0;
    format      ascii;
    arch        "LSB;label=32;scalar=64";
    class       volVectorField;
    location    "0.004";
    object      U;
}
// * * * * * * * * * * * * * * * * * * * * * * * * * * * * * * * * * * * * * //

dimensions      [0 1 -1 0 0 0 0];

internalField   nonuniform List<vector> 
13761
(
(92.8055 16.3641 -1.389168e-21)
(92.8055 16.3641 1.2025293e-21)
(92.8055 16.3641 -2.0771435e-21)
(92.8055 16.364099 -1.8337884e-18)
(92.805504 16.364088 -1.5817417e-18)
(92.805542 16.364015 -2.7210578e-18)
(92.805762 16.363133 0)
(92.806976 16.361208 2.7730067e-25)
(92.813929 16.325912 0)
(92.810559 16.351959 1.4475676e-21)
(92.9216 15.934004 -1.2427484e-21)
(92.8055 16.3641 1.3506508e-21)
(92.8055 16.3641 0)
(92.8055 16.3641 2.0824442e-18)
(92.8055 16.364099 3.6015826e-18)
(92.805503 16.364088 -1.5201131e-21)
(92.80554 16.364015 2.6894545e-18)
(92.805753 16.36313 0)
(92.806911 16.361208 2.0782821e-25)
(92.813779 16.325937 1.678247e-21)
(92.810453 16.35196 -2.959478e-18)
(92.920317 15.934122 -1.2412164e-21)
(92.8055 16.3641 -1.364543e-18)
(92.8055 16.3641 -1.1575465e-21)
(92.8055 16.3641 1.0047479e-21)
(92.8055 16.364099 -3.5630377e-18)
(92.805503 16.364088 1.5441609e-18)
(92.805539 16.364015 0)
(92.805751 16.363125 -1.1261651e-21)
(92.806886 16.361228 -1.9910982e-18)
(92.813777 16.325928 1.7164665e-18)
(92.810425 16.351964 5.9063089e-18)
(92.920144 15.934204 1.2414109e-21)
(92.8055 16.3641 -1.5426682e-18)
(92.8055 16.3641 1.3470576e-18)
(92.8055 16.3641 1.1454628e-21)
(92.8055 16.3641 -9.9558299e-22)
(92.8055 16.364099 -1.7268056e-21)
(92.805503 16.364088 1.4979707e-21)
(92.805539 16.364015 -1.2962728e-21)
(92.80575 16.363122 -1.3567361e-26)
(92.806862 16.361228 -9.6860107e-22)
(92.813776 16.325922 -1.7064089e-18)
(92.810376 16.351967 -2.9486048e-18)
(92.920094 15.934259 0)
(92.8055 16.3641 1.5249326e-18)
(92.8055 16.3641 0)
(92.8055 16.3641 -2.3235985e-18)
(92.8055 16.3641 -2.9632928e-21)
(92.8055 16.364099 1.7592827e-18)
(92.805504 16.364087 0)
(92.805539 16.364015 1.2905941e-21)
(92.80575 16.363118 -2.2888872e-18)
(92.80685 16.361247 1.9779137e-18)
(92.813772 16.325917 0)
(92.810367 16.35197 -1.4374704e-21)
(92.920109 15.934338 1.2407185e-21)
(92.8055 16.3641 -3.0150903e-18)
(92.8055 16.3641 -2.6454792e-18)
(92.8055 16.3641 4.6123656e-18)
(92.8055 16.3641 9.8065409e-22)
(92.8055 16.364099 -1.7483084e-18)
(92.805504 16.364087 -1.5170063e-18)
(92.805539 16.364014 0)
(92.805749 16.363115 -4.9271408e-27)
(92.806829 16.361248 -3.9455491e-18)
(92.813783 16.325908 1.7050977e-18)
(92.810395 16.351975 0)
(92.920119 15.934399 0)
(92.8055 16.3641 1.7058622e-18)
(92.8055 16.3641 -2.7337268e-32)
(92.8055 16.3641 2.6204137e-18)
(92.8055 16.3641 -2.2875953e-18)
(92.8055 16.3641 1.9483452e-21)
(92.8055 16.364099 1.7341784e-18)
(92.805504 16.364087 1.5096845e-18)
(92.805538 16.364014 1.2798912e-21)
(92.80575 16.363111 2.2726631e-18)
(92.806819 16.361265 3.9351538e-18)
(92.813818 16.325904 -1.2939685e-25)
(92.810445 16.351978 0)
(92.92014 15.934456 0)
(92.8055 16.3641 0)
(92.8055 16.3641 1.4850415e-18)
(92.8055 16.3641 -2.60177e-18)
(92.8055 16.3641 1.109714e-21)
(92.8055 16.3641 1.9363905e-21)
(92.8055 16.364099 3.2178262e-29)
(92.805504 16.364087 -1.467687e-21)
(92.805538 16.364014 0)
(92.80575 16.363109 -2.2659612e-18)
(92.806807 16.361267 -1.9636582e-18)
(92.813859 16.325897 -1.6980253e-18)
(92.810496 16.351984 2.938624e-18)
(92.920107 15.934512 -2.5393591e-18)
(92.8055 16.3641 1.6801618e-18)
(92.8055 16.3641 -1.4393416e-21)
(92.8055 16.3641 2.5825476e-18)
(92.8055 16.3641 1.1024302e-21)
(92.8055 16.3641 -9.6262035e-22)
(92.8055 16.364099 -1.7192335e-18)
(92.805504 16.364087 2.9230015e-21)
(92.805537 16.364014 -1.2707119e-21)
(92.805751 16.363105 2.2585759e-18)
(92.806801 16.361282 9.5680072e-22)
(92.813899 16.325892 0)
(92.810515 16.351991 -5.872691e-18)
(92.92012 15.934565 5.0739049e-18)
(92.8055 16.3641 3.785739e-18)
(92.8055 16.3641 -1.6649464e-18)
(92.8055 16.3641 0)
(92.8055 16.3641 -2.5595931e-18)
(92.8055 16.3641 0)
(92.8055 16.3641 -1.9146324e-21)
(92.8055 16.364099 1.7108168e-18)
(92.805504 16.364087 2.9826714e-18)
(92.805536 16.364014 -2.5951108e-18)
(92.805751 16.363102 -2.2526473e-18)
(92.806787 16.361284 1.9537832e-18)
(92.813936 16.325884 -5.2475658e-25)
(92.810535 16.351995 2.9333827e-18)
(92.920162 15.934615 -2.537066e-18)
(92.8055 16.3641 -1.8747791e-18)
(92.8055 16.3641 -1.6502215e-18)
(92.8055 16.3641 -1.4516652e-18)
(92.8055 16.3641 1.2415403e-21)
(92.8055 16.3641 -1.0889585e-21)
(92.8055 16.3641 -1.9475861e-18)
(92.8055 16.364099 0)
(92.805504 16.364087 -2.969905e-18)
(92.805535 16.364014 5.1701602e-18)
(92.805753 16.363098 2.2492141e-18)
(92.806778 16.361297 1.9064286e-21)
(92.813979 16.325876 5.2407813e-25)
(92.810553 16.351998 2.3240029e-26)
(92.920272 15.93467 -1.2390075e-21)
(92.8055 16.3641 0)
(92.8055 16.3641 1.6345628e-18)
(92.8055 16.3641 1.441477e-18)
(92.8055 16.3641 2.5307434e-18)
(92.8055 16.3641 1.081711e-21)
(92.8055 16.3641 1.9390646e-18)
(92.8055 16.364099 1.6942324e-18)
(92.805504 16.364087 0)
(92.805534 16.364014 -2.577964e-18)
(92.805754 16.363095 -2.2416523e-18)
(92.806765 16.361301 -9.5125818e-22)
(92.814018 16.32587 -1.6515195e-21)
(92.810552 16.351999 1.4305011e-21)
(92.920429 15.93473 0)
(92.8055 16.3641 0)
(92.8055 16.3641 -1.6216266e-18)
(92.8055 16.3641 -1.4318324e-18)
(92.8055 16.3641 0)
(92.8055 16.3641 1.0744589e-21)
(92.8055 16.3641 -1.9317389e-18)
(92.8055 16.364099 -1.6489348e-21)
(92.805503 16.364087 -2.9055423e-28)
(92.805532 16.364014 1.2551651e-21)
(92.805756 16.363092 2.2387184e-18)
(92.806757 16.361312 -9.4962203e-22)
(92.814044 16.325863 -3.3773012e-18)
(92.810524 16.352 0)
(92.920636 15.93478 0)
(92.8055 16.3641 -2.0234222e-21)
(92.8055 16.3641 1.8310447e-18)
(92.8055 16.3641 3.2232859e-18)
(92.8055 16.3641 1.4212776e-18)
(92.8055 16.3641 1.2209112e-21)
(92.8055 16.3641 0)
(92.8055 16.3641 1.9202022e-18)
(92.8055 16.364099 -1.6802625e-18)
(92.805503 16.364087 1.435104e-21)
(92.805531 16.364014 -2.5647662e-18)
(92.805758 16.363089 2.2327231e-18)
(92.806745 16.361315 -1.941923e-18)
(92.814068 16.325855 3.5769128e-25)
(92.810489 16.351999 -2.9225188e-18)
(92.920819 15.934825 -2.5350653e-18)
(92.8055 16.3641 1.0036195e-21)
(92.8055 16.3641 -8.8542702e-22)
(92.8055 16.3641 -3.2007632e-18)
(92.8055 16.3641 1.4139213e-18)
(92.8055 16.3641 -2.4826392e-18)
(92.8055 16.3641 0)
(92.8055 16.3641 0)
(92.8055 16.364099 0)
(92.805503 16.364087 0)
(92.80553 16.364013 2.5567315e-18)
(92.805759 16.363085 -4.4560251e-18)
(92.806733 16.361324 0)
(92.814101 16.325846 3.3698064e-18)
(92.81048 16.351998 5.8388325e-18)
(92.920924 15.934882 2.5340565e-18)
(92.8055 16.3641 0)
(92.8055 16.3641 8.786127e-22)
(92.8055 16.3641 1.5909877e-18)
(92.8055 16.3641 -2.8066588e-18)
(92.8055 16.3641 4.9387765e-18)
(92.8055 16.3641 0)
(92.8055 16.3641 1.8620115e-21)
(92.8055 16.364099 -1.630802e-21)
(92.805503 16.364086 2.9206541e-18)
(92.80553 16.364013 0)
(92.80576 16.363083 2.2245619e-18)
(92.80672 16.361328 1.9349142e-18)
(92.814139 16.325839 0)
(92.810488 16.351996 -5.8425238e-18)
(92.920964 15.934898 -2.532782e-18)
(92.8055 16.3641 -1.1164751e-21)
(92.8055 16.3641 -2.0250594e-18)
(92.8055 16.3641 -1.789459e-18)
(92.8055 16.3641 -7.7236122e-22)
(92.8055 16.3641 1.3960085e-18)
(92.8055 16.3641 -2.4584988e-18)
(92.8055 16.3641 2.1129079e-21)
(92.8055 16.3641 -2.7817171e-21)
(92.8055 16.364099 -1.6639281e-18)
(92.805503 16.364086 -2.9105217e-18)
(92.80553 16.364013 1.2421435e-21)
(92.805761 16.363079 -1.0835428e-21)
(92.806713 16.361337 -1.9329871e-18)
(92.814165 16.32583 3.3616198e-18)
(92.810485 16.351995 2.9203176e-18)
(92.920958 15.934942 2.5355929e-18)
(92.8055 16.3641 4.5305396e-18)
(92.8055 16.3641 2.0088167e-18)
(92.8055 16.3641 -8.6842133e-22)
(92.8055 16.3641 -1.570722e-18)
(92.8055 16.3641 1.3572458e-21)
(92.8055 16.3641 -2.3877813e-21)
(92.8055 16.3641 1.0517608e-21)
(92.8055 16.3641 1.8889648e-18)
(92.8055 16.364099 1.6576568e-18)
(92.805503 16.364086 2.9035338e-18)
(92.805529 16.364013 -2.5390635e-18)
(92.805761 16.363076 2.1629665e-21)
(92.806707 16.36134 9.4252359e-22)
(92.814175 16.325819 -3.3622145e-18)
(92.810464 16.351992 2.8507933e-21)
(92.920856 15.934964 -1.2377684e-21)
(92.8055 16.3641 -2.245818e-18)
(92.8055 16.3641 9.7219135e-22)
(92.8055 16.3641 -1.7640771e-18)
(92.8055 16.3641 1.5615413e-18)
(92.8055 16.3641 0)
(92.8055 16.3641 2.4371201e-18)
(92.8055 16.3641 0)
(92.8055 16.3641 3.4236783e-30)
(92.8055 16.364099 -1.6507512e-18)
(92.805503 16.364086 -2.8968235e-18)
(92.805529 16.364013 2.5331803e-18)
(92.805762 16.363073 0)
(92.806702 16.361348 0)
(92.814178 16.32581 3.3577521e-18)
(92.81044 16.351991 2.9172128e-18)
(92.920745 15.93498 0)
(92.8055 16.3641 -1.2277412e-21)
(92.8055 16.3641 1.0897083e-21)
(92.8055 16.3641 0)
(92.8055 16.3641 3.5080888e-18)
(92.8055 16.3641 0)
(92.8055 16.3641 0)
(92.8055 16.3641 -2.4269726e-18)
(92.8055 16.3641 -2.1298976e-18)
(92.8055 16.3641 -1.8757495e-18)
(92.8055 16.364099 1.6477178e-18)
(92.805503 16.364086 -2.8875757e-18)
(92.805529 16.364013 -1.2335315e-21)
(92.805762 16.36307 -2.2057443e-18)
(92.806697 16.361352 0)
(92.814179 16.325801 -3.3532849e-18)
(92.810425 16.351989 -2.915746e-18)
(92.92064 15.935019 -1.2375044e-21)
(92.8055 16.3641 1.2457506e-18)
(92.8055 16.3641 -1.084221e-21)
(92.8055 16.3641 1.9218482e-21)
(92.8055 16.3641 -8.5137983e-22)
(92.8055 16.3641 0)
(92.8055 16.3641 0)
(92.8055 16.3641 0)
(92.8055 16.3641 2.1241062e-18)
(92.8055 16.3641 0)
(92.8055 16.364099 0)
(92.805503 16.364086 2.879994e-18)
(92.805529 16.364012 1.2308487e-21)
(92.805762 16.363067 4.4038361e-18)
(92.806695 16.36136 9.3866756e-22)
(92.814176 16.325791 0)
(92.810414 16.351989 -1.4232564e-21)
(92.920539 15.93504 1.236257e-21)
(92.8055 16.3641 1.8116771e-21)
(92.8055 16.3641 -1.0763789e-21)
(92.8055 16.3641 0)
(92.8055 16.3641 -3.4716423e-18)
(92.8055 16.3641 1.5384104e-18)
(92.8055 16.3641 -1.327755e-21)
(92.8055 16.3641 2.4031875e-18)
(92.8055 16.3641 -1.0346263e-21)
(92.8055 16.3641 0)
(92.8055 16.364099 1.5993252e-21)
(92.805503 16.364086 -1.4026584e-21)
(92.805529 16.364012 0)
(92.805762 16.363064 -2.1992788e-18)
(92.806692 16.361364 -1.8750023e-21)
(92.814174 16.325779 -3.345347e-18)
(92.810399 16.351988 2.9143817e-18)
(92.8055 16.3641 2.7540572e-18)
(92.8055 16.3641 -1.2296878e-18)
(92.8055 16.3641 -2.1387605e-21)
(92.8055 16.3641 1.9420812e-18)
(92.8055 16.3641 1.7261227e-18)
(92.8055 16.3641 -1.5303578e-18)
(92.8055 16.3641 2.7077936e-18)
(92.8055 16.3641 -2.3939579e-18)
(92.8055 16.3641 1.0306921e-21)
(92.8055 16.3641 0)
(92.8055 16.364099 0)
(92.805503 16.364086 0)
(92.805528 16.364012 1.2257192e-21)
(92.805762 16.363061 -2.1956698e-18)
(92.80669 16.361371 1.9166696e-18)
(92.814173 16.325768 3.1169785e-25)
(92.810378 16.351987 -5.8222848e-18)
(92.8055 16.3641 -1.3682162e-18)
(92.8055 16.3641 5.9592903e-22)
(92.8055 16.3641 -1.0625241e-21)
(92.8055 16.3641 -3.8663743e-18)
(92.8055 16.3641 0)
(92.8055 16.3641 0)
(92.8055 16.3641 -2.698387e-18)
(92.8055 16.3641 1.1623769e-21)
(92.8055 16.3641 1.5596617e-31)
(92.8055 16.3641 -9.0430616e-22)
(92.8055 16.364099 1.5901315e-21)
(92.805503 16.364086 -1.3957916e-21)
(92.805527 16.364012 1.2232627e-21)
(92.805762 16.363057 2.1910902e-18)
(92.806687 16.361376 -3.8287313e-18)
(92.814173 16.325759 3.3418717e-18)
(92.810361 16.351986 2.9098574e-18)
(92.8055 16.364099 1.5211597e-18)
(92.8055 16.3641 0)
(92.8055 16.3641 1.2117488e-18)
(92.8055 16.3641 4.0747104e-33)
(92.8055 16.3641 -9.4021301e-22)
(92.8055 16.3641 0)
(92.8055 16.3641 0)
(92.8055 16.3641 0)
(92.8055 16.3641 0)
(92.8055 16.3641 -1.0231774e-21)
(92.8055 16.3641 9.0142713e-22)
(92.8055 16.364099 0)
(92.805503 16.364086 -1.3925016e-21)
(92.805527 16.364012 1.220721e-21)
(92.805762 16.363054 1.0687357e-21)
(92.806685 16.361382 1.9139916e-18)
(92.814173 16.32575 -1.630452e-21)
(92.810357 16.351984 0)
(92.8055 16.364099 2.1327589e-29)
(92.8055 16.3641 1.3501737e-18)
(92.8055 16.3641 -1.2033871e-18)
(92.8055 16.3641 0)
(92.8055 16.3641 1.9105315e-18)
(92.8055 16.3641 8.2950835e-22)
(92.8055 16.3641 -1.5073685e-18)
(92.8055 16.3641 0)
(92.8055 16.3641 -2.3633608e-18)
(92.8055 16.3641 -2.0881067e-18)
(92.8055 16.3641 0)
(92.8055 16.364099 1.5814509e-21)
(92.805503 16.364086 -1.3892999e-21)
(92.805526 16.364012 -1.216943e-21)
(92.805762 16.363051 1.0670981e-21)
(92.80668 16.361387 0)
(92.814177 16.325739 1.6297068e-21)
(92.810353 16.351981 -1.4200864e-21)
(92.8055 16.364099 0)
(92.8055 16.3641 -1.3426399e-18)
(92.8055 16.3641 5.8379005e-22)
(92.8055 16.3641 -1.0404922e-21)
(92.8055 16.3641 9.2667955e-22)
(92.8055 16.3641 -1.6932006e-18)
(92.8055 16.3641 5.1133859e-33)
(92.8055 16.3641 1.2982056e-21)
(92.8055 16.3641 2.3550833e-18)
(92.8055 16.3641 4.1619626e-18)
(92.8055 16.3641 1.8348422e-18)
(92.8055 16.364099 -1.5768983e-21)
(92.805503 16.364086 -2.8375413e-18)
(92.805526 16.364011 0)
(92.805762 16.363048 2.1811258e-18)
(92.806673 16.361392 9.3199603e-22)
(92.814198 16.325728 1.628483e-21)
(92.805499 16.364077 1.6614939e-18)
(92.8055 16.364099 0)
(92.8055 16.3641 -1.3334527e-18)
(92.8055 16.3641 1.190221e-18)
(92.8055 16.3641 2.1169212e-18)
(92.8055 16.3641 -1.8902806e-18)
(92.8055 16.3641 1.6821333e-18)
(92.8055 16.3641 1.4961401e-18)
(92.8055 16.3641 0)
(92.8055 16.3641 -2.3474983e-18)
(92.8055 16.3641 -2.0740711e-18)
(92.8055 16.3641 -1.8312422e-18)
(92.8055 16.364099 1.5708146e-21)
(92.805503 16.364086 2.8327496e-18)
(92.805526 16.364011 2.4864641e-18)
(92.805761 16.363045 1.8128861e-26)
(92.806661 16.361397 0)
(92.814238 16.325721 0)
(92.805498 16.364076 -1.650892e-18)
(92.8055 16.364099 0)
(92.8055 16.3641 1.3252049e-18)
(92.8055 16.3641 -1.1809861e-18)
(92.8055 16.3641 -2.0616016e-21)
(92.8055 16.3641 9.2032358e-22)
(92.8055 16.3641 -8.1614312e-22)
(92.8055 16.3641 -1.4888798e-18)
(92.8055 16.3641 0)
(92.8055 16.3641 2.3378706e-18)
(92.8055 16.3641 1.0094502e-21)
(92.8055 16.3641 1.8242164e-18)
(92.8055 16.364099 0)
(92.805503 16.364086 2.8267344e-18)
(92.805526 16.364011 -2.4820873e-18)
(92.805761 16.363042 -2.1759957e-18)
(92.806651 16.361401 -1.8600665e-21)
(92.814272 16.325715 -3.3239178e-18)
(92.805498 16.364076 0)
(92.8055 16.364099 0)
(92.8055 16.3641 0)
(92.8055 16.3641 0)
(92.8055 16.3641 1.3011182e-32)
(92.8055 16.3641 3.7455064e-18)
(92.8055 16.3641 8.1373754e-22)
(92.8055 16.3641 2.9658054e-18)
(92.8055 16.3641 0)
(92.8055 16.3641 0)
(92.8055 16.3641 0)
(92.8055 16.3641 -1.8208934e-18)
(92.8055 16.364099 3.1310733e-21)
(92.805503 16.364086 -2.8222506e-18)
(92.805526 16.364011 0)
(92.80576 16.363038 2.1730146e-18)
(92.806646 16.361406 3.8054518e-18)
(92.814276 16.325704 -1.6243478e-21)
(92.805485 16.363732 0)
(92.805499 16.364075 0)
(92.8055 16.364099 0)
(92.8055 16.3641 -6.3940225e-22)
(92.8055 16.3641 5.7096974e-22)
(92.8055 16.3641 -2.0890159e-18)
(92.8055 16.3641 -1.8604853e-18)
(92.8055 16.3641 -8.1003839e-22)
(92.8055 16.3641 -1.4747199e-18)
(92.8055 16.3641 1.277462e-21)
(92.8055 16.3641 1.5240321e-32)
(92.8055 16.3641 -1.0031541e-21)
(92.8055 16.3641 0)
(92.8055 16.364099 1.5618159e-21)
(92.805503 16.364086 -2.7491782e-21)
(92.805526 16.364011 1.2077568e-21)
(92.805759 16.363035 -2.1701061e-18)
(92.806637 16.36141 -3.8034885e-18)
(92.814269 16.325693 3.3262752e-18)
(92.80549 16.36373 -3.2270399e-27)
(92.805499 16.364075 -1.618079e-18)
(92.8055 16.364099 7.0933359e-22)
(92.8055 16.3641 -6.3574494e-22)
(92.8055 16.3641 0)
(92.8055 16.3641 -2.0784427e-18)
(92.8055 16.3641 -9.0389247e-22)
(92.8055 16.3641 8.0648112e-22)
(92.8055 16.3641 0)
(92.8055 16.3641 0)
(92.8055 16.3641 -2.3149261e-18)
(92.8055 16.3641 1.0001289e-21)
(92.8055 16.3641 -1.8101923e-18)
(92.8055 16.364099 3.1884322e-18)
(92.805503 16.364086 0)
(92.805526 16.364011 0)
(92.805758 16.363032 1.0582484e-21)
(92.806627 16.361414 3.7969776e-18)
(92.805472 16.359334 -1.9868407e-18)
(92.805493 16.363729 0)
(92.805499 16.364075 3.2177307e-18)
(92.8055 16.364099 -1.4103198e-21)
(92.8055 16.3641 6.3219748e-22)
(92.8055 16.3641 0)
(92.8055 16.3641 4.4775042e-33)
(92.8055 16.3641 9.0083976e-22)
(92.8055 16.3641 -1.6069755e-21)
(92.8055 16.3641 1.4636771e-18)
(92.8055 16.3641 -1.2688087e-21)
(92.8055 16.3641 2.2532383e-21)
(92.8055 16.3641 -9.9718038e-22)
(92.8055 16.3641 1.8045877e-18)
(92.8055 16.364099 -3.1796414e-18)
(92.805503 16.364086 -1.3692093e-21)
(92.805526 16.364011 1.2025054e-21)
(92.805756 16.363029 -1.0568808e-21)
(92.806614 16.361418 -3.7942646e-18)
(92.805463 16.359322 9.8640761e-19)
(92.805497 16.363728 -3.2330809e-27)
(92.805499 16.364075 -1.5976072e-18)
(92.8055 16.364099 -7.01112e-22)
(92.8055 16.3641 0)
(92.8055 16.3641 0)
(92.8055 16.3641 2.0572471e-18)
(92.8055 16.3641 -9.8353235e-35)
(92.8055 16.3641 8.0011934e-22)
(92.8055 16.3641 -4.3724859e-18)
(92.8055 16.3641 0)
(92.8055 16.3641 4.599801e-18)
(92.8055 16.3641 0)
(92.8055 16.3641 -1.7999824e-18)
(92.8055 16.364099 3.1761937e-18)
(92.805503 16.364086 0)
(92.805526 16.36401 -2.4596397e-18)
(92.805756 16.363026 0)
(92.806601 16.361421 -3.7907095e-18)
(92.804846 16.324651 -1.0870318e-18)
(92.805451 16.359303 4.7880532e-22)
(92.805506 16.363726 -4.313174e-22)
(92.8055 16.364075 -7.7608049e-22)
(92.8055 16.364099 -1.4264705e-18)
(92.8055 16.3641 -1.2814978e-18)
(92.8055 16.3641 -1.1204061e-21)
(92.8055 16.3641 1.0020279e-21)
(92.8055 16.3641 1.827198e-18)
(92.8055 16.3641 2.8517726e-35)
(92.8055 16.3641 7.0898863e-22)
(92.8055 16.3641 -2.5843149e-18)
(92.8055 16.3641 -2.2938196e-18)
(92.8055 16.3641 2.0306182e-18)
(92.8055 16.3641 3.591012e-18)
(92.8055 16.364099 -3.1677684e-18)
(92.805503 16.364085 2.7936575e-18)
(92.805526 16.36401 2.4534789e-18)
(92.805755 16.363023 -2.1570416e-18)
(92.80659 16.361424 3.7863262e-18)
(92.804806 16.3246 1.0801456e-18)
(92.805429 16.359288 0)
(92.805517 16.363725 -4.2790197e-22)
(92.805501 16.364075 -1.5794218e-18)
(92.8055 16.364099 1.4201056e-18)
(92.8055 16.3641 2.5478901e-18)
(92.8055 16.3641 2.2834105e-18)
(92.8055 16.3641 -2.0417532e-18)
(92.8055 16.3641 -1.8198991e-18)
(92.8055 16.3641 0)
(92.8055 16.3641 -1.4125929e-21)
(92.8055 16.3641 1.2576243e-21)
(92.8055 16.3641 1.1156934e-21)
(92.8055 16.3641 -2.0250527e-18)
(92.8055 16.3641 -1.792023e-18)
(92.8055 16.364099 -1.5445609e-21)
(92.805503 16.364085 -2.7872594e-18)
(92.805526 16.36401 -2.4543022e-18)
(92.805754 16.363021 2.1565814e-18)
(92.80658 16.361428 1.8476216e-21)
(92.804785 16.324552 1.0732156e-18)
(92.80541 16.359271 -9.6858807e-19)
(92.805522 16.363724 4.2543122e-22)
(92.805502 16.364075 3.1356382e-18)
(92.8055 16.364099 0)
(92.8055 16.3641 -1.2652273e-18)
(92.8055 16.3641 4.0089005e-31)
(92.8055 16.3641 2.0336106e-18)
(92.8055 16.3641 1.8153268e-18)
(92.8055 16.3641 -7.9142413e-22)
(92.8055 16.3641 2.8826132e-18)
(92.8055 16.3641 2.5632821e-18)
(92.8055 16.3641 0)
(92.8055 16.3641 9.8614518e-22)
(92.8055 16.3641 -1.7877692e-18)
(92.8055 16.364099 0)
(92.805503 16.364085 0)
(92.805526 16.36401 -1.1966427e-21)
(92.805754 16.363018 2.1035978e-21)
(92.806572 16.361431 3.7778224e-18)
(92.803174 16.154037 1.1798981e-18)
(92.804794 16.32451 -1.0666271e-18)
(92.805395 16.359254 9.6286225e-19)
(92.805521 16.363721 -1.7365094e-18)
(92.805503 16.364075 -1.5604232e-18)
(92.8055 16.364099 1.3697749e-21)
(92.8055 16.3641 -1.2599501e-18)
(92.8055 16.3641 -2.2626724e-18)
(92.8055 16.3641 2.0222447e-18)
(92.8055 16.3641 -3.619074e-18)
(92.8055 16.3641 1.6146726e-18)
(92.8055 16.3641 0)
(92.8055 16.3641 -1.2475816e-21)
(92.8055 16.3641 1.1094812e-21)
(92.8055 16.3641 2.0133471e-18)
(92.8055 16.3641 -8.7048205e-22)
(92.8055 16.364099 1.5382487e-21)
(92.805503 16.364085 -1.3568852e-21)
(92.805526 16.36401 4.8956434e-18)
(92.805753 16.363015 0)
(92.803327 16.153908 -3.5537592e-23)
(92.804829 16.324472 2.5886354e-22)
(92.805384 16.359239 2.3373689e-22)
(92.805515 16.363718 3.4525113e-18)
(92.805502 16.364075 -7.5914809e-22)
(92.8055 16.364099 -1.3967932e-18)
(92.8055 16.3641 -6.1306775e-22)
(92.8055 16.3641 2.2517177e-18)
(92.8055 16.3641 1.6835608e-32)
(92.8055 16.3641 3.6046038e-18)
(92.8055 16.3641 -1.6094533e-18)
(92.8055 16.3641 6.9781133e-22)
(92.8055 16.3641 0)
(92.8055 16.3641 0)
(92.8055 16.3641 -2.0091627e-18)
(92.8055 16.3641 1.7786951e-18)
(92.8055 16.364099 1.5352023e-21)
(92.805503 16.364085 -2.7091865e-21)
(92.805526 16.36401 1.1932664e-21)
(92.805752 16.363012 0)
(92.793934 15.590382 -1.2865877e-18)
(92.803499 16.1538 -1.1654078e-18)
(92.804863 16.324439 0)
(92.805372 16.359224 9.5191163e-19)
(92.805509 16.363715 -1.7171231e-18)
(92.805501 16.364075 0)
(92.8055 16.364099 1.3905714e-18)
(92.8055 16.3641 1.2502805e-18)
(92.8055 16.3641 3.9726266e-31)
(92.8055 16.3641 -2.0066694e-18)
(92.8055 16.3641 -3.5913864e-18)
(92.8055 16.3641 0)
(92.8055 16.3641 1.3930908e-21)
(92.8055 16.3641 -2.5452851e-18)
(92.8055 16.3641 -1.5984873e-32)
(92.8055 16.3641 2.0050952e-18)
(92.8055 16.3641 3.5494739e-18)
(92.8055 16.364099 -1.5322253e-21)
(92.805503 16.364085 -2.7696185e-18)
(92.805525 16.36401 5.2524915e-27)
(92.805752 16.36301 2.1479309e-18)
(92.794453 15.590218 -1.2786543e-18)
(92.803693 16.153706 0)
(92.804879 16.324409 0)
(92.805357 16.35921 -9.4667138e-19)
(92.805504 16.363712 -1.7080431e-18)
(92.805501 16.364075 0)
(92.8055 16.364099 -1.3852081e-18)
(92.8055 16.3641 6.0739072e-22)
(92.8055 16.3641 3.8689455e-31)
(92.8055 16.3641 1.9976927e-18)
(92.8055 16.3641 1.7863288e-18)
(92.8055 16.3641 0)
(92.8055 16.3641 0)
(92.8055 16.3641 2.531376e-18)
(92.8055 16.3641 2.2532006e-18)
(92.8055 16.3641 -1.9982112e-18)
(92.8055 16.3641 -3.5426024e-18)
(92.8055 16.364099 1.5293151e-21)
(92.805503 16.364085 2.7651316e-18)
(92.805524 16.36401 -1.1900184e-21)
(92.805753 16.363007 -2.1445912e-18)
(92.771805 14.147171 3.3926112e-22)
(92.794936 15.590107 1.2710312e-18)
(92.803898 16.153622 -1.1518944e-18)
(92.80487 16.324383 0)
(92.805343 16.359197 9.4157797e-19)
(92.805499 16.363709 1.6987992e-18)
(92.8055 16.364075 3.7383622e-22)
(92.8055 16.364099 -7.2052389e-29)
(92.8055 16.3641 1.2383533e-18)
(92.8055 16.3641 -2.2225155e-18)
(92.8055 16.3641 -1.9897086e-18)
(92.8055 16.3641 -8.6854635e-22)
(92.8055 16.3641 0)
(92.8055 16.3641 0)
(92.8055 16.3641 -2.5240758e-18)
(92.8055 16.3641 -2.2460597e-18)
(92.8055 16.3641 1.9943707e-18)
(92.8055 16.3641 -3.5350376e-18)
(92.8055 16.364099 0)
(92.805503 16.364085 2.7604965e-18)
(92.805522 16.36401 -2.4326779e-18)
(92.805754 16.363005 -2.1423492e-18)
(92.75289 11.178716 7.6329338e-19)
(92.774418 14.14807 -1.3906505e-18)
(92.79539 15.590052 -3.8466656e-22)
(92.804103 16.153554 6.9451055e-23)
(92.804837 16.32436 0)
(92.805339 16.359184 -9.3663388e-19)
(92.805496 16.363705 0)
(92.8055 16.364075 -7.4405956e-22)
(92.8055 16.364099 1.3729777e-18)
(92.8055 16.3641 -1.2335268e-18)
(92.8055 16.3641 -1.0807106e-21)
(92.8055 16.3641 -2.8074144e-33)
(92.8055 16.3641 -8.2039854e-35)
(92.8055 16.3641 -1.1840803e-35)
(92.8055 16.3641 -2.8227649e-18)
(92.8055 16.3641 2.5192839e-18)
(92.8055 16.3641 -2.2412621e-18)
(92.8055 16.3641 -1.9906419e-18)
(92.8055 16.3641 8.6076764e-22)
(92.8055 16.364099 -1.5217434e-21)
(92.805503 16.364085 -2.751528e-18)
(92.805521 16.364009 0)
(92.805755 16.363003 4.2803188e-18)
(92.758553 11.183121 7.3286562e-22)
(92.776963 14.149116 -1.0755143e-23)
(92.795828 15.590052 -1.2564141e-18)
(92.804313 16.153501 -1.3947197e-22)
(92.80479 16.324339 6.2901226e-23)
(92.805336 16.359171 -1.8636983e-18)
(92.805494 16.363702 -1.6827505e-18)
(92.8055 16.364075 1.1108403e-21)
(92.8055 16.364099 -1.366148e-18)
(92.8055 16.3641 1.2276634e-18)
(92.8055 16.3641 1.0763455e-21)
(92.8055 16.3641 -9.6468112e-22)
(92.8055 16.3641 8.6217534e-22)
(92.8055 16.3641 1.5752719e-18)
(92.8055 16.3641 2.8163867e-18)
(92.8055 16.3641 -2.5100909e-18)
(92.8055 16.3641 -1.2807474e-32)
(92.8055 16.3641 1.9850996e-18)
(92.8055 16.3641 7.037054e-18)
(92.8055 16.364099 -1.5190665e-21)
(92.805503 16.364085 -2.7476121e-18)
(92.805521 16.364009 0)
(92.806998 6.3814293 -1.8345549e-23)
(92.764506 11.187905 7.2861184e-22)
(92.779442 14.150302 -1.1589422e-23)
(92.79647 15.590134 -3.944466e-25)
(92.804557 16.153458 1.1330263e-18)
(92.804769 16.324326 0)
(92.805314 16.359155 1.8543987e-18)
(92.805493 16.363699 1.6738616e-18)
(92.8055 16.364074 1.1057352e-21)
(92.8055 16.364099 2.7183172e-18)
(92.8055 16.3641 -2.4450841e-18)
(92.8055 16.3641 0)
(92.8055 16.3641 -1.9692793e-18)
(92.8055 16.3641 8.5917622e-22)
(92.8055 16.3641 -1.5708058e-18)
(92.8055 16.3641 -2.8079485e-18)
(92.8055 16.3641 2.4995259e-18)
(92.8055 16.3641 -3.452822e-34)
(92.8055 16.3641 7.986352e-31)
(92.8055 16.3641 -3.5125945e-18)
(92.8055 16.364099 1.5183427e-21)
(92.805503 16.364085 2.7468627e-18)
(92.805521 16.364009 2.4236262e-18)
(92.82373 6.3948225 -8.194558e-19)
(92.770766 11.193077 0)
(92.781853 14.151618 3.2243368e-22)
(92.797522 15.590312 -3.0296383e-22)
(92.804803 16.153438 0)
(92.804767 16.324322 1.0184825e-18)
(92.805297 16.359138 0)
(92.805491 16.363695 0)
(92.805499 16.364074 1.5029141e-18)
(92.8055 16.364099 -1.3536583e-18)
(92.8055 16.3641 2.4351084e-18)
(92.8055 16.3641 1.0679532e-21)
(92.8055 16.3641 1.9586803e-18)
(92.8055 16.3641 -8.5636916e-22)
(92.8055 16.3641 0)
(92.8055 16.3641 -3.0364792e-32)
(92.8055 16.3641 0)
(92.8055 16.3641 2.2233879e-18)
(92.8055 16.3641 -1.9743445e-18)
(92.8055 16.3641 -3.5065928e-18)
(92.8055 16.364099 3.1042742e-18)
(92.805503 16.364085 0)
(92.805521 16.364009 -2.4218967e-18)
(93.072001 0.64233056 8.9116633e-19)
(92.84059 6.4089814 8.1473655e-19)
(92.777385 11.198635 3.665313e-22)
(92.784219 14.153075 1.359659e-18)
(92.798692 15.590539 1.2362593e-18)
(92.805031 16.153447 1.1213401e-18)
(92.804766 16.324323 -2.0270369e-18)
(92.80529 16.359128 -1.1210393e-22)
(92.80549 16.363692 -1.6585761e-18)
(92.805499 16.364074 -1.4963091e-18)
(92.8055 16.364099 -1.3479769e-18)
(92.8055 16.3641 -2.4253873e-18)
(92.8055 16.3641 0)
(92.8055 16.3641 9.5298443e-22)
(92.8055 16.3641 -1.7494068e-18)
(92.8055 16.3641 1.5607041e-18)
(92.8055 16.3641 2.7908803e-18)
(92.8055 16.3641 -2.4919257e-18)
(92.8055 16.3641 -1.0835621e-21)
(92.8055 16.3641 9.6289614e-22)
(92.8055 16.3641 3.4973231e-18)
(92.8055 16.364099 -6.1981973e-18)
(92.805503 16.364085 2.7427902e-18)
(92.805522 16.364009 -2.3623508e-21)
(93.712777 -3.4291778 9.6796838e-19)
(93.110296 0.67171626 -8.8512226e-19)
(92.857554 6.423971 0)
(92.784241 11.204566 7.4146778e-19)
(92.786692 14.154652 -1.3524676e-18)
(92.79951 15.590772 1.5032522e-22)
(92.805259 16.153477 -2.2315895e-18)
(92.80478 16.324329 1.07938e-22)
(92.8053 16.359113 -1.1153228e-22)
(92.805491 16.363688 1.6517416e-18)
(92.805499 16.364074 1.4895121e-18)
(92.8055 16.364099 1.3430971e-18)
(92.8055 16.3641 -1.1796444e-21)
(92.8055 16.3641 5.2998938e-22)
(92.8055 16.3641 0)
(92.8055 16.3641 1.7411247e-18)
(92.8055 16.3641 9.8839302e-33)
(92.8055 16.3641 -2.7843855e-18)
(92.8055 16.3641 -1.2142063e-21)
(92.8055 16.3641 1.0810144e-21)
(92.8055 16.3641 0)
(92.8055 16.3641 0)
(92.8055 16.364099 3.0940357e-18)
(92.805503 16.364085 2.1578215e-28)
(92.805522 16.364009 0)
(93.790234 -3.3854159 0)
(93.148988 0.70256161 0)
(92.874702 6.4397457 -8.0667419e-19)
(92.791217 11.210863 2.7244069e-23)
(92.789475 14.156404 2.6912273e-18)
(92.800328 15.591041 4.4729766e-22)
(92.805489 16.153534 -1.1935041e-22)
(92.8048 16.324338 1.0057183e-18)
(92.805332 16.359104 2.216466e-22)
(92.805496 16.363686 -2.0069304e-22)
(92.8055 16.364074 -1.4836061e-18)
(92.8055 16.364099 0)
(92.8055 16.3641 3.610007e-18)
(92.8055 16.3641 2.1629708e-18)
(92.8055 16.3641 0)
(92.8055 16.3641 1.7369357e-18)
(92.8055 16.3641 -1.5540057e-18)
(92.8055 16.3641 2.7803313e-18)
(92.8055 16.3641 2.4767982e-18)
(92.8055 16.3641 -1.0785231e-21)
(92.8055 16.3641 9.5887025e-22)
(92.8055 16.3641 3.4877598e-18)
(92.8055 16.364099 -1.5064551e-21)
(92.805503 16.364085 -5.4655218e-18)
(94.80911 -2.3088616 0)
(93.867333 -3.3390828 0)
(93.188112 0.73514394 0)
(92.891966 6.4563574 8.0232456e-19)
(92.798312 11.217519 2.7949423e-23)
(92.792569 14.158308 -1.3392789e-18)
(92.801028 15.591386 2.9626369e-22)
(92.805814 16.153608 1.1019821e-18)
(92.804826 16.32435 1.001079e-18)
(92.805342 16.359094 -1.8079081e-18)
(92.805498 16.363683 -1.9983083e-22)
(92.8055 16.364073 -1.4774945e-18)
(92.8055 16.364099 -6.4952209e-22)
(92.8055 16.3641 -2.3964862e-18)
(92.8055 16.3641 -4.3111154e-18)
(92.8055 16.3641 0)
(92.8055 16.3641 -3.4677475e-18)
(92.8055 16.3641 0)
(92.8055 16.3641 -1.3518899e-21)
(92.8055 16.3641 2.4092671e-21)
(92.8055 16.3641 2.2027496e-18)
(92.8055 16.3641 0)
(92.8055 16.3641 -3.4797791e-18)
(92.8055 16.364099 0)
(92.805503 16.364085 2.7304356e-18)
(95.283203 4.4504323 0)
(94.920336 -2.2800546 0)
(93.943367 -3.2912667 -9.5146732e-19)
(93.227549 0.76928875 -8.4402993e-22)
(92.909277 6.4737812 -7.8734902e-22)
(92.805783 11.224579 -7.299603e-19)
(92.795838 14.160402 -3.2525119e-24)
(92.801762 15.591789 4.4294748e-22)
(92.805921 16.153663 -1.316673e-22)
(92.804899 16.324378 -9.964244e-19)
(92.805319 16.359078 1.8032354e-18)
(92.805499 16.363679 -1.9899031e-22)
(92.8055 16.364073 2.0743645e-27)
(92.8055 16.364099 -6.4702145e-22)
(92.8055 16.3641 5.8321804e-22)
(92.8055 16.3641 -1.0487314e-21)
(92.8055 16.3641 1.9292504e-18)
(92.8055 16.3641 8.440151e-22)
(92.8055 16.3641 5.1041555e-35)
(92.8055 16.3641 6.7416485e-22)
(92.8055 16.3641 -1.2034406e-21)
(92.8055 16.3641 -4.3978899e-18)
(92.8055 16.3641 1.9558753e-18)
(92.8055 16.3641 -1.6961102e-21)
(92.8055 16.364099 1.5036536e-21)
(92.805503 16.364085 2.7255212e-18)
(93.554533 10.059881 -6.377987e-19)
(95.448144 4.3991289 0)
(95.03818 -2.2464894 0)
(94.018697 -3.2410382 9.4625969e-19)
(93.267347 0.80502225 -8.6658463e-19)