/*--------------------------------*- C++ -*----------------------------------*\
| =========                 |                                                 |
| \\      /  F ield         | OpenFOAM: The Open Source CFD Toolbox           |
|  \\    /   O peration     | Version:  2506                                  |
|   \\  /    A nd           | Website:  www.openfoam.com                      |
|    \\/     M anipulation  |                                                 |
\*---------------------------------------------------------------------------*/
FoamFile
{
    version     2.0;
    format      ascii;
    arch        "LSB;label=32;scalar=64";
    class       volScalarField;
    location    "0.0002";
    object      nut;
}
// * * * * * * * * * * * * * * * * * * * * * * * * * * * * * * * * * * * * * //

dimensions      [0 2 -1 0 0 0 0];

internalField   nonuniform List<scalar> 
3426
(
2.2303344e-09
2.2303342e-09
2.2303343e-09
2.2303343e-09
2.2302496e-09
2.2302364e-09
2.2302468e-09
2.2302719e-09
2.2303071e-09
2.2303265e-09
2.2303326e-09
2.230334e-09
2.2303342e-09
2.2303343e-09
2.2303343e-09
2.2303342e-09
2.2303343e-09
2.2303343e-09
2.2303344e-09
2.2303343e-09
2.2302493e-09
2.2302362e-09
2.2302467e-09
2.2302718e-09
2.2303071e-09
2.2303266e-09
2.2303326e-09
2.230334e-09
2.2303342e-09
2.2303343e-09
2.2303343e-09
2.2303343e-09
2.2303342e-09
2.2303344e-09
2.2303344e-09
2.2303343e-09
2.2298557e-09
2.2296655e-09
2.2295859e-09
2.2296075e-09
2.2297247e-09
2.2300439e-09
2.2303986e-09
2.2305225e-09
2.2305278e-09
2.2304886e-09
2.2304602e-09
2.2304255e-09
2.230384e-09
2.2303388e-09
2.2302895e-09
2.2302492e-09
2.230236e-09
2.2302466e-09
2.2302716e-09
2.2303071e-09
2.2303265e-09
2.2303326e-09
2.230334e-09
2.2303343e-09
2.2303343e-09
2.2303344e-09
2.2303343e-09
2.2303343e-09
2.2303343e-09
2.2303343e-09
2.2303343e-09
2.2299355e-09
2.2297123e-09
2.2295861e-09
2.2295806e-09
2.2296438e-09
2.2299101e-09
2.230265e-09
2.2304444e-09
2.2305015e-09
2.2304844e-09
2.2304595e-09
2.2304251e-09
2.2303837e-09
2.2303386e-09
2.2302893e-09
2.2302489e-09
2.2302358e-09
2.2302464e-09
2.2302715e-09
2.230307e-09
2.2303265e-09
2.2303326e-09
2.230334e-09
2.2303343e-09
2.2303343e-09
2.2303343e-09
2.2303343e-09
2.2303344e-09
2.2303344e-09
2.2303344e-09
2.2303343e-09
2.2299593e-09
2.2297002e-09
2.2295373e-09
2.2294767e-09
2.2295003e-09
2.2297908e-09
2.2302112e-09
2.230432e-09
2.2305002e-09
2.2304842e-09
2.2304592e-09
2.2304247e-09
2.2303836e-09
2.2303385e-09
2.230289e-09
2.2302485e-09
2.2302355e-09
2.2302463e-09
2.2302713e-09
2.2303069e-09
2.2303265e-09
2.2303327e-09
2.2303341e-09
2.2303342e-09
2.2303343e-09
2.2303344e-09
2.2303344e-09
2.2303343e-09
2.2303343e-09
2.2303344e-09
2.2303343e-09
2.2299339e-09
2.2296246e-09
2.2294067e-09
2.2293338e-09
2.2294014e-09
2.2297561e-09
2.2302066e-09
2.2304327e-09
2.2305006e-09
2.2304842e-09
2.2304588e-09
2.2304244e-09
2.2303834e-09
2.2303383e-09
2.2302887e-09
2.2302483e-09
2.2302353e-09
2.2302462e-09
2.2302713e-09
2.2303069e-09
2.2303265e-09
2.2303326e-09
2.230334e-09
2.2303343e-09
2.2303343e-09
2.2303343e-09
2.2303343e-09
2.2303344e-09
2.2303344e-09
2.2303344e-09
2.2303343e-09
2.2307539e-09
2.2304102e-09
2.2301313e-09
2.2298319e-09
2.2294764e-09
2.2292751e-09
2.2292582e-09
2.2293787e-09
2.2297541e-09
2.2302078e-09
2.2304339e-09
2.2305011e-09
2.2304841e-09
2.2304584e-09
2.230424e-09
2.2303832e-09
2.2303381e-09
2.2302885e-09
2.230248e-09
2.2302349e-09
2.230246e-09
2.2302712e-09
2.2303068e-09
2.2303264e-09
2.2303327e-09
2.2303341e-09
2.2303343e-09
2.2303343e-09
2.2303344e-09
2.2303344e-09
2.2303343e-09
2.2303343e-09
2.2303344e-09
2.2303343e-09
2.2311278e-09
2.2307452e-09
2.2303609e-09
2.2300136e-09
2.2296821e-09
2.2293637e-09
2.2292265e-09
2.2292411e-09
2.2293757e-09
2.2297543e-09
2.2302096e-09
2.2304353e-09
2.2305017e-09
2.2304841e-09
2.2304579e-09
2.2304235e-09
2.2303831e-09
2.230338e-09
2.2302881e-09
2.2302477e-09
2.2302347e-09
2.2302458e-09
2.2302711e-09
2.2303068e-09
2.2303264e-09
2.2303327e-09
2.230334e-09
2.2303343e-09
2.2303343e-09
2.2303344e-09
2.2303344e-09
2.2303344e-09
2.2303343e-09
2.2303343e-09
2.2303343e-09
2.2311591e-09
2.2310739e-09
2.2306715e-09
2.230235e-09
2.2298827e-09
2.2295988e-09
2.2293302e-09
2.2292164e-09
2.2292365e-09
2.2293739e-09
2.2297545e-09
2.2302113e-09
2.2304367e-09
2.2305023e-09
2.2304842e-09
2.2304574e-09
2.230423e-09
2.2303829e-09
2.2303379e-09
2.2302879e-09
2.2302472e-09
2.2302343e-09
2.2302455e-09
2.2302709e-09
2.2303067e-09
2.2303264e-09
2.2303327e-09
2.2303341e-09
2.2303343e-09
2.2303344e-09
2.2303344e-09
2.2303344e-09
2.2303344e-09
2.2303343e-09
2.2303344e-09
2.2303343e-09
2.231027e-09
2.2309396e-09
2.2305353e-09
2.2301321e-09
2.2298337e-09
2.2295804e-09
2.2293206e-09
2.2292116e-09
2.229233e-09
2.2293715e-09
2.2297547e-09
2.2302134e-09
2.2304382e-09
2.2305029e-09
2.2304841e-09
2.230457e-09
2.2304225e-09
2.2303826e-09
2.2303376e-09
2.2302875e-09
2.2302469e-09
2.230234e-09
2.2302454e-09
2.2302707e-09
2.2303066e-09
2.2303265e-09
2.2303327e-09
2.230334e-09
2.2303343e-09
2.2303344e-09
2.2303344e-09
2.2303343e-09
2.2303344e-09
2.2303344e-09
2.2303344e-09
2.2303343e-09
2.22997e-09
2.2305068e-09
2.2308152e-09
2.2307687e-09
2.2304555e-09
2.2301143e-09
2.2298317e-09
2.2295754e-09
2.2293133e-09
2.2292067e-09
2.2292292e-09
2.2293691e-09
2.229755e-09
2.2302154e-09
2.2304398e-09
2.2305036e-09
2.2304841e-09
2.2304564e-09
2.230422e-09
2.2303824e-09
2.2303375e-09
2.2302871e-09
2.2302465e-09
2.2302336e-09
2.2302452e-09
2.2302705e-09
2.2303065e-09
2.2303264e-09
2.2303327e-09
2.2303341e-09
2.2303343e-09
2.2303344e-09
2.2303343e-09
2.2303344e-09
2.2303344e-09
2.2303344e-09
2.2303343e-09
2.2303343e-09
2.2277851e-09
2.2296601e-09
2.2302415e-09
2.2306121e-09
2.2306728e-09
2.230445e-09
2.2301242e-09
2.2298364e-09
2.2295716e-09
2.2293054e-09
2.2292011e-09
2.229225e-09
2.2293665e-09
2.2297554e-09
2.2302176e-09
2.2304415e-09
2.2305042e-09
2.230484e-09
2.2304558e-09
2.2304214e-09
2.2303821e-09
2.2303373e-09
2.2302869e-09
2.230246e-09
2.2302333e-09
2.2302451e-09
2.2302703e-09
2.2303065e-09
2.2303263e-09
2.2303326e-09
2.2303341e-09
2.2303343e-09
2.2303344e-09
2.2303344e-09
2.2303344e-09
2.2303344e-09
2.2303344e-09
2.2303344e-09
2.2303343e-09
2.2261628e-09
2.227432e-09
2.2293224e-09
2.2300259e-09
2.2304849e-09
2.2306187e-09
2.2304445e-09
2.2301379e-09
2.229842e-09
2.2295675e-09
2.2292969e-09
2.2291949e-09
2.2292203e-09
2.229364e-09
2.229756e-09
2.23022e-09
2.2304434e-09
2.230505e-09
2.2304839e-09
2.2304553e-09
2.2304208e-09
2.2303818e-09
2.230337e-09
2.2302865e-09
2.2302455e-09
2.2302328e-09
2.2302448e-09
2.2302701e-09
2.2303064e-09
2.2303262e-09
2.2303327e-09
2.230334e-09
2.2303343e-09
2.2303344e-09
2.2303343e-09
2.2303343e-09
2.2303344e-09
2.2303344e-09
2.2303344e-09
2.2303343e-09
2.2239867e-09
2.2260893e-09
2.2271388e-09
2.2290616e-09
2.2298658e-09
2.2303846e-09
2.2305719e-09
2.2304419e-09
2.2301514e-09
2.2298481e-09
2.2295631e-09
2.2292879e-09
2.2291882e-09
2.2292154e-09
2.2293613e-09
2.2297565e-09
2.2302225e-09
2.2304453e-09
2.2305057e-09
2.2304839e-09
2.2304547e-09
2.2304203e-09
2.2303815e-09
2.2303367e-09
2.230286e-09
2.230245e-09
2.2302324e-09
2.2302446e-09
2.23027e-09
2.2303063e-09
2.2303263e-09
2.2303327e-09
2.230334e-09
2.2303343e-09
2.2303344e-09
2.2303344e-09
2.2303344e-09
2.2303343e-09
2.2303344e-09
2.2303344e-09
2.2303343e-09
2.2220201e-09
2.2161858e-09
2.2210962e-09
2.2240026e-09
2.2261464e-09
2.2269944e-09
2.2288581e-09
2.2296985e-09
2.2302885e-09
2.2305193e-09
2.2304316e-09
2.2301641e-09
2.2298547e-09
2.2295589e-09
2.2292786e-09
2.2291811e-09
2.22921e-09
2.2293584e-09
2.2297573e-09
2.2302253e-09
2.2304473e-09
2.2305065e-09
2.2304837e-09
2.2304541e-09
2.2304197e-09
2.2303812e-09
2.2303364e-09
2.2302855e-09
2.2302445e-09
2.2302319e-09
2.2302443e-09
2.2302699e-09
2.2303062e-09
2.2303263e-09
2.2303327e-09
2.2303341e-09
2.2303343e-09
2.2303344e-09
2.2303344e-09
2.2303344e-09
2.2303343e-09
2.2303344e-09
2.2303344e-09
2.2303343e-09
2.2218817e-09
2.2160986e-09
2.2212233e-09
2.2240784e-09
2.2262997e-09
2.2269658e-09
2.2286977e-09
2.2295144e-09
2.2301894e-09
2.2304566e-09
2.2304149e-09
2.230175e-09
2.2298619e-09
2.2295547e-09
2.2292689e-09
2.2291736e-09
2.2292043e-09
2.2293554e-09
2.2297582e-09
2.2302282e-09
2.2304495e-09
2.2305074e-09
2.2304835e-09
2.2304534e-09
2.230419e-09
2.230381e-09
2.2303363e-09
2.2302851e-09
2.230244e-09
2.2302314e-09
2.2302441e-09
2.2302696e-09
2.2303061e-09
2.2303263e-09
2.2303327e-09
2.230334e-09
2.2303343e-09
2.2303344e-09
2.2303343e-09
2.2303344e-09
2.2303344e-09
2.2303344e-09
2.2303344e-09
2.2303343e-09
2.2216984e-09
2.2160973e-09
2.2214912e-09
2.2242393e-09
2.226508e-09
2.2270316e-09
2.2285807e-09
2.2293299e-09
2.2300831e-09
2.2303857e-09
2.2303933e-09
2.2301835e-09
2.2298693e-09
2.229551e-09
2.2292588e-09
2.2291655e-09
2.2291981e-09
2.229352e-09
2.2297594e-09
2.2302312e-09
2.2304517e-09
2.2305084e-09
2.2304833e-09
2.2304526e-09
2.2304184e-09
2.2303806e-09
2.230336e-09
2.2302846e-09
2.2302433e-09
2.2302309e-09
2.2302439e-09
2.2302694e-09
2.230306e-09
2.2303262e-09
2.2303327e-09
2.2303341e-09
2.2303343e-09
2.2303343e-09
2.2303344e-09
2.2303344e-09
2.2303344e-09
2.2303344e-09
2.2303344e-09
2.2303343e-09
2.21779e-09
2.2126253e-09
2.2120107e-09
2.2215352e-09
2.2161938e-09
2.2218766e-09
2.2244601e-09
2.2267657e-09
2.2271833e-09
2.2285077e-09
2.2291549e-09
2.2299663e-09
2.2303053e-09
2.2303654e-09
2.2301893e-09
2.2298772e-09
2.2295477e-09
2.2292486e-09
2.2291569e-09
2.2291914e-09
2.2293486e-09
2.2297609e-09
2.2302346e-09
2.230454e-09
2.2305095e-09
2.230483e-09
2.2304517e-09
2.2304178e-09
2.2303802e-09
2.2303357e-09
2.2302841e-09
2.2302427e-09
2.2302303e-09
2.2302437e-09
2.2302692e-09
2.2303059e-09
2.2303262e-09
2.2303327e-09
2.230334e-09
2.2303344e-09
2.2303343e-09
2.2303344e-09
2.2303344e-09
2.2303344e-09
2.2303344e-09
2.2303343e-09
2.2303343e-09
2.2183889e-09
2.2133474e-09
2.2176413e-09
2.2123908e-09
2.2124127e-09
2.2213542e-09
2.2163737e-09
2.2223357e-09
2.2247523e-09
2.2270796e-09
2.2274166e-09
2.2284844e-09
2.2290163e-09
2.229846e-09
2.2302178e-09
2.2303321e-09
2.2301912e-09
2.2298855e-09
2.2295444e-09
2.2292381e-09
2.2291477e-09
2.2291844e-09
2.2293448e-09
2.2297625e-09
2.2302384e-09
2.2304566e-09
2.2305104e-09
2.2304828e-09
2.2304508e-09
2.230417e-09
2.2303799e-09
2.2303353e-09
2.2302835e-09
2.230242e-09
2.2302297e-09
2.2302433e-09
2.230269e-09
2.2303058e-09
2.2303262e-09
2.2303327e-09
2.230334e-09
2.2303343e-09
2.2303344e-09
2.2303344e-09
2.2303344e-09
2.2303344e-09
2.2303343e-09
2.2303343e-09
2.2303343e-09
2.2783345e-09
2.2351859e-09
2.2148857e-09
2.2170394e-09
2.2120984e-09
2.2128614e-09
2.2212636e-09
2.2165121e-09
2.2228217e-09
2.2251335e-09
2.2274611e-09
2.2277096e-09
2.2285304e-09
2.2289261e-09
2.229727e-09
2.2301324e-09
2.2302934e-09
2.2301889e-09
2.2298936e-09
2.2295411e-09
2.2292275e-09
2.2291381e-09
2.2291769e-09
2.2293408e-09
2.2297643e-09
2.2302423e-09
2.2304593e-09
2.2305114e-09
2.2304824e-09
2.2304499e-09
2.2304162e-09
2.2303795e-09
2.2303349e-09
2.2302829e-09
2.2302414e-09
2.230229e-09
2.230243e-09
2.2302688e-09
2.2303057e-09
2.2303262e-09
2.2303327e-09
2.2303341e-09
2.2303343e-09
2.2303344e-09
2.2303344e-09
2.2303344e-09
2.2303343e-09
2.2303343e-09
2.2303344e-09
2.2303343e-09
2.2281894e-09
2.2287905e-09
2.2436749e-09
2.2418989e-09
2.2204772e-09
2.2165837e-09
2.2117002e-09
2.2132852e-09
2.2212776e-09
2.2165985e-09
2.2233224e-09
2.2255817e-09
2.2279164e-09
2.2280714e-09
2.2286596e-09
2.228867e-09
2.2296169e-09
2.2300503e-09
2.230246e-09
2.2301824e-09
2.2299005e-09
2.2295378e-09
2.2292168e-09
2.2291279e-09
2.2291688e-09
2.2293368e-09
2.2297666e-09
2.2302464e-09
2.2304622e-09
2.2305125e-09
2.2304821e-09
2.2304488e-09
2.2304155e-09
2.2303791e-09
2.2303345e-09
2.2302822e-09
2.2302406e-09
2.2302284e-09
2.2302427e-09
2.2302686e-09
2.2303056e-09
2.2303261e-09
2.2303327e-09
2.2303341e-09
2.2303343e-09
2.2303343e-09
2.2303344e-09
2.2303344e-09
2.2303344e-09
2.2303343e-09
2.2303344e-09
2.2303343e-09
2.2105096e-09
2.2171706e-09
2.2174186e-09
2.2232924e-09
2.2333264e-09
2.2227252e-09
2.217408e-09
2.2114545e-09
2.2136267e-09
2.221232e-09
2.216719e-09
2.2238609e-09
2.2260983e-09
2.2284576e-09
2.2285147e-09
2.2288694e-09
2.2288422e-09
2.229525e-09
2.2299684e-09
2.2301902e-09
2.230171e-09
2.2299057e-09
2.2295348e-09
2.2292058e-09
2.2291172e-09
2.2291601e-09
2.2293324e-09
2.2297696e-09
2.2302509e-09
2.2304651e-09
2.2305137e-09
2.2304816e-09
2.2304477e-09
2.2304147e-09
2.2303787e-09
2.2303341e-09
2.2302815e-09
2.2302398e-09
2.2302277e-09
2.2302423e-09
2.2302683e-09
2.2303056e-09
2.2303261e-09
2.2303327e-09
2.2303341e-09
2.2303344e-09
2.2303344e-09
2.2303344e-09
2.2303344e-09
2.2303344e-09
2.2303344e-09
2.2303344e-09
2.2303343e-09
2.2088013e-09
2.2146549e-09
2.2144912e-09
2.2166564e-09
2.2284363e-09
2.2209765e-09
2.2181706e-09
2.2112121e-09
2.2139648e-09
2.2210858e-09
2.216867e-09
2.224453e-09
2.2266904e-09
2.229078e-09
2.2290354e-09
2.2291699e-09
2.2288845e-09
2.2294634e-09
2.2298836e-09
2.2301276e-09
2.2301538e-09
2.2299094e-09
2.2295315e-09
2.2291949e-09
2.229106e-09
2.229151e-09
2.2293276e-09
2.2297728e-09
2.2302559e-09
2.2304683e-09
2.2305149e-09
2.2304812e-09
2.2304466e-09
2.2304139e-09
2.2303783e-09
2.2303337e-09
2.2302806e-09
2.230239e-09
2.230227e-09
2.2302419e-09
2.2302681e-09
2.2303055e-09
2.2303261e-09
2.2303327e-09
2.2303341e-09
2.2303344e-09
2.2303344e-09
2.2303344e-09
2.2303344e-09
2.2303344e-09
2.2303344e-09
2.2303344e-09
2.2303343e-09
2.2092131e-09
2.2150016e-09
2.2137145e-09
2.2138694e-09
2.2248797e-09
2.221654e-09
2.218215e-09
2.2109179e-09
2.2144459e-09
2.2208279e-09
2.2170912e-09
2.2250795e-09
2.227355e-09
2.2297555e-09
2.2296423e-09
2.2295513e-09
2.2290212e-09
2.2294457e-09
2.2298025e-09
2.2300637e-09
2.2301305e-09
2.2299101e-09
2.2295283e-09
2.2291836e-09
2.2290941e-09
2.2291411e-09
2.2293227e-09
2.2297765e-09
2.2302611e-09
2.2304716e-09
2.2305161e-09
2.2304807e-09
2.2304453e-09
2.2304131e-09
2.2303778e-09
2.2303332e-09
2.2302799e-09
2.230238e-09
2.2302263e-09
2.2302415e-09
2.2302679e-09
2.2303053e-09
2.230326e-09
2.2303327e-09
2.2303341e-09
2.2303343e-09
2.2303344e-09
2.2303344e-09
2.2303344e-09
2.2303344e-09
2.2303343e-09
2.2303344e-09
2.2303343e-09
2.2117911e-09
2.2172883e-09
2.2156573e-09
2.2094378e-09
2.2153652e-09
2.2134977e-09
2.2125162e-09
2.22092e-09
2.2224068e-09
2.2181385e-09
2.2108759e-09
2.214922e-09
2.2206207e-09
2.2173388e-09
2.2256621e-09
2.2280545e-09
2.2305047e-09
2.2303163e-09
2.2299956e-09
2.2292499e-09
2.2294778e-09
2.2297365e-09
2.2300015e-09
2.2301014e-09
2.2299068e-09
2.2295246e-09
2.2291723e-09
2.2290818e-09
2.2291308e-09
2.2293176e-09
2.2297808e-09
2.2302667e-09
2.2304752e-09
2.2305173e-09
2.2304801e-09
2.230444e-09
2.2304121e-09
2.2303773e-09
2.2303326e-09
2.230279e-09
2.2302371e-09
2.2302255e-09
2.230241e-09
2.2302677e-09
2.2303053e-09
2.2303261e-09
2.2303327e-09
2.2303341e-09
2.2303343e-09
2.2303344e-09
2.2303344e-09
2.2303344e-09
2.2303343e-09
2.2303344e-09
2.2303344e-09
2.2303343e-09
2.217476e-09
2.2138613e-09
2.2183199e-09
2.2163147e-09
2.209717e-09
2.2153887e-09
2.2130355e-09
2.2118756e-09
2.2179444e-09
2.2220443e-09
2.2177981e-09
2.2109591e-09
2.2153403e-09
2.2204173e-09
2.2175554e-09
2.2262048e-09
2.2287471e-09
2.2312916e-09
2.2310618e-09
2.230491e-09
2.2295535e-09
2.2295592e-09
2.2297042e-09
2.2299394e-09
2.2300655e-09
2.2298994e-09
2.2295192e-09
2.229162e-09
2.229069e-09
2.2291196e-09
2.229312e-09
2.2297857e-09
2.2302729e-09
2.2304789e-09
2.2305185e-09
2.2304795e-09
2.2304426e-09
2.2304112e-09
2.2303768e-09
2.2303321e-09
2.230278e-09
2.230236e-09
2.2302248e-09
2.2302406e-09
2.2302674e-09
2.2303052e-09
2.230326e-09
2.2303327e-09
2.2303341e-09
2.2303343e-09
2.2303344e-09
2.2303344e-09
2.2303343e-09
2.2303343e-09
2.2303343e-09
2.2303343e-09
2.2303343e-09
2.2638199e-09
2.2210349e-09
2.2169937e-09
2.2199931e-09
2.2168938e-09
2.2105823e-09
2.2152359e-09
2.2120219e-09
2.2111513e-09
2.2157639e-09
2.2206729e-09
2.2173877e-09
2.2113887e-09
2.2155566e-09
2.220108e-09
2.2177834e-09
2.2266955e-09
2.2293929e-09
2.2320356e-09
2.2318461e-09
2.2310446e-09
2.229923e-09
2.2296941e-09
2.2297069e-09
2.2298808e-09
2.2300243e-09
2.2298882e-09
2.2295116e-09
2.2291519e-09
2.229056e-09
2.2291082e-09
2.2293063e-09
2.2297911e-09
2.2302794e-09
2.230483e-09
2.2305198e-09
2.2304787e-09
2.2304411e-09
2.2304102e-09
2.2303763e-09
2.2303314e-09
2.230277e-09
2.230235e-09
2.230224e-09
2.2302401e-09
2.2302672e-09
2.2303052e-09
2.230326e-09
2.2303326e-09
2.2303341e-09
2.2303343e-09
2.2303344e-09
2.2303344e-09
2.2303343e-09
2.2303344e-09
2.2303343e-09
2.2303344e-09
2.2303343e-09
2.416308e-09
2.2582454e-09
2.2907405e-09
2.2793806e-09
2.2297274e-09
2.2217147e-09
2.2221165e-09
2.2173391e-09
2.2115362e-09
2.2147186e-09
2.2105774e-09
2.2098155e-09
2.2135352e-09
2.2184681e-09
2.2172726e-09
2.2116477e-09
2.2156358e-09
2.2196403e-09
2.2179175e-09
2.2269523e-09
2.2298487e-09
2.232639e-09
2.2325889e-09
2.2316192e-09
2.2303506e-09
2.2298972e-09
2.22974e-09
2.2298353e-09
2.229981e-09
2.229872e-09
2.2295018e-09
2.2291413e-09
2.2290427e-09
2.2290969e-09
2.2293004e-09
2.2297973e-09
2.2302866e-09
2.2304873e-09
2.230521e-09
2.2304777e-09
2.2304395e-09
2.2304092e-09
2.2303758e-09
2.2303307e-09
2.2302758e-09
2.2302338e-09
2.2302231e-09
2.2302396e-09
2.230267e-09
2.2303051e-09
2.230326e-09
2.2303327e-09
2.2303341e-09
2.2303343e-09
2.2303344e-09
2.2303344e-09
2.2303344e-09
2.2303344e-09
2.2303344e-09
2.2303344e-09
2.2303343e-09
2.5086608e-09
2.2776512e-09
2.2701248e-09
2.2962555e-09
2.2447806e-09
2.2286674e-09
2.2245566e-09
2.2171556e-09
2.2121234e-09
2.2138848e-09
2.2090293e-09
2.2079311e-09
2.2107397e-09
2.2155451e-09
2.2171226e-09
2.2116009e-09
2.2157768e-09
2.2190393e-09
2.2178297e-09
2.2268862e-09
2.2298495e-09
2.2329067e-09
2.2331515e-09
2.2321521e-09
2.2308167e-09
2.2301641e-09
2.2298053e-09
2.2298144e-09
2.2299348e-09
2.229851e-09
2.2294897e-09
2.2291297e-09
2.229029e-09
2.2290853e-09
2.2292944e-09
2.2298046e-09
2.2302942e-09
2.2304918e-09
2.2305222e-09
2.2304767e-09
2.2304378e-09
2.2304083e-09
2.2303751e-09
2.23033e-09
2.2302746e-09
2.2302325e-09
2.2302223e-09
2.2302391e-09
2.2302668e-09
2.230305e-09
2.2303261e-09
2.2303327e-09
2.2303341e-09
2.2303343e-09
2.2303343e-09
2.2303343e-09
2.2303343e-09
2.2303344e-09
2.2303344e-09
2.2303343e-09
2.2303343e-09
2.4620046e-09
2.2975675e-09
2.2559845e-09
2.2871643e-09
2.263566e-09
2.2377989e-09
2.2267964e-09
2.2166794e-09
2.2125842e-09
2.212996e-09
2.2080057e-09
2.2064261e-09
2.2079375e-09
2.2119661e-09
2.216717e-09
2.211254e-09
2.2157669e-09
2.2185014e-09
2.217711e-09
2.2265579e-09
2.2292852e-09
2.23264e-09
2.2333274e-09
2.23253e-09
2.2312819e-09
2.2304578e-09
2.2299079e-09
2.2298159e-09
2.2298903e-09
2.2298242e-09
2.229474e-09
2.2291175e-09
2.2290147e-09
2.2290735e-09
2.2292885e-09
2.229813e-09
2.2303025e-09
2.2304968e-09
2.2305234e-09
2.2304756e-09
2.230436e-09
2.2304073e-09
2.2303746e-09
2.2303291e-09
2.2302734e-09
2.2302311e-09
2.2302214e-09
2.2302386e-09
2.2302665e-09
2.230305e-09
2.230326e-09
2.2303327e-09
2.2303341e-09
2.2303343e-09
2.2303344e-09
2.2303344e-09
2.2303343e-09
2.2303344e-09
2.2303343e-09
2.2303344e-09
2.2303343e-09
2.3951914e-09
2.2928368e-09
2.2478762e-09
2.2547314e-09
2.2664639e-09
2.2472963e-09
2.2287119e-09
2.2158583e-09
2.2123976e-09
2.2126478e-09
2.2077028e-09
2.2063606e-09
2.2064501e-09
2.2090536e-09
2.2155392e-09
2.2106132e-09
2.2154693e-09
2.2180778e-09
2.2175421e-09
2.2259633e-09
2.2286286e-09
2.2319988e-09
2.2329654e-09
2.2325884e-09
2.2316634e-09
2.2307651e-09
2.2300487e-09
2.2298389e-09
2.2298521e-09
2.2297929e-09
2.2294547e-09
2.2291041e-09
2.2290001e-09
2.2290613e-09
2.2292828e-09
2.2298226e-09
2.2303114e-09
2.2305019e-09
2.2305247e-09
2.2304742e-09
2.2304342e-09
2.2304062e-09
2.2303741e-09
2.2303283e-09
2.2302719e-09
2.2302297e-09
2.2302205e-09
2.230238e-09
2.2302662e-09
2.230305e-09
2.2303261e-09
2.2303327e-09
2.2303341e-09
2.2303343e-09
2.2303344e-09
2.2303344e-09
2.2303343e-09
2.2303343e-09
2.2303344e-09
2.2303344e-09
2.2303343e-09
2.3532957e-09
2.2756742e-09
2.2510184e-09
2.2398679e-09
2.2451257e-09
2.2486422e-09
2.2290352e-09
2.2142361e-09
2.2118695e-09
2.211767e-09
2.207657e-09
2.2068604e-09
2.2062089e-09
2.2076839e-09
2.2135483e-09
2.2097957e-09
2.2148882e-09
2.2173976e-09
2.2172782e-09
2.2252055e-09
2.2279003e-09
2.2313863e-09
2.2323357e-09
2.2322639e-09
2.2318344e-09
2.2310385e-09
2.2302201e-09
2.2298794e-09
2.2298248e-09
2.2297564e-09
2.2294313e-09
2.2290899e-09
2.2289848e-09
2.2290489e-09
2.2292776e-09
2.2298333e-09
2.2303211e-09
2.2305073e-09
2.2305259e-09
2.2304726e-09
2.2304322e-09
2.2304052e-09
2.2303734e-09
2.2303273e-09
2.2302704e-09
2.230228e-09
2.2302195e-09
2.2302375e-09
2.230266e-09
2.230305e-09
2.2303261e-09
2.2303327e-09
2.2303341e-09
2.2303344e-09
2.2303344e-09
2.2303344e-09
2.2303344e-09
2.2303343e-09
2.2303344e-09
2.2303344e-09
2.2303343e-09
2.3228422e-09
2.2628039e-09
2.2469154e-09
2.2335136e-09
2.2397055e-09
2.2392696e-09
2.2232594e-09
2.213414e-09
2.2110632e-09
2.2101841e-09
2.2074315e-09
2.2071123e-09
2.2064241e-09
2.2075278e-09
2.2117223e-09
2.2090664e-09
2.2141689e-09
2.2164887e-09
2.2169871e-09
2.2243834e-09
2.2267599e-09
2.2304769e-09
2.2317028e-09
2.231784e-09
2.2317173e-09
2.231195e-09
2.2303922e-09
2.2299371e-09
2.2298097e-09
2.2297174e-09
2.2294017e-09
2.2290739e-09
2.2289692e-09
2.2290369e-09
2.229273e-09
2.2298456e-09
2.2303314e-09
2.2305128e-09
2.2305269e-09
2.2304709e-09
2.2304301e-09
2.2304041e-09
2.2303727e-09
2.2303262e-09
2.2302687e-09
2.2302264e-09
2.2302184e-09
2.230237e-09
2.2302659e-09
2.2303051e-09
2.2303261e-09
2.2303327e-09
2.2303341e-09
2.2303344e-09
2.2303344e-09
2.2303344e-09
2.2303344e-09
2.2303344e-09
2.2303344e-09
2.2303344e-09
2.2303343e-09
2.2974397e-09
2.2496792e-09
2.2425438e-09
2.2344222e-09
2.2373416e-09
2.232822e-09
2.2198192e-09
2.2122346e-09
2.2095318e-09
2.208771e-09
2.2073407e-09
2.2074808e-09
2.2070843e-09
2.2082932e-09
2.2112106e-09
2.208651e-09
2.2134243e-09
2.2151543e-09
2.2165399e-09
2.223567e-09
2.2259533e-09
2.2294815e-09
2.2307685e-09
2.2312388e-09
2.2314135e-09
2.231195e-09
2.2305293e-09
2.2300118e-09
2.2298042e-09
2.2296775e-09
2.2293671e-09
2.2290544e-09
2.2289525e-09
2.2290249e-09
2.2292694e-09
2.2298595e-09
2.2303425e-09
2.2305187e-09
2.2305279e-09
2.2304689e-09
2.230428e-09
2.2304031e-09
2.230372e-09
2.230325e-09
2.2302669e-09
2.2302246e-09
2.2302173e-09
2.2302364e-09
2.2302657e-09
2.2303051e-09
2.2303262e-09
2.2303327e-09
2.2303341e-09
2.2303344e-09
2.2303344e-09
2.2303343e-09
2.2303344e-09
2.2303344e-09
2.2303344e-09
2.2303344e-09
2.2303343e-09
2.2755365e-09
2.2423732e-09
2.2396681e-09
2.235917e-09
2.2359763e-09
2.2314831e-09
2.2182265e-09
2.2115216e-09
2.2082537e-09
2.2078901e-09
2.207363e-09
2.207939e-09
2.2080962e-09
2.209089e-09
2.2116388e-09
2.2087449e-09
2.2126898e-09
2.2137229e-09
2.2156092e-09
2.2218054e-09
2.2244326e-09
2.2285201e-09
2.2298671e-09
2.2305496e-09
2.2309805e-09
2.2310589e-09
2.2305984e-09
2.2300891e-09
2.2298071e-09
2.2296365e-09
2.2293286e-09
2.229031e-09
2.2289357e-09
2.229013e-09
2.2292674e-09
2.2298751e-09
2.2303546e-09
2.2305245e-09
2.2305289e-09
2.2304667e-09
2.2304258e-09
2.230402e-09
2.2303712e-09
2.2303237e-09
2.230265e-09
2.2302226e-09
2.230216e-09
2.2302358e-09
2.2302656e-09
2.2303052e-09
2.2303262e-09
2.2303328e-09
2.2303341e-09
2.2303344e-09
2.2303344e-09
2.2303344e-09
2.2303344e-09
2.2303344e-09
2.2303343e-09
2.2303344e-09
2.2303343e-09
2.2610188e-09
2.2462428e-09
2.2416926e-09
2.2387106e-09
2.2367027e-09
2.2307461e-09
2.2178934e-09
2.2119464e-09
2.2079676e-09
2.2074087e-09
2.2076257e-09
2.2082518e-09
2.2090587e-09
2.2095203e-09
2.2121687e-09
2.2088306e-09
2.2123553e-09
2.2129985e-09
2.2151174e-09
2.2207915e-09
2.2230466e-09
2.2270974e-09
2.2288342e-09
2.2298624e-09
2.2304726e-09
2.2308307e-09
2.2305858e-09
2.2301563e-09
2.2298185e-09
2.2295959e-09
2.2292831e-09
2.229003e-09
2.2289171e-09
2.2290015e-09
2.2292675e-09
2.2298929e-09
2.2303678e-09
2.2305308e-09
2.2305296e-09
2.2304642e-09
2.2304235e-09
2.2304011e-09
2.2303704e-09
2.2303223e-09
2.2302628e-09
2.2302207e-09
2.2302148e-09
2.2302352e-09
2.2302655e-09
2.2303052e-09
2.2303263e-09
2.2303327e-09
2.2303341e-09
2.2303343e-09
2.2303343e-09
2.2303343e-09
2.2303344e-09
2.2303343e-09
2.2303344e-09
2.2303344e-09
2.2303343e-09
2.2524549e-09
2.2520712e-09
2.2508909e-09
2.2454961e-09
2.2389847e-09
2.2318663e-09
2.2195222e-09
2.2130569e-09
2.2095424e-09
2.2081601e-09
2.2086686e-09
2.2088105e-09
2.2097437e-09
2.2096502e-09
2.2122881e-09
2.208978e-09
2.2123992e-09
2.2127609e-09
2.2156591e-09
2.2211912e-09
2.2234113e-09
2.2268147e-09
2.2279652e-09
2.2291505e-09
2.2299706e-09
2.230547e-09
2.2305127e-09
2.2302033e-09
2.2298364e-09
2.2295568e-09
2.2292316e-09
2.2289696e-09
2.2288964e-09
2.2289905e-09
2.2292704e-09
2.229913e-09
2.230382e-09
2.230537e-09
2.2305301e-09
2.2304613e-09
2.2304211e-09
2.2304001e-09
2.2303695e-09
2.2303206e-09
2.2302605e-09
2.2302186e-09
2.2302134e-09
2.2302345e-09
2.2302653e-09
2.2303054e-09
2.2303263e-09
2.2303328e-09
2.2303341e-09
2.2303344e-09
2.2303344e-09
2.2303344e-09
2.2303343e-09
2.2303344e-09
2.2303344e-09
2.2303344e-09
2.2303343e-09
2.2553131e-09
2.25681e-09
2.2533383e-09
2.2454123e-09
2.2370176e-09
2.2239137e-09
2.2164285e-09
2.2129017e-09
2.2112678e-09
2.211064e-09
2.2100859e-09
2.2105263e-09
2.210085e-09
2.2121868e-09
2.2090889e-09
2.2128661e-09
2.2130311e-09
2.2165297e-09
2.2221434e-09
2.2245509e-09
2.2275029e-09
2.2280338e-09
2.2287396e-09
2.2295499e-09
2.2302647e-09
2.2303948e-09
2.2302197e-09
2.2298574e-09
2.2295203e-09
2.2291748e-09
2.2289296e-09
2.2288737e-09
2.2289794e-09
2.2292765e-09
2.2299359e-09
2.2303972e-09
2.2305434e-09
2.2305303e-09
2.230458e-09
2.2304189e-09
2.2303991e-09
2.2303686e-09
2.2303187e-09
2.2302579e-09
2.2302164e-09
2.230212e-09
2.2302339e-09
2.2302653e-09
2.2303056e-09
2.2303265e-09
2.2303328e-09
2.2303341e-09
2.2303344e-09
2.2303344e-09
2.2303344e-09
2.2303344e-09
2.2303344e-09
2.2303344e-09
2.2303344e-09
2.2303343e-09
2.2648523e-09
2.2700705e-09
2.2636206e-09
2.2527598e-09
2.2392629e-09
2.2245561e-09
2.2170635e-09
2.2147276e-09
2.2127137e-09
2.2109936e-09
2.2092234e-09
2.2092685e-09
2.2093976e-09
2.2115077e-09
2.2091565e-09
2.2130077e-09
2.2139008e-09
2.2183087e-09
2.2240371e-09
2.2267573e-09
2.2289944e-09
2.228913e-09
2.2289762e-09
2.229358e-09
2.2300447e-09
2.2302577e-09
2.2302068e-09
2.2298779e-09
2.2294893e-09
2.2291151e-09
2.2288825e-09
2.2288468e-09
2.2289677e-09
2.229287e-09
2.2299616e-09
2.2304135e-09
2.2305501e-09
2.23053e-09
2.2304544e-09
2.2304165e-09
2.2303983e-09
2.2303677e-09
2.2303167e-09
2.230255e-09
2.2302141e-09
2.2302106e-09
2.2302332e-09
2.2302654e-09
2.2303059e-09
2.2303266e-09
2.2303329e-09
2.2303342e-09
2.2303344e-09
2.2303344e-09
2.2303344e-09
2.2303344e-09
2.2303344e-09
2.2303344e-09
2.2303344e-09
2.2303343e-09
2.259084e-09
2.2492251e-09
2.236854e-09
2.2224572e-09
2.2135085e-09
2.2092444e-09
2.2079922e-09
2.20544e-09
2.2037547e-09
2.2033189e-09
2.2043365e-09
2.2060368e-09
2.2094714e-09
2.2091341e-09
2.2133388e-09
2.215549e-09
2.2209978e-09
2.2267343e-09
2.2298147e-09
2.2312346e-09
2.2305213e-09
2.229814e-09
2.229567e-09
2.2299524e-09
2.2301372e-09
2.2301715e-09
2.2298932e-09
2.2294634e-09
2.2290535e-09
2.2288292e-09
2.2288164e-09
2.2289549e-09
2.2293017e-09
2.229991e-09
2.2304312e-09
2.2305567e-09
2.2305293e-09
2.2304503e-09
2.2304142e-09
2.2303973e-09
2.2303666e-09
2.2303144e-09
2.2302518e-09
2.2302115e-09
2.2302091e-09
2.2302327e-09
2.2302654e-09
2.2303061e-09
2.2303267e-09
2.2303329e-09
2.2303342e-09
2.2303343e-09
2.2303344e-09
2.2303344e-09
2.2303343e-09
2.2303344e-09
2.2303344e-09
2.2303344e-09
2.2303343e-09
2.2277371e-09
2.2156757e-09
2.2059673e-09
2.2041966e-09
2.2015532e-09
2.1986695e-09
2.1974283e-09
2.1980414e-09
2.1988505e-09
2.2001214e-09
2.202188e-09
2.2062526e-09
2.2087316e-09
2.2134785e-09
2.2178124e-09
2.2240819e-09
2.2297893e-09
2.2330684e-09
2.2336816e-09
2.2324801e-09
2.231079e-09
2.2301653e-09
2.2300558e-09
2.2300622e-09
2.2301273e-09
2.2298987e-09
2.2294419e-09
2.2289942e-09
2.2287709e-09
2.2287814e-09
2.2289414e-09
2.2293214e-09
2.2300245e-09
2.23045e-09
2.2305631e-09
2.230528e-09
2.2304456e-09
2.2304123e-09
2.2303964e-09
2.2303654e-09
2.2303117e-09
2.2302484e-09
2.2302088e-09
2.2302076e-09
2.230232e-09
2.2302656e-09
2.2303065e-09
2.2303269e-09
2.2303329e-09
2.2303342e-09
2.2303344e-09
2.2303344e-09
2.2303343e-09
2.2303344e-09
2.2303344e-09
2.2303344e-09
2.2303344e-09
2.2303343e-09
2.2204223e-09
2.2155356e-09
2.2110293e-09
2.2068564e-09
2.2041961e-09
2.2013348e-09
2.2001747e-09
2.200508e-09
2.2006614e-09
2.2004328e-09
2.2019448e-09
2.2043502e-09
2.2089625e-09
2.2137899e-09
2.2198671e-09
2.226197e-09
2.2314471e-09
2.2344921e-09
2.2347906e-09
2.2336898e-09
2.2321224e-09
2.230898e-09
2.2303156e-09
2.2300584e-09
2.2300777e-09
2.2298925e-09
2.2294241e-09
2.2289366e-09
2.2287105e-09
2.2287439e-09
2.2289266e-09
2.2293463e-09
2.230062e-09
2.2304701e-09
2.2305693e-09
2.2305259e-09
2.2304405e-09
2.2304108e-09
2.2303954e-09
2.2303641e-09
2.2303088e-09
2.2302446e-09
2.2302058e-09
2.2302061e-09
2.2302314e-09
2.2302659e-09
2.230307e-09
2.2303272e-09
2.230333e-09
2.2303341e-09
2.2303344e-09
2.2303344e-09
2.2303344e-09
2.2303344e-09
2.2303343e-09
2.2303344e-09
2.2303344e-09
2.2303343e-09
2.2138737e-09
2.2123308e-09
2.2086041e-09
2.2070254e-09
2.2061621e-09
2.206341e-09
2.2055324e-09
2.2051602e-09
2.2024753e-09
2.2033896e-09
2.2041137e-09
2.2084847e-09
2.2133906e-09
2.2194981e-09
2.2249066e-09
2.2295541e-09
2.2323482e-09
2.2332242e-09
2.2329923e-09
2.2321594e-09
2.2312978e-09
2.230565e-09
2.2301041e-09
2.2300286e-09
2.2298733e-09
2.2294021e-09
2.2288847e-09
2.22865e-09
2.2287043e-09
2.228911e-09
2.2293781e-09
2.2301036e-09
2.2304914e-09
2.2305751e-09
2.2305228e-09
2.2304349e-09
2.2304097e-09
2.2303945e-09
2.2303626e-09
2.2303055e-09
2.2302407e-09
2.2302027e-09
2.2302045e-09
2.2302309e-09
2.2302663e-09
2.2303075e-09
2.2303273e-09
2.2303331e-09
2.2303342e-09
2.2303344e-09
2.2303344e-09
2.2303344e-09
2.2066865e-09
2.2079324e-09
2.2073771e-09
2.207392e-09
2.2069129e-09
2.2062082e-09
2.2053731e-09
2.2056769e-09
2.2023849e-09
2.2036862e-09
2.2036541e-09
2.2066355e-09
2.2119298e-09
2.2175308e-09
2.2217022e-09
2.2260246e-09
2.2286146e-09