/*--------------------------------*- C++ -*----------------------------------*\
| =========                 |                                                 |
| \\      /  F ield         | OpenFOAM: The Open Source CFD Toolbox           |
|  \\    /   O peration     | Version:  2506                                  |
|   \\  /    A nd           | Website:  www.openfoam.com                      |
|    \\/     M anipulation  |                                                 |
\*---------------------------------------------------------------------------*/
FoamFile
{
    version     2.0;
    format      ascii;
    arch        "LSB;label=32;scalar=64";
    class       volVectorField;
    location    "1.05";
    object      U;
}
// * * * * * * * * * * * * * * * * * * * * * * * * * * * * * * * * * * * * * //

dimensions      [0 1 -1 0 0 0 0];

internalField   nonuniform List<vector> 
1375
(
(93.565366 -0.010860408 -4.5124081e-18)
(93.456686 -0.011555111 0)
(93.337982 -0.011877984 0)
(93.199065 -0.012442823 -3.7219584e-18)
(93.033594 -0.011580047 0)
(92.84697 -0.0096367174 0)
(92.636876 -0.0081292165 -3.1093342e-18)
(92.393518 -0.0069100462 7.4024554e-18)
(92.114353 -0.0066812515 0)
(91.794424 -0.0093078185 1.0562954e-17)
(91.428051 -0.012247454 0)
(91.005506 -0.0097771933 0)
(90.513081 -0.0034297815 -4.6057936e-18)
(89.936489 0.0004608249 -5.5899637e-18)
(89.250532 -0.0022665712 4.0620604e-25)
(88.424601 -0.009338265 0)
(87.428993 -0.012111294 0)
(86.230161 -0.0052150377 0)
(84.779174 0.0011683913 8.1239884e-18)
(82.985494 0.011143557 0)
(80.690122 0.0099984317 6.7338483e-18)
(77.643566 0.00999835 -1.7909464e-17)
(73.437986 0.004409451 0)
(67.310164 -6.1606557e-05 -8.9040067e-18)
(57.418719 -0.022512058 -1.4074332e-17)
(42.958136 0.091262347 6.6503251e-23)
(93.709918 -0.073676878 0)
(94.030848 -0.044336093 -2.1843331e-21)
(94.354665 -0.0091786358 -1.0221827e-17)
(94.328509 -0.0096917565 -5.9704388e-18)
(94.275129 -0.037137679 1.7475902e-17)
(94.230161 0.027325262 -2.0464719e-17)
(94.205967 -0.020513813 2.1499623e-17)
(94.208531 -0.024442757 -8.3524323e-18)
(94.207354 -0.025456705 6.5183148e-18)
(94.201847 -0.02832539 -1.1458922e-17)
(94.188184 -0.029210796 1.5301028e-22)
(94.167594 -0.025896663 -1.049579e-17)
(94.145936 -0.021270578 -1.8455294e-17)
(94.123839 -0.021079641 1.4415712e-17)
(94.098174 -0.023867632 -1.2669848e-17)
(94.06597 -0.02858262 -5.9951586e-22)
(94.026713 -0.034988588 1.4526917e-17)
(93.983827 -0.042809475 1.0237332e-17)
(93.936256 -0.052327634 0)
(93.881109 -0.063794865 -7.0651865e-18)
(93.817227 -0.076639325 1.384899e-17)
(93.746856 -0.089093042 -3.2603164e-18)
(93.668675 -0.10243001 7.6793078e-18)
(93.573724 -0.11701267 -4.5251908e-18)
(93.465542 -0.13216041 5.3445235e-18)
(93.347832 -0.14820891 6.3135461e-18)
(93.20922 -0.16610126 -7.4645582e-18)
(93.043609 -0.18454276 8.8413077e-18)
(92.857916 -0.20412395 -5.2476845e-18)
(92.649479 -0.22665643 1.2466643e-17)
(92.408153 -0.2531886 -3.7066901e-18)
(92.132006 -0.2838877 -1.7699861e-17)
(91.814744 -0.32078113 -5.2947879e-18)
(91.447611 -0.36140565 6.340988e-18)
(91.022768 -0.40305207 -7.6296542e-18)
(90.531449 -0.44660384 4.612063e-18)
(89.960044 -0.49945168 -1.1186841e-17)
(89.280014 -0.56653092 1.3636353e-17)
(88.456083 -0.64844579 1.0238399e-20)
(87.458535 -0.7377178 -1.0323959e-17)
(86.259442 -0.83329791 1.2873435e-17)
(84.812866 -0.95092803 -2.026124e-17)
(83.026084 -1.0950901 -1.2913841e-17)
(80.738629 -1.288321 -6.7001692e-18)
(77.702267 -1.5448312 1.3327109e-17)
(73.510333 -1.9024095 2.4375222e-17)
(67.410648 -2.4572022 -1.1018982e-18)
(57.594577 -3.3859021 7.005173e-17)
(43.261112 -4.5645265 2.7729243e-17)
(93.736034 -0.13524488 -1.5101203e-17)
(94.043577 -0.083118891 8.8511319e-18)
(94.351824 -0.014073474 0)
(94.327427 -0.007580363 0)
(94.278223 -0.05025979 4.8467481e-22)
(94.23437 0.0077058611 -1.6548801e-17)
(94.20375 -0.023320822 9.6590441e-18)
(94.20646 -0.028008324 0)
(94.211169 -0.04303677 0)
(94.207728 -0.050462402 -2.5995186e-23)
(94.193626 -0.053482857 2.714372e-17)
(94.171768 -0.050222403 2.1220351e-17)
(94.149529 -0.045532367 1.2438502e-17)
(94.127809 -0.045829066 1.4573105e-17)
(94.103173 -0.051063073 -4.2685308e-17)
(94.072035 -0.060492399 -8.0384439e-22)
(94.034106 -0.073115719 1.1748831e-17)
(93.992656 -0.088825819 1.3799476e-17)
(93.946235 -0.10505431 0)
(93.892574 -0.12180092 1.9043008e-17)
(93.829951 -0.13989861 -1.1197229e-17)
(93.761047 -0.15875392 -1.3181072e-17)
(93.684439 -0.17976281 -1.5519004e-17)
(93.590756 -0.20413184 0)
(93.484272 -0.23132008 -1.0798744e-17)
(93.368222 -0.26103342 1.2753776e-17)
(93.230277 -0.29413971 -1.5071276e-17)
(93.065658 -0.32990281 3.570853e-17)
(92.88284 -0.36866631 -2.1182743e-17)
(92.678327 -0.41258966 0)
(92.441436 -0.46365289 0)
(92.170209 -0.52188384 -1.7853638e-17)
(91.85723 -0.58878204 -1.0671478e-17)
(91.491715 -0.66411597 2.5561178e-17)
(91.067697 -0.74520249 -1.5370886e-17)
(90.580977 -0.83406213 0)
(90.017663 -0.9370053 3.3768322e-17)
(89.345341 -1.0601643 -2.0562393e-17)
(88.525311 -1.204596 8.3920731e-18)
(87.530212 -1.3708638 2.0713639e-17)
(86.338785 -1.5582505 -1.2889972e-17)
(84.906019 -1.7868481 4.8621968e-17)
(83.136158 -2.0649983 2.0638319e-17)
(80.867456 -2.4094135 0)
(77.855281 -2.871802 0)
(73.698201 -3.4744989 -2.4170407e-17)
(67.656263 -4.421983 -6.9308825e-17)
(57.973169 -5.8734513 -5.4577167e-17)
(43.854787 -8.4725595 7.9385664e-19)
(93.773471 -0.18956764 0)
(94.06353 -0.10837157 1.8040716e-17)
(94.346761 -0.020554324 -4.1774691e-21)
(94.323407 -0.020376811 0)
(94.278435 -0.066606103 -1.4417318e-17)
(94.237749 -0.008511026 5.0578306e-17)
(94.20864 -0.037930691 -3.9361519e-17)
(94.210188 -0.0505908 -1.7487592e-22)
(94.213918 -0.062399146 -5.3790111e-17)
(94.211385 -0.067272413 -4.7154446e-17)
(94.20004 -0.068998418 5.5293009e-17)
(94.1808 -0.06552912 -4.3243256e-17)
(94.159505 -0.062934014 2.5349962e-17)
(94.137783 -0.068772062 -4.4556512e-17)
(94.113014 -0.081279242 6.9609873e-17)
(94.081957 -0.097600347 -2.0404463e-17)
(94.045121 -0.11584593 -3.5925629e-17)
(94.00551 -0.13625387 -2.8122732e-17)
(93.961396 -0.15763158 -7.6795997e-22)
(93.910787 -0.18106484 -8.1511923e-22)
(93.850844 -0.20734806 2.2819758e-17)
(93.784488 -0.23472746 5.3726045e-17)
(93.71042 -0.26457152 9.2828895e-22)
(93.619515 -0.29871425 1.8636822e-17)
(93.516658 -0.33719672 -2.1997078e-17)
(93.403505 -0.37992786 -2.5978857e-17)
(93.267041 -0.42783453 -3.0700168e-17)
(93.104937 -0.48018923 -1.8182819e-17)
(92.927152 -0.53755427 -2.1573465e-17)
(92.728872 -0.60287731 1.2812161e-17)
(92.498675 -0.67831476 -1.5238766e-17)
(92.234274 -0.76467083 1.8176175e-17)
(91.927426 -0.86186406 0)
(91.566383 -0.97288856 -2.6008933e-17)
(91.146697 -1.0906378 -4.1415368e-21)
(90.667663 -1.2221844 1.887528e-17)
(90.114325 -1.3739353 -2.2888406e-17)
(89.450243 -1.547263 0)
(88.6365 -1.7586023 0)
(87.651275 -1.9961642 -2.1022566e-17)
(86.476187 -2.2739778 3.9196359e-17)
(85.066514 -2.6003991 -1.644513e-17)
(83.322238 -3.0052639 0)
(81.083142 -3.5366509 0)
(78.114529 -4.1969174 -6.2526234e-17)
(74.020909 -5.1372093 3.6625493e-17)
(68.106693 -6.4399922 7.444e-17)
(58.592153 -8.8405463 -6.8264657e-18)
(44.918628 -12.43555 4.0112943e-16)
(93.816432 -0.23502191 3.1635235e-17)
(94.086993 -0.14502196 0)
(94.344942 -0.02447571 -2.1622442e-17)
(94.321113 -0.0077732074 2.5287962e-17)
(94.276974 -0.067372289 -2.9627316e-17)
(94.238085 -0.00042145089 -1.7325762e-17)
(94.21426 -0.045438279 1.9323684e-22)
(94.215763 -0.055486504 2.3597852e-17)
(94.220601 -0.067242461 2.1524868e-22)
(94.21923 -0.073156025 -3.2253137e-17)
(94.210366 -0.075761029 1.8912053e-17)
(94.193151 -0.07359215 6.6610463e-17)
(94.172504 -0.076670024 -5.2073567e-17)
(94.150833 -0.089521386 4.5760667e-17)
(94.126001 -0.1066236 3.5741368e-17)
(94.095124 -0.12657288 -4.1904757e-17)
(94.0601 -0.14907356 4.9184861e-17)
(94.023478 -0.1749055 -2.8869409e-17)
(93.982861 -0.20278482 -1.6949469e-17)
(93.936311 -0.2333276 1.9914077e-17)
(93.879952 -0.26723725 -4.683735e-17)
(93.817395 -0.30343825 2.7567166e-17)
(93.747448 -0.34382463 -1.6227393e-17)
(93.661521 -0.38980211 1.9121722e-17)
(93.564593 -0.44109822 4.5151953e-17)
(93.455609 -0.49723688 0)
(93.321948 -0.5598366 3.1507339e-17)
(93.164809 -0.62938077 -3.7324905e-17)
(92.994776 -0.70641991 2.2142616e-17)
(92.804942 -0.79348512 -5.2576531e-17)
(92.583357 -0.89445254 3.1265443e-17)
(92.327528 -1.0076844 0)
(92.028644 -1.1379324 4.4532066e-17)
(91.674637 -1.281963 -2.6676844e-17)
(91.264159 -1.4435436 -5.2384733e-21)
(90.797888 -1.61629 0)
(90.2561 -1.8188139 2.3446537e-17)
(89.60185 -2.0572716 7.1372544e-17)
(88.80178 -2.3172867 -5.2406758e-17)
(87.835274 -2.6378596 -1.0780755e-17)
(86.685701 -3.0298121 1.3366096e-17)
(85.309081 -3.4779659 0)
(83.59878 -4.0264196 -4.2757718e-17)
(81.406284 -4.6589339 5.5229509e-17)
(78.496482 -5.5908332 8.2129879e-17)
(74.512413 -6.7509569 3.7268095e-17)
(68.753051 -8.5846092 7.1045144e-17)
(59.58989 -11.433486 1.1011022e-16)
(46.162071 -17.105939 -5.8909088e-16)
(93.864685 -0.26991036 -3.2738625e-17)
(94.111909 -0.14844427 -1.2150306e-20)
(94.339494 -0.030024094 -4.4718048e-17)
(94.314114 -0.041242783 5.230936e-17)
(94.274227 -0.081338309 -1.0193823e-21)
(94.236844 -0.052109633 -3.5838031e-17)
(94.222409 -0.073798445 6.2740428e-17)
(94.227044 -0.075135174 0)
(94.235661 -0.07862762 2.8569027e-17)
(94.233669 -0.082728082 -3.3383741e-17)
(94.222169 -0.090466154 1.9580944e-17)
(94.202325 -0.099331843 0)
(94.182881 -0.10851187 2.6939767e-17)
(94.163831 -0.12341749 -3.1544829e-17)
(94.140707 -0.14252472 -6.7945623e-22)
(94.11123 -0.16373824 -4.3319503e-17)
(94.079305 -0.18850493 2.542342e-17)
(94.047032 -0.21811725 0)
(94.011568 -0.2499183 -3.5034375e-17)
(93.970641 -0.28478861 0)
(93.919473 -0.32269579 0)
(93.862704 -0.36196373 2.8488599e-17)
(93.798541 -0.40759538 3.3536909e-17)
(93.718881 -0.46289802 -7.9051186e-17)
(93.628309 -0.5268024 4.6650728e-17)
(93.523216 -0.59825089 0)
(93.393246 -0.67788611 3.2553534e-17)
(93.243306 -0.76546186 3.8572344e-17)
(93.083166 -0.86171989 -4.5741525e-17)
(92.903164 -0.97145919 -1.982183e-21)
(92.691589 -1.0962355 -1.1023604e-21)
(92.445978 -1.2388457 0)
(92.156548 -1.3974045 -8.8798804e-21)
(91.81149 -1.5815865 8.2552066e-17)
(91.413958 -1.771749 4.9656379e-17)
(90.963379 -2.0037281 -1.9967069e-17)
(90.43564 -2.2450819 -4.8370862e-17)
(89.794967 -2.5302323 -8.8231608e-17)
(89.014259 -2.8879479 3.5997661e-17)
(88.075825 -3.2982829 2.2199002e-17)
(86.966822 -3.7097346 -8.2706521e-17)
(85.625654 -4.2807789 0)
(83.95633 -4.9459355 4.3918427e-17)
(81.815207 -5.842636 -5.6645847e-17)
(79.000952 -6.8056359 7.4627211e-17)
(75.139685 -8.2937524 -9.5121343e-17)
(69.563036 -10.661467 -8.0946248e-17)
(60.84256 -14.086268 -1.1057744e-16)
(48.339095 -20.441485 3.8101262e-16)
(93.912351 -0.29537111 3.4097454e-17)
(94.136552 -0.17372329 -3.9938016e-17)
(94.333215 -0.026219959 0)
(94.307229 -0.014598121 5.4549154e-17)
(94.273131 -0.065458552 -6.3780089e-17)
(94.241588 -0.050215721 0)
(94.239305 -0.045944709 4.3624237e-17)
(94.243982 -0.045135196 -5.0911974e-17)
(94.249499 -0.072796821 2.979645e-17)
(94.245506 -0.084929558 0)
(94.229214 -0.1000442 4.0839025e-17)
(94.207856 -0.11175244 -2.3932494e-17)
(94.192355 -0.13219911 -1.1216485e-16)
(94.177935 -0.15333151 3.2816378e-17)
(94.158906 -0.17411945 3.8427426e-17)
(94.133288 -0.19731062 -4.2224424e-22)
(94.106792 -0.22087475 7.9382855e-17)
(94.080671 -0.24894052 -3.1056999e-17)
(94.051487 -0.2813098 3.6457816e-17)
(94.01595 -0.31991954 -4.2823164e-17)
(93.969334 -0.3653773 -5.0369705e-17)
(93.918285 -0.41671092 -5.9303287e-17)
(93.860115 -0.4748384 -6.9798362e-17)
(93.78684 -0.54059095 8.2248185e-17)
(93.702015 -0.61599046 -7.2791144e-17)
(93.600698 -0.70001271 -3.0556987e-22)
(93.475878 -0.7947121 -3.3852405e-17)
(93.335498 -0.89931145 1.4646378e-21)
(93.187179 -1.0138335 2.3771849e-17)
(93.018411 -1.142405 2.8197107e-17)
(92.818433 -1.2897084 6.486951e-21)
(92.584674 -1.4564481 0)
(92.305485 -1.6475739 -4.7687853e-17)
(91.971345 -1.8548159 -5.710008e-17)
(91.590072 -2.1001346 3.4317423e-17)
(91.158015 -2.3434018 2.0701696e-17)
(90.6452 -2.6644865 -5.0079978e-17)
(90.025514 -3.0053196 1.0653567e-16)
(89.273061 -3.3831186 2.0886953e-20)
(88.367607 -3.8642329 -2.2911257e-17)
(87.290662 -4.4667135 0)
(85.984231 -5.1472408 0)
(84.367602 -5.9096851 0)
(82.296754 -6.8911897 0)
(79.533708 -8.3722454 -8.5837405e-17)
(75.818228 -10.041364 6.4021753e-18)
(70.552789 -12.477726 9.0433975e-18)
(62.114076 -17.247818 2.1871981e-16)
(50.035768 -25.424595 -3.6683663e-16)
(93.955704 -0.31424447 3.573339e-17)
(94.158735 -0.18645837 4.1874605e-17)
(94.329714 -0.028858702 -7.1760027e-21)
(94.306721 -0.04538837 -2.8563253e-17)
(94.277265 -0.075497611 3.3442491e-17)
(94.251133 -0.056397485 7.8392226e-17)
(94.250931 -0.049728501 -9.164953e-17)
(94.253828 -0.069209696 5.3487617e-17)
(94.255383 -0.099059771 -6.2541019e-17)
(94.249195 -0.11691605 3.649007e-17)
(94.232305 -0.12746131 -4.2763442e-17)
(94.216347 -0.12917885 -5.0149257e-17)
(94.208936 -0.13938918 2.9377154e-17)
(94.201171 -0.15449035 -3.4348069e-17)
(94.187598 -0.17218484 -7.1048422e-22)
(94.166397 -0.19338271 0)
(94.144723 -0.22583369 -1.2243103e-21)
(94.123313 -0.26689283 0)
(94.098493 -0.31283353 7.638264e-17)
(94.065814 -0.36362573 2.0629057e-21)
(94.022284 -0.41794513 1.0553752e-16)
(93.976611 -0.47393428 2.5556319e-21)
(93.924237 -0.53913608 -3.5347021e-22)
(93.857568 -0.61613699 8.6073482e-17)
(93.778771 -0.69907943 -7.6147564e-17)
(93.682549 -0.79222208 -2.9951701e-17)
(93.56538 -0.89842653 3.5409395e-17)
(93.437492 -1.0147617 -2.0975375e-17)
(93.302852 -1.1439277 -3.6272623e-21)
(93.146825 -1.2905485 5.8911479e-17)
(92.960252 -1.4606065 7.2961998e-21)
(92.73941 -1.653413 0)
(92.47104 -1.8707834 -2.4874843e-17)
(92.150464 -2.118822 -2.9762623e-17)
(91.790684 -2.3738489 -5.3650479e-17)
(91.376994 -2.7034014 2.1535192e-17)
(90.887139 -3.014051 5.2068817e-17)
(90.291367 -3.4197694 0)
(89.562535 -3.9311599 -1.9337648e-17)
(88.695651 -4.4422303 4.7531277e-17)
(87.657566 -5.117123 -2.9409039e-17)
(86.405751 -5.8160569 0)
(84.850077 -6.7337418 0)
(82.846316 -7.8751075 -5.9480572e-17)
(80.22154 -9.1791408 0)
(76.655048 -11.236456 1.3077484e-17)
(71.652457 -14.330393 -2.729749e-17)
(64.183132 -18.532551 -1.9594069e-16)
(53.14853 -28.132767 1.6271951e-16)
(93.993026 -0.3260404 0)
(94.181873 -0.17756501 0)
(94.331018 -0.029593542 -5.1685854e-17)
(94.307799 -0.052609468 -3.009568e-17)
(94.277619 -0.068269411 0)
(94.253952 -0.065287786 0)
(94.252001 -0.075974247 4.8284986e-17)
(94.256129 -0.094415671 -2.8166808e-17)
(94.26013 -0.11234422 -3.2921594e-17)
(94.254808 -0.12675707 0)
(94.242898 -0.12883151 4.5089319e-17)
(94.237391 -0.12771538 1.7270767e-21)
(94.237759 -0.13710843 0)
(94.234183 -0.1527851 -3.6122389e-17)
(94.22311 -0.17272753 4.8937087e-22)
(94.203761 -0.20377758 0)
(94.185452 -0.24443887 -3.0740919e-22)
(94.168235 -0.29245483 -3.4314055e-17)
(94.146492 -0.33666771 4.0237903e-17)
(94.11516 -0.38598641 0)
(94.075135 -0.44313063 -1.1119058e-16)
(94.036563 -0.50877897 3.2704181e-17)
(93.991399 -0.58508013 0)
(93.932183 -0.66890156 -4.5280335e-17)
(93.859507 -0.76786673 0)
(93.769586 -0.87623083 3.1505133e-17)
(93.66229 -0.9944439 -4.4126884e-21)
(93.549076 -1.1262154 4.406944e-17)
(93.42905 -1.273009 5.217345e-17)
(93.286949 -1.4374671 0)
(93.114801 -1.6253125 0)
(92.906782 -1.8376036 0)
(92.649913 -2.0845148 5.2114689e-17)
(92.348986 -2.348318 9.3524057e-17)
(92.012197 -2.6677285 -3.7406597e-17)
(91.622028 -2.981657 0)
(91.153514 -3.3990227 -5.4388971e-17)
(90.582084 -3.8394816 6.5957408e-17)
(89.884991 -4.3500587 -2.0125333e-17)
(89.059073 -4.9658803 4.9346016e-17)
(88.076403 -5.6165785 7.6220897e-17)
(86.875108 -6.5020517 -5.7012219e-17)
(85.384911 -7.567863 0)
(83.455918 -8.8780311 6.1041104e-17)
(80.916942 -10.656391 8.904275e-17)
(77.519514 -12.886351 -1.3136932e-17)
(72.840742 -16.201659 0)
(65.868574 -21.673997 2.1842911e-16)
(55.508008 -32.725114 -1.2622844e-17)
(94.029923 -0.33969143 -4.0073216e-17)
(94.207481 -0.19403962 2.3467661e-17)
(94.331955 -0.034142292 -2.7395979e-17)
(94.306058 -0.069546665 0)
(94.273552 -0.048825095 3.7470965e-17)
(94.253221 -0.072219677 0)
(94.25492 -0.080711365 -2.5485585e-17)
(94.263931 -0.096719216 5.9725099e-17)
(94.271705 -0.11910982 3.4924971e-17)
(94.267798 -0.11813695 4.0831397e-17)
(94.262404 -0.11042498 -9.6034633e-17)
(94.261812 -0.11952514 5.6170775e-17)
(94.262869 -0.14104171 0)
(94.259994 -0.16366125 0)
(94.250145 -0.19487715 2.2526307e-17)
(94.233658 -0.22146616 2.6453533e-17)
(94.221645 -0.25729143 6.2098447e-17)
(94.210365 -0.30241484 -7.5167194e-22)
(94.192639 -0.35634299 -8.5237236e-17)
(94.164656 -0.41795874 0)
(94.131109 -0.47878878 8.8345473e-17)
(94.101254 -0.54185041 -3.4624296e-17)
(94.063795 -0.6167142 -4.068544e-17)
(94.012258 -0.7132025 9.5788721e-17)
(93.946089 -0.81390027 8.469181e-17)
(93.863544 -0.93023102 -3.3305796e-17)
(93.768466 -1.0634404 -7.8711241e-17)
(93.671794 -1.206345 -9.3090155e-17)
(93.566641 -1.3620347 -5.5062566e-17)
(93.438986 -1.5450132 0)
(93.280763 -1.7548697 0)
(93.084295 -1.9960329 0)
(92.842338 -2.2640103 -2.7417256e-17)
(92.566593 -2.5639654 -3.2757444e-17)
(92.253456 -2.9005525 7.853317e-17)
(91.886697 -3.2716871 0)
(91.440197 -3.71196 -5.6909781e-17)
(90.895809 -4.2115209 -6.8989568e-17)
(90.236989 -4.7820304 8.3917943e-17)
(89.44857 -5.5025411 -5.1399996e-17)
(88.507018 -6.3309293 -6.3335999e-17)
(87.366231 -7.222875 7.8568256e-17)
(85.941482 -8.3656411 -9.8462365e-17)
(84.129194 -9.7205402 0)
(81.76762 -11.491346 -8.046652e-17)
(78.638981 -13.696286 1.3248155e-17)
(74.414593 -17.188009 1.255873e-16)
(68.071115 -23.511614 -2.0487836e-16)
(59.289567 -35.275185 0)
(94.067474 -0.34023149 2.3338853e-20)
(94.224256 -0.17062329 0)
(94.326854 -0.031885154 5.8428066e-17)
(94.301457 -0.072460944 0)
(94.270644 -0.033705041 -7.993704e-17)
(94.259844 -0.076388159 2.3303042e-17)
(94.265728 -0.08702528 -8.8335977e-22)
(94.279354 -0.10399379 -3.1929e-17)
(94.286338 -0.11865435 -1.1203846e-16)
(94.280439 -0.10467105 -2.1833386e-17)
(94.275468 -0.11076957 2.5661902e-17)
(94.275166 -0.15107859 2.9972278e-17)
(94.276254 -0.16300636 -3.4905174e-17)
(94.274652 -0.18636401 -4.0882455e-17)
(94.267587 -0.2065958 4.7974231e-17)
(94.256737 -0.24373799 0)
(94.251615 -0.29152371 -6.6212162e-17)
(94.247488 -0.34384897 0)
(94.235841 -0.38639772 4.5321128e-17)
(94.213158 -0.43819494 2.6643207e-17)
(94.187126 -0.50480286 6.2710214e-17)
(94.166318 -0.58737581 -3.6844406e-17)
(94.136454 -0.67636536 0)
(94.092513 -0.76801586 -7.6372839e-17)
(94.033323 -0.88074281 -3.0003092e-17)
(93.960534 -1.0064347 3.5379254e-17)
(93.881059 -1.1427975 4.1782797e-17)
(93.801526 -1.2964065 7.4047597e-17)
(93.71091 -1.4680182 -2.9163483e-17)
(93.597942 -1.6599745 6.9022125e-17)
(93.45277 -1.8851385 -2.0466617e-17)
(93.268754 -2.1444603 2.4305075e-17)
(93.04802 -2.4351884 0)
(92.798788 -2.7709838 5.1777752e-17)
(92.508569 -3.1136291 -2.0684875e-17)
(92.162667 -3.5525523 4.9576744e-17)
(91.744601 -3.9909165 1.4947293e-17)
(91.221159 -4.5196258 1.3592824e-20)
(90.609327 -5.0776685 -1.314159e-16)
(89.868635 -5.8207353 4.0042967e-17)
(88.976864 -6.729249 -8.1876242e-17)
(87.918877 -7.674756 -2.0247474e-17)
(86.538441 -9.1037858 1.2581228e-16)
(84.838747 -10.644202 4.755062e-17)
(82.605828 -12.812069 1.1142494e-16)
(79.681159 -15.459636 4.0548986e-20)
(75.834952 -19.146364 -3.0911577e-16)
(71.131794 -23.583792 -1.8420757e-16)
(62.473567 -39.250546 1.3661571e-16)
(94.096959 -0.35153032 -2.2993273e-17)
(94.235164 -0.21720214 -2.6919357e-17)
(94.323123 -0.042841903 -1.5675278e-16)
(94.300215 -0.072636581 3.6802043e-17)
(94.271039 -0.059642994 8.5375816e-17)
(94.271716 -0.076047243 0)
(94.281828 -0.10056155 -5.8520426e-17)
(94.295911 -0.11278096 3.4230133e-17)
(94.295535 -0.10402625 3.9989118e-17)
(94.288402 -0.098438977 4.6860746e-17)
(94.285759 -0.12411925 0)
(94.288214 -0.12699918 -6.3997985e-17)
(94.290766 -0.14853434 0)
(94.291746 -0.18662959 1.189453e-21)
(94.287189 -0.20675618 -5.1284564e-17)
(94.281742 -0.23601525 3.0045257e-17)
(94.281771 -0.30491215 -1.0601646e-21)
(94.281627 -0.35754243 -2.0721809e-17)
(94.275776 -0.39987046 -2.4176963e-17)
(94.259002 -0.46551397 -5.6936642e-17)
(94.242359 -0.5299345 -6.7035937e-17)
(94.229353 -0.59334623 1.9668328e-17)
(94.206669 -0.688781 -2.3068302e-17)
(94.169794 -0.79905731 5.4297119e-17)
(94.118556 -0.91674034 0)
(94.058164 -1.0455105 -3.7714336e-17)
(93.996122 -1.1918642 4.4487411e-17)
(93.932816 -1.3546969 0)
(93.85725 -1.5353855 6.1955457e-17)
(93.758679 -1.7505061 -7.326202e-17)
(93.626483 -1.992439 -2.1691572e-17)
(93.45888 -2.2667755 2.5726766e-17)
(93.264945 -2.5753396 1.5290569e-17)
(93.039773 -2.9247008 -7.2867245e-17)
(92.771135 -3.3224321 -2.1768171e-17)
(92.447592 -3.7682465 -5.2082478e-17)
(92.059149 -4.2172004 -1.5621328e-17)
(91.562563 -4.9536669 -5.64824e-17)
(90.975825 -5.7842091 0)
(90.295035 -6.4287316 0)
(89.47075 -7.2506956 6.7539374e-17)
(88.472102 -8.4244601 0)
(87.254336 -9.4631937 -1.0247541e-16)
(85.656785 -11.265203 -6.4110704e-17)
(83.658827 -13.255275 -1.108341e-19)
(81.077352 -15.932716 -1.0387988e-16)
(77.501606 -20.366209 1.4495792e-16)
(72.764126 -27.687848 3.5431742e-16)
(66.584593 -41.977241 -6.8498364e-19)
(94.120285 -0.34307021 1.5608853e-20)
(94.246872 -0.13795337 -2.9027931e-17)
(94.324891 -0.035334809 3.3860693e-17)
(94.300128 -0.030072686 5.9505309e-17)
(94.273609 -0.071730062 -6.9133347e-17)
(94.281706 -0.097987709 0)
(94.29801 -0.11130299 6.3229414e-17)
(94.308255 -0.10509935 -9.2334084e-17)
(94.302959 -0.10507012 8.6213925e-17)
(94.297069 -0.11100048 5.0350865e-17)
(94.299511 -0.1066856 -2.9416037e-17)
(94.306985 -0.13191694 6.8989425e-17)
(94.313021 -0.16194005 0)
(94.316234 -0.18298192 4.7209737e-17)
(94.313087 -0.2045068 0)
(94.313077 -0.27310297 6.4469289e-17)
(94.318652 -0.31028211 -7.5864125e-17)
(94.319693 -0.36837145 -6.6699394e-17)
(94.317838 -0.41298226 2.5933967e-17)
(94.306261 -0.46956965 6.1080539e-17)
(94.299177 -0.52839686 0)
(94.293213 -0.63220621 2.1062968e-17)
(94.278538 -0.71628739 1.2093395e-21)
(94.247264 -0.82541549 -8.708469e-17)
(94.203289 -0.94879115 8.5490343e-17)
(94.156273 -1.0911457 -6.0442988e-17)
(94.111983 -1.2492207 -4.7482937e-17)
(94.064208 -1.4188577 0)
(94.003689 -1.6056646 -1.418083e-20)
(93.91882 -1.8207487 1.9456657e-17)
(93.800961 -2.0834293 2.3004631e-17)
(93.65477 -2.3781751 -5.4496606e-17)
(93.487665 -2.7175608 -1.616285e-17)
(93.283304 -3.084309 1.9206398e-17)
(93.03501 -3.5068038 -1.6333865e-20)
(92.751302 -3.8865559 4.0956615e-17)
(92.365595 -4.682942 1.7944379e-20)
(91.948485 -4.7867136 1.9633986e-16)
(91.420871 -5.4517682 2.3636757e-17)
(90.792994 -6.4437341 0)
(90.0374 -7.5191009 6.9392455e-17)
(89.07086 -8.9922345 0)
(87.963385 -10.380422 1.0419007e-16)
(86.535412 -11.983168 0)
(84.618638 -14.724518 -8.0168995e-17)
(82.295127 -17.72037 1.0134851e-16)
(79.597968 -20.579367 0)
(76.664387 -25.665361 -1.5907181e-16)
(71.834229 -42.877351 -2.2798643e-16)
(94.135059 -0.34232381 0)
(94.257224 -0.18473743 6.295765e-17)
(94.32575 -0.04544868 5.5030429e-17)
(94.299256 -0.051298721 6.1375524e-22)
(94.278241 -0.085062598 2.5016893e-17)
(94.289775 -0.11158921 0)
(94.310809 -0.11283994 -1.7128155e-17)
(94.318695 -0.0989437 9.9986862e-17)
(94.312745 -0.097437916 -7.0017536e-17)
(94.312743 -0.087678279 -2.727058e-17)
(94.319136 -0.14693623 0)
(94.326591 -0.13179883 -1.8659033e-17)
(94.335486 -0.17397999 2.1852029e-17)
(94.34018 -0.20727742 0)
(94.342388 -0.23968937 1.4952786e-17)
(94.34723 -0.26149392 -1.3975479e-16)
(94.357605 -0.29101688 -4.1004323e-17)
(94.362469 -0.3327445 9.5859658e-17)
(94.36168 -0.38916626 -2.7955461e-17)
(94.354919 -0.44966513 6.5489884e-17)
(94.35603 -0.55523483 0)
(94.355353 -0.62368353 4.5327811e-17)
(94.348109 -0.72482067 2.6432332e-17)
(94.325353 -0.83330914 -9.3312618e-17)
(94.290236 -0.96663105 -7.3247777e-17)
(94.256404 -1.1129354 4.3127763e-17)
(94.227591 -1.2667832 0)
(94.195725 -1.4374319 -1.4905966e-17)
(94.151 -1.6414393 -7.0136551e-17)
(94.078532 -1.8863091 2.0661816e-17)
(93.977224 -2.1532992 -7.3202923e-17)
(93.855496 -2.4527508 1.5860848e-16)
(93.712839 -2.8012637 -3.4108367e-17)
(93.525785 -3.2003506 -5.1639554e-21)
(93.311151 -3.6007541 -7.1996703e-17)
(93.044527 -4.2665477 -7.1397577e-17)
(92.725437 -4.4290082 1.020155e-16)
(92.271906 -6.0105577 -1.221488e-16)
(91.78006 -6.7056316 1.212151e-17)
(91.22262 -7.2848771 -2.9273472e-17)
(90.559578 -8.2175624 -1.0615272e-16)
(89.781521 -8.7902986 3.201029e-17)
(88.750114 -10.601886 -1.1720992e-16)
(87.465878 -12.629094 6.358127e-17)
(85.921599 -14.730229 0)
(83.895723 -18.131576 0)
(81.177065 -23.260523 0)
(77.762879 -31.53456 7.7816601e-17)
(75.921268 -45.944344 1.967315e-16)
(94.142304 -0.33684718 -5.8553812e-17)
(94.265209 -0.15525611 0)
(94.321663 -0.042201036 -3.9841102e-17)
(94.298113 -0.036676061 0)
(94.283606 -0.099968851 -5.4438377e-17)
(94.297077 -0.11590888 -7.9515693e-17)
(94.320458 -0.092800791 1.8630648e-17)
(94.326543 -0.08652637 -4.3489941e-17)
(94.326204 -0.093946531 5.0582058e-17)
(94.336405 -0.12030665 -5.9140665e-17)
(94.349736 -0.034594834 -6.9289823e-17)
(94.350409 -0.16513206 -2.0243207e-17)
(94.357274 -0.15987088 2.3651235e-17)
(94.361041 -0.18912221 0)
(94.366621 -0.23539125 0)
(94.375502 -0.24896089 1.8939956e-17)
(94.386248 -0.33188007 1.7839801e-21)
(94.397244 -0.39676365 3.8996201e-17)
(94.400366 -0.44557803 -1.5172223e-17)
(94.399766 -0.4930545 -7.0655292e-17)
(94.408644 -0.57143645 0)
(94.414814 -0.6733241 -3.2430743e-21)
(94.410237 -0.76524859 0)
(94.399957 -0.86078383 1.6703158e-17)
(94.377792 -0.97877256 3.9222989e-17)
(94.357023 -1.132725 -4.6137917e-17)
(94.339965 -1.3139854 2.7091134e-17)
(94.323137 -1.5004392 0)
(94.294861 -1.6916841 -1.8625133e-17)
(94.236528 -1.9257325 -2.4789507e-21)
(94.153729 -2.2201113 1.2904001e-17)
(94.055745 -2.5521841 -4.563669e-17)
(93.932284 -2.9238668 -1.7928725e-17)
(93.769622 -3.3101871 -4.2415123e-21)
(93.589734 -3.8058815 6.2636775e-17)
(93.364566 -4.1778676 7.4111996e-17)
(93.043784 -5.2194331 0)
(92.750004 -4.6824112 -8.3708601e-17)
(92.347291 -5.4676459 -4.9820065e-17)
(91.775761 -7.108326 4.4492978e-17)
(91.150094 -8.3397155 -1.2507513e-20)
(90.364395 -10.316169 1.0616563e-17)
(89.454206 -11.674951 1.1506328e-16)
(88.410122 -13.364704 -6.198028e-17)
(87.06706 -16.189825 -7.5141301e-17)
(85.486737 -19.463257 0)
(84.092134 -21.760635 0)
(82.691032 -26.682262 -6.8685445e-17)
(81.900581 -44.912752 -1.5540491e-16)
(94.152841 -0.3609811 7.9918589e-17)
(94.274553 -0.15533934 -3.7424864e-17)
(94.315505 -0.041472043 0)
(94.29594 -0.048584024 0)
(94.291886 -0.098379161 0)
(94.304784 -0.10546644 1.7345363e-17)
(94.326295 -0.073325837 -9.6963767e-22)
(94.331534 -0.083513663 -2.3696795e-17)
(94.34062 -0.10052592 -5.5251074e-17)
(94.363082 -0.10571078 6.4656911e-17)
(94.384611 -0.1561849 3.7445042e-17)
(94.377286 -0.024339312 0)
(94.380276 -0.13514937 0)
(94.383415 -0.17145636 -1.5025637e-17)
(94.387039 -0.23681744 -5.2639675e-17)
(94.400147 -0.26311327 4.1001238e-17)
(94.411268 -0.32457958 5.9947286e-17)
(94.426068 -0.37055281 -8.4155291e-17)
(94.433408 -0.41898169 1.6407143e-17)
(94.443282 -0.47207903 0)
(94.459022 -0.55137088 1.1203389e-17)
(94.474695 -0.56468587 -1.3087855e-17)
(94.472548 -0.7254576 -6.1029352e-17)
(94.470468 -0.84586574 6.3561579e-21)
(94.463535 -0.97218529 -4.2003775e-17)
(94.45836 -1.1365848 0)
(94.453459 -1.3063129 0)
(94.449386 -1.4874562 0)
(94.433317 -1.7160454 0)
(94.390783 -1.9741705 -1.1561046e-17)
(94.330032 -2.257499 2.7178165e-17)
(94.256207 -2.5817982 -1.5948451e-17)
(94.150276 -2.9644024 0)
(94.019113 -3.3741876 1.1014735e-17)
(93.876553 -3.8357226 -1.2970902e-17)
(93.666293 -4.5376212 -7.6339786e-17)
(93.444253 -4.6848343 3.6045533e-17)
(93.023196 -7.060698 1.06287e-16)
(92.6533 -7.7550301 5.031307e-17)
(92.322501 -7.4299226 0)
(91.804055 -8.5484284 -8.7966261e-17)
(91.297843 -9.1762531 2.0932676e-17)
(90.490232 -10.965573 0)
(89.563729 -13.27161 0)
(88.567358 -15.865385 7.1275988e-17)
(87.502921 -19.251635 0)
(85.98193 -24.729818 6.3378598e-17)
(84.378214 -31.222565 4.5769121e-17)
(85.842361 -47.269847 8.1381208e-17)
(94.165098 -0.33224153 -7.0264818e-17)
(94.282486 -0.1288127 5.1138939e-17)
(94.308378 -0.017363261 -1.1950349e-17)
(94.292992 -0.053700952 -5.5726697e-17)
(94.299464 -0.092643486 6.5151433e-17)
(94.313585 -0.076415328 4.7480053e-17)
(94.330937 -0.072223115 -2.2186701e-17)
(94.338176 -0.071048222 -2.5847552e-17)
(94.35391 -0.067437789 4.5313921e-17)
(94.374018 -0.10061928 -7.1067105e-17)
(94.383054 -0.10548757 4.0784249e-17)
(94.395755 -0.29203627 0)
(94.395888 -0.22614104 -7.0142534e-17)
(94.403146 -0.20873839 1.6328745e-17)
(94.4079 -0.24211906 6.6636113e-17)
(94.427175 -0.26448324 1.1114616e-17)
(94.440672 -0.31390035 0)
(94.459865 -0.33079275 1.212491e-16)
(94.46894 -0.38614319 -5.3062351e-17)
(94.487656 -0.46237906 -2.0644786e-17)
(94.50846 -0.50095113 0)
(94.524898 -0.71957782 -5.6480468e-17)
(94.535617 -0.75111381 6.6038448e-17)
(94.537296 -0.85997541 3.8475255e-17)
(94.543466 -0.98497698 0)
(94.55407 -1.155999 0)
(94.568328 -1.3176789 0)
(94.577656 -1.5118264 0)
(94.569197 -1.7266671 0)
(94.543635 -1.9777148 -4.8511987e-17)
(94.505502 -2.3008047 0)
(94.453685 -2.6561014 0)
(94.367815 -3.029483 -3.8731525e-17)
(94.271259 -3.4759284 1.135132e-17)
(94.157858 -3.9985378 3.9859882e-17)
(94.001942 -4.4227952 -6.2100197e-17)
(93.76714 -5.5925935 0)
(93.657167 -4.2456905 -4.2806259e-17)
(93.307644 -5.4310328 -1.2527405e-17)
(92.816037 -8.2723529 -4.4041233e-17)
(92.452109 -9.1417321 6.7355424e-20)
(91.823542 -11.567453 0)
(91.312366 -12.689013 -4.7442211e-17)
(90.616583 -14.711027 0)
(89.869867 -16.997387 0)
(89.08457 -21.344728 -1.9075724e-17)
(88.766468 -25.117889 -2.2561002e-17)
(89.106353 -26.479102 -1.0754213e-16)
(91.28323 -44.930091 0)
(94.170007 -0.37739921 2.8993596e-17)
(94.275965 -0.11979449 0)
(94.297193 -0.032929667 0)
(94.289499 -0.05980971 6.1220899e-17)
(94.304227 -0.081161079 -8.0477056e-17)
(94.32281 -0.091072367 5.2132351e-17)
(94.336564 -0.079466387 4.8571137e-17)