/*--------------------------------*- C++ -*----------------------------------*\
| =========                 |                                                 |
| \\      /  F ield         | OpenFOAM: The Open Source CFD Toolbox           |
|  \\    /   O peration     | Version:  2506                                  |
|   \\  /    A nd           | Website:  www.openfoam.com                      |
|    \\/     M anipulation  |                                                 |
\*---------------------------------------------------------------------------*/
FoamFile
{
    version     2.0;
    format      ascii;
    arch        "LSB;label=32;scalar=64";
    class       surfaceScalarField;
    location    "0.031";
    object      phi;
}
// * * * * * * * * * * * * * * * * * * * * * * * * * * * * * * * * * * * * * //

dimensions      [1 0 -1 0 0 0 0];

oriented        oriented;

internalField   nonuniform List<scalar> 
27107
(
1.0703235e-07
-8.560942e-06
4.4683737e-07
-2.8773713e-05
1.0629055e-06
-5.4383391e-05
1.9955196e-06
-8.6138974e-05
3.2594737e-06
-0.00012409839
4.8295683e-06
-0.00016672741
6.6596535e-06
-0.00021158209
8.7217594e-06
-0.00025774758
1.1001588e-05
-0.00030534257
1.3495362e-05
-0.00035497321
1.6204051e-05
-0.00040776064
1.9130556e-05
-0.00046416694
-0.00052460041
8.1609596e-08
-8.6404836e-06
3.4031232e-07
-2.9030323e-05
8.0927167e-07
-5.485012e-05
1.5178109e-06
-8.6845181e-05
2.4757764e-06
-0.00012505382
3.6587449e-06
-0.00016790767
5.0298771e-06
-0.00021295029
6.5639633e-06
-0.00025927854
8.2459036e-06
-0.00030702124
1.0070138e-05
-0.0003567938
1.203459e-05
-0.00040972134
1.413785e-05
-0.00046626606
1.6383606e-05
-0.00052684186
1.8774384e-05
-0.00059231022
2.1313717e-05
-0.00066337859
2.4012364e-05
-0.00074083132
2.6878846e-05
-0.0008255157
2.9929981e-05
-0.00091810802
3.3184612e-05
-0.0010189823
3.6671252e-05
-0.0011295674
4.0424199e-05
-0.0012512536
4.4485171e-05
-0.0013845472
4.8905272e-05
-0.0015310649
5.3749626e-05
-0.0016924358
5.909196e-05
-0.001869714
-0.002065348
5.9340533e-08
-8.6979293e-06
2.460388e-07
-2.9215087e-05
5.8394774e-07
-5.518596e-05
1.0942636e-06
-8.7353299e-05
1.7828908e-06
-0.00012574005
2.6286399e-06
-0.0001687508
3.5992439e-06
-0.00021391805
4.6693642e-06
-0.00026034563
5.8259038e-06
-0.00030817455
7.0583876e-06
-0.00035802287
8.3612651e-06
-0.00041102056
9.7347456e-06
-0.00046763564
1.1173256e-05
-0.00052827617
1.2679938e-05
-0.00059381242
1.4257595e-05
-0.00066495139
1.5911537e-05
-0.00074248005
1.7653399e-05
-0.0008272519
1.9497549e-05
-0.00091994606
2.1462939e-05
-0.001020941
2.3575738e-05
-0.0011316731
2.5870812e-05
-0.0012535408
2.8390766e-05
-0.0013870588
3.1185551e-05
-0.0015338505
3.432109e-05
-0.0016955614
3.7873094e-05
-0.0018732551
4.1931888e-05
-0.002069395
4.6608286e-05
-0.0022855283
5.2029762e-05
-0.0025242291
5.8352099e-05
-0.0027881621
6.5749465e-05
-0.0030802092
7.4426828e-05
-0.0034036063
-0.0037622243
3.9083317e-08
1.6126436e-07
3.8248058e-07
7.1631843e-07
1.1663838e-06
1.714353e-06
2.3317111e-06
2.997117e-06
3.6956924e-06
4.4173845e-06
5.1570539e-06
5.9078553e-06
6.6670758e-06
7.4344125e-06
8.211927e-06
9.0053867e-06
9.8247912e-06
1.0684436e-05
1.1604952e-05
1.2611756e-05
1.3740415e-05
1.5031584e-05
1.6541857e-05
1.8332846e-05
2.0485259e-05
2.3092522e-05
2.6263394e-05
3.0130776e-05
3.4844013e-05
4.0582888e-05
4.7547681e-05
5.5967755e-05
6.6110674e-05
7.8280358e-05
9.2834181e-05
-3.8669721e-08
3.0653618e-06
-1.566507e-07
1.0180772e-05
-3.7548958e-07
1.9050245e-05
-7.2074084e-07
2.9951158e-05
-1.2230687e-06
4.32474e-05
-1.9157409e-06
5.9317384e-05
-2.8275737e-06
7.829438e-05
-3.9764266e-06
0.00010013951
-5.3680047e-06
0.00012448659
-7.0022149e-06
0.00015092486
-8.8872463e-06
0.00017940472
-1.103607e-05
0.00020982816
-1.3470224e-05
0.00024223054
-1.6216433e-05
0.00027694598
-1.9306789e-05
0.00031428984
-2.2779063e-05
0.0003546286
-2.6672312e-05
0.00039835982
-3.1031809e-05
0.0004457904
-3.5901345e-05
0.00049706379
-4.1331969e-05
0.00055281692
-4.7379695e-05
0.00061365582
-5.4099421e-05
0.00067972315
-6.1554247e-05
0.00075168199
-6.9810614e-05
0.00083016396
-7.8937225e-05
0.00091548356
-8.9011762e-05
0.0010085876
-0.00010011431
0.0011099185
-0.00011233687
0.0012203525
-0.00012577759
0.0013407199
-0.00014054639
0.0014718605
-0.00015676684
0.001614657
-0.00017457601
0.0017701461
-0.00019412773
0.0019390683
-0.00021559873
0.0021228598
-0.0002391941
0.0023228615
-0.00026514699
0.0025399362
-0.00029373982
0.0027755533
-0.00032534006
0.0030305551
-0.00036052229
0.0033052739
-0.00040002322
0.0035978383
-0.00044372505
0.0039074857
-0.00049122506
0.0042391847
-0.00054265285
0.0045982625
-0.00059830769
0.0049877666
-0.00065852353
0.0054097036
-0.00072366478
0.00586733
-0.00079412507
0.00636357
-0.00087032377
0.0069014438
-0.00095271584
0.0074845297
-0.0010417887
0.0081166122
-0.0011380681
0.0088017286
0.0095446375
-3.4780024e-08
3.0949826e-06
-1.4092603e-07
1.0281168e-05
-3.3847551e-07
1.9241459e-05
-6.5146221e-07
3.0257124e-05
-1.1083377e-06
4.3696546e-05
-1.7409828e-06
5.9941534e-05
-2.5767784e-06
7.912088e-05
-3.6329313e-06
0.00010118552
-4.913582e-06
0.00012575619
-6.4210076e-06
0.00015242026
-8.1615528e-06
0.00018113215
-1.0150109e-05
0.00021180244
-1.2406728e-05
0.0002444716
-1.4958696e-05
0.00027948102
-1.7837757e-05
0.00031715048
-2.1078938e-05
0.00035784975
-2.4723537e-05
0.00040198263
-2.8814204e-05
0.0004498574
-3.3396779e-05
0.00050162065
-3.8521162e-05
0.00055791339
-4.4244268e-05
0.00061934861
-5.0622433e-05
0.00068606841
-5.7718484e-05
0.00075874232
-6.5599943e-05
0.00083800665
-7.4337317e-05
0.00092417886
-8.4008385e-05
0.001018213
-9.4694093e-05
0.0011205547
-0.00010648507
0.0012320897
-0.0001194804
0.0013536569
-0.00013378864
0.0014861054
-0.00014952977
0.0016303295
-0.00016683994
0.0017873817
-0.00018586693
0.0019580144
-0.00020678574
0.0021436908
-0.00022979413
0.0023457746
-0.00025511973
0.0025651584
-0.00028303645
0.0028033579
-0.00031390039
0.0030612974
-0.00034826298
0.0033395046
-0.00038691337
0.0036363457
-0.00042988013
0.0039502971
-0.00047666358
0.0042857995
-0.00052733493
0.0046487507
-0.00058218567
0.0050424186
-0.00064154911
0.0054688514
-0.00070578914
0.005931336
-0.00077529797
0.0064328249
-0.00085049601
0.0069763662
-0.0009318388
0.0075655733
-0.0010198176
0.0082042663
-0.0011149591
0.0088965178
-0.0012178373
0.0096471333
-0.0013290648
0.010460464
-0.0014493035
0.011342111
-0.0015792654
0.012297371
-0.0017197169
0.01333252
-0.0018714867
0.014454531
-0.002035464
0.015670326
-0.0022126029
0.01698768
-0.0024039311
0.018415359
-0.0026105481
0.019962003
0.021638307
-3.0619825e-08
3.1201228e-06
-1.2256221e-07
1.0367063e-05
-2.938945e-07
1.9406156e-05
-5.6681052e-07
3.0522756e-05
-9.6787192e-07
4.4089619e-05
-1.5265567e-06
6.0491478e-05
-2.2685227e-06
7.9853301e-05
-3.2095916e-06
0.00010211621
-4.3543795e-06
0.00012688966
-5.7034616e-06
0.00015375704
-7.2649423e-06
0.00018268023
-9.0522273e-06
0.00021357514
-1.108554e-05
0.00024648903
-1.3391099e-05
0.00028176931
-1.5999843e-05
0.00031974043
-1.8946495e-05
0.00036077597
-2.2272318e-05
0.00040528624
-2.6018724e-05
0.00045357965
-3.023096e-05
0.00050580666
-3.4960254e-05
0.0005626142
-4.0261401e-05
0.00062461883
-4.6192747e-05
0.00069196618
-5.2816862e-05
0.00076532999
-6.0201901e-05
0.00084535213
-6.8417415e-05
0.00093235144
-7.7543183e-05
0.0010272922
-8.7659911e-05
0.0011306208
-9.8858446e-05
0.0012432334
-0.0001112366
0.0013659755
-0.00012490225
0.0014997065
-0.00013997322
0.0016453303
-0.00015658253
0.0018039149
-0.00017487688
0.0019762262
-0.00019502307
0.0021637475
-0.00021721622
0.0023678706
-0.00024167762
0.0025895144
-0.00026867377
0.0028302397
-0.00029854831
0.0030910479
-0.00033182972
0.0033726515
-0.00036934414
0.0036737142
-0.00041128786
0.0039920824
-0.00045707296
0.0043314125
-0.00050669256
0.0046981836
-0.00056042802
0.0050959513
-0.00061860972
0.0055268131
-0.00068160292
0.0059940904
-0.00074979954
0.0065007623
-0.0008236238
0.0070499092
-0.00090353283
0.0076451771
-0.00099002088
0.0082904231
-0.0010836225
0.0089897599
-0.0011849155
0.0097480362
-0.0012945206
0.010569646
-0.0014131106
0.011460242
-0.0015414034
0.012425165
-0.0016801775
0.013470753
-0.0018302722
0.014604039
-0.0019925877
0.015832004
-0.0021680894
0.01716249
-0.0023578176
0.018604337
-0.0025628794
0.020166251
-0.002784469
0.021859013
-0.003023862
0.023693599
-0.0032824121
0.025681302
-0.0035615649
0.02783557
-0.0038628551
0.030170609
0.032702019
-2.5381252e-08
3.1396754e-06
-9.9681443e-08
1.043493e-05
-2.3850039e-07
1.9537949e-05
-4.6123357e-07
3.0737814e-05
-7.9150264e-07
4.44115e-05
-1.2558545e-06
6.094671e-05
-1.8778812e-06
8.0465403e-05
-2.6723175e-06
0.00010289989
-3.64354e-06
0.00012784921
-4.7924415e-06
0.0001548933
-6.1270524e-06
0.00018400109
-7.6606744e-06
0.00021509382
-9.413337e-06
0.00024822544
-1.1410499e-05
0.00028374882
-1.3681344e-05
0.00032199207
-1.6261494e-05
0.00036333526
-1.918783e-05
0.00040818989
-2.2503914e-05
0.0004568711
-2.6253416e-05
0.0005095294
-3.0485637e-05
0.00056681738
-3.5256142e-05
0.00062935778
-4.0622881e-05
0.00069729868
-4.6647275e-05
0.00077131721
-5.3398042e-05
0.00085206255
-6.0945675e-05
0.00093985528
-6.936613e-05
0.0010356651
-7.8744152e-05
0.0011399473
-8.9167155e-05
0.0012536004
-0.00010073233
0.0013774799
-0.00011354603
0.0015124543
-0.00012772326
0.001659436
-0.00014339376
0.0018195078
-0.00016069891
0.0019934471
-0.00017980244
0.0021827596
-0.00020089125
0.0023888602
-0.00022418026
0.0026126958
-0.00024992734
0.00285587
-0.00027846154
0.0031194555
-0.00031028899
0.0034043416
-0.00034626171
0.003709538
-0.00038677512
0.0040324342
-0.00043117847
0.0043756404
-0.00047936299
0.0047461775
-0.00053159419
0.0051479757
-0.00058820182
0.0055831963
-0.00064955092
0.0060551959
-0.00071603931
0.0065669863
-0.00078809102
0.007121674
-0.00086616889
0.0077229436
-0.00095077384
0.0083746901
-0.0010424451
0.0090810644
-0.0011417711
0.0098469642
-0.0012493795
0.010676822
-0.0013659531
0.011576346
-0.0014922227
0.012550926
-0.0016289773
0.013606956
-0.0017770669
0.014751529
-0.001937403
0.01599169
-0.0021109616
0.017335343
-0.0022987937
0.018791403
-0.002502016
0.020368642
-0.0027218312
0.022077927
-0.0029595223
0.023930312
-0.0032164493
0.025937167
-0.0034940638
0.028112032
-0.0037939049
0.0304692
-0.0041175999
0.033024357
-0.0044668657
0.035794429
-0.0048434977
0.038798306
-0.0052493683
0.04205636
0.045591674
-1.5386073e-08
3.1490901e-06
-5.6841913e-08
1.0469847e-05
-1.3601389e-07
1.9609993e-05
-2.6863949e-07
3.0862678e-05
-4.7499201e-07
4.4609372e-05
-7.7831337e-07
6.1240804e-05
-1.200797e-06
8.0877838e-05
-1.7554197e-06
0.00010344362
-2.447855e-06
0.0001285298
-3.28003e-06
0.00015571262
-4.2589474e-06
0.00018496601
-5.3987678e-06
0.00021621843
-6.7182469e-06
0.00024952837
-8.2407326e-06
0.00028525331
-9.9961054e-06
0.00032372787
-1.2016761e-05
0.00036533465
-1.4340539e-05
0.00041049054
-1.7007452e-05
0.00045951289
-2.0060113e-05
0.00051255477
-2.354925e-05
0.00057027689
-2.7527639e-05
0.00063330399
-3.205246e-05
0.00070178857
-3.7185859e-05
0.00077641269
-4.2995717e-05
0.00085783125
-4.9551846e-05
0.00094636674
-5.6933307e-05
0.0010429981
-6.5221584e-05
0.0011481829
-7.4505935e-05
0.0012628277
-8.4884735e-05
0.0013877968
-9.6462222e-05
0.0015239645
-0.00010935612
0.001672257
-0.0001236932
0.0018337657
-0.00013961576
0.0020092838
-0.00015728596
0.0022003366
-0.0001768907
0.0024083638
-0.00019864062
0.002634336
-0.00022279347
0.0028799038
-0.00024967546
0.0031462083
-0.00027977454
0.0034343006
-0.00031395042
0.003743562
-0.00035280108
0.0040711201
-0.00039561235
0.0044182727
-0.00044213278
0.0047925036
-0.00049260323
0.0051982352
-0.0005473584
0.0056377225
-0.0006067727
0.0061143617
-0.00067124724
0.0066311912
-0.00074122025
0.0071913543
-0.00081716408
0.0077985698
-0.00089958922
0.0084567706
-0.00098904807
0.0091701492
-0.0010861377
0.0099436479
-0.0011914984
0.010781742
-0.0013058212
0.011690191
-0.0014298487
0.012674435
-0.0015643785
0.013740922
-0.0017102696
0.01489681
-0.0018684418
0.016149199
-0.0020398798
0.017506061
-0.0022256417
0.018976384
-0.0024268527
0.020569006
-0.0026447212
0.022294876
-0.0028805369
0.02416513
-0.0031356651
0.026191213
-0.0034115613
0.028386753
-0.0037097709
0.030766134
-0.0040319246
0.033345126
-0.00437974
0.036140743
-0.0047550194
0.039171956
-0.0051596378
0.04245921
-0.0055955403
0.046025658
-0.0060647264
0.049896807
-0.0065692256
0.054101043
0.058668963
-6.9858162e-09
3.1497451e-06
-2.3210559e-08
1.0479139e-05
-5.8414533e-08
1.9637668e-05
-1.2545596e-07
3.0921553e-05
-2.4171803e-07
4.4716746e-05
-4.2705242e-07
6.1416522e-05
-7.00578e-07
8.1140928e-05
-1.0729715e-06
0.00010380475
-1.5461192e-06
0.00012899074
-2.1198716e-06
0.00015627317
-2.7977211e-06
0.00018562951
-3.5914327e-06
0.00021699656
-4.5158384e-06
0.00025043584
-5.593882e-06
0.00028631297
-6.8515547e-06
0.00032496556
-8.3191894e-06
0.00036678058
-1.00308e-05
0.00041217855
-1.2025844e-05
0.00046148231
-1.4345484e-05
0.00051484657
-1.7036965e-05
0.00057293815
-2.0152528e-05
0.00063638673
-2.3746869e-05
0.00070534729
-2.7880478e-05
0.00078050763
-3.2619657e-05
0.00086252846
-3.8033591e-05
0.00095173512
-4.4200095e-05
0.0010491151
-5.1197525e-05
0.0011551267
-5.9114676e-05
0.0012706866
-6.8046072e-05
0.001396665
-7.8094749e-05
0.0015339446
-8.9372418e-05
0.0016834602
-0.00010200424
0.0018463167
-0.00011612389
0.0020233158
-0.00013188801
0.0022160056
-0.00014947066
0.0024258433
-0.00016907492
0.0026538283
-0.00019093831
0.0029016457
-0.00021536261
0.0031705008
-0.00024280092
0.0034615961
-0.0002741024
0.0037747085
-0.0003101477
0.0041069973
-0.00035034702
0.0044582895
-0.00039431783
0.0048362762
-0.00044227848
0.0052459807
-0.00049456202
0.0056897725
-0.00055154062
0.0061710869
-0.00061361788
0.0066929934
-0.00068122604
0.007258664
-0.00075483497
0.0078718548
-0.00083495146
0.0085365355
-0.00092212366
0.0092569399
-0.0010169477
0.010038058
-0.0011200611
0.010884406
-0.0012321562
0.011801799
-0.0013539729
0.012795722
-0.001486311
0.013872686
-0.001630034
0.01503991
-0.0017860635
0.016304552
-0.0019553913
0.017674656
-0.0021390777
0.019159274
-0.0023382543
0.020767318
-0.0025541347
0.022509818
-0.0027880145
0.024397992
-0.0030412653
0.026443359
-0.0033153498
0.02865964
-0.0036118152
0.031061299
-0.0039323006
0.033664201
-0.0042785282
0.036485439
-0.0046523049
0.039544071
-0.0050555125
0.042860615
-0.0054901039
0.046458294
-0.0059580876
0.050362669
-0.0064615062
0.054602161
-0.0070024041
0.059207365
-0.0075828096
0.064214273
-0.0082046733
0.069661759
0.075594116
-2.1090267e-08
3.1641767e-06
-7.7664437e-08
1.0528485e-05
-1.8075625e-07
1.9732928e-05
-3.4428734e-07
3.1076656e-05
-5.854382e-07
4.4948749e-05
-9.2289934e-07
6.174412e-05
-1.370749e-06
8.1578091e-05
-1.9339052e-06
0.00010435638
-2.6062843e-06
0.00012965064
-3.3797817e-06
0.00015703318
-4.2526006e-06
0.00018648767
-5.2285122e-06
0.00021795659
-6.3192464e-06
0.00025150929
-7.5427924e-06
0.00028751777
-8.9210338e-06
0.00032632341
-1.0481853e-05
0.00036831926
-1.2257558e-05
0.00041393018
-1.4285074e-05
0.00046348369
-1.6604524e-05
0.00051713763
-1.9261486e-05
0.0005755643
-2.2308321e-05
0.00063940009
-2.5801343e-05
0.00070880399
-2.9801313e-05
0.00078446815
-3.437637e-05
0.00086706071
-3.9597052e-05
0.00095690933
-4.5541595e-05
0.0010550092
-5.2294238e-05
0.0011618246
-5.9944091e-05
0.0012782771
-6.8588974e-05
0.0014052454
-7.8332981e-05
0.0015436187
-8.9291456e-05
0.0016943428
-0.00010158847
0.0018585314
-0.00011536225
0.0020370002
-0.00013076631
0.0022313127
-0.00014797832
0.0024429501
-0.00016719728
0.002672933
-0.00018866326
0.0029229878
-0.00021267236
0.0031943755
-0.00023965007
0.003488428
-0.00027037175
0.0038052722
-0.0003058385
0.0041422926
-0.00034555664
0.0044978215
-0.00038895414
0.0048794716
-0.00043619512
0.0052930022
-0.00048761278
0.0057409521
-0.00054358529
0.006226801
-0.00060452526
0.0067536529
-0.0006708756
0.00732471
-0.0007431165
0.0079437654
-0.00082176692
0.0086148275
-0.00090738618
0.0093421701
-0.0010005797
0.010130829
-0.0011019949
0.010985363
-0.0012123316
0.011911638
-0.0013323403
0.012915192
-0.0014628272
0.014002588
-0.0016046632
0.01518111
-0.0017587781
0.016457978
-0.0019261689
0.017841298
-0.0021079058
0.019340199
-0.0023051286
0.02096366
-0.0025190595
0.022722793
-0.0027510018
0.024628897
-0.0030023368
0.026693569
-0.0032745351
0.028930616
-0.0035691551
0.031354594
-0.0038878432
0.033981451
-0.0042323321
0.036828368
-0.0046044379
0.039914484
-0.0050060535
0.043260394
-0.0054391422
0.04688939
-0.0059057261
0.050827091
-0.0064078655
0.055101954
-0.0069476249
0.05974458
-0.0075270575
0.064790946
-0.0081481479
0.070279857
-0.008812767
0.076255491
-0.0095226232
0.082768506
0.089875561
-3.4071418e-08
3.1921077e-06
-1.3246747e-07
1.0620108e-05
-3.0987706e-07
1.990292e-05
-5.8341833e-07
3.1342061e-05
-9.7199195e-07
4.532841e-05
-1.4954183e-06
6.2257815e-05
-2.1669917e-06
8.2239052e-05
-2.9888701e-06
0.00010516673
-3.9527266e-06
0.00013060195
-5.046748e-06
0.00015811358
-6.265825e-06
0.00018769192
-7.6107682e-06
0.00021928539
-9.088282e-06
0.00025296925
-1.0711698e-05
0.00028912209
-1.2498172e-05
0.00032808912
-1.447152e-05
0.00037027005
-1.6659576e-05
0.0004160937
-1.9095728e-05
0.00046589318
-2.1816181e-05
0.00051982913
-2.4865362e-05
0.00057858205
-2.8293268e-05
0.00064279385
-3.2152843e-05
0.0007126265
-3.6507106e-05
0.00078878218
-4.1422023e-05
0.00087193196
-4.6970731e-05
0.00096241065
-5.3231737e-05
0.0010612188
-6.0290844e-05
0.0011688279
-6.8239999e-05
0.0012861657
-7.7177468e-05
0.0014141171
-8.7210578e-05
0.0015535805
-9.8453698e-05
0.0017055085
-0.0001110334
0.0018710271
-0.00012508456
0.0020509602
-0.00014076063
0.0022468899
-0.00015823677
0.0024603189
-0.00017770768
0.0026922875
-0.00019940678
0.0029445606
-0.00022362142
0.0032184532
-0.00025075672
0.0035154148
-0.0002815205
0.0038358749
-0.00031701978
0.0041776172
-0.00035698087
0.0045375928
-0.00040064917
0.0049229338
-0.00044810946
0.0053402388
-0.00049966667
0.0057922665
-0.00055568566
0.0062825565
-0.0006165612
0.0068142425
-0.00068272414
0.0073905626
-0.00075464591
0.0080153504
-0.00083283854
0.0086926546
-0.00091785573
0.0094267907
-0.0010103036
0.010222847
-0.0011108313
0.011085424
-0.0012201456
0.012020446
-0.001339001
0.013033497
-0.0014682144
0.014131204
-0.0016086653
0.015320913
-0.0017612953
0.016609905
-0.001927112
0.018006352
-0.0021071988
0.019519459
-0.0023027052
0.021158268
-0.0025148681
0.022933982
-0.0027450037
0.024857975
-0.0029945052
0.026941923
-0.0032648569
0.029199723
-0.0035576307
0.031646017
-0.0038744868
0.034296841
-0.0042171709
0.037169461
-0.0045875132
0.0402831
-0.0049874206
0.043658429
-0.0054188741
0.047318812
-0.0058839112
0.051289924
-0.0063846132
0.055600266
-0.0069230689
0.060280443
-0.0075013584
0.065366424
-0.0081215021
0.070896951
-0.0087854141
0.076916097
-0.0094948506
0.083474359
-0.010251335
0.09062816
-0.011056081
0.098441152
0.10698615
-3.5704544e-08
3.2211558e-06
-1.3940696e-07
1.0716548e-05
-3.2769387e-07
2.0083299e-05
-6.1926372e-07
3.1625066e-05
-1.0360337e-06
4.5735846e-05
-1.5995046e-06
6.2811178e-05
-2.3260218e-06
8.2954585e-05
-3.2205887e-06
0.00010604942
-4.2770522e-06
0.00013164553
-5.4865896e-06
0.00015930917
-6.8458795e-06
0.00018903603
-8.3560224e-06
0.00022077906
-1.0023152e-05
0.00025461845
-1.1857059e-05
0.00029093654
-1.3874151e-05
0.00033008504
-1.6093842e-05
0.00037246674
-1.8540262e-05
0.00041851512
-2.1242683e-05
0.00046856844
-2.4233726e-05
0.00052279067
-2.7552064e-05
0.00058186837
-3.1245017e-05
0.00064645202
-3.5363816e-05
0.00071670755
-3.9965757e-05
0.00079334314
-4.5116872e-05
0.00087703859
-5.0889332e-05
0.00096813482
-5.7361771e-05
0.0010676389
-6.4619511e-05
0.0011760288
-7.2756207e-05
0.0012942407
-8.1871579e-05
0.0014231655
-9.2074875e-05
0.0015637111
-0.00010348272
0.0017168375
-0.00011622133
0.0018836801
-0.00013042718
0.0020650732
-0.00014625156
0.0022626135
-0.00016386423
0.0024778223
-0.00018345631
0.002711761
-0.00020524886
0.0029662244
-0.00022951265
0.0032425773
-0.000256614
0.0035423646
-0.00028718993
0.0038662866
-0.00032239665
0.0042126458
-0.00036227167
0.0045772745
-0.00040595234
0.0049664045
-0.00045343608
0.0053874946
-0.0005050171
0.0058436002
-0.00056104779
0.0063383187
-0.00062191451
0.0068748178
-0.00068803637
0.0074563682
-0.00075986797
0.0080868387
-0.00083790576
0.0087703199
-0.00092269153
0.0095111722
-0.0010148139
0.01031453
-0.0011149106
0.011185045
-0.0012236747
0.012128693
-0.0013418561
0.013151118
-0.0014702655
0.014259005
-0.0016097807
0.015459768
-0.0017613442
0.016760752
-0.0019259702
0.018170201
-0.002104747
0.019697392
-0.0022988362
0.021351442
-0.0025094833
0.023143635
-0.0027380185
0.025085433
-0.0029858497
0.027188584
-0.0032544753
0.029467079
-0.0035454826
0.031935647
-0.0038605479
0.034610412
-0.0042014332
0.037508725
-0.0045699878
0.040649896
-0.0049681355
0.044054668
-0.0053978744
0.047746481
-0.0058612652
0.051751069
-0.0063604103
0.056096975
-0.0068974246
0.060814815
-0.0074744195
0.065940553
-0.0080934512
0.071512875
-0.0087564759
0.077575752
-0.009465301
0.084179531
-0.01022151
0.09138041
-0.011026383
0.099241735
-0.011880814
0.10783593
0.11724626
-3.4163623e-08
3.2489451e-06
-1.3393305e-07
1.0809291e-05
-3.1599296e-07
2.0257664e-05
-5.9990157e-07
3.1900536e-05
-1.0077832e-06
4.6134481e-05
-1.5636317e-06
6.3356932e-05
-2.2844288e-06
8.3664371e-05
-3.1773176e-06
0.00010693035
-4.2389608e-06
0.00013269416
-5.4634755e-06
0.00016051954
-6.8499226e-06
0.00019040708
-8.4013026e-06
0.00022231369
-1.0124703e-05
0.00025632362
-1.2032085e-05
0.0002928241
-1.4138597e-05
0.00033216999
-1.6462367e-05
0.00037476708
-1.902624e-05
0.00042105351
-2.1856074e-05
0.0004713706
-2.4982354e-05
0.00052588688
-2.8440935e-05
0.00058529431
-3.2274389e-05
0.00065025002
-3.6530035e-05
0.00072092472
-4.1262985e-05
0.00079803432
-4.653756e-05
0.00088226782
-5.242095e-05
0.00097396901
-5.8992682e-05
0.0010741572
-6.6336477e-05
0.0011833146
-7.454612e-05
0.0013023874
-8.3724687e-05
0.0014322759
-9.398167e-05
0.001573894
-0.00010543578
0.0017282112
-0.00011821749
0.0018963746
-0.00013246322
0.0020792243
-0.00014832897
0.0022783766
-0.000165984
0.0024953659
-0.00018561782
0.0027312739
-0.00020744948
0.0029879249
-0.00023173765
0.0032667232
-0.00025882633
0.003569299
-0.00028928796
0.0038965808
-0.00032425879
0.0042474351
-0.00036408289
0.0046169016
-0.00040780416
0.0050099118
-0.00045531979
0.0054347779
-0.0005069089
0.0058949372
-0.00056292237
0.0063940586
-0.00062374354
0.0069353421
-0.00068978734
0.0075220897
-0.00076150677
0.0081582084
-0.00083939267
0.0088478262
-0.00092397708
0.0095953447
-0.0010158413
0.010405948
-0.0011156129
0.011284331
-0.0012239751
0.012236529
-0.0013416651
0.013268236
-0.0014694828
0.014386203
-0.0016082972
0.01559791
-0.0017590453
0.01691077
-0.0019227328
0.018333096
-0.0021004491
0.019874248
-0.0022933553
0.021543416
-0.0025027036
0.023351972
-0.0027298295
0.02531146
-0.0029761519
0.027433715
-0.0032431818
0.029732816
-0.0035325204
0.032223582
-0.0038458605
0.03492223
-0.0041849805
0.037846194
-0.0045517477
0.041014871
-0.0049481068
0.044449083
-0.0053760778
0.048172342
-0.0058377422
0.052210445
-0.0063352294
0.05659198
-0.006870682
0.061347575
-0.0074462439
0.066513196
-0.0080640076
0.072127473
-0.0087259753
0.078234287
-0.0094340048
0.084883839
-0.01018974
0.092132112
-0.010994525
0.10004215
-0.01184934
0.10868601
-0.012754691
0.11814648
-0.013710525
0.12851721
0.13990384
-3.3949098e-08
3.2759926e-06
-1.3211199e-07
1.0899928e-05
-3.1110997e-07
2.0428466e-05
-5.9042844e-07
3.2170978e-05
-9.9270545e-07
4.6527082e-05
-1.5412918e-06
6.389504e-05
-2.2544548e-06
8.4366145e-05
-3.1400412e-06
0.00010780362
-4.1953182e-06
0.00013373607
-5.4162061e-06
0.00016172596
-6.802534e-06
0.00019177766
-8.3604171e-06
0.00022385448
-1.0098613e-05
0.00025804322
-1.2029136e-05
0.00029473443
-1.4168535e-05
0.00033428742
-1.6535212e-05
0.0003771099
-1.915198e-05
0.00042364433
-2.2043761e-05
0.0004742342
-2.5238741e-05
0.00052905125
-2.8770639e-05
0.00058879297
-3.2680652e-05
0.00065412393
-3.7012391e-05
0.00072521727
-4.1818816e-05
0.0008027982
-4.7158383e-05
0.00088756121
-5.3097462e-05
0.00097985796
-5.9711727e-05
0.0010807171
-6.7085501e-05
0.0011906294
-7.5309555e-05
0.0013105474
-8.4486025e-05
0.0014413828
-9.4725888e-05
0.0015840584
-0.00010614984
0.0017395533
-0.00011888926
0.0019090252
-0.00013308437
0.0020933231
-0.00014889025
0.0022940779
-0.00016648137
0.0025128435
-0.00018604616
0.0027507156
-0.00020780204
0.0030095472
-0.00023200513
0.0032907813
-0.0002589828
0.0035961194
-0.00028925909
0.0039266866
-0.00032392199
0.0042819131
-0.00036361128
0.0046563903
-0.00040733713
0.0050534198
-0.00045486464
0.0054820688
-0.00050644939
0.0059462651
-0.0005624378
0.0064497683
-0.00062320872
0.0069958105
-0.00068917375
0.0075877265
-0.00076077867
0.0082294571
-0.0008385104
0.0089251713
-0.00092289579
0.0096793105
-0.0010145121
0.010497109
-0.001113978
0.011383303
-0.0012219714
0.012343986
-0.001339221
0.013384904
-0.0014665188
0.014512869
-0.0016047258
0.015735432
-0.0017547675
0.017060068
-0.0019176468
0.018495168
-0.0020944433
0.020050169
-0.0022863145
0.021734337
-0.0024945106
0.023559136
-0.0027203691
0.0255362
-0.0029653119
0.027677444
-0.0032308575
0.029997044
-0.0035186178
0.032509913
-0.0038302982
0.035232359
-0.0041676936
0.038181906
-0.004532688
0.041378039
-0.0049272466
0.04484166
-0.0053534104
0.048596357
-0.0058132859
0.052667989
-0.0063090288
0.057085194
-0.0068428118
0.061878616
-0.0074168128
0.067084222
-0.0080331641
0.072740599
-0.0086939114
0.078891538
-0.0094009658
0.085587103
-0.010156032
0.092883069
-0.010960526
0.10084219
-0.011815496
0.10953616
-0.012721544
0.11904731
-0.013678719
0.12946874
-0.014686399
0.14090541
0.15347943
-3.309287e-08
3.3025088e-06
-1.292412e-07
1.0988828e-05
-3.0496298e-07
2.0596243e-05
-5.7973324e-07
3.2437032e-05
-9.7619073e-07
4.6913979e-05
-1.5178292e-06
6.4426237e-05
-2.2227312e-06
8.5059648e-05
-3.0984724e-06
0.00010866697
-4.1433677e-06
0.00013476747
-5.3529272e-06
0.00016292086
-6.7300688e-06
0.00019313884
-8.279875e-06
0.00022538692
-1.0012903e-05
0.00025975734
-1.1942624e-05
0.00029664359
-1.4086075e-05
0.00033640851
-1.6463191e-05
0.00037946271
-1.9095733e-05
0.00042625044
-2.2009983e-05
0.00047711973
-2.5232347e-05
0.00053224242
-2.8796391e-05
0.00059232315
-3.274051e-05
0.00065803127
-3.7107742e-05
0.00072954458
-4.1946681e-05
0.00080759379
-4.7315196e-05
0.00089288268
-5.3275402e-05
0.00098576711
-5.990156e-05
0.0010872878
-6.7272105e-05
0.0011979398
-7.5479169e-05
0.0013186892
-8.4623052e-05
0.0014504559
-9.4813515e-05
0.001594172
-0.0001061711
0.0017508275
-0.00011882758
0.0019215912
-0.0001329265
0.0021073238
-0.00014862438
0.0023096693
-0.0001660959
0.0025301995
-0.00018553189
0.0027700261
-0.00020714988
0.003031029
-0.00023120203
0.0033146858
-0.00025800364
0.0036227609
-0.00028803868
0.003956548
-0.00032232113
0.0043160073
-0.000361769
0.0046956338
-0.0004054232
0.005096852
-0.00045289715
0.0055293018
-0.00050442
0.0059975264
-0.00056033105
0.0065053955
-0.00062100787
0.0070561792
-0.00068685553
0.0076532398
-0.00075831685
0.0083005555
-0.00083587395
0.0090023345
-0.00092004815
0.0097630572
-0.0010114095
0.010588006
-0.0011105721
0.011481962
-0.0012182049
0.012451072
-0.0013350323
0.013501139
-0.0014618381
0.014639032
-0.0015994745
0.01587237
-0.001748862
0.017208698
-0.0019109927
0.018656477
-0.0020869415
0.020225226
-0.0022778595
0.021924287
-0.0024849918
0.023765218
-0.0027096731
0.025759741
-0.0029533257
0.027919859
-0.0032174703
0.030259847
-0.003503724
0.032794711
-0.0038138021
0.035540857
-0.0041495114
0.038515901
-0.0045127513
0.04173942
-0.0049055043
0.045232396
-0.0053298336
0.049018498
-0.0057878702
0.053123652
-0.0062817958
0.057576545
-0.0068138155
0.062407842
-0.0073861408
0.067653518
-0.0080009449
0.073352118
-0.0086603192
0.07954735
-0.0093662287
0.086289151
-0.010120435
0.093633092
-0.010924433
0.10164166
-0.011779345
0.11038617
-0.012685861
0.11994851
-0.013644117
0.13042124
-0.014653609
0.14190868
-0.015713101
0.1545322
0.16842686
-3.3198848e-08
3.3285955e-06
-1.285487e-07
1.1076423e-05
-3.0252993e-07
2.0761771e-05
-5.7439565e-07
3.2699738e-05
-9.6660169e-07
4.729619e-05
-1.5022819e-06
6.4951089e-05
-2.2001194e-06
8.5745704e-05
-3.0667305e-06
0.00010952084
-4.1005829e-06
0.00013578748
-5.2981066e-06
0.00016410339
-6.6616826e-06
0.00019448609
-8.1984552e-06
0.00022690596
-9.9182385e-06
0.00026145783
-1.1837227e-05
0.00029854163
-1.3971539e-05
0.00033852003
-1.6340991e-05
0.00038180741
-1.8970049e-05
0.00042885259
-2.1883108e-05
0.00048000355
-2.5108167e-05
0.00053543572
-2.867814e-05
0.00059585865
-3.2629227e-05
0.00066194491
-3.7003886e-05
0.00073387859
-4.1849767e-05
0.00081239554
-4.7220898e-05
0.00089820592
-5.3178604e-05
0.00099167283
-5.9792229e-05
0.001093845
-6.7140438e-05
0.0012052268
-7.5311545e-05
0.0013267939
-8.4402881e-05
0.0014594751
-9.4523633e-05
0.0016042145
-0.00010579419
0.0017620131
-0.0001183462
0.0019340511
-0.00013232261
0.0021212002
-0.00014788171
0.0023251199
-0.00016519921
0.0025473992
-0.00018446809
0.0027891673
-0.00020590548
0.0030523278
-0.00022976074
0.0033383906
-0.00025634192
0.0036491789
-0.00028609788
0.0039861271
-0.00031996002
0.0043496776
-0.00035907288
0.0047345386
-0.00040259075
0.0051401439
-0.00044995617
0.0055764218
-0.00050135981
0.0060486637
-0.00055713861
0.0065608852
-0.00061766545
0.0071163923
-0.00068334301
0.0077185768
-0.00075461279
0.0083714558
-0.00083195028
0.009079271
-0.00091587459
0.0098465463
-0.0010069497
0.010678609
-0.0011057846
0.011580284
-0.0012130432
0.012557775
-0.0013294398
0.013616932
-0.0014557536
0.01476469
-0.0015928291
0.016008735
-0.0017415785
0.017356676
-0.0019029879
0.018817049
-0.0020781234
0.020399453
-0.0022681301
0.022113308
-0.0024742464
0.023970265
-0.0026978035
0.025982138
-0.0029402202
0.028161017
-0.0032030166
0.030521277
-0.0034878138
0.033078025
-0.0037963295
0.035847764
-0.0041303805
0.038848207
-0.0044918785
0.042099024
-0.0048828224
0.045621285
-0.0053052939
0.04943874
-0.0057614465
0.053577387
-0.0062534907
0.058065966
-0.0067836602
0.062935167
-0.0073542036
0.068220977