/*--------------------------------*- C++ -*----------------------------------*\
| =========                 |                                                 |
| \\      /  F ield         | OpenFOAM: The Open Source CFD Toolbox           |
|  \\    /   O peration     | Version:  2506                                  |
|   \\  /    A nd           | Website:  www.openfoam.com                      |
|    \\/     M anipulation  |                                                 |
\*---------------------------------------------------------------------------*/
FoamFile
{
    version     2.0;
    format      ascii;
    arch        "LSB;label=32;scalar=64";
    class       volScalarField;
    location    "0.8";
    object      k;
}
// * * * * * * * * * * * * * * * * * * * * * * * * * * * * * * * * * * * * * //

dimensions      [0 2 -2 0 0 0 0];

internalField   nonuniform List<scalar> 
1376
(
6.7626164
6.7537044
6.7471746
6.7413924
6.7369364
6.7343913
6.7333676
6.7343719
6.7370505
6.7427626
6.7517241
6.7648716
6.7833942
6.8087872
6.8429227
6.8884712
6.9493168
7.0317221
7.1459129
7.3126841
7.5739081
8.0880982
6.7645641
6.7587659
6.754496
6.7520672
6.7510966
6.7521992
6.7550256
6.7608585
6.7700076
6.7833507
6.8020542
6.8276805
6.8620938
6.9080216
6.9693197
7.0523277
7.1673087
7.3352281
7.5983049
8.1187484
6.7755012
6.7714622
6.7691
6.7682161
6.7693675
6.7723874
6.7783704
6.7877347
6.8013032
6.8202272
6.84613
6.8808701
6.9272194
6.9890295
7.0727042
7.1885502
7.3576616
7.6225396
8.1425854
6.7879959
6.785714
6.7850156
6.7862192
6.7894961
6.7956836
6.8053169
6.8191703
6.8383924
6.8646507
6.8998064
6.9466648
7.0090979
7.0935697
7.2104437
7.3809464
7.6478942
8.1701275
6.8015911
6.8028829
6.8064529
6.8128823
6.822828
6.8370075
6.8565969
6.8832771
6.9189239
6.966369
7.0295117
7.114881
7.2329217
7.4049693
7.674113
8.1979482
6.8194637
6.8233523
6.8300596
6.8403531
6.854905
6.8749307
6.9021013
6.938315
6.9864247
7.0503661
7.1367482
7.2560939
7.4298492
7.7013821
8.2272279
6.8402673
6.8472914
6.8579588
6.8729359
6.8934596
6.9211883
6.9580438
7.006894
7.0717274
7.1592347
7.2800227
7.4556528
7.7298067
8.2573875
6.864636
6.8757038
6.8911622
6.9122381
6.940593
6.9781655
7.0278428
7.0936585
7.1823969
7.3047774
7.4824439
7.7595035
8.2893952
6.8820845
6.8935857
6.9095877
6.9312707
6.9603208
6.9986891
7.0492886
7.1161835
7.2062688
7.3303932
7.5102771
7.7904807
8.323018
6.9116635
6.9282616
6.9506072
6.9804198
7.0196598
7.0712819
7.1393563
7.2309054
7.3569249
7.5392128
7.82275
8.3582405
6.9472781
6.9703484
7.0009887
7.0411722
7.0939172
7.1632784
7.256414
7.3844804
7.5693645
7.8564665
8.3956124
6.9905332
7.0220693
7.0632701
7.1172336
7.1880014
7.2828528
7.4131166
7.6007954
7.8917491
8.4350415
7.0436612
7.0859653
7.1412447
7.2135488
7.3102566
7.4428804
7.6335711
7.928636
8.4763367
7.109312
7.1660054
7.2399787
7.3386896
7.4738382
7.6677555
7.9671423
8.5195212
7.1916187
7.2673958
7.3682636
7.5061131
7.7034827
8.0075515
8.5647751
7.2958434
7.3990376
7.5397763
7.74083
8.0497277
8.6121357
7.4310751
7.5749041
7.7798965
8.0940594
8.6625676
7.6116013
7.8208067
8.140608
8.7156965
7.8637065
8.189481
8.7723007
8.2410193
8.8324592
18.02752
16.886781
15.68885
14.592381
13.82037
13.34647
12.917164
12.343166
11.605953
10.899006
10.377941
10.002374
9.6572811
9.2675253
8.8382741
8.4243387
8.065735
7.7523192
7.444441
7.1270506
6.8231751
6.5595964
6.3297875
17.623261
16.984635
16.497876
16.009526
15.404063
14.761175
14.266046
13.833931
13.293684
12.610527
11.974191
11.505063
11.116188
10.692107
10.196699
9.6872945
9.2212596
8.8012956
8.4021915
8.0106655
7.6436162
7.3204682
7.0319375
10.3154
10.111379
9.9934135
9.9046449
9.7637488
9.5814538
9.4508529
9.373488
9.2682627
9.0769273
8.836978
8.6562033
8.5476898
8.4508861
8.3259029
8.1740925
8.0173916
7.866401
7.7162843
7.5540046
7.3796812
7.2016495
7.0179429
9.2388702
9.0965849
8.950359
8.802397
8.6573442
8.5262578
8.4123295
8.3043562
8.176903
8.0072441
7.7996519
7.5992535
7.4470749
7.3360556
7.2400786
7.1451364
7.0534309
6.9734148
6.9027998
6.8312888
6.7520016
6.6606296
6.550331
9.1851773
9.0707759
8.9436965
8.8054813
8.6716872
8.5588054
8.4624833
8.3615481
8.2362198
8.0760485
7.8861329
7.6920767
7.5225967
7.3836143
7.2611778
7.1422364
7.0242439
6.9123736
6.8095253
6.7137157
6.6198583
6.5188077
6.4006456
9.1838902
9.0892693
8.9781235
8.8544107
8.7353087
8.6383422
8.5605868
8.4806195
8.3776651
8.2429856
8.0830454
7.9173552
7.7646916
7.6300534
7.5059122
7.3824597
7.256558
7.1309835
7.0093147
6.8937271
6.7814151
6.663199
6.5300864
9.0703919
8.9909842
8.8999009
8.8002095
8.7029437
8.623225
8.5617932
8.5009333
8.4221397
8.3164382
8.1885157
8.0533696
7.9245917
7.8055661
7.6914538
7.57595
7.4566867
7.3351366
7.2140505
7.0961838
6.9798826
6.8576559
6.7228599
8.9042718
8.8371072
8.7622687
8.6819392
8.6021971
8.5350602
8.4840205
8.4361225
8.3760314
8.2949113
8.1946387
8.0860566
7.9797012
7.8779358
7.7770978
7.6737337
7.5669746
7.4574266
7.3464091
7.2357591
7.1244564
7.0072727
6.8800962
8.7592674
8.7102426
8.6527727
8.5910017
8.5266255
8.4616784
8.4036947
8.3577015
8.3164776
8.2684658
8.2053358
8.1263234
8.0387833
7.9511376
7.8650087
7.777375
7.6866345
7.5934381
7.4981169
7.4005613
7.3012144
7.1993585
7.0918374
6.9766707
8.5481602
8.5062677
8.4600385
8.4120021
8.3599806
8.3037858
8.2499137
8.2053118
8.1672852
8.1267667
8.0757114
8.0116083
7.9393083
7.8657788
7.7922327
7.7159195
7.6363717
7.5554313
7.473648
7.3899434
7.3033741
7.2129679
7.1170095
7.0151302
8.3407177
8.3014929
8.2642983
8.2273199
8.1836194
8.1329014
8.0824189
8.0402436
8.0055662
7.9703161
7.9268019
7.8721082
7.8100866
7.7467173
7.6825298
7.6149509
7.5443226
7.4733326
7.4030946
7.3321204
7.2581411
7.1794825
7.0952405
7.0061598
8.140526
8.1096647
8.077747
8.0457605
8.0070129
7.9611531
7.9150161
7.8757898
7.8431886
7.8103568
7.7706494
7.721679
7.6669747
7.611267
7.5541015
7.4930253
7.429028
7.3655392
7.3044502
7.2441791
7.1812841
7.1132067
7.0394541
7.9482604
7.9190602
7.8915392
7.8639594
7.8311638
7.792724
7.7537135
7.71819
7.6860718
7.6528006
7.6138964
7.5685629
7.5201188
7.4713403
7.4203871
7.3647502
7.3058225
7.2477325
7.1931951
7.1406776
7.0859903
7.0260545
6.9606564
7.7707447
7.7435647
7.7178661
7.6924185
7.6636187
7.6310277
7.5980246
7.5666929
7.5360673
7.5025536
7.4635536
7.4203394
7.3767472
7.3341466
7.2892139
7.238832
7.1842887
7.1301861
7.0797931
7.0316949
6.9816912
6.9269377
6.8675371
7.6363336
7.6128763
7.5847878
7.5588937
7.5351245
7.5092791
7.4808216
7.4511019
7.4215743
7.3917278
7.3585509
7.3206474
7.2801271
7.2405758
7.2025898
7.1623442
7.1165086
7.0660804
7.0154979
6.9678442
6.9217947
6.8738243
6.8219556
6.7666188
7.4939642
7.4643991
7.4359839
7.4122926
7.3911593
7.3680002
7.3400142
7.309563
7.280078
7.251179
7.2200993
7.1853091
7.1483279
7.1118268
7.0760541
7.0379565
6.9951211
6.9486344
6.9018951
6.8568339
6.8120962
6.7651574
6.7150812
6.66255
7.3546375
7.3264678
7.2984736
7.2755424
7.2556667
7.2339269
7.2078232
7.1789762
7.1499506
7.1207437
7.0901491
7.0574521
7.0231481
6.988348
6.953033
6.9154704
6.8747005
6.8318951
6.7890169
6.7466544
6.7033913
6.6575617
6.6090155
6.5585924
7.2186813
7.1930798
7.1684236
7.1481743
7.1294534
7.1080526
7.0828662
7.0555075
7.027216
6.998215
6.9683035
6.937138
6.9044503
6.8704422
6.8351234
6.7978853
6.7588632
6.7190993
6.6793642
6.6393252
6.5975992
6.5531065
6.5061148
6.4575099
7.1144958
7.0951826
7.0733506
7.0519577
7.0322847
7.0120405
6.988819
6.9637083
6.9380845
6.9117481
6.8842819
6.855322
6.8248549
6.7930667
6.7602152
6.725875
6.6897265
6.6523625
6.6146596
6.5768279
6.5382563
6.4977652
6.454662
6.4093326
6.3625305
7.0055746
6.9874483
6.9686382
6.9510992
6.9326228
6.9103964
6.8854504
6.8599756
6.8346343
6.8092739
6.7829956
6.7550555
6.725886
6.6955957
6.6639154
6.6304768
6.5954546
6.5594902
6.5229572
6.4857855
6.4476189
6.4077931
6.3660021
6.3224841
6.2775451
6.9179629
6.9005455
6.883801
6.8664701
6.8473647
6.8250565
6.8005281
6.7756793
6.7511425
6.7263413
6.7004228
6.6733285
6.6453008
6.6160647
6.585056
6.5522217
6.5180144
6.4828557
6.4467163
6.4094991
6.3712372
6.3318234
6.2912351
6.2493878
6.2060363
6.8709989
6.8524048
6.834751
6.817561
6.7997512
6.78063
6.759175
6.7364572
6.7129731
6.68851
6.663161
6.6369085
6.6101712
6.5827934
6.5540449
6.5233331
6.4909432
6.4573364
6.4226622
6.3867314
6.349524
6.3113372
6.2724264
6.232818
6.1920857
6.1496216
6.8222447
6.8038836
6.7859734
6.7684298
6.7499662
6.7304443
6.7101867
6.6882535
6.6651812
6.6412713
6.6165345
6.5910249
6.5644977
6.5365166
6.506969
6.4761811
6.4443626
6.4116051
6.377607
6.3420374
6.3050249
6.2670378
6.2285294
6.1894041
6.1490507
6.1068064
6.7863763
6.7685448
6.7505313
6.7323123
6.7134271
6.6940091
6.6734977
6.6515418
6.6284803
6.6048815
6.5807552
6.5558595
6.529624
6.5016629
6.472143
6.4414625
6.4099065
6.3775576
6.3440468
6.3090959
6.272787
6.2353805
6.1971744
6.1580346
6.1174801
6.0750922
6.7758119
6.7596095
6.7420189
6.7236764
6.7052876
6.6864964
6.6668673
6.6462237
6.6245277
6.6018358
6.5784221
6.5542692
6.5291571
6.502778
6.4749758
6.4459158
6.4157163
6.3846217
6.3525616
6.3193532
6.2849509
6.2493494
6.2126132
6.1747216
6.1355306
6.0947373
6.0522328
6.7558787
6.7398183
6.7228401
6.7049374
6.6865012
6.6672882
6.6470907
6.62616
6.6046045
6.582177
6.5587329
6.534375
6.5090723
6.4826553
6.4551062
6.4265055
6.396829
6.3661147
6.3342457
6.3012076
6.2670902
6.2317961
6.1953632
6.1577051
6.1186644
6.0780555
6.7565169
6.74079
6.7245896
6.7077157
6.6901308
6.672013
6.652948
6.6329098
6.6119846
6.5902039
6.5677237
6.5443209
6.519841
6.4942235
6.4676086
6.4401482
6.4118127
6.3824539
6.351913
6.3202447
6.2874912
6.2536509
6.2186675
6.1824729
6.1450212
6.1061957
6.0659073
6.7456239
6.7297019
6.7134105
6.6965643
6.6790222
6.6606486
6.6412797
6.6210532
6.6000879
6.5783253
6.555814
6.5324936
6.5081734
6.4828414
6.4564715
6.4290954
6.4007737
6.3714893
6.341189
6.3098716
6.2774543
6.2438154
6.2089561
6.1728952
6.135549
6.0969191
6.0569725
6.7367317
6.7207276
6.7042868
6.6872795
6.6696267
6.6511886
6.6318068
6.6115982
6.5906838
6.5689204
6.5463517
6.522982
6.4987851
6.4736572
6.4475774
6.4204796
6.3923415
6.363247
6.3331672
6.3020065
6.2697413
6.2363448
6.2017669
6.1659306
6.1287827
6.0903579
6.0506899
6.7301664
6.7141599
6.697589
6.680376
6.6624772
6.643852
6.6245012
6.604431
6.5836339
6.5620363
6.5395038
6.5160609
6.4917678
6.4665351
6.4403888
6.4134107
6.3855398
6.3567525
6.3269525
6.2960289
6.2639067
6.2306058
6.1961526
6.1604844
6.1235903
6.0854835
6.0461559
6.7244319
6.7083966
6.6917622
6.6744898
6.6565189
6.6378141
6.6183693
6.5981772
6.57731
6.5557113
6.5333826
6.5102739
6.486178
6.4610718
6.4350567
6.4082393
6.3805969
6.3520138
6.3224028
6.2917089
6.2598897
6.2268547
6.192526
6.1568677
6.1200085
6.0820679
6.0430706
6.7199401
6.7038561
6.6872138
6.6699318
6.6519682
6.6332713
6.6137954
6.5935642
6.5726038
6.5508976
6.5284797
6.5053045
6.4813108
6.4564512
6.4307212
6.4040916
6.3765312
6.3479512
6.3183606
6.2877488
6.2560968
6.2233202
6.1893527
6.1541735
6.1177987
6.0802625
6.7173157
6.7011054
6.6843381
6.6669391
6.6488462
6.630029
6.6104786
6.5902509
6.5693544
6.5477755
6.5254556
6.5023445
6.4783738
6.4535125
6.4277645
6.4011359
6.3736085
6.3451522
6.3157246
6.2852951
6.2538212
6.2212887
6.1876433
6.1528627
6.1169035
6.0797653
6.7162511
6.6998982
6.6829566
6.6653826
6.6471561
6.6282687
6.6087187
6.5885252
6.5676725
6.5461408
6.5238827
6.5008177
6.476882
6.4520569
6.42635
6.3997985
6.3723902
6.3440869
6.3148488
6.2846171
6.2533329
6.220968
6.1875086
6.1529424
6.1172526
6.0804288
6.7171352
6.7005751
6.683421
6.6656608
6.6472951
6.6283283
6.6087481
6.5885399
6.5676733
6.5461047
6.5237975
6.5007169
6.4768291
6.4521369
6.4266177
6.4002431
6.3729742
6.3447523
6.3155695
6.2854334
6.2543404
6.2222529
6.1891105
6.154835
6.1194089
6.7197253
6.7030532
6.6858217
6.6680171
6.6496276
6.6306405
6.6110341
6.5907777
6.5698391
6.5481833
6.5258026
6.5026948
6.478855
6.4542554
6.4288607
6.4025982
6.3754152
6.3472851
6.318211
6.2882246
6.2573267
6.2254663
6.192573
6.1585789
6.1234739
6.7253718
6.7085789
6.6912311
6.6733036
6.6547796
6.6356439
6.6158849
6.5955011
6.5744957
6.5528563
6.5305522
6.507531
6.4837412
6.4591451
6.433711
6.40742
6.3802635
6.3522355
6.3233432
6.2935648
6.2628607
6.2311753
6.1984578
6.1647032
6.1298941
6.7341787
6.7171742
6.6996373
6.6815462
6.6628899
6.6436644
6.6238643
6.6034747
6.5824684
6.5608063
6.5384467
6.5153503
6.4914839
6.4668266
6.4413778
6.4151416
6.3881164
6.360269
6.3315799
6.301982
6.2714254
6.2398709
6.2072973
6.1737457
6.7471688
6.7299503
6.7122294
6.693988
6.6752064
6.6558694
6.6359561
6.6154436
6.594303
6.5725038
6.5500167
6.5268165
6.50289
6.4782284
6.4528211
6.4266574
6.399717
6.3719542
6.3433312
6.3138315
6.2834095
6.252053
6.2197608
6.1865436
6.7655429
6.7480969
6.7301569
6.7117031
6.692717
6.6731785
6.6530689
6.6323669
6.6110514
6.5891029
6.5665016
6.5432285
6.5192683
6.4946052
6.4692131
6.4430671
6.4161462
6.3884246
6.3598524
6.3304276
6.300144
6.2690022
6.2369921
6.7907339
6.7730007
6.7547831
6.7360615
6.7168192
6.6970395
6.6767053
6.6557972
6.6342939
6.6121756
6.5894264
6.5660283
6.5419611
6.5172085
6.4917533
6.4655701
6.4386381
6.41094
6.3824555
6.3531737
6.3230799
6.2921592
6.8246196
6.8065419
6.7879889
6.7689405
6.7493795
6.7292909
6.7086591
6.6874699
6.6657082
6.643358
6.6204025
6.5968257
6.5726101
6.5477349
6.5221825
6.4959324
6.4689671
6.4412716
6.4128353
6.3836471
6.3536885
6.3229377
6.8698117
6.8512781
6.8322847
6.8128121
6.792847
6.7723783
6.7513961
6.7298855
6.7078306
6.6852144
6.6620216
6.6382342
6.6138357
6.5888076
6.5631364
6.5368095
6.5098114
6.4821283
6.4537449
6.4246432
6.3948031
6.9302303
6.9111508
6.8916253
6.8716387
6.8511799
6.8302369
6.808801
6.7868601
6.7644016
6.7414108
6.7178753
6.6937819
6.669119
6.6438785
6.6180443
6.5916043
6.5645388
6.5368262
6.5084449
6.4793733
7.0120693
6.9923028
6.9721116
6.9514812
6.9304051
6.9088713
6.8868745
6.864403
6.8414538
6.8180161
6.7940789
6.7696317
6.7446582
6.719143
6.6930667
6.6664075
6.6391442
6.6112596
6.5827364
7.1255261
7.1048733
7.0838147
7.0623423
7.0404548
7.0181412
6.9954003
6.9722162
6.9485797
6.9244861
6.8999161
6.8748621
6.8493129
6.8232474
6.7966465
6.7694882
6.7417456
7.2912213
7.2693001
7.2469855
7.2242774
7.2011674
7.1776506
7.1537194
7.1293737
7.104602
7.0793993
7.0537563
7.0276625
7.001102
6.9740553
6.946501
6.918422
7.5507607
7.5268777
7.5026112
7.4779647
7.4529324
7.4275129
7.4017153
7.3754938
7.3487319
7.3216242
7.2940032
7.2659767
7.2375202
7.2086235
8.0649411
8.0395267
8.0135442
7.9872271
7.9604668
7.9331622
7.9054368
7.8774994
7.8493075
7.820567
7.7917233
7.7624005
)
;

boundaryField
{
    Side
    {
        type            empty;
    }
    Inlet
    {
        type            turbulentIntensityKineticEnergyInlet;
        intensity       0.03;
        value           nonuniform List<scalar> 
32
(
12.032559
12.032268
12.032233
12.031552
12.031343
12.033527
12.035739
12.03697
12.037371
12.037293
12.036999
12.036676
12.035962
12.035435
12.036428
12.037308
12.036721
12.036349
12.0364
12.035496
12.033365
12.034162
12.034955
12.035432
12.035879
12.036595
12.036802
12.035336
12.032707
12.031885
12.032103
12.031229
)
;
    }
    Airfoil
    {
        type            kqRWallFunction;
        value           nonuniform List<scalar> 0();
    }
    Outlet
    {
        type            inletOutlet;
        inletValue      nonuniform List<scalar> 0();
        value           nonuniform List<scalar> 0();
    }
    procBoundary9to2
    {
        type            processor;
        value           nonuniform List<scalar> 
23
(
6.329293
6.5607273
6.8248312
7.1195101
7.4255965
7.7481579
8.1139654
8.5298794
8.965359
9.3662043
9.7114529
10.042976
10.434588
10.933681
11.482044
12.015496
12.600927
13.317848
14.091656
14.795902
15.494563
16.388877
17.635138
)
;
    }
    procBoundary9to8
    {
        type            processor;
        value           nonuniform List<scalar> 
75
(
6.7732893
6.7732893
6.7795149
6.7708437
6.7708437
6.7813064
6.7813064
6.7917413
6.7917413
6.8041889
6.8020244
6.8020244
6.8180068
6.8180068
6.836038
6.836038
6.8572473
6.8572473
6.874272
6.8996744
6.8996744
6.9300362
6.9300362
6.9666708
6.9666708
7.0111562
7.0111562
7.0658118
7.0658118
7.1334127
7.1334127
7.2181235
7.2181235
7.3253641
7.3253641
7.4644672
7.4644672
7.6499888
7.6499888
7.90869
7.90869
8.2952526
8.8957821
19.159192
18.408507
10.536191
9.3704837
9.2895594
9.2649401
9.138582
8.9614773
8.9614773
8.811644
8.5934457
8.381941
8.1700987
7.9758079
7.7956725
7.7956725
7.655211
7.5155051
7.3787596
7.2411356
7.2411356
7.1288618
7.0222818
6.9369745
6.9369745
6.8880579
6.838908
6.8024335
6.8024335
6.7909248
6.771299
6.771299
)
;
    }
    procBoundary9to10
    {
        type            processor;
        value           nonuniform List<scalar> 
66
(
6.1038734
6.7476057
6.8157667
6.415473
6.2620137
6.3809807
6.5761663
6.7446713
6.8562145
6.9099875
6.9149075
6.9614954
6.9614954
6.8916441
6.8052382
6.7091246
6.6084344
6.5069625
6.4079448
6.3148539
6.2315237
6.1612035
6.1052953
6.0625854
6.0309077
6.00818
6.0358468
6.0358468
6.0241407
6.0156515
6.0097557
6.0055778
6.0028777
6.0415419
6.0415419
6.0414044
6.0424751
6.0828478
6.0828478
6.0872705
6.0940494
6.1392313
6.1392313
6.1523976
6.2040904
6.2040904
6.2603874
6.2603874
6.2913733
6.3642062
6.3642062
6.4495962
6.4495962
6.5535623
6.7134107
6.5535623
6.6844699
6.7134107
6.8898022
7.1792995
6.8898022
7.1495152
7.7327722
7.1792995
7.7026447
7.7327722
)
;
    }
}


// ************************************************************************* //
