/*--------------------------------*- C++ -*----------------------------------*\
| =========                 |                                                 |
| \\      /  F ield         | OpenFOAM: The Open Source CFD Toolbox           |
|  \\    /   O peration     | Version:  2506                                  |
|   \\  /    A nd           | Website:  www.openfoam.com                      |
|    \\/     M anipulation  |                                                 |
\*---------------------------------------------------------------------------*/
FoamFile
{
    version     2.0;
    format      ascii;
    arch        "LSB;label=32;scalar=64";
    class       volScalarField;
    location    "3";
    object      p;
}
// * * * * * * * * * * * * * * * * * * * * * * * * * * * * * * * * * * * * * //

dimensions      [1 -1 -2 0 0 0 0];

internalField   nonuniform List<scalar> 
1376
(
47047.931
47047.939
47047.151
47046.547
47046.084
47045.59
47044.991
47044.302
47043.775
47043.426
47042.828
47047.919
47047.134
47046.537
47046.087
47045.591
47044.989
47044.303
47043.78
47043.419
47042.833
47047.919
47047.129
47046.536
47046.095
47045.598
47044.99
47044.305
47043.788
47043.419
47042.833
47047.907
47047.118
47046.535
47046.102
47045.606
47044.99
47044.31
47043.793
47043.425
47042.832
47047.878
47047.106
47046.533
47046.111
47045.612
47044.989
47044.316
47043.794
47043.43
47042.845
47047.861
47047.101
47046.527
47046.119
47045.616
47044.986
47044.32
47043.792
47043.436
47042.862
47047.85
47047.102
47046.518
47046.127
47045.617
47044.98
47044.322
47043.787
47043.442
47042.883
47047.823
47047.089
47046.533
47046.13
47045.614
47044.973
47044.323
47043.783
47043.449
47042.908
47047.792
47047.048
47046.556
47046.144
47045.609
47044.964
47044.324
47043.774
47043.457
47042.933
47047.756
47047.013
47046.559
47046.172
47045.604
47044.956
47044.326
47043.76
47043.47
47042.956
47047.71
47046.991
47046.563
47046.161
47045.592
47044.946
47044.325
47043.739
47043.49
47042.979
47048.426
47047.658
47046.969
47046.566
47046.163
47045.575
47044.944
47044.322
47043.73
47043.491
47043.003
47048.383
47047.603
47046.946
47046.563
47046.155
47045.557
47044.942
47044.309
47043.742
47043.474
47043.026
47048.334
47047.55
47046.915
47046.55
47046.143
47045.537
47044.954
47044.3
47043.737
47043.467
47043.045
47048.277
47047.496
47046.876
47046.528
47046.127
47045.516
47044.92
47044.321
47043.733
47043.459
47043.059
47048.211
47047.438
47046.825
47046.506
47046.106
47045.49
47044.885
47044.321
47043.746
47043.453
47043.069
47048.134
47047.375
47046.767
47046.484
47046.078
47045.456
47044.871
47044.285
47043.757
47043.453
47043.079
47048.044
47047.304
47046.708
47046.447
47046.039
47045.426
47044.851
47044.253
47043.757
47043.456
47043.09
47047.944
47047.224
47046.646
47046.388
47045.999
47045.392
47044.817
47044.214
47043.755
47043.46
47043.1
47047.832
47047.136
47046.568
47046.317
47045.963
47045.338
47044.759
47044.175
47043.755
47043.465
47043.108
47047.701
47047.022
47046.481
47046.277
47045.895
47045.263
47044.674
47044.124
47043.754
47043.482
47043.123
47047.546
47046.818
47046.466
47046.262
47045.769
47045.18
47044.571
47044.062
47043.744
47043.488
47043.147
47047.289
47046.66
47046.548
47046.181
47045.617
47045.101
47044.453
47043.992
47043.728
47043.49
47043.166
47046.995
47046.623
47046.536
47046.012
47045.492
47045.035
47044.324
47043.918
47043.697
47043.479
47043.176
47046.757
47046.561
47046.37
47045.842
47045.394
47044.964
47044.157
47043.858
47043.658
47043.45
47043.176
47046.851
47046.595
47046.427
47046.144
47045.647
47045.28
47044.821
47043.986
47043.826
47043.605
47043.405
47043.17
47046.588
47046.421
47046.194
47045.781
47045.507
47045.146
47044.538
47043.914
47043.801
47043.53
47043.352
47043.16
47046.345
47046.174
47045.963
47045.415
47045.392
47044.927
47044.099
47043.919
47043.781
47043.411
47043.294
47043.138
47046.08
47045.903
47045.468
47045.343
47045.237
47044.437
47043.667
47043.964
47043.755
47043.346
47043.201
47043.093
47045.687
47045.439
47045.091
47045.24
47044.64
47043.891
47043.86
47043.926
47043.598
47043.287
47043.101
47043.017
47045.133
47044.857
47045.07
47044.702
47043.909
47043.575
47043.973
47043.68
47043.424
47043.154
47043.061
47042.936
47044.712
47044.633
47044.665
47044.591
47044.014
47043.712
47043.534
47043.566
47043.475
47043.242
47043.07
47042.948
47042.854
47044.215
47044.302
47044.294
47043.887
47043.393
47043.235
47043.647
47043.185
47043.235
47043.008
47043.001
47042.91
47042.764
47043.757
47043.812
47043.542
47043.203
47042.998
47043.048
47043.453
47042.974
47042.707
47042.72
47042.867
47042.903
47042.633
47043.031
47043.008
47042.916
47042.738
47042.813
47043.027
47042.965
47042.843
47042.745
47042.362
47042.502
47042.713
47042.667
47042.624
47042.333
47042.358
47042.421
47042.621
47042.387
47042.747
47042.73
47042.306
47042.42
47042.355
47042.481
47042.609
47042.511
47042.409
47041.977
47041.924
47041.947
47042.069
47042.109
47042.168
47042.302
47042.205
47042.382
47042.331
47042.305
47042.287
47042.402
47042.093
47041.094
47041.183
47041.323
47041.525
47041.444
47041.842
47041.93
47042.194
47042.438
47042.508
47042.267
47042.079
47042.053
47042.073
47041.995
47040.599
47040.721
47040.968
47041.241
47041.538
47041.706
47041.865
47042.216
47042.222
47042.112
47042.153
47041.957
47041.75
47041.604
47042.057
47040.38
47040.503
47040.771
47041.126
47041.169
47041.531
47041.771
47041.943
47041.979
47041.908
47041.932
47042.153
47041.948
47041.739
47041.852
47042.074
47040.137
47040.434
47040.64
47040.709
47040.904
47041.085
47041.138
47041.38
47041.566
47041.641
47041.774
47041.841
47041.881
47041.872
47041.899
47041.854
47041.777
47040.117
47040.208
47040.475
47040.746
47040.703
47040.886
47041.069
47041.215
47041.33
47041.542
47041.735
47041.836
47041.911
47042.022
47042.039
47041.79
47041.636
47039.896
47039.944
47040.065
47040.22
47040.371
47040.503
47040.574
47040.763
47040.851
47040.967
47041.261
47041.515
47041.651
47041.748
47041.79
47041.752
47041.67
47041.466
47040.153
47040.233
47040.211
47040.218
47040.322
47040.44
47040.504
47040.519
47040.642
47040.801
47040.852
47040.99
47041.247
47041.46
47041.563
47041.676
47041.633
47041.596
47041.535
47039.99
47039.995
47040.033
47040.052
47040.041
47040.032
47040.104
47040.232
47040.244
47040.281
47040.452
47040.546
47040.645
47040.83
47041.056
47041.249
47041.391
47041.5
47041.542
47041.583
47040.326
47040.352
47040.372
47040.364
47040.353
47040.348
47040.355
47040.362
47040.372
47040.426
47040.483
47040.52
47040.593
47040.692
47040.783
47040.934
47041.114
47041.283
47041.416
47041.517
47041.577
47041.599
47040.107
47040.096
47040.087
47040.103
47040.126
47040.144
47040.152
47040.163
47040.175
47040.188
47040.219
47040.262
47040.31
47040.384
47040.511
47040.638
47040.794
47040.966
47041.119
47041.274
47041.411
47041.442
47041.416
47040.699
47040.701
47040.665
47040.623
47040.585
47040.581
47040.598
47040.615
47040.616
47040.609
47040.551
47040.491
47040.459
47040.447
47040.478
47040.55
47040.666
47040.78
47040.932
47041.113
47041.249
47041.347
47041.396
47041.375
47041.304
47039.691
47039.715
47039.743
47039.781
47039.829
47039.866
47039.875
47039.86
47039.874
47039.893
47039.886
47039.914
47039.948
47039.908
47039.912
47039.944
47039.976
47040.069
47040.196
47040.343
47040.45
47040.548
47040.66
47040.737
47040.785
47040.79
47040.745
47042.888
47042.893
47042.899
47042.904
47042.908
47042.907
47042.902
47042.894
47042.882
47042.869
47042.856
47042.843
47042.831
47042.822
47042.816
47042.815
47042.818
47042.824
47042.837
47042.856
47042.876
47042.892
47042.899
47042.894
47042.873
47042.841
47042.791
47042.747
47042.728
47042.701
47042.64
47042.579
47042.528
47042.404
47042.447
47042.47
47042.336
47042.22
47042.165
47041.939
47041.74
47041.59
47041.382
47041.486
47041.621
47041.598
47041.368
47041.215
47040.681
47042.591
47042.592
47042.592
47042.593
47042.595
47042.597
47042.597
47042.596
47042.593
47042.588
47042.585
47042.579
47042.569
47042.559
47042.55
47042.545
47042.538
47042.528
47042.517
47042.502
47042.485
47042.467
47042.45
47042.437
47042.427
47042.423
47042.411
47042.38
47042.332
47042.309
47042.306
47042.285
47042.36
47042.389
47042.325
47042.355
47042.333
47042.337
47042.21
47042.015
47041.811
47041.564
47041.377
47041.45
47041.607
47041.577
47041.277
47041.098
47040.636
47042.187
47042.181
47042.177
47042.174
47042.172
47042.17
47042.169
47042.167
47042.166
47042.165
47042.167
47042.168
47042.164
47042.158
47042.148
47042.139
47042.123
47042.104
47042.082
47042.057
47042.038
47042.023
47042.012
47042.006
47042.004
47042
47042.002
47042.003
47041.992
47042
47042.058
47042.132
47042.098
47042.065
47042.17
47042.233
47042.302
47042.341
47042.274
47042.175
47041.879
47041.604
47041.422
47041.425
47041.577
47041.559
47041.226
47041.024
47040.633
47041.89
47041.884
47041.878
47041.873
47041.867
47041.86
47041.855
47041.85
47041.842
47041.834
47041.829
47041.83
47041.837
47041.831
47041.808
47041.789
47041.766
47041.747
47041.735
47041.71
47041.675
47041.651
47041.639
47041.626
47041.617
47041.627
47041.65
47041.664
47041.701
47041.747
47041.696
47041.693
47041.76
47041.805
47042.025
47042.23
47042.367
47042.381
47042.261
47042.243
47041.962
47041.674
47041.533
47041.465
47041.567
47041.563
47041.251
47040.942
47040.608
47041.724
47041.707
47041.692
47041.676
47041.661
47041.644
47041.625
47041.605
47041.588
47041.576
47041.561
47041.544
47041.526
47041.523
47041.535
47041.547
47041.557
47041.533
47041.48
47041.424
47041.362
47041.303
47041.251
47041.24
47041.25
47041.276
47041.32
47041.356
47041.342
47041.302
47041.392
47041.542
47041.632
47041.885
47042
47042.091
47042.182
47042.169
47042.135
47042.209
47042.084
47041.938
47041.684
47041.566
47041.6
47041.592
47041.315
47040.896
47040.587
47041.611
47041.596
47041.581
47041.566
47041.55
47041.535
47041.517
47041.499
47041.475
47041.446
47041.414
47041.381
47041.343
47041.305
47041.264
47041.217
47041.166
47041.127
47041.108
47041.106
47041.105
47041.091
47041.075
47041.062
47041.064
47041.068
47041.075
47041.112
47041.159
47041.223
47041.367
47041.447
47041.494
47041.631
47041.751
47041.809
47041.757
47041.816
47042.096
47042.221
47042.223
47042.096
47041.824
47041.782
47041.682
47041.643
47041.39
47040.918
47040.643
47041.439
47041.427
47041.413
47041.399
47041.383
47041.367
47041.349
47041.331
47041.312
47041.291
47041.267
47041.242
47041.217
47041.191
47041.163
47041.123
47041.071
47041.035
47041
47040.964
47040.94
47040.922
47040.911
47040.885
47040.855
47040.847
47040.852
47040.885
47041
47041.048
47041.057
47041.123
47041.167
47041.164
47041.21
47041.302
47041.607
47041.908
47042.037
47042.215
47042.106
47042.068
47042.018
47041.998
47041.824
47041.729
47041.495
47041.004
47040.771
47041.174
47041.169
47041.165
47041.161
47041.157
47041.151
47041.143
47041.127
47041.112
47041.096
47041.075
47041.056
47041.033
47040.999
47040.96
47040.918
47040.893
47040.868
47040.844
47040.818
47040.779
47040.75
47040.734
47040.719
47040.707
47040.691
47040.691
47040.688
47040.685
47040.734
47040.732
47040.698
47040.831
47040.886
47041.006
47041.239
47041.507
47041.805
47041.917
47041.982
47042.006
47042.16
47042.076
47042.078
47041.973
47041.839
47041.648
47041.313
47040.906
47041.005
47040.995
47040.983
47040.97
47040.958
47040.946
47040.935
47040.928
47040.914
47040.893
47040.869
47040.84
47040.807
47040.767
47040.729
47040.7
47040.664
47040.619
47040.583
47040.549
47040.529
47040.518
47040.508
47040.502
47040.508
47040.523
47040.542
47040.572
47040.584
47040.597
47040.607
47040.612
47040.646
47040.784
47040.933
47041.099
47041.301
47041.52
47041.625
47041.75
47041.939
47042.061
47042.017
47042.141
47042.09
47041.932
47041.77
47041.507
47041.015
47040.96
47040.94
47040.92
47040.9
47040.878
47040.856
47040.831
47040.805
47040.78
47040.757
47040.734
47040.706
47040.674
47040.641
47040.606
47040.575
47040.546
47040.516
47040.483
47040.454
47040.431
47040.402
47040.367
47040.333
47040.309
47040.305
47040.321
47040.368
47040.424
47040.478
47040.548
47040.61
47040.621
47040.671
47040.79
47040.925
47041.089
47041.256
47041.371
47041.566
47041.74
47041.871
47041.945
47042.086
47042.121
47041.991
47041.857
47041.533
47041.126
47041.018
47040.995
47040.969
47040.94
47040.91
47040.879
47040.847
47040.814
47040.781
47040.749
47040.719
47040.69
47040.664
47040.637
47040.607
47040.574
47040.535
47040.492
47040.449
47040.412
47040.38
47040.351
47040.319
47040.291
47040.261
47040.231
47040.21
47040.226
47040.245
47040.305
47040.426
47040.514
47040.593
47040.675
47040.74
47040.862
47041.051
47041.126
47041.165
47041.316
47041.48
47041.614
47041.811
47042.002
47042.089
47041.982
47041.848
47041.553
47041.276
47041.031
47041.013
47040.992
47040.97
47040.945
47040.918
47040.888
47040.855
47040.82
47040.785
47040.75
47040.715
47040.681
47040.647
47040.61
47040.573
47040.536
47040.497
47040.455
47040.413
47040.372
47040.34
47040.317
47040.299
47040.296
47040.303
47040.309
47040.293
47040.309
47040.326
47040.337
47040.384
47040.467
47040.605
47040.753
47040.861
47040.927
47040.948
47041.049
47041.189
47041.288
47041.414
47041.659
47041.863
47041.969
47041.913
47041.769
47041.608
47041.348
47040.85
47040.824
47040.792
47040.757
47040.719
47040.683
47040.65
47040.615
47040.578
47040.542
47040.507
47040.472
47040.44
47040.41
47040.382
47040.36
47040.343
47040.336
47040.339
47040.348
47040.351
47040.364
47040.375
47040.387
47040.434
47040.501
47040.583
47040.653
47040.72
47040.805
47040.943
47041.029
47041.024
47041.114
47041.277
47041.468
47041.67
47041.796
47041.808
47041.675
47041.624
47041.297
47040.456
47040.425
47040.394
47040.362
47040.334
47040.314
47040.307
47040.313
47040.321
47040.324
47040.327
47040.358
47040.417
47040.467
47040.549
47040.639
47040.696
47040.762
47040.887
47040.956
47040.956
47041.009
47041.163
47041.291
47041.47
47041.632
47041.657
47041.571
47041.53
47041.135
47040.178
47040.175
47040.21
47040.318
47040.429
47040.533
47040.624
47040.683
47040.721
47040.747
47040.828
47040.877
47040.895
47040.931
47041.066
47041.186
47041.315
47041.481
47041.485
47041.363
47041.307
47041.068
47040.678
47040.696
47040.71
47040.781
47040.807
47040.812
47040.889
47040.99
47041.106
47041.224
47041.344
47041.336
47041.25
47041.286
47040.983
47040.724
47040.775
47040.885
47040.945
47041.068
47041.162
47041.191
47041.226
47041.117
47041.199
47040.83
47041.053
47041.12
47041.101
47041.114
47040.964
47041.052
47040.703
47041.067
47041.018
47040.831
47040.923
47040.662
47040.759
47040.811
47040.62
47040.589
)
;

boundaryField
{
    Side
    {
        type            empty;
    }
    Inlet
    {
        type            totalPressure;
        rho             rho;
        psi             none;
        gamma           1;
        p0              uniform 50000;
        value           nonuniform List<scalar> 
48
(
47040.537
47040.524
47040.504
47040.478
47040.444
47040.388
47040.331
47040.33
47040.358
47040.397
47040.448
47040.523
47040.567
47040.568
47040.577
47040.585
47040.581
47040.563
47040.531
47040.506
47040.501
47040.508
47040.522
47040.542
47040.577
47040.622
47040.662
47040.707
47040.747
47040.757
47040.765
47040.79
47040.827
47040.874
47040.875
47040.855
47040.849
47040.876
47040.87
47040.866
47040.914
47040.937
47040.915
47040.878
47040.853
47040.834
47040.808
47040.78
)
;
    }
    Airfoil
    {
        type            zeroGradient;
    }
    Outlet
    {
        type            fixedValue;
        value           nonuniform List<scalar> 0();
    }
    procBoundary10to2
    {
        type            processor;
        value           uniform 47048.701;
    }
    procBoundary10to3
    {
        type            processor;
        value           nonuniform List<scalar> 
23
(
47042.823
47043.424
47043.766
47044.298
47044.985
47045.581
47046.072
47046.545
47047.147
47047.147
47047.911
47042.884
47042.592
47042.196
47041.9
47041.744
47041.629
47041.458
47041.189
47041.02
47040.979
47041.037
47041.051
)
;
    }
    procBoundary10to9
    {
        type            processor;
        value           nonuniform List<scalar> 
66
(
47048.718
47048.707
47048.706
47048.704
47048.712
47048.678
47048.632
47048.59
47048.549
47048.508
47048.467
47048.467
47049.5
47049.448
47049.388
47049.318
47049.23
47049.118
47048.97
47048.785
47048.57
47048.33
47048.088
47047.829
47047.505
47047.172
47047.172
47047.356
47046.941
47046.524
47046.152
47045.732
47045.31
47045.31
47044.757
47044.206
47043.662
47043.662
47043.087
47042.355
47041.729
47041.729
47041.005
47040.443
47040.443
47040.186
47040.186
47040.05
47040.147
47040.147
47039.857
47039.857
47040.053
47040.053
47039.828
47039.92
47039.92
47040.325
47040.325
47040.105
47040.106
47040.106
47040.768
47040.686
47040.686
47039.664
)
;
    }
    procBoundary10to11
    {
        type            processor;
        value           nonuniform List<scalar> 
58
(
47040.945
47040.937
47040.928
47040.918
47040.905
47040.889
47040.871
47040.871
47040.748
47040.738
47040.726
47040.714
47040.696
47040.669
47040.639
47040.61
47040.584
47040.553
47040.522
47040.489
47040.489
47040.421
47040.384
47040.349
47040.315
47040.281
47040.249
47040.221
47040.195
47040.195
47040.172
47040.23
47040.311
47040.376
47040.473
47040.575
47040.633
47040.633
47040.605
47040.62
47040.642
47040.702
47040.702
47040.67
47040.786
47040.868
47040.943
47040.943
47041.033
47041.113
47041.113
47041.04
47040.968
47040.968
47040.772
47040.711
47040.711
47040.577
)
;
    }
}


// ************************************************************************* //
