/*--------------------------------*- C++ -*----------------------------------*\
| =========                 |                                                 |
| \\      /  F ield         | OpenFOAM: The Open Source CFD Toolbox           |
|  \\    /   O peration     | Version:  2506                                  |
|   \\  /    A nd           | Website:  www.openfoam.com                      |
|    \\/     M anipulation  |                                                 |
\*---------------------------------------------------------------------------*/
FoamFile
{
    version     2.0;
    format      ascii;
    arch        "LSB;label=32;scalar=64";
    class       volScalarField;
    location    "0.009";
    object      Ma;
}
// * * * * * * * * * * * * * * * * * * * * * * * * * * * * * * * * * * * * * //

dimensions      [0 0 0 0 0 0 0];

internalField   nonuniform List<scalar> 
13761
(
0.093276127
0.094919315
0.096535798
0.098130141
0.099706898
0.10127071
0.10282671
0.10438102
0.10594079
0.10751492
0.10911481
0.11075551
0.11245758
0.11425035
0.11617772
0.11830983
0.12076913
0.12379439
0.12791962
0.13452796
0.14743548
0.17267086
0.20469946
0.23288336
0.0017289298
0.005343478
0.0092783985
0.013561695
0.018215266
0.023249313
0.02862632
0.03422334
0.039828622
0.04520489
0.050184976
0.054703404
0.058768188
0.06242518
0.065731821
0.06874359
0.071509446
0.074070558
0.076460368
0.078706769
0.080833527
0.08285976
0.084801027
0.086670491
0.088478805
0.090234938
0.091946482
0.093619866
0.095260826
0.096874522
0.098465741
0.10003919
0.10159961
0.10315224
0.10470323
0.10625982
0.10783095
0.10942808
0.11106633
0.11276635
0.11455765
0.11648439
0.11861728
0.12107987
0.12411338
0.12825796
0.13491542
0.14795038
0.17337981
0.20551008
0.0017409337
0.0053803354
0.0093420382
0.013654155
0.018338563
0.02340511
0.028815066
0.034443207
0.040075185
0.045472424
0.050468247
0.054998538
0.059072499
0.062736775
0.066049292
0.069065807
0.071835449
0.074399511
0.076791525
0.079039457
0.081167125
0.083193703
0.085134795
0.087003598
0.08881081
0.090565438
0.092275113
0.093946303
0.095584791
0.097195786
0.098784127
0.10035458
0.10191194
0.1034615
0.10500948
0.10656319
0.10813163
0.10972631
0.11136244
0.11306079
0.11485103
0.11677762
0.11891181
0.12137827
0.12442069
0.12858527
0.13529208
0.14845221
0.0017523747
0.0054154711
0.0094027399
0.013742354
0.018456147
0.023553618
0.028994898
0.03465255
0.040309684
0.045726504
0.05073687
0.05527799
0.059360204
0.06303095
0.066348618
0.069369237
0.072142122
0.074708676
0.077102514
0.07935167
0.081480013
0.083506762
0.085447561
0.087315643
0.089121737
0.090874887
0.092582757
0.094251855
0.095888004
0.097496458
0.099082109
0.10064977
0.1022043
0.10375106
0.10529632
0.10684745
0.10841352
0.11000612
0.11164053
0.11333763
0.11512727
0.11705421
0.11919027
0.12166117
0.12471301
0.1288981
0.0017623861
0.0054463896
0.0094563752
0.013820604
0.018560948
0.023686616
0.029156653
0.034841503
0.040521865
0.045956749
0.050980562
0.055531733
0.059621694
0.063298602
0.066621265
0.069645968
0.07242218
0.074991394
0.077387293
0.079637956
0.081767295
0.083794562
0.08573543
0.087603166
0.089408528
0.091160587
0.092867043
0.094534442
0.096168649
0.097774964
0.099358327
0.10092361
0.10247573
0.1040201
0.10556308
0.1071121
0.1086763
0.11026734
0.11190058
0.113597
0.11538664
0.11731461
0.11945319
0.0017720318
0.0054762207
0.0095081615
0.013896276
0.018662466
0.02381566
0.029313863
0.03502538
0.040728599
0.046181407
0.051218701
0.055780081
0.059878042
0.063561426
0.066889421
0.069918544
0.072698397
0.075270564
0.077668776
0.07992116
0.082051671
0.084079591
0.086020627
0.087888076
0.089692734
0.091443711
0.093148752
0.094814448
0.096446715
0.098050901
0.099632
0.10119494
0.10274469
0.10428674
0.10582751
0.1073745
0.10893698
0.11052669
0.11215901
0.0017823722
0.0055080607
0.0095632803
0.013976597
0.01876992
0.023951857
0.029479298
0.035218388
0.040945144
0.046416365
0.051467463
0.056039265
0.060145351
0.063835255
0.067168577
0.070202049
0.072985413
0.075560352
0.077960648
0.080214479
0.082345836
0.084374037
0.086314827
0.088181539
0.08998501
0.091734411
0.093437556
0.09510112
0.096731084
0.098332838
0.099911415
0.10147179
0.10301898
0.10455851
0.10609683
0.0017928175
0.0055402403
0.0096190108
0.014057814
0.01887856
0.02408953
0.029646456
0.035413277
0.041163573
0.046653045
0.051717717
0.056299685
0.060413631
0.06410979
0.067448187
0.070485783
0.073272451
0.075849961
0.078252154
0.080507245
0.082639251
0.084667515
0.086607796
0.08847344
0.090275294
0.092022531
0.0036066482
0.011123597
0.019279617
0.028119627
0.037644977
0.04774676
0.058090092
0.068151192
0.077466827
0.085826251
0.093245208
0.099839615
0.10574159
0.11107201
0.1159325
0.12040513
0.12455573
0.12843674
0.13208934
0.13554753
0.13884059
0.14199224
0.14502204
0.14794699
0.15078113
0.15353653
0.1562236
0.1588512
0.16142726
0.16395879
0.16645208
0.16891301
0.17134714
0.17376014
0.17615835
0.17854863
0.18093894
0.18333906
0.18576139
0.18822241
0.19074504
0.19336234
0.19612455
0.19911321
0.20247169
0.20648052
0.21176502
0.22000508
0.23562037
0.0036025265
0.011110934
0.019257751
0.028087875
0.037602743
0.047693831
0.058027037
0.06807932
0.077387582
0.085740719
0.093154056
0.099743222
0.10564017
0.11096567
0.11582134
0.12028921
0.12443511
0.12831152
0.1319596
0.13541342
0.13870228
0.14184992
0.14487593
0.14779734
0.1506282
0.15338061
0.15606497
0.15869016
0.1612641
0.16379379
0.16628549
0.1687451
0.17117814
0.17359027
0.1759878
0.17837761
0.18076765
0.18316771
0.18559023
0.18805175
0.19057526
0.19319398
0.19595838
0.19895043
0.20231426
0.20633199
0.21163268
0.21990728
0.23560243
0.26231783
0.28758271
0.30237867
0.30840764
0.31032764
0.31094006
0.31127113
0.3115475
0.31175839
0.31186749
0.31187854
0.31184862
0.31186102
0.31198814
0.31227806
0.31273619
0.31325675
0.31364912
0.31381995
0.31383897
0.31380365
0.31376845
0.31370596
0.3135411
0.3132734
0.31296634
0.31264163
0.31224483
0.31175301
0.31126537
0.31093064
0.31077555
0.31067947
0.31062353
0.31073213
0.31100639
0.31124284
0.31127101
0.31110373
0.31083822
0.31053544
0.0035986931
0.011099146
0.019237373
0.028058257
0.037563305
0.04764434
0.057967965
0.068011812
0.077312934
0.085659919
0.093067722
0.099651707
0.10554367
0.11086431
0.1157152
0.12017834
0.12431958
0.1281914
0.13183499
0.13528444
0.13856909
0.14171269
0.14473487
0.14765269
0.15048022
0.15322956
0.15591113
0.15853382
0.16110555
0.1636333
0.16612334
0.16858155
0.17101342
0.17342463
0.17582147
0.17821079
0.18060057
0.18300061
0.18542337
0.18788546
0.19040994
0.1930302
0.19579693
0.19879252
0.2021619
0.20618881
0.21150611
0.2198155
0.2355901
0.26241526
0.28772665
0.30250188
0.30849642
0.31039612
0.31100357
0.31134044
0.31162871
0.31185312
0.31197149
0.31198231
0.31194075
0.31193288
0.31203648
0.31230811
0.3127657
0.31330951
0.31373598
0.3139328
0.31396452
0.3139348
0.31390768
0.31385976
0.31370814
0.31344724
0.31314525
0.31283155
0.31244679
0.31195553
0.311451
0.31109538
0.31092983
0.31082864
0.31075761
0.31085183
0.31113077
0.31139074
0.3114423
0.31128895
0.31102976
0.3107309
0.31040949
0.31006695
0.30970802
0.30933114
0.30893749
0.30851934
0.3080782
0.30760884
0.30711787
0.0035951974
0.01108839
0.019218768
0.028031177
0.037527199
0.047598961
0.057913691
0.067949648
0.077244028
0.085585151
0.092987637
0.099566608
0.10545373
0.11076961
0.1156158
0.12007428
0.1242109
0.12807816
0.13171728
0.13516237
0.13844279
0.14158234
0.14460066
0.14751485
0.15033898
0.15308518
0.1557639
0.15838401
0.16095343
0.16347915
0.16596745
0.16842416
0.1708548
0.17326501
0.17566109
0.17804988
0.18043938
0.18283938
0.1852624
0.18772508
0.19025059
0.19287245
0.19564162
0.1986409
0.20201603
0.20605243
0.21138677
0.21973142
0.23558555
0.26252233
0.28788092
0.30263366
0.30859167
0.31046961
0.31107103
0.31141285
0.31171253
0.31195066
0.31207935
0.3120915
0.31203974
0.31201229
0.3120917
0.31234253
0.31279594
0.31336022
0.31382015
0.31404364
0.31408858
0.31406413
0.31404425
0.31401065
0.31387256
0.31361849
0.31332097
0.31301821
0.31264682
0.31215852
0.31163857
0.31126183
0.31108538
0.31097989
0.31089399
0.31097214
0.31125333
0.31153575
0.3116109
0.31147199
0.3112193
0.3109244
0.31060612
0.31026645
0.30991018
0.30953625
0.30914574
0.30873102
0.30829317
0.30782718
0.30733934
0.30682597
0.30629429
0.30573926
0.3051716
0.30459095
0.003592095
0.011078826
0.019202197
0.028007015
0.037494922
0.047558311
0.057864954
0.067893666
0.07718179
0.085517425
0.092914885
0.099489084
0.10537156
0.11068288
0.11552451
0.11997846
0.12411059
0.12797338
0.1316081
0.13504889
0.13832513
0.14146064
0.14447511
0.14738565
0.15020636
0.1529494
0.1556252
0.15824267
0.16080971
0.16333333
0.16581979
0.16827493
0.17070424
0.17311337
0.17550861
0.17789682
0.18028596
0.18268589
0.18510914
0.1875724
0.19009896
0.19272247
0.19549416
0.19849726
0.20187833
0.20592453
0.21127639
0.21965694
0.23559143
0.26264239
0.28804852
0.30277602
0.30869475
0.31054922
0.31114354
0.31148932
0.31179982
0.31205169
0.31219157
0.31220652
0.31214611
0.31210001
0.31215492
0.31238278
0.31282847
0.31341021
0.31390264
0.31415332
0.314212
0.3141925
0.31417895
0.31415928
0.31403493
0.31378768
0.31349393
0.31320178
0.31284485
0.31236181
0.31182803
0.31143004
0.31124222
0.31113322
0.3110329
0.31109352
0.31137447
0.31167813
0.31177691
0.31165291
0.31140691
0.31111599
0.31080078
0.3104639
0.31011019
0.30973907
0.30935159
0.30894021
0.30850557
0.30804295
0.3075582
0.30704818
0.30651947
0.30596722
0.30540124
0.30482142
0.30424589
0.3036801
0.30313087
0.0035894813
0.011070741
0.019188148
0.027986473
0.037467389
0.047523508
0.057823055
0.067845328
0.077127811
0.08545842
0.092851225
0.099420965
0.10529908
0.11060605
0.11544335
0.11989296
0.12402074
0.1278792
0.13150964
0.13494622
0.13821835
0.14134989
0.14436055
0.14726746
0.15008476
0.15282461
0.15549747
0.15811224
0.16067686
0.1631983
0.16568284
0.16813631
0.17056421
0.17297217
0.17536648
0.17775399
0.18014272
0.18254249
0.1849659
0.18742971
0.18995729
0.19258245
0.19535669
0.19836369
0.20175087
0.20580714
0.21117699
0.21959428
0.23561072
0.26277921
0.28823281
0.30293124
0.30880713
0.31063611
0.31122217
0.31157082
0.31189143
0.31215688
0.31230862
0.31232772
0.31226024
0.31219662
0.31222706
0.31243013
0.31286469
0.31346074
0.31398442
0.31426262
0.31433553
0.31432066
0.3143125
0.31430625
0.3141958
0.31395534
0.31366462
0.31338249
0.31304082
0.31256521
0.31201931
0.31160006
0.31140032
0.31128859
0.3111745
0.31121632
0.31149459
0.31181812
0.31194048
0.31183181
0.31159268
0.31130574
0.31099354
0.31065938
0.31030812
0.30993971
0.30955511
0.309147
0.30871549
0.30825619
0.30777451
0.30726786
0.30674217
0.30619281
0.30562863
0.3050498
0.30447361
0.30390659
0.30335543
0.30279687
0.3022239
0.30175205
0.0035873815
0.011064229
0.019176807
0.027969856
0.037445064
0.04749518
0.057788785
0.067805552
0.077083089
0.085409195
0.092797766
0.0993634
0.10523745
0.11054035
0.11537354
0.11981901
0.12394264
0.12779694
0.13142324
0.13485573
0.13812386
0.1412515
0.14425841
0.14716174
0.14997564
0.15271231
0.15538221
0.15799427
0.1605564
0.16307561
0.16555816
0.16800989
0.17043628
0.17284297
0.17523626
0.17762299
0.18001119
0.18241074
0.18483424
0.18729853
0.18982709
0.19245391
0.19523072
0.19824172
0.20163521
0.20570191
0.21109043
0.21954589
0.23564748
0.26293821
0.28843818
0.30310182
0.30893008
0.31073139
0.31130745
0.31165812
0.31198802
0.31226677
0.31243085
0.31245534
0.31238233
0.31230247
0.31230875
0.31248556
0.31290575
0.31351284
0.31406627
0.31437214
0.31445974
0.31444923
0.31444549
0.31445205
0.31435563
0.31412194
0.31383346
0.31356059
0.31323473
0.31276857
0.31221234
0.31177188
0.31155962
0.31144587
0.31131881
0.3113408
0.311614
0.31195594
0.31210171
0.31200873
0.31177665
0.31149373
0.31118447
0.31085297
0.31050405
0.31013824
0.30975641
0.30935147
0.308923
0.30846699
0.30798832
0.30748507
0.30696241
0.30641606
0.30585379
0.3052761
0.30469939
0.30413131
0.30357835
0.30301904
0.30244266
0.30196799
0.30143927
0.30111006
0.30076415
0.003586435
0.011061161
0.019171257
0.027961415
0.037433295
0.047479683
0.057769344
0.067782208
0.077056026
0.085378579
0.092763684
0.099325848
0.10519637
0.11049565
0.11532514
0.11976681
0.12388656
0.12773693
0.13135927
0.13478781
0.13805202
0.14117583
0.14417901
0.14707874
0.14988921
0.15262262
0.15528946
0.15789866
0.16045817
0.16297497
0.16545534
0.16790511
0.17032976
0.17273495
0.17512696
0.17751266
0.17990008
0.18229912
0.18472246
0.18718698
0.18971629
0.19234453
0.19512374
0.1981386
0.20153834
0.20561557
0.21102316
0.21951809
0.23570848
0.26312626
0.2886701
0.30329183
0.30906777
0.31083671
0.31140183
0.31175337
0.31209146
0.3123828
0.31255926
0.31259
0.31251278
0.31241794
0.31240053
0.31254994
0.31295271
0.31356748
0.31414886
0.31448233
0.31458502
0.3145786
0.31457831
0.31459702
0.31451469
0.31428777
0.31400075
0.31373624
0.31342648
0.31297164
0.31240692
0.31194543
0.31172002
0.3116049
0.31146579
0.31146715
0.31173297
0.31209177
0.31226072
0.31218376
0.3119589
0.31168
0.31137362
0.31104472
0.31069805
0.31033476
0.30995557
0.3095537
0.30912817
0.30867541
0.30819969
0.30769985
0.30718025
0.30663701
0.30607675
0.30550034
0.30492323
0.30435426
0.30379963
0.30323977
0.3026602
0.30218287
0.30164773
0.30130558
0.3009546
0.30046862
0.30056507
0.0035855523
0.011058352
0.019166245
0.02795388
0.037422893
0.047466114
0.057752447
0.067762036
0.077032763
0.085352393
0.092734662
0.099293997
0.10516163
0.11045795
0.11528436
0.11972286
0.12383933
0.12768635
0.13130529
0.13473041
0.1379912
0.14111163
0.1441115
0.14700802
0.14981539
0.15254585
0.15520989
0.15781647
0.16037352
0.16288807
0.16536636
0.16781425
0.17023723
0.17264093
0.17503167
0.17741631
0.17980291
0.1822014
0.1846245
0.18708918
0.18961914
0.19224871
0.1950302
0.19804878
0.20145459
0.20554207
0.21096822
0.21950161
0.23577839
0.26331955
0.28890723
0.30348885
0.3092132
0.31095051
0.3115042
0.31185561
0.31220081
0.31250406
0.31269295
0.31273079
0.31265069
0.31254222
0.3125018
0.31262293
0.31300544
0.3136246
0.31423208
0.31459306
0.31471127
0.3147088
0.31471102
0.31474117
0.31467308
0.31445298
0.3141667
0.31390954
0.31361599
0.31317419
0.31260289
0.31212065
0.3118814
0.31176551
0.31161538
0.3115955
0.31185173
0.31222577
0.31241759
0.31235692
0.31213946
0.31186461
0.31156107
0.31123471
0.31089021
0.31052935
0.31015268
0.30975379
0.30933109
0.30888154
0.30840871
0.30791227
0.30739574
0.30685569
0.30629753
0.30572256
0.30514515
0.30457544
0.30401927
0.30345903
0.3028765
0.30239664
0.30185539
0.30150016
0.30114405
0.30064306
0.3007317
0.30014039
0.30052687
0.0035832622
0.011051433
0.019154469
0.027937028
0.037400796
0.04743873
0.057719996
0.067724992
0.076991675
0.085307727
0.092686738
0.099243018
0.10510771
0.11040115
0.1152247
0.11966034
0.12377395
0.12761811
0.13123419
0.13465648
0.1379145
0.14103221
0.14402944
0.14692343
0.14972839
0.15245658
0.1551185
0.1577231
0.16027835
0.16279125
0.16526806
0.16771464
0.17013648
0.17253922
0.17492917
0.17731321
0.17969943
0.18209779
0.18452105
0.18698626
0.18951722
0.19214845
0.19493252
0.19795508
0.20136712
0.20546483
0.21090911
0.21947961
0.23583907
0.2634986
0.28913339
0.30368116
0.30935715
0.31106597
0.31160852
0.31195937
0.31231113
0.31262604
0.3128278
0.31287395
0.31279267
0.31267236
0.31261014
0.3127027
0.3130626
0.31368309
0.31431493
0.31470342
0.31483781
0.31483934
0.31484328
0.31488426
0.3148306
0.31461753
0.31433137
0.31408051
0.31380311
0.31337595
0.31280005
0.31229746
0.31204366
0.31192749
0.31176749
0.31172596
0.31197048
0.31235807
0.31257239
0.31252826
0.31231841
0.31204761
0.31174686
0.31142301
0.31108061
0.3107221
0.31034783
0.30995183
0.30953187
0.30908545
0.30861544
0.30812241
0.30760893
0.30707216
0.30651618
0.30594277
0.30536519
0.30479488
0.30423725
0.30367682
0.30309151
0.30260925
0.30206221
0.3016938
0.3013325
0.30081728
0.30089825
0.30029847
0.30063733
0.30107215
0.0035804314
0.011042869
0.01913988
0.027916136
0.037373385
0.047404769
0.057679777
0.067679124
0.076940849
0.085252513
0.092627545
0.099180128
0.10504132
0.11033139
0.11515168
0.11958413
0.12369463
0.12753576
0.13114891
0.13456835
0.13782363
0.14093875
0.14393352
0.14682521
0.14962805
0.15235428
0.15501442
0.15761744
0.16017128
0.16268295
0.16515871
0.16760441
0.17002553
0.17242772
0.17481728
0.17720112
0.17958733
0.18198591
0.18440966
0.18687571
0.18940797
0.19204112
0.194828
0.19785471
0.20127306
0.20538093
0.21084294
0.21944955
0.23588955
0.26366476
0.28934984
0.30386789
0.30949772
0.31117997
0.31171175
0.31206165
0.31241943
0.31274576
0.3129608
0.31301643
0.31293574
0.31280556
0.31272313
0.31278737
0.3131228
0.31374184
0.31439637
0.3148124
0.31496374
0.31496953
0.31497459
0.31502585
0.31498689
0.3147812
0.31449468
0.31424907
0.31398762
0.31357656
0.31299811
0.31247571
0.31220668
0.31209063
0.31192197
0.31185861
0.31208944
0.3124888
0.3127252
0.31269781
0.31249578
0.31222904
0.31193106
0.31160967
0.31126932
0.3109131
0.31054112
0.31014792
0.30973058
0.30928725
0.30881998
0.30833032
0.30781989
0.30728645
0.30673272
0.30616102
0.30558336
0.30501257
0.30445357
0.30389309
0.30330522
0.30282064
0.30226813
0.3018865
0.30151997
0.30099128
0.30106462
0.3004582
0.30074745
0.30120249
0.30023756
0.30077146
0.00357771
0.011034586
0.019125692
0.02789569
0.037346386
0.047371106
0.057639673
0.067633143
0.076889657
0.085196655
0.092567398
0.099115943
0.10497327
0.1102596
0.11507624
0.11950514
0.12361218
0.12744993
0.13105981
0.13447613
0.13772844
0.14084074
0.14383289
0.14672215
0.14952277
0.152247
0.15490537
0.15750683
0.16005934
0.16256988
0.16504473
0.1674897
0.16991028
0.17231211
0.17470149
0.17708534
0.17947174
0.18187074
0.18429518
0.18676225
0.18929596
0.19193116
0.19472096
0.19775188
0.20117655
0.20529443
0.21077377
0.2194157
0.235935
0.2638245
0.2895619
0.30405195
0.30963702
0.31129361
0.3118148
0.31216317
0.31252623
0.31286346
0.31309183
0.3131578
0.3130792
0.31294098
0.31283999
0.31287634
0.31318574
0.31380061
0.31447603
0.31491951
0.31508858
0.31509899
0.31510465
0.31516566
0.31514167
0.31494379
0.31465656
0.31441519
0.31416933
0.31377566
0.31319672
0.31265521
0.31237028
0.31225465
0.31207865
0.31199344
0.3122088
0.31261811
0.31287611
0.31286559
0.3126716
0.31240893
0.31211371
0.31179474
0.3114564
0.31110242
0.31073263
0.31034215
0.30992732
0.30948702
0.3090224
0.30853609
0.30802866
0.30749861
0.30694721
0.30637734
0.30579969
0.30522853
0.30466822
0.30410782
0.30351758
0.30303075
0.30247311
0.30207826
0.30170649
0.30116507
0.30123074
0.30061952
0.30085744
0.30133076
0.30037697
0.3008957
0.30049257
0.0035751344
0.011026726
0.019112189
0.027876184
0.037320563
0.047338806
0.057601078
0.067588764
0.076840113
0.085142457
0.092508891
0.099053343
0.10490672
0.11018919
0.11500205
0.11942723
0.12353061
0.1273648
0.13097123
0.13438421
0.13763333
0.14074262
0.14373196
0.14661862
0.14941686
0.15213896
0.15479544
0.15739525
0.15994635
0.16245574
0.16492965
0.16737392
0.169794
0.17219553
0.17458482
0.17696877
0.1793555
0.18175504
0.18418029
0.18664851
0.18918381
0.19182117
0.19461398
0.19764917
0.20108015
0.20520798
0.21070446
0.21938124
0.23597924
0.26398269
0.28977364
0.30423583
0.309777
0.31140852
0.3119191
0.31226533
0.31263284
0.3129803
0.31322187
0.31329876
0.31322353
0.31307891
0.31296097
0.31297003
0.31325203
0.31386004
0.31455439
0.31502496
0.31521239
0.31522779
0.31523353
0.31530372
0.31529488
0.31510529
0.31481707
0.31457889
0.31434813
0.31397296
0.31339558
0.31283576
0.31253432
0.3124193
0.31223735
0.31213041
0.31232873
0.31274612
0.31302521
0.31303163
0.31284592
0.31258732
0.31229482
0.31197826
0.31164189
0.31129013
0.31092244
0.31053459
0.31012216
0.30968483
0.30922277
0.30873978
0.3082353
0.30770868
0.30715965
0.30659173
0.30601419
0.30544276
0.30488119
0.30432098
0.30372855
0.30323955
0.30267708
0.30226911
0.30189208
0.30133867
0.30139652
0.30078236
0.30096753
0.30145698
0.30051519
0.3010184
0.30063636
0.29884644
0.0035727536
0.011019441
0.019099646
0.027858027
0.037296478
0.047308608
0.057564892
0.067547042
0.0767934
0.085091216
0.09245343
0.098993854
0.10484332
0.11012195
0.11493102
0.11935244
0.12345213
0.12728268
0.13088555
0.1342951
0.13754092
0.14064708
0.14363346
0.14651738
0.14931311
0.15203294
0.15468739
0.15728544
0.15983503
0.16234316
0.16481606
0.16725956
0.1696791
0.17208033
0.17446952
0.17685359
0.17924067
0.1816408
0.18406693
0.18653637
0.18907332
0.19171292
0.1945088
0.19754831
0.20098563
0.2051234
0.21063699
0.21934846
0.23602484
0.26414263
0.28998769
0.30442128
0.30991905
0.31152569
0.31202554
0.31236908
0.31274023
0.3130972
0.31335169
0.31343994
0.31336917
0.3132197
0.31308647
0.31306901
0.31332248
0.313921
0.31463218
0.3151293
0.3153356
0.31535629
0.3153616
0.31544029
0.31544669
0.31526583
0.31497638
0.31474034
0.31452401
0.31416824
0.31359444
0.31301721
0.3126987
0.31258433
0.31239791
0.31226943
0.31244938
0.31287294
0.31317257
0.31319596
0.31301876
0.31276422
0.31247444
0.31216028
0.31182584
0.31147629
0.31111061
0.31072533
0.3103152
0.30988077
0.30942118
0.30894146
0.30843988
0.30791672
0.3073701
0.30680424
0.30622689
0.30565527
0.30509248
0.30453254
0.30393811
0.30344696
0.30288
0.30245905
0.30207677
0.30151211
0.30156187
0.3009466
0.30107792
0.30158119
0.30065225
0.30113955
0.30077902
0.29898978
0.29909836
0.29825919
0.0035706018
0.011012846
0.019088277
0.027841539
0.037274555
0.047281059
0.057531787
0.067508734
0.076750353
0.085043831
0.092401981
0.098938503
0.10478416
0.11005904
0.11486438
0.1192821
0.12337811
0.12720504
0.13080435
0.13421044
0.13745292
0.14055588
0.14353925
0.14642035
0.14921347
0.15193092
0.15458325
0.15717942
0.1597274
0.16223416
0.16470596
0.16714859
0.16956752
0.17196836
0.1743574
0.17674156
0.17912896
0.18152969
0.1839567
0.18642736
0.18896599
0.19160787
0.19440685
0.19745072
0.20089444
0.20504223
0.21057307
0.21931931
0.23607398
0.26430701
0.29020609
0.30460993
0.3100644
0.31164572
0.31213479
0.31247512
0.31284912
0.31321485
0.31348187
0.31358176
0.31351641
0.31336353
0.31321667
0.31317363
0.31339773
0.31398429
0.31471015
0.31523309
0.31545865
0.31548494
0.31548929
0.31557574
0.31559737
0.31542563
0.31513476
0.31489981
0.31469708
0.31436137
0.31379308
0.31319945
0.31286333
0.31274955
0.31256016
0.31241039
0.31257088
0.3129987
0.31331827
0.3133586
0.31319013
0.31293966
0.31265259
0.31234081
0.31200829
0.31166095
0.3112972
0.31091443
0.3105065
0.31007492
0.30961771
0.30914121
0.30864246
0.30812275
0.30757857
0.30701487
0.30643778
0.30586607
0.30530207
0.30474247
0.30414621
0.30365296
0.30308182
0.3026481
0.30226058
0.3016854
0.30172673
0.30111212
0.30118884
0.30170341
0.3007882
0.30125914
0.30092045
0.29913227
0.29923106
0.29837144
0.29579377
0.0035687164
0.011007064
0.0190783
0.027827055
0.037255256
0.047256741
0.057502454
0.067474625
0.076711834
0.08500122
0.092355502
0.09888829
0.10473028
0.11000153
0.11480325
0.11921737
0.12330978
0.12713315
0.13072895
0.1341316
0.13737076
0.14047052
0.14345085
0.14632909
0.14911956
0.15183458
0.15448471
0.15707892
0.15962519
0.1621305
0.16460109
0.16704277
0.16946098
0.17186135
0.17425017
0.17663434
0.17902201
0.18142327
0.18385113
0.186323
0.1888633
0.19150745
0.19430956
0.19735784
0.20080802
0.20496597
0.21051434
0.21929567
0.23612884
0.26447851
0.29043098
0.30480349
0.31021406
0.31176919
0.31224746
0.31258408
0.31296018
0.31333387
0.31361297
0.31372462
0.3136655
0.31351054
0.31335167
0.31328413
0.3134783
0.31405062
0.31478896
0.31533685
0.31558195
0.31561414
0.31561702
0.31571044
0.31574717
0.31558494
0.3152925
0.31505758
0.31486749
0.31455227
0.31399133
0.31338236
0.31302816
0.31291479
0.31272392
0.31255321
0.31269329
0.31312352
0.31346235
0.31351958
0.31336004
0.31311366
0.31282927
0.31251988
0.31218927
0.31184415
0.31148229
0.31110197
0.31069615
0.31026736
0.30981243
0.3093391
0.30884309
0.30832684
0.3077851
0.30722366
0.3066469
0.30607516
0.30550997
0.30495076
0.30435282
0.3038575
0.30328251
0.30283629
0.30244353
0.30185855
0.301891
0.30127877
0.30130047
0.3018237
0.30092305
0.30137719
0.30106053
0.29927409
0.29936321
0.29848427
0.29590646
0.29596424
0.0035671556
0.011002263
0.019069996
0.027814967
0.03723911
0.047236313
0.057477666
0.067445595
0.076678794
0.084964387
0.092315037
0.098844295
0.1046828
0.10995058
0.11474883
0.11915947
0.1232484
0.1270683
0.13066068
0.13405997
0.13729585
0.14039245
0.14336976
0.14624515
0.14903295
0.1517455
0.15439338
0.15698559
0.15953008
0.16203385
0.16450316
0.16694379
0.1693612
0.17176101
0.17414951
0.17653361
0.17892146
0.18132319
0.18375183
0.18622486
0.18876679
0.1914132
0.19421845
0.19727117
0.20072791
0.2048962
0.21046245
0.21927948
0.23619202
0.26466018
0.29066502
0.30500484
0.31036807
0.31189668
0.31236415
0.31269662
0.31307408
0.31345492
0.31374554
0.31386895
0.3138167
0.31366084
0.31349154
0.31340073
0.31356463
0.31412061
0.31486921
0.31544103
0.31570584
0.31574421
0.31574516
0.31584472
0.31589634
0.31574395
0.31544984
0.31521394
0.31503541
0.31474091
0.31418901
0.31356585
0.31319312
0.31307987
0.31288889
0.31269789
0.31281668
0.31324755
0.31360487
0.31367894
0.3135285
0.31328622
0.3130045
0.31269752
0.31236881
0.31202594
0.3116659
0.31128801
0.3108842
0.31045816
0.31000543
0.30953521
0.30904184
0.30852902
0.30798972
0.30743061
0.30685425
0.30628256
0.30571618
0.30515737
0.30455791
0.30406054
0.30348203
0.30302363
0.30262566
0.30203159
0.30205461
0.30144638
0.30141299
0.30194209
0.30105682
0.30149371
0.30119913
0.2994154
0.29949463
0.29859786
0.2960176
0.29608767
0.29589319
0.003565998
0.010998689
0.019063796
0.027805904
0.037226934
0.047220786
0.057458615
0.067422971
0.07665265
0.084934828
0.092282151
0.098808133
0.10464338
0.10990788
0.11470283
0.11911015
0.12319575
0.12701231
0.13060137
0.13399738
0.13723007
0.14032357
0.14329791
0.14617047
0.14895562
0.1516657
0.15431132
0.15690148
0.15944414
0.16194632
0.16441426
0.16685376
0.16927028
0.17166943
0.17405751
0.17644143
0.17882937
0.18123147
0.1836608
0.18613492
0.18867841
0.19132703
0.19413537
0.19719254
0.20065591
0.20483472
0.21041936
0.21927313
0.23626643
0.26485565
0.2909117
0.30521726
0.31052628
0.3120288
0.31248548
0.3128134
0.31319154
0.31357869
0.31388019
0.31401522
0.31397031
0.31381459
0.31363635
0.31352356
0.31365708
0.31419483
0.31495145
0.31554609
0.31583061
0.31587544
0.315874
0.31597886
0.31604507
0.3159028
0.31560697
0.31536912
0.315201
0.31492724
0.31438596
0.31374981
0.31335815
0.31324467
0.31305477
0.31284441
0.31294107
0.31337092
0.31374588
0.3138367
0.31369552
0.31345738
0.31317828
0.31287372
0.31254691
0.31220634
0.31184809
0.3114726
0.31107073
0.31064739
0.31019677
0.30972959
0.30923878
0.30872933
0.30819246
0.30763574
0.30705985
0.30648826
0.30592071
0.30536231
0.30476145
0.30426206
0.30368034
0.30321015
0.30280699
0.30220451
0.30221751
0.30161479
0.30152658
0.30205865
0.30118955
0.30160874
0.3013361
0.29955636
0.29962515
0.29871236
0.29612715
0.29620949
0.29605085
0.29104289
0.0035653015
0.010996525
0.019060021
0.027800353
0.037219403
0.047211031
0.057446355
0.067407939
0.07663469
0.084913892
0.092258232
0.098781221
0.10461345
0.1098749
0.11466675
0.11907092
0.12315334
0.1269667
0.13055256
0.13394541
0.13717498
0.14026546
0.14323688
0.14610666
0.14888917
0.1515968
0.15424014
0.15682822
0.15936902
0.16186955
0.16433606
0.16677435
0.16918989
0.17158828
0.17397583
0.17635947
0.17874738
0.18114973
0.18357965
0.18605475
0.18859973
0.19125049
0.19406191
0.19712356
0.2005937
0.20478344
0.21038736
0.21927964
0.23635656
0.2650711
0.29118317
0.30543728
0.31068895
0.31216598
0.31261193
0.31293497
0.31331313
0.31370578
0.31401747
0.31416385
0.3141266
0.31397191
0.31378608
0.31365266
0.31375587
0.31427369
0.31503612
0.31565231
0.31595647
0.31600798
0.31600375
0.31611302
0.31619345
0.31606154
0.31576401
0.3155233
0.31536438
0.31511122
0.31458199
0.31393411
0.31352318
0.31340904
0.31322133
0.31299264
0.31306647
0.31349373
0.31388543
0.3139929
0.31386109
0.31362712
0.31335063
0.31304851
0.31272359
0.31238537
0.31202887
0.31165578
0.31125579
0.31083511
0.31038652
0.30992232
0.30943394
0.30892782
0.30839333
0.30783907
0.30726369
0.30669229
0.30612355
0.30556556
0.30496344
0.30446205
0.30387743
0.30339588
0.30298753
0.30237733
0.30237962
0.30178381
0.30164138
0.30217345
0.30132125
0.30172231
0.30147132
0.29969713
0.29975466
0.29882789
0.29623506
0.29632973
0.29620765
0.29122399
0.28386025
0.003565671
0.010997529
0.01906155
0.027802262
0.037221473
0.047212901
0.057447492
0.067407736
0.076632656
0.084909733
0.09225178
0.098772357
0.10460207
0.10986089
0.11465
0.11905134
0.12313083
0.12694121
0.13052405
0.13391387
0.13714043
0.14022795
0.14319648
0.14606347
0.14884333
0.15154844
0.15418943
0.15677532
0.15931412
0.16181285
0.16427775
0.16671463
0.16912896
0.17152636
0.17391314
0.17629624
0.17868385
0.1810862
0.18351643
0.18599223
0.18853841
0.19119106
0.19400532
0.19707126
0.20054811
0.2047489
0.21037267
0.21930481
0.23646796
0.26531336
0.29148268
0.30566497
0.31085848
0.31231051
0.31274553
0.31306317
0.31344049
0.31383758
0.31415847
0.31431562
0.31428604
0.31413296
0.31394069
0.31378793
0.31386109
0.3143575
0.31512354
0.3157599
0.31608343
0.31614183
0.31613443
0.31624727
0.31634145
0.3162201
0.31592092
0.31567657
0.31552562
0.31529274
0.31477687
0.31411858
0.31368811
0.31357286
0.31338833
0.31314245
0.31319292
0.31361611
0.31402358
0.31414756
0.3140252
0.31379547
0.31352152
0.31322188
0.31289885
0.31256304
0.31220828
0.31183758
0.3114394
0.31102137
0.31057474
0.31011346
0.3096274
0.30912453
0.30859237
0.30804059
0.30746579
0.30689463
0.30632472
0.30576713
0.30516386
0.30466048
0.30407327
0.30358083
0.3031673
0.30255005
0.30254087
0.30195325
0.30175754
0.30228655
0.30145194
0.30183449
0.30160464
0.29983785
0.29988305
0.29894451
0.29634127
0.29644844
0.29636352
0.29140475
0.28401414
0.28207444
0.0035656651
0.010997484
0.019061423
0.027801997
0.037220973
0.047211951
0.057445713
0.067404673
0.076627953
0.084903203
0.092243337
0.098761946
0.10458963
0.10984635
0.11463328
0.11903235
0.1231095
0.12691746
0.13049784
0.13388518
0.13710925
0.14019431
0.14316043
0.14602507
0.14880268
0.15150564
0.15414462
0.15672865
0.15926573
0.16176289
0.16422639
0.16666206
0.16907534
0.17147188
0.17385799
0.17624063
0.17862801
0.18103038
0.18346095
0.18593748
0.18848488
0.1911394