/*--------------------------------*- C++ -*----------------------------------*\
| =========                 |                                                 |
| \\      /  F ield         | OpenFOAM: The Open Source CFD Toolbox           |
|  \\    /   O peration     | Version:  2506                                  |
|   \\  /    A nd           | Website:  www.openfoam.com                      |
|    \\/     M anipulation  |                                                 |
\*---------------------------------------------------------------------------*/
FoamFile
{
    version     2.0;
    format      ascii;
    arch        "LSB;label=32;scalar=64";
    class       volScalarField;
    location    "0.009";
    object      p;
}
// * * * * * * * * * * * * * * * * * * * * * * * * * * * * * * * * * * * * * //

dimensions      [1 -1 -2 0 0 0 0];

internalField   nonuniform List<scalar> 
13761
(
46938.815
46938.8
46938.786
46938.771
46938.757
46938.745
46938.733
46938.725
46938.72
46938.722
46938.734
46938.761
46938.806
46938.873
46938.96
46939.059
46939.151
46939.223
46939.356
46939.315
46938.923
46938.328
46936.993
46935.625
46920.169
46920.161
46920.153
46920.145
46920.136
46920.127
46920.116
46920.105
46920.092
46920.078
46920.063
46920.046
46920.027
46920.006
46919.984
46919.959
46919.933
46919.904
46919.873
46919.84
46919.804
46919.765
46919.723
46919.678
46919.63
46919.578
46919.522
46919.463
46919.399
46919.331
46919.259
46919.182
46919.101
46919.017
46918.93
46918.841
46918.752
46918.667
46918.589
46918.524
46918.475
46918.447
46918.438
46918.44
46918.452
46918.479
46918.65
46918.993
46919.453
46920.09
46889.786
46889.776
46889.768
46889.759
46889.749
46889.738
46889.726
46889.713
46889.7
46889.684
46889.667
46889.648
46889.628
46889.605
46889.581
46889.554
46889.525
46889.493
46889.459
46889.423
46889.383
46889.34
46889.294
46889.244
46889.191
46889.135
46889.075
46889.01
46888.943
46888.871
46888.796
46888.718
46888.636
46888.551
46888.463
46888.372
46888.278
46888.183
46888.086
46887.988
46887.893
46887.804
46887.731
46887.676
46887.616
46887.515
46887.325
46887.12
46860.79
46860.783
46860.776
46860.769
46860.761
46860.752
46860.743
46860.733
46860.721
46860.709
46860.695
46860.68
46860.664
46860.645
46860.625
46860.603
46860.579
46860.552
46860.522
46860.489
46860.453
46860.413
46860.368
46860.319
46860.264
46860.203
46860.135
46860.058
46859.973
46859.878
46859.771
46859.65
46859.515
46859.361
46859.188
46858.991
46858.768
46858.514
46858.224
46857.895
46857.52
46857.092
46856.605
46856.065
46855.443
46855.077
46843.727
46843.726
46843.725
46843.724
46843.722
46843.721
46843.719
46843.717
46843.715
46843.713
46843.71
46843.708
46843.705
46843.702
46843.698
46843.694
46843.689
46843.684
46843.678
46843.67
46843.662
46843.652
46843.64
46843.627
46843.612
46843.595
46843.576
46843.555
46843.531
46843.504
46843.473
46843.439
46843.4
46843.356
46843.303
46843.241
46843.165
46843.073
46842.958
46842.818
46842.647
46842.442
46842.202
46854.201
46854.206
46854.211
46854.217
46854.223
46854.229
46854.236
46854.244
46854.253
46854.264
46854.275
46854.288
46854.303
46854.319
46854.336
46854.356
46854.377
46854.4
46854.425
46854.452
46854.481
46854.512
46854.546
46854.582
46854.62
46854.661
46854.704
46854.75
46854.797
46854.847
46854.898
46854.949
46855.001
46855.053
46855.102
46855.148
46855.189
46855.221
46855.24
46876.314
46876.321
46876.326
46876.332
46876.339
46876.346
46876.354
46876.363
46876.373
46876.384
46876.396
46876.41
46876.426
46876.443
46876.463
46876.484
46876.507
46876.532
46876.56
46876.59
46876.622
46876.658
46876.696
46876.738
46876.783
46876.832
46876.884
46876.941
46877.001
46877.066
46877.136
46877.21
46877.289
46877.373
46877.462
46892.313
46892.316
46892.319
46892.321
46892.324
46892.328
46892.332
46892.336
46892.34
46892.346
46892.351
46892.358
46892.365
46892.374
46892.383
46892.393
46892.405
46892.418
46892.432
46892.449
46892.467
46892.487
46892.511
46892.537
46892.567
46892.601
46865.295
46865.295
46865.294
46865.294
46865.294
46865.293
46865.293
46865.293
46865.293
46865.293
46865.293
46865.293
46865.294
46865.295
46865.296
46865.297
46865.299
46865.3
46865.303
46865.305
46865.308
46865.311
46865.315
46865.319
46865.324
46865.33
46865.336
46865.343
46865.35
46865.359
46865.369
46865.379
46865.392
46865.405
46865.42
46865.437
46865.456
46865.476
46865.499
46865.524
46865.552
46865.584
46865.619
46865.658
46865.702
46865.753
46865.811
46865.884
46865.973
46867.779
46867.779
46867.778
46867.778
46867.778
46867.777
46867.777
46867.777
46867.777
46867.777
46867.777
46867.777
46867.778
46867.778
46867.779
46867.781
46867.782
46867.784
46867.786
46867.788
46867.791
46867.794
46867.798
46867.802
46867.807
46867.812
46867.818
46867.824
46867.832
46867.84
46867.85
46867.86
46867.872
46867.885
46867.9
46867.916
46867.934
46867.954
46867.977
46868.001
46868.029
46868.059
46868.094
46868.132
46868.175
46868.225
46868.282
46868.353
46868.443
46868.574
46868.749
46868.963
46869.205
46869.474
46869.773
46870.099
46870.459
46870.856
46871.291
46871.758
46872.272
46872.839
46873.455
46874.142
46874.877
46875.691
46876.582
46877.564
46878.66
46879.879
46881.214
46882.683
46884.294
46886.065
46888.002
46890.171
46892.537
46895.162
46898.014
46901.173
46904.623
46908.483
46912.597
46917.157
46921.993
46927.278
46932.867
46938.823
46944.934
46951.25
46870.218
46870.218
46870.218
46870.217
46870.217
46870.217
46870.216
46870.216
46870.216
46870.216
46870.216
46870.217
46870.217
46870.218
46870.219
46870.22
46870.221
46870.223
46870.225
46870.227
46870.23
46870.233
46870.237
46870.241
46870.246
46870.251
46870.257
46870.263
46870.271
46870.279
46870.288
46870.298
46870.31
46870.323
46870.337
46870.353
46870.371
46870.39
46870.412
46870.435
46870.462
46870.491
46870.524
46870.561
46870.603
46870.651
46870.708
46870.78
46870.865
46870.999
46871.177
46871.386
46871.633
46871.898
46872.194
46872.514
46872.868
46873.263
46873.695
46874.165
46874.686
46875.255
46875.873
46876.536
46877.255
46878.037
46878.9
46879.889
46881.006
46882.224
46883.564
46885.03
46886.642
46888.417
46890.371
46892.549
46894.923
46897.556
46900.419
46903.588
46907.045
46910.894
46915.021
46919.613
46924.447
46929.757
46935.352
46941.322
46947.45
46953.765
46959.905
46965.859
46971.057
46975.569
46978.69
46980.615
46981.03
46980.495
46979.465
46872.553
46872.552
46872.552
46872.552
46872.551
46872.551
46872.551
46872.551
46872.551
46872.551
46872.551
46872.551
46872.552
46872.552
46872.553
46872.555
46872.556
46872.558
46872.56
46872.562
46872.565
46872.568
46872.571
46872.576
46872.58
46872.585
46872.591
46872.598
46872.605
46872.613
46872.622
46872.633
46872.645
46872.657
46872.672
46872.688
46872.706
46872.725
46872.747
46872.771
46872.797
46872.827
46872.86
46872.897
46872.938
46872.986
46873.044
46873.107
46873.207
46873.316
46873.471
46873.695
46873.935
46874.204
46874.503
46874.825
46875.178
46875.567
46875.996
46876.46
46876.979
46877.544
46878.159
46878.831
46879.572
46880.376
46881.262
46882.235
46883.331
46884.546
46885.895
46887.371
46888.997
46890.783
46892.752
46894.939
46897.331
46899.978
46902.852
46906.033
46909.51
46913.378
46917.525
46922.126
46926.981
46932.286
46937.884
46943.856
46950.001
46956.341
46962.516
46968.491
46973.691
46978.158
46981.187
46982.97
46983.079
46982.202
46980.495
46979.35
46980.018
46984.323
46993.637
47008.071
46874.625
46874.625
46874.625
46874.624
46874.624
46874.624
46874.624
46874.623
46874.623
46874.624
46874.624
46874.624
46874.625
46874.626
46874.627
46874.628
46874.629
46874.631
46874.633
46874.636
46874.638
46874.642
46874.645
46874.649
46874.654
46874.659
46874.665
46874.672
46874.679
46874.688
46874.697
46874.708
46874.72
46874.733
46874.748
46874.764
46874.782
46874.802
46874.824
46874.849
46874.877
46874.908
46874.942
46874.981
46875.024
46875.074
46875.134
46875.206
46875.288
46875.371
46875.538
46875.759
46875.994
46876.267
46876.56
46876.886
46877.236
46877.636
46878.069
46878.547
46879.075
46879.648
46880.274
46880.948
46881.688
46882.477
46883.366
46884.339
46885.477
46886.705
46888.069
46889.559
46891.198
46893.004
46894.997
46897.208
46899.621
46902.294
46905.198
46908.412
46911.922
46915.809
46920.012
46924.621
46929.482
46934.82
46940.441
46946.426
46952.591
46958.947
46965.16
46971.149
46976.377
46980.845
46983.861
46985.583
46985.562
46984.378
46982.217
46980.388
46980.273
46983.743
46992.111
47005.645
47022.448
47037.598
47049.17
46876.339
46876.339
46876.339
46876.339
46876.339
46876.338
46876.338
46876.338
46876.338
46876.339
46876.339
46876.339
46876.34
46876.341
46876.342
46876.343
46876.345
46876.347
46876.349
46876.352
46876.354
46876.358
46876.362
46876.366
46876.371
46876.376
46876.383
46876.389
46876.397
46876.406
46876.416
46876.427
46876.439
46876.453
46876.468
46876.486
46876.505
46876.526
46876.549
46876.575
46876.604
46876.636
46876.672
46876.713
46876.758
46876.81
46876.87
46876.949
46877.033
46877.13
46877.311
46877.527
46877.767
46878.045
46878.339
46878.671
46879.03
46879.427
46879.86
46880.339
46880.866
46881.442
46882.073
46882.767
46883.524
46884.348
46885.253
46886.259
46887.377
46888.628
46890.01
46891.528
46893.195
46895.031
46897.055
46899.301
46901.756
46904.469
46907.421
46910.684
46914.246
46918.17
46922.421
46927.067
46931.982
46937.349
46942.996
46949
46955.184
46961.559
46967.805
46973.832
46979.122
46983.627
46986.649
46988.35
46988.229
46986.877
46984.381
46982.148
46981.274
46983.875
46991.353
47003.992
47019.99
47034.694
47046.395
47055.779
47065.905
47062.972
46877.587
46877.587
46877.587
46877.586
46877.586
46877.586
46877.586
46877.586
46877.587
46877.587
46877.587
46877.588
46877.589
46877.59
46877.591
46877.592
46877.594
46877.596
46877.598
46877.601
46877.604
46877.608
46877.612
46877.616
46877.621
46877.627
46877.633
46877.64
46877.648
46877.657
46877.667
46877.678
46877.691
46877.705
46877.721
46877.738
46877.757
46877.779
46877.803
46877.83
46877.86
46877.893
46877.931
46877.973
46878.021
46878.076
46878.138
46878.218
46878.313
46878.444
46878.618
46878.827
46879.081
46879.356
46879.659
46879.995
46880.363
46880.767
46881.213
46881.706
46882.247
46882.841
46883.486
46884.191
46884.958
46885.788
46886.694
46887.703
46888.866
46890.148
46891.558
46893.108
46894.803
46896.679
46898.745
46901.038
46903.542
46906.31
46909.323
46912.652
46916.289
46920.29
46924.63
46929.364
46934.357
46939.777
46945.482
46951.54
46957.781
46964.195
46970.49
46976.565
46981.909
46986.435
46989.476
46991.175
46991.021
46989.598
46986.89
46984.298
46982.896
46984.729
46991.374
47003.141
47018.057
47032.05
47043.532
47053.068
47064.873
47062.911
47055.273
47051.17
47060.22
46878.169
46878.169
46878.169
46878.169
46878.169
46878.169
46878.169
46878.169
46878.17
46878.17
46878.171
46878.172
46878.173
46878.174
46878.175
46878.177
46878.179
46878.182
46878.185
46878.188
46878.191
46878.195
46878.2
46878.205
46878.211
46878.218
46878.225
46878.233
46878.242
46878.253
46878.264
46878.277
46878.291
46878.307
46878.325
46878.345
46878.367
46878.391
46878.418
46878.448
46878.481
46878.519
46878.56
46878.607
46878.66
46878.721
46878.791
46878.878
46878.979
46879.122
46879.308
46879.533
46879.796
46880.082
46880.401
46880.747
46881.13
46881.543
46882.001
46882.501
46883.054
46883.661
46884.321
46885.048
46885.839
46886.706
46887.651
46888.705
46889.867
46891.176
46892.618
46894.208
46895.944
46897.866
46899.977
46902.322
46904.885
46907.72
46910.808
46914.219
46917.947
46922.041
46926.491
46931.321
46936.431
46941.96
46947.778
46953.931
46960.269
46966.761
46973.142
46979.282
46984.698
46989.27
46992.359
46994.061
46993.879
46992.376
46989.55
46986.749
46984.972
46986.308
46992.062
47002.969
47016.812
47029.86
47040.796
47050.134
47063.342
47062.831
47054.722
47049.942
47060.346
47124.817
47050.418
46877.966
46877.966
46877.966
46877.966
46877.966
46877.967
46877.967
46877.967
46877.968
46877.969
46877.97
46877.971
46877.972
46877.974
46877.976
46877.978
46877.98
46877.983
46877.987
46877.99
46877.995
46877.999
46878.005
46878.011
46878.018
46878.025
46878.034
46878.043
46878.054
46878.066
46878.079
46878.094
46878.11
46878.128
46878.148
46878.171
46878.196
46878.223
46878.254
46878.288
46878.325
46878.368
46878.414
46878.467
46878.526
46878.593
46878.67
46878.763
46878.873
46879.027
46879.24
46879.481
46879.761
46880.059
46880.39
46880.75
46881.144
46881.574
46882.048
46882.569
46883.141
46883.771
46884.454
46885.202
46886.012
46886.896
46887.85
46888.915
46890.125
46891.479
46892.962
46894.6
46896.386
46898.369
46900.546
46902.962
46905.599
46908.509
46911.687
46915.196
46919.035
46923.243
46927.819
46932.79
46938.045
46943.713
46949.679
46955.982
46962.481
46969.124
46975.647
46981.912
46987.46
46992.133
46995.275
46996.988
46996.761
46995.231
46992.326
46989.406
46987.338
46988.311
46993.559
47003.461
47016.248
47028.224
47038.337
47047.141
47061.401
47062.671
47054.466
47048.774
47060.373
47126.789
47049.613
47107.176
47083.894
46877.202
46877.202
46877.202
46877.202
46877.202
46877.203
46877.203
46877.204
46877.204
46877.205
46877.206
46877.207
46877.209
46877.211
46877.213
46877.215
46877.218
46877.221
46877.225
46877.229
46877.234
46877.239
46877.245
46877.252
46877.259
46877.267
46877.276
46877.286
46877.298
46877.31
46877.325
46877.34
46877.358
46877.377
46877.399
46877.422
46877.449
46877.478
46877.51
46877.547
46877.587
46877.632
46877.682
46877.737
46877.8
46877.872
46877.954
46878.052
46878.17
46878.336
46878.553
46878.808
46879.09
46879.402
46879.747
46880.124
46880.535
46880.977
46881.464
46881.996
46882.582
46883.224
46883.923
46884.69
46885.524
46886.436
46887.43
46888.531
46889.743
46891.11
46892.622
46894.296
46896.119
46898.147
46900.373
46902.85
46905.56
46908.559
46911.836
46915.451
46919.409
46923.753
46928.48
46933.608
46939.035
46944.885
46951.061
46957.553
46964.246
46971.079
46977.817
46984.28
46990.037
46994.875
46998.166
46999.969
46999.745
46998.155
46995.151
46992.126
46989.935
46990.711
46995.475
47004.674
47016.335
47027.303
47036.375
47044.271
47059.066
47062.3
47054.54
47047.707
47060.301
47128.839
47048.967
47103.399
47086.686
46976.657
46875.962
46875.963
46875.963
46875.963
46875.963
46875.964
46875.964
46875.965
46875.966
46875.967
46875.968
46875.969
46875.971
46875.973
46875.975
46875.978
46875.981
46875.984
46875.988
46875.992
46875.997
46876.003
46876.009
46876.015
46876.023
46876.032
46876.041
46876.052
46876.063
46876.076
46876.091
46876.107
46876.125
46876.145
46876.167
46876.192
46876.219
46876.249
46876.283
46876.32
46876.362
46876.408
46876.459
46876.517
46876.581
46876.654
46876.739
46876.837
46876.958
46877.12
46877.333
46877.589
46877.868
46878.184
46878.527
46878.906
46879.318
46879.772
46880.271
46880.821
46881.425
46882.086
46882.806
46883.594
46884.446
46885.382
46886.382
46887.497
46888.739
46890.152
46891.687
46893.397
46895.256
46897.326
46899.6
46902.127
46904.889
46907.933
46911.266
46914.949
46918.996
46923.448
46928.323
46933.627
46939.271
46945.331
46951.74
46958.45
46965.385
46972.464
46979.457
46986.17
46992.208
46997.312
47000.87
47002.846
47002.717
47001.111
46998.057
46994.973
46992.687
46993.294
46997.762
47006.385
47017.134
47027.081
47035.012
47041.663
47056.467
47061.656
47054.927
47046.811
47060.135
47130.962
47048.501
47099.606
47089.162
46978.426
47148.99
46957.636
46874.274
46874.275
46874.275
46874.275
46874.276
46874.276
46874.277
46874.277
46874.278
46874.279
46874.28
46874.282
46874.284
46874.286
46874.288
46874.291
46874.294
46874.298
46874.302
46874.306
46874.311
46874.317
46874.323
46874.33
46874.338
46874.347
46874.357
46874.367
46874.379
46874.393
46874.408
46874.424
46874.442
46874.463
46874.485
46874.51
46874.538
46874.568
46874.602
46874.639
46874.681
46874.728
46874.779
46874.837
46874.902
46874.976
46875.062
46875.161
46875.284
46875.445
46875.655
46875.91
46876.19
46876.515
46876.856
46877.238
46877.651
46878.107
46878.605
46879.156
46879.76
46880.425
46881.151
46881.949
46882.817
46883.774
46884.807
46885.958
46887.219
46888.645
46890.213
46891.957
46893.851
46895.959
46898.272
46900.842
46903.656
46906.766
46910.171
46913.937
46918.075
46922.624
46927.601
46933.006
46938.798
46945.043
46951.653
46958.639
46965.86
46973.223
46980.504
46987.499
46993.854
46999.265
47003.155
47005.426
47005.548
47004.078
47001.027
46997.886
46995.516
46996.016
47000.292
47008.49
47018.558
47027.501
47034.414
47039.476
47053.697
47060.645
47055.424
47046.129
47059.899
47133.163
47048.238
47095.823
47091.268
46980.121
47148.385
46957.714
46950.127
46872.132
46872.133
46872.133
46872.133
46872.134
46872.134
46872.135
46872.136
46872.137
46872.138
46872.139
46872.141
46872.143
46872.145
46872.147
46872.15
46872.153
46872.157
46872.161
46872.166
46872.171
46872.177
46872.184
46872.191
46872.199
46872.208
46872.218
46872.229
46872.241
46872.255
46872.27
46872.287
46872.305
46872.326
46872.349
46872.374
46872.402
46872.433
46872.467
46872.505
46872.547
46872.593
46872.646
46872.704
46872.77
46872.844
46872.93
46873.03
46873.153
46873.314
46873.529
46873.78
46874.065
46874.378
46874.721
46875.1
46875.51
46875.964
46876.464
46877.015
46877.623
46878.295
46879.024
46879.826
46880.692
46881.652
46882.673
46883.825
46885.09
46886.551
46888.133
46889.901
46891.824
46893.965
46896.325
46898.943
46901.816
46904.984
46908.457
46912.296
46916.522
46921.167
46926.26
46931.823
46937.744
46944.154
46950.952
46958.139
46965.604
46973.274
46980.893
46988.197
46994.878
47000.602
47004.862
47007.495
47007.984
47006.789
47003.92
47000.853
46998.471
46998.828
47002.903
47010.923
47020.559
47028.753
47034.482
47037.764
47050.902
47059.24
47055.984
47045.697
47059.607
47135.388
47048.161
47092.046
47092.968
46981.696
47147.826
46958.066
46947.834
47273.127
46869.563
46869.563
46869.564
46869.564
46869.565
46869.565
46869.566
46869.567
46869.568
46869.569
46869.57
46869.572
46869.574
46869.576
46869.579
46869.582
46869.585
46869.589
46869.593
46869.598
46869.603
46869.609
46869.616
46869.623
46869.631
46869.64
46869.65
46869.661
46869.674
46869.688
46869.703
46869.72
46869.739
46869.759
46869.782
46869.808
46869.836
46869.867
46869.901
46869.939
46869.982
46870.029
46870.081
46870.14
46870.206
46870.281
46870.367
46870.466
46870.585
46870.75
46870.966
46871.213
46871.503
46871.815
46872.159
46872.538
46872.95
46873.403
46873.898
46874.445
46875.047
46875.712
46876.438
46877.24
46878.113
46879.076
46880.124
46881.289
46882.569
46884.004
46885.598
46887.367
46889.303
46891.457
46893.835
46896.479
46899.391
46902.611
46906.148
46910.063
46914.38
46919.13
46924.338
46929.97
46936.101
46942.703
46949.701
46957.107
46964.801
46972.694
46980.579
46988.214
46995.26
47001.311
47005.938
47008.932
47009.851
47009.084
47006.609
47003.772
47001.434
47001.702
47005.671
47013.59
47022.946
47030.628
47035.105
47036.636
47048.284
47057.436
47056.469
47045.45
47059.258
47137.58
47048.252
47088.279
47094.246
46983.111
47147.31
46958.695
46945.669
47270.442
47075.937
47103.797
46866.7
46866.701
46866.701
46866.702
46866.702
46866.703
46866.704
46866.705
46866.706
46866.707
46866.708
46866.71
46866.711
46866.714
46866.716
46866.719
46866.723
46866.727
46866.731
46866.736
46866.741
46866.747
46866.753
46866.761
46866.769
46866.778
46866.788
46866.799
46866.812
46866.825
46866.841
46866.857
46866.876
46866.897
46866.92
46866.945
46866.973
46867.004
46867.038
46867.076
46867.118
46867.165
46867.217
46867.276
46867.341
46867.416
46867.504
46867.597
46867.704
46867.879
46868.093
46868.342
46868.624
46868.933
46869.274
46869.646
46870.053
46870.499
46870.992
46871.537
46872.136
46872.801
46873.525
46874.324
46875.186
46876.145
46877.172
46878.314
46879.574
46881.033
46882.62
46884.393
46886.331
46888.489
46890.881
46893.541
46896.476
46899.72
46903.293
46907.255
46911.636
46916.464
46921.795
46927.627
46933.855
46940.624
46947.824
46955.455
46963.398
46971.557
46979.725
46987.622
46994.951
47001.318
47006.329
47009.7
47011.066
47010.78
47008.82
47006.41
47004.322
47004.644
47008.5
47016.39
47025.744
47033.127
47036.422
47036.067
47045.943
47055.348
47056.719
47045.423
47058.886
47139.668
47048.44
47084.517
47095.114
46984.343
47146.838
46959.557
46943.608
47267.349
47072.761
47097.207
47630.692
46863.72
46863.721
46863.721
46863.721
46863.722
46863.723
46863.723
46863.724
46863.725
46863.727
46863.728
46863.73
46863.732
46863.733
46863.736
46863.738
46863.742
46863.746
46863.75
46863.754
46863.76
46863.765
46863.772
46863.779
46863.787
46863.796
46863.806
46863.817
46863.829
46863.842
46863.857
46863.874
46863.892
46863.912
46863.934
46863.959
46863.986
46864.016
46864.049
46864.086
46864.127
46864.173
46864.224
46864.281
46864.345
46864.418
46864.504
46864.598
46864.706
46864.879
46865.087
46865.329
46865.607
46865.913
46866.25
46866.619
46867.023
46867.463
46867.949
46868.481
46869.07
46869.72
46870.431
46871.217
46872.074
46873.021
46874.06
46875.203
46876.477
46877.891
46879.473
46881.23
46883.162
46885.313
46887.701
46890.356
46893.288
46896.537
46900.125
46904.107
46908.525
46913.397
46918.776
46924.672
46931.017
46937.933
46945.327
46953.181
46961.384
46969.803
46978.246
46986.419
46994.049
47000.694
47006.021
47009.761
47011.59
47011.789
47010.424
47008.595
47006.959
47007.496
47011.426
47019.417
47028.822
47036.032
47038.322
47036.173
47044.032
47053.089
47056.636
47045.529
47058.512
47141.612
47048.717
47080.791
47095.608
46985.398
47146.409
46960.552
46941.648
47263.86
47069.677
47090.556
47627.78
47596.883
46860.765
46860.765
46860.766
46860.766
46860.767
46860.767
46860.768
46860.769
46860.77
46860.771
46860.773
46860.774
46860.776
46860.779
46860.781
46860.783
46860.785
46860.789
46860.793
46860.798
46860.803
46860.808
46860.815
46860.822
46860.829
46860.838
46860.848
46860.858
46860.87
46860.883
46860.898
46860.914
46860.932
46860.952
46860.974
46860.998
46861.025
46861.054
46861.086
46861.122
46861.162
46861.206
46861.256
46861.311
46861.374
46861.445
46861.527
46861.623
46861.732
46861.898
46862.101
46862.334
46862.607
46862.903
46863.231
46863.589
46863.983
46864.415
46864.891
46865.417
46865.998
46866.641
46867.344
46868.119
46868.96
46869.896
46870.9
46872.013
46873.246
46874.672
46876.234
46877.98
46879.898
46882.033
46884.412
46887.057
46889.984
46893.223
46896.803
46900.783
46905.207
46910.093
46915.512
46921.442
46927.882
46934.887
46942.372
46950.358
46958.758
46967.401
46976.117
46984.58
46992.519
46999.473
47005.148
47009.203
47011.405
47012.074
47011.285
47010.081
47009.096
47010.143
47014.385
47022.53
47032.101
47039.359
47040.784
47036.749
47042.486
47050.803
47056.23
47045.806
47058.211
47143.405
47049.074
47077.138
47095.753
46986.308
47146.031
46961.618
46939.798
47260.016
47066.656
47083.837
47625.078
47596.499
47247.059
46858.057
46858.057
46858.058
46858.058
46858.059
46858.059
46858.06
46858.061
46858.062
46858.063
46858.064
46858.066
46858.067
46858.069
46858.072
46858.074
46858.077
46858.079
46858.082
46858.087
46858.091
46858.097
46858.102
46858.109
46858.116
46858.124
46858.133
46858.143
46858.154
46858.166
46858.18
46858.195
46858.211
46858.23
46858.25
46858.273
46858.298
46858.326
46858.357
46858.391
46858.429
46858.472
46858.52
46858.573
46858.633
46858.702
46858.78
46858.874
46858.981
46859.143
46859.338
46859.567
46859.831
46860.12
46860.441
46860.792
46861.177
46861.599
46862.062
46862.573
46863.136
46863.76
46864.445
46865.201
46866.029
46866.946
46867.955
46869.063
46870.31
46871.681
46873.228
46874.946
46876.844
46878.956
46881.312
46883.927
46886.827
46890.04
46893.603
46897.562
46901.971
46906.846
46912.258
46918.184
46924.625
46931.66
46939.212
46947.294
46955.811
46964.589
46973.488
46982.163
46990.367
46997.61
47003.633
47008.047
47010.652
47011.663
47011.337
47010.764
47010.572
47012.352
47017.185
47025.791
47035.633
47042.97
47043.615
47037.853
47041.348
47048.653
47055.497
47046.181
47057.982
47145.021
47049.544
47073.615
47095.594
46987.119
47145.721
46962.731
46938.064
47255.858
47063.635
47076.982
47622.565
47596.083
47239.593
47714.484
46855.717
46855.717
46855.718
46855.718
46855.719
46855.719
46855.72
46855.72
46855.721
46855.722
46855.723
46855.725
46855.726
46855.728
46855.73
46855.733
46855.735
46855.739
46855.742
46855.744
46855.748
46855.753
46855.759
46855.765
46855.771
46855.779
46855.787
46855.797
46855.807
46855.818
46855.831
46855.845
46855.861
46855.878
46855.898
46855.919
46855.943
46855.969
46855.998
46856.031
46856.067
46856.108
46856.154
46856.205
46856.263
46856.328
46856.403
46856.494
46856.599
46856.748
46856.934
46857.156
46857.41
46857.69
46858
46858.339
46858.713
46859.122
46859.574
46860.075
46860.63
46861.244
46861.92
46862.664
46863.473
46864.373
46865.344
46866.422
46867.603
46868.978
46870.495
46872.189
46874.062
46876.141
46878.469
46881.054
46883.927
46887.105
46890.628
46894.543
46898.912
46903.745
46909.122
46915.015
46921.442
46928.451
46936.001
46944.088
46952.655
46961.508
46970.53
46979.328
46987.701
46995.145
47001.448
47006.189
47009.217
47010.666
47010.787
47010.65
47011.217
47013.912
47019.722
47029.031
47039.27
47046.821
47046.834
47039.444
47040.554
47046.652
47054.528
47046.675
47057.884
47146.455
47050.105
47070.248
47095.214
46987.876
47145.506
46963.904
46936.462
47251.434
47060.562
47069.937
47620.25
47595.629
47232.282
47700.993
49018.616
46853.781
46853.782
46853.782
46853.782
46853.783
46853.783
46853.783
46853.784
46853.785
46853.786
46853.787
46853.788
46853.789
46853.791
46853.793
46853.795
46853.798
46853.801
46853.806
46853.811
46853.815
46853.82
46853.826
46853.831
46853.838
46853.845
46853.854
46853.863
46853.873
46853.884
46853.897
46853.911
46853.926
46853.944
46853.963
46853.984
46854.008
46854.034
46854.063
46854.095
46854.131
46854.172
46854.217
46854.267
46854.325
46854.39
46854.462
46854.555
46854.666
46854.8
46854.983
46855.206
46855.456
46855.736
46856.042
46856.378
46856.746
46857.149
46857.591
46858.078
46858.617
46859.211
46859.868
46860.59
46861.386
46862.264
46863.231
46864.291
46865.497
46866.81
46868.303
46869.957
46871.794
46873.833
46876.121
46878.66
46881.488
46884.617
46888.092
46891.954
46896.271
46901.049
46906.368
46912.194
46918.545
46925.497
46932.994
46941.033
46949.577
46958.427
46967.482
46976.336
46984.808
46992.34
46998.773
47003.685
47007.002
47008.85
47009.532
47009.971
47011.114
47014.763
47021.704
47032.039
47043.048
47050.898
47050.304
47041.39
47040.143
47044.921
47053.418
47047.234
47057.895
47147.613
47050.725
47067.074
47094.629
46988.618
47145.414
46965.17
46935.02
47246.804
47057.446
47062.739
47618.162
47595.123
47225.136
47687.572
49006.877
49688.899
46852.373
46852.373
46852.373
46852.373
46852.373
46852.374
46852.374
46852.375
46852.376
46852.377
46852.378
46852.38
46852.382
46852.384
46852.386
46852.39
46852.393
46852.396
46852.399
46852.403
46852.407
46852.412
46852.417
46852.423
46852.429
46852.437
46852.445
46852.454
46852.464
46852.475
46852.488
46852.501
46852.517
46852.534
46852.553
46852.574
46852.598
46852.624
46852.653
46852.685
46852.721
46852.761
46852.806
46852.856
46852.912
46852.979
46853.047
46853.142
46853.269
46853.39
46853.586
46853.807
46854.062
46854.34
46854.644
46854.977
46855.338
46855.735
46856.171
46856.653
46857.184
46857.771
46858.42
46859.13
46859.908
46860.764
46861.699
46862.717
46863.858
46865.151
46866.611
46868.227
46870.027
46872.02
46874.263
46876.751
46879.529
46882.601
46886.016
46889.815
46894.069
46898.778
46904.022
46909.773
46916.056
46922.916
46930.314
46938.266
46946.733
46955.51
46964.526
46973.337
46981.801
46989.33
46995.802
47000.772
47004.222
47006.29
47007.397
47008.467
47010.455
47014.904
47023.029
47034.713
47046.74
47055.048
47054.05
47043.723
47040.143
47043.373
47052.216
47047.879
47058.038
47148.512
47051.338
47064.086
47093.885
46989.377
47145.446
46966.555
46933.775
47242.039
47054.372
47055.541
47616.336
47594.551
47218.163
47674.222
48995.103
49688.388
46851.727
46851.727
46851.727
46851.727
46851.727
46851.727
46851.728
46851.728
46851.728
46851.729
46851.73
46851.731
46851.732
46851.733
46851.735
46851.737
46851.739
46851.742
46851.745
46851.748
46851.752
46851.756
46851.761
46851.766
46851.772
46851.779
46851.786
46851.795
46851.804
46851.814
46851.826
46851.838
46851.853
46851.868
46851.886
46851.905
46851.927
46851.951
46851.978
46852.008
46852.041
46852.078
46852.12
46852.166
46852.219
46852.279
46852.348
46852.425
46852.536
46852.675
46852.852
46853.072
46853.319
46853.595
46853.896
46854.226
46854.586
46854.98
46855.409
46855.88
46856.399
46856.969
46857.6
46858.294
46859.058
46859.897
46860.823
46861.833
46862.977
46864.218
46865.636
46867.206
46868.957
46870.897
46873.082
46875.506
46878.219
46881.224
46884.571
46888.294
46892.465
46897.091
46902.247
46907.894
46914.077
46920.829
46928.131
46935.964
46944.315
46952.96
46961.861
46970.553
46978.93
46986.356
46992.743
46997.634
47001.086
47003.219
47004.585
47006.11
47008.939
47014.472
47023.729
47036.758
47050.17
47059.275
47058.017
47046.341
47040.499
47042.079
47051.009
47048.601
47058.309
47149.117
47051.854
47061.294
47093.043
46990.191
47145.613
46968.041
46932.735
47237.198
47051.467
47048.546
47614.765
47593.9
47211.373
47660.941
48983.299
49687.744
48979.691
46851.84
46851.84
46851.84
46851.84
46851.84
46851.84
46851.84
46851.84
46851.841
46851.841
46851.842
46851.843
46851.844
46851.845
46851.846
46851.848
46851.85
46851.852
46851.855
46851.858
46851.861
46851.865
46851.869
46851.874
46851.879
46851.885
46851.892
46851.899
46851.907
46851.916
46851.927
46851.938
46851.951
46851.965
46851.981
46851.998
46852.017
46852.039
46852.063
46852.089
46852.119
46852.153
46852.19
46852.232
46852.279
46852.333
46852.397
46852.464
46852.57
46852.709
46852.876
46853.094
46853.328
46853.595
46853.883
46854.201
46854.547
46854.926
46855.345
46855.808
46856.318
46856.883
46857.505
46858.187
46858.935
46859.754
46860.654
46861.624
46862.714
46863.936
46865.331
46866.864
46868.577
46870.466
46872.593
46874.952
46877.593
46880.517
46883.774
46887.4
46891.478
46896.006
46901.063
46906.608
46912.69
46919.322
46926.489
46934.18
46942.387
46950.872
46959.628
46968.164
46976.383