/*--------------------------------*- C++ -*----------------------------------*\
| =========                 |                                                 |
| \\      /  F ield         | OpenFOAM: The Open Source CFD Toolbox           |
|  \\    /   O peration     | Version:  2506                                  |
|   \\  /    A nd           | Website:  www.openfoam.com                      |
|    \\/     M anipulation  |                                                 |
\*---------------------------------------------------------------------------*/
FoamFile
{
    version     2.0;
    format      ascii;
    arch        "LSB;label=32;scalar=64";
    class       volVectorField;
    location    "0.027";
    object      wallShearStress;
}
// * * * * * * * * * * * * * * * * * * * * * * * * * * * * * * * * * * * * * //

dimensions      [1 -1 -2 0 0 0 0];

internalField   uniform (0 0 0);

boundaryField
{
    Side
    {
        type            empty;
    }
    Inlet
    {
        type            calculated;
        value           uniform (0 0 0);
    }
    Airfoil
    {
        type            calculated;
        value           nonuniform List<vector> 
107
(
(-4.5438147 0.54252772 -2.6693189e-16)
(-4.7846203 0.57558413 -2.6601979e-16)
(-4.1769786 0.50609921 2.5236446e-22)
(-3.2166875 0.39508981 -5.2764264e-16)
(-1.9560731 0.24557589 2.6219552e-16)
(-0.49188617 0.074034226 -2.4929787e-22)
(1.0521409 -0.11262817 2.4655229e-22)
(-6.9409342 -0.52122751 -2.5262972e-16)
(-6.8992696 -0.52231804 1.2037707e-22)
(-6.8359913 -0.52179245 1.2031797e-22)
(-6.7796885 -0.5215785 1.2608295e-16)
(-6.7489346 -0.52307577 0)
(-6.7061251 -0.52338998 -4.6944542e-33)
(-6.6419495 -0.52199191 -2.5178915e-16)
(-6.593954 -0.52177997 7.5231638e-37)
(-6.5717388 -0.52395298 7.5231638e-37)
(-6.5391187 -0.5253935 2.5151853e-16)
(-6.4684458 -0.52373955 2.514277e-16)
(-6.3948095 -0.52177632 2.5136166e-16)
(-6.3607111 -0.52279168 -7.5231638e-37)
(-6.3377844 -0.5244649 1.1982295e-22)
(-6.2855182 -0.52355103 2.5122571e-16)
(-6.2072217 -0.52045732 -2.5117959e-16)
(-6.1494392 -0.51898909 2.5116385e-16)
(-6.1159498 -0.51929422 1.1976804e-22)
(-6.0686444 -0.51825452 -2.5115158e-16)
(-6.0109294 -0.51635093 2.5115204e-16)
(-5.9717451 -0.51652773 7.5231638e-37)
(-5.9437141 -0.51757868 -1.1090867e-24)
(-5.8862275 -0.51591413 5.9899221e-23)
(-5.8023419 -0.5118996 -2.5126297e-16)
(-5.7456325 -0.51014641 5.9924828e-23)
(-5.720026 -0.51086593 -5.027876e-16)
(-5.6746565 -0.50961043 2.5145608e-16)
(-5.5887687 -0.50471796 -5.0303067e-16)
(-5.5157683 -0.50095127 5.9984006e-23)
(-5.4932387 -0.50147994 -7.5231638e-37)
(-5.4758911 -0.50225452 2.5182449e-16)
(-5.428267 -0.50042216 -5.0385601e-16)
(-5.3724292 -0.49827749 -2.520469e-16)
(-5.3299308 -0.49718621 -2.5217748e-16)
(-5.2718274 -0.49441508 -2.5229984e-16)
(-5.1754274 -0.48806028 5.8684609e-25)
(-5.0871388 -0.48253183 -5.8631192e-23)
(-5.0588484 -0.48245868 -2.3582887e-24)
(-5.0654864 -0.48542515 1.3760619e-32)
(-5.0644001 -0.48746193 2.5316423e-16)
(-5.0179467 -0.48504968 2.5333926e-16)
(-4.9349824 -0.47918551 2.5352302e-16)
(-4.8660787 -0.474695 -2.5372735e-16)
(-4.8096591 -0.47170392 -6.5263498e-28)
(-4.746464 -0.46804102 5.9681975e-23)
(-4.6996427 -0.46593232 1.2579791e-24)
(-4.6906049 -0.46738023 -2.547526e-16)
(-4.689648 -0.46944249 2.5503916e-16)
(-4.6555416 -0.46797521 2.5532589e-16)
(-4.5643185 -0.46071903 2.5560323e-16)
(-4.4322957 -0.44956151 -3.0508576e-23)
(-4.3525161 -0.44364619 2.2569492e-36)
(-4.3418185 -0.4444181 2.5662313e-16)
(-4.3474183 -0.44667316 -3.0635144e-23)
(-4.3290144 -0.44660423 2.5738854e-16)
(-4.2493701 -0.44037434 9.4581216e-33)
(-4.1350751 -0.43077937 -2.5815128e-16)
(-4.0672959 -0.4259189 -2.5859442e-16)
(-4.0605362 -0.42712446 -2.5905986e-16)
(-4.0645784 -0.42933034 -2.5953678e-16)
(-4.0514465 -0.42959162 -2.6001569e-16)
(-3.9991255 -0.42559135 -1.5525374e-23)
(-3.9013239 -0.41667568 -2.609601e-16)
(-3.7633562 -0.40362295 2.6145032e-16)
(-3.6707745 -0.39548623 -2.619937e-16)
(-3.6743276 -0.39793074 -2.6260066e-16)
(-3.7625723 -0.40929429 2.6323153e-16)
(-3.8930382 -0.42498874 7.7187661e-33)
(-3.9456546 -0.43190044 -2.6442619e-16)
(-3.8148773 -0.41891578 1.9735683e-24)
(-3.5392714 -0.39028137 -2.6548053e-16)
(-3.2494263 -0.36004205 -3.9651911e-24)
(-3.1113928 -0.34671448 0)
(-3.110519 -0.3480003 2.5573136e-40)
(-3.1376342 -0.35199607 2.6973285e-24)
(-3.100161 -0.34875575 -1.0851655e-41)
(-2.9449209 -0.33255946 -1.6073113e-23)
(-2.6665405 -0.30289976 1.6119183e-23)
(-2.499428 -0.28605275 -1.6180257e-23)
(-2.6345312 -0.30312563 -2.7228811e-16)
(-2.9554448 -0.34120493 -7.2880053e-24)
(-3.3583766 -0.38803919 4.4841551e-44)
(-3.5605939 -0.41164267 -3.0092655e-36)
(-3.3979292 -0.39417652 2.7591888e-16)
(-3.1857648 -0.3710272 -3.2990011e-23)
(-3.1412146 -0.36731904 3.3098182e-23)
(-3.2592447 -0.38270007 1.449832e-26)
(-3.5968585 -0.42231388 -2.2157316e-26)
(-3.4539997 -0.40431084 -3.3309566e-23)
(-2.2832971 -0.25977379 -3.3201101e-23)
(0.90745023 0.11451784 3.3340854e-23)
(4.3078344 0.51031825 7.8721438e-23)
(4.6389407 0.54943682 -2.8108326e-16)
(2.7597852 0.32290307 -6.7725948e-23)
(0.18111027 0.011802152 2.8562957e-16)
(-1.8223174 -0.22429499 -4.94392e-23)
(-2.9886978 -0.36625133 6.8762308e-23)
(-3.7731303 -0.45981864 2.8985599e-16)
(-4.4275549 -0.54096 -6.9436598e-23)
(-4.7663058 -0.5824416 6.978184e-23)
)
;
    }
    Outlet
    {
        type            calculated;
        value           nonuniform List<vector> 0();
    }
    procBoundary4to3
    {
        type            processor;
        value           uniform (0 0 0);
    }
    procBoundary4to5
    {
        type            processor;
        value           uniform (0 0 0);
    }
    procBoundary4to11
    {
        type            processor;
        value           uniform (0 0 0);
    }
    procBoundary4to12
    {
        type            processor;
        value           uniform (0 0 0);
    }
}


// ************************************************************************* //
