/*--------------------------------*- C++ -*----------------------------------*\
| =========                 |                                                 |
| \\      /  F ield         | OpenFOAM: The Open Source CFD Toolbox           |
|  \\    /   O peration     | Version:  2506                                  |
|   \\  /    A nd           | Website:  www.openfoam.com                      |
|    \\/     M anipulation  |                                                 |
\*---------------------------------------------------------------------------*/
FoamFile
{
    version     2.0;
    format      ascii;
    arch        "LSB;label=32;scalar=64";
    class       volScalarField;
    location    "0.00023";
    object      Co;
}
// * * * * * * * * * * * * * * * * * * * * * * * * * * * * * * * * * * * * * //

dimensions      [0 0 0 0 0 0 0];

internalField   nonuniform List<scalar> 
3426
(
3.7200338e-06
3.5593896e-06
3.4050512e-06
3.2568115e-06
5.2170171e-06
5.0014908e-06
4.7938083e-06
4.5937512e-06
4.4011032e-06
4.2156499e-06
4.0371791e-06
3.865481e-06
3.7003487e-06
3.5415784e-06
3.3889693e-06
3.2423239e-06
3.1014486e-06
2.966153e-06
2.8362509e-06
2.7115597e-06
4.9615025e-06
4.7571664e-06
4.5602189e-06
4.3704577e-06
4.1876823e-06
4.0116935e-06
3.842294e-06
3.6792887e-06
3.5224848e-06
3.3716922e-06
3.2267234e-06
3.0873941e-06
2.9535229e-06
2.8249319e-06
2.7014464e-06
2.5828953e-06
8.5855652e-06
8.2653696e-06
7.9548295e-06
7.6537833e-06
7.3620661e-06
7.0795079e-06
6.8059367e-06
6.541176e-06
6.2850478e-06
6.037371e-06
5.7979625e-06
5.5666377e-06
5.3432103e-06
5.1274933e-06
4.9192987e-06
4.7184386e-06
4.5247247e-06
4.3379695e-06
4.1579859e-06
3.9845877e-06
3.8175902e-06
3.65681e-06
3.5020657e-06
3.3531777e-06
3.2099688e-06
3.0722641e-06
2.9398913e-06
2.8126811e-06
2.6904667e-06
2.5730848e-06
2.4603748e-06
8.1443801e-06
7.8421359e-06
7.5489184e-06
7.2645801e-06
6.9889703e-06
6.7219341e-06
6.4633144e-06
6.2129503e-06
5.9706786e-06
5.7363337e-06
5.5097477e-06
5.2907514e-06
5.0791736e-06
4.8748422e-06
4.6775841e-06
4.4872261e-06
4.3035943e-06
4.1265153e-06
3.9558159e-06
3.7913238e-06
3.6328673e-06
3.4802765e-06
3.3333823e-06
3.1920177e-06
3.0560176e-06
2.9252189e-06
2.7994607e-06
2.6785847e-06
2.562435e-06
2.4508585e-06
2.3437051e-06
7.7257244e-06
7.4404272e-06
7.1635709e-06
6.8950204e-06
6.6346377e-06
6.3822816e-06
6.1378077e-06
5.9010697e-06
5.6719178e-06
5.4502004e-06
5.2357636e-06
5.0284519e-06
4.8281082e-06
4.634574e-06
4.4476902e-06
4.2672967e-06
4.0932335e-06
3.9253399e-06
3.7634558e-06
3.6074215e-06
3.4570781e-06
3.3122673e-06
3.1728324e-06
3.0386178e-06
2.9094698e-06
2.7852362e-06
2.665767e-06
2.5509142e-06
2.4405321e-06
2.3344776e-06
2.2326098e-06
7.3285336e-06
7.0592271e-06
6.7978161e-06
6.5441769e-06
6.2981826e-06
6.0597037e-06
5.8286085e-06
5.6047623e-06
5.3880281e-06
5.1782667e-06
4.9753371e-06
4.7790963e-06
4.5893999e-06
4.4061022e-06
4.2290566e-06
4.0581156e-06
3.8931312e-06
3.7339552e-06
3.5804394e-06
3.4324358e-06
3.2897971e-06
3.1523766e-06
3.0200284e-06
2.8926079e-06
2.769972e-06
2.6519788e-06
2.5384884e-06
2.4293625e-06
2.3244651e-06
2.2236622e-06
2.1268219e-06
7.7598936e-06
7.4828368e-06
7.2134996e-06
6.9517731e-06
6.6975481e-06
6.4507121e-06
6.2111507e-06
5.9787473e-06
5.753383e-06
5.5349362e-06
5.3232833e-06
5.1182987e-06
4.9198545e-06
4.7278212e-06
4.5420671e-06
4.3624597e-06
4.1888647e-06
4.021147e-06
3.8591707e-06
3.702799e-06
3.5518951e-06
3.4063219e-06
3.2659423e-06
3.1306198e-06
3.0002181e-06
2.8746019e-06
2.7536366e-06
2.637189e-06
2.5251269e-06
2.4173199e-06
2.3136388e-06
2.2139566e-06
2.1181478e-06
2.0260892e-06
7.6257212e-06
7.3570089e-06
7.0956256e-06
6.8414707e-06
6.5944417e-06
6.3544363e-06
6.1213496e-06
5.8950756e-06
5.6755063e-06
5.4625319e-06
5.2560401e-06
5.0559173e-06
4.8620476e-06
4.6743136e-06
4.4925959e-06
4.3167733e-06
4.146724e-06
3.9823242e-06
3.8234492e-06
3.6699737e-06
3.5217714e-06
3.3787159e-06
3.2406803e-06
3.1075377e-06
2.9791615e-06
2.8554253e-06
2.7362034e-06
2.6213707e-06
2.5108032e-06
2.4043779e-06
2.3019729e-06
2.203468e-06
2.1087443e-06
2.0176846e-06
1.9301736e-06
7.4893229e-06
7.2288407e-06
6.9753272e-06
6.7286852e-06
6.4888184e-06
6.2556302e-06
6.0290229e-06
5.8088988e-06
5.5951588e-06
5.387702e-06
5.1864266e-06
4.9912289e-06
4.8020034e-06
4.6186435e-06
4.4410406e-06
4.2690846e-06
4.1026641e-06
3.9416665e-06
3.7859775e-06
3.6354824e-06
3.4900652e-06
3.3496095e-06
3.2139982e-06
3.0831139e-06
2.9568392e-06
2.8350566e-06
2.7176489e-06
2.6044994e-06
2.4954917e-06
2.3905105e-06
2.2894412e-06
2.1921702e-06
2.0985853e-06
2.0085756e-06
1.9220314e-06
1.8388449e-06
7.0987736e-06
6.8529959e-06
6.6137638e-06
6.3809829e-06
6.1545598e-06
5.9344021e-06
5.7204165e-06
5.5125107e-06
5.3105914e-06
5.114564e-06
4.9243336e-06
4.7398035e-06
4.5608761e-06
4.3874521e-06
4.2194314e-06
4.056712e-06
3.8991913e-06
3.7467648e-06
3.5993273e-06
3.4567728e-06
3.318994e-06
3.1858832e-06
3.0573323e-06
2.9332325e-06
2.813475e-06
2.697951e-06
2.5865515e-06
2.4791684e-06
2.3756933e-06
2.2760191e-06
2.1800389e-06
2.0876469e-06
1.9987385e-06
1.9132101e-06
1.8309592e-06
1.751885e-06
7.2119599e-06
6.9673738e-06
6.7291408e-06
6.4971619e-06
6.2713415e-06
6.0515864e-06
5.8378055e-06
5.6299089e-06
5.4278077e-06
5.2314132e-06
5.0406367e-06
4.8553897e-06
4.6755822e-06
4.5011242e-06
4.3319245e-06
4.1678907e-06
4.0089299e-06
3.8549475e-06
3.7058483e-06
3.5615357e-06
3.4219123e-06
3.2868801e-06
3.1563397e-06
3.0301916e-06
2.9083355e-06
2.7906708e-06
2.6770966e-06
2.567512e-06
2.4618159e-06
2.3599076e-06
2.2616868e-06
2.1670534e-06
2.0759082e-06
1.9881524e-06
1.9036886e-06
1.8224198e-06
1.7442505e-06
1.6690864e-06
7.0723686e-06
6.8353201e-06
6.6043781e-06
6.379437e-06
6.1603965e-06
5.9471607e-06
5.739637e-06
5.5377355e-06
5.3413679e-06
5.1504487e-06
4.964892e-06
4.7846129e-06
4.6095273e-06
4.4395502e-06
4.2745964e-06
4.1145808e-06
3.9594169e-06
3.8090179e-06
3.6632958e-06
3.522162e-06
3.3855271e-06
3.2533007e-06
3.1253917e-06
3.0017083e-06
2.8821581e-06
2.7666482e-06
2.6550854e-06
2.547376e-06
2.4434263e-06
2.3431426e-06
2.2464313e-06
2.1531991e-06
2.0633528e-06
1.9768001e-06
1.893449e-06
1.8132084e-06
1.7359881e-06
1.6616987e-06
1.5902519e-06
6.9331574e-06
6.7032875e-06
6.4793225e-06
6.2611472e-06
6.0486532e-06
5.8417383e-06
5.6403056e-06
5.444262e-06
5.2535183e-06
5.0679872e-06
4.8875849e-06
4.712228e-06
4.5418347e-06
4.376324e-06
4.215615e-06
4.0596272e-06
3.9082799e-06
3.7614918e-06
3.6191817e-06
3.4812674e-06
3.347666e-06
3.2182944e-06
3.0930685e-06
2.9719036e-06
2.8547146e-06
2.7414156e-06
2.6319204e-06
2.5261425e-06
2.4239949e-06
2.3253907e-06
2.2302427e-06
2.1384639e-06
2.0499676e-06
1.964667e-06
1.8824761e-06
1.8033093e-06
1.7270815e-06
1.6537085e-06
1.5831068e-06
1.515194e-06
6.7951627e-06
6.5720458e-06
6.3546805e-06
6.1429384e-06
5.9367002e-06
5.7358541e-06
5.5402956e-06
5.3499259e-06
5.1646508e-06
4.9843808e-06
4.8090293e-06
4.6385133e-06
4.4727504e-06
4.311662e-06
4.1551692e-06
4.0031944e-06
3.8556607e-06
3.7124914e-06
3.5736097e-06
3.4389388e-06
3.3084017e-06
3.1819207e-06
3.0594182e-06
2.9408156e-06
2.826034e-06
2.7149942e-06
2.6076164e-06
2.5038204e-06
2.4035257e-06
2.3066515e-06
2.213117e-06
2.1228413e-06
2.0357432e-06
1.9517421e-06
1.8707573e-06
1.7927086e-06
1.7175161e-06
1.6451006e-06
1.5753834e-06
1.5082865e-06
1.4437329e-06
7.1105885e-06
6.8819473e-06
6.6592839e-06
6.4424275e-06
6.2312204e-06
6.0255178e-06
5.8251861e-06
5.6301013e-06
5.4401478e-06
5.255218e-06
5.0752106e-06
4.9000301e-06
4.7295859e-06
4.5637911e-06
4.4025628e-06
4.24582e-06
4.0934851e-06
3.9454812e-06
3.8017336e-06
3.6621678e-06
3.5267106e-06
3.3952889e-06
3.2678297e-06
3.1442604e-06
3.024508e-06
2.9084995e-06
2.7961612e-06
2.6874196e-06
2.5822006e-06
2.4804299e-06
2.3820326e-06
2.2869339e-06
2.1950586e-06
2.1063314e-06
2.0206769e-06
1.9380198e-06
1.8582849e-06
1.7813969e-06
1.7072812e-06
1.6358632e-06
1.567069e-06
1.5008251e-06
1.4370588e-06
1.375698e-06
6.7434296e-06
6.5264944e-06
6.3153385e-06
6.1097835e-06
5.9096643e-06
5.7148301e-06
5.5251413e-06
5.3404691e-06
5.1606937e-06
4.9857038e-06
4.8153956e-06
4.6496711e-06
4.4884382e-06
4.3316095e-06
4.1791012e-06
4.0308331e-06
3.8867282e-06
3.7467109e-06
3.6107084e-06
3.4786483e-06
3.3504602e-06
3.2260739e-06
3.1054198e-06
2.9884288e-06
2.8750321e-06
2.7651605e-06
2.658745e-06
2.5557165e-06
2.4560056e-06
2.3595426e-06
2.266258e-06
2.1760818e-06
2.0889438e-06
2.0047739e-06
1.9235017e-06
1.8450571e-06
1.76937e-06
1.6963703e-06
1.6259882e-06
1.5581543e-06
1.4927995e-06
1.4298552e-06
1.3692535e-06
1.3109268e-06
6.3978027e-06
6.1917245e-06
5.991252e-06
5.7961993e-06
5.6063946e-06
5.4216802e-06
5.2419107e-06
5.0669521e-06
4.89668e-06
4.7309794e-06
4.569743e-06
4.4128703e-06
4.2602673e-06
4.1118449e-06
3.9675188e-06
3.8272086e-06
3.6908371e-06
3.5583298e-06
3.4296149e-06
3.3046217e-06
3.1832818e-06
3.0655275e-06
2.951292e-06
2.8405092e-06
2.7331135e-06
2.6290393e-06
2.5282216e-06
2.4305951e-06
2.3360947e-06
2.244655e-06
2.1562107e-06
2.0706966e-06
1.9880469e-06
1.9081962e-06
1.8310788e-06
1.7566293e-06
1.6847821e-06
1.6154719e-06
1.5486337e-06
1.4842025e-06
1.4221138e-06
1.3623036e-06
1.3047083e-06
1.2492648e-06
6.6956091e-06
6.4818709e-06
6.2742826e-06
6.0725952e-06
5.8765757e-06
5.6860117e-06
5.5007097e-06
5.3204905e-06
5.14519e-06
4.974657e-06
4.8087519e-06
4.6473455e-06
4.4903187e-06
4.3375606e-06
4.1889676e-06
4.0444434e-06
3.9038971e-06
3.767243e-06
3.6343999e-06
3.5052905e-06
3.3798404e-06
3.2579784e-06
3.1396351e-06
3.0247435e-06
2.9132375e-06
2.8050529e-06
2.7001259e-06
2.5983937e-06
2.4997939e-06
2.4042645e-06
2.3117439e-06
2.2221706e-06
2.135483e-06
2.0516198e-06
1.9705197e-06
1.8921211e-06
1.8163629e-06
1.7431835e-06
1.6725217e-06
1.6043165e-06
1.5385066e-06
1.4750313e-06
1.41383e-06
1.3548424e-06
1.2980085e-06
1.243269e-06
1.1905648e-06
6.7885739e-06
6.5715262e-06
6.3611119e-06
6.157023e-06
5.9589778e-06
5.7667202e-06
5.5800109e-06
5.3986284e-06
5.222371e-06
5.0510525e-06
4.8845023e-06
4.7225629e-06
4.5650893e-06
4.4119475e-06
4.2630138e-06
4.1181734e-06
3.9773197e-06
3.8403533e-06
3.7071814e-06
3.5777163e-06
3.4518758e-06
3.3295818e-06
3.2107598e-06
3.0953385e-06
2.9832495e-06
2.8744264e-06
2.7688048e-06
2.6663218e-06
2.566916e-06
2.4705266e-06
2.377094e-06
2.2865588e-06
2.1988626e-06
2.1139469e-06
2.0317535e-06
1.9522247e-06
1.8753025e-06
1.8009294e-06
1.7290477e-06
1.6596e-06
1.5925288e-06
1.5277769e-06
1.4652872e-06
1.4050027e-06
1.3468667e-06
1.2908229e-06
1.2368153e-06
1.1847881e-06
1.1346861e-06
6.6715087e-06
6.4565887e-06
6.2485764e-06
6.0471307e-06
5.8519355e-06
5.6626979e-06
5.4791518e-06
5.3010516e-06
5.1281686e-06
4.9602931e-06
4.7972318e-06
4.6388074e-06
4.4848565e-06
4.3352286e-06
4.1897845e-06
4.0483959e-06
3.9109441e-06
3.7773188e-06
3.6474177e-06
3.5211453e-06
3.3984121e-06
3.2791342e-06
3.1632324e-06
3.0506314e-06
2.9412601e-06
2.8350497e-06
2.7319346e-06
2.6318515e-06
2.5347385e-06
2.4405358e-06
2.3491845e-06
2.260627e-06
2.1748064e-06
2.0916667e-06
2.0111522e-06
1.9332077e-06
1.8577784e-06
1.7848097e-06
1.7142471e-06
1.6460366e-06
1.5801241e-06
1.5164556e-06
1.4549775e-06
1.3956363e-06
1.3383786e-06
1.2831513e-06
1.2299016e-06
1.1785771e-06
1.1291256e-06
1.0814953e-06
6.7873094e-06
6.5658448e-06
6.3520291e-06
6.1454545e-06
5.9457431e-06
5.7525455e-06
5.5655378e-06
5.384419e-06
5.2089131e-06
5.0387662e-06
4.8737437e-06
4.7136284e-06
4.5582199e-06
4.4073346e-06
4.2608031e-06
4.1184692e-06
3.9801885e-06
3.8458283e-06
3.7152655e-06
3.5883863e-06
3.4650849e-06
3.345263e-06
3.2288291e-06
3.115697e-06
3.0057864e-06
2.8990208e-06
2.7953285e-06
2.6946405e-06
2.5968915e-06
2.5020183e-06
2.4099603e-06
2.3206585e-06
2.2340557e-06
2.1500957e-06
2.0687237e-06
1.9898857e-06
1.9135286e-06
1.8395994e-06
1.7680461e-06
1.6988171e-06
1.6318606e-06
1.5671256e-06
1.5045612e-06
1.4441166e-06
1.3857414e-06
1.3293853e-06
1.2749982e-06
1.2225303e-06
1.1719321e-06
1.1231545e-06
1.0761484e-06
1.0308656e-06
6.6947398e-06
6.4728822e-06
6.2591055e-06
6.0529623e-06
5.8540362e-06
5.6619416e-06
5.4763204e-06
5.2968412e-06
5.1231963e-06
4.9551011e-06
4.7922932e-06
4.6345316e-06
4.4815925e-06
4.3332686e-06
4.18937e-06
4.0497214e-06
3.9141611e-06
3.7825398e-06
3.6547197e-06
3.5305738e-06
3.409984e-06
3.2928415e-06
3.1790449e-06
3.0685e-06
2.9611186e-06
2.8568185e-06
2.7555221e-06
2.6571565e-06
2.5616524e-06
2.468944e-06
2.3789687e-06
2.2916658e-06
2.2069774e-06
2.1248471e-06
2.0452203e-06
1.9680436e-06
1.8932648e-06
1.8208325e-06
1.7506962e-06
1.6828061e-06
1.6171129e-06
1.5535675e-06
1.4921217e-06
1.4327271e-06
1.3753359e-06
1.3199005e-06
1.2663737e-06
1.2147083e-06
1.1648575e-06
1.1167749e-06
1.0704142e-06
1.0257295e-06
9.8267549e-07
6.3938343e-06
6.1789999e-06
5.9722469e-06
5.7731209e-06
5.5811981e-06
5.3960854e-06
5.2174174e-06
5.044855e-06
4.8780837e-06
4.7168121e-06
4.56077e-06
4.4097093e-06
4.2634002e-06
4.121629e-06
3.9841995e-06
3.8509309e-06
3.7216559e-06
3.59622e-06
3.4744809e-06
3.3563072e-06
3.241577e-06
3.1301778e-06
3.0220051e-06
2.9169618e-06
2.8149577e-06
2.7159084e-06
2.6197347e-06
2.5263624e-06
2.4357216e-06
2.3477458e-06
2.2623721e-06
2.1795402e-06
2.0991923e-06
2.021273e-06
1.9457284e-06
1.8725064e-06
1.8015561e-06
1.732828e-06
1.6662732e-06
1.6018438e-06
1.5394926e-06
1.4791731e-06
1.4208389e-06
1.3644445e-06
1.3099446e-06
1.257294e-06
1.2064482e-06
1.1573627e-06
1.1099936e-06
1.0642971e-06
1.0202297e-06
9.7774828e-07
9.3681019e-07
6.1129155e-06
5.904483e-06
5.7041393e-06
5.5114236e-06
5.3259054e-06
5.1471848e-06
4.97489e-06
4.8086747e-06
4.6482178e-06
4.4932215e-06
4.3434089e-06
4.198525e-06
4.0583341e-06
3.9226165e-06
3.7911701e-06
3.6638083e-06
3.5403588e-06
3.4206621e-06
3.3045711e-06
3.1919501e-06
3.0826733e-06
2.9766246e-06
2.8736962e-06
2.773788e-06
2.6768075e-06
2.5826678e-06
2.4912883e-06
2.4025931e-06
2.3165111e-06
2.2329752e-06
2.1519218e-06
2.0732907e-06
1.997024e-06
1.9230666e-06
1.8513654e-06
1.7818692e-06
1.7145282e-06
1.6492939e-06
1.5861192e-06
1.5249577e-06
1.4657641e-06
1.4084937e-06
1.3531023e-06
1.2995465e-06
1.247783e-06
1.1977694e-06
1.1494633e-06
1.1028227e-06
1.0578061e-06
1.0143723e-06
9.7248034e-07
9.3208958e-07
8.9315986e-07
6.512392e-06
6.2823427e-06
6.0620016e-06
5.8507967e-06
5.6481939e-06
5.4536925e-06
5.266826e-06
5.0871585e-06
4.9142835e-06
4.7478234e-06
4.5874255e-06
4.4327627e-06
4.283531e-06
4.1394475e-06
4.0002508e-06
3.8656993e-06
3.735568e-06
3.609649e-06
3.4877503e-06
3.3696945e-06
3.2553172e-06
3.1444669e-06
3.0370035e-06
2.9327972e-06
2.8317282e-06
2.7336855e-06
2.6385661e-06
2.5462746e-06
2.456722e-06
2.3698254e-06
2.2855076e-06
2.2036959e-06
2.1243222e-06
2.0473224e-06
1.9726353e-06
1.9002034e-06
1.8299715e-06
1.7618869e-06
1.6958988e-06
1.6319582e-06
1.5700178e-06
1.5100316e-06
1.4519545e-06
1.3957428e-06
1.3413533e-06
1.2887438e-06
1.2378726e-06
1.1886985e-06
1.141181e-06
1.09528e-06
1.0509556e-06
1.0081686e-06
9.6687993e-07
9.2705102e-07
8.8864357e-07
8.516197e-07
6.4873423e-06
6.2521674e-06
6.0273449e-06
5.8122604e-06
5.6063378e-06
5.4090388e-06
5.2198578e-06
5.0383236e-06
4.863995e-06
4.6964604e-06
4.5353363e-06
4.3802647e-06
4.2309126e-06
4.0869707e-06
3.9481505e-06
3.8141847e-06
3.6848258e-06
3.5598439e-06
3.4390261e-06
3.3221748e-06
3.2091078e-06
3.0996561e-06
2.9936636e-06
2.8909861e-06
2.7914899e-06
2.6950515e-06
2.6015565e-06
2.510899e-06
2.4229806e-06
2.33771e-06
2.2550023e-06
2.1747781e-06
2.0969636e-06
2.0214891e-06
1.9482897e-06
1.8773036e-06
1.8084728e-06
1.7417419e-06
1.6770583e-06
1.6143714e-06
1.5536331e-06
1.4947966e-06
1.4378166e-06
1.3826495e-06
1.3292525e-06
1.2775841e-06
1.2276033e-06
1.1792701e-06
1.1325453e-06
1.0873899e-06
1.0437657e-06
1.001635e-06
9.6096045e-07
9.2170503e-07
8.8383222e-07
8.4730589e-07
8.1209022e-07
6.4819795e-06
6.2404679e-06
6.0099993e-06
5.7899163e-06
5.5796016e-06
5.3784761e-06
5.1859977e-06
5.001657e-06
4.8249786e-06
4.6555167e-06
4.492855e-06
4.3366052e-06
4.1864043e-06
4.0419143e-06
3.9028206e-06
3.7688297e-06
3.6396693e-06
3.5150862e-06
3.3948456e-06
3.2787298e-06
3.1665364e-06
3.0580784e-06
2.9531825e-06
2.851688e-06
2.7534467e-06
2.6583211e-06
2.5661841e-06
2.476918e-06
2.3904136e-06
2.3065699e-06
2.2252929e-06
2.1464956e-06
2.0700966e-06
1.9960202e-06
1.9241957e-06
1.8545566e-06
1.7870407e-06
1.7215889e-06
1.6581458e-06
1.5966584e-06
1.5370764e-06
1.4793517e-06
1.4234382e-06
1.3692913e-06
1.316868e-06
1.2661267e-06
1.2170269e-06
1.1695291e-06
1.1235945e-06
1.0791853e-06
1.0362644e-06
9.94795e-07
9.5474121e-07
9.1606743e-07
8.7873856e-07
8.4271993e-07
8.0797728e-07
7.7447676e-07
7.0337909e-06
6.7588919e-06
6.4973085e-06
6.2482487e-06
6.0109658e-06
5.7847596e-06
5.5689715e-06
5.3629819e-06
5.1662091e-06
4.9781082e-06
4.7981667e-06
4.6259053e-06
4.4608747e-06
4.3026544e-06
4.1508518e-06
4.0050999e-06
3.8650555e-06
3.7303997e-06
3.6008345e-06
3.4760827e-06
3.3558865e-06
3.2400059e-06
3.1282189e-06
3.0203188e-06
2.9161138e-06
2.8154264e-06
2.7180919e-06
2.623958e-06
2.5328834e-06
2.4447376e-06
2.3593994e-06
2.2767567e-06
2.1967056e-06
2.1191496e-06
2.0439992e-06
1.971171e-06
1.9005876e-06
1.8321765e-06
1.7658702e-06
1.7016052e-06
1.6393218e-06
1.5789638e-06
1.520478e-06
1.4638139e-06
1.4089235e-06
1.355761e-06
1.3042821e-06
1.2544446e-06
1.2062075e-06
1.1595313e-06
1.1143775e-06
1.0707086e-06
1.0284879e-06
9.8767964e-07
9.4824868e-07
9.1016051e-07
8.7338113e-07
8.3787711e-07
8.0361547e-07
7.7056364e-07
7.3868953e-07
6.8054193e-06
6.5342541e-06
6.276436e-06
6.0311725e-06
5.797718e-06
5.5753718e-06
5.3634741e-06
5.161404e-06
4.9685782e-06
4.7844492e-06
4.6085022e-06
4.440255e-06
4.279255e-06
4.1250785e-06
3.9773291e-06
3.8356358e-06
3.6996516e-06
3.5690535e-06
3.443539e-06
3.322827e-06
3.2066551e-06
3.0947792e-06
2.9869727e-06
2.8830247e-06
2.7827395e-06
2.6859353e-06
2.5924435e-06
2.5021081e-06
2.4147841e-06
2.3303375e-06
2.2486439e-06
2.1695881e-06
2.0930635e-06
2.0189708e-06
1.9472182e-06
1.8777203e-06
1.8103977e-06
1.7451762e-06
1.6819868e-06
1.6207649e-06
1.5614498e-06
1.5039846e-06
1.4483156e-06
1.3943918e-06
1.3421653e-06
1.2915901e-06
1.2426224e-06
1.1952202e-06
1.1493432e-06
1.1049526e-06
1.0620105e-06
1.0204806e-06
9.8032727e-07
9.4151582e-07
9.0401239e-07
8.677838e-07
8.3279746e-07
7.990214e-07
7.6642411e-07
7.3497461e-07
7.0464235e-07
6.593657e-06
6.3258779e-06
6.0714718e-06
5.8296474e-06
5.59966e-06
5.3808093e-06
5.1724351e-06
4.9739161e-06
4.7846673e-06
4.6041403e-06
4.4318178e-06
4.2672157e-06
4.1098788e-06
3.9593804e-06
3.8153211e-06
3.6773265e-06
3.5450465e-06
3.4181539e-06
3.2963429e-06
3.1793281e-06
3.0668438e-06
2.9586416e-06
2.8544908e-06
2.7541768e-06
2.6574999e-06
2.5642745e-06
2.4743284e-06
2.3875018e-06
2.3036462e-06
2.2226245e-06
2.1443089e-06
2.0685814e-06
1.9953324e-06
1.9244601e-06
1.8558702e-06
1.7894753e-06
1.7251939e-06
1.66295e-06
1.6026733e-06
1.5442976e-06
1.4877613e-06
1.4330065e-06
1.3799788e-06
1.3286268e-06
1.2789022e-06
1.2307589e-06
1.1841532e-06
1.1390433e-06
1.0953894e-06
1.0531528e-06
1.0122967e-06
9.7278535e-07
9.3458401e-07
8.97659e-07
8.6197752e-07
8.2750751e-07
7.9421765e-07
7.6207721e-07
7.3105605e-07
7.0112455e-07
6.7225359e-07
6.3973624e-06
6.1326589e-06
5.8813479e-06
5.6426415e-06
5.4157955e-06
5.2001111e-06
4.9949284e-06
4.7996258e-06
4.613618e-06
4.4363555e-06
4.2673198e-06
4.106025e-06
3.9520141e-06
3.804858e-06
3.6641548e-06
3.5295273e-06
3.4006224e-06
3.2771099e-06
3.1586805e-06
3.0450457e-06
2.9359359e-06
2.8310994e-06
2.7303018e-06
2.6333249e-06
2.5399654e-06
2.4500342e-06
2.3633554e-06
2.279766e-06
2.1991142e-06
2.1212594e-06
2.0460711e-06
1.9734282e-06
1.9032183e-06
1.8353372e-06
1.7696881e-06
1.7061814e-06
1.6447335e-06
1.5852668e-06
1.5277092e-06
1.4719931e-06
1.4180558e-06
1.3658383e-06
1.3152854e-06
1.2663451e-06
1.2189685e-06
1.1731094e-06
1.1287239e-06
1.0857703e-06
1.0442088e-06
1.0040014e-06
9.6511148e-07
9.2750388e-07
8.9114468e-07
8.5600095e-07
8.2204081e-07
7.8923317e-07
7.5754776e-07
7.2695496e-07
6.9742581e-07
6.6893193e-07
6.4144545e-07
6.2154684e-06
5.9535639e-06
5.7050655e-06
5.4691887e-06
5.2451919e-06
5.0323772e-06
4.8300859e-06
4.6376969e-06
4.4546249e-06
4.28032e-06
4.1142631e-06
3.9559671e-06
3.8049736e-06
3.6608517e-06
3.5231977e-06
3.391632e-06
3.2657989e-06
3.1453657e-06
3.0300202e-06
2.9194709e-06
2.8134452e-06
2.711688e-06
2.6139619e-06
2.5200451e-06
2.4297314e-06
2.3428281e-06
2.2591562e-06
2.1785494e-06
2.1008528e-06
2.0259227e-06
1.9536258e-06
1.883838e-06
1.8164443e-06
1.7513382e-06
1.6884202e-06
1.6275986e-06
1.5687878e-06
1.5119084e-06
1.4568865e-06
1.4036532e-06
1.3521443e-06
1.3022998e-06
1.2540635e-06
1.2073828e-06
1.162208e-06
1.1184926e-06
1.0761923e-06
1.0352655e-06
9.9567226e-07
9.573748e-07
9.2033689e-07
8.8452377e-07
8.4990199e-07
8.1643932e-07
7.8410461e-07
7.5286757e-07
7.2269884e-07
6.9356977e-07
6.6545242e-07
6.383195e-07
6.1214424e-07
6.0469468e-06
5.7875959e-06
5.541659e-06
5.3083555e-06
5.0869463e-06
4.8767356e-06
4.6770659e-06
4.4873175e-06
4.3069055e-06
4.1352803e-06
3.9719226e-06
3.8163447e-06
3.6680871e-06
3.526718e-06
3.3918321e-06
3.263048e-06
3.1400081e-06
3.0223773e-06
2.9098411e-06
2.8021054e-06
2.6988949e-06
2.5999518e-06
2.5050356e-06
2.4139218e-06
2.3264009e-06
2.2422773e-06
2.1613692e-06
2.083507e-06
2.008533e-06
1.9363007e-06
1.8666738e-06
1.7995258e-06
1.7347389e-06
1.6722041e-06
1.6118197e-06
1.5534919e-06
1.4971329e-06
1.4426614e-06
1.390002e-06
1.3390842e-06
1.2898423e-06
1.2422152e-06
1.1961457e-06
1.1515802e-06
1.1084684e-06
1.0667632e-06
1.0264201e-06
9.8739698e-07
9.49654e-07
9.1315332e-07
8.7785887e-07
8.4373619e-07
8.1075223e-07
7.7887523e-07
7.4807462e-07
7.1832083e-07
6.8958522e-07
6.6183995e-07
6.35058e-07
6.0921298e-07
5.8427915e-07
5.8908507e-06
5.6338373e-06
5.39024e-06
5.159282e-06
4.9402275e-06
4.732383e-06
4.535093e-06
4.3477395e-06
4.1697387e-06
4.0005417e-06
3.8396294e-06
3.6865143e-06
3.5407363e-06
3.4018631e-06
3.269488e-06
3.1432286e-06
3.0227257e-06
2.9076423e-06
2.7976621e-06
2.6924888e-06
2.5918447e-06
2.4954697e-06
2.4031206e-06
2.3145703e-06
2.2296067e-06
2.1480315e-06
2.0696598e-06
1.9943196e-06
1.9218505e-06
1.8521031e-06
1.7849385e-06
1.7202276e-06
1.6578503e-06
1.597695e-06
1.5396581e-06
1.4836433e-06
1.4295609e-06
1.3773279e-06
1.326867e-06
1.278106e-06
1.2309781e-06
1.1854208e-06
1.1413758e-06
1.0987885e-06
1.0576079e-06
1.0177861e-06
9.792782e-07
9.4204171e-07
9.0603657e-07
8.7122483e-07
8.3757044e-07
8.0503908e-07
7.7359798e-07
7.4321572e-07
7.1386218e-07
6.8550832e-07
6.5812611e-07
6.3168843e-07
6.0616898e-07
5.815422e-07
5.5778321e-07
5.746273e-06
5.4914085e-06
5.2499557e-06
5.0211424e-06
4.804236e-06
4.5985462e-06
4.4034201e-06
4.2182415e-06
4.0424285e-06
3.8754332e-06
3.7167374e-06
3.565854e-06
3.4223229e-06
3.2857115e-06
3.1556128e-06
3.0316434e-06
2.9134429e-06
2.8006732e-06
2.6930162e-06
2.5901738e-06
2.4918666e-06
2.3978323e-06
2.3078255e-06
2.2216167e-06
2.1389916e-06
2.0597493e-06
1.9837026e-06
1.9106768e-06
1.8405089e-06
1.7730472e-06
1.7081503e-06
1.6456866e-06
1.5855338e-06
1.5275779e-06
1.4717131e-06
1.4178411e-06
1.3658702e-06
1.3157157e-06
1.2672982e-06
1.2205444e-06
1.1753857e-06
1.1317584e-06
1.089603e-06
1.0488639e-06
1.0094894e-06
9.7143071e-07
9.3464226e-07
8.9908116e-07
8.6470702e-07
8.3148168e-07
7.9936898e-07
7.6833464e-07
7.3834599e-07
7.0937189e-07
6.813825e-07
6.543492e-07
6.2824446e-07
6.0304172e-07
5.7871532e-07
5.5524037e-07
5.3259273e-07
5.6123683e-06
5.3594892e-06
5.1200109e-06
4.8931661e-06
4.6782257e-06
4.4745036e-06
4.2813495e-06
4.0981496e-06
3.9243244e-06
3.7593274e-06
3.6026418e-06
3.4537812e-06
3.3122863e-06
3.1777246e-06
3.0496888e-06
2.9277953e-06
2.8116828e-06
2.7010123e-06
2.5954646e-06
2.4947404e-06
2.3985584e-06
2.3066548e-06
2.2187823e-06
2.1347094e-06
2.0542197e-06
1.9771101e-06
1.9031912e-06
1.832286e-06
1.7642294e-06
1.6988671e-06
1.6360557e-06
1.5756611e-06
1.5175589e-06
1.461633e-06
1.4077754e-06
1.3558857e-06
1.3058707e-06
1.2576434e-06
1.211123e-06
1.1662346e-06
1.122908e-06
1.0810784e-06
1.0406848e-06
1.0016709e-06
9.6398359e-07
9.2757361e-07
8.9239458e-07
8.5840312e-07
8.2555836e-07
7.9382182e-07
7.6315716e-07
7.3353002e-07
7.0490775e-07
6.7725928e-07
6.5055502e-07
6.2476662e-07
5.9986695e-07
5.7582988e-07
5.5263026e-07
5.3024379e-07
5.0864696e-07
5.4883367e-06
5.2373025e-06
4.9996517e-06
4.7746218e-06
4.5614887e-06
4.3595694e-06
4.1682178e-06
3.9868228e-06
3.8148071e-06
3.6516267e-06
3.4967664e-06
3.3497409e-06
3.2100921e-06
3.0773879e-06
2.9512214e-06
2.8312088e-06
2.7169889e-06
2.6082219e-06
2.5045878e-06
2.4057863e-06
2.311535e-06
2.2215687e-06
2.1356385e-06
2.0535113e-06
1.9749688e-06
1.8998061e-06
1.8278319e-06
1.7588671e-06
1.6927444e-06
1.6293077e-06
1.5684113e-06
1.5099191e-06
1.4537045e-06
1.3996494e-06
1.347644e-06
1.2975859e-06
1.2493799e-06
1.2029374e-06
1.158176e-06
1.115019e-06
1.0733951e-06
1.0332377e-06
9.9448503e-07
9.570793e-07
9.2096669e-07
8.8609688e-07
8.5242284e-07
8.199005e-07
7.8848849e-07
7.5814796e-07
7.2884224e-07
7.0053679e-07
6.7319889e-07
6.4679748e-07
6.2130305e-07
5.9668747e-07
5.7292384e-07
5.4998639e-07
5.2785038e-07
5.0649198e-07
4.8588821e-07
5.1241176e-06
4.8881684e-06
4.6648214e-06
4.4533572e-06
4.2530973e-06
4.0633993e-06
3.8836556e-06
3.7132917e-06
3.5517663e-06
3.398566e-06
3.2532074e-06
3.1152338e-06
2.9842139e-06
2.8597416e-06
2.7414335e-06
2.6289284e-06
2.5218864e-06
2.4199871e-06
2.3229295e-06
2.2304304e-06
2.1422234e-06
2.0580586e-06
1.9777015e-06
1.9009323e-06
1.8275445e-06
1.7573448e-06
1.6901528e-06
1.6257992e-06
1.5641258e-06
1.5049852e-06
1.4482393e-06
1.3937597e-06
1.3414264e-06
1.2911276e-06
1.2427592e-06
1.1962241e-06
1.1514323e-06
1.1082995e-06
1.0667476e-06
1.0267037e-06
9.8810014e-07
9.5087366e-07
9.1496548e-07
8.8032068e-07
8.468881e-07
8.1461983e-07
7.8347112e-07
7.5340005e-07
7.2436724e-07
6.9633571e-07
6.6927058e-07
6.4313897e-07
6.1790976e-07
5.9355342e-07
5.7004193e-07
5.4734856e-07
5.2544777e-07
5.0431514e-07
4.839272e-07
4.6426139e-07
5.0192458e-06
4.7848923e-06
4.5631154e-06
4.3532016e-06
4.1544768e-06
3.9663029e-06
3.788076e-06
3.6192252e-06
3.4592116e-06
3.3075247e-06
3.1636831e-06
3.0272316e-06
2.8977405e-06
2.7748047e-06
2.6580416e-06
2.5470902e-06
2.4416111e-06
2.3412837e-06
2.2458066e-06
2.1548963e-06
2.0682856e-06
1.9857237e-06
1.9069749e-06
1.8318183e-06
1.7600461e-06
1.6914637e-06
1.6258889e-06
1.5631508e-06
1.5030898e-06
1.4455565e-06
1.3904114e-06
1.3375239e-06
1.2867727e-06
1.2380439e-06
1.1912319e-06
1.146238e-06
1.1029704e-06
1.0613433e-06
1.0212772e-06
9.8269774e-07
9.4553588e-07
9.0972722e-07
8.7521176e-07
8.4193357e-07
8.0984051e-07
7.7888386e-07
7.4901812e-07
7.2020071e-07
6.923917e-07
6.6555367e-07
6.3965141e-07
6.1465176e-07
5.9052344e-07
5.6723685e-07
5.4476397e-07
5.2307812e-07
5.0215394e-07
4.8196722e-07
4.6249478e-07
4.4371439e-07
4.6891936e-06
4.4688925e-06
4.2604283e-06
4.0631323e-06
3.8763707e-06
3.6995441e-06
3.5320849e-06
3.3734577e-06
3.2231547e-06
3.0806969e-06
2.9456313e-06
2.81753e-06
2.6959892e-06
2.5806273e-06
2.4710844e-06
2.3670213e-06
2.2681179e-06
2.1740727e-06
2.084602e-06
1.9994382e-06
1.91833e-06
1.8410409e-06
1.767349e-06
1.6970455e-06
1.6299346e-06
1.5658329e-06
1.504568e-06
1.4459789e-06
1.3899147e-06
1.3362343e-06
1.2848057e-06
1.2355057e-06
1.188219e-06
1.1428385e-06
1.0992637e-06
1.0574013e-06
1.0171644e-06
9.7847152e-07
9.4124732e-07
9.0542129e-07
8.7092784e-07
8.3770587e-07
8.0569838e-07
7.7485224e-07
7.4511788e-07
7.16449e-07
6.8880231e-07
6.6213731e-07
6.3641607e-07
6.1160295e-07
5.8766449e-07
5.6456915e-07
5.4228717e-07
5.2079045e-07
5.0005234e-07
4.8004751e-07
4.6075189e-07
4.4214251e-07
4.2419739e-07
4.3815755e-06
4.1744772e-06
3.9785202e-06
3.7930759e-06
3.6175491e-06
3.4513765e-06
3.2940263e-06
3.1449936e-06
3.0038026e-06
2.8700024e-06
2.7431672e-06
2.622895e-06
2.5088057e-06
2.4005404e-06
2.2977609e-06
2.2001475e-06
2.1073993e-06
2.0192324e-06
1.9353793e-06
1.8555884e-06
1.7796226e-06
1.7072596e-06
1.6382895e-06
1.5725157e-06
1.5097537e-06
1.4498302e-06
1.3925826e-06
1.337859e-06
1.2855167e-06
1.2354224e-06
1.1874514e-06
1.1414872e-06
1.0974208e-06
1.0551507e-06
1.0145819e-06
9.7562608e-07
9.3820058e-07
9.0222863e-07
8.6763847e-07
8.3436333e-07
8.0234098e-07
7.7151335e-07
7.4182637e-07
7.1322953e-07
6.8567575e-07
6.5912102e-07
6.3352419e-07
6.0884677e-07
5.8505266e-07
5.6210799e-07
5.3998094e-07
5.1864153e-07
4.9806148e-07
4.7821407e-07
4.5907397e-07
4.4061717e-07
4.2282082e-07
4.0566312e-07
4.3006203e-06
4.0948192e-06
3.900127e-06
3.7159202e-06
3.5416083e-06
3.3766325e-06
3.2204648e-06
3.0726039e-06
2.9325771e-06
2.7999363e-06
2.674258e-06
2.5551423e-06
2.4422108e-06
2.3351062e-06
2.2334913e-06
2.1370472e-06
2.0454739e-06
1.9584877e-06
1.8758214e-06
1.7972234e-06
1.7224564e-06
1.6512975e-06
1.5835365e-06
1.5189761e-06
1.4574308e-06
1.3987266e-06
1.3426998e-06
1.2891974e-06
1.2380755e-06
1.1891997e-06
1.1424438e-06
1.09769e-06
1.0548282e-06
1.0137554e-06
9.7437532e-07
9.3659825e-07
9.003404e-07
8.6552364e-07
8.3207504e-07
7.9992667e-07
7.6901516e-07
7.3928145e-07
7.1067046e-07
6.8313081e-07
6.5661461e-07
6.3107704e-07
6.0647631e-07
5.8277334e-07
5.599315e-07
5.379165e-07
5.1669613e-07
4.9624015e-07
4.7652006e-07
4.5750899e-07
4.3918154e-07
4.2151368e-07
4.0448261e-07
3.8806664e-07
4.0209556e-06
3.827468e-06
3.644433e-06
3.4712653e-06
3.3074105e-06
3.1523449e-06
3.0055711e-06
2.8666198e-06
2.7350459e-06
2.6104287e-06
2.4923706e-06
2.3804953e-06
2.2744471e-06
2.1738903e-06
2.0785074e-06
1.987999e-06
1.9020824e-06
1.8204907e-06
1.7429724e-06
1.6692905e-06
1.5992219e-06
1.5325561e-06
1.4690954e-06
1.4086538e-06
1.3510563e-06
1.2961388e-06
1.243747e-06
1.1937363e-06
1.145971e-06
1.100324e-06
1.0566763e-06
1.0149166e-06
9.7494056e-07
9.3665087e-07
8.9995655e-07
8.6477256e-07
8.3101964e-07
7.9862371e-07
7.6751571e-07
7.376312e-07
7.0891014e-07
6.8129645e-07
6.5473788e-07
6.2918568e-07
6.045943e-07
5.8092123e-07
5.5812677e-07
5.3617374e-07
5.1502735e-07
4.9465502e-07
4.7502615e-07
4.5611196e-07
3.9524165e-06
3.7600868e-06
3.5781713e-06
3.4060897e-06
3.2432933e-06
3.0892622e-06
2.9435037e-06
2.805552e-06
2.6749653e-06
2.5513258e-06
2.4342389e-06
2.3233302e-06
2.2182463e-06
2.1186532e-06
2.0242348e-06
1.934693e-06
1.8497458e-06
1.7691271e-06