/*--------------------------------*- C++ -*----------------------------------*\
| =========                 |                                                 |
| \\      /  F ield         | OpenFOAM: The Open Source CFD Toolbox           |
|  \\    /   O peration     | Version:  2506                                  |
|   \\  /    A nd           | Website:  www.openfoam.com                      |
|    \\/     M anipulation  |                                                 |
\*---------------------------------------------------------------------------*/
FoamFile
{
    version     2.0;
    format      ascii;
    arch        "LSB;label=32;scalar=64";
    class       volScalarField;
    location    "0.00017";
    object      Co;
}
// * * * * * * * * * * * * * * * * * * * * * * * * * * * * * * * * * * * * * //

dimensions      [0 0 0 0 0 0 0];

internalField   nonuniform List<scalar> 
13761
(
1.3471208e-05
1.2634607e-05
1.1837042e-05
1.1078304e-05
1.0357962e-05
9.6753844e-06
9.0297686e-06
8.4201648e-06
7.8455001e-06
7.3045986e-06
6.7965618e-06
1.309858e-05
1.2326325e-05
1.1585282e-05
1.08759e-05
1.0198391e-05
9.5527519e-06
8.9387758e-06
8.3560798e-06
7.8041207e-06
7.2822145e-06
6.7899257e-06
1.2899524e-05
1.2160791e-05
1.1449425e-05
1.0766157e-05
1.0111481e-05
9.4856722e-06
8.8887995e-06
8.3207452e-06
7.7812217e-06
7.2697844e-06
6.7862493e-06
1.3484332e-05
1.2747367e-05
1.2033854e-05
1.1344927e-05
1.0681496e-05
1.0044245e-05
9.4336373e-06
8.8499325e-06
8.2931987e-06
7.7633277e-06
7.2600496e-06
6.7833423e-06
1.3329062e-05
1.2616004e-05
1.1923978e-05
1.1254249e-05
1.0607857e-05
9.9856264e-06
9.3881713e-06
8.8159001e-06
8.2690298e-06
7.7475986e-06
7.2514768e-06
6.780777e-06
1.3190859e-05
1.2498807e-05
1.1825735e-05
1.1172993e-05
1.0541729e-05
9.9328815e-06
9.3471818e-06
8.7851607e-06
8.2471598e-06
7.7333407e-06
7.2436936e-06
6.7784451e-06
1.3754316e-05
1.3065513e-05
1.2392291e-05
1.1736258e-05
1.1098842e-05
1.0481269e-05
9.8845671e-06
9.3095678e-06
8.7569055e-06
8.2270254e-06
7.7201943e-06
7.2365061e-06
6.7762864e-06
1.3620531e-05
1.2950442e-05
1.2294317e-05
1.1653807e-05
1.1030388e-05
1.0425355e-05
9.8398108e-06
9.2746666e-06
8.730646e-06
8.2082844e-06
7.7079401e-06
7.2297979e-06
6.7742701e-06
1.3496482e-05
1.2843553e-05
1.2203149e-05
1.157695e-05
1.0966473e-05
1.0373063e-05
9.7978872e-06
9.2419262e-06
8.7059767e-06
8.1906537e-06
7.6963953e-06
7.2234689e-06
6.7723657e-06
1.4027004e-05
1.338054e-05
1.2743482e-05
1.2117658e-05
1.1504763e-05
1.0906346e-05
1.0323796e-05
9.7583289e-06
9.2109878e-06
8.6826329e-06
8.1739474e-06
7.6854427e-06
7.217458e-06
6.7705545e-06
1.3902027e-05
1.3271509e-05
1.264923e-05
1.203701e-05
1.1436561e-05
1.0849455e-05
1.0277113e-05
9.7207947e-06
9.1815917e-06
8.6604234e-06
8.158034e-06
7.6749976e-06
7.2117187e-06
6.7688221e-06
1.3784108e-05
1.3168481e-05
1.256003e-05
1.1960577e-05
1.1371832e-05
1.0795384e-05
1.0232682e-05
9.6850237e-06
9.1535419e-06
8.6392042e-06
8.1428114e-06
7.6649941e-06
7.2062158e-06
6.7671615e-06
1.3672725e-05
1.3071024e-05
1.247554e-05
1.1888077e-05
1.1310349e-05
1.0743957e-05
1.0190369e-05
9.6509129e-06
9.1267603e-06
8.6189216e-06
8.128243e-06
7.6554092e-06
7.2009378e-06
6.7655672e-06
1.4159188e-05
1.3567086e-05
1.2978469e-05
1.2395188e-05
1.1819037e-05
1.1251725e-05
1.0694857e-05
1.0149922e-05
9.6182687e-06
9.1010993e-06
8.5994642e-06
8.1142533e-06
7.6461959e-06
7.1958588e-06
6.7640295e-06
1.4045436e-05
1.3466462e-05
1.2890194e-05
1.2318457e-05
1.1753025e-05
1.1195603e-05
1.0647798e-05
1.0111108e-05
9.5869048e-06
9.0764176e-06
8.5807292e-06
8.100768e-06
7.6373059e-06
7.1909538e-06
6.7625437e-06
1.3936917e-05
1.337035e-05
1.2805776e-05
1.2244987e-05
1.1689743e-05
1.1141738e-05
1.0602579e-05
1.007377e-05
9.5566993e-06
9.0526221e-06
8.5626485e-06
8.0877405e-06
7.6287084e-06
7.1862053e-06
6.761103e-06
1.4387506e-05
1.3833135e-05
1.3278326e-05
1.2724852e-05
1.217448e-05
1.1628945e-05
1.1089927e-05
1.0559032e-05
1.0037775e-05
9.5275505e-06
9.0296337e-06
8.5451622e-06
8.075129e-06
7.6203783e-06
7.1816004e-06
6.7597068e-06
1.4276302e-05
1.3733667e-05
1.3190029e-05
1.2647121e-05
1.2106678e-05
1.1570413e-05
1.1039994e-05
1.0517022e-05
1.000301e-05
9.4993684e-06
9.0073863e-06
8.5282231e-06
8.0628999e-06
7.612293e-06
7.1771266e-06
6.758349e-06
1.4169745e-05
1.3638256e-05
1.3105239e-05
1.2572394e-05
1.2041425e-05
1.1514022e-05
1.0991837e-05
1.0476463e-05
9.9694135e-06
9.472106e-06
8.9858435e-06
8.5118051e-06
8.0510365e-06
7.6044423e-06
7.1727792e-06
6.7570271e-06
1.4585097e-05
1.4067797e-05
1.3546874e-05
1.3023947e-05
1.2500678e-05
1.1978738e-05
1.1459791e-05
1.0945476e-05
1.0437377e-05
9.9370053e-06
9.4457814e-06
8.9650214e-06
8.495922e-06
8.0395493e-06
7.5968339e-06
7.1685622e-06
6.7557441e-06
1.4476683e-05
1.3969845e-05
1.3458988e-05
1.294569e-05
1.2431569e-05
1.1918267e-05
1.1407428e-05
1.0900668e-05
1.0399564e-05
9.9056223e-06
9.4202665e-06
8.9448225e-06
8.4804998e-06
8.0283854e-06
7.5894336e-06
7.164457e-06
6.7544943e-06
1.4372411e-05
1.3875549e-05
1.3374302e-05
1.2870208e-05
1.2364848e-05
1.1859832e-05
1.1356779e-05
1.0857288e-05
1.0362921e-05
9.8751817e-06
9.3954954e-06
8.9251936e-06
8.4655e-06
8.0175181e-06
7.582224e-06
7.1604548e-06
1.4753176e-05
1.4271977e-05
1.3784641e-05
1.3292587e-05
1.2797305e-05
1.2300345e-05
1.1803288e-05
1.1307723e-05
1.0815233e-05
1.0327365e-05
9.8456183e-06
9.3714175e-06
8.9060981e-06
8.4508952e-06
8.0069286e-06
7.575193e-06
7.1565482e-06
1.4646937e-05
1.4175115e-05
1.369689e-05
1.3213638e-05
1.272681e-05
1.2237919e-05
1.1748516e-05
1.1260163e-05
1.0774423e-05
1.0292833e-05
9.816881e-06
9.3479907e-06
8.8875034e-06
8.4366625e-06
7.9966003e-06
7.5683299e-06
7.1527326e-06
1.4999419e-05
1.4544447e-05
1.4081592e-05
1.3612091e-05
1.3137281e-05
1.2658572e-05
1.217744e-05
1.1695403e-05
1.1214004e-05
1.0734782e-05
1.025926e-05
9.7889179e-06
9.3251769e-06
8.8693808e-06
8.4227794e-06
7.986518e-06
7.5616252e-06
7.1490021e-06
1.4891683e-05
1.4445476e-05
1.3991209e-05
1.3530076e-05
1.3063367e-05
1.2592461e-05
1.2118797e-05
1.1643861e-05
1.1169171e-05
1.0696248e-05
1.0226598e-05
9.7616919e-06
9.3029467e-06
8.8517073e-06
8.4092301e-06
7.9766704e-06
7.5550717e-06
7.1453527e-06
1.4788045e-05
1.4350195e-05
1.3904129e-05
1.3450994e-05
1.2992042e-05
1.2528613e-05
1.2062113e-05
1.1594002e-05
1.1125767e-05
1.0658911e-05
1.0194925e-05
9.7352691e-06
9.281355e-06
8.8345278e-06
8.3960488e-06
7.9670832e-06
7.548687e-06
1.5108638e-05
1.4688141e-05
1.4258281e-05
1.3820057e-05
1.3374584e-05
1.2923074e-05
1.2466827e-05
1.2007218e-05
1.1545676e-05
1.1083665e-05
1.0622666e-05
1.0164153e-05
9.7095775e-06
9.2603446e-06
8.8177982e-06
8.3832041e-06
7.957734e-06
7.5424564e-06
1.5004316e-05
1.4591567e-05
1.4169372e-05
1.3738683e-05
1.3300571e-05
1.2856218e-05
1.2406888e-05
1.1953923e-05
1.1498722e-05
1.1042727e-05
1.0587396e-05
1.0134187e-05
9.68454e-06
9.2398542e-06
8.801471e-06
8.3706584e-06
7.9485959e-06
7.5363621e-06
1.490345e-05
1.4498136e-05
1.4083289e-05
1.3659835e-05
1.322881e-05
1.279135e-05
1.2348689e-05
1.1902138e-05
1.1453067e-05
1.1002892e-05
1.0553049e-05
1.0104984e-05
9.6601222e-06
9.2198559e-06
8.7855242e-06
8.3583969e-06
7.9396587e-06
7.5303977e-06
1.5193645e-05
1.4805826e-05
1.4407646e-05
1.3999871e-05
1.3583382e-05
1.3159176e-05
1.2728361e-05
1.2292136e-05
1.1851781e-05
1.1408637e-05
1.0964097e-05
1.0519577e-05
1.0076504e-05
9.6362915e-06
9.2003249e-06
8.7699392e-06
8.3464051e-06
7.9309121e-06
7.524557e-06
1.5092209e-05
1.4711275e-05
1.4319955e-05
1.3918976e-05
1.3509188e-05
1.3091556e-05
1.2667152e-05
1.2237144e-05
1.1802779e-05
1.1365375e-05
1.0926296e-05
1.0486938e-05
1.0048713e-05
9.6130215e-06
9.1812396e-06
8.7546998e-06
8.3346713e-06
7.9223481e-06
1.5357287e-05
1.499394e-05
1.4619619e-05
1.4234894e-05
1.3840459e-05
1.3437133e-05
1.3025845e-05
1.2607633e-05
1.2183633e-05
1.1755066e-05
1.1323219e-05
1.0889436e-05
1.0455091e-05
1.0021577e-05
9.5902851e-06
9.1625802e-06
8.7397899e-06
8.3231837e-06
7.9139584e-06
1.5255685e-05
1.4898683e-05
1.4530724e-05
1.4152348e-05
1.3764221e-05
1.3367124e-05
1.2961957e-05
1.2549729e-05
1.2131542e-05
1.1708587e-05
1.1282128e-05
1.0853483e-05
1.0424006e-05
9.9950742e-06
9.5680628e-06
9.1443301e-06
8.7251977e-06
8.3119336e-06
7.9057368e-06
1.5497232e-05
1.5157622e-05
1.4806689e-05
1.4444826e-05
1.4072542e-05
1.3690466e-05
1.3299354e-05
1.2900075e-05
1.2493605e-05
1.2081018e-05
1.1663478e-05
1.1242222e-05
1.0818542e-05
1.0393777e-05
9.9692834e-06
9.5464243e-06
9.1265484e-06
8.7109708e-06
8.3009582e-06
7.897711e-06
1.5396604e-05
1.5062769e-05
1.4717664e-05
1.4361651e-05
1.3995218e-05
1.3618967e-05
1.3233622e-05
1.2840019e-05
1.2439103e-05
1.2031925e-05
1.1619619e-05
1.1203395e-05
1.0784527e-05
1.036433e-05
9.9441437e-06
9.5253182e-06
9.1091922e-06
8.6970758e-06
8.2902322e-06
7.8898628e-06
1.5299072e-05
1.4970786e-05
1.463129e-05
1.428092e-05
1.3920129e-05
1.3549496e-05
1.3169713e-05
1.2781593e-05
1.2386053e-05
1.198411e-05
1.1576876e-05
1.1165536e-05
1.0751337e-05
1.0335578e-05
9.9195823e-06
9.5046849e-06
9.0922156e-06
8.6834763e-06
8.2797279e-06
7.8821722e-06
1.551607e-05
1.5204485e-05
1.4881544e-05
1.4547447e-05
1.4202508e-05
1.3847158e-05
1.3481949e-05
1.3107545e-05
1.2724728e-05
1.2334389e-05
1.1937519e-05
1.1535202e-05
1.11286e-05
1.071894e-05
1.0307496e-05
9.8955784e-06
9.4845083e-06
9.0756037e-06
8.670161e-06
8.269437e-06
1.5419203e-05
1.5112684e-05
1.4794891e-05
1.4466002e-05
1.4126306e-05
1.3776212e-05
1.3416239e-05
1.3047033e-05
1.2669347e-05
1.2284045e-05
1.1892093e-05
1.1494547e-05
1.1092546e-05
1.0687296e-05
1.0280052e-05
9.872106e-06
9.4647666e-06
9.0593408e-06
8.6571179e-06
8.2593508e-06
1.5615561e-05
1.5325171e-05
1.5023536e-05
1.4710707e-05
1.438684e-05
1.4052203e-05
1.3707184e-05
1.335228e-05
1.2988106e-05
1.2615389e-05
1.2234969e-05
1.1847786e-05
1.145487e-05
1.1057339e-05
1.0656378e-05
1.0253222e-05
9.8491458e-06
9.4454442e-06
9.0434142e-06
8.6443372e-06
8.2494618e-06
1.551962e-05
1.5233844e-05
1.4936919e-05
1.4628876e-05
1.4309857e-05
1.3980113e-05
1.3639998e-05
1.3289994e-05
1.2930689e-05
1.2562786e-05
1.21871e-05
1.1804544e-05
1.1416129e-05
1.1022947e-05
1.0626157e-05
1.0226981e-05
9.8266771e-06
9.426525e-06
9.027811e-06
8.6318089e-06
8.2397629e-06
1.5696777e-05
1.5426423e-05
1.5145092e-05
1.4852707e-05
1.4549287e-05
1.4234954e-05
1.3909933e-05
1.3574566e-05
1.3229306e-05
1.2874719e-05
1.2511485e-05
1.2140391e-05
1.1762329e-05
1.1378285e-05
1.0989329e-05
1.0596604e-05
1.0201307e-05
9.8046809e-06
9.4079931e-06
9.0125189e-06
8.6195237e-06
8.2302469e-06
1.5857689e-05
1.5602196e-05
1.5336015e-05
1.5058965e-05
1.4770957e-05
1.4471993e-05
1.4162177e-05
1.3841718e-05
1.3510936e-05
1.317026e-05
1.2820237e-05
1.2461522e-05
1.2094879e-05
1.1721175e-05
1.1341374e-05
1.0956524e-05
1.0567747e-05
1.0176223e-05
9.7831797e-06
9.3898687e-06
8.9975548e-06
8.6074955e-06
8.220925e-06
1.576241e-05
1.5510798e-05
1.5248615e-05
1.4975672e-05
1.4691864e-05
1.439718e-05
1.4091707e-05
1.3775637e-05
1.3449268e-05
1.3113009e-05
1.2767385e-05
1.2413029e-05
1.2050682e-05
1.1681189e-05
1.1305492e-05
1.0924616e-05
1.0539664e-05
1.01518e-05
9.7622334e-06
9.3722024e-06
8.9829611e-06
8.5957589e-06
1.5907597e-05
1.5669905e-05
1.5422034e-05
1.5163707e-05
1.4894725e-05
1.4614971e-05
1.4324421e-05
1.4023146e-05
1.3711317e-05
1.3389217e-05
1.3057236e-05
1.2715875e-05
1.2365746e-05
1.2007568e-05
1.1642166e-05
1.1270455e-05
1.0893445e-05
1.0512218e-05
1.0127918e-05
9.7417389e-06
9.3549082e-06
8.9686675e-06
8.5842576e-06
1.5814226e-05
1.5580022e-05
1.5335762e-05
1.508116e-05
1.4816003e-05
1.4540168e-05
1.4253612e-05
1.3956394e-05
1.3648674e-05
1.333071e-05
1.3002873e-05
1.2665645e-05
1.2319618e-05
1.1965488e-05
1.1604056e-05
1.1236224e-05
1.0862976e-05
1.0485374e-05
1.0104548e-05
9.721676e-06
9.3379698e-06
8.9546609e-06
8.5729816e-06
1.594473e-05
1.5723477e-05
1.5492641e-05
1.5251864e-05
1.5000855e-05
1.4739397e-05
1.4467351e-05
1.4184662e-05
1.3891375e-05
1.3587629e-05
1.327367e-05
1.2949853e-05
1.2616636e-05
1.227459e-05
1.1924393e-05
1.1566826e-05
1.1202766e-05
1.0833179e-05
1.0459112e-05
1.0081674e-05
9.7020278e-06
9.3213732e-06
8.94093e-06
8.5619221e-06
1.6062441e-05
1.585336e-05
1.5635236e-05
1.5407652e-05
1.5170243e-05
1.4922712e-05
1.4664829e-05
1.4396445e-05
1.4117499e-05
1.3828016e-05
1.3528124e-05
1.3218051e-05
1.2898129e-05
1.2568804e-05
1.2230626e-05
1.1884252e-05
1.1530442e-05
1.1170053e-05
1.0804035e-05
1.0433412e-05
1.0059278e-05
9.6827815e-06
9.3051082e-06
8.927467e-06
8.5510731e-06
1.5970662e-05
1.576448e-05
1.5549381e-05
1.5324939e-05
1.5090788e-05
1.4846619e-05
1.4592197e-05
1.4327362e-05
1.4052038e-05
1.3766243e-05
1.3470087e-05
1.3163781e-05
1.2847645e-05
1.2522101e-05
1.2187682e-05
1.1845023e-05
1.1494868e-05
1.1138056e-05
1.0775513e-05
1.0408249e-05
1.0037341e-05
9.6639204e-06
9.2891611e-06
8.914261e-06
1.6076419e-05
1.5881369e-05
1.5677996e-05
1.5465824e-05
1.5244424e-05
1.5013424e-05
1.4772507e-05
1.4521432e-05
1.4260032e-05
1.3988222e-05
1.3706001e-05
1.3413467e-05
1.3110819e-05
1.2798355e-05
1.2476484e-05
1.2145718e-05
1.1806678e-05
1.1460083e-05
1.1106752e-05
1.0747597e-05
1.038361e-05
1.001585e-05
9.6454347e-06
9.2735244e-06
8.9013058e-06
1.6171687e-05
1.598692e-05
1.5794466e-05
1.5593808e-05
1.5384466e-05
1.5166006e-05
1.493805e-05
1.4700285e-05
1.4452457e-05
1.4194389e-05
1.3925982e-05
1.3647226e-05
1.3358209e-05
1.3059112e-05
1.2750218e-05
1.2431916e-05
1.2104704e-05
1.1769181e-05
1.1426052e-05
1.1076117e-05
1.0720266e-05
1.0359476e-05
9.99479e-06
9.6273113e-06
9.2581869e-06
8.8885929e-06
1.6257754e-05
1.6082392e-05
1.5900015e-05
1.5710067e-05
1.5512026e-05
1.5305412e-05
1.5089792e-05
1.4864783e-05
1.463006e-05
1.4385366e-05
1.4130515e-05
1.3865399e-05
1.3589999e-05
1.3304387e-05
1.3008729e-05
1.2703296e-05
1.2388458e-05
1.2064695e-05
1.173259e-05
1.1392829e-05
1.1046194e-05
1.069356e-05
1.0335884e-05
9.9741932e-06
9.6095786e-06
9.2431734e-06
8.8761428e-06
1.6336119e-05
1.6169252e-05
1.5996067e-05
1.5815975e-05
1.5628425e-05
1.5432895e-05
1.5228901e-05
1.5016006e-05
1.4793825e-05
1.4562027e-05
1.4320348e-05
1.4068597e-05
1.3806656e-05
1.353449e-05
1.3252161e-05
1.2959823e-05
1.2657728e-05
1.2346238e-05
1.2025811e-05
1.1697014e-05
1.1360514e-05
1.1017076e-05
1.066756e-05
1.0312904e-05
9.9541238e-06
9.592292e-06
9.2285311e-06
8.8639951e-06
1.6407321e-05
1.6248057e-05
1.6083187e-05
1.5912107e-05
1.5734229e-05
1.5548998e-05
1.5355892e-05
1.5154432e-05
1.4944175e-05
1.4724731e-05
1.4495769e-05
1.4257012e-05
1.4008261e-05
1.3749392e-05
1.3480364e-05
1.320122e-05
1.2912103e-05
1.2613255e-05
1.2305016e-05
1.1987832e-05
1.166225e-05
1.1328924e-05
1.0988603e-05
1.0642125e-05
1.0290416e-05
9.9344741e-06
9.57536e-06
9.2141828e-06
8.8520862e-06
1.6472378e-05
1.6319813e-05
1.6162379e-05
1.5999443e-05
1.5830395e-05
1.5654658e-05
1.5471673e-05
1.5280917e-05
1.5081909e-05
1.4874206e-05
1.4657415e-05
1.4431195e-05
1.4195269e-05
1.394943e-05
1.3693544e-05
1.3427558e-05
1.3151507e-05
1.2865523e-05
1.2569826e-05
1.2264747e-05
1.1950717e-05
1.1628268e-05
1.1298033e-05
1.0960746e-05
1.0617232e-05
1.0268397e-05
9.9152271e-06
9.558768e-06
9.2001171e-06
1.6532289e-05
1.6385535e-05
1.6234651e-05
1.6078987e-05
1.5917919e-05
1.5750845e-05
1.5577178e-05
1.5396367e-05
1.5207889e-05
1.5011256e-05
1.4806028e-05
1.4591805e-05
1.4368244e-05
1.4135065e-05
1.3892052e-05
1.3639058e-05
1.3376026e-05
1.3102979e-05
1.2820034e-05
1.2527403e-05
1.22254e-05
1.1914439e-05
1.1595038e-05
1.1267815e-05
1.0933488e-05
1.0592863e-05
1.0246833e-05
9.8963703e-06
9.5425058e-06
9.186325e-06
1.6588053e-05
1.6446213e-05
1.6300995e-05
1.6151732e-05
1.5997787e-05
1.5838534e-05
1.5673367e-05
1.5501707e-05
1.5323e-05
1.5136726e-05
1.4942396e-05
1.4739564e-05
1.4527832e-05
1.4306854e-05
1.4076338e-05
1.3836064e-05
1.3585881e-05
1.3325719e-05
1.305559e-05
1.27756e-05
1.2485951e-05
1.2186939e-05
1.1878965e-05
1.1562535e-05
1.1238248e-05
1.0906805e-05
1.0568999e-05
1.022571e-05
9.877891e-06
9.526563e-06
9.1727985e-06
1.6640644e-05
1.650283e-05
1.6362394e-05
1.621866e-05
1.6070976e-05
1.5918696e-05
1.5761196e-05
1.5597878e-05
1.5428162e-05
1.5251497e-05
1.5067359e-05
1.4875263e-05
1.4674759e-05
1.4465443e-05
1.4246967e-05
1.4019038e-05
1.3781423e-05
1.3533969e-05
1.3276593e-05
1.3009301e-05
1.2732187e-05
1.2445436e-05
1.2149337e-05
1.1844275e-05
1.1530735e-05
1.1209309e-05
1.0880681e-05
1.0545628e-05
1.0205013e-05
9.8597786e-06
9.5109305e-06
9.1595301e-06
1.6824537e-05
1.6691017e-05
1.6556344e-05
1.6419814e-05
1.6280741e-05
1.6138452e-05
1.5992291e-05
1.584162e-05
1.5685824e-05
1.55243e-05
1.5356469e-05
1.5181783e-05
1.4999718e-05
1.4809787e-05
1.4611541e-05
1.4404573e-05
1.4188527e-05
1.3963105e-05
1.3728076e-05
1.3483272e-05
1.3228607e-05
1.2964075e-05
1.2689756e-05
1.2405827e-05
1.2112563e-05
1.1810336e-05
1.1499618e-05
1.1180983e-05
1.0855099e-05
1.0522732e-05
1.0184731e-05
9.8420216e-06
9.4955988e-06
9.146512e-06
1.6872158e-05
1.6740112e-05
1.6607698e-05
1.64742e-05
1.6338919e-05
1.6201167e-05
1.6060278e-05
1.5915599e-05
1.5766496e-05
1.5612351e-05
1.5452567e-05
1.5286568e-05
1.5113802e-05
1.4933748e-05
1.4745919e-05
1.4549861e-05
1.4345168e-05
1.4131483e-05
1.3908502e-05
1.3675984e-05
1.3433757e-05
1.3181726e-05
1.2919876e-05
1.2648278e-05
1.2367098e-05
1.2076595e-05
1.1777129e-05
1.146916e-05
1.1153245e-05
1.0830043e-05
1.0500299e-05
1.0164851e-05
9.8246108e-06
9.4805604e-06
1.705305e-05
1.6920401e-05
1.6788938e-05
1.6657906e-05
1.652657e-05
1.6394215e-05
1.6260143e-05
1.6123672e-05
1.5984138e-05
1.5840894e-05
1.5693309e-05
1.5540763e-05
1.5382663e-05
1.5218438e-05
1.5047534e-05
1.486943e-05
1.4683638e-05
1.4489705e-05
1.4287222e-05
1.4075826e-05
1.3855212e-05
1.3625133e-05
1.338541e-05
1.3135939e-05
1.2876699e-05
1.2607747e-05
1.2329241e-05
1.2041428e-05
1.1744652e-05
1.1439362e-05
1.1126102e-05
1.0805513e-05
1.047833e-05
1.0145375e-05
9.8075471e-06
9.4658168e-06
1.7381673e-05
1.7241374e-05
1.7104734e-05
1.6970914e-05
1.683911e-05
1.6708549e-05
1.6578476e-05
1.6448158e-05
1.6316884e-05
1.6183961e-05
1.6048712e-05
1.5910476e-05
1.5768605e-05
1.5622468e-05
1.5471456e-05
1.5314976e-05
1.5152451e-05
1.4983335e-05
1.4807106e-05
1.4623274e-05
1.4431386e-05
1.4231029e-05
1.4021842e-05
1.380351e-05
1.3575782e-05
1.3338477e-05
1.3091479e-05
1.2834757e-05
1.2568365e-05
1.2292445e-05
1.2007233e-05
1.1713063e-05
1.1410369e-05
1.1099682e-05
1.0781629e-05
1.0456931e-05
1.0126398e-05
9.7909148e-06
9.4514401e-06
1.7593559e-05
1.74439e-05
1.7299715e-05
1.7160094e-05
1.7024173e-05
1.6891122e-05
1.6760138e-05
1.6630444e-05
1.6501293e-05
1.6371961e-05
1.6241734e-05
1.6109923e-05
1.5975853e-05
1.5838865e-05
1.5698318e-05
1.5553585e-05
1.5404053e-05
1.5249134e-05
1.5088257e-05
1.492087e-05
1.4746453e-05
1.456452e-05
1.4374612e-05
1.4176317e-05
1.3969266e-05
1.3753145e-05
1.3527699e-05
1.3292737e-05
1.3048139e-05
1.2793865e-05
1.2529957e-05
1.2256548e-05
1.1973865e-05
1.1682229e-05
1.138206e-05
1.1073875e-05
1.0758292e-05
1.0436016e-05
1.0107843e-05
9.7746466e-06
9.4373733e-06
1.8183584e-05
1.8002489e-05
1.7831011e-05
1.7668039e-05
1.7512514e-05
1.7363448e-05
1.7219891e-05
1.7080937e-05
1.6945721e-05
1.6813417e-05
1.6683227e-05
1.655438e-05
1.6426129e-05
1.6297748e-05
1.6168535e-05
1.6037801e-05
1.5904874e-05
1.5769102e-05
1.5629843e-05
1.5486472e-05
1.5338379e-05
1.5184973e-05
1.5025691e-05
1.4859983e-05
1.4687327e-05
1.4507234e-05
1.4319248e-05
1.4122953e-05
1.3917979e-05
1.3704006e-05
1.3480776e-05
1.3248091e-05
1.3005824e-05
1.2753927e-05
1.2492436e-05
1.2221473e-05
1.1941251e-05
1.1652081e-05
1.1354373e-05
1.1048631e-05
1.0735455e-05
1.0415542e-05
1.0089673e-05
9.7587109e-06
9.4235891e-06
1.9194292e-05
1.8946171e-05
1.8714418e-05
1.8497502e-05
1.8293998e-05
1.8102565e-05
1.7921949e-05
1.7750972e-05
1.7588525e-05
1.7433555e-05
1.7285067e-05
1.714212e-05
1.7003813e-05
1.6869286e-05
1.6737712e-05
1.6608296e-05
1.6480271e-05
1.6352892e-05
1.6225444e-05
1.6097219e-05
1.5967532e-05
1.5835718e-05
1.5701122e-05
1.5563109e-05
1.5421056e-05
1.5274357e-05
1.5122428e-05
1.4964694e-05
1.4800613e-05
1.4629667e-05
1.445136e-05
1.4265239e-05
1.4070886e-05
1.3867928e-05
1.3656043e-05
1.3434965e-05
1.3204493e-05
1.2964493e-05
1.2714912e-05
1.2455773e-05
1.2187189e-05
1.1909364e-05
1.1622599e-05
1.1327289e-05
1.1023926e-05
1.0713101e-05
1.0395494e-05
1.0071876e-05
9.7430974e-06
9.4100793e-06
2.1909607e-05
2.1460105e-05
2.1044223e-05
2.0659165e-05
2.0302387e-05
1.9971516e-05
1.966435e-05
1.937885e-05
1.911313e-05
1.8865424e-05
1.8634094e-05
1.8417611e-05
1.8214549e-05
1.8023573e-05
1.7843432e-05
1.7672947e-05
1.7511013e-05
1.7356584e-05
1.7208666e-05
1.7066322e-05
1.692865e-05
1.6794794e-05
1.6663934e-05
1.6535274e-05
1.6408051e-05
1.6281523e-05
1.6154973e-05
1.6027705e-05
1.5899036e-05
1.5768303e-05
1.5634853e-05
1.549805e-05
1.5357279e-05
1.5211937e-05
1.5061433e-05
1.4905205e-05
1.4742708e-05
1.4573416e-05
1.4396845e-05
1.4212536e-05
1.402007e-05
1.3819073e-05
1.3609217e-05
1.3390231e-05
1.3161911e-05
1.2924119e-05
1.2676789e-05
1.2419939e-05
1.2153673e-05
1.1878184e-05
1.1593761e-05
1.1300789e-05
1.0999748e-05
1.0691216e-05
1.0375861e-05
1.0054442e-05
9.7277966e-06
0.0001716013
0.00016350552
0.00015570226
0.0001594936
0.00016868521
0.00016432079
0.00014826103
0.00013432939
0.00012910463
0.00012557959
0.0001133856
9.4843888e-05
7.2488168e-05
4.8805633e-05
2.9727897e-05
1.9873459e-05
2.1470871e-05
2.7509103e-05
3.0403525e-05
3.1221119e-05
3.0841887e-05
2.9954598e-05
2.8944493e-05
2.7961103e-05
2.7043345e-05
2.6195e-05
2.5412002e-05
2.4689389e-05
2.4022418e-05
2.3406653e-05
2.283795e-05
2.2312535e-05
2.1826957e-05
2.1377924e-05
2.0962492e-05
2.0577874e-05
2.0221528e-05
1.9891078e-05
1.9584329e-05
1.9299244e-05
1.9033933e-05
1.8786645e-05
1.8555737e-05
1.8339684e-05
1.8137063e-05
1.7946541e-05
1.7766869e-05
1.7596872e-05
1.7435448e-05
1.7281552e-05
1.7134194e-05
1.6992437e-05
1.6855387e-05
1.6722186e-05
1.6592017e-05
1.6464091e-05
1.6337648e-05
1.6211949e-05
1.608628e-05
1.5959944e-05
1.5832265e-05
1.5702579e-05
1.557024e-05
1.5434618e-05
1.5295093e-05
1.5151064e-05
1.500195e-05
1.4847182e-05
1.4686217e-05
1.451854e-05
1.4343656e-05
1.4161108e-05
1.3970474e-05
1.3771379e-05
1.3563494e-05
1.3346545e-05
1.3120319e-05
1.2884671e-05
1.2639534e-05
1.2384913e-05
1.2120904e-05
1.1847691e-05
1.1565551e-05
1.1274859e-05
1.0976084e-05
1.066979e-05
1.0356634e-05
1.0037363e-05
9.7128026e-06
0.00014810033
0.00017141806
0.00016331157
0.00015544072
0.00015917659
0.00016844137
0.00016417311
0.00014815734
0.00013423055
0.00012900619
0.00012548637
0.00011331811
9.480116e-05
7.245799e-05
4.8775791e-05
2.9686776e-05
1.9800288e-05
2.1381998e-05
2.7418566e-05
3.0313276e-05
3.1131395e-05
3.0752778e-05
2.9866278e-05
2.8857028e-05
2.7874492e-05
2.6957545e-05
2.610996e-05
2.5327669e-05
2.460572e-05
2.3939375e-05
2.3324201e-05
2.2756057e-05
2.2231175e-05
2.1746102e-05
2.1297552e-05
2.0882589e-05
2.0498423e-05
2.0142514e-05
1.9812496e-05
1.950617e-05
1.9221503e-05
1.8956613e-05
1.8709745e-05
1.8479259e-05
1.8263634e-05
1.8061451e-05
1.7871381e-05
1.7692175e-05
1.7522659e-05
1.7361738e-05
1.7208365e-05
1.7061557e-05
1.6920378e-05
1.6783937e-05
1.6651378e-05
1.6521886e-05
1.6394678e-05
1.6268996e-05
1.6144102e-05
1.6019289e-05
1.5893861e-05
1.5767143e-05
1.5638478e-05
1.5507222e-05
1.5372741e-05
1.5234426e-05
1.5091676e-05
1.4943908e-05
1.4790561e-05
1.4631089e-05
1.4464975e-05
1.429173e-05
1.4110893e-05
1.3922046e-05
1.3724802e-05
1.3518834e-05
1.3303866e-05
1.3079678e-05
1.2846121e-05
1.2603115e-05
1.2350664e-05
1.2088854e-05
1.1817859e-05
1.1537948e-05
1.124948e-05
1.0952914e-05
1.0648805e-05
1.0337798e-05
1.0020626e-05
9.6981047e-06
7.4681243e-05
8.3608726e-05
0.00014802873
0.00017124844
0.00016301132
0.00015496666
0.00015860687
0.00016802266
0.00016396309
0.00014804944
0.00013415679
0.00012892409
0.0001254016
0.00011326435
9.4756019e-05
7.2419399e-05
4.8736251e-05
2.9643235e-05
1.9731432e-05
2.1288453e-05
2.7327803e-05
3.0224199e-05
3.1042866e-05
3.0664907e-05
2.9779304e-05
2.8771e-05
2.7789367e-05
2.687327e-05
2.6026482e-05
2.5244937e-05
2.4523683e-05
2.3857988e-05
2.324343e-05
2.2675868e-05
2.2151533e-05
2.1666985e-05
2.1218938e-05
2.0804454e-05
2.042075e-05
2.0065292e-05
1.9735708e-05
1.9429814e-05
1.9145577e-05
1.8881108e-05
1.8634659e-05
1.84046e-05
1.8189407e-05
1.7987664e-05
1.779804e-05
1.7619295e-05
1.7450257e-05
1.728983e-05
1.7136972e-05
1.6990703e-05
1.6850088e-05
1.671424e-05
1.6582309e-05
1.6453483e-05
1.6326976e-05
1.6202035e-05
1.6077928e-05
1.5953948e-05
1.5829404e-05
1.5703624e-05
1.5575951e-05
1.5445745e-05
1.531238e-05
1.5175241e-05
1.5033732e-05
1.4887274e-05
1.4735305e-05
1.4577285e-05
1.4412693e-05
1.4241041e-05
1.4061869e-05
1.3874751e-05
1.367931e-05
1.3475211e-05
1.3262168e-05
1.3039961e-05
1.2808437e-05
1.256751e-05
1.2317174e-05
1.2057507e-05
1.1788675e-05
1.1510933e-05
1.1224636e-05
1.0930229e-05
1.0628254e-05
1.0319345e-05
1.0004224e-05
9.6836968e-06
8.6685277e-05
9.5744935e-05
7.4557166e-05
8.3512362e-05
0.00014790419
0.00017115902
0.00016282881
0.00015457352
0.00015803937
0.00016758771
0.00016375209
0.00014794309
0.00013406888
0.00012883437
0.00012532644
0.00011325244
9.4737814e-05
7.2382798e-05
4.87121e-05
2.9614609e-05
1.9665763e-05
2.1196342e-05
2.7237382e-05
3.0135225e-05
3.0955113e-05
3.0578266e-05
2.9693684e-05
2.8686364e-05
2.7705676e-05
2.6790462e-05
2.59445e-05
2.5163729e-05
2.4443202e-05
2.3778186e-05
2.3164266e-05
2.2597309e-05
2.2073544e-05
2.1589535e-05
2.1142004e-05
2.0728015e-05
2.0344786e-05
1.9989789e-05
1.9660654e-05
1.9355196e-05
1.9071386e-05
1.8807348e-05
1.8561326e-05
1.8331693e-05
1.8116929e-05
1.7915622e-05
1.7726443e-05
1.7548154e-05
1.737959e-05
1.7219652e-05
1.7067301e-05
1.6921564e-05
1.6781507e-05
1.6646243e-05
1.6514928e-05
1.6386751e-05
1.6260928e-05
1.613671e-05
1.6013371e-05
1.5890202e-05
1.5766519e-05
1.5641651e-05
1.5514942e-05
1.5385756e-05
1.5253472e-05
1.5117478e-05
1.497718e-05
1.4831996e-05
1.4681369e-05
1.452476e-05
1.436165e-05
1.4191545e-05
1.4013989e-05
1.382856e-05
1.363487e-05
1.3432584e-05
1.3221416e-05
1.3001141e-05
1.2771598e-05
1.2532696e-05
1.2284421e-05
1.2026843e-05
1.1760118e-05
1.1484495e-05
1.1200315e-05
1.0908014e-05
1.0608123e-05
1.0301264e-05
9.988149e-06
9.6695714e-06
0.00015561196
0.00013536704
0.00010341551
8.6525838e-05
9.5759181e-05
7.4845667e-05
8.3489221e-05
0.00014761425
0.00017104677
0.00016263706
0.00015423884
0.00015759951
0.00016726628
0.00016359747
0.00014787416
0.00013401287
0.00012877289
0.00012527011
0.00011320824
9.4696383e-05
7.2352334e-05
4.8695658e-05
2.9593122e-05
1.9598878e-05
2.1106103e-05
2.7149006e-05
3.0049377e-05
3.0870905e-05
3.0494935e-05
2.9611074e-05
2.8604559e-05
2.7624715e-05
2.6710329e-05
2.5865139e-05
2.5085093e-05
2.4365239e-05
2.3700862e-05
2.3087538e-05
2.2521141e-05
2.1997913e-05
2.1514414e-05
2.1067365e-05
2.0653841e-05
2.0271058e-05
1.9916494e-05
1.9587784e-05
1.9282742e-05
1.8999341e-05
1.8735703e-05
1.8490085e-05
1.8260859e-05
1.8046504e-05
1.7845613e-05
1.7656861e-05
1.7479013e-05
1.7310899e-05
1.7151431e-05
1.699957e-05
1.6854341e-05
1.6714818e-05
1.6580116e-05
1.6449392e-05
1.6321837e-05
1.6196675e-05
1.6073157e-05
1.5950557e-05
1.5828173e-05
1.5705321e-05
1.5581333e-05
1.5455561e-05
1.5327369e-05
1.5196132e-05
1.5061242e-05
1.4922111e-05
1.4778164e-05
1.4628838e-05
1.4473593e-05
1.4311915e-05
1.4143314e-05
1.3967329e-05
1.3783534e-05
1.3591545e-05
1.3391022e-05
1.3181675e-05
1.2963277e-05
1.2735658e-05
1.2498721e-05
1.225245e-05
1.1996903e-05
1.173223e-05
1.1458669e-05
1.1176551e-05
1.0886302e-05
1.0588442e-05
1.0283583e-05
9.9724244e-06
0.00022253674
0.00021334082
0.00018756257
0.00016722374
0.00015629951
0.00013809919
0.00010788403
8.9694825e-05
9.6739037e-05
7.4990014e-05
8.3293072e-05
0.0001473531
0.00017095199
0.00016241402
0.00015376047
0.00015692913
0.00016676402
0.00016336546
0.00014777303
0.0001339468
0.00012870001
0.00012520223
0.00011318332
9.4677464e-05
7.2338312e-05
4.8687885e-05
2.9575042e-05
1.9538149e-05
2.1022819e-05
2.7070612e-05
2.9973275e-05
3.0794705e-05
3.041831e-05
2.9534506e-05
2.8528426e-05
2.7549143e-05
2.6635328e-05
2.5790679e-05
2.5011144e-05
2.4291775e-05
2.3627849e-05
2.3014954e-05
2.244897e-05
2.1926129e-05
2.1443005e-05
2.0996319e-05
2.0583145e-05
2.0200706e-05
1.9846476e-05
1.9518093e-05
1.9213382e-05
1.8930309e-05
1.8667003e-05
1.8421721e-05
1.8192834e-05
1.7978827e-05
1.7778296e-05
1.7589917e-05
1.7412452e-05
1.724474e-05
1.7085692e-05
1.6934273e-05
1.678951e-05
1.6650477e-05
1.6516292e-05
1.6386118e-05
1.6259147e-05
1.6134606e-05
1.6011746e-05
1.5889845e-05
1.5768203e-05
1.564614e-05
1.5522992e-05
1.539811e-05
1.5270859e-05
1.5140621e-05
1.5006795e-05
1.4868787e-05
1.4726023e-05
1.4577944e-05
1.4424014e-05
1.4263717e-05
1.4096562e-05
1.3922087e-05
1.373987e-05
1.3549519e-05
1.3350696e-05
1.3143109e-05
1.292652e-05
1.270076e-05
1.2465726e-05
1.2221392e-05
1.1967812e-05
1.1705126e-05
1.1433562e-05
1.1153442e-05
1.0865182e-05
1.0569292e-05
1.0266373e-05
9.9571147e-06
0.00027292193
0.00022465528
0.00020859088
0.00021421937
0.00022530005
0.00021600351
0.00018952571
0.00016900034
0.00015813443
0.0001403578
0.00011014097
9.0913065e-05
9.6888047e-05
7.5074633e-05
8.3094134e-05
0.00014696465
0.00017084916
0.0001621741
0.00015323625
0.00015614653
0.00016614109
0.00016306214
0.00014763656
0.00013385302
0.00012859813
0.00012510986
0.00011317761
9.467916e-05
7.2320169e-05
4.8679096e-05
2.9553995e-05
1.9480179e-05
2.0946325e-05
2.6996744e-05
2.9899252e-05
3.0719324e-05
3.0342572e-05
2.9459141e-05
2.8453681e-05
2.7475037e-05
2.6561827e-05
2.5717752e-05
2.4938749e-05
2.4219875e-05
2.3556427e-05
2.2943981e-05
2.237842e-05
2.1855982e-05
2.1373242e-05
2.0926928e-05
2.0514116e-05
2.0132025e-05
1.9778137e-05
1.9450092e-05
1.914571e-05
1.8862969e-05
1.8599997e-05
1.8355048e-05
1.8126504e-05
1.7912845e-05
1.771267e-05
1.7524657e-05
1.7347574e-05
1.7180258e-05
1.7021622e-05
1.6870637e-05
1.6726328e-05
1.6587777e-05
1.6454103e-05
1.6324465e-05
1.6198063e-05
1.6074122e-05
1.5951902e-05
1.5830681e-05
1.5709763e-05
1.5588467e-05
1.5466134e-05
1.5342117e-05
1.5215785e-05
1.5086522e-05
1.4953725e-05
1.4816807e-05
1.4675191e-05
1.4528325e-05
1.4375672e-05
1.4216713e-05
1.4050962e-05
1.3877958e-05