/*--------------------------------*- C++ -*----------------------------------*\
| =========                 |                                                 |
| \\      /  F ield         | OpenFOAM: The Open Source CFD Toolbox           |
|  \\    /   O peration     | Version:  2506                                  |
|   \\  /    A nd           | Website:  www.openfoam.com                      |
|    \\/     M anipulation  |                                                 |
\*---------------------------------------------------------------------------*/
FoamFile
{
    version     2.0;
    format      ascii;
    arch        "LSB;label=32;scalar=64";
    class       volScalarField;
    location    "2.2";
    object      T;
}
// * * * * * * * * * * * * * * * * * * * * * * * * * * * * * * * * * * * * * //

dimensions      [0 0 0 1 0 0 0];

internalField   nonuniform List<scalar> 
1375
(
245.66414
245.67598
245.6706
245.65229
245.63204
245.6152
245.64332
245.66256
245.67387
245.66787
245.64968
245.62994
245.61371
245.60219
245.59486
245.59063
245.58844
245.58741
245.58696
245.58675
245.5866
245.58639
245.58606
245.58568
245.5853
245.64204
245.66136
245.67214
245.66552
245.64736
245.62805
245.61235
245.60131
245.59434
245.59035
245.58828
245.5873
245.58682
245.58657
245.58637
245.58607
245.58569
245.58527
245.58491
245.58464
245.58451
245.58447
245.58449
245.58453
245.58457
245.58459
245.58463
245.64089
245.66028
245.67054
245.66334
245.64519
245.62624
245.611
245.60039
245.59376
245.59001
245.58808
245.58715
245.58668
245.58642
245.58617
245.58582
245.58538
245.58492
245.58454
245.58427
245.58413
245.58409
245.58411
245.58417
245.58423
245.58427
245.5843
245.58429
245.58426
245.58426
245.58434
245.5845
245.58463
245.58477
245.63964
245.65902
245.66878
245.66113
245.64308
245.62451
245.60971
245.59949
245.59317
245.58963
245.58782
245.58694
245.5865
245.58622
245.58595
245.58558
245.58513
245.58465
245.58426
245.58401
245.58388
245.58385
245.58385
245.58388
245.58391
245.58396
245.58402
245.58407
245.5841
245.5841
245.58409
245.58415
245.58428
245.58447
245.58469
245.58486
245.58488
245.58467
245.63809
245.65735
245.66666
245.6587
245.64084
245.62266
245.60827
245.59846
245.59251
245.58927
245.58767
245.58692
245.58653
245.58625
245.58594
245.58553
245.58504
245.58456
245.58417
245.5839
245.58376
245.58371
245.58369
245.58366
245.58363
245.58364
245.58372
245.58382
245.58392
245.58397
245.58396
245.58396
245.58401
245.58413
245.58437
245.58465
245.58475
245.58462
245.58437
245.5839
245.58333
245.63638
245.65537
245.66428
245.65616
245.6386
245.62086
245.6069
245.59745
245.59176
245.58872
245.5873
245.58672
245.58648
245.58631
245.586
245.58553
245.58499
245.58447
245.58405
245.58376
245.58358
245.58348
245.58343
245.58339
245.58334
245.58332
245.58338
245.5835
245.58364
245.58376
245.58379
245.58375
245.58381
245.58391
245.58407
245.58438
245.58453
245.58455
245.58442
245.58397
245.58336
245.58266
245.58202
245.58164
245.6347
245.65332
245.66185
245.65363
245.63639
245.61912
245.60561
245.59648
245.59099
245.58807
245.58672
245.58618
245.58598
245.58587
245.58566
245.58526
245.58476
245.58422
245.58377
245.58347
245.5833
245.5832
245.58313
245.58309
245.58304
245.58302
245.58303
245.58315
245.58334
245.58349
245.58354
245.5835
245.58349
245.58365
245.58391
245.58409
245.58431
245.58447
245.58436
245.58396
245.58336
245.58281
245.58236
245.58203
245.58173
245.58143
245.63321
245.65147
245.65962
245.65127
245.63432
245.61747
245.60434
245.5955
245.59023
245.58745
245.58618
245.5857
245.58554
245.58542
245.58517
245.58476
245.58426
245.58376
245.58333
245.58304
245.5829
245.58287
245.58285
245.58281
245.58275
245.58271
245.5827
245.5828
245.583
245.58319
245.58324
245.58319
245.58317
245.58331
245.58361
245.58392
245.58418
245.58432
245.58421
245.58386
245.58341
245.5829
245.5827
245.58237
245.58213
245.58177
245.58209
245.5788
245.63197
245.64998
245.65778
245.64923
245.63247
245.61601
245.60326
245.59471
245.58961
245.58693
245.5857
245.58521
245.58503
245.5849
245.58468
245.58431
245.58384
245.58338
245.58298
245.58269
245.58249
245.58237
245.58239
245.58247
245.5825
245.58248
245.58246
245.58254
245.58269
245.58291
245.58303
245.58299
245.58291
245.58299
245.58325
245.58365
245.5839
245.584
245.584
245.58377
245.58333
245.58292
245.58294
245.58274
245.5826
245.58216
245.58221
245.57891
245.57367
245.63083
245.64872
245.65619
245.6474
245.63077
245.61463
245.60223
245.59396
245.58904
245.58643
245.5852
245.5847
245.58449
245.58434
245.58412
245.58379
245.5834
245.58302
245.58271
245.58249
245.58238
245.58233
245.58229
245.58224
245.5822
245.5822
245.58222
245.58231
245.58241
245.58252
245.58273
245.58279
245.58271
245.58274
245.58297
245.58331
245.58369
245.58394
245.58391
245.58364
245.58323
245.58297
245.58304
245.58297
245.5829
245.58253
245.58239
245.57912
245.57367
245.62979
245.64765
245.65479
245.64572
245.62917
245.61331
245.60125
245.59326
245.58853
245.58601
245.58481
245.58428
245.58403
245.58385
245.5836
245.58329
245.58297
245.58268
245.58245
245.58228
245.58218
245.58216
245.58218
245.58221
245.58222
245.5822
245.58217
245.58214
245.58221
245.58232
245.58239
245.58244
245.58253
245.58257
245.58279
245.58314
245.58355
245.58376
245.5838
245.58361
245.58328
245.58302
245.58302
245.58297
245.58292
245.58269
245.58261
245.5793
245.57378
245.62895
245.64678
245.65359
245.64422
245.62772
245.61209
245.60029
245.59255
245.588
245.5856
245.58445
245.58393
245.58366
245.58344
245.58318
245.58288
245.5826
245.58238
245.58222
245.5821
245.58203
245.58197
245.58194
245.58196
245.582
245.58204
245.58205
245.58199
245.58194
245.58201
245.58215
245.58224
245.58232
245.5824
245.58259
245.5829
245.58327
245.58352
245.58364
245.58353
245.58328
245.583
245.58289
245.58282
245.58284
245.58274
245.5827
245.57938
245.57403
245.62815
245.64595
245.65243
245.64279
245.62638
245.61103
245.59952
245.592
245.5876
245.58528
245.58415
245.58363
245.58334
245.58306
245.58274
245.58242
245.58214
245.58195
245.58183
245.58176
245.58173
245.58173
245.58174
245.58175
245.58175
245.58171
245.58168
245.58169
245.58172
245.58172
245.58177
245.58191
245.58199
245.58207
245.58219
245.58244
245.58288
245.58319
245.58324
245.58325
245.58322
245.58297
245.58269
245.5825
245.58261
245.58265
245.58266
245.5794
245.57436
245.6274
245.6451
245.6512
245.64126
245.62492
245.60982
245.59863
245.59139
245.58719
245.58498
245.5839
245.58336
245.58304
245.58273
245.58236
245.58198
245.58167
245.58146
245.58134
245.58129
245.58128
245.58128
245.58129
245.58131
245.58133
245.58133
245.58129
245.58124
245.58125
245.58127
245.58127
245.58124
245.58132
245.58156
245.58184
245.58208
245.58235
245.58259
245.58278
245.58295
245.58303
245.58276
245.58243
245.58209
245.58227
245.58237
245.58254
245.57931
245.57469
245.62671
245.6442
245.6499
245.63969
245.62342
245.60856
245.59765
245.59067
245.58668
245.58459
245.58357
245.58304
245.58268
245.58233
245.58194
245.58156
245.58124
245.58102
245.58088
245.58081
245.58078
245.58076
245.58074
245.58073
245.58072
245.58073
245.58073
245.58071
245.58065
245.58061
245.58064
245.58072
245.58086
245.58104
245.58128
245.58156
245.58182
245.58205
245.58223
245.58245
245.58265
245.58246
245.58214
245.58164
245.58184
245.58208
245.5824
245.57911
245.5749
245.62609
245.6433
245.64861
245.63817
245.62201
245.60743
245.59684
245.59015
245.58638
245.58443
245.58344
245.58288
245.58245
245.582
245.58154
245.58113
245.58081
245.58061
245.5805
245.58044
245.58041
245.58037
245.58031
245.58026
245.58023
245.58022
245.58022
245.58019
245.58016
245.58013
245.58015
245.58026
245.5804
245.58054
245.58069
245.58089
245.58114
245.58148
245.58172
245.58193
245.58217
245.58215
245.58183
245.5813
245.58137
245.5818
245.58226
245.57885
245.57493
245.62542
245.64239
245.64735
245.63674
245.62072
245.60641
245.59613
245.5897
245.5861
245.58425
245.58333
245.58282
245.58242
245.58197
245.58146
245.58098
245.58058
245.5803
245.58014
245.58007
245.58006
245.58007
245.58005
245.58
245.57994
245.57988
245.57986
245.57986
245.57986
245.57986
245.57986
245.57991
245.57998
245.58013
245.5803
245.58052
245.58071
245.5809
245.58116
245.58144
245.58166
245.58179
245.58153
245.58111
245.58101
245.5815
245.58217
245.5786
245.57495
245.62465
245.64145
245.64616
245.63547
245.61963
245.60558
245.59551
245.58922
245.58574
245.58398
245.58309
245.58259
245.58219
245.58178
245.58134
245.58091
245.58054
245.58026
245.58006
245.57992
245.57982
245.57979
245.5798
245.57981
245.5798
245.57977
245.57974
245.57975
245.57976
245.57974
245.57972
245.57973
245.57979
245.5799
245.58004
245.58027
245.58046
245.58055
245.58077
245.581
245.58121
245.58139
245.58126
245.58096
245.58086
245.58131
245.58206
245.5783
245.57493
245.62386
245.64054
245.64506
245.63435
245.61873
245.60498
245.59519
245.58909
245.58566
245.58386
245.58292
245.58235
245.5819
245.58147
245.58104
245.58065
245.58033
245.58011
245.57997
245.57989
245.57983
245.57975
245.57967
245.57962
245.57961
245.57961
245.5796
245.57962
245.57965
245.57967
245.57967
245.57967
245.57969
245.57976
245.57984
245.58
245.58021
245.58032
245.58051
245.58067
245.58089
245.58105
245.58104
245.58083
245.5809
245.5813
245.58183
245.578
245.57481
245.62317
245.6397
245.64404
245.63332
245.61791
245.60443
245.59486
245.58893
245.58561
245.58388
245.58296
245.58238
245.58188
245.58138
245.58087
245.58042
245.58008
245.57985
245.57972
245.57967
245.57966
245.57965
245.57962
245.57958
245.57951
245.57946
245.57943
245.57943
245.57949
245.57957
245.57962
245.57966
245.57967
245.57971
245.57976
245.57985
245.57997
245.58016
245.58031
245.58047
245.58065
245.5808
245.58084
245.58073
245.5809
245.58132
245.5816
245.57776
245.57452
245.62247
245.63889
245.64304
245.63228
245.61707
245.60387
245.59457
245.58881
245.58559
245.58391
245.58303
245.58246
245.58196
245.58145
245.58094
245.58048
245.58012
245.57985
245.57966
245.57952
245.57943
245.5794
245.57941
245.5794
245.57938
245.57934
245.57932
245.57934
245.57941
245.57953
245.5796
245.57961
245.5796
245.57959
245.57966
245.5798
245.57991
245.58004
245.58015
245.58031
245.58042
245.58054
245.58059
245.5805
245.58077
245.58132
245.58145
245.57758
245.57413
245.62207
245.63827
245.64214
245.63122
245.61609
245.60314
245.59412
245.58862
245.58557
245.584
245.58316
245.58262
245.58214
245.58161
245.58107
245.58059
245.5802
245.57993
245.57974
245.57962
245.57952
245.57944
245.57935
245.57926
245.57919
245.57914
245.57911
245.57913
245.57919
245.57931
245.57948
245.57958
245.57958
245.5795
245.57951
245.57961
245.5798
245.57993
245.58
245.58005
245.58015
245.58022
245.58027
245.58022
245.58054
245.58113
245.58137
245.57747
245.57392
245.62178
245.63783
245.64146
245.63036
245.61528
245.60249
245.59367
245.58838
245.58552
245.58405
245.58326
245.58274
245.58226
245.58174
245.58121
245.58074
245.58037
245.58009
245.57989
245.57974
245.57964
245.57956
245.57946
245.57934
245.57922
245.57911
245.57904
245.579
245.57901
245.57907
245.57921
245.57937
245.5795
245.57952
245.57939
245.57932
245.57956
245.57977
245.5798
245.57975
245.57976
245.57983
245.5799
245.57985
245.58012
245.58074
245.58116
245.57739
245.57391
245.62132
245.63732
245.64071
245.62942
245.61439
245.6018
245.59322
245.58813
245.58542
245.58405
245.58332
245.58282
245.58235
245.58186
245.58137
245.58094
245.58057
245.58028
245.58005
245.57989
245.57977
245.57968
245.57959
245.57948
245.57934
245.57919
245.57909
245.57903
245.57902
245.57907
245.57915
245.57924
245.57929
245.57932
245.57936
245.57935
245.57929
245.57942
245.57954
245.57942
245.5793
245.57936
245.57946
245.57947
245.57967
245.58025
245.58081
245.57736
245.57401
245.61342
245.60101
245.59267
245.58781
245.58526
245.58398
245.5833
245.58282
245.58238
245.58194
245.58153
245.58116
245.58084
245.58057
245.58033
245.58012
245.57997
245.57986
245.57974
245.5796
245.57944
245.57927
245.57914
245.57908
245.57908
245.57914
245.57926
245.57932
245.57931
245.57923
245.5792
245.57924
245.57926
245.57922
245.57915
245.57902
245.57886
245.57888
245.579
245.57907
245.57925
245.5798
245.58043
245.57728
245.57428
245.58375
245.58314
245.5827
245.58228
245.58185
245.58148
245.58117
245.58095
245.58078
245.58062
245.58048
245.58031
245.58014
245.58
245.57984
245.57965
245.57943
245.57925
245.57916
245.57915
245.57922
245.57936
245.57948
245.57952
245.57941
245.57926
245.57915
245.57915
245.57911
245.57896
245.57871
245.57852
245.57851
245.5786
245.57869
245.5789
245.57939
245.58003
245.57721
245.57458
245.58099
245.58084
245.58074
245.58068
245.58059
245.58053
245.58045
245.58031
245.58012
245.57991
245.57968
245.57946
245.57929
245.57923
245.57926
245.57936
245.57951
245.57962
245.57963
245.57947
245.57922
245.57903
245.57893
245.57879
245.57857
245.57838
245.57829
245.57829
245.57837
245.57865
245.57905
245.57965
245.57715
245.5748
245.58033
245.58031
245.58035
245.58036
245.58028
245.5801
245.57988
245.57966
245.5795
245.57938
245.57934
245.57939
245.57948
245.57954
245.57956
245.57945
245.57924
245.579
245.5788
245.57862
245.57846
245.57835
245.57822
245.57809
245.57805
245.57845
245.57887
245.57928
245.57687
245.57493
245.58015
245.58011
245.57996
245.57978
245.5796
245.57946
245.57941
245.57939
245.57941
245.57945
245.57938
245.57925
245.57905
245.57883
245.57867
245.57854
245.57843
245.57834
245.57819
245.57796
245.57786
245.57824
245.57877
245.5789
245.57636
245.57514
245.57948
245.57936
245.57932
245.57931
245.57927
245.57922
245.57912
245.57895
245.57872
245.57853
245.57843
245.57838
245.57835
245.57829
245.57813
245.5779
245.57782
245.57808
245.57863
245.5786
245.57595
245.57524
245.57907
245.57903
245.57888
245.57871
245.57855
245.57838
245.5782
245.57811
245.57814
245.5782
245.57817
245.57799
245.57779
245.57777
245.57797
245.57832
245.57836
245.57556
245.57507
245.57839
245.57809
245.5779
245.5778
245.57781
245.57789
245.57799
245.57799
245.57783
245.57762
245.57757
245.57775
245.57792
245.57806
245.57515
245.5746
245.57757
245.5774
245.57744
245.57759
245.57773
245.57774
245.57762
245.5774
245.57735
245.5775
245.57763
245.57773
245.5749
245.57384
245.57727
245.57743
245.57749
245.57743
245.57723
245.57711
245.57729
245.57752
245.57763
245.57477
245.57376
245.57724
245.57726
245.57713
245.57696
245.57716
245.57742
245.57763
245.57484
245.57374
245.57705
245.57696
245.57713
245.57734
245.57764
245.57482
245.57347
245.57696
245.57717
245.57731
245.57764
245.57488
245.5733
245.57728
245.57751
245.57481
245.57336
245.57722
245.57461
245.57338
245.57431
245.57324
)
;

boundaryField
{
    Side
    {
        type            empty;
    }
    Inlet
    {
        type            totalTemperature;
        gamma           1.4;
        T0              uniform 250;
        value           nonuniform List<scalar> 
32
(
245.58076
245.58076
245.58074
245.58071
245.58068
245.58066
245.58064
245.58062
245.58061
245.58062
245.58062
245.58062
245.58063
245.58064
245.58063
245.58061
245.58059
245.58056
245.58053
245.58048
245.58041
245.58035
245.58033
245.58034
245.58036
245.58034
245.58032
245.58035
245.58042
245.58045
245.58043
245.58039
)
;
    }
    Airfoil
    {
        type            zeroGradient;
    }
    Outlet
    {
        type            inletOutlet;
        inletValue      nonuniform List<scalar> 0();
        value           nonuniform List<scalar> 0();
    }
    procBoundary4to3
    {
        type            processor;
        value           nonuniform List<scalar> 
57
(
245.66627
245.67863
245.67377
245.65521
245.63429
245.61674
245.60315
245.60315
245.59544
245.59098
245.58868
245.58766
245.58726
245.58713
245.58708
245.58695
245.58668
245.5863
245.5859
245.58501
245.58501
245.58481
245.58471
245.58465
245.58467
245.58474
245.58477
245.58477
245.58463
245.58463
245.5846
245.58457
245.58462
245.58477
245.58487
245.58494
245.58486
245.58486
245.5849
245.58486
245.58466
245.5843
245.5843
245.58383
245.58328
245.58263
245.58263
245.58191
245.5814
245.58147
245.58147
245.58113
245.582
245.582
245.57879
245.57382
245.57382
)
;
    }
    procBoundary4to5
    {
        type            processor;
        value           nonuniform List<scalar> 
64
(
245.63674
245.6399
245.6284
245.6284
245.61255
245.6003
245.59211
245.58736
245.58491
245.58491
245.58364
245.58295
245.58245
245.582
245.58158
245.58123
245.58123
245.58095
245.58069
245.58053
245.58043
245.58043
245.58052
245.58039
245.58021
245.58015
245.58015
245.58033
245.58001
245.57978
245.57961
245.57961
245.57948
245.57931
245.57914
245.57914
245.57913
245.57892
245.57872
245.57872
245.57837
245.57793
245.57793
245.57754
245.57718
245.57709
245.57709
245.57694
245.5771
245.5771
245.57694
245.57708
245.57708
245.57691
245.57691
245.57688
245.57727
245.57727
245.57725
245.57725
245.57704
245.57704
245.57402
245.57297
)
;
    }
    procBoundary4to11
    {
        type            processor;
        value           nonuniform List<scalar> 
26
(
245.64352
245.64184
245.64032
245.63886
245.63731
245.63582
245.6345
245.63334
245.63229
245.6312
245.63009
245.62907
245.62808
245.62715
245.62635
245.6257
245.62508
245.62436
245.62364
245.623
245.62228
245.62186
245.62156
245.62107
245.64494
245.64494
)
;
    }
    procBoundary4to12
    {
        type            processor;
        value           uniform 245.6208;
    }
}


// ************************************************************************* //
