/*--------------------------------*- C++ -*----------------------------------*\
| =========                 |                                                 |
| \\      /  F ield         | OpenFOAM: The Open Source CFD Toolbox           |
|  \\    /   O peration     | Version:  2506                                  |
|   \\  /    A nd           | Website:  www.openfoam.com                      |
|    \\/     M anipulation  |                                                 |
\*---------------------------------------------------------------------------*/
FoamFile
{
    version     2.0;
    format      ascii;
    arch        "LSB;label=32;scalar=64";
    class       volScalarField;
    location    "0.65";
    object      nut;
}
// * * * * * * * * * * * * * * * * * * * * * * * * * * * * * * * * * * * * * //

dimensions      [0 2 -1 0 0 0 0];

internalField   nonuniform List<scalar> 
1375
(
0.19247551
0.19363588
0.19171976
0.19236945
0.19350512
0.19128951
0.19163544
0.19226778
0.1933748
0.19101395
0.19122102
0.19155611
0.19217416
0.19324642
0.19082186
0.19095485
0.19115564
0.19148128
0.19208662
0.19312399
0.19068106
0.19076853
0.1908979
0.1910933
0.19141074
0.1920042
0.19300984
0.19057427
0.19063207
0.19071702
0.19084316
0.19103379
0.19134437
0.19192476
0.19289953
0.19048902
0.19052861
0.19058448
0.19066716
0.1907905
0.19097681
0.19128084
0.19185045
0.19279338
0.19041797
0.19044583
0.19048403
0.19053818
0.19061877
0.19073972
0.1909221
0.19121984
0.19178016
0.19269429
0.19035627
0.19037677
0.19040358
0.19044046
0.19049311
0.19057184
0.19069065
0.1908697
0.19116185
0.19171331
0.19259497
0.19030471
0.19031648
0.19033631
0.19036222
0.19039788
0.19044919
0.19052631
0.19064326
0.19081928
0.19110655
0.19165017
0.19250168
0.19026104
0.19026608
0.19027729
0.19029649
0.19032161
0.19035613
0.19040635
0.19048205
0.19059739
0.19077067
0.19105352
0.19158963
0.19241167
0.19022354
0.19022778
0.19023856
0.19025718
0.19028157
0.1903151
0.19036449
0.19043895
0.19055277
0.19072373
0.19100271
0.19153215
0.19231997
0.19018906
0.19018619
0.19018979
0.19020028
0.19021836
0.19024204
0.19027478
0.19032351
0.19039697
0.1905093
0.19067829
0.19095409
0.19147721
0.1922342
0.19016248
0.19015194
0.19014886
0.1901521
0.19016239
0.19017994
0.19020297
0.19023512
0.19028334
0.19035603
0.19046701
0.19063426
0.19090756
0.19142404
0.1921583
0.19013416
0.1901261
0.19011473
0.1901114
0.19011461
0.19012475
0.19014175
0.19016426
0.19019603
0.19024386
0.190316
0.19042584
0.19059161
0.19086286
0.19137266
0.19208885
0.19013392
0.19011417
0.19009823
0.19008891
0.19007734
0.19007376
0.19007717
0.1900872
0.19010364
0.19012582
0.19015738
0.19020496
0.19027675
0.19038566
0.19055023
0.19081965
0.19132318
0.19201749
0.19013007
0.19010014
0.19007868
0.19006176
0.19005095
0.19003971
0.19003591
0.19003958
0.19004955
0.19006546
0.1900875
0.19011901
0.19016648
0.19023816
0.19034629
0.19050993
0.19077753
0.1912755
0.19194487
0.19012169
0.1900941
0.19006458
0.19004174
0.19002451
0.19001219
0.19000168
0.18999771
0.19000156
0.19001153
0.19002704
0.19004913
0.19008077
0.19012829
0.19020012
0.19030763
0.19047066
0.19073655
0.19122975
0.19188022
0.19020733
0.19013701
0.19008706
0.19005596
0.19002694
0.19000312
0.18998585
0.18997249
0.18996278
0.18995866
0.18996249
0.18997245
0.1899878
0.19001007
0.19004202
0.19008972
0.19016183
0.19026881
0.19043137
0.19069515
0.19118466
0.19179748
0.024741648
0.02432042
0.02382427
0.023282916
0.022780422
0.022413705
0.022195721
0.021993937
0.021665009
0.021210177
0.020736467
0.02034187
0.020034972
0.019734078
0.019346689
0.018868169
0.018390866
0.018027192
0.017755174
0.017420986
0.016980391
0.016546516
0.016232076
0.027677766
0.027292459
0.026772596
0.026179228
0.025638385
0.025280472
0.025121864
0.024994429
0.024739875
0.024364096
0.023967321
0.023650591
0.023383631
0.023043545
0.022598033
0.022124375
0.021720173
0.021372179
0.021022204
0.020623904
0.020154375
0.019652248
0.019167341
0.031187315
0.030610621
0.029817364
0.028927151
0.02808093
0.02736796
0.026838691
0.026441395
0.026087286
0.025712238
0.025268726
0.024784191
0.024355418
0.023982333
0.023523528
0.022858271
0.022296256
0.022151315
0.022329057
0.022628516
0.022718146
0.022394679
0.022047129
0.037968951
0.03758002
0.036924524
0.036217636
0.035640618
0.035258428
0.03512833
0.035261955
0.035576024
0.035929057
0.036169621
0.036232402
0.036333019
0.036585365
0.036784284
0.03650034
0.036120455
0.036418311
0.037265979
0.038568074
0.039430472
0.039767453
0.039520461
0.050599171
0.050782678
0.050651421
0.050446811
0.050393332
0.050589441
0.051061091
0.051813628
0.052773059
0.053776672
0.054647985
0.05529485
0.05591651
0.056638985
0.057237493
0.057007058
0.056367882
0.05654653
0.057456439
0.058766008
0.059795197
0.06009622
0.059733938
0.067083318
0.067734272
0.068078468
0.068324638
0.068666181
0.06918882
0.069923317
0.070922936
0.072157724
0.073471074
0.074692495
0.075734051
0.076700523
0.07769469
0.078515867
0.078305891
0.07719741
0.076628666
0.076812757
0.077211403
0.077133599
0.076671351
0.076503046
0.084513549
0.08532476
0.086002779
0.086690652
0.087431179
0.088198549
0.088995366
0.089971264
0.091220883
0.092628147
0.094026947
0.095318695
0.096517388
0.097692511
0.098735352
0.098815525
0.097578905
0.096265304
0.09528922
0.094244849
0.092851491
0.091799745
0.091744986
0.10136462
0.10203804
0.10294247
0.10411645
0.10538774
0.10657062
0.10751903
0.10841799
0.10956391
0.11094516
0.11240483
0.11381834
0.11513501
0.1163948
0.11758354
0.11809548
0.1172066
0.11569874
0.1140351
0.11197925
0.10958117
0.10785046
0.10753481
0.11711428
0.11743291
0.11848231
0.12011156
0.12192725
0.12369874
0.12511108
0.12606321
0.12707159
0.12831678
0.12970023
0.13108582
0.13238306
0.13364063
0.13482251
0.13559606
0.13525239
0.13415134
0.13260409
0.13044081
0.12778579
0.12564746
0.12495169
0.12547409
0.1317127
0.13156828
0.13259004
0.13437197
0.13684442
0.1393034
0.14102688
0.14233984
0.14327773
0.14426497
0.14541234
0.14662787
0.14780807
0.14893295
0.15000854
0.15076629
0.15082636
0.15035951
0.14943746
0.14797008
0.14612032
0.1445501
0.14396777
0.14436833
0.14517435
0.14455259
0.1453875
0.14715256
0.14995682
0.15294843
0.15495022
0.15640119
0.15742487
0.15809078
0.15888224
0.15982286
0.16079692
0.16173924
0.16260209
0.16324046
0.16352659
0.16350358
0.16316617
0.16255996
0.16189759
0.16142954
0.16131478
0.16151884
0.15651673
0.15712958
0.15875426
0.16136228
0.1643563
0.16640686
0.16785901
0.16883029
0.16921846
0.16966105
0.17029684
0.17102736
0.17176638
0.17245067
0.17301547
0.17340836
0.17362093
0.17364527
0.173565
0.17355385
0.17369259
0.17393798
0.17414142
0.16733814
0.16775089
0.16915957
0.17116824
0.17356756
0.17533597
0.17667281
0.1773402
0.17755537
0.17781718
0.17821824
0.17871702
0.17926057
0.1797968
0.18028336
0.18067956
0.18096878
0.18115476
0.18128723
0.18146178
0.18169383
0.18192917
0.18204434
0.17654809
0.17676703
0.17781082
0.17926392
0.18078323
0.18216101
0.1829867
0.18332322
0.18353168
0.18376792
0.18405703
0.18438587
0.18474646
0.18512552
0.18549897
0.1858315
0.18610772
0.18633941
0.1865442
0.1867351
0.18688567
0.18699234
0.18705218
0.18358192
0.18375236
0.18436462
0.18523926
0.18613413
0.18684073
0.18726385
0.18750385
0.18771671
0.18795924
0.18821433
0.18844981
0.1886712
0.18890749
0.1891696
0.18942638
0.18963696
0.1897926
0.18992438
0.19007188
0.19018973
0.19024426
0.19027027
0.1880619
0.18824862
0.18861356
0.18909629
0.18957113
0.18992905
0.19015715
0.19032997
0.19051898
0.1907408
0.19096887
0.19116867
0.19134317
0.19152732
0.19174073
0.19194766
0.1920877
0.19214173
0.1921508
0.19221559
0.19235018
0.19246768
0.19254402
0.19259014
0.19035662
0.19052983
0.19078287
0.1910957
0.191407
0.19165703
0.19183745
0.19198669
0.1921446
0.19232249
0.1925062
0.19267841
0.1928406
0.19300958
0.19319397
0.19336278
0.19346186
0.19347317
0.19343547
0.19343986
0.1935583
0.19371932
0.19383805
0.19390877
0.191192
0.19131381
0.19151747
0.19178497
0.19206437
0.19230451
0.19248878
0.19263551
0.19276996
0.1929039
0.19303731
0.19316916
0.19330023
0.1934326
0.19356807
0.19369169
0.19378248
0.19382814
0.19383628
0.19384487
0.19390487
0.19400196
0.19410892
0.19421183
0.19126833
0.19135068
0.1915245
0.19176385
0.19201572
0.19223634
0.19241056
0.19254912
0.19266628
0.19276801
0.19286044
0.1929554
0.19305745
0.19315569
0.19324524
0.19333387
0.193421
0.19349528
0.19354551
0.19356628
0.19357743
0.19359956
0.19365015
0.1937316
0.19381543
0.19102196
0.19110151
0.19124313
0.19142291
0.19160489
0.19176649
0.19190372
0.19202223
0.19212515
0.19221105
0.19228167
0.19234871
0.19242267
0.19249975
0.19257431
0.19265258
0.19273793
0.19281915
0.19287671
0.19289192
0.19288631
0.19289507
0.192931
0.19300066
0.19309163
0.19059799
0.19069197
0.1908048
0.19092174
0.19103105
0.19113369
0.19123443
0.1913332
0.19142447
0.19150371
0.19156817
0.19162496
0.19168432
0.19175015
0.19181941
0.19189043
0.19196476
0.19203666
0.19209678
0.19213657
0.19215817
0.19217277
0.19218909
0.19223948
0.19231235
0.1900774
0.19018246
0.19028207
0.19036742
0.19044101
0.19051463
0.19059734
0.19068619
0.19077346
0.19085584
0.19092767
0.19098865
0.19104494
0.1911054
0.19117497
0.1912446
0.19130591
0.19136153
0.19141592
0.19146469
0.1915078
0.19154348
0.19157459
0.19160429
0.19164678
0.19170655
0.18957908
0.18968865
0.18978794
0.18986988
0.18993909
0.19000764
0.19008614
0.19017253
0.19025914
0.19034198
0.19041724
0.1904849
0.19054809
0.19061155
0.19067836
0.19074552
0.19080582
0.1908538
0.19089785
0.19094921
0.1910045
0.19105212
0.19109329
0.1911281
0.19116185
0.19120391
0.18917764
0.18928824
0.1893907
0.18947888
0.1895556
0.18962928
0.18970815
0.18979238
0.18987515
0.18995409
0.19002969
0.19010322
0.19017415
0.19024376
0.1903126
0.19037671
0.19043901
0.19049618
0.19054499
0.19058983
0.19063746
0.19068909
0.19073905
0.19077881
0.19081442
0.19084788
0.18888533
0.18899267
0.1890943
0.18918665
0.18926996
0.18934896
0.189429
0.18951137
0.18959277
0.18967103
0.18974632
0.1898198
0.18989143
0.18995966
0.19002742
0.19009492
0.19016085
0.19022327
0.1902774
0.19032657
0.19037338
0.19042619
0.19047736
0.19051805
0.19054787
0.19056855
0.19058113
0.18878615
0.18888371
0.18897503
0.18906036
0.18914254
0.18922422
0.18930637
0.18938821
0.18946749
0.18954308
0.18961433
0.1896813
0.18974663
0.18981305
0.18988415
0.18995561
0.19002153
0.19007818
0.19012612
0.1901723
0.19022167
0.19026922
0.19030639
0.19033515
0.1903565
0.19037609
0.18863578
0.18873007
0.1888207
0.18890871
0.18899516
0.18908023
0.18916347
0.1892439
0.18932105
0.1893961
0.18946818
0.18953752
0.18960534
0.18967229
0.189741
0.18980905
0.1898719
0.18992677
0.1899757
0.19002125
0.1900655
0.19010896
0.19014867
0.19018342
0.19021548
0.19024464
0.19027568
0.18852967
0.18862439
0.1887155
0.18880492
0.18889257
0.18897827
0.18906215
0.189144
0.18922271
0.1892983
0.18937005
0.18943844
0.18950529
0.18957106
0.18963511
0.18969717
0.1897565
0.18981054
0.18986157
0.18990871
0.18995221
0.18999216
0.19002968
0.19006665
0.19010206
0.19013765
0.19017195
0.18845596
0.18855303
0.18864628
0.18873653
0.18882449
0.1889102
0.18899406
0.18907535
0.18915288
0.18922774
0.18929904
0.18936742
0.18943345
0.18949764
0.18955912
0.18961779
0.18967368
0.18972544
0.18977488
0.18982192
0.18986567
0.18990844
0.18994943
0.18998957
0.19002824
0.19006544
0.19010079
0.1884035
0.18850166
0.18859556
0.1886857
0.1887729
0.18885803
0.18894083
0.18902077
0.1890972
0.18917065
0.18924094
0.18930943
0.18937638
0.18944063
0.18950173
0.18955942
0.18961358
0.18966518
0.18971444
0.18976237
0.18980862
0.18985301
0.18989641
0.18993763
0.18997747
0.19001496
0.19005058
0.18836618
0.1884651
0.18856
0.18865085
0.18873763
0.18882157
0.18890366
0.18898389
0.18906106
0.18913334
0.18920278
0.18927043
0.18933639
0.18939961
0.18945962
0.18951628
0.18956982
0.18962168
0.1896717
0.18971941
0.18976496
0.18980934
0.18985282
0.18989557
0.18993755
0.18997791
0.19001651
0.18843602
0.18853123
0.18862377
0.18871283
0.18879849
0.18888195
0.18896318
0.18904125
0.18911425
0.18918202
0.18924591
0.18930753
0.18936842
0.18942857
0.18948716
0.18954354
0.18959749
0.18964876
0.18969687
0.18974207
0.18978542
0.1898277
0.18986926
0.18991027
0.18995004
0.1899881
0.18841479
0.18850948
0.18860142
0.18869003
0.18877516
0.1888572
0.18893645
0.18901298
0.18908623
0.18915578
0.18922193
0.18928477
0.18934641
0.18940645
0.18946464
0.18952014
0.18957299
0.18962352
0.18967151
0.18971746
0.18976166
0.18980437
0.18984594
0.1898865
0.18992596
0.18996401
0.18839994
0.18849492
0.18858651
0.18867463
0.18875921
0.18884031
0.18891854
0.18899445
0.18906803
0.18913841
0.18920458
0.18926714
0.18932761
0.18938634
0.18944352
0.18949896
0.18955207
0.18960282
0.18965131
0.18969786
0.18974302
0.1897868
0.18982927
0.18987028
0.1899097
0.18994737
0.18848564
0.18857666
0.18866476
0.18874969
0.18883113
0.18890924
0.18898411
0.18905601
0.18912495
0.189191
0.18925491
0.18931639
0.18937569
0.18943269
0.18948746
0.18954004
0.1895905
0.18963904
0.18968558
0.18973035
0.18977354
0.18981529
0.18985579
0.18989506
0.18993316
0.18848077
0.18857127
0.18865886
0.18874344
0.18882456
0.18890247
0.18897699
0.18904825
0.18911678
0.18918295
0.18924706
0.18930894
0.1893683
0.18942499
0.18947895
0.18953068
0.18958065
0.18962908
0.18967611
0.18972165
0.1897656
0.1898079
0.18984848
0.18988735
0.18992462
0.18848329
0.18857311
0.1886599
0.1887435
0.18882408
0.18890123
0.18897526
0.18904675
0.1891158
0.1891822
0.18924597
0.18930689
0.18936512
0.1894209
0.18947466
0.1895267
0.18957703
0.18962566
0.18967263
0.18971795
0.18976161
0.18980362
0.18984402
0.1898829
0.18992036
0.18858199
0.18866832
0.18875109
0.18883052
0.18890678
0.18898054
0.18905189
0.18912071
0.18918694
0.18925037
0.18931099
0.189369
0.18942457
0.18947804
0.18952961
0.18957942
0.18962768
0.18967447
0.18971978
0.18976363
0.18980599
0.18984685
0.1898862
0.18992407
0.188597
0.18868286
0.18876536
0.18884447
0.18892056
0.18899381
0.18906436
0.18913233
0.18919771
0.18926059
0.18932109
0.18937922
0.18943503
0.18948864
0.18954014
0.18958975
0.1896377
0.18968416
0.18972926
0.18977302
0.1898154
0.18985636
0.18989588
0.18993397
0.18870782
0.1887889
0.18886699
0.18894204
0.18901429
0.18908381
0.18915077
0.18921534
0.18927768
0.18933785
0.18939584
0.18945162
0.1895052
0.18955669
0.18960628
0.18965416
0.1897005
0.1897454
0.18978888
0.18983097
0.18987171
0.18991114
0.18994929
0.18882503
0.18890145
0.18897502
0.18904602
0.18911443
0.18918032
0.1892438
0.18930494
0.18936392
0.18942083
0.18947575
0.18952879
0.18958003
0.18962954
0.18967736
0.18972358
0.18976828
0.18981155
0.18985347
0.18989411
0.18993351
0.18997171
0.18887827
0.1889526
0.18902414
0.18909299
0.18915922
0.18922324
0.18928508
0.18934483
0.18940255
0.18945837
0.18951238
0.18956466
0.18961527
0.18966426
0.18971168
0.18975758
0.189802
0.18984499
0.18988661
0.18992696
0.18996608
0.19000404
0.18902284
0.1890921
0.18915869
0.18922279
0.18928481
0.18934509
0.18940321
0.18945948
0.18951398
0.18956672
0.18961783
0.1896674
0.18971548
0.18976212
0.18980735
0.18985121
0.18989377
0.18993507
0.18997518
0.19001413
0.19005199
0.18918414
0.18924908
0.18931165
0.18937226
0.18943068
0.18948701
0.18954155
0.18959433
0.18964559
0.18969544
0.18974393
0.18979116
0.18983711
0.18988179
0.18992525
0.18996749
0.19000848
0.19004829
0.19008693
0.19012453
0.18936085
0.18942247
0.18948213
0.18953984
0.18959573
0.18964979
0.18970222
0.18975308
0.18980236
0.18985023
0.18989692
0.18994244
0.18998689
0.19003021
0.19007247
0.19011371
0.19015389
0.19019297
0.1902311
0.18963687
0.18969485
0.18975103
0.18980551
0.1898584
0.18990975
0.1899595
0.190008
0.19005527
0.19010119
0.19014602
0.19018977
0.19023241
0.19027412
0.19031476
0.19035445
0.19039328
0.18993448
0.18999281
0.19004946
0.19010437
0.19015735
0.19020835
0.19025758
0.19030526
0.19035183
0.19039755
0.19044241
0.1904865
0.1905298
0.19057229
0.19061406
0.19065511
0.19046561
0.19052686
0.19058393
0.19064229
0.19069896
0.19075337
0.19080545
0.19085654
0.19090662
0.19095577
0.19100428
0.19105165
0.19109782
0.191142
0.1909249
0.19101075
0.19109021
0.19116566
0.19123783
0.19131255
0.19138578
0.19145864
0.19153051
0.19160009
0.19166863
0.19173389
)
;

boundaryField
{
    Side
    {
        type            empty;
    }
    Inlet
    {
        type            calculated;
        value           nonuniform List<scalar> 
32
(
0.19971985
0.19971655
0.19971076
0.19971725
0.19973747
0.19975676
0.19974732
0.19973277
0.19972167
0.1997306
0.19976044
0.19980701
0.19984201
0.19983985
0.19979418
0.19974565
0.19974189
0.19976161
0.19979277
0.19984369
0.19980986
0.19977585
0.19974197
0.1997616
0.19977891
0.19977701
0.1997775
0.19981383
0.1998646
0.19988719
0.19989728
0.19988688
)
;
    }
    Airfoil
    {
        type            nutkWallFunction;
        blending        stepwise;
        value           nonuniform List<scalar> 0();
    }
    Outlet
    {
        type            calculated;
        value           nonuniform List<scalar> 0();
    }
    procBoundary2to1
    {
        type            processor;
        value           nonuniform List<scalar> 
75
(
0.1925912
0.19377964
0.19180912
0.19180912
0.19136144
0.19136144
0.19107534
0.19107534
0.19087704
0.19087704
0.19073154
0.19073154
0.19062116
0.19062116
0.19053315
0.19053315
0.1904599
0.1904599
0.19039681
0.19039681
0.19034375
0.19034375
0.19029885
0.19029885
0.19026312
0.19022613
0.19022613
0.19019808
0.19019808
0.19016971
0.19016971
0.19016646
0.19014869
0.19014869
0.19016379
0.19016379
0.19015552
0.19015552
0.19023665
0.19016919
0.19016919
0.19030725
0.19030725
0.016021234
0.018713333
0.021756622
0.039096196
0.059354589
0.076833848
0.092418788
0.10823919
0.10823919
0.12709467
0.14530797
0.16195432
0.17419917
0.18192382
0.18702558
0.1902793
0.1902793
0.19260357
0.1939312
0.19427081
0.19427081
0.19389352
0.19314255
0.19236613
0.19236613
0.19175281
0.19124445
0.19086996
0.19086996
0.19059503
0.19040153
0.19040153
)
;
    }
    procBoundary2to3
    {
        type            processor;
        value           nonuniform List<scalar> 
65
(
0.027962116
0.031557116
0.038049701
0.050041865
0.06603589
0.083355497
0.1004906
0.11684615
0.13218037
0.14627507
0.15743644
0.15743644
0.16824313
0.17717887
0.18380074
0.18801274
0.19024419
0.19113512
0.19126013
0.19099618
0.19052661
0.18997746
0.18946936
0.18906597
0.18877546
0.18868289
0.18868289
0.18853577
0.1884298
0.1883543
0.1883011
0.18826421
0.18833823
0.18833823
0.18831746
0.18830193
0.1883917
0.1883917
0.18838724
0.18838998
0.18849195
0.18849195
0.18850766
0.18862339
0.18862339
0.18874545
0.18874545
0.1888007
0.18895089
0.18895089
0.18911664
0.18911664
0.18929725
0.18929725
0.18951555
0.18957719
0.18957719
0.18987465
0.18987465
0.19034233
0.19040467
0.19040467
0.19075799
0.19084029
0.19084029
)
;
    }
    procBoundary2to9
    {
        type            processor;
        value           nonuniform List<scalar> 
23
(
0.024514111
0.02415523
0.0238297
0.023480279
0.023088461
0.022694121
0.022328872
0.021931452
0.021433702
0.020885506
0.020406117
0.020083086
0.019828637
0.019496982
0.019127219
0.018824334
0.018530053
0.018112121
0.01758935
0.017119514
0.016827174
0.016619594
0.016359313
)
;
    }
    procBoundary2to10
    {
        type            processor;
        value           uniform 0.02511817;
    }
}


// ************************************************************************* //
