/*--------------------------------*- C++ -*----------------------------------*\
| =========                 |                                                 |
| \\      /  F ield         | OpenFOAM: The Open Source CFD Toolbox           |
|  \\    /   O peration     | Version:  2506                                  |
|   \\  /    A nd           | Website:  www.openfoam.com                      |
|    \\/     M anipulation  |                                                 |
\*---------------------------------------------------------------------------*/
FoamFile
{
    version     2.0;
    format      ascii;
    arch        "LSB;label=32;scalar=64";
    class       volScalarField;
    location    "0.03";
    object      T;
}
// * * * * * * * * * * * * * * * * * * * * * * * * * * * * * * * * * * * * * //

dimensions      [0 0 0 1 0 0 0];

internalField   nonuniform List<scalar> 
13761
(
245.45999
245.48015
245.61915
245.70786
245.70695
245.7631
245.72989
245.58483
245.5481
245.6272
245.74394
245.68669
245.63102
245.66676
245.69323
245.65123
245.65989
245.66247
245.65539
245.64852
245.64203
245.63853
245.63761
245.63037
245.61943
245.609
245.60274
245.59721
245.58354
245.56971
245.56581
245.56229
245.55941
245.55978
245.55792
245.55523
245.54846
245.53864
245.53431
245.5246
245.51599
245.51674
245.50814
245.50763
245.46005
245.47933
245.61895
245.70765
245.70692
245.76311
245.7306
245.5855
245.548
245.62636
245.74361
245.68744
245.63114
245.66633
245.69359
245.65131
245.6598
245.66259
245.6555
245.64857
245.64207
245.63854
245.63781
245.63082
245.62015
245.60967
245.60317
245.59787
245.58428
245.57046
245.56673
245.56364
245.56116
245.56148
245.55939
245.55671
245.55002
245.54059
245.53639
245.52695
245.51849
245.51931
245.51079
245.51187
245.46002
245.47817
245.61907
245.70731
245.70685
245.76325
245.73138
245.58619
245.54791
245.6255
245.74328
245.68824
245.63125
245.66591
245.69394
245.65138
245.6597
245.66271
245.65561
245.64865
245.64216
245.63862
245.63804
245.63127
245.62098
245.61031
245.60369
245.59845
245.58523
245.57119
245.56779
245.56497
245.56275
245.5631
245.56089
245.55803
245.55148
245.54253
245.53825
245.52918
245.52097
245.52178
245.51339
245.51599
245.51496
245.45993
245.47704
245.61929
245.70699
245.70665
245.76368
245.73226
245.5869
245.54777
245.62459
245.74292
245.68909
245.63134
245.66548
245.6943
245.65146
245.65962
245.66285
245.65573
245.64873
245.64226
245.63868
245.63825
245.63174
245.62171
245.61103
245.60412
245.59909
245.58601
245.57194
245.56873
245.56634
245.56453
245.56478
245.56234
245.55951
245.55309
245.54459
245.54035
245.53168
245.5237
245.52443
245.51633
245.52044
245.51869
245.45978
245.47609
245.61936
245.70677
245.7064
245.76441
245.73325
245.58761
245.5477
245.6237
245.74256
245.68995
245.63142
245.66508
245.69466
245.65153
245.65955
245.663
245.65586
245.64882
245.6424
245.6388
245.63846
245.63224
245.62259
245.6117
245.60466
245.59969
245.58701
245.57272
245.5698
245.5677
245.56613
245.56638
245.56377
245.56084
245.5546
245.54662
245.54224
245.53402
245.52634
245.527
245.51917
245.52469
245.5222
245.45967
245.47515
245.61918
245.70683
245.70613
245.76533
245.73441
245.58838
245.5477
245.62273
245.74214
245.69088
245.63151
245.66463
245.69503
245.6516
245.65947
245.66316
245.656
245.64891
245.64252
245.63891
245.63865
245.63278
245.6234
245.61248
245.60506
245.60032
245.58782
245.57346
245.57076
245.56908
245.56792
245.56803
245.56519
245.56229
245.55624
245.54876
245.54434
245.53664
245.52926
245.52972
245.52235
245.52916
245.52598
245.4597
245.4743
245.61866
245.7069
245.706
245.76638
245.73562
245.58915
245.54761
245.62177
245.74172
245.69179
245.63159
245.6642
245.6954
245.65167
245.6594
245.66331
245.65613
245.64901
245.64268
245.63906
245.63886
245.63332
245.62432
245.61318
245.60559
245.60089
245.58875
245.5743
245.57182
245.57045
245.56955
245.56959
245.56656
245.56359
245.55778
245.55085
245.54628
245.53909
245.53203
245.53239
245.52543
245.53333
245.52954
245.45996
245.47337
245.61826
245.7067
245.70599
245.76742
245.73684
245.58997
245.5475
245.62074
245.74124
245.69277
245.63167
245.66374
245.69579
245.65175
245.65932
245.66348
245.65627
245.6491
245.64282
245.63919
245.63902
245.63386
245.62522
245.61401
245.60598
245.60147
245.58959
245.57505
245.57279
245.57183
245.57136
245.57119
245.56796
245.56502
245.55942
245.55305
245.5484
245.54181
245.53512
245.53519
245.52885
245.53768
245.53337
245.53243
245.46047
245.47218
245.61818
245.70624
245.70609
245.76832
245.73794
245.59078
245.54744
245.61973
245.74075
245.69375
245.63175
245.66328
245.69617
245.65182
245.65924
245.66364
245.6564
245.64921
245.643
245.63935
245.63918
245.63442
245.62621
245.6147
245.60645
245.60196
245.59054
245.57593
245.57387
245.57323
245.57303
245.5727
245.56929
245.56629
245.56099
245.55517
245.55043
245.54432
245.538
245.53795
245.53215
245.54169
245.537
245.53682
245.46139
245.47084
245.61844
245.70579
245.70623
245.76897
245.73895
245.59165
245.54742
245.61865
245.74018
245.69479
245.63184
245.66276
245.69659
245.65191
245.65915
245.66382
245.65653
245.6493
245.64316
245.63951
245.63928
245.63497
245.6272
245.61557
245.60677
245.60246
245.59133
245.57669
245.57486
245.57463
245.57485
245.57427
245.57067
245.5677
245.56262
245.55739
245.55261
245.54712
245.54121
245.54082
245.53579
245.54587
245.5409
245.54151
245.46301
245.46981
245.61859
245.7053
245.70631
245.76935
245.73986
245.59251
245.54738
245.61758
245.73961
245.69586
245.63192
245.66224
245.697
245.652
245.65907
245.66399
245.65665
245.6494
245.64335
245.63969
245.6394
245.63547
245.62825
245.61622
245.60724
245.60286
245.5922
245.5776
245.57594
245.57604
245.57654
245.57576
245.57196
245.56894
245.56418
245.55952
245.55474
245.54969
245.54417
245.54367
245.5393
245.5497
245.54459
245.54607
245.4654
245.46901
245.61863
245.70477
245.70638
245.76959
245.74077
245.59347
245.54733
245.61643
245.73895
245.697
245.63203
245.66167
245.69744
245.65212
245.65899
245.66417
245.65678
245.64949
245.64353
245.63987
245.63945
245.636
245.62926
245.617
245.60754
245.60329
245.593
245.5784
245.57696
245.57746
245.57835
245.57732
245.57334
245.57034
245.5658
245.56176
245.55703
245.55254
245.5475
245.54661
245.54315
245.5537
245.54855
245.55092
245.54433
245.46786
245.46851
245.61856
245.7043
245.70629
245.76998
245.74167
245.59439
245.54727
245.61529
245.73829
245.69818
245.63211
245.66114
245.69787
245.65223
245.65891
245.66435
245.6569
245.64959
245.64375
245.64007
245.63953
245.63648
245.63032
245.61763
245.60789
245.60358
245.5939
245.57937
245.57806
245.57889
245.58006
245.57877
245.5746
245.57157
245.56736
245.56388
245.55929
245.55514
245.55052
245.54954
245.54686
245.55732
245.55231
245.5556
245.54924
245.46975
245.46791
245.61859
245.70389
245.70621
245.77057
245.74262
245.59538
245.54725
245.61407
245.73753
245.69944
245.63223
245.66056
245.6983
245.65236
245.65881
245.66454
245.65704
245.64969
245.64394
245.64029
245.63952
245.637
245.63134
245.61844
245.60809
245.60395
245.59471
245.58023
245.57913
245.58027
245.58181
245.58033
245.57597
245.57298
245.56897
245.56612
245.56171
245.55802
245.55393
245.55256
245.55092
245.56111
245.55637
245.56055
245.55437
245.47097
245.46669
245.61863
245.70347
245.70623
245.77099
245.74357
245.5963
245.54719
245.61287
245.73677
245.70074
245.63233
245.66003
245.69872
245.65247
245.65872
245.66472
245.65719
245.64981
245.64418
245.64052
245.6396
245.63746
245.63242
245.619
245.60841
245.60424
245.59565
245.58122
245.58022
245.58168
245.58352
245.58176
245.5772
245.57423
245.57054
245.56822
245.56412
245.56063
245.55699
245.55555
245.55483
245.56453
245.56021
245.5653
245.55954
245.4716
245.46458
245.61842
245.70296
245.70656
245.77095
245.74463
245.59726
245.5472
245.61158
245.7359
245.7021
245.63247
245.65949
245.69914
245.6526
245.65863
245.66492
245.65735
245.64992
245.64438
245.64077
245.63955
245.63796
245.63339
245.61981
245.60859
245.60461
245.59659
245.5821
245.5813
245.58303
245.5852
245.58332
245.57858
245.57568
245.57218
245.57044
245.5667
245.56354
245.56044
245.55868
245.55907
245.56816
245.56437
245.57028
245.5649
245.47197
245.46231
245.61813
245.70255
245.70688
245.77074
245.74573
245.5982
245.54718
245.6103
245.73504
245.7035
245.63258
245.65899
245.69953
245.65274
245.65853
245.66511
245.65751
245.65005
245.64463
245.64103
245.63959
245.63842
245.6345
245.62035
245.6089
245.60494
245.59756
245.58315
245.58241
245.58442
245.58687
245.58475
245.57977
245.577
245.57378
245.57251
245.56927
245.56615
245.56354
245.56177
245.56316
245.57142
245.5683
245.57501
245.57027
245.57524
245.47258
245.46059
245.61795
245.70217
245.70717
245.77062
245.74695
245.59927
245.54718
245.60895
245.73403
245.70497
245.63275
245.65847
245.69992
245.6529
245.65844
245.6653
245.65768
245.65018
245.64484
245.6413
245.63952
245.63893
245.6355
245.62112
245.60908
245.60527
245.59849
245.58405
245.58348
245.58571
245.58849
245.58631
245.58118
245.57848
245.5755
245.57469
245.57203
245.5691
245.56704
245.56504
245.56757
245.57488
245.57256
245.57995
245.57583
245.58233
245.4733
245.45998
245.61794
245.70183
245.70745
245.77121
245.74826
245.60038
245.54713
245.60759
245.73303
245.7065
245.63289
245.65798
245.70032
245.65305
245.65834
245.6655
245.65784
245.65031
245.6451
245.6416
245.63955
245.6394
245.63661
245.62173
245.60944
245.60565
245.59951
245.5852
245.58456
245.58707
245.59014
245.58774
245.58236
245.5799
245.57716
245.57674
245.57475
245.57172
245.57018
245.56822
245.5719
245.57795
245.57656
245.58461
245.58139
245.58944
245.47384
245.45884
245.61773
245.70167
245.70767
245.7722
245.74963
245.60164
245.54716
245.60617
245.73188
245.70811
245.63309
245.65746
245.70071
245.65324
245.65824
245.6657
245.65802
245.65045
245.64532
245.64188
245.63946
245.63996
245.63766
245.62244
245.60967
245.60591
245.60047
245.58614
245.58562
245.58828
245.59172
245.58929
245.58383
245.58142
245.57902
245.57892
245.57767
245.57474
245.57374
245.57164
245.57653
245.58125
245.58088
245.58948
245.58714
245.59667
245.47426
245.45667
245.61747
245.7017
245.70762
245.77312
245.75104
245.6029
245.54713
245.60472
245.73073
245.70979
245.63327
245.65692
245.7011
245.65342
245.65814
245.66589
245.65818
245.6506
245.64558
245.64219
245.63947
245.64049
245.63877
245.6231
245.61008
245.60627
245.6015
245.5874
245.58672
245.5896
245.5933
245.59073
245.585
245.58299
245.58077
245.58103
245.58051
245.57742
245.57695
245.57491
245.58108
245.58424
245.5849
245.59404
245.59286
245.60381
245.60697
245.47452
245.45366
245.61749
245.70166
245.70763
245.77383
245.75251
245.60427
245.54721
245.60323
245.72941
245.71153
245.63351
245.65636
245.70147
245.65362
245.65804
245.66608
245.65836
245.65075
245.6458
245.64248
245.63942
245.64106
245.63979
245.62379
245.6103
245.60643
245.60238
245.58843
245.5877
245.59075
245.59478
245.59224
245.58656
245.58456
245.58281
245.58328
245.58353
245.58053
245.58057
245.57848
245.58584
245.58753
245.58923
245.59883
245.59876
245.61099
245.61381
245.47462
245.45061
245.61701
245.70144
245.70699
245.77463
245.75405
245.60565
245.54723
245.60171
245.72809
245.71339
245.63372
245.65579
245.70186
245.65377
245.65794
245.66626
245.65853
245.65091
245.64608
245.6428
245.63944
245.64162
245.64086
245.62445
245.6107
245.60678
245.60342
245.58974
245.58875
245.59207
245.59626
245.59371
245.58775
245.58627
245.58468
245.58551
245.58643
245.58333
245.58385
245.58186
245.59047
245.59064
245.59326
245.6033
245.60462
245.618
245.62036
245.4755
245.44865
245.61615
245.70115
245.70637
245.77562
245.75562
245.60717
245.54739
245.60016
245.72659
245.71531
245.634
245.65519
245.70222
245.65395
245.65785
245.66644
245.65873
245.65108
245.64631
245.64312
245.63941
245.64219
245.64186
245.62521
245.61094
245.60677
245.60426
245.59078
245.58972
245.59318
245.59772
245.59517
245.58943
245.58783
245.58693
245.5879
245.58951
245.58657
245.58753
245.58563
245.59517
245.59411
245.5977
245.60805
245.61064
245.62495
245.62702
245.63204
245.47741
245.44733
245.61553
245.70018
245.70606
245.77646
245.75719
245.60876
245.5475
245.59858
245.7251
245.71735
245.63427
245.65454
245.70263
245.65411
245.65774
245.66662
245.6589
245.65123
245.64662
245.64347
245.63947
245.64273
245.64294
245.62591
245.61126
245.60714
245.60537
245.59209
245.59078
245.59448
245.59909
245.59664
245.59072
245.58965
245.58891
245.5903
245.59244
245.58951
245.5909
245.58915
245.59963
245.59743
245.60191
245.61251
245.61659
245.63161
245.63334
245.6379
245.4802
245.44585
245.6152
245.69929
245.70638
245.77704
245.75871
245.61048
245.54773
245.59699
245.72343
245.7194
245.63463
245.65385
245.70298
245.6543
245.65765
245.66681
245.65909
245.65141
245.64688
245.64381
245.63948
245.64328
245.64396
245.62667
245.61143
245.60712
245.60621
245.59312
245.5917
245.59553
245.60053
245.59807
245.59252
245.59122
245.59132
245.59288
245.59557
245.59288
245.59466
245.59318
245.6041
245.60104
245.60659
245.61733
245.62272
245.63815
245.63976
245.64379
245.48155
245.44429
245.61529
245.6989
245.70667
245.77758
245.76027
245.61221
245.54794
245.59534
245.72176
245.72156
245.63498
245.65314
245.7033
245.65448
245.65755
245.66698
245.65927
245.65158
245.64722
245.64418
245.63957
245.64377
245.64508
245.6274
245.61168
245.60766
245.60727
245.5944
245.59276
245.59677
245.60181
245.59959
245.59394
245.59312
245.59336
245.59548
245.59855
245.59599
245.59814
245.59691
245.60832
245.60451
245.61102
245.62184
245.62873
245.64435
245.64582
245.64913
245.48179
245.44218
245.6153
245.69827
245.70679
245.77822
245.7619
245.61398
245.54826
245.59371
245.71993
245.72369
245.63542
245.65249
245.70377
245.65472
245.65747
245.66715
245.65947
245.65178
245.64752
245.64456
245.63963
245.64433
245.64611
245.62811
245.6119
245.60782
245.60821
245.59546
245.59374
245.59779
245.60328
245.60103
245.59582
245.59472
245.59584
245.59826
245.60174
245.59948
245.60202
245.60123
245.61255
245.60824
245.61589
245.62674
245.63492
245.65039
245.65198
245.65462
245.64422
245.48175
245.43905
245.61514
245.6972
245.70656
245.77936
245.76366
245.61579
245.54857
245.59201
245.71809
245.72591
245.63583
245.65175
245.70431
245.65498
245.65738
245.6673
245.65965
245.65196
245.64787
245.64495
245.63971
245.6448
245.64729
245.62898
245.61206
245.60828
245.60924
245.59683
245.59476
245.5989
245.60452
245.60257
245.59744
245.59664
245.59786
245.60103
245.60479
245.60278
245.60561
245.60521
245.61645
245.61188
245.62052
245.6313
245.64092
245.65606
245.65777
245.6597
245.65104
245.48204
245.43606
245.61496
245.69645
245.70662
245.78082
245.76539
245.61774
245.54901
245.59035
245.71609
245.72806
245.63636
245.65091
245.70476
245.65536
245.65732
245.66746
245.65986
245.65218
245.64819
245.64537
245.6398
245.64531
245.64833
245.62979
245.61244
245.60859
245.61017
245.59792
245.59566
245.59988
245.60602
245.60412
245.59937
245.59832
245.60029
245.60401
245.60802
245.6064
245.60962
245.60983
245.6204
245.61581
245.62556
245.63629
245.64709
245.66158
245.6637
245.66512
245.65883
245.48341
245.43372
245.61424
245.69627
245.70672
245.78189
245.76715
245.61979
245.54941
245.58858
245.71405
245.73033
245.63685
245.65017
245.70458
245.65581
245.65726
245.66761
245.66004
245.65238
245.64855
245.64575
245.63988
245.64582
245.64954
245.63077
245.6127
245.60899
245.61108
245.59934
245.59666
245.60086
245.60726
245.60571
245.60122
245.60025
245.60225
245.60688
245.61114
245.6099
245.61335
245.61408
245.62396
245.61967
245.63036
245.64095
245.65299
245.66677
245.66928
245.67032
245.66671
245.67922
245.4859
245.43108
245.61359
245.69618
245.70684
245.7823
245.76887
245.62196
245.54995
245.58687
245.71186
245.73255
245.63744
245.64949
245.70427
245.65623
245.65725
245.66775
245.66022
245.65262
245.64891
245.64619
245.63998
245.64632
245.65069
245.63163
245.61317
245.6093
245.61211
245.60053
245.59762
245.6018
245.60877
245.60744
245.60319
245.60212
245.60463
245.61001
245.6144
245.6137
245.61752
245.61893
245.62762
245.62385
245.63555
245.64611
245.65907
245.67191
245.67505
245.67609
245.67562
245.69032
245.48874
245.42805
245.61301
245.69608
245.7062
245.78218
245.77052
245.62424
245.55046
245.58502
245.70959
245.73492
245.6381
245.64879
245.70413
245.65657
245.6572
245.66788
245.66039
245.65282
245.6493
245.64662
245.64005
245.64682
245.652
245.63262
245.61348
245.60983
245.613
245.60196
245.59849
245.60267
245.61003
245.60905
245.60529
245.60406
245.60662
245.6129
245.61762
245.61745
245.62138
245.62341
245.63084
245.62801
245.64052
245.65098
245.66479
245.6768
245.68052
245.68185
245.68465
245.70058
245.49116
245.42558
245.6124
245.69532
245.70538
245.78293
245.77206
245.62652
245.55112
245.58326
245.70718
245.73722
245.6389
245.64805
245.70399
245.65686
245.65721
245.668
245.66058
245.65306
245.64972
245.64708
245.64015
245.64733
245.65316
245.63353
245.61386
245.61014
245.61404
245.60319
245.59956
245.60355
245.61145
245.61096
245.60734
245.60627
245.60899
245.61608
245.6209
245.62146
245.62568
245.6284
245.63426
245.63256
245.64589
245.6564
245.67072
245.6818
245.68628
245.68844
245.69473
245.7107
245.49231
245.42372
245.61155
245.69437
245.70485
245.7839
245.77382
245.62887
245.55182
245.58133
245.70465
245.73966
245.63977
245.64736
245.70385
245.65714
245.65718
245.66812
245.66073
245.65328
245.65016
245.64751
245.64025
245.64784
245.65446
245.63465
245.61426
245.61073
245.61491
245.60465
245.60049
245.60456
245.61261
245.61264
245.60966
245.60831
245.61118
245.61883
245.62426
245.62547
245.62961
245.63305
245.63728
245.63712
245.6511
245.66159
245.67625
245.68668
245.69184
245.69519
245.70491
245.71982
245.71249
245.49298
245.42127
245.61069
245.69364
245.70488
245.78449
245.77575
245.63127
245.55267
245.57949
245.70204
245.74196
245.64068
245.64689
245.70363
245.65745
245.65726
245.66826
245.6609
245.65355
245.65065
245.64798
245.64034
245.64833
245.65571
245.63562
245.61468
245.61122
245.61587
245.60593
245.60161
245.60544
245.61386
245.61477
245.61188
245.611
245.61367
245.62191
245.62763
245.62966
245.63404
245.6381
245.64072
245.64215
245.65674
245.6674
245.68207
245.69185
245.69787
245.70287
245.71602
245.72879
245.72195
245.49385
245.41736
245.6105
245.69292
245.70498
245.78477
245.77785
245.6339
245.55356
245.57747
245.69926
245.74442
245.6416
245.64662
245.70336
245.65777
245.65728
245.66839
245.66103
245.6538
245.65112
245.64841
245.64055
245.64892
245.65688
245.63691
245.61543
245.6119
245.61676
245.60746
245.60275
245.60662
245.6149
245.61654
245.61436
245.61325
245.61623
245.62444
245.63111
245.63386
245.63808
245.64278
245.64393
245.64719
245.66225
245.67301
245.68749
245.69703
245.70382
245.71075
245.72689
245.73691
245.73135
245.49498
245.41397
245.61031
245.69207
245.70478
245.78537
245.78026
245.63665
245.5546
245.57555
245.69645
245.74672
245.64245
245.64636
245.70298
245.65808
245.65738
245.66855
245.66117
245.65412
245.65164
245.64886
245.64062
245.64929
245.65819
245.63804
245.61633
245.61242
245.6174
245.60876
245.60399
245.60754
245.61612
245.61876
245.61687
245.61646
245.61887
245.62747
245.63461
245.63813
245.64271
245.64777
245.64788
245.65285
245.66815
245.67928
245.69332
245.70269
245.71041
245.71966
245.73828
245.74506
245.7415
245.75563
245.49703
245.41136
245.60981
245.6912
245.70468
245.78616
245.78268
245.63971
245.55577
245.57344
245.6934
245.74913
245.64358
245.64569
245.70251
245.6584
245.65745
245.66872
245.66126
245.65439
245.65215
245.64933
245.64095
245.64992
245.65929
245.63957
245.61727
245.6131
245.61825
245.61035
245.60533
245.60875
245.61719
245.62058
245.61941
245.61897
245.62182
245.63003
245.63814
245.64243
245.64695
245.65231
245.65171
245.65863
245.67396
245.68537
245.69882
245.70844
245.71705
245.7288
245.74896
245.75263
245.75175
245.76944
245.4988
245.40773
245.6091
245.69044
245.70446
245.78696
245.7847
245.64293
245.55713
245.57143
245.69035
245.75141
245.64475
245.64498
245.70198
245.65875
245.65767
245.66887
245.66135
245.65474
245.65271
245.64973
245.64119
245.65024
245.66041
245.64089
245.6185
245.61377
245.61893
245.61173
245.60657
245.60976
245.61857
245.62284
245.62223
245.62254
245.62465
245.6332
245.6418
245.64672
245.65177
245.65712
245.65637
245.66516
245.68019
245.6921
245.7049
245.71483
245.72448
245.73893
245.75967
245.76062
245.76278
245.78359
245.49972
245.40406
245.60779
245.68995
245.70403
245.78765
245.78674
245.64652
245.55872
245.56922
245.68703
245.75373
245.64617
245.64443
245.70118
245.65909
245.65788
245.66903
245.66141
245.65505
245.65329
245.6502
245.64159
245.65088
245.66125
245.64239
245.61979
245.61454
245.61981
245.61363
245.60836
245.61099
245.6198
245.62485
245.62475
245.62524
245.6279
245.63609
245.64524
245.65101
245.65628
245.66142
245.66098
245.67174
245.68639
245.69867
245.71073
245.72131
245.73201
245.74917
245.76925
245.76842
245.77403
245.79711
245.79769
245.50169
245.40102
245.60683
245.68929
245.70382
245.78834
245.78891
245.65014
245.56049
245.56713
245.68377
245.75597
245.64755
245.64404
245.70022
245.6595
245.65827
245.6692
245.66146
245.65543
245.65385
245.65064
245.64197
245.65122
245.66222
245.64397
245.62132
245.61526
245.62073
245.61517
245.60956
245.61217
245.62165
245.6271
245.62791
245.62887
245.63091
245.63946
245.64908
245.65528
245.6612
245.6661
245.66652
245.679
245.69302
245.70582
245.71735
245.72854
245.74044
245.76023
245.77853
245.77692
245.78627
245.81037
245.80875
245.50424
245.39764
245.60645
245.68855
245.70366
245.78887
245.79112
245.6538
245.56252
245.56483
245.68016
245.75813
245.64912
245.64359
245.69893
245.6599
245.6587
245.66936
245.66147
245.65577
245.65443
245.65109
245.64252
245.65178
245.66279
245.64575
245.62324
245.61612
245.62171
245.61738
245.61146
245.61375
245.62327
245.6293
245.63043
245.63171
245.63411
245.64287
245.6524
245.65946
245.66593
245.67023
245.67204
245.68615
245.6997
245.71282
245.72378
245.73578
245.74898
245.77106
245.78663
245.78525
245.79893
245.82262
245.81937
245.8182
245.50553
245.39457
245.60541
245.68777
245.70355
245.78913
245.79328
245.65752
245.56463
245.5627
245.67663
245.76024
245.65062
245.64314
245.69755
245.66039
245.65937
245.66948
245.66147
245.65619
245.65502
245.65158
245.64301
245.65228
245.6634
245.64762
245.62521
245.61697
245.62271
245.61935
245.61287
245.61541
245.62535
245.63163
245.6339
245.63505
245.63731
245.64638
245.65644
245.6637
245.67075
245.67501
245.67853
245.69378
245.70684
245.72029
245.73113
245.7438
245.75844
245.78233
245.79454
245.79441
245.81241
245.83453
245.83093
245.83249
245.5069
245.39131
245.60405
245.68711
245.7031
245.7897
245.79539
245.66152
245.56697
245.56048
245.6727
245.76211
245.65244
245.64265
245.6959
245.66093
245.66016
245.66955
245.66145
245.65661
245.6556
245.65204
245.64366
245.6528
245.66369
245.64968
245.62775
245.61813
245.62382
245.62154
245.61524
245.61738
245.62722
245.63415
245.63652
245.63789
245.64026
245.65018
245.65971
245.66764
245.67563
245.6793
245.68498
245.70103
245.71406
245.72757
245.73831
245.75171
245.76796
245.79287
245.80161
245.80359
245.82606
245.84554
245.84218
245.84634
245.50939
245.38687
245.60284
245.68629
245.70254
245.79034
245.79748
245.66568
245.56938
245.55837
245.66884
245.76394
245.65423
245.64216
245.69419
245.66165
245.66098
245.66964
245.66152
245.65707
245.65621
245.65254
245.64424
245.65336
245.66381
245.65175
245.63004
245.61909
245.62481
245.62379
245.61721
245.61896
245.62904
245.63663
245.64031
245.64102
245.64374
245.65361
245.66372
245.67185
245.68031
245.68444
245.69242
245.7086
245.72177
245.73518
245.74643
245.76038
245.77837
245.80334
245.80892
245.81382
245.84008
245.85645
245.85452
245.86165
245.87004
245.51138
245.38216
245.60191
245.68523
245.70218
245.79078
245.79955
245.67004
245.57209
245.5563
245.6646
245.76548
245.65628
245.64178
245.69233
245.66264
245.66173
245.66957
245.66159
245.6575
245.65679
245.65305
245.64488
245.65382
245.664
245.65375
245.6329
245.62035
245.62591
245.62632
245.62006
245.62106
245.63118
245.63937
245.64334
245.64394
245.64651
245.65718
245.66694
245.67566
245.6853
245.68928
245.69963
245.71561
245.72944
245.74255
245.75433
245.76877
245.78862
245.81257
245.81586
245.8243
245.85379
245.8668
245.86664
245.87643
245.8851
245.51258
245.37847
245.60056
245.68396
245.70171
245.79102
245.80157
245.67454
245.57491
245.55426
245.66044
245.76707
245.65839
245.64135
245.69035
245.66403
245.6625
245.66965
245.66167
245.65798
245.65743
245.65357
245.64558
245.65445
245.6637
245.65575
245.63559
245.62155
245.62711
245.62877
245.62243
245.6229
245.63289
245.64213
245.64732
245.64721
245.65037
245.66026
245.67065
245.68017
245.69004
245.69498
245.70762
245.72295
245.73753
245.75016
245.76304
245.77786
245.7996
245.82137
245.82341
245.83609
245.86738
245.87744
245.88004
245.89236
245.90084
245.51431
245.37517
245.59959
245.68295
245.70101
245.79142
245.80365
245.67924
245.57798
245.55236
245.65588
245.76812
245.6607
245.64102
245.68832
245.66571
245.66329
245.66944
245.66166
245.65845
245.65803
245.6541
245.64631
245.6551
245.66371
245.65757
245.63842
245.62305
245.6284
245.63129
245.62571
245.62559
245.63546
245.64487
245.65074
245.65023
245.65334
245.66315
245.67405
245.68432
245.69504
245.70055
245.71513
245.72967
245.7453
245.75751
245.77135
245.78654
245.81008
245.82876
245.83081
245.84834
245.88024
245.88805
245.89326
245.90745
245.91576
245.91872
245.51692
245.37127
245.59864
245.68221
245.7005
245.79162
245.80574
245.68414
245.58116
245.55044
245.65137
245.7692
245.66323
245.64064
245.6861
245.66762
245.66417
245.66928
245.66168
245.65891
245.65869
245.65462
245.64713
245.65591
245.66323
245.6596
245.64109
245.62498
245.62983
245.63421
245.62845
245.62859
245.6372
245.64756
245.65437
245.65407
245.65776
245.66628
245.67778
245.68918
245.69984
245.70676
245.72305
245.7367
245.75329
245.76503
245.78016
245.79586
245.82094
245.83587
245.83912
245.86183
245.8927
245.89934
245.90775
245.92335
245.93136
245.93526
245.51885
245.3669
245.59707
245.68142
245.70031
245.79159
245.80768
245.6893
245.58458
245.54871
245.64655
245.76964
245.66581
245.64042
245.68375
245.66974
245.66505
245.66888
245.66158
245.65933
245.65931
245.65509
245.64802
245.65689
245.66296
245.66096
245.64408
245.62677
245.63159
245.63664
245.63169
245.63178
245.63976
245.6499
245.65782
245.65773
245.66121
245.66885
245.68138
245.69364
245.70467
245.71304
245.73021
245.74309
245.76061
245.77224
245.78834
245.80472
245.83078
245.84196
245.84756
245.87548
245.90432
245.9108
245.92201
245.93821
245.94621
245.95131
245.95632
245.5204
245.36288
245.59518
245.68048
245.70006
245.79188
245.80961
245.69472
245.58823
245.54694
245.64167
245.77005
245.66873
245.64013
245.68126
245.67204
245.66587
245.66853
245.66163
245.65981
245.65999
245.65556
245.64903
245.65793
245.66234
245.66225
245.64637
245.62908
245.63265
245.63957
245.63474
245.6352
245.64184
245.65244
245.66083
245.66245
245.66565
245.67254
245.68513
245.69854
245.70967
245.71979
245.7375
245.74981
245.76798
245.77956
245.79673
245.81421
245.84052
245.84837
245.85741
245.88984
245.91566
245.92293
245.93732
245.95371
245.96179
245.96832
245.97549
245.52222
245.35881
245.59392
245.67971
245.69931
245.79232
245.81147
245.70029
245.59214
245.5454
245.63664
245.76956
245.67162
245.64012
245.67884
245.67444
245.66678
245.66805
245.6617
245.66029
245.66062
245.65596
245.6502
245.65911
245.66189
245.66291
245.64928
245.63134
245.63426
245.64231
245.63809
245.63806
245.6446
245.65447
245.6642
245.66674
245.66925
245.67571
245.6888
245.70324
245.71452
245.7268
245.74389
245.75592
245.77442
245.78652
245.80437
245.82315
245.84872
245.85435
245.86782
245.90383
245.9265
245.93534
245.95209
245.96806
245.97674
245.98501
245.99444
245.52412
245.35414
245.59247
245.67836
245.69838
245.79266
245.81336
245.70616
245.59635
245.54393
245.63145
245.76892
245.67504
245.64007
245.6764
245.67693
245.66756
245.66749
245.66175
245.66084
245.66132
245.6564
245.65152
245.66035
245.6611
245.66354
245.65176
245.6342
245.6353
245.64478
245.64131
245.64122
245.64726
245.65701
245.66705
245.67171
245.67316
245.68046
245.69273
245.70844
245.71991
245.73397
245.75037
245.76231
245.78089
245.79362
245.81213
245.8327
245.85654
245.86129
245.88015
245.91792
245.93749
245.94835
245.96744
245.98308
245.99257
246.00284
246.0144
246.02309
245.5259
245.3496
245.59064
245.67684
245.69791
245.79241
245.8151
245.71218
245.6008
245.54273
245.62628
245.76744
245.67856
245.64038
245.67404
245.67947
245.66845
245.66685
245.6618
245.66154
245.66199
245.65679
245.65291
245.66181
245.66005
245.6639
245.65468
245.63697
245.6365
245.64731
245.64548
245.64438
245.65008
245.65942
245.67054
245.67546
245.67688
245.68508
245.69659
245.71305
245.72478
245.74124
245.75589
245.76799
245.78662
245.80044
245.81924
245.84155
245.8628
245.86829
245.8933
245.93118
245.94836
245.96162
245.98191
245.99701
246.00796
246.02049
246.03399
246.04311
245.52774
245.34534
245.58906
245.67576
245.69721
245.79195
245.81681
245.71854
245.60554
245.54169
245.62091
245.76546
245.68269
245.64091
245.6717
245.68203
245.66931
245.66629
245.66191
245.66227
245.66272
245.65722
245.65453
245.66318
245.65899
245.66344
245.6575
245.64023
245.63759
245.64931
245.64931
245.64758
245.65277
245.66223
245.67384
245.6798
245.68135
245.69054
245.70034
245.71831
245.73033
245.74829
245.76149
245.77408
245.7927
245.80741
245.82663
245.85087
245.86909
245.877
245.90823
245.94412
245.95964
245.97529
245.99661
246.01189
246.02448
246.03933
246.05441
246.06419
246.07014
245.52992
245.3409
245.58743
245.67431
245.69633
245.79172
245.81835
245.72501
245.61039
245.54088
245.61568
245.76269
245.68696
245.64147
245.66947
245.68451
245.67001
245.66584
245.66204
245.66303
245.66341
245.65767
245.65608
245.66475
245.65788
245.66342
245.66023
245.64353
245.6391
245.65163
245.6533
245.65165
245.65531
245.66522
245.67709
245.68275
245.68583
245.69516
245.70409
245.723
245.73532
245.75528
245.76638
245.77932
245.79824
245.81401
245.83374
245.8592
245.87446
245.8863
245.92334
245.95604
245.97093
245.98899
246.01037
246.02589
246.04075
246.05802
246.07426
246.0844
246.09184
245.53196
245.33636
245.5854
245.67296
245.69555
245.79146
245.81987
245.73183