/*--------------------------------*- C++ -*----------------------------------*\
| =========                 |                                                 |
| \\      /  F ield         | OpenFOAM: The Open Source CFD Toolbox           |
|  \\    /   O peration     | Version:  2506                                  |
|   \\  /    A nd           | Website:  www.openfoam.com                      |
|    \\/     M anipulation  |                                                 |
\*---------------------------------------------------------------------------*/
FoamFile
{
    version     2.0;
    format      ascii;
    arch        "LSB;label=32;scalar=64";
    class       volScalarField;
    location    "2.95";
    object      T;
}
// * * * * * * * * * * * * * * * * * * * * * * * * * * * * * * * * * * * * * //

dimensions      [0 0 0 1 0 0 0];

internalField   nonuniform List<scalar> 
1375
(
244.00964
243.85695
244.066
244.50212
244.17927
243.65437
244.09045
244.26382
244.39628
244.66996
244.56969
244.83151
244.97622
245.02817
245.07021
245.13073
244.12648
243.79893
244.09327
244.28025
244.29855
244.5812
244.65026
244.75154
244.76931
244.97984
245.02417
245.07346
245.12952
245.19687
245.24534
245.28342
245.31384
245.34711
245.37561
245.39856
245.42265
245.44154
244.03999
243.74068
244.13877
244.24259
244.30865
244.54159
244.5971
244.77758
244.75645
244.90211
244.98499
245.05143
245.09153
245.168
245.21724
245.25666
245.29184
245.32697
245.35733
245.3836
245.4125
245.43347
245.45129
245.46519
245.47862
245.49284
245.50541
245.51457
245.52496
245.53173
245.53719
245.54665
245.54988
245.55625
244.31962
243.62168
244.1257
244.19525
244.3035
244.5101
244.53382
244.74035
244.72942
244.87259
244.93623
245.02893
245.09013
245.1448
245.20268
245.24568
245.27748
245.30958
245.34503
245.3697
245.39802
245.42929
245.4461
245.46062
245.47567
245.49079
245.50388
245.51417
245.52313
245.53151
245.53895
245.54604
245.55081
245.55697
245.56122
245.56526
245.56932
245.57235
245.57515
245.57773
245.58035
245.58205
245.58273
245.58349
245.58355
245.58592
245.58634
245.58562
245.57897
244.25675
243.75943
244.11303
244.18118
244.29932
244.44302
244.54369
244.68502
244.70325
244.83474
244.8943
244.99026
245.04784
245.11313
245.16928
245.22318
245.26174
245.29572
245.33206
245.36341
245.39049
245.41808
245.44234
245.45693
245.46998
245.48703
245.50203
245.51185
245.52014
245.52972
245.53853
245.54452
245.55033
245.5565
245.56112
245.56466
245.56841
245.57184
245.57469
245.57735
245.57994
245.58186
245.58259
245.58305
245.5833
245.58562
245.58628
245.58565
245.57843
244.33058
243.72328
244.12809
244.15665
244.29502
244.42797
244.52035
244.67089
244.69246
244.81852
244.84123
244.97661
245.01583
245.09498
245.14222
245.19773
245.24558
245.28114
245.31628
245.34994
245.38481
245.41271
245.43547
245.45333
245.46996
245.48475
245.49915
245.50995
245.51811
245.52735
245.53711
245.54455
245.54893
245.55466
245.56108
245.56454
245.56817
245.57166
245.57481
245.57733
245.57971
245.58162
245.5824
245.58275
245.58309
245.58543
245.58608
245.58559
245.57817
244.36404
243.78699
244.18317
244.15709
244.3375
244.41306
244.49804
244.63378
244.67866
244.79899
244.84631
244.97706
245.01676
245.07989
245.14183
245.19309
245.24408
245.27997
245.31646
245.34421
245.37406
245.40748
245.43183
245.45265
245.47002
245.48448
245.49834
245.51008
245.51907
245.52834
245.53751
245.54457
245.54937
245.55382
245.55909
245.56434
245.5683
245.57137
245.5748
245.57725
245.57982
245.58163
245.58221
245.58237
245.58273
245.58521
245.58602
245.58554
245.57815
244.39171
243.86624
244.20302
244.15935
244.34988
244.40643
244.51698
244.59429
244.66912
244.78552
244.85968
244.95338
245.0008
245.05468
245.12197
245.18174
245.23203
245.27634
245.31015
245.34611
245.37343
245.39537
245.42693
245.44974
245.46726
245.48355
245.49776
245.50924
245.51924
245.52847
245.53736
245.54389
245.54963
245.55431
245.55861
245.56396
245.56816
245.57105
245.57459
245.57704
245.57978
245.58159
245.58204
245.58211
245.58241
245.58475
245.58607
245.58554
245.57793
244.48674
243.83885
244.24184
244.17989
244.37046
244.41049
244.5507
244.5769
244.67926
244.77244
244.85064
244.95399
244.99249
245.05613
245.10975
245.16552
245.21556
245.25908
245.29969
245.33926
245.37319
245.39686
245.42132
245.44542
245.4654
245.4816
245.49621
245.50837
245.51902
245.52791
245.53702
245.54364
245.54896
245.55406
245.55862
245.5639
245.56819
245.57101
245.57457
245.57706
245.5797
245.58143
245.58181
245.58172
245.58227
245.58446
245.586
245.58571
245.57755
244.58826
243.88857
244.25332
244.21225
244.41524
244.40613
244.52946
244.59408
244.72353
244.77384
244.86446
244.94532
244.98596
245.0605
245.11721
245.16753
245.22266
245.25902
245.29873
245.33843
245.3714
245.39751
245.42197
245.44624
245.46616
245.48244
245.49637
245.50843
245.51967
245.5289
245.53777
245.54408
245.54897
245.55418
245.55868
245.56379
245.56802
245.57106
245.57469
245.57717
245.57966
245.5814
245.58182
245.58153
245.58202
245.58425
245.58588
245.58583
245.57711
244.53146
244.15045
244.24564
244.25261
244.43442
244.42534
244.55466
244.61077
244.72138
244.7787
244.85035
244.93692
245.0084
245.05987
245.11089
245.16674
245.20936
245.25457
245.30116
245.33862
245.36969
245.39817
245.42256
245.44643
245.46659
245.48288
245.49706
245.50919
245.5199
245.52944
245.53877
245.54455
245.5492
245.55454
245.55898
245.56347
245.56787
245.57107
245.57466
245.57729
245.57975
245.58142
245.58175
245.58163
245.58186
245.58399
245.58567
245.58573
245.57686
244.87541
243.77755
244.30114
244.24364
244.46348
244.42147
244.57878
244.60419
244.74253
244.8125
244.85955
244.94249
245.01452
245.05806
245.10662
245.16826
245.21137
245.25384
245.30146
245.33611
245.37027
245.39765
245.4221
245.44688
245.4671
245.48323
245.49768
245.50988
245.52056
245.53002
245.53915
245.54492
245.54976
245.55501
245.55939
245.56333
245.5677
245.57112
245.57464
245.5773
245.57988
245.58137
245.58157
245.58174
245.58192
245.58381
245.5856
245.5854
245.57661
244.68898
244.10613
244.41212
244.25624
244.49573
244.44424
244.61529
244.65686
244.76779
244.79094
244.87709
244.94313
245.00419
245.07514
245.12654
245.17692
245.21617
245.25804
245.30026
245.33917
245.37289
245.39905
245.42415
245.44816
245.46803
245.48444
245.49872
245.51089
245.52205
245.53128
245.53983
245.54547
245.55028
245.55559
245.55973
245.56352
245.5677
245.57123
245.57477
245.57749
245.5799
245.58127
245.58146
245.58169
245.58194
245.58355
245.58548
244.82981
244.16714
244.45943
244.2979
244.48868
244.50878
244.65607
244.67175
244.76128
244.79668
244.88456
244.95535
245.0087
245.07742
245.14226
245.18323
245.22349
245.26371
245.3039
245.34271
245.37479
245.40158
245.42728
245.44992
245.46971
245.4859
245.50007
245.51214
245.52344
245.53295
245.54103
245.54615
245.55077
245.55614
245.56011
245.56383
245.56781
245.57146
245.57474
245.57776
245.58007
245.58117
245.58153
245.5817
245.58196
245.5834
244.95138
244.33641
244.49616
244.40721
244.53095
244.52716
244.65331
244.67755
244.7859
244.85956
244.91259
244.96145
245.03538
245.08118
245.14158
245.19253
245.2369
245.27429
245.30836
245.34554
245.37802
245.40571
245.42999
245.45298
245.47237
245.4877
245.5015
245.51348
245.52494
245.53459
245.54231
245.54686
245.55152
245.55665
245.56058
245.56407
245.56794
245.57168
245.57489
245.57794
245.58018
245.58099
245.58154
245.58203
245.58206
244.9134
244.37874
244.51892
244.49401
244.59768
244.57502
244.69958
244.76323
244.8325
244.86079
244.9232
244.98048
245.04856
245.09397
245.15816
245.20904
245.24701
245.28092
245.31732
245.35169
245.38365
245.41003
245.43356
245.45696
245.47578
245.49032
245.50332
245.51513
245.52683
245.53598
245.54349
245.54812
245.55226
245.55711
245.56105
245.56434
245.56821
245.57186
245.57498
245.57836
245.58021
245.58088
245.58151
245.58216
245.14276
244.34743
244.56386
244.55144
244.65267
244.699
244.76432
244.77295
244.82294
244.87679
244.96226
245.0161
245.06507
245.11869
245.18276
245.21302
245.25419
245.29788
245.32718
245.35855
245.38926
245.41418
245.43837
245.46138
245.47961
245.49373
245.50581
245.51735
245.52832
245.53739
245.54503
245.5496
245.55303
245.55766
245.56153
245.56464
245.56855
245.57213
245.57513
245.57854
245.58024
245.58091
245.58151
245.08224
244.61836
244.60389
244.62505
244.7104
244.746
244.78303
244.80125
244.87926
244.92862
245.01081
245.03454
245.0926
245.15499
245.18506
245.22457
245.28205
245.3087
245.33437
245.3679
245.3956
245.41931
245.44365
245.466
245.48358
245.49726
245.50889
245.51968
245.52956
245.53896
245.54694
245.55077
245.55396
245.55833
245.5621
245.56505
245.56895
245.57238
245.57539
245.57853
245.58025
245.58099
245.24196
244.61034
244.6924
244.6801
244.7465
244.76176
244.838
244.88517
244.96688
244.97812
245.032
245.06277
245.13639
245.1689
245.20099
245.26285
245.29727
245.31488
245.34753
245.38268
245.40342
245.42523
245.44984
245.47077
245.48733
245.50084
245.51239
245.52176
245.53097
245.54081
245.54843
245.55196
245.55516
245.55903
245.56274
245.56558
245.56941
245.57262
245.57566
245.57856
245.58026
245.1778
244.77097
244.77737
244.76678
244.81958
244.83881
244.92976
244.93756
245.00177
245.01175
245.07177
245.11597
245.16847
245.18977
245.23984
245.28715
245.30054
245.33217
245.37326
245.39465
245.41202
245.43435
245.45685
245.47545
245.49118
245.50488
245.51554
245.52405
245.53298
245.54235
245.54967
245.55341
245.55651
245.55973
245.56341
245.56618
245.56988
245.57295
245.57588
245.57862
245.62556
244.72545
244.77414
244.78699
244.84604
244.89112
244.96581
244.96844
245.0367
245.06385
245.13371
245.1613
245.19289
245.22428
245.27726
245.29333
245.32001
245.36837
245.38867
245.40452
245.42496
245.44656
245.46364
245.48031
245.49639
245.50892
245.51851
245.52697
245.53524
245.54363
245.55111
245.55498
245.55781
245.56052
245.56408
245.5668
245.57042
245.57331
245.57609
245.42898
244.99636
244.84272
244.88668
244.93432
244.9386
245.01371
245.03168
245.10319
245.13231
245.18731
245.19767
245.23274
245.26858
245.29966
245.31751
245.36162
245.38678
245.39758
245.42009
245.44187
245.45642
245.47053
245.48738
245.5019
245.51286
245.52215
245.53037
245.53739
245.54526
245.55283
245.55644
245.55906
245.56139
245.56475
245.56747
245.57103
245.57366
245.59634
244.9752
245.03265
244.95387
245.03712
245.00729
245.07448
245.10035
245.15744
245.17964
245.22676
245.24373
245.28213
245.30785
245.32999
245.35876
245.38761
245.39572
245.41557
245.441
245.45387
245.46486
245.4796
245.4955
245.5067
245.51731
245.52678
245.5336
245.53972
245.54743
245.55454
245.55788
245.5603
245.56231
245.5654
245.56813
245.5717
245.63266
245.10492
245.08356
245.03531
245.09483
245.08929
245.13664
245.16976
245.21458
245.23518
245.27703
245.29994
245.32857
245.34617
245.36873
245.39381
245.40443
245.41661
245.4437
245.45485
245.46315
245.47599
245.49064
245.50156
245.51171
245.52315
245.53137
245.53683
245.54267
245.54974
245.55625
245.55941
245.56153
245.56327
245.56606
245.56879
245.83332
245.17065
245.14125
245.12084
245.16332
245.18636
245.21564
245.25147
245.28754
245.30537
245.3307
245.34693
245.36904
245.38713
245.40729
245.4227
245.431
245.45008
245.46253
245.4655
245.47671
245.48976
245.49902
245.50737
245.51814
245.52838
245.53546
245.54068
245.54588
245.55197
245.55819
245.56093
245.56275
245.56425
245.56677
245.56943
245.91473
245.32297
245.23191
245.23139
245.26194
245.28615
245.31132
245.33464
245.36329
245.37535
245.38554
245.39803
245.41912
245.43189
245.44355
245.45524
245.46606
245.47789
245.47744
245.48301
245.49438
245.50118
245.5066
245.51492
245.5248
245.53271
245.53978
245.5447
245.54868
245.55434
245.56027
245.56232
245.564
245.56527
245.5675
246.10242
245.47906
245.37682
245.33848
245.36566
245.37632
245.39806
245.41141
245.42989
245.43857
245.44423
245.45238
245.46678
245.47565
245.48639
245.49134
245.49554
245.49925
245.49757
245.5038
245.50952
245.51216
245.5169
245.52408
245.53041
245.53699
245.54435
245.54853
245.55165
245.55694
245.5622
245.56375
245.56526
245.56635
246.16497
245.62391
245.47988
245.45843
245.47396
245.48007
245.49792
245.50112
245.50932
245.51185
245.51562
245.51725
245.52096
245.52177
245.52431
245.52279
245.52289
245.52072
245.51912
245.52263
245.52311
245.52475
245.52829
245.53276
245.53684
245.54199
245.54815
245.5519
245.55479
245.5595
245.56401
245.56532
245.56654
246.34811
245.80194
245.64727
245.59635
245.59952
245.59478
245.59564
245.59076
245.58853
245.58437
245.58221
245.57638
245.57263
245.56903
245.56626
245.55559
245.54953
245.5455
245.54269
245.53988
245.53827
245.53858
245.53917
245.54152
245.54403
245.5472
245.55202
245.55552
245.55808
245.56172
245.56587
246.49965
245.97549
245.7695
245.75941
245.73246
245.71776
245.70193
245.68493
245.67011
245.65514
245.64686
245.63375
245.62461
245.61358
245.60023
245.58845
245.5774
245.56732
245.56144
245.55481
245.55327
245.55235
245.55051
245.55081
245.55163
245.55206
245.55604
245.5592
245.56131
245.56436
246.8019
246.24692
245.99213
245.88496
245.85617
245.82992
245.80143
245.77351
245.74994
245.72555
245.70476
245.6819
245.66568
245.64843
245.6278
245.61677
245.60721
245.58857
245.57644
245.56941
245.56408
245.56186
245.55956
245.55924
245.55929
245.55854
245.56025
245.56219
245.56421
247.17928
246.66341
246.28059
246.12421
246.02674
245.96571
245.90785
245.86226
245.8255
245.79204
245.76126
245.73582
245.70968
245.68217
245.66118
245.63844
245.62477
245.61715
245.59688
245.58441
245.58131
245.5738
245.56822
245.56565
245.56463
245.56414
245.56517
246.33108
246.42433
246.55688
246.23225
246.28231
246.33624
246.46324
246.58654
246.65332
245.91179
245.96976
246.03133
246.14007
246.22945
246.28608
245.8184
245.87422
245.93706
246.02485
246.09737
246.15245
245.78404
245.82944
245.89001
245.97055
246.03341
246.08423
245.77559
245.80742
245.86581
245.93035
245.98104
246.02293
245.77068
245.78144
245.84346
245.89381
245.93206
245.96624
245.7614
245.7709
245.82013
245.86245
245.88812
245.91775
245.75838
245.80019
245.83282
245.8489
245.87461
245.74644
245.78255
245.80518
245.81401
245.83811
245.7347
245.76143
245.77911
245.78556
245.80215
245.72191
245.74201
245.75725
245.75498
245.76358
245.71526
245.71512
245.73172
245.73187
245.73358
245.70416
245.69737
245.70794
245.71602
245.70125
245.68914
245.69113
245.68947
245.69262
245.67919
245.67919
245.67411
245.67128
245.66254
245.66443
245.66173
245.65272
245.63946
245.64939
245.65045
245.63238
245.62294
245.63168
245.61941
245.61118
245.61824
245.60877
245.59835
245.60706
245.59495
245.59041
245.58753
245.5848
245.58348
245.57892
245.57955
245.57284
245.56983
245.56829
)
;

boundaryField
{
    Side
    {
        type            empty;
    }
    Inlet
    {
        type            totalTemperature;
        gamma           1.4;
        T0              uniform 250;
        value           nonuniform List<scalar> 9(245.58551 245.58535 245.58525 245.58523 245.58521 245.58519 245.58515 245.58512 245.58513);
    }
    Airfoil
    {
        type            zeroGradient;
    }
    Outlet
    {
        type            inletOutlet;
        inletValue      nonuniform List<scalar> 0();
        value           nonuniform List<scalar> 0();
    }
    procBoundary1to0
    {
        type            processor;
        value           nonuniform List<scalar> 
53
(
244.01937
243.91612
244.08097
244.59022
244.45996
244.45996
244.71187
244.71501
244.9232
245.00461
245.07524
245.12879
245.16379
245.18731
245.18731
245.23054
245.27628
245.30259
245.33591
245.36674
245.39038
245.41041
245.43203
245.44735
245.45706
245.45706
245.47166
245.48619
245.49817
245.50946
245.5167
245.5252
245.53361
245.54134
245.54643
245.55133
245.55738
245.56204
245.56204
245.56612
245.56962
245.57292
245.5755
245.57789
245.58054
245.58236
245.58295
245.58387
245.58385
245.58626
245.58631
245.58555
245.57946
)
;
    }
    procBoundary1to2
    {
        type            processor;
        value           nonuniform List<scalar> 
75
(
245.585
245.57636
245.585
245.58521
245.58521
245.58333
245.58333
245.58224
245.58224
245.5823
245.5823
245.58153
245.58153
245.58108
245.58108
245.58025
245.58025
245.57864
245.57864
245.57627
245.57627
245.57406
245.57406
245.57238
245.57238
245.57306
245.57009
245.57009
245.56828
245.56828
245.56743
245.56684
245.56743
245.56773
245.56684
245.56778
245.56778
245.56697
245.56615
245.56697
245.56758
245.56615
245.56883
246.27326
246.20365
245.87522
245.78172
245.75979
245.75011
245.74648
245.7398
245.7521
245.7521
245.73958
245.72618
245.71573
245.7081
245.69797
245.68588
245.67445
245.67445
245.66264
245.6489
245.63854
245.63854
245.62388
245.61178
245.59431
245.59431
245.58825
245.58273
245.57714
245.57714
245.5739
245.56883
)
;
    }
    procBoundary1to8
    {
        type            processor;
        value           nonuniform List<scalar> 8(247.07087 246.3496 246.42905 246.73202 246.53236 246.73202 246.92465 247.07087);
    }
}


// ************************************************************************* //
