/*--------------------------------*- C++ -*----------------------------------*\
| =========                 |                                                 |
| \\      /  F ield         | OpenFOAM: The Open Source CFD Toolbox           |
|  \\    /   O peration     | Version:  2506                                  |
|   \\  /    A nd           | Website:  www.openfoam.com                      |
|    \\/     M anipulation  |                                                 |
\*---------------------------------------------------------------------------*/
FoamFile
{
    version     2.0;
    format      ascii;
    arch        "LSB;label=32;scalar=64";
    class       volScalarField;
    location    "1.75";
    object      p;
}
// * * * * * * * * * * * * * * * * * * * * * * * * * * * * * * * * * * * * * //

dimensions      [1 -1 -2 0 0 0 0];

internalField   nonuniform List<scalar> 
1375
(
47041.85
47041.852
47041.853
47041.854
47041.858
47041.87
47041.827
47041.829
47041.832
47041.837
47041.841
47041.844
47041.84
47041.841
47041.854
47041.873
47041.888
47041.887
47041.884
47041.884
47041.885
47041.885
47041.887
47041.891
47041.898
47041.725
47041.731
47041.736
47041.742
47041.749
47041.756
47041.764
47041.768
47041.768
47041.768
47041.762
47041.756
47041.753
47041.752
47041.753
47041.756
47041.764
47041.774
47041.784
47041.794
47041.808
47041.829
47041.854
47041.877
47041.903
47041.937
47041.969
47041.597
47041.598
47041.599
47041.602
47041.605
47041.608
47041.612
47041.614
47041.615
47041.616
47041.62
47041.623
47041.624
47041.624
47041.624
47041.625
47041.63
47041.641
47041.655
47041.672
47041.692
47041.719
47041.752
47041.79
47041.825
47041.859
47041.895
47041.94
47041.991
47042.035
47042.064
47042.076
47042.06
47042.022
47041.433
47041.433
47041.434
47041.437
47041.441
47041.446
47041.45
47041.455
47041.458
47041.462
47041.467
47041.477
47041.49
47041.502
47041.512
47041.522
47041.53
47041.542
47041.559
47041.577
47041.595
47041.615
47041.64
47041.679
47041.724
47041.76
47041.8
47041.847
47041.891
47041.938
47041.98
47042.003
47041.994
47041.948
47041.892
47041.817
47041.705
47041.614
47041.275
47041.274
47041.273
47041.273
47041.274
47041.277
47041.281
47041.286
47041.291
47041.298
47041.305
47041.314
47041.327
47041.344
47041.364
47041.387
47041.411
47041.435
47041.459
47041.478
47041.493
47041.507
47041.525
47041.555
47041.597
47041.634
47041.663
47041.7
47041.738
47041.774
47041.81
47041.829
47041.824
47041.784
47041.725
47041.665
47041.573
47041.459
47041.339
47041.247
47041.122
47041.223
47041.22
47041.217
47041.213
47041.209
47041.206
47041.205
47041.204
47041.206
47041.21
47041.214
47041.218
47041.225
47041.233
47041.243
47041.254
47041.264
47041.277
47041.295
47041.32
47041.349
47041.379
47041.408
47041.435
47041.469
47041.503
47041.529
47041.548
47041.565
47041.589
47041.604
47041.613
47041.61
47041.598
47041.545
47041.483
47041.416
47041.322
47041.229
47041.185
47041.071
47041.025
47040.977
47040.928
47041.201
47041.197
47041.191
47041.184
47041.178
47041.172
47041.167
47041.162
47041.159
47041.157
47041.157
47041.158
47041.163
47041.171
47041.182
47041.194
47041.205
47041.213
47041.219
47041.226
47041.232
47041.238
47041.244
47041.258
47041.289
47041.326
47041.357
47041.379
47041.387
47041.385
47041.384
47041.382
47041.373
47041.374
47041.345
47041.309
47041.277
47041.232
47041.175
47041.149
47041.04
47041.008
47040.924
47040.814
47040.669
47040.687
47041.154
47041.154
47041.147
47041.138
47041.128
47041.117
47041.106
47041.097
47041.088
47041.079
47041.071
47041.064
47041.058
47041.055
47041.058
47041.065
47041.077
47041.092
47041.107
47041.123
47041.138
47041.147
47041.147
47041.14
47041.131
47041.12
47041.11
47041.111
47041.122
47041.126
47041.114
47041.099
47041.09
47041.094
47041.112
47041.121
47041.13
47041.14
47041.116
47041.111
47041.013
47040.942
47040.825
47040.708
47040.551
47040.56
47040.451
47040.699
47041.057
47041.072
47041.074
47041.069
47041.059
47041.044
47041.025
47041.005
47040.985
47040.966
47040.947
47040.928
47040.91
47040.893
47040.88
47040.872
47040.872
47040.878
47040.889
47040.901
47040.914
47040.928
47040.938
47040.941
47040.937
47040.924
47040.9
47040.866
47040.833
47040.813
47040.787
47040.758
47040.748
47040.777
47040.833
47040.871
47040.92
47040.959
47040.975
47040.967
47040.898
47040.871
47040.745
47040.655
47040.442
47040.448
47040.331
47040.613
47041.071
47040.848
47040.882
47040.901
47040.915
47040.924
47040.926
47040.92
47040.908
47040.891
47040.869
47040.844
47040.816
47040.787
47040.756
47040.725
47040.698
47040.675
47040.658
47040.645
47040.633
47040.624
47040.621
47040.623
47040.626
47040.628
47040.628
47040.619
47040.597
47040.562
47040.527
47040.492
47040.46
47040.428
47040.419
47040.441
47040.532
47040.628
47040.687
47040.734
47040.775
47040.823
47040.754
47040.622
47040.565
47040.341
47040.363
47040.249
47040.596
47040.96
47040.556
47040.607
47040.643
47040.674
47040.7
47040.72
47040.735
47040.743
47040.744
47040.738
47040.725
47040.706
47040.679
47040.647
47040.61
47040.57
47040.531
47040.493
47040.458
47040.424
47040.389
47040.357
47040.33
47040.309
47040.294
47040.284
47040.278
47040.27
47040.256
47040.235
47040.214
47040.189
47040.151
47040.112
47040.115
47040.168
47040.273
47040.387
47040.486
47040.569
47040.557
47040.528
47040.557
47040.501
47040.316
47040.317
47040.214
47040.603
47040.839
47040.192
47040.26
47040.314
47040.363
47040.407
47040.447
47040.48
47040.508
47040.529
47040.543
47040.549
47040.547
47040.537
47040.517
47040.489
47040.455
47040.414
47040.37
47040.323
47040.274
47040.223
47040.17
47040.12
47040.078
47040.046
47040.024
47040.005
47039.984
47039.965
47039.952
47039.948
47039.937
47039.907
47039.872
47039.84
47039.841
47039.926
47040.073
47040.222
47040.311
47040.312
47040.363
47040.459
47040.471
47040.326
47040.346
47040.243
47040.604
47040.775
47039.813
47039.89
47039.954
47040.016
47040.075
47040.13
47040.181
47040.227
47040.268
47040.303
47040.331
47040.351
47040.361
47040.36
47040.348
47040.326
47040.296
47040.259
47040.215
47040.165
47040.11
47040.053
47039.994
47039.935
47039.885
47039.849
47039.825
47039.804
47039.781
47039.757
47039.744
47039.734
47039.705
47039.647
47039.589
47039.576
47039.631
47039.777
47039.943
47040.059
47040.138
47040.281
47040.393
47040.468
47040.347
47040.42
47040.287
47040.612
47040.729
47039.461
47039.538
47039.606
47039.672
47039.737
47039.801
47039.862
47039.921
47039.977
47040.029
47040.076
47040.115
47040.146
47040.167
47040.177
47040.177
47040.166
47040.146
47040.118
47040.083
47040.039
47039.987
47039.93
47039.871
47039.813
47039.764
47039.726
47039.696
47039.671
47039.642
47039.612
47039.59
47039.564
47039.502
47039.426
47039.4
47039.443
47039.552
47039.717
47039.876
47040.022
47040.194
47040.317
47040.431
47040.376
47040.536
47040.386
47040.647
47040.707
47039.142
47039.214
47039.277
47039.342
47039.406
47039.47
47039.533
47039.594
47039.653
47039.711
47039.767
47039.819
47039.868
47039.911
47039.948
47039.977
47039.997
47040.007
47040.007
47039.999
47039.98
47039.951
47039.914
47039.867
47039.81
47039.75
47039.691
47039.635
47039.587
47039.548
47039.513
47039.484
47039.465
47039.434
47039.377
47039.333
47039.34
47039.432
47039.575
47039.743
47039.921
47040.113
47040.271
47040.438
47040.475
47040.653
47040.502
47040.694
47040.698
47038.892
47038.948
47038.998
47039.051
47039.106
47039.162
47039.22
47039.278
47039.336
47039.395
47039.452
47039.51
47039.567
47039.622
47039.675
47039.726
47039.774
47039.817
47039.852
47039.878
47039.894
47039.896
47039.883
47039.856
47039.811
47039.756
47039.692
47039.621
47039.547
47039.48
47039.435
47039.414
47039.401
47039.391
47039.368
47039.342
47039.347
47039.398
47039.515
47039.682
47039.881
47040.1
47040.268
47040.465
47040.58
47040.748
47040.592
47040.679
47040.674
47038.744
47038.786
47038.823
47038.861
47038.902
47038.944
47038.989
47039.036
47039.086
47039.138
47039.193
47039.25
47039.308
47039.366
47039.424
47039.48
47039.533
47039.584
47039.634
47039.681
47039.721
47039.753
47039.771
47039.771
47039.756
47039.72
47039.667
47039.606
47039.541
47039.473
47039.411
47039.379
47039.374
47039.385
47039.383
47039.379
47039.391
47039.423
47039.543
47039.705
47039.909
47040.12
47040.284
47040.47
47040.63
47040.727
47040.644
47040.661
47040.645
47038.641
47038.681
47038.714
47038.747
47038.781
47038.815
47038.851
47038.887
47038.926
47038.967
47039.011
47039.058
47039.107
47039.157
47039.208
47039.259
47039.311
47039.363
47039.417
47039.472
47039.523
47039.564
47039.594
47039.614
47039.63
47039.641
47039.63
47039.592
47039.543
47039.493
47039.443
47039.402
47039.388
47039.405
47039.426
47039.442
47039.462
47039.538
47039.603
47039.732
47039.957
47040.155
47040.303
47040.473
47040.626
47040.668
47040.621
47040.703
47040.598
47038.541
47038.585
47038.62
47038.654
47038.687
47038.719
47038.751
47038.784
47038.819
47038.854
47038.891
47038.929
47038.968
47039.008
47039.049
47039.091
47039.138
47039.189
47039.242
47039.295
47039.345
47039.394
47039.442
47039.488
47039.526
47039.548
47039.552
47039.551
47039.537
47039.529
47039.517
47039.488
47039.456
47039.459
47039.473
47039.498
47039.534
47039.594
47039.687
47039.812
47039.976
47040.17
47040.326
47040.505
47040.593
47040.592
47040.521
47040.78
47040.538
47038.451
47038.495
47038.533
47038.571
47038.608
47038.643
47038.677
47038.71
47038.743
47038.777
47038.812
47038.847
47038.883
47038.921
47038.96
47039.003
47039.048
47039.092
47039.134
47039.169
47039.203
47039.244
47039.297
47039.362
47039.426
47039.485
47039.534
47039.574
47039.59
47039.574
47039.545
47039.513
47039.507
47039.516
47039.527
47039.537
47039.583
47039.66
47039.767
47039.89
47040.021
47040.162
47040.342
47040.528
47040.549
47040.495
47040.486
47040.787
47040.489
47038.405
47038.445
47038.482
47038.52
47038.559
47038.597
47038.634
47038.67
47038.704
47038.738
47038.771
47038.806
47038.843
47038.881
47038.922
47038.964
47039.006
47039.047
47039.087
47039.127
47039.167
47039.207
47039.24
47039.261
47039.311
47039.409
47039.516
47039.584
47039.615
47039.627
47039.63
47039.626
47039.597
47039.547
47039.579
47039.618
47039.661
47039.734
47039.837
47039.974
47040.081
47040.166
47040.335
47040.524
47040.544
47040.462
47040.477
47040.714
47040.435
47038.379
47038.42
47038.455
47038.493
47038.532
47038.572
47038.612
47038.651
47038.688
47038.724
47038.759
47038.794
47038.83
47038.868
47038.907
47038.948
47038.989
47039.033
47039.08
47039.129
47039.181
47039.231
47039.283
47039.335
47039.363
47039.376
47039.421
47039.494
47039.564
47039.663
47039.772
47039.813
47039.802
47039.751
47039.719
47039.716
47039.759
47039.83
47039.922
47040.061
47040.159
47040.202
47040.326
47040.507
47040.572
47040.5
47040.331
47040.6
47040.415
47038.34
47038.385
47038.423
47038.461
47038.501
47038.543
47038.584
47038.626
47038.666
47038.707
47038.747
47038.786
47038.826
47038.868
47038.911
47038.954
47038.997
47039.04
47039.083
47039.13
47039.183
47039.237
47039.288
47039.335
47039.38
47039.424
47039.46
47039.517
47039.614
47039.709
47039.772
47039.842
47039.94
47039.978
47039.941
47039.915
47039.943
47039.996
47040.051
47040.148
47040.229
47040.268
47040.337
47040.487
47040.569
47040.529
47040.174
47040.472
47040.457
47038.283
47038.334
47038.376
47038.418
47038.461
47038.504
47038.547
47038.59
47038.632
47038.674
47038.716
47038.76
47038.804
47038.849
47038.896
47038.944
47038.991
47039.036
47039.077
47039.118
47039.16
47039.203
47039.251
47039.302
47039.349
47039.406
47039.466
47039.546
47039.646
47039.732
47039.814
47039.916
47040.018
47040.136
47040.195
47040.158
47040.151
47040.205
47040.236
47040.282
47040.32
47040.359
47040.367
47040.442
47040.542
47040.521
47040.13
47040.369
47040.492
47038.376
47038.42
47038.465
47038.51
47038.554
47038.599
47038.644
47038.69
47038.736
47038.785
47038.835
47038.887
47038.941
47038.994
47039.041
47039.081
47039.118
47039.151
47039.18
47039.211
47039.266
47039.333
47039.412
47039.507
47039.611
47039.72
47039.84
47039.993
47040.112
47040.188
47040.254
47040.328
47040.378
47040.411
47040.445
47040.474
47040.48
47040.489
47040.412
47040.385
47040.502
47040.484
47040.158
47040.314
47040.461
47038.465
47038.51
47038.556
47038.604
47038.655
47038.709
47038.765
47038.824
47038.884
47038.94
47038.989
47039.03
47039.071
47039.112
47039.148
47039.177
47039.212
47039.263
47039.349
47039.493
47039.645
47039.792
47039.928
47040.051
47040.167
47040.223
47040.409
47040.569
47040.638
47040.675
47040.68
47040.644
47040.642
47040.481
47040.356
47040.443
47040.432
47040.209
47040.281
47040.411
47038.575
47038.635
47038.701
47038.768
47038.833
47038.886
47038.926
47038.966
47039.012
47039.064
47039.12
47039.174
47039.236
47039.302
47039.395
47039.548
47039.775
47039.976
47040.134
47040.303
47040.385
47040.538
47040.728
47040.82
47040.848
47040.85
47040.766
47040.566
47040.369
47040.389
47040.373
47040.232
47040.221
47040.335
47038.615
47038.676
47038.733
47038.776
47038.802
47038.846
47038.911
47038.989
47039.073
47039.165
47039.273
47039.375
47039.477
47039.647
47039.924
47040.212
47040.385
47040.487
47040.559
47040.696
47040.911
47041.005
47040.867
47040.632
47040.415
47040.361
47040.296
47040.167
47040.138
47040.206
47038.61
47038.642
47038.667
47038.729
47038.808
47038.909
47039.03
47039.163
47039.283
47039.425
47039.63
47039.919
47040.174
47040.295
47040.394
47040.575
47040.747
47040.896
47040.931
47040.72
47040.508
47040.405
47040.258
47040.093
47040.053
47040.016
47038.58
47038.658
47038.762
47038.883
47039.031
47039.205
47039.372
47039.561
47039.787
47039.985
47040.155
47040.335
47040.524
47040.742
47040.836
47040.77
47040.607
47040.493
47040.292
47040.025
47039.955
47039.833
47038.629
47038.732
47038.871
47039.041
47039.238
47039.448
47039.666
47039.875
47040.056
47040.253
47040.457
47040.62
47040.696
47040.626
47040.557
47040.397
47039.966
47039.932
47039.753
47038.68
47038.893
47039.146
47039.398
47039.591
47039.731
47039.9
47040.098
47040.332
47040.522
47040.538
47040.545
47040.497
47040.054
47040.037
47039.779
47038.83
47039.104
47039.3
47039.427
47039.557
47039.727
47039.983
47040.221
47040.376
47040.485
47040.49
47040.26
47040.209
47039.901
47039.093
47039.232
47039.413
47039.627
47039.85
47040.135
47040.344
47040.386
47040.404
47040.37
47040.097
47039.092
47039.322
47039.536
47039.838
47040.114
47040.239
47040.417
47040.531
47040.317
47039.253
47039.548
47039.853
47040.072
47040.363
47040.717
47040.391
47039.281
47039.616
47039.896
47040.227
47040.787
47040.451
47039.755
47040.045
47040.622
47040.635
47039.863
47040.302
47040.655
47040.079
47040.456
)
;

boundaryField
{
    Side
    {
        type            empty;
    }
    Inlet
    {
        type            totalPressure;
        rho             rho;
        psi             none;
        gamma           1;
        p0              uniform 50000;
        value           nonuniform List<scalar> 
32
(
47040.934
47040.935
47040.934
47040.924
47040.899
47040.867
47040.839
47040.82
47040.819
47040.833
47040.846
47040.845
47040.84
47040.839
47040.841
47040.835
47040.825
47040.815
47040.808
47040.805
47040.811
47040.816
47040.812
47040.802
47040.787
47040.759
47040.721
47040.691
47040.674
47040.663
47040.655
47040.648
)
;
    }
    Airfoil
    {
        type            zeroGradient;
    }
    Outlet
    {
        type            fixedValue;
        value           nonuniform List<scalar> 0();
    }
    procBoundary4to3
    {
        type            processor;
        value           nonuniform List<scalar> 
57
(
47041.851
47041.857
47041.864
47041.873
47041.883
47041.893
47041.876
47041.876
47041.869
47041.862
47041.866
47041.884
47041.904
47041.927
47041.954
47041.978
47041.989
47042.002
47042.022
47041.91
47041.91
47041.929
47041.948
47041.97
47041.994
47042.018
47042.042
47042.062
47042.006
47042.006
47042.037
47042.055
47042.062
47042.057
47042.04
47042.006
47041.967
47041.967
47041.884
47041.795
47041.729
47041.512
47041.512
47041.387
47041.305
47041.132
47041.132
47041.127
47041.027
47040.806
47040.806
47040.801
47040.597
47040.597
47040.738
47041.099
47041.099
)
;
    }
    procBoundary4to5
    {
        type            processor;
        value           nonuniform List<scalar> 
64
(
47038.245
47038.287
47038.331
47038.331
47038.259
47038.299
47038.339
47038.379
47038.421
47038.421
47038.326
47038.359
47038.394
47038.432
47038.475
47038.523
47038.523
47038.403
47038.447
47038.501
47038.559
47038.559
47038.426
47038.473
47038.517
47038.56
47038.56
47038.42
47038.464
47038.511
47038.539
47038.539
47038.452
47038.492
47038.548
47038.548
47038.406
47038.443
47038.524
47038.524
47038.357
47038.556
47038.556
47038.491
47038.739
47038.939
47038.939
47038.704
47038.867
47038.867
47038.759
47039.006
47039.006
47038.981
47038.981
47039.009
47039.386
47039.386
47039.627
47039.627
47039.726
47039.726
47040.048
47040.238
)
;
    }
    procBoundary4to11
    {
        type            processor;
        value           nonuniform List<scalar> 
26
(
47041.831
47041.73
47041.612
47041.45
47041.285
47041.231
47041.211
47041.163
47041.063
47040.852
47040.555
47040.18
47039.794
47039.44
47039.121
47038.874
47038.728
47038.623
47038.518
47038.425
47038.379
47038.35
47038.31
47038.255
47041.847
47041.847
)
;
    }
    procBoundary4to12
    {
        type            processor;
        value           uniform 47038.194;
    }
}


// ************************************************************************* //
