/*--------------------------------*- C++ -*----------------------------------*\
| =========                 |                                                 |
| \\      /  F ield         | OpenFOAM: The Open Source CFD Toolbox           |
|  \\    /   O peration     | Version:  2506                                  |
|   \\  /    A nd           | Website:  www.openfoam.com                      |
|    \\/     M anipulation  |                                                 |
\*---------------------------------------------------------------------------*/
FoamFile
{
    version     2.0;
    format      ascii;
    arch        "LSB;label=32;scalar=64";
    class       volScalarField;
    location    "0.0115";
    object      Ma;
}
// * * * * * * * * * * * * * * * * * * * * * * * * * * * * * * * * * * * * * //

dimensions      [0 0 0 0 0 0 0];

internalField   nonuniform List<scalar> 
13761
(
0.29960671
0.29959446
0.29959043
0.29959292
0.29958086
0.2995926
0.29955257
0.29954865
0.29954281
0.29945357
0.29964573
0.29960607
0.29959427
0.29959038
0.29959284
0.29958078
0.29959233
0.29955216
0.2995487
0.2995421
0.29945338
0.29964596
0.29960617
0.29959432
0.29959042
0.29959281
0.2995809
0.29959217
0.29955271
0.29954877
0.299543
0.29945295
0.29964629
0.29965958
0.29960617
0.29959434
0.29959044
0.29959277
0.299581
0.299592
0.29955316
0.29954885
0.29954376
0.29945256
0.29964662
0.2996596
0.29960618
0.29959436
0.29959046
0.29959273
0.29958109
0.29959184
0.29955359
0.29954893
0.29954448
0.29945218
0.29964696
0.29965966
0.2996062
0.29959438
0.29959049
0.29959269
0.29958118
0.29959168
0.29955399
0.29954903
0.29954518
0.29945181
0.29964731
0.29980448
0.29965976
0.29960624
0.2995944
0.29959051
0.29959265
0.29958127
0.29959153
0.29955439
0.29954912
0.29954585
0.29945146
0.29964767
0.29980649
0.2996599
0.29960629
0.29959443
0.29959053
0.29959261
0.29958135
0.29959137
0.29955476
0.29954922
0.2995465
0.29945112
0.29964803
0.29980859
0.29966009
0.29960636
0.29959445
0.29959056
0.29959257
0.29958143
0.29959122
0.29955513
0.29954932
0.29954714
0.2994508
0.2996484
0.3001303
0.29981075
0.29966032
0.29960644
0.29959449
0.29959058
0.29959253
0.29958151
0.29959108
0.29955548
0.29954943
0.29954776
0.29945049
0.29964878
0.30013839
0.29981299
0.2996606
0.29960654
0.29959452
0.2995906
0.2995925
0.29958159
0.29959093
0.29955582
0.29954954
0.29954836
0.2994502
0.29964915
0.30014659
0.29981528
0.29966092
0.29960665
0.29959456
0.29959063
0.29959246
0.29958167
0.29959079
0.29955616
0.29954965
0.29954895
0.29944992
0.29964953
0.30015487
0.29981764
0.29966127
0.29960677
0.29959459
0.29959065
0.29959242
0.29958174
0.29959066
0.29955648
0.29954977
0.29954953
0.29944965
0.29964992
0.30074226
0.30016323
0.29982005
0.29966167
0.29960691
0.29959463
0.29959067
0.29959239
0.29958182
0.29959052
0.29955679
0.29954989
0.29955009
0.29944939
0.2996503
0.30076332
0.30017167
0.29982252
0.2996621
0.29960706
0.29959468
0.29959069
0.29959235
0.29958189
0.29959039
0.2995571
0.29955001
0.29955065
0.29944915
0.29965069
0.30078444
0.30018018
0.29982504
0.29966257
0.29960722
0.29959472
0.29959072
0.29959232
0.29958196
0.29959026
0.29955739
0.29955013
0.29955119
0.29944892
0.29965108
0.3014294
0.3008056
0.30018875
0.29982761
0.29966308
0.29960739
0.29959477
0.29959074
0.29959229
0.29958203
0.29959013
0.29955768
0.29955025
0.29955172
0.2994487
0.29965147
0.3014699
0.3008268
0.30019739
0.29983023
0.29966362
0.29960757
0.29959482
0.29959076
0.29959225
0.29958209
0.29959
0.29955796
0.29955038
0.29955225
0.2994485
0.29965186
0.30151047
0.30084802
0.30020609
0.29983289
0.2996642
0.29960776
0.29959487
0.29959079
0.29959222
0.29958216
0.29958988
0.29955824
0.29955051
0.29955276
0.2994483
0.29965225
0.30154125
0.30155108
0.30086925
0.30021483
0.29983559
0.29966481
0.29960796
0.29959492
0.29959081
0.29959219
0.29958222
0.29958976
0.2995585
0.29955063
0.29955327
0.29944811
0.29965265
0.30159491
0.30159172
0.3008905
0.30022362
0.29983834
0.29966546
0.29960817
0.29959497
0.29959083
0.29959216
0.29958229
0.29958964
0.29955876
0.29955076
0.29955377
0.29944794
0.29965304
0.30164914
0.30163238
0.30091176
0.30023246
0.29984112
0.29966614
0.29960839
0.29959503
0.29959086
0.29959213
0.29958235
0.29958953
0.29955902
0.29955089
0.29955426
0.29944778
0.30059378
0.30170396
0.30167307
0.30093302
0.30024134
0.29984393
0.29966684
0.29960861
0.29959509
0.29959088
0.2995921
0.29958241
0.29958941
0.29955926
0.29955102
0.29955474
0.29944763
0.30063839
0.30175931
0.30171376
0.30095429
0.30025026
0.29984679
0.29966758
0.29960885
0.29959515
0.2995909
0.29959207
0.29958247
0.2995893
0.2995595
0.29955115
0.29955521
0.29944748
0.29851008
0.30068363
0.30181517
0.30175446
0.30097556
0.30025921
0.29984967
0.29966835
0.29960909
0.29959521
0.29959093
0.29959204
0.29958252
0.29958919
0.29955974
0.29955129
0.29955568
0.29944735
0.29854275
0.30072959
0.3018715
0.30179516
0.30099682
0.3002682
0.29985258
0.29966915
0.29960933
0.29959527
0.29959095
0.29959202
0.29958258
0.29958908
0.29955996
0.29955142
0.29955614
0.29944723
0.29857595
0.30077633
0.30192826
0.30183584
0.30101806
0.30027721
0.29985552
0.29966997
0.29960959
0.29959533
0.29959097
0.29959199
0.29958264
0.29958898
0.29956019
0.29955155
0.2995566
0.29670633
0.29860973
0.30082386
0.30198543
0.30187649
0.30103928
0.30028624
0.29985849
0.29967082
0.29960985
0.29959539
0.299591
0.29959196
0.29958269
0.29958888
0.2995604
0.29955168
0.29955705
0.29672407
0.29864405
0.3008722
0.30204295
0.30191712
0.30106049
0.30029529
0.29986148
0.2996717
0.29961011
0.29959546
0.29959102
0.29959193
0.29958274
0.29958877
0.29956062
0.29955181
0.29955749
0.29674204
0.29867893
0.30092139
0.30210081
0.3019577
0.30108167
0.30030436
0.2998645
0.2996726
0.29961038
0.29959552
0.29959104
0.29959191
0.2995828
0.29958868
0.29956082
0.29955195
0.29955793
0.29686277
0.29676026
0.29871434
0.30097145
0.30215898
0.30199825
0.30110282
0.30031345
0.29986754
0.29967352
0.29961066
0.29959559
0.29959106
0.29959188
0.29958285
0.29958858
0.29956102
0.29955208
0.29955836
0.29689375
0.29677875
0.29875029
0.30102241
0.30221743
0.30203874
0.30112394
0.30032255
0.29987061
0.29967446
0.29961094
0.29959566
0.29959109
0.29959186
0.2995829
0.29958848
0.29956122
0.29955221
0.29716312
0.29692507
0.29679751
0.29878676
0.30107426
0.30227614
0.30207918
0.30114503
0.30033166
0.29987369
0.29967543
0.29961123
0.29959573
0.29959111
0.29959184
0.29958295
0.29958839
0.29956141
0.29955234
0.29721309
0.29695667
0.29681658
0.29882376
0.30112705
0.30233509
0.30211957
0.30116609
0.30034078
0.2998768
0.29967642
0.29961152
0.2995958
0.29959113
0.29959181
0.299583
0.2995883
0.2995616
0.29955247
0.29644982
0.29726325
0.29698851
0.29683599
0.2988613
0.30118079
0.30239428
0.30215988
0.3011871
0.30034989
0.29987992
0.29967742
0.29961181
0.29959587
0.29959115
0.29959179
0.29958304
0.29958821
0.29956179
0.2995526
0.29650543
0.29731362
0.29702058
0.29685577
0.29889936
0.30123549
0.30245367
0.30220012
0.30120806
0.30035901
0.29988305
0.29967845
0.29961211
0.29959594
0.29959118
0.29959177
0.29958309
0.29958812
0.29956197
0.29955272
0.29656184
0.29736417
0.29705286
0.29687592
0.29893793
0.30129116
0.30251326
0.30224029
0.30122897
0.30036812
0.29988621
0.29967949
0.29961241
0.29959601
0.2995912
0.29959174
0.29958313
0.29958803
0.29956214
0.29955285
0.29570242
0.29661908
0.29741489
0.29708532
0.29689649
0.29897701
0.3013478
0.30257303
0.30228037
0.30124984
0.30037723
0.29988938
0.29968054
0.29961272
0.29959608
0.29959122
0.29959172
0.29958318
0.29958795
0.29956231
0.2957605
0.29667714
0.29746578
0.29711794
0.29691747
0.2990166
0.30140543
0.30263297
0.30232036
0.30127065
0.30038633
0.29989257
0.29968161
0.29961302
0.29959615
0.29959124
0.2995917
0.29958322
0.29958787
0.29956248
0.2955825
0.29581886
0.29673599
0.29751683
0.2971507
0.2969389
0.2990567
0.30146404
0.30269305
0.30236026
0.3012914
0.30039542
0.29989578
0.2996827
0.29961333
0.29959622
0.29959126
0.29959168
0.29958326
0.29958779
0.29956265
0.29565821
0.29587745
0.29679563
0.29756804
0.29718359
0.29696077
0.29909731
0.30152366
0.30275328
0.30240007
0.3013121
0.3004045
0.29989899
0.29968379
0.29961365
0.2995963
0.29959128
0.29959166
0.29958331
0.29958771
0.29956281
0.29518974
0.29573444
0.29593626
0.29685605
0.29761939
0.2972166
0.29698311
0.29913841
0.30158427
0.30281363
0.30243979
0.30133274
0.30041357
0.29990222
0.2996849
0.29961396
0.29959637
0.29959131
0.29959164
0.29958335
0.29958763
0.29956296
0.2943383
0.29527984
0.2958112
0.29599525
0.29691723
0.29767088
0.29724969
0.29700592
0.29918003
0.30164591
0.3028741
0.3024794
0.3013533
0.30042261
0.29990546
0.29968602
0.29961428
0.29959644
0.29959133
0.29959162
0.29958339
0.29958755
0.29956312
0.29444114
0.29537064
0.29588849
0.29605441
0.29697917
0.2977225
0.29728284
0.29702923
0.29922218
0.30170858
0.30293467
0.30251889
0.3013738
0.30043163
0.29990871
0.29968714
0.2996146
0.29959652
0.29959135
0.2995916
0.29958343
0.29958748
0.29384117
0.29454485
0.29546214
0.29596633
0.29611372
0.29704184
0.29777423
0.29731608
0.29705303
0.29926482
0.30177228
0.30299533
0.30255827
0.30139422
0.30044063
0.29991197
0.29968827
0.29961492
0.29959659
0.29959137
0.29959159
0.29958346
0.29958741
0.29396034
0.29464942
0.29555432
0.29604472
0.29617317
0.29710521
0.29782608
0.29734936
0.29707735
0.29930797
0.301837
0.30305608
0.30259753
0.30141457
0.3004496
0.29991524
0.29968941
0.29961524
0.29959666
0.29959139
0.29959157
0.2995835
0.29958734
0.29325696
0.29408038
0.29475486
0.29564719
0.29612367
0.29623276
0.29716927
0.29787804
0.29738269
0.29710217
0.29935164
0.30190276
0.3031169
0.30263667
0.30143484
0.30045855
0.29991852
0.29969055
0.29961557
0.29959674
0.29959141
0.29959155
0.29958354
0.29958727
0.29244897
0.29339396
0.29420128
0.29486114
0.29574072
0.29620316
0.29629249
0.29723399
0.2979301
0.29741606
0.29712752
0.29939582
0.30196955
0.30317779
0.30267568
0.30145503
0.30046746
0.2999218
0.2996917
0.29961589
0.29959681
0.29959143
0.29959153
0.29958358
0.2995872
0.29260276
0.29353197
0.29432304
0.29496826
0.2958349
0.29628321
0.29635238
0.29729933
0.29798226
0.29744945
0.29715339
0.29944053
0.30203736
0.30323873
0.30271456
0.30147514
0.30047634
0.2999251
0.29969285
0.29961621
0.29959688
0.29959145
0.29959152
0.29958361
0.29184398
0.29275773
0.29367098
0.29444563
0.29507621
0.29592973
0.29636379
0.29641244
0.29736526
0.29803452
0.29748285
0.29717978
0.29948575
0.30210619
0.30329972
0.3027533
0.30149516
0.30048518
0.29992839
0.29969401
0.29961654
0.29959695
0.29959147
0.2995915
0.29958365
0.29104238
0.29201569
0.29291387
0.29381097
0.29456904
0.29518497
0.29602519
0.2964449
0.29647271
0.29743175
0.29808687
0.29751627
0.2972067
0.29953151
0.30217602
0.30336075
0.30279191
0.30151509
0.30049399
0.2999317
0.29969517
0.29961686
0.29959703
0.29959149
0.29959149
0.29958368
0.29025369
0.29123059
0.29218869
0.29307114
0.29395193
0.29469327
0.29529454
0.29612127
0.29652653
0.29653322
0.29749875
0.29813929
0.29754969
0.29723415
0.29957782
0.30224687
0.30342181
0.30283037
0.30153493
0.30050276
0.299935
0.29969632
0.29961719
0.2995971
0.29959151
0.29959147
0.29958371
0.28949409
0.29045661
0.29142028
0.29236294
0.29322952
0.29409384
0.29481828
0.2954049
0.29621797
0.29660866
0.29659401
0.29756623
0.29819179
0.29758308
0.29726213
0.29962472
0.30231872
0.30348291
0.30286868
0.30155466
0.30051148
0.29993831
0.29969748
0.29961751
0.29959717
0.29959152
0.29959146
0.29958375
0.28874465
0.28971173
0.2906612
0.29161144
0.29253843
0.293389
0.29423669
0.29494407
0.29551604
0.29631528
0.29669127
0.29665515
0.29763414
0.29824436
0.29761646
0.29729063
0.29967219
0.30239153
0.30354401
0.30290683
0.3015743
0.30052016
0.29994162
0.29969864
0.29961783
0.29959724
0.29959154
0.29959144
0.29958378
0.28800653
0.28897797
0.28993112
0.29086746
0.29180404
0.29271514
0.29354953
0.29438045
0.29507063
0.29562794
0.29641318
0.29677434
0.29671667
0.29770243
0.298297
0.29764981
0.29731965
0.29972027
0.30246528
0.30360513
0.30294482
0.30159384
0.3005288
0.29994493
0.29969979
0.29961816
0.29959732
0.29959156
0.29959143
0.28726551
0.28825684
0.28921306
0.29015229
0.29107537
0.29199808
0.29289304
0.2937111
0.29452512
0.29519793
0.29574056
0.29651167
0.29685785
0.29677863
0.29777107
0.29834971
0.29768312
0.29734919
0.299769
0.30253995
0.30366624
0.30298264
0.30161327
0.30053738
0.29994824
0.29970095
0.29961848
0.29959739
0.29959158
0.29959141
0.2865269
0.28753326
0.28850892
0.28944993
0.29037522
0.29128493
0.29219351
0.29307211
0.29387369
0.29467066
0.29532596
0.2958539
0.29661074
0.29694179
0.2968411
0.29784001
0.29840249
0.29771637
0.29737924
0.2998184
0.3026155
0.30372734
0.3030203
0.3016326
0.30054592
0.29995154
0.2997021
0.2996188
0.29959746
0.2995916
0.2995914
0.28580401
0.28681135
0.28780288
0.28876277
0.28968858
0.29059992
0.29149612
0.29239033
0.29325232
0.29403725
0.29481708
0.29545471
0.29596793
0.29671039
0.29702613
0.29690412
0.29790922
0.29845537
0.29774953
0.29740977
0.29986853
0.30269188
0.30378842
0.30305778
0.30165181
0.30055441
0.29995485
0.29970325
0.29961911
0.29959753
0.29959161
0.29959139
0.28411436
0.28510678
0.2861042
0.28709789
0.28807437
0.28901839
0.28992902
0.29082638
0.29170893
0.29258851
0.29343365
0.29420177
0.29496435
0.29558416
0.29608262
0.2968106
0.29711084
0.29696775
0.29797867
0.29850835
0.29778259
0.29744079
0.29991943
0.30276905
0.30384947
0.30309508
0.30167091
0.30056285
0.29995815
0.2997044
0.29961943
0.2995976
0.29959163
0.29959138
0.2834685
0.28444168
0.285422
0.28640672
0.2873865
0.2883477
0.28927577
0.29017126
0.29105462
0.29192334
0.29278803
0.29361608
0.29436723
0.29511246
0.2957143
0.29619795
0.29691136
0.29719591
0.29703203
0.29804833
0.29856147
0.29781552
0.29747227
0.29997114
0.30284696
0.30391048
0.30313221
0.3016899
0.30057123
0.29996144
0.29970554
0.29961975
0.29959767
0.29959165
0.28191124
0.28285705
0.28381102
0.28477178
0.28573978
0.28671156
0.28767715
0.28862286
0.28953493
0.2904153
0.29128462
0.29213933
0.29298886
0.29379958
0.2945336
0.29526139
0.2958451
0.2963139
0.29701265
0.2972813
0.297097
0.29811818
0.29861474
0.2978483
0.29750421
0.30002374
0.30292556
0.30397145
0.30316915
0.30170876
0.30057956
0.29996473
0.29970667
0.29962006
0.29959773
0.29959167
0.27959654
0.28046629
0.28136406
0.28228293
0.28321547
0.28415643
0.28510461
0.28606009
0.28701866
0.28796979
0.28889984
0.28979586
0.29066116
0.29151637
0.29235688
0.29319098
0.29398414
0.29470085
0.29541113
0.29597656
0.29643044
0.29711448
0.29736699
0.29716271
0.2981882
0.29866818
0.29788086
0.29753659
0.30007731
0.30300483
0.30403236
0.3032059
0.3017275
0.30058782
0.29996801
0.2997078
0.29962037
0.2995978
0.29959168
0.2784011
0.27918716
0.28001075
0.28086764
0.28175227
0.28265775
0.28357686
0.28450469
0.28544014
0.28638289
0.28732799
0.28826441
0.28917862
0.29005858
0.29090884
0.29174989
0.29257599
0.29339437
0.29416972
0.29486898
0.29556166
0.29610866
0.29654756
0.2972168
0.29745296
0.29722918
0.29825838
0.29872183
0.29791321
0.2975694
0.3001319
0.30308469
0.30409321
0.30324245
0.30174611
0.30059603
0.29997127
0.29970892
0.29962068
0.29959787
0.2995917
0.27617939
0.27677583
0.27742044
0.27811058
0.27884389
0.27961756
0.28042845
0.28127236
0.2821437
0.28303564
0.28394118
0.28485575
0.28577832
0.28670814
0.28763951
0.28856097
0.28945921
0.2903231
0.29115836
0.29198515
0.29279663
0.293599
0.29435631
0.29503794
0.29571297
0.29624139
0.29666523
0.29731962
0.29753918
0.29729643
0.29832871
0.29877572
0.29794532
0.29760262
0.30018756
0.30316511
0.30415398
0.3032788
0.30176459
0.30060418
0.29997453
0.29971004
0.29962098
0.29959793
0.29959172
0.27436175
0.27475533
0.2751768
0.27563221
0.27612747
0.27666811
0.27725589
0.27789015
0.27856892
0.27929021
0.28005146
0.28084959
0.28168039
0.2825383
0.28341653
0.28430838
0.28520956
0.28611911
0.28703578
0.28795318
0.28885946
0.28974159
0.29058941
0.2914097
0.29222215
0.29301876
0.29380485
0.29454389
0.29520773
0.29586504
0.29637472
0.29678344
0.29742289
0.29762563
0.29736449
0.29839917
0.29882987
0.29797716
0.29763624
0.30024437
0.30324604
0.30421466
0.30331495
0.30178294
0.30061227
0.29997777
0.29971115
0.29962128
0.299598
0.29959173
0.27290215
0.27304499
0.27321011
0.27340334
0.27362616
0.27388167
0.27417219
0.27450033
0.27486261
0.27525597
0.2756783
0.27613322
0.27662533
0.27715994
0.27773921
0.27836323
0.2790307
0.27974002
0.28048881
0.28127408
0.28209167
0.28293598
0.28380038
0.2846784
0.28556609
0.28646247
0.28736579
0.28826896
0.28915986
0.29002577
0.29085754
0.29166288
0.29246087
0.29324238
0.2940119
0.29473243
0.29537833
0.29601786
0.29650866
0.29690217
0.29752662
0.2977123
0.29743334
0.29846978
0.29888431
0.29800871
0.29767025
0.30030238
0.30332743
0.30427526
0.30335089
0.30180116
0.3006203
0.299981
0.29971225
0.29962158
0.29959807
0.23378361
0.25223227
0.26263203
0.26782161
0.27015558
0.27110744
0.27146245
0.27158795
0.2716375
0.27167006
0.27170724
0.27175548
0.27181346
0.27187631
0.27193902
0.27199706
0.27204682
0.27208712
0.27212153
0.27216032
0.27221586
0.27229194
0.27238019
0.27247046
0.27256146
0.27265961
0.27276892
0.27288685
0.27300782
0.27312901
0.27324956
0.27336969
0.2734923
0.27362603
0.27378003
0.27396034
0.2741686
0.27440924
0.27468682
0.27500636
0.27536498
0.27575853
0.27618209
0.27663688
0.27712611
0.27765487
0.27822576
0.27883967
0.2794959
0.28019324
0.28092953
0.28170187
0.28250611
0.28333669
0.28418711
0.2850512
0.28592529
0.28680835
0.28769811
0.28858684
0.28946214
0.29031174
0.29112749
0.2919179
0.2927013
0.29346744
0.29422011
0.29492192
0.29554971
0.2961714
0.29664318
0.2970214
0.29763076
0.29779915
0.29750301
0.29854052
0.29893905
0.29803997
0.29770464
0.30036166
0.30340926
0.30433575
0.30338661
0.30181924
0.30062826
0.29998421
0.29971335
0.29962188
0.29959813
0.20684588
0.23460303
0.25290718
0.26320685
0.26835178
0.27067275
0.27162257
0.27197766
0.27210368
0.27215487
0.27219108
0.27223416
0.27228986
0.27235561
0.27242546
0.27249349
0.27255408
0.27260278
0.27263908
0.27266918
0.27270673
0.27276598
0.27284995
0.27294807
0.27304863
0.2731499
0.27325791
0.27337532
0.27349756
0.27361815
0.27373572
0.27385149
0.27396629
0.27408197
0.27420662
0.27434957
0.27451724
0.27471127
0.27493744
0.27520244
0.27551382
0.2758693
0.27626337
0.27668845
0.27714334
0.27762986
0.27815292
0.27871554
0.2793194
0.27996444
0.2806498
0.28137355
0.28213287
0.28292364
0.28374037
0.28457669
0.28542674
0.28628712
0.28715672
0.28803272
0.28890677
0.28976629
0.29059952
0.29139927
0.29217476
0.29294342
0.29369393
0.29442946
0.29511233
0.29572187
0.29632565
0.29677828
0.29714113
0.29773531
0.29788618
0.29757348
0.2986114
0.29899411
0.29807094
0.29773941
0.30042224
0.30349149
0.30439614
0.30342213
0.30183717
0.30063616
0.2999874
0.29971443
0.29962217
0.29959819
0.1401642
0.17349753
0.20774096
0.2353873
0.25355584
0.26376633
0.26887565
0.27118955
0.27214059
0.27249731
0.27262443
0.2726773
0.27271682
0.27276523
0.27282763
0.27290036
0.27297651
0.27304936
0.27311226
0.27316002
0.27319277
0.27321919
0.27325608
0.27331932
0.27341103
0.27351849
0.27362858
0.27373933
0.27385649
0.27398143
0.27410761
0.27422774
0.27434179
0.27445295
0.27456244
0.27467126
0.27478692
0.27491893
0.27507428
0.27525451
0.27546667
0.27571954
0.27602319
0.27637589
0.27677077
0.27719755
0.2776527
0.27813663
0.27865407
0.27920851
0.2798024
0.28043627
0.28110964
0.28182079
0.28256701
0.2833442
0.28414694
0.28496904
0.28580496
0.28665154
0.28750755
0.28836959
0.28922873
0.29007232
0.2908891
0.29167289
0.29243344
0.2931872
0.29392182
0.29463993
0.29530365
0.29589478
0.2964806
0.29691394
0.29726133
0.29784024
0.29797336
0.29764474
0.29868241
0.29904949
0.29810162
0.29777453
0.30048419
0.30357408
0.30445642
0.30345743
0.30185496
0.300644
0.29999057
0.29971551
0.29962246
0.29959825
0.10468143
0.11664778
0.14089669
0.17435345
0.20859114
0.23613211
0.25417641
0.2643103
0.269394
0.27170719
0.27266296
0.27302303
0.27315193
0.27320655
0.27324908
0.27330218
0.27337047
0.27344931
0.27353097
0.27360806
0.27367298
0.27371989
0.27374952
0.27377289
0.27380964
0.27387703
0.27397614
0.27409223
0.27421096
0.27433025
0.27445568
0.27458743
0.27471711
0.27483664
0.27494726
0.27505395
0.2751582
0.2752602
0.27536702
0.27548834
0.27563161
0.27579853
0.27599724
0.27623846
0.27653484
0.27688511
0.27728101
0.27770961
0.27816507
0.27864646
0.27915833
0.27970465
0.28028861
0.28091132
0.28157269
0.28227119
0.28300422
0.28376771
0.28455634
0.28536413
0.28618583
0.28701852
0.28786079
0.28870867
0.2895527
0.2903802
0.2911805
0.29194836
0.29269396
0.29343263
0.29415107
0.29485149
0.29549586
0.29606844
0.29663622
0.29705014
0.29738199
0.29794553
0.29806067
0.29771678
0.29875356
0.29910519
0.29813202
0.29781002
0.30054753
0.30365702
0.30451658
0.30349251
0.30187261
0.30065177
0.29999373
0.29971657
0.29962275
0.29959831
0.092729782
0.095367657
0.09903398
0.1050502
0.11714277
0.14159089
0.17515997
0.20939057
0.2368341
0.25476814
0.26483986
0.26990887
0.27222814
0.27319228
0.27355742
0.27368872
0.27374506
0.27379012
0.27384713
0.27392032
0.2740042
0.2740904
0.27417099
0.27423754
0.27428358
0.27431047
0.27433137
0.27436842
0.27443999
0.27454603
0.2746699
0.27479621
0.27492299
0.27505571
0.27519346
0.27532611
0.27544485
0.27555214
0.27565447
0.27575356
0.27584883
0.27594699
0.27605797
0.27618954
0.27634355
0.27652949
0.27675961
0.2770492
0.27739736
0.27779442
0.27822486
0.2786806
0.27915942
0.27966572
0.28020394
0.28077799
0.28138954
0.28203887
0.28272468
0.28344442
0.28419411
0.28496852
0.28576189
0.2865693
0.28738802
0.28821642
0.28904995
0.28987867
0.29068993
0.29147372
0.29222569
0.29295629
0.29367968
0.29438166
0.29506412
0.29568894
0.29624282
0.2967925
0.29718688
0.29750311
0.29805117
0.29814808
0.29778958
0.29882485
0.29916118
0.29816216
0.29784587
0.30061231
0.30374027
0.30457661
0.30352737
0.30189011
0.30065948
0.29999686
0.29971763
0.29962303
0.08597904
0.087468009
0.089085157
0.090895061
0.093011691
0.095659519
0.099346009
0.10541037
0.11762542
0.14226176
0.17593231
0.21015188
0.23750333
0.25533904
0.26536145
0.27042546
0.27275667
0.27373223
0.2741037
0.27423768
0.27429539
0.27434223
0.2744021
0.27447894
0.2745666
0.27465621
0.27473942
0.27480707
0.27485216
0.27487665
0.27489559
0.27493331
0.27500897
0.27512133
0.27525197
0.27538472
0.27551782
0.27565677
0.27579963
0.27593464
0.27605238
0.27615641
0.27625449
0.27634853
0.27643716
0.2765269
0.27662796
0.27674837
0.2768899
0.27706379
0.27728344
0.27756671
0.27791304
0.27831132
0.27874354
0.27919943
0.27967559
0.28017626
0.28070635
0.28127049
0.28187087
0.28250813
0.28318117
0.28388755
0.28462334
0.28538343
0.28616231
0.28695536
0.28776002
0.28857441
0.28939341
0.29020662
0.29100152
0.29176878
0.29250489
0.29322042
0.29392832
0.29461355
0.29527778
0.29588287
0.29641793
0.29694942
0.29732414
0.29762467
0.29815713
0.29823556
0.29786312
0.29889629
0.29921743
0.29819205
0.29788209
0.3006786
0.30382384
0.3046365
0.30356199
0.30190745
0.30066711
0.29999996
0.29971867
0.29962331
0.080947199
0.08221268
0.083508223
0.084847244
0.08624826
0.087737937
0.089356609
0.091169477
0.093291605
0.095949765
0.0996571
0.1057709
0.11811161
0.14293849
0.17670643
0.21090926
0.23816644
0.2559067
0.26588531
0.27094932
0.27329578
0.27428454
0.27466309
0.27479979
0.27485846
0.2749063
0.27496793
0.27504717
0.27513731
0.27522916
0.27531407
0.27538228
0.27542633
0.27544874
0.27546623
0.27550493
0.2755845
0.27570245
0.27583875
0.2759767
0.27611491
0.27625894
0.27640592
0.27654266
0.27665914
0.27675999
0.27685395
0.27694305
0.2770252
0.27710682
0.27719845
0.27730831
0.27743798
0.27760045
0.27781037
0.27808781
0.27843256
0.27883205
0.27926587
0.2797217
0.28019502
0.28068996
0.28121187
0.28176606
0.28235524
0.28298039
0.28364061
0.28433354
0.28505532
0.285801
0.28656532
0.28734396
0.28813449
0.28893473
0.28973901
0.29053655
0.29131498
0.29206568
0.29278595
0.29348635
0.29417852
0.29484672
0.29549246
0.29607764
0.29659375
0.29710698
0.29746191
0.29774666
0.29826339
0.29832308
0.29793739
0.29896786
0.29927392
0.29822171
0.29791868
0.30074637
0.30390768
0.30469625
0.30359638
0.30192464
0.30067468
0.30000304
0.2997197
0.29962358
0.069983285
0.071276711
0.072548619
0.073803218
0.075044564
0.076276761
0.077504044
0.078731124
0.079963557
0.081207876
0.082472134
0.083766641
0.085105016
0.086505962
0.087996363
0.089616873
0.091433238
0.093561572
0.096230905
0.099960019
0.1061243
0.11859191
0.14360815
0.17746975
0.21165349
0.23881796
0.25646842
0.26641021
0.27147977
0.27384497
0.27484885
0.27523537
0.27537498
0.2754343
0.27548244
0.27554483
0.27562524
0.2757166
0.27580957
0.27589531
0.27596356
0.27600651
0.27602717
0.27604371
0.27608366
0.27616687
0.27628957
0.27643036
0.27657222
0.27671427
0.27686218
0.27701229
0.27715006
0.27726505
0.27736278
0.27745276
0.27753709
0.27761296
0.27768681
0.27776956
0.27786957
0.27798819
0.27813985
0.27834086
0.27861295
0.27895633
0.27935693
0.27979207
0.28024753
0.28071776
0.28120679
0.28172044
0.28226463
0.28284257
0.28345558
0.2841029
0.2847823
0.28549
0.28622119
0.28697089
0.28773507
0.28851139
0.28929737
0.29008675
0.29086842
0.29163029
0.29236443
0.29306888
0.29375404
0.29443024
0.29508112
0.29570812
0.29627323
0.29677026
0.29726514
0.29760018
0.29786908
0.29836995
0.29841062
0.29801237
0.29903956
0.29933062
0.29825117
0.29795562
0.30081568
0.30399178
0.30475586
0.30363054
0.30194167
0.30068218
0.30000609
0.29972072
0.29962385
0.0013147323
0.0040674529
0.0070687826
0.010340941
0.013901311
0.017757491
0.021878475
0.026164948
0.030449194
0.034548467
0.038338942
0.041775802
0.044868486
0.047653183
0.050173662
0.05247167
0.054583932
0.056541339
0.058369019
0.060088036
0.061716431
0.063268821
0.064757188
0.066191759
0.067580903
0.068931757
0.070250455
0.071542287
0.072812069
0.074064237
0.075303007
0.076532604
0.077757364
0.078982084
0.080212401
0.081454922
0.082717775
0.084011355
0.085349375
0.086750666
0.088242297
0.089865224
0.09168573
0.093820963
0.096502174
0.10025364
0.10646836
0.1190606
0.14425972
0.17820986
0.21237407
0.23945103
0.25702084
0.266935
0.2720166
0.27440431
0.27542529
0.27582064
0.27596333
0.27602298
0.2760707
0.27613284
0.27621322
0.27630458
0.27639756
0.27648329
0.2765511
0.27659289
0.27661217
0.27662824
0.27666966
0.27675616
0.2768827
0.27702674
0.27717118
0.2773158
0.27746641
0.27761861
0.27775671
0.27786997
0.27796465
0.27805085
0.27813059
0.27820043
0.27826694
0.27834146
0.27843237
0.27854089
0.2786824
0.27887536
0.27914259
0.27948476
0.27988627
0.28032237
0.28077705
0.28124386
0.28172677
0.28223203
0.28276615
0.2833328
0.2839336
0.28456798
0.28523377
0.28592729
0.28664394
0.28737897
0.28812865
0.28889071
0.28966229
0.29043659
0.29120225
0.29194746
0.29266504
0.29335366
0.29402348
0.29468346
0.29531672
0.29592474
0.29646961
0.29694746
0.29742391
0.29773893
0.29799192
0.29847679
0.29849812
0.29808804
0.29911139
0.2993875
0.29828044
0.29799295
0.30088656
0.30407613
0.3048153
0.30366445
0.30195853
0.30068961
0.30000912
0.29972173
0.29962412
0.0013236872
0.0040949888
0.0071163743
0.01041014
0.013993694
0.017874366
0.022020242
0.026330343
0.030635055
0.034750696
0.038553783
0.042000404
0.0451008
0.047891712
0.050417237
0.05271932
0.054834818
0.056794711
0.0586242
0.060344405
0.061973414
0.063525887
0.065013852
0.066447575
0.067835471
0.069184722
0.070501514
0.071791191
0.073058633
0.074308342
0.075544605
0.076771724
0.077994114
0.079216652
0.080445057
0.081686018
0.082947744
0.084240719
0.08557876
0.086980826
0.088474178
0.090100077
0.091925338
0.094068136
0.096761889
0.10053617
0.10680072
0.11951292
0.14488467
0.17891707
0.21306237
0.24005962
0.2575607
0.2674581
0.27255892
0.27497313
0.27601326
0.27641837
0.27656434
0.27662402
0.27667067
0.27673158
0.27681078
0.27690098
0.27699294
0.27707786
0.27714478
0.27718542
0.27720368
0.27721975
0.2772628
0.27735218
0.2774816
0.27762763
0.27777338
0.27791932
0.27807144
0.2782247
0.27836244
0.27847378
0.27856547
0.27864813
0.27872349
0.27878764
0.27884733
0.27891432
0.27899695
0.27909636
0.27922858
0.27941434
0.2796772
0.28001825
0.28042037
0.28085696
0.28131036
0.28177336
0.28224987
0.28274659
0.28327054
0.28382584
0.28441439
0.28503576
0.28568787
0.28636716
0.28706919
0.28778953
0.28852469
0.28927242
0.29002947
0.29078852
0.29153802
0.2922665
0.29296752
0.29364031
0.29429463
0.29493812
0.29555349
0.29614229
0.29666679
0.29712534
0.29758326
0.29787816
0.29811517
0.29858391
0.29858557
0.29816437
0.29918335
0.29944452
0.29830954
0.29803064
0.30095901
0.3041607
0.30487459
0.30369812
0.30197524
0.30069697
0.30001211
0.29972273
0.29962438
0.0013324029
0.004121799
0.0071627217
0.010477522
0.014083612
0.017988064
0.022158078
0.026491005
0.030815325
0.034946474
0.038761394
0.042217036
0.045324451
0.048120921
0.050650846
0.05295638
0.055074501
0.05703628
0.058866992
0.060587809
0.062216871
0.063768884
0.065255925
0.066688305
0.068074488
0.06942171
0.070736212
0.072023401
0.073288222
0.074535252
0.075768852
0.076993402
0.0782134
0.079433805
0.080660415
0.0819
0.083160851
0.084453537
0.085791973
0.087195247
0.088690807
0.090320215
0.092150817
0.094301789
0.097008653
0.10080602
0.10711918
0.11994422
0.14547497
0.17958244
0.21371068
0.2406384
0.25808497
0.26797779
0.27310545
0.27555026
0.27661162
0.27702744
0.27717696
0.27723645
0.27728141
0.27734021
0.27741718
0.27750513
0.27759513
0.27767854
0.2777442
0.27778374
0.27780139
0.27781793
0.27786274
0.27795453
0.27808585
0.27823266
0.27837847
0.27852454
0.27867702
0.27883037
0.2789671
0.27907633
0.27916512
0.27924451
0.27931575
0.27937462
0.27942807
0.27948833
0.27956358
0.27965494
0.27977885
0.27995824
0.28021721
0.28055717
0.28095953
0.28139603
0.28184755
0.28230626
0.28277607
0.28326406
0.28377774
0.28432163
0.28489787
0.28550617
0.28614453
0.28680952
0.28749692
0.28820255
0.28892317
0.2896565
0.2903989
0.29114254
0.29187573
0.29258741
0.29327187
0.2939288
0.29456748
0.29519421
0.29579139
0.29636075
0.29686473
0.29730388
0.29774319
0.29801786
0.29823883
0.2986913
0.29867291
0.29824135
0.29925543
0.29950166
0.29833848
0.29806873
0.30103306
0.30424548
0.3049337
0.30373155
0.30199177
0.30070426
0.30001508
0.29972371
0.0013408433
0.004147722
0.0072074934
0.0105426
0.014170424
0.018097757
0.02229094
0.026645657
0.030988579
0.035134286
0.038960123
0.04242397
0.045537644
0.048338934
0.050872547
0.053180842