/*--------------------------------*- C++ -*----------------------------------*\
| =========                 |                                                 |
| \\      /  F ield         | OpenFOAM: The Open Source CFD Toolbox           |
|  \\    /   O peration     | Version:  2506                                  |
|   \\  /    A nd           | Website:  www.openfoam.com                      |
|    \\/     M anipulation  |                                                 |
\*---------------------------------------------------------------------------*/
FoamFile
{
    version     2.0;
    format      ascii;
    arch        "LSB;label=32;scalar=64";
    class       surfaceScalarField;
    location    "0.034";
    object      phi;
}
// * * * * * * * * * * * * * * * * * * * * * * * * * * * * * * * * * * * * * //

dimensions      [1 0 -1 0 0 0 0];

oriented        oriented;

internalField   nonuniform List<scalar> 
27127
(
-57.926192
-57.920253
-57.914234
-57.908136
-57.901964
-0.0023753298
-53.446847
-57.895714
-0.0022947297
-53.441844
-57.88939
-0.0022168692
-53.436786
-57.882992
-0.0021404909
-53.431673
-57.876525
-0.0020667583
-53.426507
-57.869988
0.00083720853
-49.186071
-0.0019950284
-53.421291
-57.863385
0.00095163869
-49.181176
-0.0019246613
-53.416026
-57.856717
0.0010638098
-49.176232
-0.0018562314
-53.410713
-57.849985
0.0011781749
-49.171238
-0.0017868106
-53.405349
-57.84319
0.0012912921
-49.166193
-0.0017181574
-53.399937
-57.836331
0.0014015081
-49.161099
-0.0016507992
-53.394477
-57.82941
0.0057880983
-45.418802
0.001508832
-49.155959
-0.0015859224
-53.388971
-57.822429
0.0059344497
-45.414172
0.0016127085
-49.150772
-0.0015216809
-53.38342
-57.815389
0.0060762093
-45.409496
0.0017131503
-49.14554
-0.0014604716
-53.377826
-57.808293
0.0062136826
-45.404776
0.0018119556
-49.140266
-0.0013992521
-53.37219
-57.80114
0.0063467988
-45.400014
0.0019067876
-49.13495
-0.0013404129
-53.366515
-57.793935
0.0064789321
-45.395209
0.0020017241
-49.129592
-0.0012815653
-53.360798
-57.786675
0.016758197
-41.755816
0.0066146484
-45.390362
0.0020989866
-49.124191
-0.0012221807
-53.35504
-57.779361
0.016926451
-41.751354
0.0067465676
-45.385472
0.0021940356
-49.118748
-0.0011633579
-53.349242
-57.771994
0.017088903
-41.746859
0.0068740794
-45.380541
0.0022851359
-49.113264
-0.0011062872
-53.343406
-57.764574
0.017245877
-41.742332
0.006997487
-45.375571
0.0023746775
-49.107742
-0.0010503424
-53.337532
-57.757104
0.017397361
-41.737776
0.0071168187
-45.370563
0.0024609092
-49.10218
-0.00099671423
-53.331622
-57.749585
0.027997704
-38.531931
0.017543549
-41.733189
0.0072321355
-45.365518
0.0025450473
-49.096582
-0.00094357367
-53.325678
-57.742019
0.028175045
-38.52756
0.017684604
-41.728575
0.0073436999
-45.360437
0.0026259219
-49.090947
-0.00089272063
-53.319699
-57.734408
0.028346176
-38.523158
0.017820699
-41.723933
0.007451435
-45.355321
0.00270474
-49.085277
-0.00084232977
-53.313688
-57.726751
0.028516339
-38.518727
0.017955919
-41.719264
0.0075587037
-45.350171
0.0027826325
-49.079572
-0.00079243243
-53.307646
-57.719051
0.028692166
-38.514264
0.018096153
-41.714568
0.0076699095
-45.344985
0.0028642125
-49.073829
-0.00074128749
-53.301569
-57.711304
0.02886249
-38.509772
0.018231656
-41.709844
0.0077777554
-45.339765
0.002943136
-49.068051
-0.00069121601
-53.295459
-57.703514
0.034287971
-35.481012
0.029026782
-38.50525
0.018362369
-41.705095
0.0078819244
-45.334512
0.0030194248
-49.062236
-0.00064220034
-53.289319
-57.69568
0.03449219
-35.476752
0.029185336
-38.5007
0.018488331
-41.700321
0.007982512
-45.329227
0.0030931013
-49.056387
-0.00059483097
-53.283148
-57.687806
0.034689936
-35.472473
0.029338209
-38.496123
0.018609596
-41.695524
0.0080796092
-45.323911
0.0031653744
-49.050505
-0.00054849271
-53.276948
-57.67989
0.0348815
-35.468177
0.029485573
-38.491519
0.018726317
-41.690704
0.0081733647
-45.318566
0.0032344828
-49.044589
-0.00050317895
-53.27072
-57.671935
0.03506688
-35.463865
0.029627415
-38.486889
0.018838661
-41.685863
0.0082637531
-45.313193
0.0033022225
-49.038642
-0.00045947825
-53.264465
-57.663941
0.034630005
-32.690192
0.035246183
-35.459538
0.029763959
-38.482233
0.018946417
-41.681001
0.0083508555
-45.307793
0.0033668329
-49.032663
-0.00041677972
-53.258185
-57.65591
0.034823226
-32.68649
0.035421096
-35.455195
0.029896406
-38.477553
0.019051038
-41.676119
0.0084355158
-45.302367
0.0034300855
-49.026653
-0.00037449116
-53.251882
-57.64784
0.035024636
-32.682764
0.035602841
-35.450837
0.030034782
-38.472848
0.019160626
-41.671216
0.0085241681
-45.296913
0.0034959989
-49.020611
-0.00033088947
-53.245555
-57.63973
0.035223608
-32.679016
0.035782235
-35.446463
0.030170814
-38.468117
0.019268317
-41.666294
0.0086115738
-45.291433
0.0035616944
-49.014538
-0.00028833118
-53.239204
-57.631581
0.035416549
-32.675244
0.035956039
-35.442074
0.030301974
-38.463362
0.019372097
-41.661352
0.0086960635
-45.285927
0.0036254429
-49.008434
-0.00024679475
-53.232831
-57.623392
0.035603879
-32.671451
0.036124549
-35.437671
0.030428438
-38.458583
0.019472006
-41.656391
0.0087775443
-45.280396
0.0036860704
-49.0023
-0.00020567881
-53.226439
-57.615163
0.036728825
-30.119837
0.035785475
-32.667636
0.036287816
-35.433255
0.030550186
-38.453781
0.019568017
-41.651413
0.0088562829
-45.274841
0.0037459791
-48.996136
-0.00016558538
-53.22003
0.036903403
-30.116784
0.035961543
-32.6638
0.036445926
-35.428826
0.030667365
-38.448957
0.019660336
-41.646419
0.0089321156
-45.269263
0.0038033876
-48.989945
-53.213604
0.037071918
-30.113721
0.036132159
-32.659944
0.03659888
-35.424384
0.030780027
-38.44411
0.019748886
-41.641408
0.0090053149
-45.263663
0.0038595084
-48.983726
-53.20716
0.037234402
-30.110647
0.036297342
-32.656067
0.036746887
-35.419931
0.030888201
-38.439243
0.019833805
-41.636382
0.0090757778
-45.258041
0.0039131658
-48.977481
-53.200701
0.037390905
-30.107564
0.036457325
-32.652172
0.036889925
-35.415466
0.030991978
-38.434355
0.019915127
-41.631342
0.0091435219
-45.252398
0.0039655569
-48.97121
-53.194224
0.042501595
-27.794123
0.037546251
-30.10447
0.036616181
-32.648258
0.037031776
-35.410989
0.031094658
-38.429446
0.019995701
-41.626288
0.0092106732
-45.246734
0.0040172495
-48.964914
-53.18773
0.042674363
-27.790777
0.037709668
-30.101364
0.036782459
-32.644323
0.037179962
-35.4065
0.031202569
-38.424516
0.020080606
-41.621218
0.0092816184
-45.241049
0.0040717098
-48.958592
-53.181215
0.042841122
-27.787416
0.037867773
-30.098247
0.036943955
-32.64037
0.037323728
-35.401999
0.031306516
-38.419566
0.020162425
-41.616135
0.0093500003
-45.235343
0.0041242936
-48.952243
-53.17468
0.043001061
-27.78404
0.038019752
-30.095119
0.037099905
-32.636398
0.037462245
-35.397485
0.031405972
-38.414596
0.020240422
-41.611037
0.0094157367
-45.229617
0.0041750295
-48.94587
0.043154278
-27.78065
0.038165575
-30.09198
0.037250404
-32.632409
0.03759572
-35.39296
0.031500777
-38.409606
0.020314739
-41.605927
0.0094786068
-45.223871
-48.939473
0.043300821
-27.777248
0.038305415
-30.088828
0.037395546
-32.628403
0.037724253
-35.388423
0.03159127
-38.404597
0.020385464
-41.600805
0.0095388069
-45.218107
-48.933054
0.048161441
-25.623395
0.043440796
-27.773834
0.038439311
-30.085666
0.037535368
-32.624381
0.037847754
-35.383874
0.031677294
-38.399571
0.020452565
-41.595671
0.0095964185
-45.212325
-48.926612
0.048319711
-25.6206
0.043574362
-27.770409
0.038567479
-30.082492
0.037669961
-32.620344
0.037966434
-35.379315
0.031758998
-38.394527
0.020516116
-41.590526
0.0096512738
-45.206526
-48.920148
0.048471293
-25.617801
0.043701501
-27.766974
0.038689715
-30.079307
0.037799357
-32.616293
0.038080264
-35.374744
0.03183647
-38.389466
0.020576148
-41.585371
0.0097035736
-45.200711
-48.913665
0.048616049
-25.614996
0.043822252
-27.763531
0.038806368
-30.076111
0.037923645
-32.612228
0.038189331
-35.370163
0.031909615
-38.38439
0.020632801
-41.580206
0.0097533318
-45.19488
-48.907162
0.048759052
-25.612186
0.043941136
-27.760078
0.038921414
-30.072903
0.038046558
-32.608152
0.038296946
-35.36557
0.031981437
-38.379298
0.020688324
-41.575032
0.0098023218
-45.189034
-48.900639
0.050223471
-23.64333
0.048912396
-25.60937
0.044069696
-27.756618
0.039045404
-30.069683
0.038177462
-32.604062
0.038411467
-35.360966
0.032059096
-38.374189
0.02074889
-41.569848
0.0098554007
-45.183172
0.050378989
-23.640864
0.049060657
-25.606547
0.044193374
-27.753149
0.039165136
-30.066451
0.038304705
-32.59996
0.038522494
-35.35635
0.032133519
-38.369063
0.020806823
-41.564654
-45.177294
0.050527737
-23.638388
0.049202618
-25.603719
0.044311021
-27.749672
0.039279396
-30.063206
0.038426946
-32.595846
0.038628808
-35.351721
0.032203907
-38.363923
0.020861372
-41.559451
-45.171402
0.050669899
-23.635902
0.049338154
-25.600885
0.044422747
-27.74619
0.039388289
-30.05995
0.038544346
-32.591723
0.038730688
-35.347082
0.032270235
-38.358767
0.020912749
-41.554239
-45.165495
0.050805572
-23.633406
0.049467477
-25.598046
0.044528529
-27.742701
0.039491911
-30.056683
0.038656932
-32.587589
0.038828099
-35.342432
0.032332645
-38.353597
0.020960854
-41.54902
-45.159574
0.053560041
-21.800552
0.050934645
-23.630901
0.049590538
-25.595201
0.044628379
-27.739206
0.039590211
-30.053404
0.038764893
-32.583446
0.038920993
-35.337771
0.032391025
-38.348413
0.021005749
-41.543793
-45.153641
0.053684358
-21.798357
0.05105743
-23.628388
0.049707528
-25.59235
0.044722479
-27.735707
0.03968331
-30.050114
0.038868043
-32.579295
0.039009652
-35.3331
0.032445601
-38.343216
0.021047474
-41.53856
-45.147695
0.05380195
-21.796157
0.051173819
-23.625867
0.04981839
-25.589494
0.044810905
-27.732203
0.039771279
-30.046815
0.038966568
-32.575136
0.039093848
-35.328419
0.032496256
-38.338007
0.021086035
-41.533321
0.053912859
-21.79395
0.051283839
-23.623338
0.04992322
-25.586632
0.044893562
-27.728695
0.039854085
-30.043505
0.03906049
-32.57097
0.039173779
-35.32373
0.032543132
-38.332786
-41.528077
0.057059281
-20.140968
0.05401813
-21.791738
0.051388542
-23.620802
0.050022931
-25.583765
0.044971375
-27.725184
0.039932644
-30.040185
0.039150481
-32.566798
0.039249998
-35.319031
0.032586655
-38.327553
-41.522829
0.057186041
-20.138959
0.054133293
-21.789519
0.051502625
-23.618258
0.050131232
-25.580891
0.045057112
-27.721669
0.040018557
-30.036855
0.03924726
-32.562618
0.039332023
-35.314323
0.032635077
-38.322309
-41.517574
0.057312525
-20.136943
0.054248148
-21.787293
0.051616464
-23.615707
0.050239178
-25.578011
0.045142523
-27.718149
0.040104207
-30.033515
0.039343782
-32.558431
0.039413588
-35.309606
0.032682922
-38.317052
-41.512315
0.057432645
-20.134919
0.054356924
-21.785061
0.051724417
-23.613148
0.050341563
-25.575123
0.045222588
-27.714626
0.0401853
-30.030164
0.039436055
-32.554237
0.039491246
-35.304879
0.032727409
-38.311784
-41.50705
0.057546538
-20.132888
0.054459758
-21.782823
0.051826805
-23.610583
0.050438584
-25.57223
0.045297625
-27.7111
0.040261727
-30.026804
0.039524211
-32.550037
0.039565001
-35.300143
0.032768296
-38.306504
-41.501781
0.05886695
-18.589785
0.057654202
-20.130851
0.054556597
-21.780579
0.051923567
-23.608012
0.050530115
-25.569329
0.045367508
-27.70757
0.040333659
-30.023435
0.039608297
-32.545831
0.039634839
-35.295399
0.03280575
-38.301214
-41.496509
0.058973023
-18.588117
0.057755636
-20.128807
0.054647619
-21.778329
0.052014705
-23.605435
0.050616334
-25.566422
0.04543236
-27.704038
0.040400915
-30.020057
0.039688189
-32.54162
0.039700878
-35.290648
0.032839825
-38.295913
0.05907279
-18.586444
0.057851067
-20.126756
0.054732695
-21.776073
0.052100387
-23.602852
0.050697229
-25.563508
0.045492166
-27.700504
0.040463838
-30.01667
0.039764105
-32.537403
0.039763091
-35.285888
-38.290603
0.059166391
-18.584765
0.057940336
-20.1247
0.054812092
-21.773812
0.052180456
-23.600264
0.050772819
-25.560587
0.045547064
-27.696969
0.04052227
-30.013274
0.03983594
-32.533183
0.039821493
-35.281122
-38.285283
0.060782063
-17.165429
0.059253664
-18.583081
0.058023517
-20.122639
0.054885587
-21.771545
0.052255175
-23.597672
0.050843118
-25.55766
0.045597017
-27.693432
0.040576285
-30.00987
0.03990377
-32.528958
0.039876154
-35.276348
-38.279956
0.060863927
-17.164031
0.059334819
-18.581392
0.058100636
-20.120572
0.054953453
-21.769274
0.052324454
-23.595075
0.050908216
-25.554727
0.045641925
-27.689894
0.040625787
-30.006459
0.039967611
-32.52473
0.039927037
-35.271569
-38.27462
0.060944867
-17.162628
0.059415039
-18.579697
0.058176806
-20.1185
0.055020311
-21.766998
0.052392776
-23.592474
0.050972287
-25.551787
0.045686021
-27.686356
0.040674651
-30.00304
0.040030846
-32.520499
0.039977155
-35.266783
-38.269276
0.061037583
-17.16122
0.059506552
-18.577997
0.058263745
-20.116422
0.055097443
-21.764717
0.052470796
-23.589868
0.051045349
-25.54884
0.045738281
-27.682816
0.040731264
-29.999613
0.040100994
-32.516263
0.040033198
-35.26199
-38.263923
0.06286507
-15.860708
0.061125177
-17.159808
0.059593069
-18.576292
0.058345671
-20.114339
0.055169889
-21.76243
0.052544442
-23.587257
0.051114151
-25.545885
0.045786563
-27.679276
0.040784311
-29.996177
0.040167852
-32.512023
0.040086218
-35.257191
-38.258562
0.062952557
-15.859618
0.061206132
-17.15839
0.059673138
-18.574581
0.058421328
-20.112251
0.055236391
-21.760138
0.05261252
-23.584642
0.051177491
-25.542923
0.045829735
-27.675735
0.040832717
-29.992734
0.040230715
-32.507781
0.040135328
-35.252385
0.063033261
-15.858523
0.061280504
-17.156968
0.059746939
-18.572865
0.058490944
-20.110157
0.055297061
-21.757842
0.052674955
-23.582022
0.051235539
-25.539954
0.045867906
-27.672194
0.04087671
-29.989283
0.040289434
-32.503535
-35.247573
0.063107301
-15.857424
0.061348413
-17.155541
0.059814337
-18.571144
0.058554266
-20.108059
0.055351898
-21.755542
0.052731939
-23.579398
0.051288235
-25.536979
0.045901134
-27.668654
0.040916289
-29.985825
0.040344075
-32.499287
-35.242756
0.064291382
-14.656506
0.063174658
-15.85632
0.061409779
-17.15411
0.059875566
-18.569419
0.058611457
-20.105957
0.055400943
-21.753237
0.052783383
-23.576771
0.051335614
-25.533997
0.045929278
-27.665114
0.040951304
-29.982361
0.04039472
-32.495037
-35.237934
0.064356649
-14.655655
0.063235471
-15.855212
0.061464679
-17.152675
0.059930451
-18.567689
0.058662595
-20.10385
0.055444153
-21.750929
0.052829553
-23.57414
0.051377749
-25.531009
0.04595259
-27.661575
0.040981957
-29.97889
0.040441387
-32.490786
-35.233108
0.064415211
-14.654799
0.063289696
-15.8541
0.061513195
-17.151236
0.059979134
-18.565955
0.058707629
-20.10174
0.055481728
-21.748617
0.0528701
-23.571505
0.051414599
-25.528014
0.045970972
-27.658038
0.041008257
-29.975413
0.040484025
-32.486533
-35.228278
0.064467147
-14.653939
0.063337353
-15.852984
0.061555282
-17.149792
0.060021695
-18.564216
0.058746634
-20.099626
0.055513501
-21.746302
0.05290535
-23.568867
0.051446303
-25.525014
0.045984495
-27.654503
0.041030163
-29.971931
0.040522645
-32.482279
-35.223444
0.06553724
-13.549361
0.064512289
-14.653075
0.063378394
-15.851864
0.061590956
-17.148345
0.060058023
-18.562474
0.058779567
-20.097509
0.055539612
-21.743984
0.052935264
-23.566226
0.051472749
-25.522007
0.045993061
-27.65097
0.041047751
-29.968444
0.040557385
-32.478025
0.065589497
-13.5487
0.064559172
-14.652207
0.063421019
-15.850739
0.06162803
-17.146894
0.060095596
-18.560728
0.058813573
-20.095388
0.055566718
-21.741663
0.052966109
-23.563582
0.051500026
-25.518996
0.046002371
-27.647439
0.041066009
-29.964951
-32.473771
0.065654941
-13.548034
0.064618751
-14.651333
0.063475781
-15.84961
0.061676841
-17.145438
0.060144405
-18.558978
0.058858145
-20.093263
0.055604177
-21.739339
0.053006743
-23.560934
0.051536232
-25.515977
0.046020035
-27.643909
0.041092188
-29.961453
-32.469515
0.065714463
-13.547363
0.064672493
-14.650455
0.063524945
-15.848476
0.061720132
-17.143978
0.060187871
-18.557224
0.058897583
-20.091135
0.055636493
-21.737012
0.053042623
-23.558282
0.051567826
-25.512953
0.046033321
-27.640381
0.041114512
-29.957949
-32.465258
0.066501764
-12.533995
0.06576727
-13.546688
0.064719732
-14.649572
0.063567605
-15.847338
0.061757001
-17.142514
0.060225153
-18.555465
0.058930862
-20.089003
0.055663319
-21.734682
0.053073223
-23.555626
0.051594344
-25.509922
0.046041825
-27.636855
0.041132454
-29.95444
-32.461001
0.066555128
-12.533553
0.065813466
-13.546008
0.064760447
-14.648684
0.063603864
-15.846195
0.061787735
-17.141045
0.060256477
-18.553703
0.058958327
-20.086868
0.05568445
-21.732349
0.053098523
-23.552966
0.05161576
-25.506886
0.046045528
-27.63333
0.041146231
-29.950927
-32.456743
0.066601848
-12.533107
0.065852995
-13.545324
0.064794646
-14.647792
0.063633791
-15.845047
0.06181222
-17.139573
0.06028179
-18.551937
0.05897986
-20.084729
0.055700138
-21.730014
0.053118714
-23.550304
0.051632021
-25.503845
0.046044611
-27.629808
0.041155728
-29.947409
-32.452486
0.067018713
-11.595944
0.0666418
-12.532655
0.065885859
-13.544635
0.064822334
-14.646895
0.063657336
-15.843896
0.061830464
-17.138097
0.060300974
-18.550168
0.058995533
-20.082588
0.055710148
-21.727677
0.053133626
-23.547638
0.051643382
-25.500799
0.046038912
-27.626288
0.041161078
-29.943887
0.067058282
-11.595695
0.066675006
-12.532197
0.065912143
-13.543942
0.064843597
-14.645994
0.063674454
-15.84274
0.061842493
-17.136617
0.060314239
-18.548396
0.059005179
-20.080445
0.055714743
-21.725338
0.053143341
-23.544969
0.051649554
-25.497748
0.046028444
-27.622771
-29.940362
0.067091041
-11.59544
0.0667016
-12.531735
0.065931797
-13.543245
0.064858325
-14.645088
0.063685415
-15.84158
0.061848444
-17.135134
0.060321538
-18.546621
0.059009116
-20.078299
0.055713819
-21.722998
0.053147937
-23.542297
0.051650801
-25.494692
0.046013406
-27.619256
-29.936834
0.067308446
-10.734404
0.067117057
-11.595179
0.066721523
-12.531268
0.065944892
-13.542543
0.06486671
-14.644178
0.063689915
-15.840416
0.061848205
-17.133648
0.060322878
-18.544843
0.059007172
-20.076151
0.055707319
-21.720657
0.053147302
-23.539623
0.051647009
-25.491633
0.045993569
-27.615744
-29.933303
0.067334367
-10.73438
0.067136395
-11.594912
0.066734656
-12.530796
0.06595137
-13.541838
0.064868578
-14.643264
0.063688089
-15.839248
0.061841847
-17.132159
0.060318151
-18.543063
0.058999291
-20.074001
0.055695377
-21.718316
0.053141634
-23.536947
0.051638253
-25.48857
0.045969122
-27.612235
-29.92977
0.067359607
-10.734348
0.067154931
-11.594639
0.066746979
-12.530318
0.065956938
-13.541128
0.064869488
-14.642346
0.063685419
-15.838076
0.061834345
-17.130666
0.060312552
-18.54128
0.058990295
-20.071849
0.055682443
-21.715973
0.053134941
-23.534269
0.051628411
-25.485504
0.045943699
-27.60873
-29.926235
0.067345508
-9.9386697
0.067401664
-10.734309
0.067189756
-11.59436
0.06677506
-12.529835
0.065977723
-13.540414
0.064885195
-14.641423
0.063696803
-15.836899
0.061840619
-17.12917
0.060319902
-18.539495
0.058993733
-20.069694
0.05568131
-21.713629
0.053139566
-23.531587
0.051628958
-25.482434
0.045927898
-27.605226
-29.922697
0.067389688
-9.9388643
0.067439473
-10.734262
0.067220235
-11.594075
0.066798808
-12.529347
0.065994217
-13.539695
0.064896703
-14.640495
0.063704116
-15.835718
0.061842711
-17.12767
0.060323293
-18.537707
0.058993152
-20.067538
0.055676535
-21.711285
0.053140835
-23.528903
0.051626279
-25.47936
0.045908979
-27.601724
0.06742742
-9.9390509
0.067470726
-10.734207
0.067244192
-11.593783
0.066816053
-12.528853
0.066004263
-13.538972
0.064901866
-14.639563
0.06370528
-15.834533
0.061838866
-17.126166
0.06032092
-18.535916
0.05898681
-20.065379
0.05566643
-21.708939
0.053136947
-23.526217
0.051618573
-25.476282
-27.598224
0.067230154
-9.2043714
0.067458608
-9.9392291
0.067495447
-10.734145
0.06726166
-11.593486
0.066826836
-12.528354
0.066007966
-13.538244
0.064900848
-14.638626
0.063700341
-15.833343
0.061829062
-17.124659
0.060312751
-18.534122
0.058974986
-20.063218
0.055650969
-21.706593
0.053128246
-23.523528
0.051606122
-25.473202
-27.594727
0.067260917
-9.2047841
0.067483289
-9.9393991
0.067513616
-10.734075
0.06727249
-11.593182
0.066831138
-12.52785
0.066005307
-13.537511
0.064893571
-14.637685
0.06368928
-15.832149
0.061813407
-17.12315
0.060298903
-18.532327
0.058957298
-20.061055
0.055630203
-21.704246
0.05311448
-23.520838
0.051588794
-25.470119
-27.591233
0.067285096
-9.2051885
0.067501491
-9.9395608
0.067525326
-10.733998
0.067276904
-11.592872
0.066828991
-12.527341
0.065996321
-13.536775
0.064880197
-14.63674
0.063672201
-15.83095
0.061791756
-17.121636
0.060279227
-18.530529
0.058934088
-20.058891
0.055604228
-21.7019
0.053095863
-23.518145
0.051566743
-25.467034
-27.587741
0.066917306
-8.5266697
0.067302869
-9.2055844
0.067513199
-9.9397141
0.067530433
-10.733914
0.067274757
-11.592556
0.066820382
-12.526826
0.065980873
-13.536034
0.064860468
-14.63579
0.063649032
-15.829748
0.061764166
-17.12012
0.060253837
-18.52873
0.058905226
-20.056726
0.055572789
-21.699554
0.053072269
-23.515452
0.051539847
-25.463946
-27.584252
0.06693558
-8.527287
0.067314036
-9.2059719
0.067518339
-9.9398592
0.067529056
-10.733821
0.067266053
-11.592234
0.066805253
-12.526307
0.065959156
-13.535288
0.064834701
-14.634837
0.063619779
-15.828541
0.061730702
-17.118602
0.060222805
-18.526929
0.058870656
-20.054559
0.055536262
-21.697208
0.053043707
-23.512758
0.051508109
-25.460858
-27.580767
0.066357205
-7.8997354
0.066947346
-8.5278959
0.067318802
-9.2063509
0.067517058
-9.939996
0.067521153
-10.733722
0.067250805
-11.591906
0.066783748
-12.525783
0.065931066
-13.534539
0.064802542
-14.633879
0.063584469
-15.82733
0.061691389
-17.11708
0.060185904
-18.525126
0.058830521
-20.052392
0.055494237
-21.694863
0.053010259
-23.510063
0.051471678
-25.457768
0.066370741
-7.9005552
0.066952652
-8.5284963
0.067316962
-9.2067212
0.067509083
-9.9401244
0.067506582
-10.733615
0.067229068
-11.591573
0.066755737
-12.525254
0.065896536
-13.533785
0.064764366
-14.632918
0.06354316
-15.826116
0.061646042
-17.115556
0.060143381
-18.523323
0.05878464
-20.050224
0.055447082
-21.692519
0.052971866
-23.507368
-25.454677
0.065588741
-7.3205083
0.066378876
-7.9013664
0.066952506
-8.5290881
0.067309583
-9.2070828
0.067495668
-9.9402445
0.067486462
-10.7335
0.067201641
-11.591234
0.066722203
-12.52472
0.065856612
-13.533027
0.064720651
-14.631953
0.063496519
-15.824897
0.061595638
-17.11403
0.060095841
-18.521518
0.058733917
-20.048056
0.055395279
-21.690176
0.052929248
-23.504672
-25.451585
0.065625318
-7.32153
0.066405997
-7.9021684
0.066970688
-8.5296708
0.067320174
-9.2074351
0.067499609
-9.9403557
0.067483209
-10.733378
0.06719057
-11.590889
0.066704338
-12.524181
0.06583196
-13.532265
0.064691922
-14.630983
0.063464195
-15.823674
0.061558962
-17.112501
0.060061501
-18.519712
0.058695615
-20.045887
0.055355388
-21.687833
0.052897889
-23.501977
-25.448493
0.065665921
-7.3225419
0.066436921
-7.902961
0.066992501
-8.530244
0.067334191
-9.207778
0.067506701
-9.9404577
0.067482825
-10.733248
0.067182186
-11.590537
0.066689104
-12.523637
0.065809657
-13.531498
0.06466537
-14.63001
0.06343404
-15.822447
0.061524339
-17.110968
0.060028981
-18.517905
0.058658991
-20.043717
0.05531717
-21.685491
0.052868248
-23.49928
-25.445399
0.064707657
-6.7854369
0.065699711
-7.3235442
0.066460943
-7.903744
0.06700731
-8.5308076
0.067341063
-9.2081112
0.067506755
-9.9405508
0.067475371
-10.73311
0.067166731
-11.59018
0.066666983
-12.523088
0.06578067
-13.530726
0.064632245
-14.629032
0.063397405
-15.821215
0.061483449
-17.109433
0.05999042
-18.516096
0.058616317
-20.041547
0.055273401
-21.683149
0.052833365
-23.496584
-25.442304
0.064744323
-6.7866429
0.065726631
-7.3245365
0.066477878
-7.9045173
0.067015193
-8.5313617
0.067341066
-9.2084348
0.067499923
-9.9406348
0.067461063
-10.732964
0.06714442
-11.589816
0.066638003
-12.522534
0.065744964
-13.529949
0.064592638
-14.62805
0.0633545
-15.819979
0.061436322
-17.107895
0.059945851
-18.514285
0.058567811
-20.039375
0.055223987
-21.680809
0.052793333
-23.493887
-25.439209
0.063577199
-6.2889861
0.064774017
-6.7878389
0.065746724
-7.3255191
0.06648797
-7.9052807
0.067016077
-8.5319061
0.06733413
-9.2087487
0.067486065
-9.9407098
0.067439761
-10.732811
0.067115185
-11.589446
0.066602226
-12.521975
0.065702476
-13.529168
0.064546488
-14.627064
0.063305078
-15.818738
0.061383025
-17.106354
0.059895275
-18.512474
0.058513348
-20.037204
0.055169052
-21.678469
0.052748089
-23.491191
0.063609787
-6.2903791
0.064797162
-6.7890249
0.065759824
-7.3264915
0.066491058
-7.9060343
0.067009992
-8.5324408
0.067320154
-9.2090529
0.067465151
-9.9407756
0.067411377
-10.732649
0.067078872
-11.58907
0.066559502
-12.521411
0.065653312
-13.528383
0.06449365
-14.626074
0.063249376
-15.817494
0.061323475
-17.104811
0.059838676
-18.510662
0.058452916
-20.035032
0.055108642
-21.676131
-23.488495
0.062242724
-5.8288911
0.063635653
-6.2917618
0.064813311
-6.7902006
0.065766082
-7.3274538
0.066487165
-7.9067779
0.066996777
-8.5329656
0.067299177
-9.2093474
0.067437408
-9.9408327
0.067376076
-10.732481
0.067035778
-11.588689
0.066510065
-12.520843
0.065597455
-13.527592
0.064434481
-14.625081
0.063187246
-15.816245
0.061257788
-17.103265
0.059776102
-18.508849
0.05838668
-20.032861
0.055042555
-21.673794
-23.485801
0.060693186
-5.4007161
0.062271477
-5.8304622
0.063654929
-6.2931343
0.064822736
-6.7913659
0.065765311
-7.3284057
0.066476305
-7.9075116
0.066976703
-8.5334805
0.067271147
-9.209632
0.067402532
-9.9408808
0.067333679
-10.732304
0.066985603
-11.588301
0.066453681
-12.52027
0.065534867
-13.526798
0.064368632
-14.624083
0.063118779
-15.814993
0.061185862
-17.101718
0.059707455
-18.507036
0.058314419
-20.03069
0.054971006
-21.67146
-23.483108
0.060724773
-5.4024661
0.062293746
-5.832023
0.063667427
-6.2944963
0.064825317
-6.7925207
0.065757726
-7.3293474
0.066458305
-7.9082349
0.066949471
-8.5339855
0.067236218
-9.2099068
0.067360677
-9.94092
0.067284413
-10.73212
0.066928509
-11.587908
0.066390452
-12.519693
0.065465583
-13.525999
0.064296326
-14.623083
0.063043824
-15.813736
0.061107741
-17.100168
0.059632834
-18.505223
0.058236299
-20.028519
0.054893904
-21.669127
-23.480417
0.059011266
-5.0051455
0.060750028
-5.4042061
0.06230942
-5.8335734
0.063673236
-6.2958478
0.064821015
-6.793665
0.065743025
-7.3302784
0.066433387
-7.9089481
0.066915248
-8.5344804
0.067194173
-9.2101719
0.067311752
-9.9409503
0.067227994
-10.73193
0.066864407
-11.58751
0.066320421
-12.519111
0.065389587
-13.525196
0.064217358
-14.622079
0.062962618
-15.812476
0.061023408
-17.098616
0.059552291
-18.50341
0.058152239
-20.02635
0.05481124
-21.666797
-23.477729
0.059039168
-5.0070518
0.060768842
-5.405936
0.062318529
-5.8351133
0.06367219
-6.2971885
0.064809669
-6.7947984
0.065721383
-7.331199
0.066401274
-7.9096509
0.066873949
-8.5349653
0.067144993
-9.210427
0.067255741
-9.9409719
0.067164536
-10.731731
0.066793352
-11.587106
0.066243453
-12.518526
0.06530675
-13.524389
0.064131913
-14.621071
0.062874967
-15.811213
0.060932805
-17.097063
0.059465511
-18.501598
0.058062237
-20.024181
0.054723008
-21.664469
0.057184396
-4.6382174
0.059069647
-5.0089484
0.060789782
-5.4076552
0.06232938
-5.8366423
0.063672676
-6.2985181
0.064799675
-6.7959209
0.06570068
-7.3321088
0.066369994
-7.9103431
0.066833226
-8.5354399
0.067096477
-9.2106722
0.067200141
-9.9409846
0.067101305
-10.731526
0.066722259
-11.586696
0.066166495
-12.517936
0.06522405
-13.523578
0.064046375
-14.620061
0.062787179
-15.809946
0.060842217
-17.095508
0.059378758
-18.499786
0.057971932
-20.022013
-21.662144
0.055228455
-4.2956366
0.057249485
-4.640264
0.059125509
-5.0108344
0.060835603
-5.4093635
0.062364376
-5.8381597
0.063696606
-6.2998361
0.064812463
-6.7970317
0.065702135
-7.333007
0.066360358
-7.9110242
0.066813569
-8.5359035
0.06706834
-9.2109069
0.067164412
-9.9409878
0.067057335
-10.731313
0.066669994
-11.586281
0.066107756
-12.517341
0.065158804
-13.522762
0.063977936
-14.619046
0.062715882
-15.808675
0.06076742
-17.093951
0.059307125
-18.497973
0.057895953
-20.019845
-21.65982
0.053162226
-3.9773932
0.055299541
-4.2978143
0.057312163
-4.6423009
0.059178653
-5.0127098
0.060878206
-5.4110602
0.062396008
-5.8396655
0.063716934
-6.3011422
0.064821572
-6.7981307
0.065699799
-7.3338935
0.06634673
-7.9116939
0.066789959
-8.5363562
0.067036107
-9.2111308
0.067124557
-9.9409817
0.067009144
-10.731092
0.066613525
-11.58586
0.066044887
-12.516742
0.065089641
-13.521941
0.06390549
-14.618028
0.062640731
-15.8074
0.060688816
-17.092392
0.059231708
-18.496161
0.057816356
-20.017678
-21.657498
0.053235716
-3.9796808
0.055365706
-4.2999832
0.057369625
-4.6443277
0.059226293
-5.0145742
0.060915237
-5.4127455
0.062421676
-5.8411593
0.063731277
-6.3024363
0.064824378
-6.7992178
0.065691068
-7.3347683
0.066326594
-7.9123521
0.066759769
-8.5367977
0.066997494
-9.2113441
0.067078238
-9.9409662
0.066954607
-10.730864
0.066550554
-11.585432
0.065975661
-12.516138
0.065014219
-13.521116
0.063827083
-14.617005
0.06255972
-15.806121
0.060604653
-17.09083
0.05915095
-18.494348
0.057731213
-20.015511
-21.655179
0.051075385
-3.6841226
0.053304584
-3.981961
0.055426924
-4.302143
0.057421829
-4.6463443
0.0592684
-5.0164274
0.060946326
-5.4144188
0.062441417
-5.842641
0.063739414
-6.3037183
0.064820863
-6.8002927
0.065675931
-7.3356313
0.06630013
-7.9129988
0.066723253
-8.5372282
0.066952497
-9.2115469
0.067025452
-9.9409414
0.066893597
-10.730629
0.066481328
-11.584999
0.065900209
-12.51553
0.064932735
-13.520285
0.06374266
-14.615979
0.062472919
-15.804839
0.060514754
-17.089267
0.059064607
-18.492536
0.057640775
-20.013344
-21.652862
0.048832235
-3.4095106
0.051145915
-3.6864928
0.053368756
-3.9842333
0.05548313
-4.3042935
0.057468733
-4.6483503
0.059304932
-5.0182691
0.060971712
-5.4160802
0.062455136
-5.8441105
0.063741319
-6.304988
0.064811069
-6.8013553
0.06565443
-7.3364823
0.066267134
-7.9136339
0.066680267
-8.5376475
0.066900911
-9.2117389
0.066966254
-9.9409074
0.066826101
-10.730386
0.066405664
-11.584561
0.065818532
-12.514918
0.064845127
-13.519451
0.063652346
-14.61495
0.062380265
-15.803553
0.060419246
-17.087701
0.058972809
-18.490723
0.057544864
-20.011179
-21.650547