/*--------------------------------*- C++ -*----------------------------------*\
| =========                 |                                                 |
| \\      /  F ield         | OpenFOAM: The Open Source CFD Toolbox           |
|  \\    /   O peration     | Version:  2506                                  |
|   \\  /    A nd           | Website:  www.openfoam.com                      |
|    \\/     M anipulation  |                                                 |
\*---------------------------------------------------------------------------*/
FoamFile
{
    version     2.0;
    format      ascii;
    arch        "LSB;label=32;scalar=64";
    class       volScalarField;
    location    "1.65";
    object      k;
}
// * * * * * * * * * * * * * * * * * * * * * * * * * * * * * * * * * * * * * //

dimensions      [0 2 -2 0 0 0 0];

internalField   nonuniform List<scalar> 
1375
(
4.3529177
4.5008178
4.6445754
4.804709
4.9814294
5.1788003
5.3945894
5.6193986
5.8465167
4.6472287
4.8285808
4.9907246
5.1733598
5.3793669
5.616885
5.8811273
6.1551063
6.4293347
6.712756
4.9634722
5.1444974
5.3025056
5.4744586
5.6641423
5.878498
6.1102806
6.3404967
6.5543933
6.7558481
5.117754
5.2556282
5.373153
5.4987737
5.6392237
5.8005637
5.9714167
6.1308342
6.264983
6.3811195
5.1795064
5.2883071
5.3767651
5.4774127
5.5961551
5.7388627
5.892675
6.0348569
6.1537313
6.2598855
5.2713529
5.3830245
5.470899
5.5738216
5.6956817
5.842336
6.000733
6.1492681
6.2775599
6.3957182
5.421557
5.5480696
5.6459628
5.7576884
5.8848835
6.03329
6.1920608
6.3426542
6.4754444
6.5981248
5.598492
5.7350941
5.8406778
5.9568457
6.0832761
6.225765
6.3766628
6.5212345
6.6505574
6.7695118
5.7662134
5.9037975
6.0119364
6.1268536
6.2470393
6.3781904
6.5159062
6.6492966
6.7702954
6.8812173
5.9026871
6.0338521
6.1403071
6.249912
6.3608138
6.4783604
6.6008405
6.7208171
6.8313212
6.9326832
5.9988072
6.1190789
6.2211372
6.3232922
6.4240279
6.528089
6.6356593
6.7420504
6.8415381
6.9332143
6.053775
6.161185
6.2574853
6.3516205
6.4428135
6.5350037
6.6294104
6.7232479
6.8120904
6.8945942
6.9726853
6.0711576
6.1659478
6.2560853
6.3425881
6.42568
6.5083328
6.5920466
6.6751404
6.7543477
6.8285173
6.8989058
6.0571653
6.1406301
6.2248949
6.3047606
6.3814868
6.4570165
6.5326046
6.6070778
6.6781106
6.7450647
6.8090997
6.0190293
6.0928973
6.1720698
6.2464457
6.3183579
6.388752
6.4584271
6.5263852
6.5909776
6.6520717
6.7109692
5.963675
6.0300831
6.1049928
6.1749936
6.2432312
6.3098447
6.3752295
6.4384557
6.4983095
6.5549587
6.6098276
5.8975413
5.9585486
6.0299486
6.0965138
6.1618092
6.225432
6.2875411
6.3472914
6.4037464
6.4571874
6.5090361
5.8262191
5.8836118
5.9521138
6.0159774
6.078807
6.1398888
6.1992769
6.2562658
6.3101683
6.3613199
6.4110151
5.7545674
5.809837
5.8759086
5.9376645
5.9984241
6.057312
6.1143182
6.1689254
6.2207495
6.2702067
6.3183748
5.6869904
5.7413776
5.8053988
5.8655776
5.9246868
5.9817611
6.0367225
6.089282
6.139404
6.1876023
6.2346835
5.6274107
5.6818739
5.7441792
5.8032254
5.8610851
5.9167518
5.9701006
6.0210855
6.069969
6.1173076
6.1636604
5.5785947
5.633709
5.6945835
5.7527628
5.8096219
5.8642118
5.9164284
5.9664287
6.0146306
6.0615298
6.1074923
5.5413526
5.5972737
5.6569291
5.7143313
5.770296
5.8240534
5.8755751
5.9251119
5.9730499
6.0197352
6.065431
5.5146483
5.5712102
5.629788
5.6864154
5.7415692
5.7947064
5.8458156
5.8951017
5.9428543
5.9893252
6.0347343
5.4964793
5.5534218
5.6110511
5.6669192
5.721349
5.7739768
5.8247313
5.8737051
5.9211277
5.9672501
6.0122769
5.4847426
5.5417893
5.5985789
5.6537476
5.7075478
5.7597227
5.8101221
5.8587452
5.9058025
5.951562
5.9961952
6.0396818
5.4775267
5.5344713
5.590568
5.6451763
5.6984597
5.7502106
5.8002292
5.8484794
5.895177
5.9405909
5.9848501
6.0279116
5.4735472
5.5303272
5.5858675
5.6399816
5.6927256
5.743968
5.7935805
5.8415563
5.8880503
5.9332254
5.9771263
6.0197339
5.4723069
5.5288311
5.5838724
5.6374817
5.6896753
5.7403965
5.789589
5.8372532
5.8834717
5.9283345
5.9718613
6.0140556
5.4732505
5.5294214
5.5839558
5.6370997
5.6888002
5.7390105
5.7877003
5.8349267
5.8807947
5.9253875
5.9686931
6.0106033
5.4757474
5.5314086
5.585328
5.6378961
5.6889982
5.7386273
5.7868102
5.833617
5.8791127
5.923292
5.9661373
6.0075766
5.4799206
5.5350008
5.588252
5.6402198
5.6907705
5.7399093
5.7876347
5.8339691
5.8789425
5.9225637
5.96488
6.0059033
6.0456247
5.4858051
5.540293
5.592883
5.644238
5.6942211
5.7428412
5.7900773
5.8359539
5.8804935
5.9237269
5.9656687
6.0063344
6.0457196
5.4934157
5.5473072
5.5992497
5.6499907
5.699362
5.7473849
5.7940491
5.8393679
5.8833593
5.9260863
5.9675622
6.0077962
6.046816
5.5029851
5.556217
5.6074417
5.6575301
5.7062848
5.7537149
5.7997946
5.8445358
5.8879865
5.9302186
5.971243
6.011079
6.0497096
6.0871651
5.5148495
5.5674061
5.6178824
5.6672517
5.715296
5.7620731
5.8075804
5.851825
5.8948165
5.9365624
5.9770868
6.0164476
6.0546487
6.0917227
5.5294737
5.5813292
5.6310132
5.6796256
5.7269478
5.7730493
5.8179269
5.8615849
5.9040261
5.9452544
5.9853116
6.0242346
6.0620673
6.0988179
5.5473422
5.5984484
5.6473239
5.6951565
5.7417142
5.7870888
5.8313037
5.874379
5.9163003
5.9570578
5.996666
6.0351428
6.0725443
6.1088935
6.1442051
5.5691933
5.6195092
5.6675492
5.7146056
5.7604175
5.8050753
5.8485934
5.8910021
5.9323161
5.972539
6.0116611
6.0497058
6.0866842
6.122631
6.157573
5.5959542
5.6454494
5.6926147
5.7388597
5.7838963
5.8278115
5.8706273
5.9123728
5.9530642
5.99271
6.0313217
6.0689179
6.1054957
6.1410897
6.1757086
6.2093811
5.6289389
5.6775618
5.7238171
5.7692088
5.813432
5.8565842
5.8986818
5.9397583
5.9798403
6.0189409
6.0570659
6.0942083
6.130393
6.1656352
6.1999296
6.233323
6.2658231
5.6695751
5.7173191
5.7626504
5.807185
5.8505984
5.8929969
5.9343921
5.9748165
6.0142831
6.0528148
6.0904256
6.1271314
6.1629486
6.1978689
6.2318965
6.2650411
6.2973192
5.7201991
5.76706
5.8115001
5.8552176
5.8978508
5.9395183
5.9802414
6.0200439
6.0589426
6.0969442
6.134061
6.1703105
6.2057142
6.2402846
6.2740342
6.3069706
6.339111
6.3704652
5.7837759
5.8297423
5.8732959
5.9162155
5.9581107
5.9990955
6.0391793
6.0783942
6.116762
6.1542916
6.1909898
6.2268621
6.2619252
6.2962064
6.3297301
6.362514
6.3945671
6.4258923
6.4564943
5.865654
5.9106819
5.9533384
5.9954808
6.0366924
6.0770688
6.1166045
6.1553268
6.1932558
6.2304066
6.2667833
6.3023929
6.3372447
6.371351
6.4047283
6.4373982
6.4693779
6.5006859
6.5313357
6.5613367
5.9729966
6.0171618
6.0589838
6.1003905
6.1409541
6.1807762
6.2198462
6.2581872
6.2958156
6.3327406
6.3689683
6.4045014
6.4393394
6.4734833
6.5069447
6.5397379
6.5718811
6.6033922
6.6342907
6.6645892
6.6943006
6.7234372
6.120958
6.1644179
6.2055931
6.2464435
6.2865401
6.3259896
6.3647809
6.4029339
6.4404599
6.477368
6.5136618
6.5493436
6.5844142
6.6188757
6.6527316
6.6859871
6.718655
6.7507478
6.7822774
6.8132545
6.8436897
6.8735928
6.9029732
6.3395814
6.3828716
6.4236651
6.4643204
6.5043264
6.5438084
6.5827523
6.6211756
6.6590846
6.6964813
6.7333641
6.7697327
6.8055866
6.8409262
6.875754
6.9100703
6.9438804
6.9771845
7.0099806
7.0422726
7.0740654
7.105365
7.1361819
7.1665254
7.1963995
6.8389437
6.8921205
6.9265889
6.9643019
7.0007378
7.0372459
7.0734411
7.109486
7.1453236
7.1810121
7.2165376
7.2518602
7.2869375
7.3217354
7.3562866
7.3906753
7.4250179
7.459384
7.4936709
7.5275942
7.5609223
7.5935854
7.6255778
7.6569523
7.6877691
7.7180883
7.7479512
4.2219789
4.5161687
4.8320441
5.0026842
5.0907266
5.20087
5.358023
5.5332174
5.6950892
5.8248775
5.9149532
5.9646775
5.9799361
5.9659849
5.9282623
5.8746104
5.8110973
5.7430993
5.6753496
5.6121103
5.5570047
5.5123622
5.478663
5.4547661
5.4387288
5.4285828
5.4226441
5.4198734
5.4194398
5.4212234
5.4245901
5.4296303
5.4363283
5.4447453
5.455132
5.4678247
5.483276
5.5020145
5.5247642
5.5524407
5.5863412
5.627875
5.6793716
5.7438099
5.8264899
5.9344687
6.0826067
6.3008859
6.8034222
4.0905286
4.3888046
4.7065303
4.8896132
5.0003171
5.1293066
5.2952845
5.4710312
5.6290217
5.753332
5.8377918
5.8828041
5.895969
5.8813076
5.8435959
5.7912305
5.7300449
5.6652238
5.6013425
5.5424342
5.4917388
5.4511471
5.4208547
5.3996522
5.3856708
5.3770941
5.3725086
5.3709359
5.3713032
5.373973
5.3781927
5.3840477
5.3915199
5.4006984
5.4118288
5.4252694
5.4414571
5.4609524
5.4844513
5.5128825
5.5475118
5.5897336
5.6418787
5.706928
5.7900852
5.8983219
6.0461424
6.2634033
6.7682882
3.9592193
4.2614598
4.5821413
4.7764288
4.9073841
5.0545428
5.2299209
5.4075353
5.5630257
5.6829159
5.7625796
5.8037388
5.815072
5.7993055
5.7615169
5.7102409
5.6511845
5.589386
5.5292488
5.4745189
5.42802
5.3912375
5.3641389
5.3454778
5.333465
5.3264604
5.3232807
5.3226668
5.3239357
5.3274352
5.3324495
5.3390607
5.3472711
5.3571806
5.369022
5.3831777
5.4000732
5.4202893
5.4445153
5.4736647
5.5089719
5.5518472
5.6046162
5.6702452
5.7538307
5.8622728
6.0097016
6.2258432
6.7327795
3.8361317
4.1400535
4.4635504
4.6681589
4.8170322
4.9803761
5.1643189
5.3438959
5.4973871
5.613446
5.6889691
5.7268791
5.7365787
5.7195468
5.6817004
5.6314507
5.5744343
5.5155619
5.4590457
5.4083184
5.3657983
5.3326103
5.3085269
5.2922797
5.282182
5.2767871
5.2749417
5.2751197
5.277342
5.2815959
5.2873274
5.2946349
5.3035431
5.3141423
5.3266613
5.3415013
5.3590868
5.3799968
5.4049087
5.4347376
5.4706835
5.5141855
5.5675496
5.6337161
5.7176777
5.8262767
5.9732584
6.1882155
6.6970144
3.7299971
4.0333737
4.3586075
4.5721538
4.735983
4.9120966
5.1021523
5.2823437
5.4332522
5.5453747
5.6169497
5.6518421
5.6599839
5.6416155
5.6037835
5.5546045
5.4996444
5.443676
5.3906967
5.3438246
5.305104
5.2753344
5.2541076
5.2401475
5.2319148
5.2281228
5.2273152
5.2283601
5.2314745
5.2364279
5.2428224
5.2507744
5.2603266
5.2715675
5.2847389
5.3002425
5.3184972
5.3400634
5.365632
5.3960987
5.4326429
5.4767434
5.5306698
5.5973291
5.6816156
5.790321
5.9368032
6.1505397
6.6611019
3.6446024
3.9470638
4.2724849
4.4929395
4.6682424
4.852979
5.0457818
5.2243342
5.37134
5.4789007
5.5463521
5.5782281
5.5848386
5.5651866
5.5275419
5.4795941
5.4268002
5.3737692
5.3242719
5.2811262
5.2460378
5.219509
5.2009637
5.1891498
5.1827192
5.1804232
5.1803604
5.1823545
5.1862791
5.1918903
5.1989076
5.2074655
5.2176223
5.2294714
5.2432668
5.2594041
5.2782965
5.3004975
5.3266965
5.357753
5.3948514
5.439524
5.4939755
5.5610813
5.6456428
5.7544023
5.9003308
6.1128236
6.6251805
3.5763253
3.8790875
4.2033875
4.4286471
4.6121905
4.8018954
4.9944421
5.1692526
5.3110661
5.413433
5.4765817
5.5054908
5.5106838
5.4900188
5.4528567
5.4063889
5.3559179
5.3058765
5.2598146
5.2202732
5.1886489
5.1651706
5.1491228
5.1393278
5.1346025
5.1334146
5.1341371
5.1370202
5.1416888
5.1479323
5.1555558
5.1646998
5.1754293
5.1878568
5.2022489
5.2189899
5.2385022
5.2613124
5.2881004
5.319706
5.3573246
5.4025349
5.4574673
5.5249703
5.60976
5.7185187
5.8638433
6.0750819
6.5894564
3.5168632
3.8214688
4.1442718
4.3729136
4.562395
4.7546695
4.9451216
5.1149892
5.2509762
5.347979
5.4069713
5.4332098
5.4372517
5.4160599
5.379747
5.3350227
5.2870155
5.2399927
5.1973047
5.1612377
5.1328999
5.1122717
5.0985401
5.090637
5.0874476
5.0870355
5.0886059
5.0923007
5.0976698
5.1045242
5.1127474
5.1224664
5.1337491
5.1467328
5.1616941
5.1790117
5.1991108
5.2224996
5.2498363
5.2819559
5.320072
5.3657788
5.4211425
5.4889939
5.5739662
5.6826709
5.8273443
6.0373221
6.5541003
3.4580181
3.7657866
4.0876863
4.3192391
4.513494
4.7072715
4.8950405
5.0598062
5.1901327
5.2821557
5.3374843
5.3615465
5.3647809
5.3435924
5.3084452
5.2656512
5.2201751
5.1761419
5.1367256
5.1039731
5.0787211
5.0607374
5.0491669
5.0430475
5.0411056
5.0413181
5.0437464
5.0481737
5.0542014
5.0616608
5.0704695
5.0807429
5.0925618
5.1060893
5.1215963
5.1394562
5.1601075
5.1840417
5.2118951
5.2445063
5.2830988
5.3292562
5.384995
5.4531458
5.5382586
5.6468614
5.790841
5.9995535
6.5192253
3.3944979
3.7062825
4.02848
4.2633651
4.4623451
4.6577606
4.8433421
5.0036988
5.1290973
5.2168217
5.2690623
5.2913874
5.2940632
5.2731904
5.2393425
5.1985168
5.1555318
5.1143838
5.0780778
5.0484293
5.0260255
5.0104726
5.0009246
4.9964457
4.9954148
4.9963185
4.9995445
5.0046555
5.0113095
5.0193362
5.0287049
5.0395249
5.0518645
5.0659046
5.0819329
5.1003119
5.121476
5.1459168
5.1742527
5.2073375
5.2463946
5.2929556
5.3490172
5.4174223
5.5026334
5.6110948
5.7543403
5.961777
6.4848421
3.3253502
3.6412333
3.9649348
4.2041643
4.4086763
4.6067015
4.7912368
4.948278
5.0696304
5.1536671
5.203171
5.2239061
5.2260527
5.2054335
5.1727865
5.1338106
5.0931833
5.0547577
5.0213517
4.994551
4.9747287
4.9613924
4.9537331
4.9507297
4.9503595
4.9520558
4.9560195
4.9617675
4.9690055
4.9775696
4.9874697
4.998804
5.0116373
5.0261659
5.0426837
5.0615498
5.08319
5.1080969
5.1368957
5.170447
5.209942
5.2568601
5.3132025
5.3818203
5.4670875
5.5753752
5.7178462
5.9239955
6.4508465
3.2543112
3.573513
3.8994313
4.1440505
4.3550181
4.5565969
4.7410483
4.8956129
5.0135008
5.0941392
5.140927
5.1598923
5.1613179
5.1405744
5.1088647
5.0715313
5.033091
4.9972126
4.9664881
4.94227
4.9247665
4.9134611
4.9075672
4.905752
4.9059857
4.9085353
4.9131881
4.9195288
4.9273013
4.9363586
4.9467414
4.9585457
4.9718454
4.9868358
5.003817
5.0231414
5.0452262
5.0705739
5.0998148
5.1338074
5.1737089
5.2209499
5.2775429
5.3463368
5.4316248
5.5397034
5.6813577
5.8861973
6.4170536
4.8470646
4.961533
5.0386974
5.0825051
5.0993242
5.0998296
5.0784218
5.0473286
5.0114197
4.9750129
4.9415389
4.9133188
4.8914672
4.8760748
4.8666524
4.8623493
4.8613945
4.8623562
4.8657237
4.871017
4.8779002
4.8861575
4.8956718
4.90649
4.9187267
4.9324652
4.9479006
4.9653186
4.9850706
5.0075728
5.0333354
5.0629932
5.0973988
5.1376737
5.185213
5.2420359
5.3109748
5.3962536
5.5040775
5.6448681
5.8483786
6.3832782
4.8419645
4.828546
4.8208877
4.8179866
4.8176526
4.8194613
4.8235915
4.8294818
4.8368645
4.8455594
4.8554821
4.866699
4.879332
4.8934817
4.9093338
4.9271694
4.9473313
4.9702281
4.9963759
5.0264225
5.0612134
5.1018247
5.1496452
5.2066869
5.2757392
5.3609716
5.4684951
5.6083688
5.8105514
6.349439
4.7963791
4.8054741
4.8157746
4.8273583
4.8403545
4.8548852
4.8711342
4.8893616
4.909908
4.9331833
4.9596949
4.9901046
5.025248
5.0661654
5.1142508
5.1714894
5.2406244
5.3257793
5.4329485
5.5718522
5.7727418
6.3161088
4.8518977
4.8728119
4.8964396
4.9232989
4.954048
4.9895081
5.0307005
5.0790264
5.1364376
5.2056281
5.2906745
5.3974299
5.5353148
5.7349895
6.2846573
4.9182626
4.9540057
4.9954411
5.0439785
5.1015302
5.1707422
5.2556466
5.3619367
5.4987666
5.697316
6.2540882
5.009109
5.0667605
5.1359616
5.2206893
5.326469
5.4622239
5.6597032
6.2238209
5.185802
5.2910321
5.4256978
5.6221022
6.1931365
5.3891901
5.5844356
6.1614677
6.128381
)
;

boundaryField
{
    Side
    {
        type            empty;
    }
    Inlet
    {
        type            turbulentIntensityKineticEnergyInlet;
        intensity       0.03;
        value           nonuniform List<scalar> 
48
(
12.015249
12.015286
12.015414
12.015593
12.015793
12.015981
12.01615
12.016308
12.016471
12.016627
12.01677
12.01691
12.017038
12.017129
12.017203
12.017296
12.017326
12.017106
12.016623
12.016197
12.015913
12.015791
12.015772
12.015789
12.01584
12.015885
12.015902
12.015249
12.015232
12.015247
12.015306
12.015395
12.015427
12.015452
12.015532
12.015605
12.015618
12.015573
12.01548
12.015383
12.015331
12.015357
12.015459
12.015638
12.015866
12.015928
12.015814
12.015521
)
;
    }
    Airfoil
    {
        type            kqRWallFunction;
        value           nonuniform List<scalar> 0();
    }
    Outlet
    {
        type            inletOutlet;
        inletValue      nonuniform List<scalar> 0();
        value           nonuniform List<scalar> 0();
    }
    procBoundary3to2
    {
        type            processor;
        value           nonuniform List<scalar> 
65
(
7.0187021
6.9562753
6.4944861
6.372093
6.5213134
6.7256235
6.8899828
6.9907584
7.0306613
7.0205011
7.0205011
7.0482829
6.9667853
6.8711478
6.7685492
6.663901
6.5603712
6.4602734
6.3660506
6.281135
6.2092675
6.1526165
6.1102264
6.079142
6.0562351
6.0562351
6.0818307
6.0696294
6.0610049
6.0549406
6.051095
6.0476248
6.0476248
6.0840976
6.0838151
6.0846217
6.0846217
6.123469
6.1276958
6.1344945
6.1344945
6.1784507
6.1915062
6.1915062
6.242129
6.242129
6.2974503
6.3287715
6.3287715
6.4010396
6.4010396
6.4863833
6.4863833
6.5906997
6.5906997
6.6194358
6.7520094
6.7520094
6.931841
6.931841
6.9602052
7.2258132
7.2258132
7.2547737
7.7773934
)
;
    }
    procBoundary3to4
    {
        type            processor;
        value           nonuniform List<scalar> 
57
(
3.5090489
3.8375655
4.0881195
4.3055669
4.5105672
4.6949222
4.6949222
4.8031992
4.9137562
4.9870441
5.0274808
5.0419337
5.0409001
5.0185287
4.987769
4.9531052
4.9186168
4.8874456
4.861603
4.861603
4.7936149
4.7821134
4.7761372
4.7743349
4.7745698
4.7772631
4.7820904
4.7885377
4.7885377
4.7564019
4.7658755
4.7765387
4.7884713
4.8018026
4.8166818
4.8332959
4.8332959
4.8147882
4.8360446
4.8600114
4.8871992
4.8871992
4.8827609
4.9187519
4.9603982
4.9603982
4.9744183
5.0321282
5.101288
5.101288
5.1509896
5.2556319
5.2556319
5.3527035
5.5466381
5.5466381
6.0936668
)
;
    }
    procBoundary3to10
    {
        type            processor;
        value           nonuniform List<scalar> 
23
(
4.3348752
4.4887512
4.6466346
4.8222646
5.003288
5.1877693
5.3820406
5.5921593
6.0813061
5.8150865
6.0813061
4.2028729
4.0731825
3.9459369
3.8295553
3.7307334
3.649393
3.5802052
3.5166054
3.4530208
3.3860621
3.3154295
3.2443355
)
;
    }
    procBoundary3to11
    {
        type            processor;
        value           uniform 3.1875708;
    }
}


// ************************************************************************* //
