/*--------------------------------*- C++ -*----------------------------------*\
| =========                 |                                                 |
| \\      /  F ield         | OpenFOAM: The Open Source CFD Toolbox           |
|  \\    /   O peration     | Version:  2506                                  |
|   \\  /    A nd           | Website:  www.openfoam.com                      |
|    \\/     M anipulation  |                                                 |
\*---------------------------------------------------------------------------*/
FoamFile
{
    version     2.0;
    format      ascii;
    arch        "LSB;label=32;scalar=64";
    class       volScalarField;
    location    "0.006";
    object      Ma;
}
// * * * * * * * * * * * * * * * * * * * * * * * * * * * * * * * * * * * * * //

dimensions      [0 0 0 0 0 0 0];

internalField   nonuniform List<scalar> 
13761
(
0.3000714
0.30007099
0.30007087
0.30007131
0.3000717
0.29958312
0.30007206
0.29958259
0.30007251
0.29958254
0.30007286
0.29958262
0.30007298
0.29958262
0.3000732
0.29965497
0.29958259
0.30007351
0.29965495
0.29958252
0.30007399
0.29965488
0.29958237
0.30007477
0.29965482
0.29958215
0.30007558
0.2996548
0.29958195
0.30007614
0.29965497
0.29958177
0.30007653
0.29960687
0.29965522
0.29958174
0.30007682
0.29960671
0.2996554
0.2995818
0.30007699
0.29960652
0.29965563
0.29958178
0.30007717
0.29960635
0.29965594
0.29958154
0.30007741
0.29960623
0.29965626
0.29958144
0.30007749
0.2996062
0.29965635
0.29958172
0.30007755
0.29959473
0.29960622
0.29965623
0.2995818
0.30007756
0.29959471
0.29960623
0.29965612
0.29958176
0.30007752
0.2995947
0.29960623
0.29965606
0.29958174
0.30007749
0.29959469
0.2996062
0.2996561
0.29958177
0.30007752
0.29959468
0.29960611
0.2996561
0.2995817
0.30007779
0.29959113
0.29959467
0.29960602
0.29965614
0.29958147
0.30007849
0.29959114
0.29959466
0.29960603
0.29965592
0.29958114
0.3000791
0.29959115
0.29959465
0.29960613
0.29965559
0.29958124
0.30007866
0.29959115
0.29959465
0.29960626
0.29965542
0.2995825
0.30007788
0.29959116
0.29959466
0.29960633
0.29965539
0.29958304
0.3000776
0.29959116
0.29959466
0.29960637
0.29965537
0.29958317
0.30007771
0.29959
0.29959116
0.29959466
0.2996064
0.29965531
0.29958317
0.30007755
0.29959
0.29959117
0.29959465
0.29960645
0.29965519
0.29958339
0.30007736
0.29959
0.29959117
0.29959465
0.29960648
0.29965506
0.29958358
0.3000775
0.29959
0.29959117
0.29959464
0.29960647
0.299655
0.29958367
0.30007796
0.29959
0.29959116
0.29959464
0.29960643
0.2996551
0.29958386
0.3000783
0.29958974
0.29959
0.29959116
0.29959464
0.29960638
0.29965542
0.29958386
0.3000784
0.29958974
0.29959
0.29959116
0.29959464
0.29960633
0.2996557
0.29958341
0.30007835
0.29958974
0.29959
0.29959115
0.29959463
0.2996063
0.29965571
0.29958297
0.30007838
0.29958974
0.29958999
0.29959115
0.29959461
0.29960622
0.29965541
0.299583
0.30007866
0.29958974
0.29958999
0.29959114
0.29959459
0.29960608
0.29965518
0.29958369
0.30007916
0.29958974
0.29958999
0.29959114
0.29959458
0.29960593
0.29965509
0.29958397
0.3000797
0.2995897
0.29958974
0.29958999
0.29959113
0.29959457
0.29960576
0.29965505
0.29958387
0.30008013
0.2995897
0.29958974
0.29958999
0.29959112
0.29959457
0.2996056
0.29965527
0.29958359
0.2995897
0.29958974
0.29958999
0.29959112
0.29959457
0.29960552
0.29965599
0.29958333
0.2995897
0.29958974
0.29958999
0.29959112
0.29959456
0.29960554
0.29965661
0.29958311
0.2995897
0.29958974
0.29958998
0.2995911
0.29959456
0.29960566
0.29965685
0.29958304
0.29958969
0.2995897
0.29958974
0.29958998
0.29959108
0.29959457
0.29960579
0.29965674
0.29958231
0.29958969
0.2995897
0.29958973
0.29958997
0.29959106
0.29959459
0.29960589
0.29965653
0.29958121
0.29958969
0.2995897
0.29958973
0.29958997
0.29959104
0.29959459
0.29960593
0.29965607
0.2995805
0.29958969
0.2995897
0.29958973
0.29958997
0.29959103
0.29959458
0.29960596
0.29965544
0.29958043
0.29958969
0.2995897
0.29958973
0.29958996
0.29959101
0.29959457
0.29960598
0.29965502
0.29958969
0.2995897
0.29958973
0.29958995
0.29959098
0.29959458
0.29960601
0.29965487
0.29958969
0.29958969
0.2995897
0.29958973
0.29958995
0.29959096
0.2995946
0.29960593
0.29965487
0.29958969
0.29958969
0.2995897
0.29958973
0.29958994
0.29959094
0.29959461
0.29960575
0.29965485
0.29958969
0.29958969
0.2995897
0.29958973
0.29958994
0.29959093
0.2995946
0.29960557
0.29965488
0.29958969
0.29958969
0.2995897
0.29958973
0.29958994
0.29959091
0.29959458
0.29960546
0.29965485
0.29958969
0.29958969
0.2995897
0.29958973
0.29958993
0.29959089
0.29959457
0.2996053
0.2996548
0.29958969
0.29958969
0.29958969
0.2995897
0.29958973
0.29958993
0.29959087
0.29959457
0.29960499
0.29965516
0.29958969
0.29958969
0.29958969
0.2995897
0.29958973
0.29958992
0.29959085
0.29959457
0.29960454
0.29958969
0.29958969
0.29958969
0.2995897
0.29958973
0.29958992
0.29959083
0.29959457
0.29960405
0.29958969
0.29958969
0.29958969
0.2995897
0.29958973
0.29958992
0.29959081
0.29959457
0.29960356
0.29958969
0.29958969
0.29958969
0.2995897
0.29958973
0.29958991
0.29959081
0.29959456
0.299603
0.29958969
0.29958969
0.29958969
0.29958969
0.2995897
0.29958973
0.29958991
0.29959081
0.29959455
0.29960242
0.29958969
0.29958969
0.29958969
0.29958969
0.2995897
0.29958973
0.29958991
0.29959081
0.29959454
0.29960204
0.29958969
0.29958969
0.29958969
0.29958969
0.2995897
0.29958973
0.29958991
0.29959081
0.29959452
0.29960194
0.29958969
0.29958969
0.29958969
0.29958969
0.2995897
0.29958974
0.29958991
0.29959081
0.2995945
0.29958969
0.29958969
0.29958969
0.29958969
0.29958969
0.2995897
0.29958974
0.29958991
0.29959081
0.2995945
0.29958969
0.29958969
0.29958969
0.29958969
0.29958969
0.2995897
0.29958974
0.29958992
0.29959081
0.29959449
0.29958969
0.29958969
0.29958969
0.29958969
0.29958969
0.2995897
0.29958974
0.29958992
0.29959081
0.29959449
0.29958969
0.29958969
0.29958969
0.29958969
0.29958969
0.2995897
0.29958974
0.29958992
0.29959081
0.2995945
0.29958969
0.29958969
0.29958969
0.29958969
0.29958969
0.2995897
0.29958974
0.29958991
0.2995908
0.29959452
0.29958969
0.29958969
0.29958969
0.29958969
0.29958969
0.29958969
0.2995897
0.29958974
0.29958991
0.29959078
0.29959454
0.29958969
0.29958969
0.29958969
0.29958969
0.29958969
0.29958969
0.2995897
0.29958974
0.29958991
0.29959077
0.29959456
0.29958969
0.29958969
0.29958969
0.29958969
0.29958969
0.29958969
0.2995897
0.29958974
0.2995899
0.29959075
0.29958969
0.29958969
0.29958969
0.29958969
0.29958969
0.29958969
0.2995897
0.29958974
0.29958989
0.29959073
0.29958969
0.29958969
0.29958969
0.29958969
0.29958969
0.29958969
0.29958969
0.2995897
0.29958973
0.29958989
0.29959072
0.29958969
0.29958969
0.29958969
0.29958969
0.29958969
0.29958969
0.29958969
0.2995897
0.29958973
0.29958989
0.29959071
0.29958969
0.29958969
0.29958969
0.29958969
0.29958969
0.29958969
0.29958969
0.2995897
0.29958973
0.29958988
0.2995907
0.29958969
0.29958969
0.29958969
0.29958969
0.29958969
0.29958969
0.29958969
0.2995897
0.29958973
0.29958989
0.2995907
0.29958969
0.29958969
0.29958969
0.29958969
0.29958969
0.29958969
0.29958969
0.29958969
0.2995897
0.29958973
0.29958988
0.2995907
0.29958968
0.29958969
0.29958969
0.29958969
0.29958969
0.29958969
0.29958969
0.29958969
0.2995897
0.29958974
0.29958988
0.29959069
0.29958968
0.29958969
0.29958969
0.29958969
0.29958969
0.29958969
0.29958969
0.29958969
0.2995897
0.29958974
0.29958989
0.29958968
0.29958969
0.29958969
0.29958969
0.29958969
0.29958969
0.29958969
0.29958969
0.2995897
0.29958974
0.29958989
0.2995898
0.29958968
0.29958969
0.29958969
0.29958969
0.29958969
0.29958969
0.29958969
0.29958969
0.2995897
0.29958974
0.29958989
0.29958979
0.29958968
0.29958969
0.29958969
0.29958969
0.29958969
0.29958969
0.29958969
0.29958969
0.2995897
0.29958974
0.29958989
0.29958977
0.29958968
0.29958969
0.29958969
0.29958969
0.29958969
0.29958969
0.29958969
0.29958969
0.2995897
0.29958974
0.29958989
0.29958976
0.29958968
0.29958969
0.29958969
0.29958969
0.29958969
0.29958969
0.29958969
0.29958969
0.2995897
0.29958974
0.2995899
0.29959274
0.29958975
0.29958968
0.29958969
0.29958969
0.29958969
0.29958969
0.29958969
0.29958969
0.29958969
0.2995897
0.29958974
0.2995899
0.29959259
0.29958973
0.29958968
0.29958969
0.29958969
0.29958969
0.29958969
0.29958969
0.29958969
0.29958969
0.2995897
0.29958974
0.29959244
0.29958972
0.29958968
0.29958969
0.29958969
0.29958969
0.29958969
0.29958969
0.29958969
0.29958969
0.2995897
0.29958974
0.29959229
0.2995897
0.29958968
0.29958969
0.29958969
0.29958969
0.29958969
0.29958969
0.29958969
0.29958969
0.2995897
0.29958974
0.29961311
0.29959213
0.29958968
0.29958968
0.29958969
0.29958969
0.29958969
0.29958969
0.29958969
0.29958969
0.29958969
0.2995897
0.29958974
0.29961221
0.29959197
0.29958967
0.29958968
0.29958969
0.29958969
0.29958969
0.29958969
0.29958969
0.29958969
0.29958969
0.2995897
0.29958974
0.29961128
0.29959181
0.29958965
0.29958968
0.29958969
0.29958969
0.29958969
0.29958969
0.29958969
0.29958969
0.29958969
0.2995897
0.29958974
0.29970637
0.29961036
0.29959164
0.29958963
0.29958967
0.29958969
0.29958969
0.29958969
0.29958969
0.29958969
0.29958969
0.29958969
0.2995897
0.29958974
0.29970273
0.29960942
0.29959147
0.29958962
0.29958967
0.29958969
0.29958969
0.29958969
0.29958969
0.29958969
0.29958969
0.29958969
0.2995897
0.29969905
0.29960848
0.29959131
0.2995896
0.29958967
0.29958969
0.29958969
0.29958969
0.29958969
0.29958969
0.29958969
0.29958969
0.2995897
0.30001714
0.29969533
0.29960753
0.29959114
0.29958958
0.29958967
0.29958969
0.29958969
0.29958969
0.29958969
0.29958969
0.29958969
0.29958969
0.2995897
0.30000608
0.29969159
0.29960657
0.29959096
0.29958956
0.29958967
0.29958969
0.29958969
0.29958969
0.29958969
0.29958969
0.29958969
0.29958969
0.2995897
0.29999492
0.29968781
0.2996056
0.29959079
0.29958955
0.29958967
0.29958969
0.29958969
0.29958969
0.29958969
0.29958969
0.29958969
0.29958969
0.2995897
0.30087124
0.29998374
0.29968401
0.29960463
0.29959062
0.29958953
0.29958967
0.29958969
0.29958969
0.29958969
0.29958969
0.29958969
0.29958969
0.29958969
0.2995897
0.30084642
0.29997251
0.29968017
0.29960366
0.29959044
0.29958951
0.29958967
0.29958969
0.29958969
0.29958969
0.29958969
0.29958969
0.29958969
0.29958969
0.2995897
0.30082132
0.29996121
0.29967631
0.29960268
0.29959026
0.29958949
0.29958967
0.29958969
0.29958969
0.29958969
0.29958969
0.29958969
0.29958969
0.29958969
0.30253163
0.30079598
0.29994984
0.29967243
0.29960169
0.29959008
0.29958946
0.29958967
0.29958969
0.29958969
0.29958969
0.29958969
0.29958969
0.29958969
0.29958969
0.30248708
0.3007704
0.2999384
0.29966852
0.2996007
0.2995899
0.29958944
0.29958968
0.29958969
0.29958969
0.29958969
0.29958969
0.29958969
0.29958969
0.29958969
0.30244205
0.30074458
0.29992686
0.29966458
0.2995997
0.29958972
0.29958942
0.29958968
0.29958969
0.29958969
0.29958969
0.29958969
0.29958969
0.29958969
0.29958969
0.30514547
0.30239664
0.30071853
0.29991526
0.29966063
0.2995987
0.29958954
0.2995894
0.29958968
0.29958969
0.29958969
0.29958969
0.29958969
0.29958969
0.29958969
0.29958969
0.30508599
0.3023508
0.30069223
0.29990359
0.29965665
0.2995977
0.29958936
0.29958938
0.29958968
0.29958969
0.29958969
0.29958969
0.29958969
0.29958969
0.29958969
0.29958969
0.30806228
0.30502599
0.30230459
0.30066571
0.29989186
0.29965266
0.29959669
0.29958917
0.29958936
0.29958968
0.29958969
0.29958969
0.29958969
0.29958969
0.29958969
0.29958969
0.29958969
0.30801597
0.30496537
0.30225801
0.30063897
0.29988006
0.29964865
0.29959568
0.29958899
0.29958935
0.29958967
0.29958969
0.29958969
0.29958969
0.29958969
0.29958969
0.29958969
0.31028831
0.30796869
0.30490417
0.30221109
0.30061204
0.29986822
0.29964462
0.29959467
0.29958881
0.29958933
0.29958967
0.29958969
0.29958969
0.29958969
0.29958969
0.29958969
0.29958969
0.31027379
0.30792029
0.30484242
0.30216381
0.30058492
0.29985633
0.29964058
0.29959365
0.29958862
0.29958931
0.29958967
0.29958969
0.29958969
0.29958969
0.29958969
0.29958969
0.29958969
0.31025885
0.30787087
0.30478021
0.30211622
0.3005576
0.29984437
0.29963653
0.29959264
0.29958844
0.29958929
0.29958967
0.29958969
0.29958969
0.29958969
0.29958969
0.29958969
0.29958969
0.31127106
0.3102432
0.30782031
0.30471755
0.30206832
0.30053008
0.29983236
0.29963246
0.29959162
0.29958825
0.29958928
0.29958967
0.29958969
0.29958969
0.29958969
0.29958969
0.29958969
0.29958969
0.311295
0.31022677
0.3077686
0.3046545
0.30202014
0.30050236
0.2998203
0.29962838
0.2995906
0.29958807
0.29958926
0.29958967
0.29958969
0.29958969
0.29958969
0.29958969
0.29958969
0.29958969
0.31134376
0.31131568
0.31020945
0.30771571
0.30459104
0.30197168
0.30047445
0.29980821
0.2996243
0.29958958
0.29958789
0.29958924
0.29958967
0.29958969
0.29958969
0.29958969
0.29958969
0.29958969
0.29958969
0.31140714
0.31133334
0.31019111
0.30766172
0.30452715
0.30192294
0.30044634
0.29979607
0.2996202
0.29958856
0.2995877
0.29958922
0.29958967
0.29958969
0.29958969
0.29958969
0.29958969
0.29958969
0.31124321
0.31147708
0.3113468
0.31017148
0.30760664
0.30446276
0.30187394
0.30041805
0.29978391
0.2996161
0.29958754
0.29958752
0.29958921
0.29958966
0.29958969
0.29958969
0.29958969
0.29958969
0.29958969
0.31013792
0.31135914
0.31155329
0.31135464
0.31015021
0.30755062
0.30439781
0.3018247
0.30038954
0.29977171
0.29961199
0.29958652
0.29958734
0.29958919
0.29958966
0.29958969
0.29958969
0.29958969
0.29958969
0.29958969
0.31029381
0.31146732
0.31163326
0.3113589
0.31012694
0.30749369
0.30433221
0.30177529
0.30036082
0.29975949
0.29960787
0.2995855
0.29958716
0.29958919
0.29958965
0.29958969
0.29958969
0.29958969
0.29958969
0.29958969
0.30969988
0.31045004
0.31156827
0.31171313
0.31136152
0.31010151
0.30743603
0.30426592
0.3017257
0.30033191
0.29974725
0.29960376
0.29958449
0.29958698
0.29958918
0.29958964
0.29958969
0.29958969
0.29958969
0.29958969
0.29958969
0.30976451
0.31060651
0.31166342
0.31178944
0.31136299
0.31007393
0.30737759
0.30419895
0.30167598
0.30030282
0.29973499
0.29959964
0.29958347
0.2995868
0.29958917
0.29958963
0.29958969
0.29958969
0.29958969
0.29958969
0.29958969
0.31173486
0.3098407
0.31076409
0.3117548
0.31185963
0.31136328
0.31004449
0.30731832
0.30413137
0.3016261
0.30027357
0.29972273
0.29959553
0.29958246
0.29958662
0.29958917
0.29958962
0.29958969
0.29958969
0.29958969
0.29958969
0.31309644
0.31172532
0.30992856
0.31092185
0.31184448
0.31192255
0.31136249
0.31001364
0.30725796
0.30406325
0.30157606
0.30024416
0.29971046
0.29959143
0.29958146
0.29958644
0.29958916
0.29958961
0.29958969
0.29958969
0.29958969
0.29958969
0.31329512
0.31316285
0.311715
0.31002839
0.3110785
0.31193433
0.31197745
0.31136077
0.30998182
0.30719659
0.30399464
0.30152586
0.30021455
0.29969816
0.29958732
0.29958045
0.29958627
0.29958915
0.29958961
0.29958969
0.29958969
0.29958969
0.29958969
0.31341387
0.31322476
0.31170455
0.31013828
0.31123281
0.31202575
0.31202439
0.31135854
0.30994899
0.30713415
0.30392553
0.30147555
0.30018479
0.29968586
0.29958323
0.29957945
0.29958609
0.29958913
0.29958962
0.29958969
0.29958969
0.29958969
0.29958969
0.31391552
0.31353128
0.31328251
0.31169524
0.31025551
0.31138433
0.31211911
0.31206387
0.31135599
0.30991547
0.3070708
0.30385595
0.3014251
0.30015485
0.29967354
0.29957913
0.29957845
0.29958592
0.29958911
0.29958961
0.29958969
0.29958969
0.29958969
0.29958969
0.31504373
0.31400069
0.31364728
0.31333518
0.31168745
0.31037682
0.31153313
0.31221426
0.31209701
0.31135288
0.30988118
0.30700647
0.30378586
0.30137456
0.30012476
0.29966123
0.29957505
0.29957746
0.29958575
0.29958911
0.29958961
0.29958969
0.29958969
0.29958969
0.29958969
0.31596347
0.31510969
0.31408961
0.31376221
0.31338261
0.31168251
0.31050085
0.31167939
0.31230989
0.3121253
0.31134902
0.30984623
0.30694128
0.30371531
0.30132389
0.30009447
0.29964891
0.29957098
0.29957648
0.29958558
0.29958909
0.2995896
0.29958969
0.29958969
0.29958969
0.29958969
0.31684624
0.31606482
0.31517321
0.31418328
0.31387549
0.3134245
0.31168012
0.31062752
0.31182321
0.3124049
0.31215062
0.31134381
0.30981033
0.30687524
0.30364433
0.30127313
0.30006403
0.2996366
0.29956692
0.29957549
0.29958541
0.29958908
0.29958961
0.29958969
0.29958969
0.29958969
0.31750987
0.31696465
0.31616353
0.31523686
0.3142824
0.31398685
0.31346201
0.31168117
0.31075862
0.31196419
0.31249775
0.31217395
0.3113366
0.30977338
0.30680855
0.30357293
0.30122227
0.30003338
0.29962429
0.29956288
0.29957452
0.29958525
0.29958905
0.29958961
0.29958969
0.29958969
0.29958969
0.3184934
0.3176257
0.31708201
0.31625664
0.31529988
0.3143865
0.31409525
0.31349422
0.31168576
0.31089595
0.31210232
0.31258773
0.31219583
0.31132635
0.30973504
0.30674126
0.30350121
0.30117139
0.30000255
0.29961199
0.29955885
0.29957355
0.29958509
0.29958903
0.29958962
0.29958969
0.29958969
0.29958969
0.31987728
0.31927233
0.31862446
0.31774147
0.31719947
0.31634742
0.31536453
0.31449535
0.31419988
0.31352183
0.31169533
0.31104016
0.31223789
0.31267466
0.31221532
0.31131333
0.30969528
0.30667346
0.3034291
0.30112046
0.2999715
0.2995997
0.29955485
0.29957258
0.29958492
0.29958901
0.29958963
0.29958969
0.29958969
0.29958969
0.32063148
0.32002864
0.31941676
0.31875362
0.31785884
0.31731562
0.31643307
0.31543011
0.31460815
0.31429916
0.31354491
0.31170921
0.31118992
0.31237254
0.31275863
0.31223116
0.31129809
0.30965397
0.3066051
0.30335666
0.30106954
0.29994026
0.29958744
0.29955086
0.29957163
0.29958477
0.299589
0.29958963
0.29958969
0.29958969
0.29958969
0.3218998
0.32134825
0.32078658
0.32017889
0.31956158
0.31888206
0.31797708
0.31743179
0.31651657
0.31549832
0.31472413
0.31439256
0.31356445
0.31172804
0.31134249
0.31250782
0.31283899
0.31224328
0.31128142
0.30961128
0.30653607
0.30328387
0.30101858
0.29990884
0.29957521
0.29954691
0.29957068
0.29958461
0.29958898
0.29958963
0.29958969
0.29958969
0.29958969
0.32317937
0.32266563
0.32206891
0.32150862
0.32094279
0.32032772
0.31970099
0.31901063
0.31809567
0.3175467
0.3165965
0.31556925
0.31484187
0.3144793
0.31358056
0.31175375
0.31149527
0.31264523
0.31291519
0.31225172
0.31126346
0.30956725
0.30646633
0.30321085
0.30096762
0.29987721
0.299563
0.29954298
0.29956974
0.29958446
0.29958896
0.29958963
0.29958969
0.29958969
0.32432983
0.32388966
0.32336706
0.32284639
0.32223933
0.32167387
0.32109799
0.32047255
0.3198383
0.31913663
0.31821489
0.31766069
0.31667517
0.31564397
0.31496066
0.31456026
0.31359452
0.31178594
0.31164645
0.31278483
0.31298668
0.31225685
0.31124454
0.30952196
0.3063958
0.30313758
0.30091663
0.29984535
0.29955079
0.29953908
0.29956881
0.2995843
0.29958895
0.29958964
0.29958969
0.29958969
0.32580035
0.32538886
0.32500357
0.32453843
0.32408885
0.32355688
0.32302878
0.32241256
0.32183954
0.32125335
0.32061226
0.31997105
0.31926199
0.31833387
0.31777277
0.31675104
0.31572185
0.31507969
0.31463545
0.31360696
0.31182359
0.31179614
0.31292608
0.31305326
0.31225914
0.31122442
0.3094751
0.30632438
0.3030641
0.30086569
0.29981328
0.29953862
0.29953522
0.29956789
0.29958415
0.29958894
0.29958964
0.29958969
0.29958969
0.32696774
0.32671703
0.32637509
0.32603047
0.32560956
0.32522059
0.32474599
0.32428974
0.32374742
0.32321333
0.32258937
0.32200822
0.32140576
0.32074678
0.32009869
0.31938319
0.31845217
0.3178824
0.31682556
0.31580351
0.31519908
0.31470587
0.31361914
0.31186631
0.31194434
0.31306733
0.31311557
0.31225885
0.31120333
0.30942653
0.30625213
0.30299035
0.30081479
0.29978093
0.29952649
0.29953137
0.29956697
0.29958401
0.29958893
0.29958964
0.29958969
0.29958969
0.32796503
0.32756975
0.32744639
0.32745693
0.32742653
0.32721619
0.32696232
0.32661079
0.32625952
0.32583037
0.32543881
0.32495503
0.32449182
0.32394192
0.32340262
0.3227687
0.32217853
0.3215558
0.32087497
0.32022474
0.31950179
0.31856902
0.31798953
0.31689782
0.31588858
0.31531818
0.31477115
0.31363164
0.31191468
0.3120918
0.31320693
0.31317419
0.31225536
0.31118148
0.30937592
0.30617908
0.30291634
0.300764
0.29974836
0.29951441
0.29952756
0.29956607
0.29958386
0.29958891
0.29958964
0.29958969
0.29958969
0.32989797
0.32984276
0.32968712
0.32949497
0.32931041
0.32946598
0.32945653
0.32898321
0.32821526
0.32781243
0.32769224
0.32770705
0.32768064
0.32746352
0.32720761
0.32684357
0.32648737
0.32605107
0.32565593
0.32516475
0.32469723
0.32414029
0.32359485
0.32295142
0.32235006
0.32170309
0.32100206
0.32034687
0.31961647
0.31868329
0.31809331
0.316969
0.31597841
0.31543705
0.31483177
0.31364534
0.31196857
0.31223885
0.31334373
0.31322959
0.31224853
0.31115962
0.3093231
0.30610529
0.30284205
0.30071326
0.29971559
0.29950234
0.29952379
0.29956517
0.29958372
0.2995889
0.29958964
0.29958969
0.29958969
0.25640195
0.25893295
0.26154589
0.26432703
0.26740233
0.27098384
0.27555904
0.28283394
0.29902357
0.32247144
0.32986468
0.331141
0.33129233
0.33128364
0.33124816
0.33120602
0.33116753
0.33113508
0.33110372
0.33107398
0.33104265
0.33101154
0.330975
0.33093222
0.33088569
0.33083713
0.33078961
0.330733
0.33067571
0.33061548
0.33055456
0.33047221
0.33038951
0.3302835
0.33017771
0.33012466
0.32996416
0.32976844
0.3295784
0.32974578
0.32973485
0.32924781
0.32846171
0.32804937
0.32793647
0.32795515
0.32793301
0.32770934
0.32744934
0.32707563
0.32671485
0.32627064
0.32587465
0.32537715
0.32490641
0.32434113
0.3237915
0.32313665
0.32252227
0.3218491
0.32112683
0.32046956
0.3197287
0.31879655
0.31819373
0.3170391
0.31607254
0.315555
0.31488685
0.31366104
0.31202832
0.3123865
0.31347728
0.31328153
0.3122382
0.31113802
0.30926774
0.30603083
0.30276753
0.30066256
0.29968269
0.2994903
0.29952007
0.29956428
0.29958358
0.29958889
0.29958964
0.29958969
0.24634626
0.24900293
0.25159456
0.25413505
0.25665161
0.25918714
0.26180362
0.26458788
0.26766601
0.27124953
0.27582188
0.28307341
0.29917035
0.32269904
0.33015084
0.33143993
0.331593
0.33158403
0.33154754
0.33150407
0.33146382
0.33142996
0.33139722
0.33136638
0.33133465
0.33130267
0.33126535
0.33122234
0.33117486
0.33112662
0.33107717
0.33102004
0.33096125
0.33089988
0.33083854
0.33075325
0.3306708
0.33056307
0.33045515
0.33040242
0.33023785
0.33004027
0.32984611
0.33001771
0.33001357
0.32950738
0.32870505
0.32828691
0.32817851
0.32820103
0.3281821
0.32795252
0.32769002
0.32730336
0.32693944
0.3264916
0.3260944
0.32559248
0.32511752
0.32454562
0.32399011
0.32332267
0.32269391
0.32199584
0.32125544
0.3205896
0.31983853
0.3189081
0.31829116
0.31710899
0.31617184
0.31567126
0.31493609
0.3136787
0.31209367
0.31253562
0.31360773
0.31332975
0.3122248
0.31111669
0.30920995
0.30595568
0.30269272
0.30061178
0.29964976
0.29947828
0.29951638
0.2995634
0.29958345
0.29958888
0.29958964
0.29958969
0.23819149
0.24104494
0.24384097
0.24657157
0.24923306
0.25182902
0.25437346
0.25689373
0.25943291
0.26205302
0.26484083
0.2679222
0.27150791
0.27607744
0.28330567
0.2993067
0.32291771
0.33043349
0.33173645
0.33189101
0.33188112
0.33184297
0.33179773
0.33175615
0.33172149
0.33168785
0.33165672
0.33162376
0.33159167
0.33155321
0.33150943
0.33146092
0.33141149
0.33136132
0.33130298
0.33124344
0.33118248
0.33111951
0.33103359
0.33094823
0.33083803
0.33072728
0.33067693
0.33050676
0.33030488
0.33010616
0.33029153
0.33028634
0.32976516
0.32894443
0.32851736
0.32841689
0.32844305
0.3284292
0.3281901
0.32792365
0.32752946
0.32716551
0.32671228
0.32631635
0.32580871
0.32533211
0.32475042
0.32418947
0.32350887
0.32286424
0.32214358
0.32138656
0.32071164
0.31994742
0.31901935
0.31838544
0.31717814
0.31627514
0.31578451
0.31497916
0.31369809
0.31216548
0.3126875
0.31373513
0.31337321
0.31220868
0.31109467
0.30914994
0.30587983
0.30261769
0.30056084
0.29961702
0.2994663
0.29951271
0.29956254
0.29958331
0.29958888
0.29958964
0.29958969
0.22955837
0.23253597
0.23548213
0.23838932
0.24124844
0.24404996
0.24678588
0.24945257
0.25205357
0.25460286
0.25712771
0.2596711
0.26229495
0.26508587
0.26816944
0.27175555
0.27631911
0.28351748
0.29941206
0.323111
0.33070134
0.33202209
0.33217933
0.33216976
0.33213142
0.33208585
0.33204372
0.33200856
0.33197468
0.33194326
0.33191024
0.33187763
0.33183878
0.33179451
0.33174464
0.33169461
0.33164274
0.3315841
0.33152327
0.33146043
0.33139718
0.33130897
0.33122312
0.33111025
0.33099655
0.33094754
0.33077219
0.33056807
0.3303677
0.33056125
0.33056
0.33001767
0.32917847
0.32874517
0.32865056
0.32867882
0.32866834
0.32842353
0.32815688
0.32775315
0.32739051
0.32693499
0.32653889
0.32602741
0.32554596
0.32495557
0.32438762
0.32369256
0.32303333
0.32229541
0.32152278
0.3208339
0.32005586
0.31913002
0.31847687
0.31724717
0.31638218
0.31589384
0.31501634
0.31371874
0.31224391
0.31284322
0.31385961
0.31341096
0.31219016
0.31107109
0.30908823
0.30580335
0.30254232
0.30050957
0.2995846
0.29945432
0.29950909
0.29956169
0.29958318
0.29958887
0.29958964
0.29958969
0.21446079
0.21756679
0.22064549
0.22370014
0.22673205
0.22974057
0.23272288
0.23567375
0.23858569
0.24144962
0.24425597
0.24699673
0.24966819
0.25227385
0.25482763
0.25735679
0.25990429
0.26253206
0.26532673
0.26841381
0.27200281
0.27656541
0.28374534
0.29955897
0.32333115
0.33097104
0.33230253
0.33246227
0.33245324
0.33241484
0.3323686
0.33232605
0.33229076
0.33225686
0.33222551
0.33219284
0.33216033
0.33212167
0.33207692
0.33202719
0.33197641
0.33192445
0.33186398
0.33180187
0.33173908
0.33167424
0.33158439
0.33149629
0.33138072
0.33126382
0.33121694
0.33103454
0.33082691
0.33062124
0.33083038
0.33082939
0.33026709
0.32940787
0.32896628
0.32887874
0.32891049
0.32890582
0.32865284
0.32838486
0.3279763
0.32761689
0.32715772
0.3267632
0.32624483
0.32576055
0.32515822
0.32458072
0.3238741
0.32320169
0.3224493
0.32166359
0.32095762
0.32016457
0.31924119
0.31856516
0.31731499
0.31649178
0.31599851
0.31504818
0.31374135
0.31232909
0.31300313
0.31398117
0.3134419
0.31216922
0.31104484
0.30902541
0.30572637
0.30246666
0.30045797
0.29955253
0.29944236
0.2995055
0.29956084
0.29958306
0.29958886
0.29958965
0.29958969
0.19153051
0.1950173
0.19842347
0.20175969
0.20503584
0.20826057
0.21144129
0.21458466
0.21769622
0.22078028
0.22384014
0.22687726
0.22989113
0.23287898
0.23583557
0.23875336
0.24162322
0.24443554
0.24718222
0.24985949
0.25247079
0.25502996
0.25756421
0.26011643
0.2627485
0.26554691
0.26863688
0.27222707
0.27678494
0.28393697
0.29964919
0.32350366
0.33123024
0.33258466
0.33274876
0.33274066
0.3327024
0.3326559
0.33261339
0.33257788
0.33254411
0.33251223
0.33247925
0.33244569
0.33240638
0.33235999
0.33230866
0.33225623
0.33220288
0.33214147
0.33207892
0.33201371
0.33194836
0.33185649
0.3317663
0.33164812
0.3315283
0.33148364
0.33129468
0.3310818
0.33087589
0.33109633
0.33109712
0.33051314
0.3296328
0.32918403
0.32910451
0.3291376
0.32913811
0.3288788
0.32861384
0.32819919
0.32784542
0.3273821
0.32698631
0.326462
0.32597158
0.32535679
0.32477022
0.32405116
0.32337009
0.32260717
0.3218063
0.32108176
0.32027396
0.31935294
0.31865141
0.31738275
0.31660341
0.31609838
0.31507527
0.31376511
0.31242005
0.31316679
0.31410025
0.31346593
0.31214605
0.31101535
0.30896233
0.30564892
0.30239064
0.30040606
0.29952067
0.29943045
0.29950196
0.29956001
0.29958293
0.29958885
0.29958965
0.015481993
0.026838451
0.039135601
0.052301121
0.065987507
0.079483849
0.092034291
0.10324681
0.11311111
0.12180361
0.129533
0.13648069
0.14279532
0.14859576
0.1539753
0.15900733
0.16374914
0.16824446
0.17252854
0.17663138
0.18057682
0.18438461
0.18807232
0.19165477
0.1951452
0.19855536
0.2018956
0.2051755
0.20840373
0.21158804
0.21473518
0.21785068
0.22093892
0.22400324
0.22704509
0.23006388
0.23305681
0.23601861
0.23894171
0.24181694
0.24463466
0.24738673
0.25006933
0.25268584
0.25525007
0.25778916
0.26034598
0.26298235
0.26578467
0.26887794
0.27247004
0.27702471
0.2841525
0.29977449
0.32370395
0.33149859
0.33286935
0.33303574
0.33302734
0.33298809
0.33294022
0.33289621
0.33285946
0.33282487
0.33279227
0.33275925
0.33272509
0.33268584
0.33263869
0.33258744
0.33253368
0.33248048
0.33241736
0.33235339
0.33228723
0.33222117
0.33212735
0.33203665
0.33191464
0.33179115
0.33174968
0.33155329
0.33133636
0.33112444
0.33136088
0.33136506
0.33075758
0.32985498
0.32939894
0.32932632
0.32936283
0.32937018
0.32910553
0.32884353
0.32842543
0.32807473
0.32760631
0.32720927
0.32667601
0.326179
0.32555045
0.32495172
0.32422613
0.32353841
0.32276454
0.32195035
0.32120615
0.3203827
0.31946473
0.31873469
0.31745057
0.31671677
0.31619343
0.31509806
0.31378949
0.31251624
0.31333257
0.31421661
0.3134833
0.31212057
0.3109823
0.30889966
0.30557109
0.30231437
0.30035396
0.29948895
0.29941861
0.29949846
0.2995592
0.29958281
0.29958885
0.29958965
0.005023748
0.015498687
0.026867741
0.039178685
0.052358685
0.066058593
0.079565206
0.092121712
0.1033371
0.1132026
0.12189572
0.12962567
0.13657405
0.14288959
0.14869112
0.15407192
0.15910525
0.16384831
0.16834481
0.17263017
0.17673461
0.18068218
0.18449266
0.18818353
0.19176944
0.19526348
0.1986774
0.20202163
0.20530583
0.20853865
0.21172778
0.21487992
0.21800053
0.22109396
0.22416351
0.22721062
0.23023468
0.2332329
0.2362
0.2391284
0.24200892
0.2448319
0.24758917
0.25027687
0.25289832
0.25546727
0.25801081
0.26057174
0.26321181
0.26601728
0.2691128
0.27270532
0.277255
0.28435762
0.29989036
0.32389411
0.33176054
0.33314882
0.33331794
0.33330944
0.33326942
0.33322049
0.33317611
0.33313936
0.33310475
0.33307189
0.33303849
0.3330039
0.33296369
0.33291538
0.33286266
0.33280807
0.33275387
0.33268973
0.33262579
0.33255824
0.33249135
0.33239576
0.33230233
0.33217888
0.33205359
0.33201534
0.33181154
0.33158711
0.3313749
0.33162656
0.33163089
0.33099991
0.33007411
0.32961218
0.32955022
0.32958861
0.32960373
0.3293333
0.32907652
0.32865279
0.32830798
0.32783175
0.32743015
0.32688632
0.32638006
0.32573706
0.32513021
0.32439733
0.32370697
0.32292118
0.32209098
0.32132955
0.32049198
0.31957696
0.31881595
0.31751967
0.31683195
0.31628386
0.31511738
0.313814
0.31261745
0.31349896
0.3143299
0.31349467
0.31209295
0.31094628
0.30883741
0.30549299
0.3022379
0.3003017
0.29945728
0.29940679
0.29949499
0.29955839
0.2995827
0.29958884
0.29958965
0.0050280487
0.015512155
0.02689138
0.039213524
0.052405429
0.066116903
0.079633248
0.092196992
0.10341764
0.11328729
0.12198403
0.1297174
0.13666917
0.14298811
0.14879307
0.15417732
0.15921414
0.16396072
0.16846077
0.17274972
0.17685779
0.18080903
0.18462322
0.18831784
0.19190755
0.19540544