/*--------------------------------*- C++ -*----------------------------------*\
| =========                 |                                                 |
| \\      /  F ield         | OpenFOAM: The Open Source CFD Toolbox           |
|  \\    /   O peration     | Version:  2506                                  |
|   \\  /    A nd           | Website:  www.openfoam.com                      |
|    \\/     M anipulation  |                                                 |
\*---------------------------------------------------------------------------*/
FoamFile
{
    version     2.0;
    format      ascii;
    arch        "LSB;label=32;scalar=64";
    class       volScalarField;
    location    "2.35";
    object      alphat;
}
// * * * * * * * * * * * * * * * * * * * * * * * * * * * * * * * * * * * * * //

dimensions      [1 -1 -1 0 0 0 0];

internalField   nonuniform List<scalar> 
1376
(
0.13195658
0.1309247
0.13023275
0.12974441
0.12936668
0.12906613
0.12882277
0.12861978
0.12844853
0.12830419
0.12818334
0.12807808
0.12798664
0.12789988
0.12783151
0.12776641
0.12770868
0.12766539
0.12761552
0.12758206
0.12754859
0.12751821
0.12748994
0.12746461
0.12744765
0.12743571
0.12743304
0.12744281
0.12746254
0.12751432
0.12758161
0.12770124
0.11933681
0.099617698
0.07941862
0.064897035
0.047203417
0.039553295
0.047433682
0.029153143
0.027472996
0.021124755
0.016957005
0.0074577207
0.0094725109
0.0014587061
0.0045034943
0.0023732264
0.00048098083
0.13194013
0.13095721
0.13029227
0.12981104
0.12943523
0.12913267
0.1288865
0.12868155
0.12850595
0.12835879
0.12823597
0.12812762
0.12802995
0.12794707
0.12787354
0.12780727
0.12774663
0.12770188
0.12765106
0.12761513
0.12758
0.12754876
0.12751995
0.12749606
0.12747868
0.1274684
0.12746549
0.12747019
0.12749095
0.12753513
0.12760831
0.12771328
0.12565993
0.10321385
0.08161033
0.066306106
0.059135097
0.042511058
0.027174693
0.027389876
0.019547064
0.015672907
0.0087466081
0.011696406
0.0027894315
0.0051627552
0.0058971133
0.0048363782
0.00048734506
0.13201349
0.13105982
0.13039244
0.12990769
0.12952737
0.12922004
0.1289681
0.12875713
0.12857698
0.12842636
0.12829801
0.12818565
0.12808597
0.1279997
0.12792204
0.12785509
0.12778969
0.12774304
0.12769224
0.12765134
0.12761522
0.12758388
0.12755435
0.12753016
0.12751002
0.12749821
0.12749586
0.12749768
0.12751896
0.12755499
0.12763288
0.12772525
0.12512458
0.1007448
0.083290994
0.066753911
0.05114452
0.045210066
0.040077585
0.027930306
0.022791249
0.01524037
0.015874688
0.0088692059
0.0095780035
0.0044965984
0.0038739766
0.0024303139
0.00048844185
0.13205345
0.13114007
0.13048522
0.13000042
0.12961846
0.12930731
0.12905086
0.12883505
0.12865133
0.1284951
0.12836199
0.12824779
0.12814462
0.12805387
0.12797354
0.12790354
0.12783674
0.12778517
0.12773378
0.12768863
0.12765294
0.1276205
0.12758829
0.12756135
0.12754183
0.12752939
0.12752669
0.12752974
0.12754769
0.12758067
0.12766051
0.12774299
0.12789488
0.10482586
0.085841487
0.068748405
0.057117366
0.041488811
0.032541456
0.026628692
0.022990338
0.020784952
0.01138616
0.008828706
0.0049474068
0.0039609934
0.0051692642
0.00262064
0.0004930804
0.13210121
0.13122811
0.13058333
0.13009738
0.12971364
0.12939867
0.12913787
0.12891811
0.12873011
0.12856729
0.12843047
0.12831396
0.12820595
0.12811268
0.12802815
0.12795471
0.12788522
0.12782842
0.12777618
0.12772844
0.1276914
0.12765627
0.12762162
0.12759661
0.12757774
0.12756203
0.12755855
0.12756295
0.12757998
0.12760997
0.12767958
0.12776181
0.12790329
0.10557693
0.085166213
0.070710809
0.054860452
0.046894504
0.035885746
0.029540661
0.021050464
0.014193719
0.015388273
0.0099852175
0.0087142921
0.0051754754
0.0031479554
0.0022092732
0.00052509601
0.13214253
0.13130591
0.13067603
0.1301945
0.12981032
0.12949308
0.12922918
0.12900414
0.12881238
0.12864507
0.12850299
0.12838081
0.12827073
0.12817413
0.12808384
0.12800692
0.12793581
0.12787492
0.12782142
0.12777054
0.12773054
0.12769569
0.12766182
0.1276351
0.12761409
0.12759667
0.12759159
0.12759759
0.12761127
0.12764212
0.12769754
0.12779235
0.12791448
0.10981877
0.088284653
0.070902681
0.057387216
0.044263402
0.035747239
0.026746296
0.024244984
0.020514089
0.01160766
0.010815581
0.0057934673
0.0046516127
0.0042396916
0.0023155098
0.00053722742
0.13217767
0.1313783
0.13076566
0.13029161
0.12990899
0.12959064
0.12932262
0.12909355
0.128899
0.12872683
0.12857855
0.12845076
0.12833843
0.12823631
0.12814317
0.12806312
0.12799073
0.1279252
0.12786873
0.12781676
0.12777396
0.12773944
0.12770399
0.12767252
0.12765076
0.12763267
0.12762651
0.12763444
0.12764694
0.12767334
0.12771977
0.12782246
0.12792537
0.10869976
0.090314228
0.072749611
0.057564376
0.046128297
0.036265169
0.029956183
0.020582574
0.016145297
0.01435063
0.0089002879
0.0091828489
0.0042937903
0.0031172876
0.002056487
0.00056172741
0.13220749
0.13144916
0.13085579
0.130389
0.1300087
0.12968947
0.1294187
0.12918612
0.12898661
0.12881192
0.12865837
0.12852491
0.12840814
0.1283026
0.12820692
0.12812183
0.12804731
0.12797875
0.12791902
0.12786497
0.12781789
0.12777977
0.12774459
0.12771222
0.12769007
0.12767209
0.12766278
0.12766828
0.12768071
0.12770547
0.12775128
0.12784601
0.12793951
0.11294969
0.090292035
0.074347517
0.059806578
0.045634168
0.037162404
0.027625356
0.025058828
0.017326383
0.013241204
0.0099033709
0.0063219929
0.0049759567
0.0036868759
0.0021239441
0.00059700078
0.13223605
0.13151786
0.13094212
0.13048552
0.13010776
0.12978878
0.12951517
0.12927918
0.12907454
0.12889824
0.12873963
0.12860077
0.12847973
0.1283718
0.12827213
0.12818101
0.12810349
0.12803317
0.12796977
0.12791354
0.12786279
0.12782199
0.12778767
0.12775411
0.12773036
0.12771223
0.12770062
0.12770397
0.12771633
0.12773894
0.12778857
0.12785598
0.1279683
0.11534623
0.092379006
0.074797862
0.060416452
0.047733179
0.036564666
0.030549145
0.021309847
0.018150909
0.012886149
0.01064545
0.0070126383
0.0047300149
0.0031281445
0.0019024435
0.00061271247
0.13226708
0.13158262
0.13102525
0.13057859
0.13020449
0.1298865
0.12961119
0.12937211
0.12916315
0.12898177
0.12881959
0.12867696
0.12855087
0.12843906
0.12833631
0.128241
0.12816005
0.12808835
0.12802191
0.12796381
0.12791067
0.12786639
0.12783064
0.12779675
0.12777067
0.12775236
0.12773982
0.1277407
0.12775172
0.12777279
0.1278217
0.12786892
0.12800915
0.11699825
0.095616379
0.076310154
0.060819791
0.04883696
0.037530511
0.029234971
0.024496809
0.017143451
0.013502868
0.0094578715
0.0071647963
0.0048696063
0.0035285625
0.0018958921
0.0006064723
0.13229936
0.13164367
0.13110379
0.13066745
0.13029846
0.12998141
0.1297063
0.12946545
0.12925228
0.12906486
0.12890123
0.12875388
0.1286226
0.12850712
0.12840195
0.12830253
0.12821752
0.12814322
0.12807479
0.12801426
0.12795883
0.12791067
0.1278729
0.12783879
0.12781093
0.12779201
0.12777907
0.12777813
0.12778815
0.12780831
0.12785289
0.12789165
0.12804548
0.12005701
0.095988313
0.078591631
0.062403985
0.048494998
0.038799487
0.029739849
0.022961729
0.018680825
0.012861024
0.010296464
0.0069679777
0.0048474525
0.0029915359
0.0018845514
0.0006134156
0.13232761
0.13170037
0.13117979
0.13075151
0.13038792
0.1300728
0.12979743
0.1295549
0.12934029
0.12914901
0.12898113
0.12882912
0.1286933
0.1285733
0.1284653
0.12836248
0.12827332
0.12819556
0.12812569
0.12806265
0.12800572
0.12795456
0.12791455
0.12787973
0.12785037
0.12783012
0.12781733
0.12781563
0.12782408
0.12784193
0.12788061
0.1279233
0.12807206
0.12315913
0.098777133
0.079180691
0.063952204
0.050072281
0.03867469
0.030738359
0.02335861
0.018099458
0.014008865
0.0092704358
0.0076647002
0.0045816453
0.0031651826
0.0018222178
0.00063344919
0.13235675
0.13175312
0.13124658
0.13082688
0.13047098
0.13015846
0.12988105
0.12963829
0.12942173
0.12922695
0.12905505
0.12890064
0.12876031
0.12863571
0.12852535
0.12842034
0.12832723
0.12824581
0.1281742
0.12810919
0.12805092
0.12799754
0.12795488
0.12791904
0.12788859
0.12786655
0.12785317
0.12785086
0.12785843
0.12787486
0.12790672
0.12796602
0.12807182
0.12556573
0.10099257
0.080743995
0.064592508
0.050943222
0.039685001
0.030679669
0.024070733
0.017879005
0.013865539
0.009902993
0.0067092728
0.0050690953
0.0029483341
0.0018171109
0.0006286272
0.13238697
0.1318013
0.13130746
0.13089671
0.13054738
0.13023612
0.12995929
0.12971453
0.12949575
0.12929791
0.12912264
0.12896637
0.12882334
0.12869486
0.12858131
0.12847493
0.12837844
0.12829361
0.12821962
0.12815287
0.12809317
0.1280383
0.12799269
0.12795513
0.12792365
0.12789979
0.1278854
0.12788284
0.12788996
0.12790464
0.12793199
0.12799655
0.12807084
0.12803062
0.10269234
0.082371122
0.065323629
0.051547348
0.040079258
0.031164086
0.024183933
0.018078298
0.013701444
0.010212472
0.0068441752
0.0047706824
0.0029018063
0.0017445273
0.00063837602
0.1324175
0.13184799
0.13136305
0.13095911
0.13061457
0.13030558
0.1300289
0.12978249
0.12956205
0.12936098
0.1291836
0.12902519
0.12887949
0.12874749
0.12863109
0.1285237
0.12842461
0.12833702
0.12826095
0.12819269
0.12813135
0.12807526
0.12802709
0.1279877
0.12795536
0.12793011
0.12791445
0.12791146
0.12791831
0.12793189
0.12795504
0.12802035
0.1280744
0.12826253
0.10402874
0.083190124
0.06619123
0.051974832
0.040424995
0.031430606
0.024056378
0.018659753
0.013195826
0.010314067
0.007020436
0.0045757304
0.0030505885
0.0017776596
0.00063135745
0.13244568
0.13188929
0.13141018
0.1310117
0.13067033
0.13036292
0.13008944
0.12984156
0.12961808
0.12941619
0.12923667
0.12907616
0.12892832
0.12879336
0.12867411
0.12856539
0.12846465
0.1283748
0.12829687
0.12822741
0.12816465
0.12810753
0.12805737
0.12801617
0.12798306
0.12795672
0.12793952
0.1279356
0.12794181
0.12795424
0.12797328
0.12803754
0.1280743
0.12827907
0.10583645
0.08424292
0.066905577
0.052658003
0.041089542
0.031716776
0.024405462
0.018467946
0.013908065
0.0096379686
0.007266449
0.0046664859
0.0028443774
0.0017190562
0.00062495502
0.13246858
0.13192195
0.13144982
0.1310538
0.13071645
0.13041159
0.13013485
0.1298877
0.12966364
0.12946177
0.12928033
0.12911701
0.12896756
0.12883127
0.12870996
0.12859925
0.12849721
0.12840568
0.12832631
0.12825591
0.12819202
0.12813413
0.12808271
0.12804003
0.12800626
0.1279791
0.12796072
0.12795591
0.12796133
0.12797274
0.12798835
0.1280503
0.12807273
0.12829054
0.10844096
0.086567866
0.068581799
0.053863945
0.041944054
0.032530766
0.024989174
0.018741902
0.014126399
0.010168321
0.0070641495
0.0048080512
0.0029055023
0.0017735042
0.00063837267
0.1324859
0.13194624
0.1314786
0.13108591
0.13075053
0.13044616
0.13016813
0.12992239
0.12969831
0.12949439
0.12931138
0.12914592
0.12899541
0.12885854
0.1287363
0.12862409
0.12852087
0.128428
0.12834758
0.12827651
0.12821171
0.12815324
0.12810112
0.12805749
0.12802357
0.12799598
0.12797696
0.12797174
0.12797691
0.12798803
0.12800208
0.12806194
0.12807566
0.12830102
0.11136261
0.088781247
0.070270183
0.055204308
0.043004554
0.033270352
0.025446095
0.019276838
0.014195683
0.010459799
0.007226104
0.0048578897
0.0030306561
0.0017934693
0.00063818755
0.13249696
0.13196081
0.13149502
0.13110468
0.1307687
0.13046731
0.13019195
0.12994358
0.12971877
0.12951415
0.12932995
0.12916365
0.12901284
0.12887531
0.12875227
0.12863923
0.12853491
0.12844075
0.12835944
0.12828794
0.12822268
0.12816391
0.12811137
0.12806738
0.12803389
0.12800643
0.12798756
0.12798298
0.12798902
0.12800143
0.12801689
0.12807745
0.12809322
0.1283202
0.10928178
0.087009764
0.068892136
0.05414982
0.042171643
0.032578577
0.024908618
0.018739914
0.013931823
0.010049523
0.0070866178
0.0046810825
0.0028831526
0.0017398144
0.00063579061
0.1325009
0.13196581
0.13149984
0.13110965
0.130774
0.13047343
0.13019908
0.12994801
0.12972385
0.12952132
0.1293368
0.12916967
0.12901827
0.1288802
0.12875652
0.12864313
0.12853882
0.12844455
0.1283631
0.1282915
0.1282262
0.12816782
0.12811547
0.12739518
0.12743607
0.12748193
0.12753639
0.1276023
0.12767928
0.12776892
0.1278763
0.12801035
0.12817718
0.12838483
0.12865752
0.12901468
0.1295276
0.13031242
0.127269
0.12723713
0.12722116
0.12720405
0.12720078
0.12721482
0.12723243
0.1272666
0.12728835
0.12731183
0.12733517
0.12736272
0.12739514
0.12743219
0.12747502
0.12752374
0.1275822
0.12765073
0.12773113
0.12782494
0.1279378
0.12807725
0.12824932
0.12846388
0.12874416
0.12911195
0.12963739
0.13044304
0.045709017
0.061352527
0.059375037
0.057299792
0.11467292
0.12198588
0.12777509
0.12757897
0.12744276
0.12735795
0.12729023
0.12726203
0.12724147
0.12722956
0.12723511
0.12724513
0.12726599
0.12729248
0.12731757
0.1273405
0.12736323
0.1273946
0.1274315
0.12747259
0.12751431
0.12756711
0.1276295
0.12770131
0.1277854
0.12788318
0.12800108
0.12814637
0.12832613
0.12854699
0.12883535
0.1292142
0.129755
0.13057976
0.010735878
0.0064664809
0.014785335
0.0087813115
0.014357761
0.025444282
0.021512923
0.01912797
0.048136267
0.03271523
0.043209249
0.065302905
0.068428958
0.082084888
0.10038206
0.11852262
0.12758348
0.12745833
0.12735529
0.12728957
0.12726495
0.127246
0.12723879
0.12725457
0.12727097
0.12729705
0.12732717
0.12734529
0.12737314
0.12739528
0.12743281
0.12747035
0.12751167
0.12755773
0.12761356
0.12767751
0.12775346
0.12784203
0.1279448
0.12806707
0.12821814
0.12840594
0.12863379
0.12893067
0.12932126
0.12987796
0.13072288
0.00049803894
0.0093618216
0.010674013
0.012831658
0.012701398
0.0093200635
0.014473036
0.013341172
0.028037105
0.024758005
0.024226244
0.041996335
0.048530086
0.048786284
0.059485157
0.084143307
0.10675048
0.12775616
0.12757869
0.12745722
0.12736254
0.12731103
0.1272925
0.12727042
0.12726841
0.12728129
0.12729409
0.1273206
0.12735491
0.12737584
0.12740421
0.12743236
0.12747141
0.12750838
0.12755052
0.12760256
0.12766143
0.12772898
0.12780849
0.12790042
0.12800886
0.12813759
0.12829452
0.12848761
0.12872505
0.12903145
0.1294342
0.13000807
0.13087067
0.00048854145
0.013078869
0.0075110092
0.010769101
0.0095593877
0.0057682062
0.015143488
0.023888372
0.013603332
0.037189648
0.035415038
0.036802719
0.04985531
0.066311601
0.086591414
0.09807435
0.11022159
0.12774694
0.12757223
0.12745814
0.12737268
0.12733369
0.12731758
0.12730038
0.12730065
0.12731556
0.12732785
0.12735156
0.12738013
0.12740531
0.12743558
0.12746547
0.12750646
0.1275469
0.1275934
0.12764763
0.12771007
0.12778268
0.12786577
0.12796074
0.12807432
0.12820961
0.12837451
0.12857428
0.12882055
0.1291378
0.12955302
0.13014854
0.13102773
0.0004985768
0.008129333
0.0096816848
0.0043825039
0.0046622565
0.0036116173
0.0082454652
0.011878074
0.02303669
0.019545501
0.024868591
0.039610648
0.0495298
0.057550735
0.07063935
0.090258874
0.110469
0.12773859
0.12756828
0.12746443
0.12738582
0.12734903
0.12733241
0.12732154
0.1273258
0.12734265
0.12736028
0.12738702
0.12741347
0.12744024
0.12747145
0.12750215
0.12754157
0.12758751
0.12763987
0.12769447
0.12776007
0.1278384
0.12792497
0.1280239
0.12814189
0.12828502
0.12845711
0.12866494
0.12892056
0.12924964
0.12967816
0.13029637
0.13120244
0.00048196183
0.0057346895
0.0069496504
0.0056217936
0.0082027057
0.0081033854
0.0047278152
0.018970205
0.014676635
0.022742645
0.032857593
0.047023923
0.050149182
0.060775067
0.074243943
0.089819788
0.1101133
0.12773039
0.12756233
0.12747635
0.12740573
0.12737319
0.12735524
0.12734849
0.12735612
0.12737086
0.1273887
0.12741838
0.12744671
0.12747663
0.12750708
0.12754361
0.12758314
0.12762872
0.12768583
0.12774466
0.12781419
0.12789502
0.12798635
0.12809113
0.1282156
0.12836441
0.12854439
0.12876057
0.12902619
0.12936636
0.12980927
0.13044198
0.13138628
0.00046499082
0.0056704632
0.0053804979
0.003523172
0.0078005469
0.00525471
0.019729813
0.020417153
0.029103054
0.027386454
0.03944154
0.035195732
0.050252326
0.066559846
0.081041267
0.096781536
0.11693924
0.12772239
0.12756386
0.12748526
0.12742252
0.12739761
0.12737994
0.12738005
0.12738998
0.12740274
0.12742325
0.12744942
0.12747737
0.12751111
0.12754148
0.12758466
0.12762741
0.12767418
0.12772955
0.12779629
0.12787141
0.12795402
0.12805096
0.12816073
0.12829161
0.12844782
0.12863481
0.12885993
0.12913733
0.12948999
0.12994689
0.13060316
0.13157339
0.00047472018
0.004603921
0.0039843672
0.0057075679
0.0046756508
0.012592923
0.015863001
0.016745914
0.020679537
0.02763743
0.026020444
0.045802143
0.054730756
0.061663895
0.07793377
0.095398582
0.11927499
0.12771016
0.12756804
0.1275006
0.12744328
0.12741756
0.1274028
0.12740761
0.12742037
0.12743362
0.12745805
0.12748509
0.12751262
0.12754635
0.12757758
0.1276242
0.12766747
0.12772175
0.12778061
0.12784702
0.12793006
0.12801601
0.12811723
0.12823276
0.12837031
0.12853425
0.12872887
0.128963
0.12925239
0.12961888
0.13009125
0.13077095
0.13177745
)
;

boundaryField
{
    Side
    {
        type            empty;
    }
    Inlet
    {
        type            calculated;
        value           nonuniform List<scalar> 
30
(
0.13261583
0.13261049
0.13260536
0.13260063
0.1325993
0.13260249
0.13260889
0.13261198
0.13261056
0.13260803
0.13260647
0.13260805
0.13261186
0.13261801
0.13262649
0.13263706
0.13264773
0.13265679
0.13266287
0.13266502
0.13278534
0.13277993
0.13277677
0.13277138
0.13276745
0.13277925
0.13278372
0.13274079
0.13269172
0.13263247
)
;
    }
    Airfoil
    {
        type            compressible::alphatWallFunction;
        value           nonuniform List<scalar> 
25
(
0.00066404496
0.00065439305
0.00065115724
0.00064894819
0.00064972966
0.00065198342
0.00065580698
0.00066063072
0.00066628499
0.0006725114
0.00067917601
0.00068610863
0.00069306676
0.00069979082
0.00070602392
0.00071166623
0.0007164756
0.00072014649
0.00072247945
0.0006906431
0.00068436019
0.00067814658
0.0006716831
0.00066882863
0.0006688758
)
;
    }
    Outlet
    {
        type            calculated;
        value           nonuniform List<scalar> 0();
    }
    procBoundary7to0
    {
        type            processor;
        value           nonuniform List<scalar> 
50
(
0.12807126
0.1280384
0.12801145
0.12799317
0.12798937
0.12799571
0.12800859
0.12802548
0.12808794
0.12810887
0.12833475
0.10622942
0.08455701
0.067031323
0.052729806
0.041072616
0.031730147
0.024218751
0.018249086
0.013504304
0.0097863028
0.0067991139
0.0045019897
0.0027367312
0.0015998006
0.00061027981
0.13249744
0.13196145
0.13149546
0.13110429
0.13076792
0.13046605
0.13019371
0.1299453
0.12971939
0.12951656
0.12933184
0.12916511
0.12901418
0.12887614
0.12875251
0.12863924
0.1285355
0.12844137
0.12836014
0.12828899
0.12822392
0.12816567
0.12807126
0.12811279
)
;
    }
    procBoundary7to8
    {
        type            processor;
        value           nonuniform List<scalar> 
53
(
0.12735958
0.12739742
0.12744364
0.12749401
0.12755547
0.12762886
0.12771494
0.12781743
0.12794637
0.12810836
0.12830936
0.12857412
0.12892222
0.12942512
0.1301884
0.12726069
0.12720066
0.12718634
0.12716355
0.12717337
0.12719208
0.12721112
0.1272368
0.12725219
0.12728439
0.12730399
0.12733213
0.12736224
0.12736224
0.034028145
0.036791131
0.037384835
0.068909087
0.067342634
0.09788355
0.12060416
0.12760391
0.12746206
0.12734873
0.12734873
0.0086748673
0.012205778
0.020378946
0.015373143
0.020865308
0.013880937
0.019125209
0.04661994
0.025312241
0.025312241
0.00052362823
0.0099312963
0.0099312963
)
;
    }
}


// ************************************************************************* //
