/*--------------------------------*- C++ -*----------------------------------*\
| =========                 |                                                 |
| \\      /  F ield         | OpenFOAM: The Open Source CFD Toolbox           |
|  \\    /   O peration     | Version:  2506                                  |
|   \\  /    A nd           | Website:  www.openfoam.com                      |
|    \\/     M anipulation  |                                                 |
\*---------------------------------------------------------------------------*/
FoamFile
{
    version     2.0;
    format      ascii;
    arch        "LSB;label=32;scalar=64";
    class       volScalarField;
    location    "0.0155";
    object      p;
}
// * * * * * * * * * * * * * * * * * * * * * * * * * * * * * * * * * * * * * //

dimensions      [1 -1 -2 0 0 0 0];

internalField   nonuniform List<scalar> 
13761
(
46870.558
47153.352
46991.399
47086.33
47046.75
47039.06
47018.027
47001.461
46989.598
46985.52
46997.816
47042.978
47145.298
47280.612
47267.009
47005.692
46710.052
46626.919
46772.293
46981.157
46927.817
46870.508
46880.36
46897.243
46897.767
46899.908
46902.467
46904.226
46901.502
46897.599
46894.177
46892.34
46893.989
46892.507
46883.855
46890.166
46892.595
46883.707
46875.874
46872.949
46872.361
46872.869
46873.153
46872.575
46870.561
47153.293
46991.33
47086.349
47046.853
47039.117
47018.088
47001.518
46989.638
46985.488
46997.65
47042.542
47144.624
47280.469
47269.142
47008.558
46712.001
46626.794
46769.908
46979.374
46928.609
46870.98
46880.22
46897.059
46897.968
46900.117
46902.597
46904.452
46901.857
46898.017
46894.675
46892.951
46894.693
46893.167
46884.679
46891.134
46893.209
46884.429
46876.949
46874.325
46873.979
46874.693
46875.158
46874.79
46870.49
47153.217
46991.27
47086.343
47046.957
47039.163
47018.146
47001.573
46989.674
46985.455
46997.485
47042.112
47143.962
47280.316
47271.339
47011.473
46713.988
46626.203
46767.462
46977.542
46929.423
46871.466
46880.086
46896.872
46898.155
46900.316
46902.721
46904.669
46902.205
46898.429
46895.174
46893.563
46895.399
46893.83
46885.518
46892.106
46893.843
46885.18
46878.063
46875.739
46875.636
46876.551
46877.194
46877.04
46875.932
46870.33
47153.145
46991.295
47086.283
47047.061
47039.205
47018.205
47001.627
46989.709
46985.421
46997.32
47041.683
47143.301
47280.147
47273.598
47014.457
46715.966
46625.497
46765.009
46975.656
46930.255
46871.974
46879.959
46896.683
46898.334
46900.511
46902.84
46904.884
46902.554
46898.85
46895.68
46894.175
46896.113
46894.5
46886.374
46893.075
46894.488
46885.957
46879.212
46877.188
46877.325
46878.441
46879.257
46879.322
46878.45
46870.169
47153.215
46991.641
47086.201
47047.165
47039.252
47018.269
47001.68
46989.744
46985.386
46997.152
47041.248
47142.632
47279.984
47275.916
47017.522
46717.952
46625.336
46762.572
46973.709
46931.1
46872.508
46879.841
46896.496
46898.502
46900.701
46902.957
46905.096
46902.904
46899.283
46896.192
46894.787
46896.832
46895.177
46887.244
46894.037
46895.139
46886.753
46880.39
46878.668
46879.047
46880.358
46881.347
46881.632
46880.992
46870.118
47153.542
46991.907
47086.141
47047.268
47039.308
47018.339
47001.734
46989.779
46985.35
46996.981
47040.806
47141.949
47279.818
47278.295
47020.679
46720.041
46625.475
46760.062
46971.7
46931.947
46873.075
46879.729
46896.296
46898.661
46900.885
46903.074
46905.303
46903.256
46899.728
46896.711
46895.395
46897.552
46895.857
46888.124
46894.989
46895.796
46887.568
46881.597
46880.18
46880.798
46882.302
46883.463
46883.967
46883.557
46870.088
47153.703
46991.937
47086.106
47047.373
47039.363
47018.415
47001.787
46989.814
46985.314
46996.808
47040.355
47141.247
47279.641
47280.732
47023.935
46722.223
46625.307
46757.476
46969.619
46932.796
46873.677
46879.623
46896.084
46898.815
46901.063
46903.188
46905.499
46903.611
46900.182
46897.234
46895.996
46898.27
46896.534
46889.01
46895.932
46896.457
46888.401
46882.833
46881.721
46882.579
46884.27
46885.602
46886.327
46886.146
46869.926
47153.717
46991.794
47086.08
47047.48
47039.412
47018.496
47001.842
46989.851
46985.277
46996.63
47039.892
47140.524
47279.448
47283.224
47027.29
46724.48
46625.031
46754.834
46967.451
46933.668
46874.316
46879.522
46895.881
46898.961
46901.234
46903.296
46905.68
46903.965
46900.644
46897.755
46896.594
46898.984
46897.207
46889.901
46896.868
46897.122
46889.254
46884.095
46883.291
46884.385
46886.26
46887.764
46888.709
46888.755
46887.124
46869.712
47153.662
46991.722
47086.038
47047.589
47039.46
47018.579
47001.896
46989.888
46985.24
46996.449
47039.418
47139.777
47279.237
47285.774
47030.751
46726.823
46624.895
46752.151
46965.183
46934.592
46874.994
46879.419
46895.664
46899.094
46901.391
46903.396
46905.848
46904.313
46901.107
46898.272
46897.188
46899.689
46897.874
46890.799
46897.802
46897.792
46890.124
46885.384
46884.888
46886.216
46888.273
46889.949
46891.114
46891.385
46890.024
46869.503
47153.608
46991.732
47085.955
47047.701
47039.509
47018.661
47001.951
46989.925
46985.203
46996.263
47038.931
47139.006
47279.007
47288.379
47034.323
46729.268
46624.83
46749.422
46962.806
46935.581
46875.692
46879.31
46895.432
46899.216
46901.528
46903.487
46906.008
46904.656
46901.568
46898.788
46897.779
46900.387
46898.537
46891.705
46898.735
46898.466
46891.012
46886.698
46886.511
46888.074
46890.309
46892.159
46893.539
46894.035
46892.945
46869.329
47153.641
46991.824
47085.826
47047.814
47039.561
47018.737
47002.007
46989.964
46985.165
46996.073
47038.432
47138.208
47278.756
47291.037
47038.007
46731.816
46624.719
46746.638
46960.317
46936.631
46876.394
46879.188
46895.231
46899.329
46901.645
46903.575
46906.159
46904.985
46902.027
46899.304
46898.371
46901.083
46899.199
46892.625
46899.671
46899.146
46891.921
46888.041
46888.165
46889.958
46892.367
46894.392
46895.985
46896.706
46895.888
46869.118
47153.731
46992.066
47085.709
47047.929
47039.615
47018.809
47002.065
46990.004
46985.126
46995.879
47037.919
47137.381
47278.48
47293.75
47041.805
46734.467
46624.609
46743.804
46957.705
46937.718
46877.096
46879.049
46895.044
46899.433
46901.745
46903.661
46906.299
46905.298
46902.485
46899.821
46898.969
46901.779
46899.862
46893.56
46900.61
46899.831
46892.848
46889.412
46889.849
46891.866
46894.448
46896.648
46898.454
46899.401
46898.853
46897.465
46868.864
47153.771
46992.267
47085.648
47048.05
47039.668
47018.889
47002.125
46990.046
46985.087
46995.681
47037.392
47136.525
47278.178
47296.513
47045.725
46737.23
46624.536
46740.923
46954.962
46938.827
46877.796
46878.896
46894.843
46899.531
46901.83
46903.743
46906.425
46905.599
46902.942
46900.344
46899.574
46902.476
46900.529
46894.512
46901.55
46900.516
46893.795
46890.809
46891.562
46893.802
46896.552
46898.927
46900.946
46902.117
46901.841
46900.757
46868.633
47153.746
46992.234
47085.618
47048.178
47039.722
47018.976
47002.189
46990.089
46985.048
46995.478
47036.851
47135.638
47277.843
47299.327
47049.767
46740.11
46624.492
46737.993
46952.076
46939.958
46878.496
46878.734
46894.667
46899.623
46901.898
46903.82
46906.539
46905.891
46903.4
46900.873
46900.187
46903.178
46901.2
46895.483
46902.496
46901.205
46894.761
46892.234
46893.303
46895.764
46898.682
46901.231
46903.46
46904.858
46904.855
46904.074
46868.408
47153.854
46992.524
47085.579
47048.313
47039.777
47019.066
47002.257
46990.133
46985.009
46995.271
47036.296
47134.721
47277.476
47302.193
47053.934
46743.114
46624.477
46735.02
46949.045
46941.107
46879.206
46878.571
46894.514
46899.71
46901.95
46903.89
46906.646
46906.176
46903.859
46901.406
46900.809
46903.885
46901.88
46896.475
46903.447
46901.905
46895.752
46893.687
46895.076
46897.753
46900.838
46903.56
46905.998
46907.622
46907.895
46907.417
46868.175
47154.072
46992.885
47085.52
47048.453
47039.832
47019.155
47002.33
46990.179
46984.971
46995.06
47035.726
47133.771
47277.083
47305.108
47058.233
46746.246
46624.506
46732.001
46945.875
46942.26
46879.927
46878.412
46894.318
46899.794
46901.988
46903.957
46906.749
46906.454
46904.319
46901.946
46901.442
46904.6
46902.568
46897.488
46904.407
46902.618
46896.77
46895.171
46896.879
46899.767
46903.017
46905.914
46908.562
46910.413
46910.963
46910.786
46867.946
47154.179
46993.038
47085.455
47048.595
47039.889
47019.244
47002.405
46990.227
46984.932
46994.845
47035.142
47132.787
47276.658
47308.075
47062.666
46749.514
46624.579
46728.942
46942.567
46943.406
46880.653
46878.264
46894.066
46899.869
46902.014
46904.022
46906.845
46906.722
46904.78
46902.499
46902.09
46905.323
46903.264
46898.524
46905.373
46903.342
46897.815
46896.684
46898.713
46901.809
46905.221
46908.292
46911.152
46913.233
46914.059
46914.181
46913.838
46867.722
47154.321
46992.918
47085.333
47048.736
47039.946
47019.337
47002.479
46990.277
46984.893
46994.625
47034.542
47131.768
47276.193
47311.09
47067.234
46752.923
46624.697
46725.845
46939.118
46944.548
46881.393
46878.136
46893.782
46899.938
46902.032
46904.09
46906.93
46906.982
46905.247
46903.065
46902.752
46906.057
46903.971
46899.585
46906.346
46904.08
46898.887
46898.23
46900.58
46903.879
46907.453
46910.696
46913.768
46916.082
46917.183
46917.606
46917.59
46867.492
47154.604
46993.17
47085.162
47048.875
47040.004
47019.432
47002.553
46990.328
46984.855
46994.401
47033.927
47130.713
47275.688
47314.152
47071.948
46756.479
46624.872
46722.708
46935.534
46945.684
46882.148
46878.035
46893.496
46900.014
46902.045
46904.159
46907.008
46907.244
46905.721
46903.645
46903.428
46906.804
46904.692
46900.673
46907.328
46904.836
46899.988
46899.809
46902.48
46905.977
46909.716
46913.127
46916.409
46918.959
46920.34
46921.061
46921.371
46867.136
47154.773
46993.434
47085.018
47049.011
47040.062
47019.529
47002.632
46990.381
46984.817
46994.173
47033.296
47129.622
47275.14
47317.258
47076.805
46760.189
46625.101
46719.541
46931.789
46946.851
46882.916
46877.967
46893.208
46900.099
46902.059
46904.231
46907.083
46907.513
46906.205
46904.238
46904.118
46907.562
46905.428
46901.785
46908.317
46905.609
46901.121
46901.422
46904.413
46908.107
46912.008
46915.587
46919.078
46921.865
46923.528
46924.549
46925.183
46866.77
47154.738
46993.408
47084.914
47049.149
47040.121
47019.629
47002.713
46990.436
46984.779
46993.94
47032.65
47128.492
47274.546
47320.408
47081.811
46764.064
46625.388
46716.339
46927.874
46948.034
46883.689
46877.925
46892.947
46900.198
46902.075
46904.309
46907.164
46907.787
46906.696
46904.843
46904.822
46908.336
46906.178
46902.923
46909.313
46906.398
46902.288
46903.068
46906.379
46910.264
46914.326
46918.078
46921.776
46924.802
46926.748
46928.069
46929.027
46929.418
46866.411
47154.702
46993.169
47084.786
47049.289
47040.18
47019.731
47002.796
46990.493
46984.742
46993.703
47031.988
47127.323
47273.904
47323.6
47086.971
46768.105
46625.738
46713.105
46923.759
46949.247
46884.464
46877.905
46892.719
46900.317
46902.096
46904.394
46907.254
46908.066
46907.199
46905.466
46905.544
46909.125
46906.944
46904.086
46910.312
46907.21
46903.492
46904.75
46908.379
46912.449
46916.673
46920.598
46924.503
46927.77
46930
46931.621
46932.907
46933.664
46866
47154.824
46993.492
47084.58
47049.432
47040.239
47019.836
47002.882
46990.551
46984.705
46993.462
47031.309
47126.114
47273.211
47326.832
47092.286
46772.323
46626.155
46709.842
46919.449
46950.488
46885.252
46877.917
46892.486
46900.438
46902.124
46904.486
46907.357
46908.355
46907.718
46906.113
46906.285
46909.929
46907.722
46905.274
46911.318
46908.043
46904.741
46906.475
46910.414
46914.669
46919.052
46923.148
46927.257
46930.77
46933.286
46935.21
46936.824
46937.946
46865.616
47154.896
46993.775
47084.388
47049.579
47040.299
47019.944
47002.97
46990.613
46984.669
46993.217
47030.615
47124.863
47272.465
47330.099
47097.76
46776.727
46626.644
46706.56
46914.999
46951.487
46886.068
46877.968
46892.215
46900.548
46902.161
46904.583
46907.476
46908.662
46908.258
46906.78
46907.04
46910.748
46908.516
46906.487
46912.327
46908.9
46906.034
46908.243
46912.487
46916.921
46921.462
46925.73
46930.042
46933.8
46936.607
46938.837
46940.777
46942.265
46943.142
46865.254
47154.945
46993.974
47084.271
47049.73
47040.36
47020.054
47003.061
46990.676
46984.634
46992.967
47029.905
47123.57
47271.661
47333.397
47103.397
46781.324
46627.211
46703.272
46910.399
46952.333
46886.939
46878.062
46891.932
46900.636
46902.203
46904.679
46907.613
46908.99
46908.818
46907.465
46907.811
46911.582
46909.328
46907.724
46913.338
46909.78
46907.37
46910.05
46914.596
46919.204
46923.901
46928.343
46932.859
46936.861
46939.965
46942.502
46944.768
46946.624
46947.897
46864.911
47155.033
46994.428
47084.219
47049.886
47040.423
47020.167
47003.155
46990.741
46984.6
46992.714
47029.178
47122.233
47270.794
47336.722
47109.197
46786.124
46627.866
46699.99
46905.635
46953.188
46887.827
46878.204
46891.679
46900.689
46902.24
46904.773
46907.769
46909.345
46909.397
46908.169
46908.598
46912.431
46910.161
46908.989
46914.354
46910.688
46908.75
46911.9
46916.74
46921.522
46926.371
46930.988
46935.708
46939.958
46943.358
46946.205
46948.801
46951.026
46952.693
46864.461
47155.18
46994.634
47084.175
47050.047
47040.489
47020.283
47003.251
46990.808
46984.568
46992.457
47028.434
47120.85
47269.864
47340.065
47115.168
46791.14
46628.612
46696.718
46900.727
46953.919
46888.715
46878.389
46891.424
46900.714
46902.266
46904.864
46907.947
46909.727
46909.998
46908.894
46909.406
46913.297
46911.013
46910.276
46915.374
46911.632
46910.18
46913.797
46918.922
46923.874
46928.876
46933.664
46938.591
46943.092
46946.788
46949.948
46952.877
46955.472
46957.534
46863.975
47155.223
46994.695
47084.101
47050.197
47040.559
47020.403
47003.351
46990.877
46984.536
46992.196
47027.674
47119.421
47268.865
47343.422
47121.316
46796.376
46629.455
46693.464
46895.644
46954.572
46889.628
46878.614
46891.139
46900.703
46902.277
46904.952
46908.146
46910.138
46910.623
46909.645
46910.234
46914.177
46911.882
46911.584
46916.39
46912.608
46911.666
46915.743
46921.14
46926.257
46931.415
46936.374
46941.508
46946.264
46950.258
46953.734
46956.997
46959.963
46962.42
46963.974
46863.614
47155.185
46994.654
47083.908
47050.32
47040.635
47020.527
47003.453
46990.95
46984.507
46991.931
47026.897
47117.945
47267.789
47346.786
47127.65
46801.85
46630.402
46690.219
46890.372
46955.231
46890.571
46878.882
46890.85
46900.659
46902.279
46905.041
46908.365
46910.575
46911.27
46910.416
46911.082
46915.068
46912.768
46912.91
46917.407
46913.622
46913.207
46917.74
46923.394
46928.67
46933.986
46939.119
46944.464
46949.476
46953.771
46957.561
46961.16
46964.5
46967.354
46969.338
46863.328
47155.181
46995.155
47083.681
47050.381
47040.722
47020.655
47003.559
46991.024
46984.478
46991.663
47026.104
47116.421
47266.633
47350.149
47134.174
46807.569
46631.458
46686.983
46884.904
46955.833
46891.557
46879.186
46890.565
46900.58
46902.272
46905.132
46908.596
46911.037
46911.937
46911.2
46911.948
46915.968
46913.676
46914.254
46918.425
46914.673
46914.805
46919.793
46925.689
46931.12
46936.588
46941.899
46947.457
46952.731
46957.324
46961.433
46965.37
46969.084
46972.337
46974.751
46862.895
47155.453
46995.899
47083.538
47050.364
47040.822
47020.789
47003.667
46991.101
46984.452
46991.391
47025.294
47114.848
47265.396
47353.498
47140.887
46813.546
46632.626
46683.749
46879.232
46956.32
46892.605
46879.518
46890.264
46900.451
46902.248
46905.224
46908.838
46911.523
46912.627
46911.999
46912.833
46916.878
46914.612
46915.621
46919.439
46915.763
46916.458
46921.9
46928.027
46933.608
46939.227
46944.713
46950.488
46956.029
46960.919
46965.347
46969.626
46973.717
46977.371
46980.217
46981.999
46862.272
47155.805
46996.42
47083.509
47050.269
47040.944
47020.928
47003.778
46991.181
46984.428
46991.116
47024.467
47113.225
47264.07
47356.833
47147.798
46819.79
46633.936
46680.542
46873.354
46956.642
46893.738
46879.878
46889.933
46900.264
46902.213
46905.33
46909.097
46912.034
46913.338
46912.817
46913.74
46917.8
46915.578
46917.011
46920.449
46916.892
46918.168
46924.057
46930.399
46936.131
46941.903
46947.563
46953.557
46959.371
46964.558
46969.305
46973.93
46978.401
46982.457
46985.736
46987.991
46861.69
47155.908
46996.648
47083.144
47050.253
47041.077
47021.075
47003.893
46991.263
46984.406
46990.838
47023.625
47111.551
47262.655
47360.14
47154.911
46826.313
46635.369
46677.387
46867.267
46956.763
46894.967
46880.276
46889.562
46900.018
46902.182
46905.465
46909.376
46912.562
46914.066
46913.65
46914.666
46918.734
46916.568
46918.419
46921.453
46918.063
46919.947
46926.267
46932.806
46938.686
46944.611
46950.453
46956.665
46962.754
46968.243
46973.31
46978.283
46983.135
46987.595
46991.311
46994.041
46861.252
47155.849
46996.714
47082.696
47050.605
47041.19
47021.225
47004.011
46991.348
46984.386
46990.557
47022.767
47109.826
47261.144
47363.405
47162.233
46833.124
46636.949
46674.209
46860.998
46956.68
46896.282
46880.734
46889.148
46899.718
46902.162
46905.633
46909.668
46913.101
46914.806
46914.494
46915.611
46919.678
46917.58
46919.836
46922.451
46919.276
46921.786
46928.541
46935.257
46941.276
46947.349
46953.382
46959.816
46966.18
46971.974
46977.364
46982.684
46987.919
46992.788
46996.942
47000.15
46860.73
47155.908
46997.443
47082.397
47051.055
47041.28
47021.375
47004.132
46991.437
46984.369
46990.273
47021.893
47108.05
47259.535
47366.622
47169.757
46840.236
46638.682
46671.065
46854.534
46956.408
46897.676
46881.27
46888.677
46899.362
46902.166
46905.83
46909.973
46913.648
46915.562
46915.347
46916.571
46920.632
46918.619
46921.262
46923.438
46920.528
46923.687
46930.871
46937.747
46943.906
46950.123
46956.345
46963.009
46969.652
46975.75
46981.464
46987.133
46992.755
46998.037
47002.632
47006.321
47009.058
46860.051
47156.213
46998.138
47082.231
47051.437
47041.315
47021.523
47004.256
46991.528
46984.354
46989.988
47021.004
47106.222
47257.82
47369.785
47177.494
46847.655
46640.542
46668.066
46847.905
46955.917
46899.134
46881.885
46888.135
46898.957
46902.203
46906.06
46910.301
46914.207
46916.336
46916.215
46917.544
46921.599
46919.688
46922.704
46924.413
46921.824
46925.658
46933.256
46940.274
46946.571
46952.932
46959.346
46966.243
46973.168
46979.573
46985.613
46991.637
46997.647
47003.342
47008.381
47012.555
47015.803
46859.382
47156.481
46998.448
47082.078
47051.69
47041.308
47021.664
47004.385
46991.622
46984.343
46989.7
47020.101
47104.342
47255.997
47372.878
47185.439
46855.39
46642.614
46665.479
46841.159
46955.196
46900.638
46882.588
46887.521
46898.514
46902.284
46906.33
46910.657
46914.777
46917.125
46917.101
46918.528
46922.581
46920.792
46924.163
46925.388
46923.161
46927.695
46935.698
46942.842
46949.268
46955.778
46962.387
46969.521
46976.733
46983.446
46989.815
46996.193
47002.593
47008.705
47014.193
47018.853
47022.615
46858.78
47156.525
46998.566
47081.791
47051.838
47041.254
47021.801
47004.517
46991.72
46984.335
46989.41
47019.183
47102.41
47254.059
47375.885
47193.6
46863.451
46644.948
46663.27
46834.399
46954.218
46902.179
46883.379
46886.837
46898.065
46902.42
46906.65
46911.038
46915.352
46917.92
46917.998
46919.522
46923.574
46921.928
46925.635
46926.355
46924.55
46929.796
46938.187
46945.447
46952.001
46958.658
46965.467
46972.845
46980.345
46987.372
46994.071
47000.804
47007.595
47014.127
47020.067
47025.218
47029.495
47032.679
46858.115
47156.568
46998.578
47081.521
47051.94
47041.265
47021.939
47004.654
46991.821
46984.33
46989.119
47018.251
47100.426
47252.002
47378.795
47201.971
46871.848
46647.548
46661.044
46827.598
46952.932
46903.737
46884.262
46886.093
46897.628
46902.621
46907.033
46911.442
46915.933
46918.726
46918.906
46920.523
46924.576
46923.092
46927.111
46927.311
46925.989
46931.971
46940.729
46948.084
46954.767
46961.573
46968.586
46976.216
46984.009
46991.351
46998.382
47005.471
47012.656
47019.611
47026.005
47031.65
47036.446
47040.174
46857.363
47156.807
46999.365
47081.328
47051.995
47041.404
47022.092
47004.794
46991.926
46984.329
46988.827
47017.307
47098.39
47249.822
47381.598
47210.565
46880.597
46650.42
46658.716
46820.617
46951.303
46905.312
46885.249
46885.306
46897.217
46902.893
46907.491
46911.879
46916.53
46919.552
46919.83
46921.53
46925.584
46924.287
46928.588
46928.259
46927.473
46934.22
46943.328
46950.755
46957.56
46964.525
46971.744
46979.633
46987.725
46995.381
47002.748
47010.197
47017.778
47025.159
47032.011
47038.15
47043.468
47047.744
46856.576
47156.973
47000.015
47081.265
47051.999
47041.556
47022.262
47004.939
46992.034
46984.331
46988.534
47016.35
47096.303
47247.515
47384.266
47219.376
46889.701
46653.569
46656.488
46813.436
46949.275
46906.919
46886.35
46884.517
46896.832
46903.233
46908.027
46912.354
46917.145
46920.397
46920.779
46922.54
46926.596
46925.522
46930.066
46929.203
46929.006
46936.533
46945.976
46953.466
46960.381
46967.509
46974.944
46983.095
46991.495
46999.467
47007.173
47014.984
47022.963
47030.771
47038.085
47044.722
47050.565
47055.392
47058.92
46855.756
47157.071
47000.176
47080.973
47051.923
47041.686
47022.442
47005.089
46992.147
46984.338
46988.241
47015.381
47094.165
47245.078
47386.774
47228.419
46899.179
46657.015
46654.455
46806.103
46946.791
46908.533
46887.556
46883.767
46896.442
46903.62
46908.626
46912.867
46917.774
46921.252
46921.749
46923.55
46927.607
46926.794
46931.552
46930.162
46930.601
46938.922
46948.662
46956.205
46963.236
46970.525
46978.187
46986.602
46995.314
47003.611
47011.655
47019.833
47028.211
47036.45
47044.229
47051.367
47057.738
47063.121
47067.246
46854.969
47157.212
47000.518
47080.465
47052.176
47041.85
47022.627
47005.245
46992.264
46984.35
46987.947
47014.402
47091.977
47242.507
47389.093
47237.689
46909.025
46660.798
46652.601
46798.658
46943.801
46910.149
46888.879
46883.073
46896.001
46904.024
46909.27
46913.42
46918.413
46922.112
46922.74
46924.567
46928.616
46928.098
46933.033
46931.139
46932.248
46941.39
46951.384
46958.97
46966.121
46973.577
46981.47
46990.158
46999.184
47007.81
47016.195
47024.742
47033.523
47042.196
47050.445
47058.086
47064.988
47070.931
47075.657
47079.006
46854.186
47157.459
47001.185
47080.074
47052.639
47041.964
47022.809
47005.405
46992.385
46984.367
46987.654
47013.414
47089.74
47239.797
47391.193
47247.214
46919.262
46664.922
46651.002
46791.108
46940.237
46911.763
46890.352
46882.441
46895.475
46904.416
46909.931
46914.002
46919.063
46922.977
46923.76
46925.602
46929.632
46929.436
46934.497
46932.129
46933.965
46943.933
46954.149
46961.757
46969.027
46976.667
46984.794
46993.761
47003.106
47012.062
47020.794
47029.712
47038.901
47048.012
47056.733
47064.881
47072.319
47078.826
47084.157
47088.151
46853.223
47157.703
47001.835
47079.787
47052.996
47041.969
47022.976
47005.567
46992.51
46984.388
46987.362
47012.417
47087.455
47236.945
47393.032
47257.008
46929.88
46669.373
46649.73
46783.475
46936.017
46913.421
46892.018
46881.887
46894.874
46904.773
46910.568
46914.587
46919.715
46923.839
46924.814
46926.657
46930.657
46930.814
46935.948
46933.139
46935.734
46946.554
46956.94
46964.574
46971.953
46979.787
46988.165
46997.408
47007.077
47016.369
47025.452
47034.747
47044.344
47053.897
47063.095
47071.752
47079.73
47086.806
47092.746
47097.389
46852.255
47157.882
47002.263
47079.448
47053.169
47041.858
47023.121
47005.728
46992.637
46984.414
46987.07
47011.412
47085.124
47233.947
47394.564
47267.106
46940.905
46674.12
46648.683
46775.848
46931.171
46915.123
46893.947
46881.42
46894.257
46905.103
46911.155
46915.156
46920.361
46924.684
46925.893
46927.723
46931.687
46932.229
46937.385
46934.185
46937.568
46949.231
46959.764
46967.415
46974.903
46982.933
46991.579
47001.106
47011.1
47020.739
47030.172
47039.846
47049.855
47059.852
47069.532
47078.703
47087.224
47094.875
47101.429
47106.724
47110.495
46851.337
47157.978
47002.578
47079.055
47053.266
47041.835
47023.275
47005.891
46992.766
46984.444
46986.78
47010.402
47082.75
47230.802
47395.743
47277.516
46952.315
46679.198
46647.629
46768.322
46925.643
46916.864
46896.11
46881.052
46893.639
46905.424
46911.687
46915.694
46920.995
46925.503
46926.978
46928.804
46932.721
46933.672
46938.802
46935.282
46939.487
46951.954
46962.618
46970.264
46977.877
46986.113
46995.029
47004.856
47015.177
47025.166
47034.954
47045.007
47055.431
47065.878
47076.045
47085.733
47094.802
47103.032
47110.205
47116.155
47120.617
46850.3
47158.182
47003.15
47078.661
47053.385
47041.953
47023.454
47006.059
46992.897
46984.48
46986.491
47009.387
47080.333
47227.507
47396.532
47288.255
46964.139
46684.724
46646.494
46760.841
46919.322
46918.864
46898.311
46880.785
46892.968
46905.724
46912.15
46916.169
46921.598
46926.288
46928.066
46929.906
46933.775
46935.149
46940.186
46936.439
46941.508
46954.74
46965.476
46973.135
46980.863
46989.327
46998.521
47008.655
47019.31
47029.651
47039.799
47050.234
47061.075
47071.976
47082.633
47092.843
47102.464
47111.28
47119.077
47125.688
47130.844
46849.232
47158.465
47003.971
47078.259
47053.522
47042.058
47023.638
47006.23
46993.032
46984.521
46986.204
47008.369
47077.877
47224.059
47396.92
47299.305
46976.356
46690.806
46645.439
46753.24
46912.259
46921.197
46900.423
46880.602
46892.33
46905.999
46912.564
46916.568
46922.143
46927.019
46929.154
46931.028
46934.861
46936.673
46941.54
46937.66
46943.645
46957.586
46968.358
46976.012
46983.868
46992.568
47002.056
47012.495
47023.497
47034.196
47044.71
47055.531
47066.79
47078.147
47089.298
47100.035
47110.213
47119.619
47128.046
47135.322
47141.176
47145.348
46848.11
47158.696
47004.552
47077.846
47053.654
47042.136
47023.817
47006.405
46993.172
46984.568
46985.92
47007.349
47075.383
47220.457
47396.891
47310.641
46988.993
46697.439
46644.899
46745.55
46904.555
46923.562
46902.595
46880.501
46891.667
46906.161
46912.962
46916.909
46922.626
46927.683
46930.232
46932.156
46935.964
46938.245
46942.875
46938.961
46945.901
46960.489
46971.268
46978.892
46986.895
46995.835
47005.629
47016.388
47027.739
47038.808
47049.69
47060.898
47072.576
47084.391
47096.041
47107.309
47118.047
47128.05
47137.112
47145.058
47151.617
47156.534
46846.861
47158.847
47005.048
47077.391
47053.777
47042.199
47023.991
47006.588
46993.315
46984.622
46985.638
47006.329
47072.854
47216.7
47396.441
47322.226
47002.021
46704.567
46644.858
46737.899
46896.228
46925.694
46904.911
46880.455
46890.832
46906.195
46913.346
46917.221
46923.046
46928.282
46931.288
46933.286
46937.077
46939.841
46944.194
46940.372
46948.294
46963.449
46974.191
46981.796
46989.923
46999.137
47009.239
47020.337
47032.038
47043.48
47054.734
47066.331
47078.432
47090.71
47102.862
47114.666
47125.97
47136.573
47146.276
47154.898
47162.168
47167.835
47171.642
46845.569
47158.897
47005.547
47076.908
47053.886
47042.255
47024.174
47006.773
46993.464
46984.682
46985.362
47005.31
47070.294
47212.788
47395.583
47334.029
47015.452
46712.249
46645.073
46730.37
46887.425
46927.442
46907.376
46880.447
46889.877
46906.09
46913.705
46917.519
46923.401
46928.816
46932.317
46934.431
46938.209
46941.459
46945.48
46941.899
46950.848
46966.478
46977.134
46984.701
46992.972
47002.469
47012.889
47024.33
47036.392
47048.209
47059.843
47071.833
47084.361
47097.104
47109.761
47122.105
47133.98
47145.19
47155.54
47164.844
47172.83
47179.254
47183.859
46844.263
47158.945
47006.117
47076.411
47053.98
47042.308
47024.369
47006.962
46993.616
46984.749
46985.091
47004.294
47067.705
47208.721
47394.316
47346.004
47029.257
46720.471
46645.618
46722.997
46878.227
46928.7
46909.956
46880.553
46888.785
46905.737
46914.016
46917.823
46923.691
46929.272
46933.31
46935.59
46939.375
46943.115
46946.722
46943.539
46953.565
46969.578
46980.093
46987.604
46996.046
47005.82
47016.58
47028.374
47040.805
47052.999
47065.019
47077.408
47090.361
47103.572
47116.738
47129.626
47142.078
47153.899
47164.903
47174.895
47183.605
47190.791
47196.2
46842.916
47159.163
47007.082
47075.912
47054.062
47042.363
47024.56
47007.156
46993.774
46984.823
46984.826
47003.282
47065.091
47204.501
47392.647
47358.111
47043.443
46729.275
46646.445
46716.142
46868.636
46929.38
46912.638
46880.887
46887.576
46905.145
46914.256
46918.152
46923.94
46929.66
46934.252
46936.761
46940.564
46944.809
46947.946
46945.294
46956.428
46972.762
46983.067
46990.516
46999.118
47009.211
47020.308
47032.473
47045.278
47057.858
47070.261
47083.053
47096.435
47110.118
47123.795
47137.232
47150.264
47162.703
47174.365
47185.051
47194.492
47202.448
47208.667
47212.926
46841.499
47159.413
47008.152
47075.416
47054.141
47042.416
47024.746
47007.354
46993.938
46984.905
46984.568
47002.276
47062.456
47200.13
47390.579
47370.301
47057.983
46738.652
46647.561
46710.103
46858.814
46929.443
46915.306
46881.581
46886.409
46904.391
46914.416
46918.523
46924.175
46930.025
46935.149
46937.961
46941.769
46946.514
46949.157
46947.182
46959.443
46976.01
46986.058
46993.435
47002.215
47012.627
47024.075
47036.627
47049.809
47062.776
47075.566
47088.762
47102.58
47116.739
47130.93
47144.92
47158.538
47171.6
47183.927
47195.315
47205.494
47214.225
47221.262
47226.38
46839.991
47159.698
47009.004
47074.851
47054.206
47042.464
47024.936
47007.561
46994.109
46984.993
46984.319
47001.278
47059.802
47195.614
47388.099
47382.527
47072.878
46748.658
46648.849
46704.476
46848.936
46928.658
46918.001
46882.702
46885.342
46903.511
46914.527
46918.933
46924.413
46930.383
46936.012
46939.204
46943.02
46948.215
46950.338
46949.21
46962.623
46979.32
46989.048
46996.349
47005.329
47016.06
47027.894
47040.827
47054.404
47067.756
47080.939
47094.542
47108.796
47123.435
47138.145
47152.693
47166.901
47180.591
47193.589
47205.684
47216.608
47226.125
47233.985
47239.969
47243.844
46838.5
47159.929
47009.744
47074.198
47054.238
47042.503
47025.128
47007.776
46994.286
46985.088
46984.079
47000.289
47057.135
47190.954
47385.223
47394.685
47088.143
46759.284
46650.262
46699.205
46838.822
46927.008
46920.85
46884.344
46884.375
46902.601
46914.632
46919.384
46924.676
46930.743
46936.843
46940.489
46944.338
46949.942
46951.492
46951.342
46965.969
46982.686
46992.033
46999.282
47008.454
47019.531
47031.751
47045.082
47059.062
47072.809
47086.383
47100.393
47115.086
47130.207
47145.44
47160.548
47175.353
47189.677
47203.351
47216.159
47227.836
47238.146
47246.838
47253.696
47258.482
46837.057
47160.082
47010.292