/*--------------------------------*- C++ -*----------------------------------*\
| =========                 |                                                 |
| \\      /  F ield         | OpenFOAM: The Open Source CFD Toolbox           |
|  \\    /   O peration     | Version:  2506                                  |
|   \\  /    A nd           | Website:  www.openfoam.com                      |
|    \\/     M anipulation  |                                                 |
\*---------------------------------------------------------------------------*/
FoamFile
{
    version     2.0;
    format      ascii;
    arch        "LSB;label=32;scalar=64";
    class       volScalarField;
    location    "0.028";
    object      p;
}
// * * * * * * * * * * * * * * * * * * * * * * * * * * * * * * * * * * * * * //

dimensions      [1 -1 -2 0 0 0 0];

internalField   nonuniform List<scalar> 
192657
(
46949.523
47149.711
46954.654
47049.213
46829.091
46724.609
46518.73
46659.868
46962.153
47380.575
47214.871
46768.707
46761.117
47004.412
46814.042
46688.766
46812.784
46707.611
46663.146
46689.563
46594.201
46568.383
46523.62
46496.755
46461.447
46428.981
46362.016
46341.521
46290.491
46217.518
46147.889
46051.992
45994.903
45930.316
45870.454
45789.009
45707.52
45618.926
45501.303
45358.426
45227.101
45101.832
44974.416
44849.481
44718.394
44588.873
44454.503
44301.756
44126.731
43938.581
43748.796
43554.862
43358.433
43159.048
42957.94
42757.662
42556.019
42355.953
42156.579
41959.026
41765.448
41575.805
41390.485
41210.288
41036.763
40869.841
40710.512
40558.945
40415.261
40279.623
40152.05
40032.378
39920.286
39815.588
39717.886
39626.817
39542.085
39463.296
39390.04
39321.951
39258.559
39199.619
39144.711
39093.443
39045.585
39000.787
38958.811
38919.409
38882.343
38847.375
38814.326
38782.997
38753.22
38724.858
38697.821
38671.998
38647.305
38623.697
38601.196
38579.883
38559.804
38541.071
38526.795
38516.958
38506.812
38493.748
38481.977
38474.149
38470.182
38469.269
38470.57
38472.914
38475.454
38478.041
38480.628
38483.161
38485.592
38487.892
38490.044
38492.042
38493.884
38495.577
38497.128
38498.545
38499.838
38501.018
38502.093
38503.073
38503.967
38504.783
38505.529
38506.211
38506.834
38507.411
38507.958
38508.456
38508.736
38508.597
38508.106
38507.552
38507.094
38506.732
38506.451
38506.247
38506.114
38506.044
38506.026
38506.043
38506.087
46949.689
47149.767
46954.877
47050.373
46830.306
46726.177
46519.35
46657.861
46958.785
47378.875
47218.158
46771.102
46759.435
47003.917
46816.576
46688.361
46812.57
46708.602
46662.952
46690.271
46594.983
46568.724
46523.957
46496.874
46461.805
46429.38
46362.384
46342.057
46291.2
46218.634
46149.525
46053.753
45996.739
45931.864
45871.692
45790.215
45709.259
45621.486
45504.45
45362.122
45230.948
45106.035
44978.74
44853.925
44722.666
44592.923
44458.695
44306.568
44131.835
43943.451
43753.152
43558.842
43362.082
43162.348
42960.695
42759.718
42557.189
42356.045
42155.391
41956.195
41761.197
41569.905
41382.745
41200.682
41025.179
40856.25
40694.907
40541.339
40395.672
40258.078
40128.611
40007.115
39893.279
39786.926
39687.665
39595.14
39509.041
39428.988
39354.574
39285.448
39221.152
39161.445
39105.914
39054.118
39005.952
38961.01
38919.054
38879.826
38843.102
38808.671
38776.341
38745.959
38717.375
38690.477
38665.131
38641.235
38618.715
38597.511
38577.548
38558.708
38540.978
38524.597
38509.238
38494.686
38481.356
38470.246
38460.661
38451.822
38443.549
38435.977
38429.205
38423.218
38418.022
38413.61
38409.946
38406.988
38404.698
38403.019
38401.843
38400.982
38400.299
38399.759
38399.346
38399.045
38398.836
38398.705
38398.639
38398.625
38398.653
38398.714
38398.8
38398.904
38399.019
38399.141
38399.266
38399.389
38399.509
38399.623
38399.731
38399.832
38399.924
38400.009
38400.084
38400.145
38400.189
38400.217
38400.235
38400.249
38400.258
46949.924
47150.201
46955.149
47051.667
46831.564
46727.77
46519.981
46655.823
46955.341
47377.141
47221.494
46773.577
46757.722
47003.408
46819.156
46687.929
46812.321
46709.605
46662.732
46690.949
46595.759
46569.051
46524.277
46496.964
46462.136
46429.741
46362.714
46342.553
46291.856
46219.698
46151.116
46055.494
45998.572
45933.414
45872.913
45791.376
45710.929
45623.985
45507.555
45365.797
45234.779
45110.24
44983.075
44858.45
44727.067
44597.084
44462.91
44311.352
44137.035
43948.529
43757.706
43562.951
43365.806
43165.687
42963.488
42761.828
42558.437
42356.246
42154.345
41953.598
41757.046
41564.202
41375.219
41191.28
41013.789
40842.83
40679.45
40523.86
40376.182
40236.6
40105.202
39981.844
39866.228
39758.192
39657.352
39563.365
39475.912
39394.618
39319.08
39248.967
39183.845
39123.451
39067.39
39015.274
38966.931
38922.011
38880.27
38841.431
38805.331
38771.742
38740.49
38711.389
38684.309
38659.125
38635.717
38614.013
38593.938
38575.394
38558.282
38542.565
38528.102
38514.753
38502.604
38492.015
38482.787
38475.797
38471.284
38468.448
38466.744
38465.71
38465.176
38464.957
38464.839
38464.68
38464.449
38464.129
38463.691
38463.126
38462.48
38461.882
38461.416
38461.069
38460.817
38460.644
38460.534
38460.478
38460.463
38460.482
38460.528
38460.594
38460.675
38460.766
38460.864
38460.965
38461.067
38461.168
38461.264
38461.356
38461.439
38461.514
38461.579
38461.632
38461.672
38461.701
38461.721
38461.734
38461.743
38461.749
38461.756
46950.084
47150.857
46955.41
47052.89
46832.883
46729.405
46520.631
46653.747
46951.799
47375.356
47224.895
46776.149
46755.968
47002.873
46821.788
46687.477
46812.036
46710.634
46662.493
46691.61
46596.55
46569.379
46524.598
46497.04
46462.455
46430.081
46363.024
46343.024
46292.473
46220.729
46152.68
46057.233
46000.423
45934.987
45874.14
45792.514
45712.552
45626.447
45510.643
45369.478
45238.624
45114.472
44987.438
44863.065
44731.624
44601.385
44467.18
44316.121
44142.302
43953.823
43762.499
43567.253
43369.67
43169.12
42966.357
42764.019
42559.789
42356.564
42153.433
41951.252
41753
41558.645
41367.892
41182.075
41002.585
40829.578
40664.135
40506.498
40356.781
40215.186
40081.827
39956.577
39839.15
39729.408
39626.973
39531.516
39442.716
39360.201
39283.574
39212.518
39146.634
39085.618
39029.113
38976.761
38928.348
38883.566
38842.145
38803.838
38768.446
38735.769
38705.617
38677.83
38652.257
38628.753
38607.193
38587.466
38569.435
38552.998
38538.1
38524.572
38512.303
38501.537
38492.011
38482.946
38475.407
38469.064
38464.155
38460.276
38457.37
38455.21
38453.406
38451.772
38450.098
38448.404
38446.918
38445.724
38444.791
38444.124
38443.715
38443.505
38443.418
38443.398
38443.423
38443.48
38443.564
38443.668
38443.786
38443.915
38444.048
38444.185
38444.321
38444.455
38444.585
38444.708
38444.825
38444.934
38445.033
38445.124
38445.206
38445.279
38445.343
38445.399
38445.443
38445.474
38445.494
38445.504
38445.509
38445.513
38445.515
46949.927
47151.549
46955.599
47053.981
46834.275
46731.092
46521.309
46651.634
46948.143
47373.518
47228.37
46778.827
46754.166
47002.298
46824.475
46687.004
46811.704
46711.692
46662.236
46692.255
46597.366
46569.72
46524.928
46497.111
46462.768
46430.409
46363.32
46343.476
46293.062
46221.737
46154.23
46058.984
46002.303
45936.596
45875.388
45793.644
45714.142
45628.887
45513.724
45373.183
45242.503
45118.75
44991.85
44867.766
44736.354
44605.855
44471.533
44320.887
44147.604
43959.315
43767.556
43571.796
43373.728
43172.698
42969.341
42766.315
42561.254
42357.001
42152.656
41949.12
41749.108
41553.197
41360.744
41173.055
40991.553
40816.482
40648.95
40489.245
40337.463
40193.831
40058.479
39931.301
39812.025
39700.538
39596.474
39499.521
39409.358
39325.615
39247.898
39175.911
39109.265
39047.646
38990.709
38938.141
38889.665
38845.004
38803.896
38766.101
38731.41
38699.589
38670.457
38643.823
38619.52
38597.395
38577.292
38559.095
38542.672
38527.892
38514.594
38502.686
38492.106
38482.708
38474.293
38466.69
38460.611
38455.002
38450.92
38447.437
38444.503
38442.048
38440.019
38438.459
38437.562
38437.237
38437.135
38437.082
38437.082
38437.09
38437.044
38436.963
38436.896
38436.869
38436.872
38436.89
38436.919
38436.963
38437.019
38437.086
38437.16
38437.238
38437.318
38437.4
38437.481
38437.56
38437.636
38437.708
38437.775
38437.836
38437.89
38437.936
38437.975
38438.007
38438.031
38438.047
38438.057
38438.062
38438.064
38438.065
38438.065
46949.349
47152.162
46955.747
47055.015
46835.74
46732.84
46522.023
46649.485
46944.36
47371.611
47231.913
46781.616
46752.306
47001.677
46827.216
46686.513
46811.32
46712.782
46661.963
46692.886
46598.214
46570.078
46525.274
46497.184
46463.083
46430.733
46363.613
46343.916
46293.627
46222.727
46155.772
46060.755
46004.221
45938.253
45876.669
45794.778
45715.711
45631.312
45516.806
45376.925
45246.425
45123.079
44996.324
44872.549
44741.26
44610.52
44475.994
44325.665
44152.915
43964.964
43772.882
43576.611
43378.022
43176.468
42972.481
42768.742
42562.844
42357.56
42152.02
41947.151
41745.422
41547.838
41353.745
41164.213
40980.689
40803.537
40633.886
40472.088
40318.213
40172.522
40035.151
39906.015
39784.856
39671.585
39565.855
39467.373
39375.819
39290.828
39212.009
39139.074
39071.657
39009.419
38952.034
38899.199
38850.622
38806.031
38765.151
38727.741
38693.558
38662.383
38634.009
38608.244
38584.904
38563.803
38544.775
38527.641
38512.244
38498.437
38486.105
38475.11
38465.344
38456.735
38449.055
38442.121
38436.629
38431.505
38427.771
38424.824
38422.406
38420.464
38418.901
38417.643
38416.618
38415.783
38415.12
38414.601
38414.168
38413.794
38413.486
38413.235
38413.03
38412.867
38412.741
38412.635
38412.547
38412.491
38412.462
38412.458
38412.475
38412.506
38412.544
38412.587
38412.633
38412.68
38412.728
38412.774
38412.818
38412.86
38412.9
38412.935
38412.967
38412.992
38413.012
38413.025
38413.032
38413.035
38413.035
38413.034
38413.033
46948.446
47152.697
46955.924
47056.116
46837.259
46734.653
46522.78
46647.302
46940.443
47369.619
47235.53
46784.541
46750.386
47001.003
46830.018
46686.007
46810.879
46713.901
46661.671
46693.498
46599.096
46570.456
46525.64
46497.264
46463.402
46431.058
46363.903
46344.344
46294.176
46223.704
46157.312
46062.553
46006.186
45939.968
45877.996
45795.927
45717.269
45633.726
45519.897
45380.711
45250.401
45127.462
45000.868
44877.417
44746.326
44615.399
44480.59
44330.47
44158.221
43970.718
43778.457
43581.718
43382.58
43180.471
42975.819
42771.336
42564.578
42358.264
42151.529
41945.329
41741.96
41542.576
41346.866
41155.535
40969.991
40790.741
40618.949
40455.033
40299.036
40151.255
40011.833
39880.705
39757.624
39642.522
39535.074
39435.012
39342.017
39255.726
39175.755
39101.824
39033.562
38970.646
38912.74
38859.54
38810.749
38766.083
38725.273
38688.059
38654.194
38623.424
38595.535
38570.309
38547.538
38527.026
38508.584
38492.048
38477.25
38464.03
38452.224
38441.715
38432.364
38424.006
38416.498
38409.854
38404.108
38399.043
38395.113
38391.986
38389.356
38387.184
38385.39
38383.903
38382.668
38381.643
38380.789
38380.077
38379.484
38378.992
38378.586
38378.253
38377.983
38377.764
38377.594
38377.486
38377.428
38377.386
38377.353
38377.327
38377.311
38377.308
38377.314
38377.327
38377.345
38377.364
38377.383
38377.401
38377.419
38377.436
38377.451
38377.465
38377.478
38377.488
38377.495
38377.499
38377.5
38377.499
38377.497
38377.495
38377.492
46947.418
47153.299
46956.232
47057.373
46838.8
46736.53
46523.585
46645.088
46936.365
47367.535
47239.216
46787.613
46748.397
47000.275
46832.888
46685.494
46810.379
46715.05
46661.359
46694.084
46600.014
46570.856
46526.033
46497.356
46463.727
46431.387
46364.194
46344.766
46294.709
46224.67
46158.852
46064.384
46008.202
45941.748
45879.377
45797.097
45718.823
45636.132
45523.003
45384.546
45254.436
45131.897
45005.478
44882.376
44751.53
44620.499
44485.348
44335.314
44163.513
43976.523
43784.241
43587.118
43387.422
43184.738
42979.393
42774.135
42566.486
42359.12
42151.207
41943.67
41738.717
41537.445
41340.09
41147.018
40959.464
40778.099
40604.141
40438.08
40279.929
40130.03
39988.528
39855.377
39730.338
39613.359
39504.144
39402.444
39307.947
39220.294
39139.108
39064.104
38994.92
38931.222
38872.683
38818.992
38769.838
38724.932
38683.979
38646.715
38612.867
38582.191
38554.452
38529.42
38506.877
38486.599
38468.387
38452.038
38437.379
38424.249
38412.516
38402.021
38392.628
38384.268
38376.794
38370.089
38364.403
38359.521
38355.54
38352.451
38349.852
38347.694
38345.9
38344.402
38343.148
38342.095
38341.21
38340.465
38339.838
38339.311
38338.867
38338.494
38338.181
38337.92
38337.703
38337.523
38337.375
38337.255
38337.16
38337.085
38337.021
38336.965
38336.919
38336.884
38336.856
38336.837
38336.827
38336.821
38336.818
38336.819
38336.822
38336.827
38336.832
38336.836
38336.839
38336.84
38336.839
38336.837
38336.834
38336.831
38336.827
46946.507
47154.106
46956.57
47058.788
46840.332
46738.469
46524.444
46642.848
46932.113
47365.367
47242.973
46790.828
46746.333
46999.496
46835.834
46684.98
46809.824
46716.23
46661.027
46694.644
46600.969
46571.28
46526.454
46497.459
46464.057
46431.72
46364.482
46345.181
46295.226
46225.625
46160.394
46066.249
46010.273
45943.599
45880.819
45798.298
45720.381
45638.533
45526.128
45388.426
45258.534
45136.388
45010.144
44887.433
44756.859
44625.82
44490.3
44340.217
44168.785
43982.336
43790.177
43592.793
43392.561
43189.291
42983.235
42777.179
42568.608
42360.166
42151.058
41942.189
41735.681
41532.503
41333.424
41138.658
40949.115
40765.621
40589.473
40421.242
40260.912
40108.861
39965.242
39830.028
39702.991
39584.09
39473.052
39369.65
39273.578
39184.477
39101.983
39025.807
38955.582
38890.98
38831.664
38777.31
38727.605
38682.242
38640.927
38603.375
38569.306
38538.445
38510.547
38485.372
38462.675
38442.243
38423.869
38407.367
38392.555
38379.264
38367.329
38356.618
38346.986
38338.292
38330.412
38323.302
38316.835
38311.517
38307.069
38303.605
38300.664
38298.193
38296.117
38294.365
38292.881
38291.62
38290.547
38289.63
38288.847
38288.175
38287.6
38287.106
38286.681
38286.317
38286.005
38285.737
38285.507
38285.311
38285.144
38285.002
38284.882
38284.782
38284.698
38284.63
38284.573
38284.528
38284.492
38284.465
38284.445
38284.43
38284.417
38284.407
38284.399
38284.393
38284.388
38284.383
38284.378
38284.373
38284.369
38284.365
38284.36
46946.053
47155.161
46956.739
47060.297
46841.849
46740.464
46525.359
46640.58
46927.675
47363.119
47246.799
46794.191
46744.19
46998.669
46838.859
46684.473
46809.214
46717.443
46660.675
46695.181
46601.961
46571.73
46526.906
46497.578
46464.395
46432.061
46364.77
46345.594
46295.73
46226.571
46161.942
46068.15
46012.401
45945.527
45882.33
45799.533
45721.948
45640.928
45529.275
45392.35
45262.69
45140.937
45014.859
44892.578
44762.308
44631.348
44495.473
44345.206
44174.041
43988.133
43796.209
43598.706
43397.998
43194.142
42987.363
42780.496
42570.979
42361.444
42151.135
41940.915
41732.85
41527.807
41326.896
41130.459
40938.957
40753.321
40574.956
40404.534
40241.998
40087.764
39941.991
39804.677
39675.603
39554.733
39441.818
39336.644
39238.918
39148.279
39064.373
38986.905
38915.511
38849.85
38789.587
38734.391
38683.933
38637.9
38595.969
38557.854
38523.257
38491.909
38463.555
38437.937
38414.819
38393.959
38375.147
38358.182
38342.883
38329.087
38316.649
38305.414
38295.254
38286.13
38277.906
38270.455
38263.848
38258.486
38253.745
38250.099
38246.997
38244.374
38242.156
38240.273
38238.667
38237.293
38236.112
38235.096
38234.219
38233.46
38232.803
38232.233
38231.738
38231.308
38230.933
38230.608
38230.325
38230.08
38229.867
38229.683
38229.524
38229.388
38229.271
38229.171
38229.087
38229.015
38228.956
38228.907
38228.867
38228.834
38228.807
38228.786
38228.77
38228.757
38228.746
38228.737
38228.73
38228.724
38228.719
38228.715
38228.71
46946.047
47156.142
46956.681
47061.827
46843.393
46742.518
46526.334
46638.289
46923.052
47360.787
47250.69
46797.718
46741.969
46997.799
46841.967
46683.98
46808.551
46718.693
46660.305
46695.694
46602.991
46572.208
46527.393
46497.714
46464.745
46432.41
46365.055
46346.001
46296.222
46227.507
46163.496
46070.086
46014.59
45947.539
45883.916
45800.811
45723.532
45643.315
45532.446
45396.316
45266.898
45145.548
45019.622
44897.795
44767.877
44637.065
44500.891
44350.321
44179.29
43993.899
43802.285
43604.797
43403.712
43199.29
42991.79
42784.106
42573.633
42362.988
42151.463
41939.878
41730.246
41523.385
41320.539
41122.417
40928.995
40741.218
40560.617
40387.981
40223.212
40066.757
39918.792
39779.339
39648.184
39525.297
39410.449
39303.433
39203.968
39111.689
39026.256
38947.37
38874.661
38807.789
38746.409
38690.174
38638.752
38591.818
38549.052
38510.144
38474.792
38442.707
38413.619
38387.274
38363.416
38341.832
38322.315
38304.668
38288.713
38274.282
38261.207
38249.354
38238.581
38228.767
38219.803
38211.637
38204.183
38198.129
38192.853
38188.765
38185.29
38182.336
38179.827
38177.687
38175.854
38174.276
38172.915
38171.736
38170.713
38169.823
38169.046
38168.368
38167.774
38167.254
38166.798
38166.398
38166.048
38165.74
38165.47
38165.234
38165.028
38164.849
38164.693
38164.558
38164.442
38164.342
38164.257
38164.185
38164.125
38164.074
38164.033
38163.999
38163.971
38163.949
38163.932
38163.919
38163.908
38163.901
38163.894
38163.889
38163.884
46946.697
47156.545
46956.64
47063.34
46845.034
46744.625
46527.373
46635.976
46918.229
47358.362
47254.642
46801.411
46739.671
46996.88
46845.16
46683.511
46807.84
46719.984
46659.916
46696.186
46604.059
46572.712
46527.916
46497.874
46465.111
46432.773
46365.343
46346.405
46296.702
46228.435
46165.058
46072.061
46016.843
45949.639
45885.586
45802.133
45725.134
45645.695
45535.637
45400.325
45271.15
45150.213
45024.436
44903.068
44773.558
44642.957
44506.565
44355.612
44184.554
43999.627
43808.365
43611.005
43409.663
43204.721
42996.514
42788.017
42576.588
42364.818
42152.054
41939.1
41727.894
41519.25
41314.397
41114.535
40919.236
40729.332
40546.477
40371.599
40204.571
40045.867
39895.675
39754.037
39620.75
39495.791
39378.948
39270.013
39168.721
39074.701
38987.623
38907.178
38833.006
38764.751
38702.065
38644.599
38592.005
38543.95
38500.096
38460.139
38423.765
38390.69
38360.644
38333.358
38308.586
38286.089
38265.659
38247.105
38230.249
38214.934
38201.019
38188.357
38176.832
38166.408
38156.94
38148.258
38140.436
38134.088
38128.339
38123.879
38120.095
38116.86
38114.101
38111.739
38109.707
38107.952
38106.431
38105.108
38103.954
38102.945
38102.06
38101.283
38100.6
38099.998
38099.467
38098.998
38098.584
38098.219
38097.897
38097.613
38097.363
38097.143
38096.951
38096.784
38096.638
38096.512
38096.404
38096.311
38096.232
38096.166
38096.111
38096.065
38096.028
38095.999
38095.976
38095.958
38095.945
38095.936
38095.929
38095.924
38095.918
46947.445
47156.387
46956.636
47064.765
46846.803
46746.785
46528.478
46633.645
46913.205
47355.843
47258.651
46805.286
46737.29
46995.902
46848.443
46683.079
46807.081
46721.318
46659.512
46696.654
46605.166
46573.243
46528.48
46498.057
46465.495
46433.153
46365.642
46346.807
46297.173
46229.357
46166.629
46074.071
46019.162
45951.83
45887.344
45803.509
45726.757
45648.069
45538.84
45404.375
45275.436
45154.928
45029.304
44908.388
44779.337
44649.015
44512.495
44361.123
44189.871
44005.315
43814.421
43617.274
43415.795
43210.408
43001.526
42792.232
42579.858
42366.953
42152.952
41938.614
41725.823
41515.404
41308.513
41106.829
40909.685
40717.68
40532.559
40355.414
40186.105
40025.117
39872.653
39728.78
39593.309
39466.22
39347.321
39236.396
39133.189
39037.328
38948.491
38866.362
38790.581
38720.788
38656.631
38597.741
38543.775
38494.394
38449.262
38408.059
38370.468
38336.196
38304.959
38276.501
38250.57
38226.959
38205.459
38185.874
38168.029
38151.763
38136.919
38123.37
38110.996
38099.679
38089.311
38079.834
38071.226
38063.887
38057.528
38052.513
38048.289
38044.666
38041.569
38038.911
38036.62
38034.635
38032.911
38031.407
38030.091
38028.938
38027.923
38027.029
38026.241
38025.543
38024.926
38024.379
38023.894
38023.464
38023.083
38022.746
38022.447
38022.184
38021.952
38021.749
38021.571
38021.417
38021.283
38021.167
38021.069
38020.985
38020.915
38020.857
38020.81
38020.772
38020.742
38020.721
38020.705
38020.694
38020.686
38020.68
38020.674
46947.765
47155.768
46957.059
47066.009
46848.638
46748.994
46529.654
46631.298
46907.965
47353.226
47262.705
46809.351
46734.826
46994.847
46851.816
46682.691
46806.271
46722.696
46659.097
46697.098
46606.314
46573.799
46529.083
46498.265
46465.901
46433.552
46365.955
46347.21
46297.635
46230.276
46168.208
46076.117
46021.547
45954.112
45889.194
45804.942
45728.403
45650.435
45542.043
45408.461
45279.748
45159.683
45034.226
44913.755
44785.197
44655.227
44518.669
44366.894
44195.298
44010.976
43820.432
43623.559
43422.047
43216.305
43006.802
42796.739
42583.439
42369.402
42154.164
41938.436
41724.051
41511.853
41302.937
41099.329
40900.346
40706.263
40518.864
40339.43
40167.818
40004.515
39849.734
39703.573
39565.858
39436.576
39315.552
39202.56
39097.351
38999.549
38908.837
38824.889
38747.351
38675.858
38610.048
38549.559
38494.03
38443.12
38396.487
38353.82
38314.802
38279.14
38246.564
38216.798
38189.602
38164.742
38142.016
38121.239
38102.237
38084.853
38068.957
38054.41
38041.105
38029.005
38017.97
38007.819
37998.567
37990.727
37983.797
37978.254
37973.607
37969.606
37966.178
37963.231
37960.685
37958.476
37956.551
37954.869
37953.394
37952.097
37950.954
37949.945
37949.051
37948.26
37947.557
37946.932
37946.377
37945.883
37945.444
37945.054
37944.708
37944.402
37944.131
37943.892
37943.683
37943.5
37943.341
37943.203
37943.085
37942.984
37942.899
37942.828
37942.771
37942.724
37942.689
37942.662
37942.644
37942.631
37942.622
37942.616
37942.61
46947.449
47155.444
46957.634
47066.897
46850.435
46751.263
46530.909
46628.939
46902.512
47350.508
47266.803
46813.633
46732.29
46993.703
46855.279
46682.358
46805.409
46724.117
46658.672
46697.519
46607.503
46574.382
46529.73
46498.497
46466.332
46433.969
46366.285
46347.613
46298.091
46231.191
46169.792
46078.194
46023.996
45956.487
45891.137
45806.433
45730.074
45652.796
45545.237
45412.579
45284.079
45164.471
45039.201
44919.178
44791.125
44661.578
44525.067
44372.95
44200.902
44016.64
43826.39
43629.823
43428.36
43222.364
43012.313
42801.519
42587.313
42372.156
42155.683
41938.55
41722.584
41508.608
41297.688
41092.056
40891.207
40695.071
40505.39
40323.645
40149.703
39984.047
39826.909
39678.415
39538.402
39406.865
39283.655
39168.526
39061.234
38961.396
38868.707
38782.83
38703.413
38630.081
38562.477
38500.221
38442.965
38390.365
38342.08
38297.793
38257.183
38219.96
38185.84
38154.577
38125.93
38099.691
38075.651
38053.616
38033.419
38014.902
37997.911
37982.318
37967.998
37954.825
37942.706
37931.606
37921.524
37912.555
37904.937
37898.711
37893.544
37889.088
37885.264
37881.97
37879.121
37876.646
37874.486
37872.596
37870.936
37869.475
37868.185
37867.044
37866.032
37865.134
37864.336
37863.625
37862.992
37862.428
37861.925
37861.478
37861.079
37860.726
37860.413
37860.136
37859.892
37859.678
37859.491
37859.329
37859.19
37859.07
37858.97
37858.886
37858.817
37858.761
37858.719
37858.687
37858.666
37858.651
37858.641
37858.634
37858.628
46946.684
47155.858
46957.861
47067.234
46852.151
46753.61
46532.251
46626.569
46896.831
47347.679
47270.941
46818.15
46729.689
46992.461
46858.829
46682.087
46804.494
46725.576
46658.238
46697.919
46608.731
46574.992
46530.417
46498.755
46466.784
46434.411
46366.631
46348.019
46298.539
46232.101
46171.382
46080.303
46026.506
45958.957
45893.174
45807.986
45731.769
45655.148
45548.419
45416.714
45288.427
45169.285
45044.218
44924.667
44797.111
44668.049
44531.666
44379.303
44206.746
44022.358
43832.303
43636.043
43434.688
43228.528
43018.017
42806.538
42591.449
42375.197
42157.493
41938.951
41721.418
41505.672
41292.765
41085.016
40882.241
40684.079
40492.123
40308.035
40131.733
39963.698
39804.168
39653.294
39510.93
39377.075
39251.605
39134.262
39024.804
38922.841
38828.069
38740.149
38658.725
38583.424
38513.879
38449.718
38390.58
38336.123
38286.011
38239.934
38197.584
38158.667
38122.919
38090.073
38059.895
38032.158
38006.667
37983.242
37961.708
37941.917
37923.738
37907.035
37891.687
37877.62
37864.705
37852.775
37841.789
37832.119
37823.858
37816.942
37811.235
37806.31
37802.076
37798.426
37795.264
37792.513
37790.111
37788.006
37786.155
37784.524
37783.082
37781.805
37780.671
37779.663
37778.766
37777.966
37777.252
37776.615
37776.046
37775.539
37775.087
37774.684
37774.327
37774.01
37773.73
37773.483
37773.268
37773.081
37772.919
37772.78
37772.662
37772.564
37772.484
37772.419
37772.369
37772.332
37772.307
37772.29
37772.279
37772.271
37772.264
46946.041
47157.068
46957.777
47067.248
46853.853
46756.063
46533.688
46624.19
46890.923
47344.729
47275.12
46822.917
46727.018
46991.115
46862.462
46681.892
46803.521
46727.068
46657.796
46698.299
46609.998
46575.635
46531.145
46499.041
46467.259
46434.877
46367.001
46348.435
46298.982
46232.998
46172.972
46082.442
46029.078
45961.522
45895.308
45809.604
45733.487
45657.488
45551.586
45420.85
45292.788
45174.126
45049.272
44930.233
44803.155
44674.625
44538.446
44385.954
44212.883
44028.194
43838.195
43642.214
43440.998
43234.748
43023.862
42811.758
42595.818
42378.504
42159.576
41939.642
41720.543
41503.023
41288.141
41078.208
40873.428
40673.268
40479.047
40292.584
40113.89
39943.448
39781.493
39628.2
39483.438
39347.212
39219.42
39099.794
38988.096
38883.929
38786.992
38696.942
38613.426
38536.056
38464.47
38398.284
38337.153
38280.733
38228.689
38180.711
38136.483
38095.728
38058.176
38023.595
37991.754
37962.441
37935.449
37910.585
37887.688
37866.598
37847.162
37829.254
37812.751
37797.525
37783.491
37770.562
37758.643
37747.763
37738.642
37730.94
37724.632
37719.187
37714.497
37710.448
37706.938
37703.881
37701.209
37698.865
37696.803
37694.984
37693.374
37691.947
37690.679
37689.551
37688.545
37687.647
37686.846
37686.129
37685.488
37684.915
37684.403
37683.947
37683.541
37683.181
37682.862
37682.581
37682.335
37682.12
37681.934
37681.775
37681.639
37681.526
37681.432
37681.357
37681.299
37681.256
37681.227
37681.208
37681.195
37681.186
37681.179
46945.68
47158.616
46957.707
47067.237
46855.628
46758.635
46535.225
46621.804
46884.773
47341.638
47279.339
46827.921
46724.287
46989.667
46866.173
46681.777
46802.481
46728.588
46657.347
46698.658
46611.303
46576.314
46531.916
46499.355
46467.752
46435.369
46367.395
46348.859
46299.421
46233.883
46174.559
46084.605
46031.705
45964.182
45897.541
45811.289
45735.227
45659.807
45554.739
45424.97
45297.158
45178.996
45054.361
44935.874
44809.261
44681.288
44545.389
44392.894
44219.356
44034.223
43844.115
43648.343
43447.278
43240.979
43029.794
42817.133
42600.384
42382.031
42161.904
41940.599
41719.922
41500.633
41283.783
41071.636
40864.764
40662.611
40466.14
40277.272
40096.158
39923.276
39758.859
39603.102
39455.893
39317.241
39187.062
39065.085
38951.077
38844.633
38745.451
38653.189
38567.486
38487.963
38414.245
38345.952
38282.73
38224.241
38170.158
38120.177
38074.001
38031.344
37991.955
37955.584
37922.004
37891.003
37862.391
37835.986
37811.61
37789.114
37768.359
37749.199
37731.509
37715.213
37700.203
37686.324
37673.468
37661.868
37652.026
37643.536
37636.605
37630.627
37625.466
37621.005
37617.134
37613.76
37610.808
37608.217
37605.936
37603.921
37602.137
37600.555
37599.148
37597.895
37596.777
37595.777
37594.884
37594.084
37593.368
37592.727
37592.155
37591.643
37591.188
37590.783
37590.424
37590.107
37589.829
37589.586
37589.375
37589.193
37589.039
37588.909
37588.802
37588.715
37588.648
37588.599
37588.565
37588.543
37588.529
37588.519
37588.511
46945.343
47160.039
46957.695
47068.013
46857.569
46761.326
46536.865
46619.415
46878.385
47338.399
47283.601
46833.166
46721.515
46988.123
46869.956
46681.741
46801.369
46730.137
46656.892
46698.987
46612.644
46577.034
46532.732
46499.7
46468.274
46435.889
46367.822
46349.298
46299.857
46234.755
46176.134
46086.786
46034.381
45966.931
45899.874
45813.04
45736.99
45662.105
45557.868
45429.073
45301.53
45183.899
45059.496
44941.583
44815.443
44688.022
44552.477
44400.101
44226.185
44040.518
43850.126
43654.457
43453.528
43247.195
43035.765
42822.615
42605.109
42385.741
42164.439
41941.769
41719.514
41498.474
41279.661
41065.306
40856.251
40652.082
40453.376
40262.082
40078.51
39903.15
39736.237
39577.977
39428.279
39287.157
39154.547
39030.163
38913.782
38805.004
38703.525
38608.996
38521.063
38439.329
38363.428
38292.971
38227.617
38167.026
38110.865
38058.832
38010.622
37965.971
37924.63
37886.38
37850.999
37818.276
37788.014
37760.03
37734.165
37710.253
37688.135
37667.677
37648.752
37631.232
37615.035
37600.085
37586.291
37573.666
37562.798
37553.437
37545.806
37539.238
37533.559
37528.645
37524.377
37520.655
37517.396
37514.533
37512.011
37509.782
37507.809
37506.057
37504.498
37503.11
37501.87
37500.762
37499.77
37498.882
37498.087
37497.375
37496.738
37496.169
37495.661
37495.209
37494.807
37494.452
37494.14
37493.867
37493.629
37493.424
37493.249
37493.102
37492.98
37492.881
37492.804
37492.748
37492.709
37492.684
37492.668
37492.657
37492.647
46944.73
47160.832
46957.83
47069.633
46859.728
46764.124
46538.611
46617.027
46871.748
47334.994
47287.917
46838.657
46718.744
46986.477
46873.794
46681.819
46800.183
46731.717
46656.433
46699.28
46614.021
46577.795
46533.598
46500.071
46468.82
46436.438
46368.28
46349.745
46300.278
46235.606
46177.693
46088.976
46037.1
45969.77
45902.306
45814.859
45738.77
45664.376
45560.971
45433.152
45305.892
45188.838
45064.681
44947.35
44821.707
44694.816
44559.686
44407.547
44233.37
44047.143
43856.302
43660.598
43459.761
43253.386
43041.742
42828.164
42609.955
42389.602
42167.138
41943.113
41719.292
41496.515
41275.753
41059.204
40847.877
40641.645
40440.723
40246.98
40060.912
39883.037
39713.589
39552.784
39400.556
39256.923
39121.833
38994.993
38876.19
38765.026
38661.197
38564.356
38474.14
38390.163
38312.048
38239.409
38171.898
38109.178
38050.929
37996.847
37946.642
37900.035
37856.784
37816.656
37779.433
37744.92
37712.936
37683.306
37655.859
37630.451
37606.94
37585.18
37565.041
37546.435
37529.239
37513.313
37498.535
37485.053
37473.389
37463.192