/*--------------------------------*- C++ -*----------------------------------*\
| =========                 |                                                 |
| \\      /  F ield         | OpenFOAM: The Open Source CFD Toolbox           |
|  \\    /   O peration     | Version:  2506                                  |
|   \\  /    A nd           | Website:  www.openfoam.com                      |
|    \\/     M anipulation  |                                                 |
\*---------------------------------------------------------------------------*/
FoamFile
{
    version     2.0;
    format      ascii;
    arch        "LSB;label=32;scalar=64";
    class       volScalarField;
    location    "0.028";
    object      p;
}
// * * * * * * * * * * * * * * * * * * * * * * * * * * * * * * * * * * * * * //

dimensions      [1 -1 -2 0 0 0 0];

internalField   nonuniform List<scalar> 
428467
(
48741.558
50131.072
48964.393
49784.102
49024.597
49532.667
49054.378
49357.266
49070.461
49235.15
49082.48
49148.931
49076.511
49079.577
49035.473
49015.859
48949.841
48839.48
48681.944
48499.244
48324.178
48187.495
48114.819
48121.937
48210.343
48389.101
48640.008
48898.363
49045.887
49043.127
48972.097
48911.684
48890.845
48894.536
48909.68
48924.255
48929.436
48917.189
48881.672
48823.011
48746.946
48663.831
48586.486
48521.642
48476.094
48451.492
48447.595
48467.333
48508.323
48571.393
48654.49
48754.574
48864.427
48972.253
49067.251
49128.414
49142.133
49101.323
48999.516
48846.569
48657.643
48448.196
48234.3
48031.961
47844.786
47675.206
47525.754
47396.505
47285.084
47190.238
47109.529
47040.15
46981.13
46929.722
46884.942
46846.766
46814.169
46785.222
46759.754
46735.988
46714.256
46696.115
46679.178
46663.651
46649.15
46634.869
46620.626
46606.878
46593.349
46580.589
46567.993
46555.028
46542.707
46530.831
46519.272
46507.386
46495.465
46483.043
46470.686
46459.126
46446.838
46433.022
46418.924
46405.432
46391.522
46378.216
46365.438
46352.094
46338.434
46324.312
46310.638
46297.483
46283.561
46268.421
46252.321
46235.844
46219.55
46203.672
46188.04
46172.315
46156.297
46139.892
46123.098
46106.08
46089.019
46071.862
46054.456
46036.861
46019.216
46001.251
45982.379
45962.364
45941.535
45920.404
45899.43
45878.804
45858.22
45837.213
45815.7
45794.185
45773.342
45753.004
45732.063
45709.79
45686.413
45662.527
45638.63
45613.49
45586.317
45560.068
45537.473
45512.656
45487.613
45454.889
45425.74
45402.442
45376.876
45348.025
45316.698
45291.591
45253.333
45220.193
45197.883
45168.449
45136.692
45103.619
45072.135
45038.827
45002.315
44971.471
44928.556
44890.141
44857.295
44826.982
44792.7
44744.395
44699.485
44667.866
44630.981
44594.25
44561.536
44519.416
44479.926
44433.716
44386.416
44348.724
44296.775
44251.478
44216.736
44165.31
44121.142
44076.576
44025.04
43980.348
43925.829
43872.519
43824.977
43770.16
43706.619
43648.639
43611.206
43568.524
43516.288
43444.927
43394.265
43343.775
43279.772
43211.331
43166.071
43114.122
43055.49
43008.144
42956.359
42891.894
42824.966
42761.056
42706.968
42638.997
42571.196
42520.936
42452.087
42385.297
42323.375
42247.85
42178.617
42125.189
42053.353
41990.647
41928.998
41869.997
41810.876
41730.902
41658.064
41594.421
41525.444
41456.504
41392.394
41324.542
41251.403
41199.43
41157.6
41076.956
41018.367
40958.904
40872.916
40799.916
40749.801
40709.081
40650.809
40563.972
40481.587
40420.729
40384.878
40335.506
40258.153
40176.015
40109.259
40064.494
40024.929
39981.844
39930.945
39863.476
39797.781
39743.76
39686.871
39630.803
39599.384
39575.034
39525.331
39457.335
39388.286
39327.385
39273.626
39225.603
39183.629
39146.564
39112.566
39078.984
39042.454
38998.544
38948.665
38904.927
38872.019
38837.927
38802.432
38751.459
38700.153
38658.974
38616.691
38575.428
38535.62
38494.107
38455.274
38427.874
38411.822
38376.693
38338.887
38308.563
38286.105
48767.099
50084.389
48963.22
49754.14
49020.521
49490.827
49054.646
49336.718
49067.479
49214.143
49068.607
49137.312
49065.795
49067.046
49029.597
49010.629
48949.127
48841.824
48684.993
48502.825
48329.305
48190.941
48114.072
48115.776
48193.364
48358.869
48596.016
48855.657
49022.717
49036.045
48971.402
48910.041
48889.536
48894.135
48909.679
48924.234
48926.983
48910.702
48872.712
48814.095
48737.301
48654.876
48578.196
48514.938
48472.058
48449.145
48447.275
48469.192
48512.113
48576.464
48661.022
48761.98
48870.755
48978.189
49068.747
49125.244
49134.133
49084.588
48976.999
48823.844
48633.992
48419.122
48207.414
48010.199
47823.284
47656.08
47510.523
47382.736
47273.393
47180.679
47102.567
47034.267
46975.277
46924.799
46881.25
46843.93
46811.982
46783.368
46758
46734.468
46713.715
46695.629
46678.962
46663.597
46649.195
46635.316
46621.516
46607.765
46594.286
46581.682
46568.97
46556.267
46543.891
46531.964
46520.728
46508.771
46496.932
46484.777
46472.74
46460.637
46448.55
46435.131
46420.837
46407.523
46393.486
46380.049
46367.33
46354.515
46341.189
46326.85
46312.966
46299.761
46285.998
46271.002
46254.971
46238.483
46222.174
46206.316
46190.724
46175.05
46159.094
46142.772
46126.078
46109.148
46092.144
46075.039
46057.7
46040.175
46022.577
46004.667
45985.902
45966.021
45945.293
45924.207
45903.247
45882.669
45862.197
45841.317
45819.886
45798.368
45777.488
45757.234
45736.544
45714.524
45691.244
45667.273
45643.335
45619.557
45593.282
45564.77
45538.706
45517.521
45493.097
45463.897
45432.673
45405.404
45380.982
45355.562
45323.941
45294.829
45261.584
45230.127
45201.858
45173.115
45145.572
45111.664
45077.548
45049.219
45009.944
44973.3
44940.459
44902.261
44866.083
44830.687
44799.717
44759.118
44714.294
44674.069
44644.119
44598.094
44558.182
44527.539
44492.923
44447.482
44396.133
44349.94
44307.511
44260.359
44222.221
44180.554
44135.423
44092.94
44033.513
43971.932
43929.976
43880.508
43832.951
43780.839
43721.227
43659.266
43614.01
43573.541
43536.8
43454.329
43384.992
43346.386
43288.553
43227.819
43180.642
43117.006
43056.63
43001.977
42949.107
42902.962
42839.13
42771.19
42705.359
42644.83
42582.022
42517.004
42452.04
42383.702
42317.026
42246.671
42180.399
42129.377
42081.178
41997.445
41917.792
41847.513
41776.653
41722.347
41668.205
41591.295
41498.717
41428.942
41374.226
41316.415
41248.105
41187.084
41135.838
41066.089
41001.143
40924.014
40851.935
40819.437
40743.492
40645.566
40582.54
40516.309
40459.978
40415.982
40373.366
40285.934
40193.454
40132.812
40097.215
40056.515
40002.523
39936.939
39865.176
39801.477
39753.531
39714.482
39670.029
39628.773
39589.881
39507.114
39426.293
39362.726
39311.849
39269.113
39232.79
39201.613
39167.251
39125.949
39078.661
39026.603
38968.006
38908.546
38859.613
38812.909
38766.783
38726.819
38692.287
38660.978
38628.081
38596.364
38562.056
38531.627
38508.601
38479.647
38439.668
38370.226
38307.878
38305.266
38294.631
38282.314
38278.174
48794.771
50026.625
48963.415
49710.648
49014.565
49459.981
49053.191
49313.158
49057.828
49187.112
49063.25
49123.156
49049.329
49053.381
49024.158
49002.397
48946.538
48843.614
48689.327
48507.536
48334.057
48194.701
48115.574
48109.53
48177.388
48328.943
48551.584
48809.673
48995.686
49027.736
48969.736
48908.659
48887.423
48893.203
48910.481
48924.109
48923.386
48904.635
48864.853
48803.127
48725.446
48643.875
48569.588
48508.574
48467.669
48446.635
48447.229
48471.61
48516.279
48582.045
48668.415
48770.128
48878.027
48984.268
49070.265
49120.837
49122.504
49067.688
48958.884
48800.208
48602.07
48387.087
48181.91
47983.353
47799.167
47638.318
47492.844
47366.114
47260.958
47171.245
47094.045
47027.039
46969.468
46920.31
46877.867
46841.276
46809.133
46780.837
46756.096
46733.369
46712.993
46694.987
46678.83
46663.619
46649.49
46635.859
46622.208
46608.478
46595.232
46582.595
46569.8
46557.467
46545.148
46533.45
46522.258
46510.007
46498.31
46486.558
46474.957
46462.33
46449.931
46436.977
46422.882
46410.359
46396.473
46382.194
46368.692
46356.129
46343.515
46329.451
46315.515
46302.237
46288.52
46273.607
46257.631
46241.149
46224.823
46208.979
46193.43
46177.813
46161.918
46145.669
46129.066
46112.227
46095.294
46078.247
46060.979
46043.529
46025.985
46008.12
45989.438
45969.683
45949.071
45928.053
45907.124
45886.598
45866.243
45845.507
45824.167
45802.631
45781.667
45761.436
45740.977
45719.267
45696.201
45672.201
45647.962
45624.02
45599.327
45574.38
45542.996
45515.703
45498.589
45474.871
45441.304
45411.825
45381.344
45356.943
45331.036
45300.917
45267.414
45238.598
45211.357
45179.517
45150.65
45118.919
45084.466
45055.685
45020.184
44981.832
44949.059
44910.296
44877.523
44837.094
44799.593
44767.444
44725.83
44683.142
44652.638
44612.196
44562.53
44530.122
44502.42
44462.082
44412.306
44362.503
44321.52
44268.254
44218.522
44180.456
44143.825
44103.658
44051.403
43988.337
43934.58
43885.549
43836.506
43784.978
43735.827
43680.168
43628.433
43573.567
43521.535
43462.922
43395.172
43343.047
43293.899
43233.712
43184.966
43129.962
43070.157
43013.637
42951.484
42895.144
42838.39
42782.038
42712.439
42643.126
42586.444
42529.535
42464.155
42393.722
42324.284
42247.57
42180.824
42115.559
42047.495
41980.818
41908.385
41844.512
41782.782
41726.134
41647.489
41563.965
41503.908
41448.15
41367.166
41290.715
41235.643
41193.487
41115.462
41031.244
40961.566
40896.133
40844.074
40783.902
40693.755
40618.832
40566.634
40515.151
40451.733
40389.872
40313.211
40227.183
40163.129
40135.176
40090.234
40015.888
39936.109
39868.279
39816.998
39782.855
39738.418
39679.483
39626.459
39580.61
39496.842
39414.227
39358.014
39316.631
39285.84
39252.648
39209.267
39153.409
39090.397
39029.817
38971.4
38913.093
38855.583
38804.655
38765.159
38734.043
38710.058
38681.009
38652.029
38617.232
38577.672
38536.224
38498.129
38471.821
38437.77
38400.346
38362.469
38330.29
38303.759
38276.933
38258.222
38247.29
38243.662
48820.658
49968.335
48963.821
49665.657
49010.06
49432.647
49044.982
49279.899
49046.222
49162.529
49053.009
49100.825
49034.259
49043.027
49014.344
48994.076
48944.708
48844.831
48694.162
48512.867
48339.501
48200.101
48117.669
48102.889
48162.679
48297.909
48507.132
48761.23
48964.166
49015.674
48967.835
48908.355
48885.118
48893.142
48911.263
48922.357
48919.541
48899.627
48854.308
48789.115
48712.839
48633.506
48560.444
48501.481
48462.958
48444.299
48447.779
48474.612
48520.846
48588.297
48676.494
48778.48
48885.691
48988.747
49070.173
49116.597
49113.183
49051.977
48939.066
48767.554
48566.451
48358.151
48154.035
47953.943
47777.74
47619.533
47473.261
47349.948
47249.608
47160.713
47084.584
47019.947
46964.456
46915.617
46874.003
46837.744
46805.985
46778.534
46754.405
46732.185
46712.178
46694.943
46678.547
46663.318
46649.713
46636.233
46622.738
46609.461
46596.473
46583.43
46570.704
46558.704
46546.497
46535.037
46523.746
46511.576
46499.994
46488.241
46476.46
46464.704
46451.849
46438.112
46424.86
46412.758
46399.242
46385.306
46371.797
46357.736
46344.679
46331.698
46318.18
46304.928
46291.249
46276.404
46260.435
46243.962
46227.623
46211.785
46196.281
46180.727
46164.895
46148.713
46132.19
46115.44
46098.588
46081.609
46064.415
46047.049
46029.571
46011.745
45993.126
45973.481
45952.993
45932.073
45911.203
45890.736
45870.498
45849.92
45828.691
45807.145
45786.063
45765.783
45745.502
45724.118
45701.36
45677.528
45653.135
45628.589
45604.192
45580.207
45550.848
45521.203
45500.045
45478.725
45450.649
45421.081
45388.258
45358.225
45334.656
45307.798
45274.215
45241.228
45216.36
45188.835
45157.743
45126.189
45093.356
45063.519
45031.347
44993.608
44955.307
44914.457
44880.949
44843.178
44803.271
44771.061
44736.055
44691.682
44661.66
44629.93
44574.582
44527.561
44499.964
44470.693
44426.043
44378.549
44326.932
44278.266
44228.003
44186.866
44143.471
44111.699
44067.765
44001.931
43944.875
43892.098
43837.663
43784.741
43742.092
43697.983
43649.942
43591.406
43520.132
43476.053
43414.964
43347.675
43291.962
43242.582
43185.099
43137.076
43087.332
43038.118
42967.917
42900.54
42842.504
42771.468
42717.146
42655.172
42578.659
42520.456
42465.358
42391.227
42311.798
42251.888
42195.011
42122.857
42051.218
41979.033
41906.159
41847.698
41785.829
41704.283
41626.739
41570.707
41518.575
41420.062
41345.485
41305.189
41249.307
41155.367
41062.206
41004.462
40951
40891.428
40821.21
40742.963
40657.346
40614.218
40549.329
40480.03
40419.335
40342.461
40263.592
40205.887
40174.336
40112.04
40023.76
39945.071
39886.901
39852.378
39821.553
39761.643
39682.63
39607.47
39538.976
39472.335
39408.811
39366.102
39339.578
39306.41
39252.5
39185.556
39114.222
39043.878
38984.093
38936.738
38888.347
38837.546
38789.121
38757.131
38734.516
38708.171
38669.521
38626.242
38580.524
38541.337
38509.747
38476.166
38446.419
38399.236
38357.542
38326.603
38296.027
38262.275
38233.936
38213.723
38198.09
38187.905
38187.305
48844.585
49899.465
48967.049
49612.349
49005.691
49396.246
49037.223
49250.058
49035.146
49142.719
49039.913
49079.142
49026.071
49027.253
49003.896
48990.371
48942.724
48844.31
48697.88
48517.344
48345.668
48204.277
48117.699
48098.457
48147.462
48266.755
48463.033
48709.374
48926.782
49002.484
48966.812
48908.521
48884.733
48893.461
48910.923
48920.23
48916.405
48892.524
48841.127
48775.323
48701.087
48622.177
48550.274
48494.39
48458.663
48442.53
48448.755
48477.931
48526.324
48595.589
48685.115
48786.658
48892.937
48992.482
49070.267
49114.31
49099.811
49029.562
48906.913
48730.642
48534.453
48329.045
48121.006
47926.302
47756.131
47594.533
47451.562
47335.949
47236.484
47149.038
47076.143
47013.284
46958.258
46909.845
46869.085
46833.967
46803.504
46776.584
46752.525
46730.764
46711.419
46694.656
46678.266
46662.922
46649.771
46636.757
46623.102
46610.338
46597.698
46584.63
46572.133
46559.85
46547.886
46536.574
46525.082
46513.43
46501.619
46490.212
46478.318
46466.492
46453.997
46440.549
46426.816
46414.195
46401.914
46388.017
46374.577
46360.732
46346.935
46333.404
46320.704
46307.647
46294.046
46279.409
46263.445
46246.95
46230.595
46214.76
46199.301
46183.816
46168.053
46151.936
46135.484
46118.817
46102.051
46085.152
46068.037
46050.761
46033.365
46015.588
45997.012
45977.455
45957.092
45936.293
45915.512
45895.116
45874.991
45854.577
45833.49
45811.967
45790.763
45770.364
45750.181
45729.101
45706.688
45683.163
45658.865
45634.079
45609.146
45584.277
45559.103
45537.165
45504.743
45475.052
45457.739
45428.446
45398.054
45369.456
45340.604
45310.75
45283.463
45249.615
45216.794
45193.097
45163.255
45133.755
45103.62
45070.465
45039.335
45009.951
44970.176
44922.4
44883.022
44850.992
44815.114
44773.493
44737.505
44699.708
44664.233
44633.881
44596.26
44553.938
44500.972
44461.982
44431.502
44392.379
44339.854
44293.544
44244.175
44190.088
44140.061
44107.615
44076.274
44019.703
43959.461
43903.339
43846.453
43794.798
43745.727
43695.149
43654.12
43610.023
43537.927
43478.118
43425.07
43365.874
43299.106
43247.299
43192.706
43140.94
43091.588
43044.49
42989.043
42912.924
42840.978
42782.609
42720.629
42651.171
42589.223
42523.75
42461.623
42396.62
42319.447
42254.439
42192.225
42117.287
42052.917
41981.422
41904.779
41840.324
41774.498
41702.791
41636.461
41567.412
41490.95
41416.746
41361.98
41289.694
41203.376
41124.088
41059.871
41015.181
40939.249
40846.671
40766.662
40710.755
40675.388
40595.415
40501.121
40425.529
40353.431
40297.902
40245.358
40194.394
40144.964
40064.093
39978.192
39910.845
39877.408
39829.071
39751.711
39666.267
39590.424
39525.436
39472.919
39433.731
39396.725
39373.56
39317.714
39234.242
39152.51
39073.598
39004.981
38952.133
38915.85
38889.79
38852.802
38811.748
38780.381
38750.937
38701.804
38639.687
38574.673
38518.185
38469.777
38423.329
38379.712
38342.205
38303.822
38274.566
38247.597
38222.11
38200.235
38182.981
38162.892
38141.778
38126.146
38120.175
38116.313
48867.107
49824.468
48973.776
49551.377
49007.668
49356.235
49034.161
49217.708
49030.06
49119.469
49025.855
49062.347
49013.575
49010.817
48996.462
48987.433
48936.324
48839.76
48697.855
48523.465
48351.837
48207.078
48122.126
48096.53
48132.58
48238.423
48417.95
48654.277
48883.957
48987.565
48964.822
48910.591
48885.501
48893.478
48909.862
48918.452
48912.271
48883.089
48827.994
48763.446
48687.719
48609.441
48540.344
48488.101
48454.867
48441.32
48449.548
48481.202
48532.597
48603.764
48693.606
48794.307
48900.295
48996.847
49070.803
49105.661
49083.066
49008.739
48869.683
48697.755
48505.387
48292.61
48084.909
47902.23
47726.731
47566.389
47434.084
47320.979
47221.62
47139.006
47067.062
47004.795
46951.111
46904.131
46864.575
46830.458
46800.815
46774.452
46750.863
46729.178
46710.647
46694.584
46677.883
46662.733
46650.062
46637.131
46623.549
46611.028
46598.69
46586.082
46573.869
46561.351
46548.68
46537.965
46526.954
46515.681
46504.183
46492.248
46479.86
46468.046
46456.414
46443.915
46430.183
46415.503
46403.077
46390.524
46377.057
46363.629
46350.133
46336.23
46323.429
46310.356
46296.697
46282.485
46266.662
46250.139
46233.754
46217.916
46202.5
46187.09
46171.406
46155.357
46138.97
46122.377
46105.696
46088.885
46071.856
46054.677
46037.38
46019.671
46001.132
45981.635
45961.384
45940.717
45920.057
45899.754
45879.739
45859.491
45838.572
45817.123
45795.826
45775.264
45755.088
45734.253
45712.185
45689.012
45664.99
45640.413
45615.352
45589.114
45564.086
45542.489
45510.748
45481.975
45463.327
45438.653
45407.597
45378.916
45350.778
45317.466
45288.548
45262.112
45227.128
45197.016
45168.849
45139.564
45109.839
45075.302
45042.817
45019.605
44984.339
44936.496
44893.613
44859.58
44830.742
44790.23
44745.172
44711.596
44669.406
44630.556
44604.396
44567.909
44518.756
44470.246
44434.987
44395.72
44355.586
44307.186
44261.64
44216.649
44161.697
44103.177
44068.188
44021.261
43972.11
43919.942
43863.306
43810.512
43754.11
43702.607
43649.483
43606.121
43548.751
43487.515
43429.992
43376.776
43314.444
43259.461
43211.304
43156.855
43090.74
43033.539
42989.798
42927.087
42858.386
42788.292
42723.209
42665.622
42596.644
42517.901
42446.941
42392.235
42337.67
42261.313
42182.563
42117.833
42046.376
41976.51
41910.47
41834.102
41770.2
41700.075
41632.251
41566.009
41482.531
41426.486
41344.638
41252.902
41186.905
41120.845
41061.7
40997.295
40906.169
40819.595
40758.854
40706.095
40643.67
40550.348
40455.525
40395.102
40349.874
40293.931
40238.356
40175.112
40092.856
40005.761
39937.681
39902.919
39843.319
39759.858
39681.372
39600.37
39531.327
39497.919
39468.229
39429.237
39383.274
39297.04
39201.64
39123.171
39055.039
38999.447
38964.887
38946.12
38916.741
38858.739
38805.295
38754.531
38697.848
38625.597
38558.083
38501.482
38447.849
38395.319
38351.45
38321.452
38294.795
38271.3
38256.554
38229.232
38190.169
38150.079
38115.303
38084.316
38059.475
38038.597
38018.089
38000.355
37992.826
48888.725
49750.953
48984.032
49493.976
49008.335
49298.937
49032.213
49182.234
49021.891
49090.644
49017.441
49040.743
48997.086
48996.104
48986.194
48972.619
48926.737
48837.411
48699.773
48528.551
48357.671
48217.358
48128.842
48092.288
48118.178
48209.716
48370.705
48596.436
48835.03
48968.921
48962.796
48913.535
48885.91
48893.273
48909.129
48917.261
48905.905
48872.133
48817.428
48751.165
48673.359
48596.816
48531.459
48482.281
48450.538
48439.641
48450.725
48485.347
48539.409
48612.589
48701.837
48802.261
48909.157
49003.088
49070.816
49094.757
49064.492
48980.387
48839.242
48667.959
48465.817
48249.534
48052.923
47870.826
47695.416
47544.132
47417.136
47303.276
47206.093
47127.217
47055.45
46996.121
46943.932
46898.419
46860.553
46826.831
46797.898
46772.678
46748.896
46727.306
46709.843
46694.344
46677.563
46662.899
46650.069
46637.31
46624.581
46612.019
46599.41
46587.086
46575.585
46562.95
46550.414
46539.839
46528.496
46517.603
46506.465
46494.292
46482.36
46470.228
46457.824
46445.796
46433.722
46418.047
46404.249
46392.611
46379.361
46366.802
46353.71
46339.463
46327
46313.497
46299.367
46285.497
46270.01
46253.535
46237.116
46221.265
46205.887
46190.556
46174.961
46158.99
46142.666
46126.137
46109.535
46092.816
46075.879
46058.802
46041.623
46024.009
46005.515
45986.057
45965.889
45945.353
45924.836
45904.656
45884.758
45864.67
45843.934
45822.609
45801.281
45780.552
45760.298
45739.625
45717.862
45695.033
45671.39
45647.114
45622.496
45596.595
45569.65
45544.94
45520.215
45489.089
45463.259
45444.974
45416.894
45389.155
45359.266
45326.17
45297.196
45268.492
45238.604
45210.648
45177.842
45147.031
45115.507
45079.481
45048.488
45023.289
44990.943
44945.487
44904.047
44868.802
44843.785
44808.946
44760.795
44726.369
44684.053
44638.025
44608.722
44577.08
44537.861
44487.633
44442.725
44398.851
44361.085
44321.009
44277.096
44238.219
44196.594
44118.493
44057.469
44021.097
43975.324
43933.014
43875.903
43835.545
43787.15
43734.059
43659.761
43586.531
43553.36
43506.4
43440.031
43377.761
43324.59
43267.048
43215.637
43167.313
43114.172
43046.415
42989.606
42927.422
42864.14
42806.85
42741.634
42666.103
42597.662
42525.866
42463.495
42398.151
42325.147
42259.407
42186.189
42114.38
42049.105
41982.253
41910.545
41841.439
41774.456
41708.994
41618.807
41535.601
41470.537
41411.916
41337.054
41251.648
41183.305
41120.124
41047.45
40967.21
40886.304
40838.867
40758.463
40666.362
40590.461
40501.906
40443.244
40416.066
40353.778
40259.471
40161.521
40082.259
40020.257
39965.327
39924.753
39870.026
39787.185
39710.615
39631.493
39573.955
39554.763
39516.269
39431.736
39340.469
39253.677
39171.662
39103.801
39051.998
39022.316
39004.726
38967.206
38896.062
38808.327
38727.196
38656.506
38595.769
38546.518
38503.049
38461.754
38416.878
38362.459
38317.693
38292.971
38263.414
38222.545
38191.788
38157.096
38112.946
38069.037
38029.173
37989.252
37952.828
37921.06
37897.421
37878.635
37859.684
37848.47
48909.606
49680.684
48993.311
49424.838
49004.854
49246.232
49024.157
49141.354
49006.14
49057.998
49002.391
49011.235
48981.931
48978.921
48971.274
48958.951
48921.492
48839.293
48700.775
48535.099
48366.701
48226.42
48132.69
48090.034
48104.827
48179.389
48323.591
48537.306
48781.165
48944.231
48958.337
48917.042
48887.257
48892.97
48910.377
48913.625
48897.325
48863.128
48808.012
48735.915
48657.642
48584.472
48522.885
48474.726
48445.509
48438.842
48453.272
48490.144
48546.885
48621.316
48710.932
48813.435
48918.463
49008.33
49066.054
49080.145
49042.468
48952.684
48813.617
48622.326
48418.62
48214.259
48020.694
47833.411
47663.876
47522.223
47397.189
47284.444
47193.815
47113.535
47043.349
46987.172
46936.799
46893.411
46855.817
46823.016
46794.672
46769.439
46746.9
46726.536
46708.909
46693.218
46677.36
46663.187
46650.319
46637.449
46625.327
46612.738
46600.793
46588.73
46576.946
46564.695
46552.416
46541.641
46530.596
46519.461
46508.397
46496.542
46484.711
46472.394
46459.624
46447.941
46436.327
46422.009
46407.968
46394.329
46381.551
46369.632
46356.776
46342.69
46330.775
46317.241
46302.673
46288.681
46273.452
46257.12
46240.692
46224.823
46209.476
46194.224
46178.727
46162.848
46146.594
46130.122
46113.589
46096.958
46080.117
46063.144
46046.096
46028.612
46010.191
45990.758
45970.64
45950.214
45929.85
45909.824
45890.062
45870.129
45849.579
45828.412
45807.13
45786.276
45765.887
45745.281
45723.755
45701.245
45677.965
45654.006
45629.676
45604.675
45578.522
45549.978
45525.839
45503.202
45472.09
45442.229
45423.058
45397.677
45366.436
45335.628
45309.723
45279.501
45248.675
45219.675
45192.121
45162.876
45123.635
45093.509
45063.065
45022.16
44985.285
44950.792
44914.272
44875.738
44848.64
44821.175
44776.072
44741.784
44705.317
44650.563
44611.071
44582.593
44548.267
44505.44
44458.268
44410.036
44362.598
44323.714
44290.404
44255.214
44201.575
44142.432
44084.491
44034.394
43978.686
43928.425
43879.318
43843.654
43807.822
43748.847
43686.911
43613.111
43560.274
43511.133
43450.062
43386.998
43328.11
43278.363
43221.022
43173.324
43127.568
43060.165
42999.159
42936.998
42865.172
42800.39
42747.148
42681.915
42609.325
42549.091
42476.356
42404.185
42332.054
42255.812
42190.867
42116.5
42050.266
41982.226
41921.178
41846.066
41759.979
41682.585
41608.287
41536.193
41483.223
41408.08
41323.394
41260.778
41171.578
41089.33
41025.334
40950.799
40882.66
40811.032
40716.598
40621.878
40563.939
40526.381
40480.012
40363.83
40263.883
40196.905
40112.598
40047.924
40004.96
39969.482
39903.299
39809.304
39722.323
39659.551
39610.534
39568.318
39521.519
39416.011
39322.605
39246.374
39173.006
39107.931
39062.098
39035.821
38986.158
38912.376
38835.515
38761.825
38687.074
38618.749
38562.225
38522.214
38489.101
38451.103
38404.398
38357.243
38320.802
38293.171
38246.603
38179.767
38115.543
38057.214
37997.65
37943.787
37902.632
37865.812
37827.706
37789.67
37753.268
37724.781
37704.907
37693.904
37686.991
48929.414
49595.913
49001.351
49356.568
49003.88
49190.263
49009.231
49087.672
48989.262
49031.692
48984.249
48987.16
48965.284
48959.746
48956.665
48947.748
48914.938
48834.959
48701.253
48538.074
48375.04
48236.049
48136.451
48087.833
48090.992
48150.704
48277.808
48477.115
48721.919
48911.929
48950.736
48921.558
48891.56
48892.687
48909.003
48908.066
48890.974
48854.921
48792.697
48717.847
48642.446
48572.294
48512.199
48466.826
48442.356
48439.017
48456.918
48495.713
48554.874
48630.81
48721.859
48825.962
48926.495
49009.443
49059.624
49066.133
49021.182
48929.871
48768.116
48574.444
48378.652
48179.997
47977.694
47791.947
47637.932
47498.294
47372.322
47265.671
47177.794
47099.099
47032.935
46978.762
46929.963
46887.933
46850.98
46818.936
46791.136
46766.852
46745.925
46726.061
46707.944
46691.836
46676.684
46663.407
46650.742
46637.758
46625.592
46614.038
46602.356
46590.144
46578.171
46565.852
46554.63
46543.922
46533.074
46521.688
46510.096
46498.362
46487.15
46475.409
46462.343
46450.061
46438.276
46424.706
46411.086
46398.84
46385.526
46371.917
46358.316
46345.585
46333.986
46321.198
46306.711
46292.421
46277.122
46260.903
46244.494
46228.607
46213.282
46198.106
46182.713
46166.939
46150.767
46134.351
46117.876
46101.326
46084.581
46067.714
46050.805
46033.485
46015.179
45995.781
45975.681
45955.327
45935.105
45915.257
45895.661
45875.889
45855.518
45834.524
45813.348
45792.448
45771.915
45751.286
45729.913
45707.676
45684.756
45661.204
45636.805
45612.279
45589.177
45560.387
45529.832
45507.159
45483.311
45447.895
45423.589
45401.663
45372.65
45343.95
45322.167
45291.437
45260.369
45231.733
45205.593
45177.142
45136.018
45102.324
45072.105
45037.101
44991.76
44963.985
44931.452
44887.673
44841.853
44823.208
44786.599
44748.032
44712.869
44669.978
44638.729
44594.527
44546.47
44517.436
44477.568
44433.324
44386.406
44329.684
44292.811
44255.686
44204.516
44157.224
44109.376
44060.862
43997.422
43935.739
43892.385
43850.703
43806.521
43760.243
43711.415
43643.083
43578.53
43513.899
43453.606
43393.506
43343.556
43293.252
43232.213
43177.162
43127.142
43067.047
43005.393
42938.222
42873.394
42807.405
42745.585
42693.986
42619.546
42549.404
42492.356
42413.002
42346.175
42266.249
42194.473
42131.492
42049.414
41971.467
41910.873
41844.439
41761.076
41688.587
41624.696
41551.445
41457.628
41374.912
41312.261
41248.096
41177.712
41095.915
41016.1
40942.907
40860.932
40776.349
40692.381
40615.401
40551.617
40495.996
40418.199
40323.504
40244.002
40169.574
40108.618
40066.719
40002.789
39907.423
39812.75
39734.121
39683.716
39632.422
39585.61
39528.98
39430.678
39322.532
39239.773
39174.422
39125.607
39084.777
39044.305
38966.114
38880.286
38807.907
38737.755
38667.828
38601.189
38563.542
38541.492
38503.762
38442.991
38369.638
38297.899
38236.661
38185.276
38125.175
38057.977
38003.59
37960.092
37918.824
37871.337
37821.898
37787.044
37757.436
37724.118
37686.027
37644.986
37602.543
37560.429
37535.614
37541.837
48948.404
49512.448
49005.768
49271.002
49007.288
49125.794
49000.069
49037.546
48978.326
48999.701
48969.444
48965.728
48946.39
48940.879
48940.609
48933.9
48903.633
48825.875
48697.537
48542.462
48386.217
48246.013
48143.376
48087.083
48078.064
48122.76
48231.481
48416.258
48657.358
48871.862
48943.51
48926.385
48896.854
48893.929
48906.202
48903.004
48883.208
48840.531
48774.631
48701.841
48628.009
48558.902
48500.976
48460.393
48440.049
48440.159
48461.363
48502.422
48563.569
48640.645
48734.992
48838.053
48932.547
49010.865
49054.651
49051.433
49001.775
48888.112
48717.563
48530.449
48333.569
48133.223
47935.053
47760.512
47608.706
47469.727
47347.712
47248.437
47161.956
47084.747
47023.187
46970.823
46923.31
46881.544
46845.167
46814.696
46787.409
46764.748
46744.329
46724.695
46707.294
46691.061
46675.656
46663.293
46651.005
46638.331
46626.504
46615.127
46603.584
46591.887
46579.351
46567.294
46557.076
46546.309
46535.318
46524.176
46512.533
46500.171
46489.381
46478.255
46465.438
46453.385
46440.29
46426.762
46414.711
46402.34
46388.596
46375.502
46361.782
46349.319
46335.784
46324.185
46310.931
46296.681
46281.158
46264.928
46248.532
46232.63
46217.322
46202.216
46186.932
46171.274
46155.197
46138.845
46122.421
46105.941
46089.286
46072.522
46055.757
46038.628
46020.49
46001.161
45981.062
45960.735
45940.62
45920.956
45901.561
45881.971
45861.776
45840.949
45819.914
45799.053
45778.419
45757.712
45736.394
45714.325
45691.763
45668.724
45644.575
45620.301
45595.525
45571.573
45538.89
45512.122
45495.75
45458.179
45429.648
45403.423
45376.694
45348.292
45325.424
45297.045
45269.059
45244.293
45215.483
45190.04
45151.068
45111.851
45084.798
45050.171
45010.687
44979.606
44946.591
44912.807
44855.237
44806.821
44794.591
44755.756
44715.09
44680.393
44649.774
44610.711
44568.473
44525.096
44484.881
44445.743
44406.724
44360.376
44304.158
44249.301
44208.764
44161.682
44121.025
44080.511
44029.873
43971.601
43918.522
43858.369
43796.256
43765.594
43718.896
43661.838
43590.905
43538.6
43485.441
43414.969
43352.498
43299.776
43248.648
43191.139
43134.496
43075.48
43019.015
42962.903
42890.933
42815.985
42744.1
42693.755
42638.814
42561.478
42479.625
42404.248
42346.997
42278.191
42198.53
42129.113
42055.424
41988.231
41920.55
41851.018
41768.885
41691.211
41628.511
41553.855
41456.029
41368.675
41319.818
41254.566
41166.041
41071.53
40984.205
40912.71
40847.334
40768.357
40698.421
40645.826
40528.973
40411.074
40349.695