/*--------------------------------*- C++ -*----------------------------------*\
| =========                 |                                                 |
| \\      /  F ield         | OpenFOAM: The Open Source CFD Toolbox           |
|  \\    /   O peration     | Version:  2506                                  |
|   \\  /    A nd           | Website:  www.openfoam.com                      |
|    \\/     M anipulation  |                                                 |
\*---------------------------------------------------------------------------*/
FoamFile
{
    version     2.0;
    format      ascii;
    arch        "LSB;label=32;scalar=64";
    class       volScalarField;
    location    "0.55";
    object      Cp;
}
// * * * * * * * * * * * * * * * * * * * * * * * * * * * * * * * * * * * * * //

dimensions      [0 0 0 0 0 0 0];

internalField   nonuniform List<scalar> 
1376
(
0.027968121
0.027959796
0.02795198
0.027935262
0.027818409
0.027833184
0.02784908
0.027852443
0.02784525
0.027828542
0.027803099
0.02777176
0.027735756
0.027695409
0.027578093
0.027617393
0.027656584
0.027683453
0.027700075
0.027707776
0.027703558
0.027687032
0.027661377
0.027630884
0.027594396
0.027550373
0.027500018
0.027442276
0.027377054
0.027259759
0.027325321
0.027389528
0.027441601
0.02748306
0.027512616
0.027532309
0.027539937
0.027534496
0.027516823
0.027483943
0.027441079
0.027389513
0.02732584
0.0272469
0.027154705
0.027057247
0.026957048
0.026849094
0.026858969
0.026954537
0.027047626
0.027127047
0.027194957
0.027252044
0.027297177
0.02732891
0.027344073
0.027339445
0.027321748
0.027288089
0.027236546
0.027168788
0.027091797
0.027007051
0.026892561
0.026759354
0.026634115
0.026515807
0.026390126
0.026249743
0.026095495
0.026380536
0.026501588
0.026623283
0.026733031
0.026831519
0.026918363
0.026993203
0.027054884
0.027099686
0.027124414
0.027127094
0.027106875
0.027064022
0.027000677
0.02691378
0.026801401
0.026691799
0.02657802
0.026444203
0.026303558
0.026166974
0.02602973
0.02589574
0.025761411
0.025620135
0.025459873
0.025261166
0.02583521
0.025977861
0.026120192
0.026253415
0.026377933
0.026491216
0.026591492
0.026677735
0.026748437
0.026801968
0.02683555
0.026846988
0.026835092
0.026797509
0.026730745
0.026643087
0.026535221
0.026407188
0.026255853
0.026096352
0.025949091
0.025814361
0.025684244
0.025562983
0.025444985
0.025326116
0.025192802
0.025010923
0.024786402
0.024543763
0.025238481
0.025399204
0.025553542
0.025700279
0.025840663
0.025971982
0.026092084
0.026200022
0.026295363
0.026377006
0.026442751
0.026488194
0.026508578
0.026502132
0.026469805
0.026408374
0.026312184
0.026189199
0.026050759
0.025907073
0.025755005
0.025611533
0.025485522
0.025372086
0.025265086
0.025160491
0.025043559
0.024892719
0.024713122
0.024494068
0.024245507
0.023997605
0.023791949
0.024601489
0.024775989
0.024935642
0.025089061
0.025238647
0.025382438
0.02551831
0.025644524
0.025759281
0.025861051
0.025947567
0.026016086
0.026063949
0.026088096
0.026086535
0.026055408
0.025998394
0.025916012
0.025810021
0.025681042
0.025544077
0.025414523
0.025296218
0.025186753
0.025087291
0.024990784
0.024890898
0.024775046
0.024622717
0.024423812
0.024181971
0.023914803
0.023662888
0.023478168
0.023410791
0.023940665
0.024127907
0.024291379
0.024448227
0.024600876
0.024748861
0.024891426
0.025027115
0.025154282
0.025271208
0.025376083
0.025466668
0.025540061
0.025593935
0.025626282
0.025634284
0.025617502
0.025575341
0.025506601
0.025411996
0.025306016
0.025200635
0.025101608
0.02501105
0.024930201
0.024850135
0.024763431
0.024662011
0.024525168
0.024338169
0.024094898
0.023813916
0.023537298
0.023327355
0.023241274
0.02330892
0.023513079
0.023767009
0.023268866
0.023468073
0.023637181
0.023799773
0.023956963
0.02410811
0.024253129
0.024391735
0.024523416
0.024647195
0.024762168
0.024866677
0.024958747
0.025035971
0.025096639
0.025138523
0.02515841
0.025156193
0.025131175
0.025084919
0.02502376
0.024954809
0.024887348
0.024828119
0.02477713
0.024723857
0.024658144
0.024571013
0.024448228
0.024272303
0.024032903
0.023751304
0.023472487
0.023268521
0.023199994
0.023302164
0.023519638
0.023776904
0.023962642
0.023988484
0.022595682
0.02280456
0.022979584
0.023148993
0.023312988
0.023470271
0.02361982
0.023761558
0.02389603
0.024023379
0.024143055
0.024254534
0.024357018
0.024448622
0.024527955
0.024594019
0.024644339
0.024676808
0.024692261
0.024691425
0.024677188
0.024656295
0.024634063
0.024616724
0.024607806
0.024599675
0.024577245
0.02452005
0.024415482
0.024253075
0.024028683
0.023765335
0.023510515
0.023330964
0.023271315
0.023332191
0.023443585
0.02354173
0.023551851
0.023432144
0.023226236
0.023032543
0.021907198
0.022119104
0.022294623
0.022468022
0.022639713
0.022807345
0.022968221
0.02312062
0.023264254
0.023399722
0.02352723
0.023646353
0.023756811
0.023858346
0.023950877
0.024035006
0.024108506
0.02416862
0.024215434
0.024250212
0.024275193
0.024295968
0.024319345
0.024349685
0.024386728
0.02442793
0.024459992
0.024457079
0.024399627
0.024277237
0.024086904
0.023852392
0.023615357
0.023428781
0.023299891
0.023187502
0.023071597
0.022911921
0.022679308
0.022442969
0.022339299
0.022237606
0.02197701
0.021169569
0.021381177
0.021551518
0.021723174
0.021898733
0.022076617
0.022253868
0.022426849
0.022592299
0.022748369
0.02289441
0.02302989
0.023154086
0.023266747
0.023369039
0.023463307
0.023551567
0.023633856
0.023704886
0.023765403
0.023821522
0.023875407
0.023934023
0.024004798
0.024088956
0.02418423
0.024271848
0.024330155
0.024339926
0.024287395
0.024163028
0.023962668
0.023726473
0.023465201
0.023159553
0.022801417
0.022399356
0.021939912
0.021566921
0.021511333
0.021767853
0.021944889
0.021719643
0.0213648
0.02136865
0.020364412
0.020577382
0.020742494
0.020910286
0.021084284
0.021264692
0.021450698
0.021639745
0.021827748
0.022010266
0.022183835
0.022346437
0.022496516
0.022632626
0.022754179
0.022861922
0.022960951
0.023058566
0.023152083
0.023238448
0.023322285
0.023408949
0.023499761
0.023601799
0.02372396
0.023864437
0.024009727
0.024137883
0.024219058
0.024240788
0.024188019
0.024032522
0.023755285
0.023370882
0.022900522
0.02233384
0.021695635
0.021127923
0.020906801
0.021216725
0.021789443
0.022133012
0.022042134
0.022032031
0.022289091
0.022498261
0.019509442
0.019721065
0.019879453
0.020041879
0.02021005
0.020384373
0.020565988
0.020755298
0.020950956
0.021149711
0.021347234
0.021539428
0.021723585
0.021896975
0.022057432
0.022202081
0.022331408
0.022451347
0.022569784
0.022687321
0.022801207
0.022916541
0.023041788
0.023183363
0.023339663
0.023509329
0.023693915
0.023874441
0.024019177
0.024094607
0.024078797
0.023950367
0.023685148
0.023263786
0.022700056
0.022054857
0.021459112
0.021074482
0.021046995
0.021406032
0.021958082
0.022407825
0.022639034
0.023098615
0.023510051
0.023456148
0.022450195
0.021694674
0.018651103
0.018854891
0.019000268
0.019151517
0.01930795
0.019468781
0.019635594
0.019811589
0.019998946
0.020197688
0.020405323
0.02061803
0.020830973
0.021041868
0.021248903
0.021446745
0.021630158
0.021795772
0.021949976
0.022101933
0.022254093
0.022408772
0.022567861
0.022737018
0.022923101
0.023124328
0.02333171
0.023529106
0.023699537
0.023813373
0.023838363
0.023752254
0.02352085
0.023151831
0.0226795
0.022185763
0.021759052
0.02149166
0.021471133
0.021791026
0.022324433
0.022703781
0.023039775
0.023468515
0.023381841
0.022825734
0.021362307
0.020705387
0.022095458
0.017821297
0.018016655
0.018146693
0.018283906
0.01842585
0.01857067
0.018719103
0.01887531
0.019044145
0.019229152
0.019430505
0.019645478
0.019870632
0.020103576
0.020341955
0.020583197
0.020820615
0.021044805
0.021252729
0.021450908
0.021649127
0.021852884
0.022056572
0.022260425
0.02247362
0.022696002
0.022918181
0.023136169
0.023323693
0.02345325
0.023509198
0.023488052
0.023366527
0.023156589
0.022873912
0.022551714
0.022284521
0.022128192
0.02214345
0.022293487
0.02237989
0.022430514
0.022419506
0.022277777
0.021739434
0.02088371
0.01968901
0.018771354
0.01652057
0.017024152
0.017218494
0.017340698
0.017468929
0.017598796
0.017729453
0.017862235
0.018000235
0.018149183
0.018314029
0.018497692
0.018698272
0.018915033
0.019147436
0.019393926
0.019653026
0.019919723
0.020185937
0.020446412
0.020702749
0.020959669
0.021219483
0.021480417
0.021743226
0.02200377
0.022251188
0.022501973
0.022742981
0.022945819
0.023098211
0.023202558
0.023259438
0.023275899
0.023250565
0.023163498
0.023024457
0.022885989
0.022780862
0.022636799
0.022352772
0.02195409
0.021486989
0.020850518
0.020219975
0.019708138
0.019486938
0.019679621
0.019928195
0.019596161
0.016255294
0.016451447
0.0165704
0.016698875
0.016827039
0.016953855
0.017080928
0.017209971
0.017345859
0.017493527
0.01765476
0.017831477
0.018025071
0.018235998
0.018466051
0.018715597
0.018982365
0.019263075
0.019556069
0.019860534
0.020175044
0.020496308
0.020821767
0.02114929
0.021477429
0.021806095
0.02212604
0.022413327
0.022642787
0.022806913
0.02294579
0.023072672
0.023204011
0.023316242
0.023369391
0.023340518
0.02319988
0.022908569
0.022467684
0.021909849
0.021120232
0.020179057
0.019365847
0.019061501
0.019489978
0.020042002
0.019992745
0.019350128
0.018438833
0.01549709
0.015698767
0.015821435
0.015956663
0.016093471
0.016228999
0.016362054
0.016494536
0.016627322
0.01676318
0.016905701
0.017058173
0.017222789
0.017403158
0.017602707
0.017825961
0.018074443
0.018349271
0.018650902
0.018978601
0.019330816
0.0197065
0.020104315
0.020518089
0.020931124
0.021334893
0.02173267
0.022103211
0.022394761
0.022602523
0.02275642
0.022903335
0.023057258
0.023193721
0.023277671
0.023243513
0.023030355
0.022625436
0.022023648
0.021226066
0.020306234
0.019596483
0.019346056
0.019594929
0.019714881
0.019451449
0.019369999
0.019951614
0.020510435
0.014752816
0.014958145
0.01508326
0.015227704
0.01537723
0.01552737
0.015675393
0.01581862
0.015956541
0.016089996
0.016223234
0.016360755
0.016507099
0.016665082
0.016839249
0.01703415
0.017255595
0.017509625
0.017800259
0.018127578
0.018489981
0.018891597
0.019339888
0.019832548
0.020347578
0.020849802
0.021309874
0.021718339
0.022067322
0.022347644
0.02253693
0.022649308
0.02274333
0.022844228
0.022892637
0.022823492
0.022583124
0.022157144
0.021573865
0.020912286
0.020298581
0.01990012
0.019822198
0.019990046
0.019827097
0.019557875
0.019630218
0.020443574
0.021910908
0.014052935
0.014253037
0.014376118
0.014526588
0.014683835
0.014843919
0.015004141
0.015158385
0.015305766
0.015445689
0.015582885
0.015721257
0.015863561
0.0160116
0.016169516
0.016343733
0.016542599
0.016773158
0.017040051
0.017344052
0.017690542
0.018089922
0.018551675
0.019077407
0.0196526
0.020242522
0.02080023
0.021285736
0.02167653
0.021951894
0.022113101
0.02218558
0.022236021
0.022314841
0.022371336
0.022337684
0.022180321
0.021917051
0.021611682
0.021231417
0.020731175
0.020230878
0.020064832
0.020289228
0.020462022
0.020270907
0.020673835
0.022016554
0.021203102
0.013437654
0.013620212
0.013729358
0.01387127
0.014027065
0.014191558
0.014356737
0.014520779
0.014677623
0.014829165
0.014975292
0.015119372
0.015261416
0.015405706
0.015556679
0.015721211
0.015907666
0.016122959
0.016372024
0.016660993
0.016998498
0.017389753
0.017838883
0.018347829
0.018919336
0.019542817
0.020161975
0.020726122
0.021170645
0.021481059
0.021632682
0.021695911
0.021739696
0.021832328
0.021992167
0.022123858
0.022162012
0.022107381
0.021959397
0.021704275
0.021294426
0.020784122
0.020444389
0.020477428
0.020743225
0.021090731
0.021801614
0.021805057
0.018898862
0.012921479
0.013076204
0.013161518
0.013283831
0.013423001
0.013576637
0.013742998
0.013916148
0.014090163
0.014254679
0.01441273
0.014563022
0.014708472
0.014851903
0.014999633
0.015160184
0.015342632
0.01555508
0.01580403
0.016096434
0.016439853
0.016840633
0.017297565
0.017793909
0.018315442
0.018862972
0.019465807
0.019963688
0.02045556
0.020916517
0.021164601
0.021323523
0.021447579
0.021590929
0.021796095
0.021988675
0.022120007
0.022178605
0.022187146
0.022201255
0.022021637
0.021450181
0.020673281
0.020197331
0.020237058
0.020989204
0.022010563
0.022188395
0.02160081
0.012484788
0.012610886
0.01267013
0.01276925
0.012887953
0.013026805
0.013185077
0.013357578
0.013537517
0.01371999
0.013899646
0.014072691
0.014234163
0.014391255
0.014551011
0.014719164
0.01490541
0.015117931
0.015362985
0.015649061
0.015981957
0.016367013
0.016804268
0.017291609
0.017819344
0.018358163
0.018861858
0.019407373
0.019860994
0.020149436
0.020554917
0.020937317
0.021213044
0.021455936
0.021704135
0.021892258
0.022051607
0.022245964
0.02252212
0.022662429
0.022503089
0.02179343
0.020677374
0.019729326
0.019519556
0.020655184
0.022980779
0.025163642
0.027238291
0.012097853
0.012202811
0.012243096
0.01232383
0.012424052
0.012546698
0.012693579
0.012862269
0.013048383
0.01324527
0.013444687
0.01364192
0.013838904
0.01403583
0.01422761
0.014420363
0.014625548
0.014842852
0.015084804
0.015356813
0.015666433
0.016021169
0.016424511
0.016878404
0.017375741
0.017905292
0.018423267
0.01890341
0.019331483
0.019789807
0.020210204
0.02052171
0.020839431
0.021355835
0.021775642
0.022006917
0.022208777
0.022357581
0.02251832
0.022693212
0.022463327
0.021726643
0.020805917
0.020123652
0.019998233
0.021251371
0.024702059
0.02897513
0.026858717
0.011754283
0.011847602
0.011880746
0.011953852
0.012044796
0.012157388
0.012294646
0.012458854
0.01264779
0.012856331
0.013079262
0.013309794
0.013543665
0.013777168
0.014013794
0.014253213
0.014487515
0.014731672
0.014994181
0.015274528
0.015583789
0.01592154
0.016292398
0.016695208
0.017128309
0.017591359
0.018074426
0.018557973
0.019019723
0.019453051
0.019888911
0.020393302
0.020942278
0.021333815
0.02161978
0.022077985
0.02231406
0.022311383
0.022401094
0.022485384
0.022276478
0.02170524
0.021183492
0.021227324
0.021821933
0.022830659
0.02398746
0.023705333
0.019920948
0.011469207
0.01156023
0.011597408
0.011675414
0.011770676
0.011885374
0.012021667
0.012184437
0.012374049
0.012589313
0.012828498
0.013085788
0.013354611
0.013628744
0.013904694
0.014179869
0.014459785
0.014746265
0.015037018
0.015349136
0.015681687
0.016035217
0.016408176
0.016790417
0.01716801
0.017526538
0.01789933
0.018343304
0.018844709
0.019383168
0.019932329
0.020430569
0.020912469
0.021409569
0.021883269
0.022139924
0.022135229
0.022265692
0.022345381
0.022299845
0.022133117
0.021885742
0.021749422
0.02206144
0.022642469
0.022655718
0.021132902
0.01951674
0.019653514
0.01171985
0.011869565
0.012040818
0.012234548
0.012451779
0.012695494
0.012963826
0.013252021
0.013553647
0.013862348
0.014173101
0.014485061
0.01480185
0.015133143
0.015481459
0.015843292
0.016222029
0.016611406
0.017007597
0.017403569
0.01778916
0.018150218
0.018503299
0.018911213
0.019385175
0.019832917
0.020213151
0.02078557
0.021435954
0.021882705
0.022128533
0.022315903
0.022332106
0.0222309
0.022041935
0.021934863
0.022000614
0.02217366
0.022333527
0.022309309
0.021902512
0.021078551
0.020667365
0.019951658
0.012929572
0.013220285
0.013529506
0.013854431
0.014194385
0.014544253
0.01490091
0.015266808
0.015645362
0.016040956
0.016446769
0.01684969
0.017246455
0.017631684
0.018003806
0.018352035
0.018673562
0.018980548
0.01929791
0.019685608
0.020220106
0.020769197
0.021218295
0.021738858
0.022177773
0.022458048
0.022455897
0.022253143
0.021911809
0.021684822
0.021809588
0.022133754
0.022416785
0.02243193
0.021999829
0.021232227
0.020817403
0.023242817
0.014619766
0.015004932
0.015398351
0.01579969
0.01620954
0.016622813
0.017035577
0.017437187
0.017819901
0.018172837
0.018491194
0.018782458
0.019074062
0.019410649
0.019818174
0.020289436
0.020680692
0.021136029
0.021652905
0.022053746
0.022496411
0.022726709
0.022488125
0.022003363
0.021677907
0.021510167
0.021660242
0.022049407
0.022192091
0.021963515
0.021751528
0.024118265
0.026453314
0.016326061
0.016747732
0.017168135
0.017580479
0.017976464
0.018344371
0.018676041
0.018970578
0.019246212
0.019538079
0.019890843
0.020346441
0.020795763
0.021131812
0.021505248
0.022062452
0.022517866
0.0227315
0.022636257
0.02219677
0.021577778
0.021124864
0.021030613
0.021379254
0.021909791
0.022063518
0.022084103
0.024130247
0.021022167
0.018580076
0.018934428
0.019244807
0.019522218
0.019785731
0.02006291
0.020363482
0.020727563
0.021137033
0.021470195
0.021820485
0.022239061
0.022577365
0.022636969
0.02239302
0.021769017
0.021158155
0.020647157
0.020461529
0.020968898
0.021653329
0.021360728
0.021692116
0.020235142
0.020114565
0.020370931
0.020635561
0.020878986
0.021114906
0.021418638
0.021700696
0.021915014
0.022214735
0.02246526
0.022518154
0.022262965
0.021586614
0.020673123
0.019911722
0.019941811
0.020907523
0.021215213
0.021083935
0.020296511
0.021306238
0.021421446
0.021572111
0.021785954
0.021980956
0.022202305
0.022369916
0.022293943
0.02183932
0.020972513
0.020132664
0.01949351
0.019643761
0.020533068
0.020645437
0.0208675
0.021709438
0.02179137
0.021783437
0.021796206
0.021836221
0.021839656
0.02165139
0.020863693
0.019566962
0.018867114
0.019157538
0.019986732
0.021057974
0.021373813
0.021412034
0.021579066
0.021537288
0.021190268
0.020315016
0.019185968
0.018834245
0.01966886
0.020661097
0.021028146
0.021022203
0.02096376
0.020732063
0.019618585
0.018960735
0.019739268
0.020909413
0.020113308
0.019719723
0.019743526
0.020653339
0.019872481
0.027972832
)
;

boundaryField
{
    Side
    {
        type            empty;
    }
    Inlet
    {
        type            calculated;
        value           nonuniform List<scalar> 
25
(
0.018178531
0.017824233
0.017465375
0.017532104
0.017695836
0.017996234
0.018282716
0.018058926
0.017934884
0.018370423
0.018581594
0.018318162
0.018401971
0.018578049
0.018857329
0.018891667
0.018797898
0.019077323
0.019422639
0.019524795
0.019662306
0.019961183
0.020490503
0.02060457
0.020646921
)
;
    }
    Airfoil
    {
        type            calculated;
        value           nonuniform List<scalar> 0();
    }
    Outlet
    {
        type            calculated;
        value           nonuniform List<scalar> 0();
    }
    procBoundary12to4
    {
        type            processor;
        value           uniform 0.028013876;
    }
    procBoundary12to5
    {
        type            processor;
        value           nonuniform List<scalar> 
30
(
0.027823258
0.027576451
0.027246425
0.026832879
0.02634515
0.025796439
0.025198721
0.024562774
0.023900888
0.02322616
0.022553559
0.021877077
0.021158854
0.020371946
0.019531947
0.018682152
0.017852793
0.017050448
0.016275902
0.015513249
0.014764209
0.014059039
0.01344208
0.012932547
0.012507135
0.012130349
0.011789529
0.011497183
0.027976579
0.027823258
)
;
    }
    procBoundary12to6
    {
        type            processor;
        value           uniform 0.011233287;
    }
    procBoundary12to11
    {
        type            processor;
        value           nonuniform List<scalar> 
65
(
0.028007559
0.02797834
0.027951846
0.027915907
0.027910236
0.027910236
0.02787717
0.027837395
0.027791914
0.027744729
0.027696543
0.027651747
0.027651747
0.027604699
0.027553169
0.027497796
0.027438608
0.027304798
0.027304798
0.027222738
0.027125198
0.027009264
0.026727513
0.026727513
0.026588131
0.026424856
0.026234047
0.025925557
0.025925557
0.025732386
0.025519786
0.025305926
0.025053604
0.025053604
0.024834352
0.024604122
0.024293332
0.024293332
0.024073357
0.02391842
0.023667308
0.023667308
0.023647826
0.023451582
0.023451582
0.023573133
0.023722029
0.023994818
0.023994818
0.024162805
0.023908899
0.023908899
0.023818342
0.022845016
0.022845016
0.021574364
0.021574364
0.02134016
0.021627488
0.021627488
0.021868324
0.021868324
0.021471589
0.024094841
0.024094841
)
;
    }
    procBoundary12to13
    {
        type            processor;
        value           nonuniform List<scalar> 
60
(
0.011330144
0.011380377
0.011474694
0.011588005
0.011588005
0.011603473
0.011782675
0.011978546
0.012189649
0.012415362
0.012661055
0.012661055
0.012955379
0.01324813
0.01356083
0.013894188
0.014248345
0.014248345
0.014685865
0.015081436
0.015490577
0.015906616
0.015906616
0.016452574
0.016889422
0.017328747
0.01776434
0.018185737
0.018185737
0.018886121
0.01925222
0.019573437
0.019855548
0.019855548
0.020446448
0.020676974
0.020911993
0.021145143
0.021145143
0.021459694
0.021563975
0.021617048
0.021617048
0.021728182
0.021625895
0.021499556
0.021499556
0.021448699
0.021244187
0.021098658
0.021098658
0.021040747
0.021097475
0.021192072
0.021192072
0.020753957
0.02041674
0.02041674
0.021179268
0.020356173
)
;
    }
}


// ************************************************************************* //
