/*--------------------------------*- C++ -*----------------------------------*\
| =========                 |                                                 |
| \\      /  F ield         | OpenFOAM: The Open Source CFD Toolbox           |
|  \\    /   O peration     | Version:  2506                                  |
|   \\  /    A nd           | Website:  www.openfoam.com                      |
|    \\/     M anipulation  |                                                 |
\*---------------------------------------------------------------------------*/
FoamFile
{
    version     2.0;
    format      ascii;
    arch        "LSB;label=32;scalar=64";
    class       volScalarField;
    location    "0.0065";
    object      k;
}
// * * * * * * * * * * * * * * * * * * * * * * * * * * * * * * * * * * * * * //

dimensions      [0 2 -2 0 0 0 0];

internalField   nonuniform List<scalar> 
13761
(
32.365985
32.405237
32.387625
32.307468
32.160042
31.94031
31.642591
31.260324
30.785793
30.209571
29.519574
28.699781
27.728576
26.576888
25.206503
23.568856
21.604256
19.240911
16.390369
12.935934
8.7139191
3.2169012
0.40874066
0.10640136
0.028182971
0.014945082
0.088033382
0.3587714
1.0396665
2.4002018
4.6313146
7.6327681
10.996318
14.276813
17.21413
19.731181
21.849308
23.62587
25.122172
26.391204
27.475241
28.406661
29.209779
29.903144
30.501056
31.014183
31.450573
31.816304
32.115739
32.351891
32.526599
32.640756
32.693242
32.682524
32.606042
32.460175
32.240438
31.941407
31.556619
31.078378
30.497239
29.801072
28.973767
27.993557
26.831131
25.447888
23.794694
21.811089
19.424326
16.54494
13.055411
8.7911738
3.244182
0.41178116
0.028632964
0.015227437
0.089777538
0.3658544
1.0598929
2.4453277
4.7129046
7.7549002
11.153697
14.460398
17.416154
19.94643
22.074557
23.859167
25.362319
26.637448
27.727087
28.66378
29.471938
30.170168
30.772791
31.290471
31.731225
32.101073
32.404289
32.643758
32.821116
32.936848
32.990386
32.980126
32.903446
32.756675
32.535292
32.233854
31.845888
31.363672
30.777709
30.075769
29.241593
28.253211
27.080997
25.685877
24.018089
22.016377
19.606839
16.698918
13.174338
8.8670719
0.0289757
0.015489595
0.091479694
0.37276141
1.0795097
2.4887767
4.7908636
7.8708797
11.302676
14.634273
17.608189
20.152161
22.291189
24.084965
25.596152
26.878536
27.974859
28.917775
29.73175
30.43541
31.04307
31.565368
32.010284
32.383792
32.69012
32.93212
33.1114
33.228441
33.282678
33.272529
33.195413
33.047706
32.824927
32.521651
32.131392
31.646384
31.057016
30.350852
29.511385
28.516376
27.335713
25.929818
24.248374
22.229124
19.79662
16.859723
0.029378749
0.01576034
0.093185008
0.37968726
1.0992595
2.5327371
4.8701014
7.9891339
11.454812
14.811802
17.803983
20.361444
22.510996
24.313442
25.832086
27.121071
28.223332
29.171618
29.990436
30.698423
31.309895
31.835481
32.283157
32.658901
32.966963
33.210232
33.390387
33.507984
33.562523
33.552495
33.475393
33.327653
33.1048
32.80136
32.410726
31.925004
31.334316
30.626001
29.783327
28.783247
27.594667
26.178477
24.484085
0.029638787
0.015996954
0.094771515
0.38612092
1.1175091
2.5730765
4.9423404
8.0964329
11.592703
14.973143
17.982837
20.553791
22.714259
24.525911
26.052546
27.348596
28.45716
29.411084
30.234927
30.947368
31.562756
32.091755
32.542379
32.920653
33.230887
33.47605
33.657982
33.777297
33.833491
33.825148
33.749851
33.60409
33.383398
33.082243
32.693782
32.209309
31.618159
30.908669
30.064795
0.030024824
0.016266383
0.096485074
0.39307515
1.1373019
2.6169964
5.0211705
8.2135471
11.742848
15.147991
18.175379
20.759269
22.929631
24.749211
26.282449
27.584144
28.697622
29.655865
30.483519
31.199327
31.81771
32.34941
32.802547
33.183268
33.495979
33.743622
33.927488
34.047589
34.104658
34.097686
34.024335
33.881049
33.663357
33.365969
32.983119
0.03032914
0.016515896
0.098133479
0.39975582
1.1562211
2.6586967
5.0954783
8.323297
11.883125
15.311359
18.355758
20.952563
23.13321
24.961332
26.501906
27.810027
28.929201
29.892525
30.724723
31.444625
32.066762
32.602063
33.058957
33.444161
33.76333
34.022822
0.084470472
0.049594239
0.30220223
1.2256046
3.4814651
7.6671151
13.650602
20.382428
26.745464
32.192514
36.650972
40.246848
43.147325
45.504194
47.438215
49.039651
50.374164
51.488648
52.416224
53.180635
53.798917
54.283047
54.641147
54.878381
54.997515
54.999449
54.88347
54.647498
54.288351
53.802035
53.184136
52.430242
51.536466
50.499779
49.317986
47.990966
46.516711
44.893252
43.1155
41.172904
39.047049
36.709742
34.121961
31.234205
27.989089
24.324265
20.171801
15.449171
10.040709
0.084501867
0.049696111
0.30296236
1.2286367
3.4896686
7.6836659
13.676565
20.416162
26.784755
32.235956
36.697887
40.296917
43.200346
45.559996
47.496616
49.100431
50.437056
51.553339
52.482371
53.247875
53.866928
54.350975
54.708128
54.943546
55.059965
55.058249
54.937657
54.696104
54.330444
53.836762
53.210778
52.448282
51.54567
50.500283
49.310414
47.974954
46.493142
44.863025
43.079523
41.132103
39.002353
36.662052
34.07215
31.183142
27.937679
24.273442
20.122451
15.401824
9.9948498
3.3968521
0.35124707
0.091339724
0.066969043
0.064925245
0.064620299
0.064264268
0.063910701
0.06378647
0.064133246
0.065043923
0.065871268
0.065900742
0.065775038
0.066171054
0.065887954
0.064992417
0.064945837
0.06549726
0.06522852
0.064081478
0.063635648
0.064046491
0.064708796
0.065084451
0.065201821
0.065215583
0.065199618
0.065177908
0.065156538
0.065140389
0.065125003
0.065098973
0.065103565
0.065051634
0.065045445
0.06508122
0.064932381
0.06494474
0.065109122
0.06487939
0.084542942
0.049806563
0.30378089
1.2319115
3.4985746
7.7017541
13.705157
20.453565
26.828523
32.284434
36.750219
40.352662
43.259232
45.621783
47.561046
49.167199
50.505789
51.623602
52.553661
53.31963
53.938488
54.422011
54.778022
55.011534
55.125204
55.119846
54.994685
54.747629
54.375564
53.874645
53.240703
52.469664
51.558086
50.503487
49.304318
47.960132
46.470322
44.833069
43.043404
41.090876
38.957113
36.61387
34.022021
31.131986
27.886402
24.222951
20.073539
15.354859
9.9489106
3.3662149
0.34722567
0.091218226
0.066974856
0.06494169
0.064636846
0.064281949
0.063933056
0.063809906
0.064153981
0.065058894
0.065881731
0.065911304
0.065785812
0.066179782
0.065898266
0.065008386
0.064961792
0.065509374
0.065242806
0.064103735
0.063661866
0.064068352
0.064726193
0.065100097
0.06521705
0.065230998
0.065215278
0.06519381
0.065172563
0.065156467
0.065141146
0.065115308
0.06511958
0.065068012
0.065061784
0.065097261
0.064949297
0.064961753
0.065125142
0.064896492
0.064656179
0.064976019
0.065177805
0.064819364
0.064471663
0.064749265
0.065378327
0.06594326
0.06627999
0.084580115
0.049909506
0.30454332
1.2349617
3.5068704
7.7185993
13.731745
20.488273
26.869048
32.329235
36.798515
40.404069
43.313515
45.678738
47.620446
49.228769
50.569196
51.688446
52.619491
53.385953
54.004788
54.487511
54.841996
55.073254
55.183923
55.174799
55.045106
54.79277
54.414711
53.907135
53.265941
52.487143
51.567372
50.504179
49.296704
47.944427
46.446999
44.802791
43.007011
41.04935
38.911533
36.565355
33.971635
31.080679
27.835084
24.172498
20.024666
15.307831
9.9025205
3.33391
0.342831
0.091039993
0.066977398
0.064957713
0.064653461
0.064299675
0.063954925
0.063832828
0.064173738
0.065073548
0.065892081
0.065922159
0.065796847
0.066188812
0.065909044
0.065024524
0.064977812
0.065521752
0.065257308
0.064125557
0.063687291
0.064089904
0.064743537
0.065115729
0.065232243
0.065246319
0.065230865
0.065209627
0.065188482
0.065172401
0.065157137
0.065131501
0.065135456
0.065084269
0.065078043
0.065113315
0.064966207
0.064978843
0.065141376
0.064913857
0.06467608
0.06499365
0.065194738
0.064838205
0.06449299
0.064769064
0.06539383
0.065954842
0.066288167
0.066380767
0.066394545
0.066517663
0.066561443
0.066716619
0.08462063
0.050011998
0.30529706
1.2379759
3.5150651
7.7352296
13.75796
20.522424
26.908807
32.373043
36.845561
40.453952
43.365992
45.733585
47.6774
49.287515
50.629368
51.749611
52.68115
53.447554
54.065744
54.547202
54.899774
55.128441
55.235815
55.22268
55.088269
54.83055
54.446498
53.932381
53.284181
52.498006
51.570585
50.499916
49.284973
47.925417
46.421089
44.77055
42.969168
41.006772
38.865194
36.516319
33.920897
31.029168
27.783611
24.121862
19.975508
15.260389
9.855485
3.3005777
0.33824278
0.090846465
0.066981118
0.064974676
0.064671096
0.064318445
0.06397458
0.063853877
0.064191434
0.065088797
0.065902845
0.06593361
0.065808558
0.066198308
0.065920389
0.065041814
0.064994965
0.065535164
0.065272874
0.064148683
0.063713699
0.064112833
0.064762188
0.065132615
0.065248614
0.06526273
0.065247609
0.065226665
0.06520574
0.065189567
0.065174334
0.06514898
0.065152628
0.065101879
0.065095713
0.06513077
0.064984588
0.064997488
0.065159076
0.064932725
0.064696025
0.065011345
0.065211719
0.064856925
0.064514364
0.064789071
0.065409168
0.065965836
0.066295862
0.066388953
0.06640317
0.066527427
0.066570481
0.066720485
0.066961614
0.066805882
0.066901741
0.084667656
0.05011548
0.3060505
1.2409883
3.523253
7.7518308
13.78409
20.556391
26.948245
32.416347
36.891891
40.502884
43.417265
45.786967
47.732627
49.344252
50.687213
51.808126
52.739849
53.505881
54.123075
54.602916
54.953217
55.178959
55.282753
55.265374
55.126049
54.862777
54.472601
53.951869
53.296613
52.502942
51.568199
50.490529
49.268714
47.902529
46.391968
44.73575
42.92938
40.962787
38.817891
36.466433
33.869362
30.977126
27.731795
24.070679
19.925629
15.212083
9.8074063
3.266303
0.3334922
0.09061647
0.066975808
0.064990664
0.064688327
0.064336861
0.063989291
0.063869966
0.064204915
0.065103394
0.065912929
0.065944363
0.06581966
0.066207168
0.065930973
0.065058874
0.065012061
0.065548349
0.065288144
0.064172371
0.063740855
0.064136382
0.064781021
0.065149516
0.06526518
0.065279487
0.065264454
0.065243777
0.065223435
0.065207127
0.06519189
0.065166954
0.065170308
0.065120065
0.065113974
0.065148727
0.065003568
0.065016731
0.065177113
0.06495195
0.064717289
0.065030144
0.06522954
0.064876522
0.064536928
0.064810275
0.065424748
0.065976529
0.066303921
0.066396337
0.066410478
0.066536141
0.066578049
0.066723672
0.066956672
0.066797714
0.066892076
0.067204246
0.066881544
0.066666882
0.084728227
0.050223752
0.30682552
1.2440843
3.5316624
7.7688392
13.810754
20.59087
26.988014
32.459689
36.937902
40.551089
43.467363
45.838702
47.785716
49.398363
50.741933
51.862943
52.794191
53.559165
54.174714
54.652289
54.999621
55.221689
55.321126
55.29876
55.153877
54.884538
54.487854
53.960261
53.297883
52.497551
51.556349
50.472323
49.244462
47.872656
46.356971
44.696196
42.885901
40.916074
38.768333
36.414655
33.816283
30.923627
27.678802
24.018381
19.87421
15.161796
9.7568045
3.2296188
0.32843646
0.090379356
0.066971329
0.065005204
0.064703907
0.064353567
0.064000202
0.063881607
0.06421499
0.065116609
0.065922025
0.065953989
0.065829602
0.06621522
0.065940495
0.065074377
0.065027836
0.065560504
0.065302069
0.064195031
0.063767498
0.064159083
0.064798713
0.065165222
0.065280616
0.065295129
0.065280415
0.065259844
0.065240076
0.065223943
0.065208725
0.065184159
0.065187407
0.065137627
0.065131656
0.065166013
0.065021851
0.065035235
0.06519421
0.064970153
0.06473861
0.065048803
0.065246882
0.064895733
0.064559299
0.064831182
0.065439577
0.065986732
0.066312786
0.066403994
0.066417695
0.066544992
0.066585578
0.066726643
0.066951062
0.06678751
0.066879665
0.067191705
0.066869894
0.066655894
0.067005828
0.067403545
0.067154684
0.084805127
0.050336038
0.30761446
1.2472331
3.5402122
7.7861088
13.837754
20.62565
27.027951
32.502977
36.983551
40.59856
43.516315
45.888854
47.836775
49.449991
50.793735
51.914472
52.844935
53.608536
54.222046
54.696926
55.040742
55.258615
55.353237
55.325451
55.174557
54.898627
54.494779
53.959765
53.290248
52.48274
51.534441
50.443576
49.209365
47.8319
46.31134
44.646481
42.832867
40.860143
38.710243
36.355288
33.756312
30.863627
27.619469
23.961003
19.819389
15.108964
9.7038088
3.1910917
0.32317757
0.090114796
0.066958351
0.065017436
0.064717691
0.064368334
0.064010354
0.063891892
0.064224416
0.065129008
0.065930663
0.065962908
0.065838713
0.066223016
0.065949255
0.065088082
0.065042142
0.065571846
0.06531455
0.064215355
0.063792216
0.064179972
0.064814952
0.065179436
0.065294545
0.065309352
0.065294912
0.065274648
0.065255122
0.065239439
0.065224258
0.065200032
0.065203308
0.065153873
0.065148115
0.065182052
0.065038734
0.065052281
0.06520989
0.064986808
0.064758548
0.065066261
0.065263007
0.064913645
0.064580331
0.064850753
0.065453772
0.065997073
0.066322548
0.066412587
0.066425439
0.066553759
0.066592412
0.066727083
0.066944559
0.066776339
0.06686635
0.067175091
0.066854576
0.066641947
0.066993481
0.067389346
0.067143245
0.066382014
0.065664444
0.084850734
0.050433174
0.30831851
1.2500442
3.5478409
7.8015268
13.861904
20.656854
27.063905
32.542067
37.02485
40.64151
43.560509
45.933929
47.882357
49.495657
50.838999
51.958789
52.887709
53.64913
54.259809
54.7312
55.070998
55.284076
55.373334
55.339806
55.182974
54.901086
54.491421
53.950598
53.275011
52.461258
51.506646
50.409502
49.169186
47.786022
46.260436
44.591416
42.774436
40.799333
38.648093
36.292612
33.693727
30.801678
27.558818
23.902833
19.763821
15.055758
9.6507812
3.1534851
0.31815236
0.089849481
0.066948716
0.065029317
0.064730737
0.064382329
0.064022448
0.063903655
0.064235261
0.065140693
0.065939113
0.065971548
0.065847384
0.066230752
0.065957811
0.065100822
0.065055497
0.065582701
0.065326395
0.064233849
0.063814708
0.06419923
0.064829994
0.065192782
0.065307527
0.0653227
0.06530842
0.06528861
0.065269216
0.065253966
0.065238885
0.065214985
0.065218293
0.065169149
0.065163587
0.065197074
0.065054355
0.065068007
0.065224305
0.065002105
0.064776554
0.065082383
0.065278122
0.064930549
0.064600115
0.064869209
0.065467779
0.066007692
0.066332337
0.066421871
0.066433323
0.066561143
0.066596659
0.066725562
0.066935516
0.066763501
0.066851834
0.067157507
0.066838688
0.066628064
0.06697767
0.067370908
0.067128335
0.066374646
0.065660009
0.065328888
0.065201082
0.084849947
0.050513495
0.30893744
1.2525159
3.5545389
7.8150647
13.883179
20.684529
27.096101
32.577466
37.062663
40.681212
43.601662
45.976096
47.925067
49.538396
50.88122
51.9999
52.927082
53.686118
54.293763
54.761492
55.097113
55.305606
55.389815
55.350849
55.188278
54.900424
54.484641
53.937568
53.25569
52.435675
51.474905
50.371819
49.125944
47.737768
46.207839
44.535241
42.715438
40.738567
38.58648
36.230911
33.632578
30.741658
27.500532
23.846472
19.709868
15.004129
9.5993616
3.1179471
0.31351835
0.089573375
0.066933898
0.065040648
0.06474371
0.064396392
0.064037421
0.063918372
0.064248653
0.065151787
0.065947251
0.065979828
0.065855606
0.066238033
0.065966078
0.065113129
0.065068293
0.065593078
0.065337846
0.064251502
0.063835471
0.064217403
0.064844298
0.065205494
0.065319922
0.065335371
0.065321291
0.065301896
0.065282745
0.065267827
0.065252998
0.065229416
0.06523283
0.065184025
0.065178647
0.065211745
0.065069481
0.065083134
0.065237993
0.065016414
0.064793065
0.065097463
0.065292526
0.064946942
0.064619394
0.064887136
0.065481726
0.066018085
0.066341047
0.066430496
0.066440108
0.066566089
0.066597069
0.066720687
0.066923876
0.066749357
0.06683634
0.067139238
0.066822693
0.06661447
0.066961826
0.067352069
0.067112952
0.066365522
0.065655287
0.065326062
0.065198532
0.065114331
0.08482009
0.050582719
0.30949657
1.2547445
3.5605499
7.8271571
13.902111
20.709121
27.124762
32.609118
37.096699
40.71725
43.639381
46.015157
47.965082
49.578904
50.921683
52.039712
52.965581
53.722605
54.327527
54.791834
55.123369
55.327253
55.406314
55.36163
55.192718
54.898094
54.47532
53.92122
53.232397
52.405665
51.438576
50.329743
49.078821
47.686372
46.152955
44.477421
42.65568
40.677765
38.525408
36.17024
33.572884
30.683442
27.444217
23.792243
19.657981
14.95445
9.549725
3.0841671
0.30923187
0.089326618
0.066926841
0.065052801
0.064756847
0.064410714
0.064054523
0.063935787
0.064264383
0.06516276
0.065955034
0.065987702
0.06586346
0.066244704
0.065973967
0.065125328
0.065080872
0.065603017
0.065348982
0.064269065
0.063855171
0.06423518
0.064858299
0.065217752
0.065331834
0.065347496
0.065333599
0.065314602
0.065295712
0.065281129
0.065266561
0.065243318
0.065246902
0.065198483
0.065193321
0.065226172
0.065084389
0.065098057
0.065251505
0.065030326
0.064808929
0.065111893
0.065306227
0.06496273
0.0646384
0.064904673
0.065495343
0.066027708
0.066348179
0.066437346
0.06644503
0.066567743
0.066595272
0.066712767
0.066910519
0.066734512
0.066820231
0.067120574
0.066806876
0.066601261
0.066946174
0.067333124
0.067097362
0.066356292
0.065650977
0.065323548
0.065196483
0.065111862
0.065094832
0.065130268
0.084767877
0.050638983
0.30997501
1.2566455
3.5656463
7.8373338
13.917919
20.729523
27.148465
32.635313
37.124957
40.747284
43.670918
46.047881
47.998607
49.612769
50.955351
52.072584
52.997015
53.751935
54.354077
54.814938
55.142372
55.34145
55.415011
55.364218
55.188992
54.887812
54.458284
53.897393
53.201927
52.368891
51.396023
50.282098
49.026885
47.630812
46.094442
44.417066
42.59443
40.616388
38.464541
36.110416
33.514544
30.626937
27.389792
23.739991
19.608013
14.906556
9.5016505
3.0516835
0.30518493
0.089082876
0.066915187
0.065064315
0.064769998
0.064425209
0.064072458
0.063954552
0.064281268
0.065173795
0.065962551
0.065995263
0.065871057
0.06625089
0.065981484
0.065137432
0.065093361
0.065612575
0.06535982
0.064286697
0.063873517
0.064252814
0.064872232
0.065229779
0.065343464
0.065359284
0.065345579
0.065326891
0.065308253
0.065293963
0.065279577
0.065256692
0.065260397
0.065212379
0.065207479
0.065240115
0.065098919
0.065112721
0.065264763
0.065044026
0.064824566
0.065126032
0.065319352
0.06497771
0.064656676
0.064921352
0.065508176
0.066036273
0.066353738
0.066442209
0.066447759
0.066567447
0.066590053
0.06670282
0.06689623
0.066719334
0.066803797
0.067101684
0.066791427
0.066588435
0.066930764
0.067314228
0.067081716
0.066346879
0.065646695
0.065321547
0.065194984
0.06511008
0.065092528
0.065127999
0.065181941
0.084687276
0.050680031
0.31036024
1.2581688
3.5696912
7.8453092
13.930155
20.745177
27.166593
32.655373
37.146664
40.770419
43.695235
46.073074
48.024304
49.638535
50.980689
52.096941
53.019793
53.7725
54.371776
54.829119
55.152411
55.346813
55.415148
55.358942
55.177844
54.870517
54.434706
53.867553
53.166012
52.327261
51.349233
50.230703
48.971447
47.572292
46.033956
44.355563
42.532686
40.555052
38.404165
36.05146
33.457379
30.571826
27.336822
23.689234
19.559537
14.860116
9.4549411
3.020325
0.30130733
0.088860573
0.066910036
0.065076191
0.064782978
0.064439568
0.064090226
0.063973342
0.064298236
0.065184919
0.065969815
0.066002446
0.065878323
0.066256672
0.065988487
0.065149134
0.065105602
0.065621766
0.065370254
0.064304234
0.063889505
0.064270156
0.064886079
0.065241609
0.065354801
0.065370779
0.065357278
0.065338777
0.06532041
0.06530631
0.06529209
0.065269509
0.065273246
0.065225626
0.065220997
0.065253387
0.065112876
0.065126925
0.065277631
0.065057423
0.064839911
0.065139768
0.065331788
0.064991896
0.064673943
0.064936722
0.065519646
0.066043501
0.066357912
0.066444697
0.06644842
0.066564945
0.066581974
0.066691376
0.066881465
0.066704028
0.066787169
0.067082661
0.066776369
0.066575932
0.066915569
0.067295498
0.06706611
0.066337375
0.065642407
0.065319613
0.065193559
0.065108916
0.065090981
0.065126442
0.065179747
0.06519114
0.084583719
0.050706512
0.31065224
1.2593143
3.5726888
7.8511081
13.938875
20.756164
27.179225
32.669364
37.161877
40.786716
43.712414
46.090858
48.042349
49.656435
50.997986
52.113133
53.03435
53.784882
54.381453
54.835581
55.155097
55.345202
55.408965
55.347646
55.161221
54.848449
54.407156
53.834593
53.127833
52.284171
51.30152
50.178977
48.91655
47.515029
45.975084
44.295768
42.472602
40.495264
38.345206
35.993806
33.401427
30.517867
27.284956
23.63956
19.512138
14.814761
9.4093554
2.9899551
0.29754431
0.088619887
0.066896506
0.065086856
0.064795412
0.064453416
0.064107273
0.063991467
0.064314772
0.065195877
0.06597667
0.06600914
0.065885135
0.066262034
0.065994877
0.06516023
0.065117383
0.065630525
0.065380068
0.06432119
0.063902937
0.064286905
0.064899609
0.06525306
0.065365716
0.065381766
0.065368461
0.0653501
0.065331963
0.06531798
0.065303894
0.065281519
0.065285264
0.065238024
0.06523368
0.065265822
0.065126069
0.065140463
0.065290011
0.065070435
0.064854765
0.065153121
0.065343276
0.065005129
0.064689964
0.064950805
0.065529485
0.066048911
0.066360659
0.066445028
0.066447448
0.066559604
0.066571929
0.066678809
0.066866468
0.066688696
0.066770503
0.067063635
0.066761606
0.066563686
0.066900547
0.067276983
0.06705059
0.066327858
0.06563811
0.06531768
0.065192147
0.065107834
0.065090019
0.06512545
0.06517817
0.065188953
0.0651704
0.065149334
0.084455884
0.050717812
0.31084712
1.2600674
3.5745969
7.8546506
13.943969
20.762352
27.186226
32.677147
37.170453
40.796013
43.722264
46.101003
48.052454
49.666109
51.006796
52.120618
53.040011
53.78826
54.382049
54.83284
55.148703
55.334928
55.394583
55.329006
55.138081
54.820665
54.374752
53.797699
53.08665
52.238958
51.252773
50.127222
48.862324
47.458857
45.917494
44.237295
42.413789
40.436647
38.287299
35.937078
33.346285
30.464627
27.23377
23.590541
19.4654
14.770111
9.3645908
2.960297
0.29386423
0.088392637
0.066889654
0.065097502
0.064807089
0.064466425
0.06412332
0.064008654
0.064330637
0.065206489
0.06598295
0.066015219
0.06589143
0.066266879
0.066000558
0.065170578
0.065128522
0.065638637
0.065389027
0.064337186
0.063915064
0.064302792
0.064912456
0.065263755
0.065375881
0.065391974
0.065378803
0.065360568
0.065342598
0.065328691
0.065314716
0.065292416
0.065296239
0.065249305
0.065245281
0.065277179
0.065138225
0.06515311
0.065301607
0.065082929
0.064868956
0.065165953
0.065353834
0.065017248
0.064704578
0.06496342
0.065537911
0.06605254
0.066361136
0.066443895
0.066443682
0.066552074
0.066560504
0.066665501
0.066851348
0.066673392
0.066754001
0.067044765
0.066747042
0.066551643
0.066885677
0.067258723
0.067035173
0.066318367
0.065633809
0.065315753
0.06519076
0.065106736
0.065089137
0.06512455
0.0651771
0.065187343
0.065168197
0.065147085
0.065141705
0.084304662
0.050713717
0.31094255
1.2604209
3.5754036
7.8559221
13.945427
20.763738
27.187607
32.678739
37.172406
40.798325
43.724791
46.103502
48.054609
49.667546
51.007088
52.11925
53.036529
53.782193
54.373014
54.82059
55.132955
55.315448
55.37121
55.301688
55.106871
54.785648
54.336028
53.755433
53.041094
52.19045
51.201653
50.073824
48.806999
47.401987
45.859501
44.178636
42.354946
40.378109
38.229538
35.880525
33.291318
30.411551
27.18281
23.541577
19.418677
14.725503
9.3199475
2.9307021
0.29018825
0.088145271
0.066874217
0.065106406
0.064817665
0.064478307
0.064138111
0.064024659
0.064345627
0.06521635
0.065988365
0.066020467
0.065896986
0.066270912
0.066005198
0.065180006
0.065138806
0.065645845
0.065396909
0.06435193
0.063927529
0.064317738
0.064924183
0.065273412
0.06538494
0.065401101
0.065387985
0.06536989
0.065352031
0.065338205
0.06532429
0.06530209
0.065305913
0.065259302
0.065255578
0.065287281
0.065149115
0.065164616
0.06531212
0.065094544
0.06488237
0.065177702
0.065363617
0.065028146
0.064717884
0.064974357
0.065544776
0.066053938
0.066360096
0.066440036
0.066437084
0.066542916
0.066548183
0.066651777
0.066836109
0.066658209
0.066737892
0.067026209
0.066732601
0.066539753
0.066870959
0.067240775
0.067019909
0.066308937
0.065629528
0.065313817
0.065189405
0.065105615
0.065088265
0.065123672
0.065176103
0.06518622
0.065166601
0.065145455
0.065139439
0.065141618
0.084142462
0.050697541
0.31095289
1.2604309
3.5752672
7.8552474
13.943759
20.761018
27.1842
32.675068
37.168719
40.794661
43.721019
46.09936
48.049751
49.661578
50.999595
52.109867
53.024856
53.767852
54.355668
54.799956
55.108808
55.287631
55.339642
55.266381
55.067932
54.743257
54.290425
53.706894
52.989917
52.136943
51.146125
50.016593
48.748391
47.342347
45.799204
44.118086
42.294562
40.318314
38.170735
35.823088
33.235569
30.357757
27.13119
23.491935
19.371242
14.68016
9.2745477
2.9004273
0.28644258
0.087911207
0.066864796
0.065114512
0.064826799
0.064488664
0.06415129
0.064039071
0.064359308
0.065224987
0.065992511
0.066024692
0.065901547
0.066273898
0.066008865
0.065188162
0.065147935
0.065651968
0.065403595
0.064365274
0.063941163
0.064331816
0.064934625
0.065281855
0.065392749
0.065408979
0.065395879
0.065377931
0.065360157
0.065346414
0.065332503
0.065310445
0.065314179
0.065267919
0.065264436
0.065296015
0.065158658
0.065174774
0.065321422
0.065104926
0.064894766
0.065188207
0.065372432
0.06503773
0.064729762
0.064983468
0.065549887
0.066053672
0.066356611
0.066433396
0.066428385
0.066532469
0.066535485
0.066637879
0.066820719
0.06664326
0.066722379
0.067008053
0.066718235
0.066527969
0.066856425
0.067223202
0.067004907
0.066299571
0.065625322
0.065311854
0.065188083
0.065104473
0.065087405
0.065122804
0.06517512
0.065185146
0.065165488
0.065144319
0.06513781
0.065139352
0.065141832
0.083975291
0.05067429
0.31091118
1.2602321
3.5745607
7.8534247
13.940308
20.756009
27.178161
32.668537
37.162006
40.787837
43.713964
46.091819
48.04138
49.651965
50.988304
52.096462
53.008923
53.749017
54.333607
54.774405
55.079575
55.254605
55.302795
55.225769
55.023685
54.695582
54.239603
53.653268
52.933868
52.07887
51.086421
49.955628
48.686507
47.27987
45.736459
44.055409
42.232301
40.256817
38.110348
35.764135
33.178349
30.302539
27.078233
23.441524
19.322809
14.633764
9.2281135
2.8695054
0.28262468
0.087646548
0.066844575
0.065120224
0.064834185
0.064497271
0.064162638
0.064051609
0.064371274
0.065232079
0.065994956
0.066026996
0.065904498
0.066275133
0.06601019
0.065194754
0.065155652
0.065656819
0.065408803
0.064376944
0.06395542
0.064344758
0.064943671
0.06528893
0.065399156
0.065415488
0.065402397
0.065384586
0.065366892
0.065353219
0.065339286
0.065317356
0.065320974
0.065275032
0.065271787
0.065303222
0.065166716
0.065183479
0.065329338
0.065113851
0.064905766
0.065197292
0.065379823
0.065045717
0.064739659
0.064990397
0.065552858
0.066051518
0.066350773
0.066424764
0.066418039
0.066521017
0.066522739
0.066623954
0.066805199
0.066628726
0.066707576
0.066990334
0.066703906
0.066516306
0.066842145
0.067206055
0.066990287
0.066290228
0.065621246
0.065309869
0.065186797
0.06510333
0.065086564
0.065121952
0.065174148
0.065184072
0.065164428
0.065143245
0.065136669
0.065137715
0.065139586
0.065140498
0.083826465
0.050649591
0.31084255
1.2599256
3.5735615
7.8509851
13.935824
20.749559
27.170357
32.659985
37.15304
40.778513
43.704138
46.081212
48.02963
49.638663
50.973026
52.078792
52.988481
53.725472
54.306691
54.743924
55.045404
55.216684
55.261122
55.180402
54.974749
54.643265
54.184147
53.594978
52.873114
52.016082
51.02209
49.890283
48.620647
47.213906
45.670718
43.99017
42.167815
40.193324
38.048078
35.703314
33.119201
30.2453
27.023193
23.389163
19.272509
14.585523
9.179613
2.8373168
0.2787229
0.087381533
0.066827801
0.065124383
0.064839463
0.064503835
0.064171961
0.06406205
0.064381151
0.065237412
0.065995506
0.066027268
0.065905418
0.066274872
0.066009759
0.065199571
0.065161527
0.065659918
0.06541219
0.064386615
0.063968887
0.06435599
0.064950909
0.065294239
0.065403858
0.065420285
0.065407198
0.0653895
0.06537188
0.065358257
0.065344307
0.065322493
0.065326
0.065280338
0.06527736
0.065308594
0.065172933
0.065190357
0.065335391
0.065120802
0.06491478
0.065204532
0.065385313
0.065051689
0.064747082
0.064994876
0.065553119
0.066047029
0.066343172
0.066414809
0.066406454
0.066508826
0.066509931
0.06661011
0.066789581
0.066614677
0.066693465
0.066973069
0.066689685
0.066504818
0.066828187
0.067189398
0.066976067
0.066280947
0.065617313
0.065307933
0.065185567
0.065102214
0.065085767
0.065121137
0.065173187
0.065183006
0.065163365
0.065142171
0.065135588
0.06513656
0.065137966
0.065138252
0.065139085
0.083694688
0.050626515
0.31076773
1.2595935
3.5725046
7.8484457
13.93118
20.742857
27.162132
32.650753
37.143057
40.767779
43.692464
46.068284
48.015064
49.62204
50.953921
52.056801
52.963244
53.696686
54.274124
54.70742
55.004897
55.172199
55.212781
55.128401
54.919335
54.584706
54.122707
53.530915
52.806702
51.947633
50.951963
49.818894
48.548472
47.141446
45.598444
43.918483
42.097046
40.123738
37.979884
35.636682
33.054279
30.182255
26.962278
23.330965
19.219055
14.535407
9.129701
2.8048775
0.27486276
0.087080911
0.066798688
0.065125554
0.064842435
0.064507967
0.064178915
0.064070338
0.064389071
0.065240759
0.06599414
0.066026174
0.065904701
0.066272829
0.066007947
0.065201693
0.065165406
0.065660762
0.065412656
0.064393767
0.063980452
0.064365229
0.064956127
0.065297526
0.065406434
0.065422946
0.065409965
0.065392447
0.065375
0.065361433
0.06534747
0.06532573
0.065329149
0.06528369
0.065280952
0.065312017
0.065177054
0.065195003
0.065339344
0.065125349
0.064921318
0.065209609
0.065388326
0.065055572
0.064752121
0.064997105
0.065551854
0.066040813
0.066334354
0.066403945
0.06639413
0.066496076
0.066496932
0.066596391
0.066773968
0.066601016
0.066679891
0.066956224
0.066675596
0.066493493
0.066814599
0.067173254
0.066962212
0.066271874
0.065613493
0.065306153
0.065184442
0.065101177
0.06508503
0.06512039
0.065172257
0.065181971
0.065162309
0.065141108
0.065134508
0.065135467
0.065136806
0.065136634
0.065136832
0.065138289
0.083543226
0.050591036
0.31062069
1.2589794
3.5707077
7.8445013
13.924545
20.733914
27.15173
32.639565
37.131366
40.755541
43.679413
46.054021
47.999107
49.603875
50.933034
52.032714
52.935538
53.665028
54.238278
54.667261
54.960416
55.123508
55.160114
55.072111
54.859861
54.522518
54.058257
53.464622
52.738942
51.878719
50.882107
49.748217
48.477121
47.06969
45.526647
43.84705
42.026372
40.054178
37.911743
35.570217
32.989725
30.119868
26.902453
23.274613
19.166303
14.4862
9.0813415
2.7743196
0.2713061
0.086802977
0.066774606
0.065124337
0.064843027
0.064510519
0.064183965
0.064076481
0.064394513
0.065241877
0.065990711
0.06602282
0.065901586
0.066268535
0.066004371
0.065201642
0.065166812
0.065660098
0.065411942
0.06439892
0.063989828
0.064372257
0.064959257
0.06529827
0.065406632
0.065423119
0.065410185
0.06539274