/*--------------------------------*- C++ -*----------------------------------*\
| =========                 |                                                 |
| \\      /  F ield         | OpenFOAM: The Open Source CFD Toolbox           |
|  \\    /   O peration     | Version:  2506                                  |
|   \\  /    A nd           | Website:  www.openfoam.com                      |
|    \\/     M anipulation  |                                                 |
\*---------------------------------------------------------------------------*/
FoamFile
{
    version     2.0;
    format      ascii;
    arch        "LSB;label=32;scalar=64";
    class       volScalarField;
    location    "0.023";
    object      rho;
}
// * * * * * * * * * * * * * * * * * * * * * * * * * * * * * * * * * * * * * //

dimensions      [1 -3 0 0 0 0 0];

internalField   nonuniform List<scalar> 
13761
(
0.6603572
0.67181734
0.67444829
0.67442179
0.67171835
0.66032729
0.6596956
0.66707842
0.67439414
0.67163462
0.66030532
0.65971871
0.66713746
0.67197878
0.67231301
0.67436449
0.67154751
0.66028312
0.65974273
0.66719926
0.67202099
0.67235333
0.66771169
0.66486421
0.67433318
0.67145736
0.66026077
0.65976785
0.66726449
0.67206852
0.6723979
0.66775941
0.66490799
0.66473
0.66796335
0.67429992
0.6713638
0.66023827
0.65979379
0.66733252
0.67212118
0.67244665
0.66780944
0.66495182
0.66477191
0.66799165
0.6718944
0.67097011
0.6742645
0.67126655
0.66021565
0.65982056
0.6674032
0.67217708
0.67249769
0.66786228
0.66499609
0.6648122
0.66801781
0.67187711
0.67094861
0.6724379
0.67382031
0.67422679
0.67116541
0.66019297
0.6598482
0.66747652
0.67223599
0.67255083
0.66791839
0.66504313
0.66485113
0.66804238
0.67185947
0.67092808
0.67242217
0.67381446
0.67441496
0.67406942
0.67306445
0.67418664
0.67106012
0.66017023
0.65987679
0.66755246
0.67229824
0.67260646
0.66797805
0.66509354
0.66489246
0.66806858
0.67184149
0.67090834
0.6724083
0.67381168
0.67440791
0.67406153
0.67305746
0.67200607
0.67108504
0.67414391
0.67095043
0.6601474
0.65990644
0.66763102
0.67236403
0.67266487
0.66804156
0.66514737
0.66493696
0.66809705
0.67182326
0.67088801
0.67239611
0.67381178
0.67440403
0.67405652
0.67305297
0.67200595
0.6710932
0.67085547
0.67105639
0.67409843
0.67083608
0.66012439
0.65993729
0.6677122
0.67243356
0.67272631
0.66810922
0.6652048
0.66498445
0.66812756
0.67180492
0.67086691
0.67238338
0.67381208
0.67440319
0.67405432
0.67305091
0.67200592
0.67109848
0.67087177
0.67107323
0.67153684
0.6723094
0.67405001
0.67071677
0.66010102
0.6599695
0.66779602
0.67250696
0.672791
0.66818137
0.66526606
0.66503504
0.66816019
0.6717866
0.6708453
0.67236975
0.67381208
0.6744026
0.67405225
0.67304896
0.67200594
0.67110084
0.67088219
0.67108346
0.67154902
0.67231737
0.67312883
0.67388499
0.67399845
0.67059226
0.66007719
0.66000317
0.66788247
0.67258442
0.67285918
0.66825833
0.66533153
0.66508893
0.66819506
0.67176845
0.67082329
0.67235542
0.67381204
0.67440173
0.67404977
0.67304658
0.67200592
0.67110301
0.67088682
0.67108731
0.67155546
0.67232007
0.67313056
0.67388046
0.6745006
0.67498628
0.67544492
0.67394352
0.67046241
0.66005267
0.66003835
0.6679715
0.67266606
0.67293108
0.66834045
0.66540154
0.66514646
0.6682324
0.67175061
0.67080095
0.67234045
0.67381203
0.6744008
0.67404707
0.67304396
0.67200585
0.67110561
0.6708912
0.67109095
0.67155646
0.67231782
0.67312863
0.67387401
0.67448769
0.6749647
0.67541533
0.67590182
0.67661354
0.67388501
0.67032693
0.66002733
0.66007513
0.66806308
0.67275203
0.67300699
0.66842809
0.66547649
0.66520797
0.66827241
0.67173321
0.67077833
0.67232484
0.67381204
0.67439993
0.67404426
0.67304118
0.67200573
0.67110839
0.67089651
0.67109555
0.67155722
0.67231525
0.67312327
0.67386571
0.67447422
0.67494362
0.67538738
0.6758654
0.67657596
0.67757702
0.67884108
0.68036751
0.67382263
0.67018553
0.66000104
0.66011358
0.66815713
0.6728425
0.67308725
0.66852166
0.66555681
0.66527385
0.66831533
0.6717164
0.67075547
0.67230854
0.67381202
0.67439911
0.67404132
0.67303822
0.67200553
0.67111125
0.67090225
0.67110055
0.67155865
0.67231311
0.67311747
0.67385681
0.67446008
0.67492278
0.67536071
0.67583122
0.67654181
0.67754134
0.67881268
0.68034606
0.68214459
0.68461587
0.691656
0.67375612
0.67003787
0.65997366
0.66015379
0.66825358
0.67293761
0.67317222
0.66862159
0.66564295
0.6653445
0.66836138
0.67170038
0.67073238
0.67229152
0.67381191
0.67439829
0.67403821
0.67303505
0.67200524
0.67111415
0.67090818
0.67110568
0.67156023
0.67231093
0.6731117
0.67384748
0.67444493
0.67490044
0.67533218
0.67579894
0.67651071
0.67750862
0.67878588
0.68032401
0.68212058
0.68457134
0.69081608
0.67368515
0.66988363
0.65994505
0.66019583
0.66835232
0.67303753
0.67326234
0.66872834
0.66573538
0.66542035
0.66841079
0.67168532
0.67070907
0.67227375
0.67381168
0.67439746
0.6740349
0.67303163
0.67200486
0.67111711
0.6709143
0.67111091
0.67156173
0.6723085
0.67310562
0.67383756
0.67442865
0.67487621
0.67530114
0.67576441
0.67647741
0.67747854
0.67876039
0.68030113
0.68209356
0.68451988
0.69009268
0.67360939
0.66972248
0.65991502
0.66023983
0.66845322
0.67314239
0.67335807
0.6688424
0.66583463
0.66550185
0.66846379
0.6716714
0.67068555
0.6722552
0.67381126
0.67439657
0.67403135
0.67302793
0.67200436
0.67112012
0.67092063
0.67111629
0.67156315
0.67230581
0.6730991
0.67382697
0.6744112
0.67485016
0.67526775
0.67572677
0.67644079
0.67744618
0.67873285
0.68027617
0.68206332
0.6844604
0.68961657
0.67352844
0.66955418
0.65988341
0.66028588
0.66855609
0.67325228
0.67345989
0.66896427
0.66594129
0.6655895
0.66852062
0.67165877
0.67066186
0.67223582
0.67381059
0.67439558
0.67402751
0.6730239
0.67200373
0.67112321
0.67092721
0.67112185
0.67156451
0.67230289
0.67309213
0.67381567
0.67439254
0.67482224
0.67523198
0.67568624
0.67640116
0.67741046
0.67870244
0.6802487
0.68202998
0.68439372
0.68919815
0.67344185
0.66937855
0.65984997
0.66033414
0.6686607
0.67336727
0.67356834
0.66909448
0.66605596
0.66568384
0.66858154
0.67164758
0.67063803
0.67221558
0.67380959
0.67439445
0.67402335
0.6730195
0.67200296
0.67112637
0.67093406
0.6711276
0.67156583
0.67229975
0.67308472
0.67380365
0.67437259
0.67479231
0.67519368
0.6756428
0.6763585
0.67737157
0.67866924
0.68021856
0.68199328
0.68431933
0.68877978
0.67334899
0.66919553
0.65981449
0.66038479
0.66876683
0.67348746
0.67368402
0.6692336
0.66617933
0.66578548
0.66864682
0.67163796
0.67061409
0.67219443
0.67380817
0.67439311
0.67401881
0.67301471
0.67200201
0.67112959
0.6709412
0.67113355
0.67156712
0.6722964
0.67307686
0.67379089
0.67435126
0.67476025
0.67515266
0.67559626
0.67631259
0.67732944
0.67863312
0.68018552
0.68195273
0.6842364
0.68834866
0.67324923
0.66900475
0.65977697
0.66043805
0.66887417
0.67361289
0.6738076
0.66938223
0.66631213
0.66589504
0.6687167
0.67163002
0.67059004
0.67217229
0.67380623
0.6743915
0.67401385
0.67300947
0.67200085
0.67113289
0.67094865
0.67113972
0.67156838
0.67229283
0.67306854
0.67377734
0.67432849
0.67472588
0.67510873
0.67554637
0.67626316
0.67728382
0.67859381
0.68014925
0.68190781
0.68414403
0.6878953
0.67314198
0.66880577
0.65973739
0.66049419
0.66898238
0.67374356
0.67393982
0.66954097
0.66645514
0.6660132
0.66879142
0.67162388
0.67056588
0.67214909
0.67380361
0.67438952
0.67400839
0.67300374
0.67199945
0.67113624
0.67095642
0.67114612
0.67156961
0.67228906
0.67305977
0.67376299
0.67430417
0.67468907
0.67506168
0.6754929
0.67620993
0.67723436
0.67855098
0.68010938
0.68185797
0.68404124
0.68741847
0.67302661
0.66859808
0.65969578
0.66055352
0.66909107
0.67387944
0.67408145
0.66971045
0.66660917
0.66614064
0.66887126
0.67161959
0.67054159
0.67212474
0.67380017
0.67438707
0.67400238
0.67299748
0.67199776
0.67113965
0.67096452
0.67115273
0.67157083
0.67228509
0.67305054
0.6737478
0.67427824
0.67464964
0.67501132
0.67543562
0.67615261
0.67718075
0.67850426
0.68006548
0.68180255
0.68392687
0.68692392
0.6729024
0.66838125
0.65965216
0.66061644
0.66919976
0.67402041
0.67423333
0.66989132
0.66677512
0.6662781
0.66895644
0.6716172
0.67051712
0.6720991
0.67379571
0.674384
0.67399572
0.67299063
0.67199573
0.67114308
0.67097295
0.67115956
0.67157201
0.67228094
0.67304086
0.67373176
0.67425058
0.67460743
0.67495742
0.67537427
0.6760909
0.6771226
0.67845326
0.68001708
0.68174081
0.68379955
0.68642219
0.67276859
0.66815494
0.65960643
0.66068339
0.66930793
0.67416625
0.67439632
0.67008421
0.6669539
0.66642635
0.6690472
0.67161668
0.6704924
0.67207206
0.67379
0.67438014
0.67398831
0.67298313
0.6719933
0.67114653
0.67098169
0.67116658
0.67157315
0.67227661
0.67303073
0.67371484
0.67422112
0.67456226
0.67489977
0.6753086
0.67602445
0.67705953
0.67839754
0.67996362
0.68167187
0.6836579
0.68592212
0.67262433
0.66791884
0.65955852
0.66075491
0.66941497
0.67431664
0.6745713
0.67028977
0.66714652
0.6665862
0.66914372
0.67161799
0.67046731
0.67204342
0.67378276
0.67437528
0.67398004
0.67297491
0.6719904
0.67114994
0.67099073
0.67117376
0.67157423
0.6722721
0.67302016
0.67369703
0.67418976
0.67451396
0.67483813
0.67523833
0.67595294
0.6769911
0.67833662
0.67990449
0.68159475
0.6835006
0.68542881
0.67246871
0.66767247
0.65950854
0.6608316
0.66952019
0.67447108
0.67475912
0.67050863
0.66735403
0.66675841
0.66924643
0.67162105
0.67044168
0.67201298
0.67377364
0.67436915
0.67397073
0.67296591
0.67198693
0.67115326
0.67100002
0.67118104
0.67157522
0.67226742
0.67300916
0.67367832
0.67415638
0.67446233
0.67477227
0.6751632
0.675876
0.67691683
0.67826993
0.67983895
0.68150831
0.68332638
0.68494253
0.67230072
0.66741541
0.65945669
0.66091416
0.66962279
0.67462888
0.67496061
0.67074142
0.66757754
0.66694353
0.66935592
0.67162573
0.67041529
0.67198044
0.67376221
0.67436138
0.67396022
0.67295602
0.67198279
0.67115643
0.67100952
0.67118836
0.67157608
0.67226258
0.67299773
0.67365872
0.67412087
0.67440721
0.67470196
0.67508294
0.67579324
0.67683621
0.67819684
0.6797662
0.68141126
0.68313398
0.68446048
0.67211931
0.66714717
0.65940315
0.66100338
0.66972189
0.6747891
0.67517661
0.67098874
0.66781819
0.66714221
0.66947272
0.67163186
0.67038783
0.67194544
0.67374791
0.67435154
0.67394825
0.67294516
0.67197786
0.67115936
0.67101915
0.67119562
0.67157677
0.67225758
0.67298591
0.67363822
0.67408315
0.67434841
0.67462696
0.67499726
0.67570428
0.67674868
0.67811663
0.67968527
0.68130212
0.68292217
0.68397942
0.67192333
0.66686738
0.65934819
0.66110019
0.66981647
0.6749505
0.67540798
0.67125106
0.66807715
0.66735527
0.66959715
0.67163925
0.67035894
0.67190752
0.67373005
0.67433903
0.6739345
0.6729332
0.67197198
0.67116195
0.67102882
0.67120271
0.67157723
0.67225243
0.67297371
0.67361681
0.67404318
0.67428575
0.67454705
0.67490592
0.67560872
0.67665364
0.6780285
0.67959505
0.68117922
0.68268966
0.68349652
0.67171162
0.66657567
0.65929218
0.66120562
0.66990542
0.67511145
0.67565527
0.67152887
0.66835559
0.66758353
0.66972948
0.6716477
0.67032816
0.6718661
0.67370778
0.67432309
0.67391854
0.67291996
0.67196498
0.67116408
0.67103842
0.6712095
0.67157741
0.67224716
0.67296118
0.67359446
0.67400091
0.67421907
0.67446199
0.67480866
0.67550615
0.67655044
0.67793154
0.67949422
0.68104065
0.68243505
0.68301102
0.67148294
0.6662717
0.65923555
0.66132083
0.66998745
0.67526992
0.67591865
0.67182315
0.66865461
0.66782776
0.6698699
0.67165703
0.67029493
0.67182048
0.67368
0.67430274
0.67389985
0.67290526
0.67195662
0.67116561
0.67104778
0.67121585
0.67157724
0.67224178
0.67294838
0.67357118
0.6739563
0.67414823
0.67437159
0.67470524
0.67539617
0.67643838
0.67782471
0.67938126
0.68088411
0.68215705
0.68252284
0.67123599
0.66595522
0.65917885
0.66144714
0.67006117
0.67542333
0.67619788
0.67213518
0.66897524
0.66808865
0.67001859
0.67166702
0.67025859
0.67176975
0.67364536
0.67427674
0.6738777
0.67288883
0.67194666
0.67116638
0.67105672
0.67122159
0.67157665
0.67223633
0.67293537
0.67354699
0.67390933
0.67407309
0.67427563
0.67459548
0.67527837
0.67631671
0.67770682
0.67925439
0.68070726
0.68185348
0.68203161
0.67096942
0.66562601
0.65912278
0.66158603
0.67012503
0.67556857
0.6764923
0.67246672
0.6693184
0.66836679
0.67017567
0.67167743
0.67021833
0.67171283
0.67360215
0.67424347
0.67385125
0.67287025
0.67193476
0.67116622
0.67106504
0.67122649
0.6715756
0.67223089
0.67292225
0.67352195
0.67385996
0.67399354
0.67417393
0.67447917
0.67515235
0.67618459
0.67757645
0.67911157
0.68050758
0.68152139
0.68153549
0.67068183
0.66528394
0.65906828
0.66173909
0.67017727
0.67570189
0.67680071
0.67282012
0.66968483
0.66866261
0.67034114
0.67168786
0.67017319
0.67164835
0.67354824
0.67420087
0.67381939
0.67284896
0.67192066
0.67116487
0.67107247
0.67123034
0.67157403
0.67222552
0.67290915
0.67349612
0.67380822
0.6739095
0.67406633
0.67435618
0.67501772
0.67604113
0.677432
0.67895039
0.6802822
0.68115706
0.68102905
0.67037173
0.66492891
0.65901672
0.66190797
0.67021574
0.67581876
0.67712136
0.67319842
0.67007502
0.66897635
0.67051486
0.67169836
0.67012195
0.67157468
0.67348092
0.67414628
0.67378058
0.67282421
0.67190403
0.67116202
0.67107871
0.67123285
0.67157189
0.67222032
0.67289621
0.67346959
0.67375414
0.67382093
0.67395266
0.67422641
0.67487411
0.67588535
0.67727158
0.67876806
0.68002781
0.68075559
0.68050151
0.67003764
0.66456092
0.65897035
0.66209426
0.6702377
0.67591387
0.67745187
0.67360548
0.67048916
0.66930807
0.6706964
0.67170862
0.67006309
0.67148979
0.67339674
0.67407629
0.67373284
0.67279519
0.6718845
0.67115731
0.67108339
0.6712337
0.67156916
0.67221541
0.67288362
0.67344247
0.67369779
0.67372783
0.67383281
0.67408985
0.67472122
0.67571619
0.67709305
0.67856117
0.67974067
0.68030987
0.67993352
0.66967811
0.66418006
0.65893378
0.66229936
0.67024207
0.67598085
0.6777892
0.67404591
0.67092714
0.66965768
0.67088488
0.67171825
0.66999511
0.67139095
0.67329136
0.67398652
0.67367362
0.67276085
0.67186155
0.67115029
0.67108606
0.67123252
0.67156583
0.67221095
0.67287158
0.67341488
0.67363931
0.67363027
0.67370669
0.67394655
0.67455872
0.67553249
0.67689391
0.67832549
0.67941665
0.67980866
0.67929465
0.66929156
0.66378629
0.65891409
0.66252422
0.6702272
0.67601137
0.67812953
0.67452511
0.67138815
0.67002588
0.67107853
0.67172678
0.66991676
0.67127397
0.67315918
0.67387133
0.67359964
0.67271994
0.67183453
0.67114047
0.67108619
0.6712289
0.67156191
0.6722071
0.67286034
0.67338699
0.67357885
0.67352827
0.67357437
0.67379659
0.67438629
0.67533316
0.67667127
0.67805655
0.67904851
0.67923491
0.67853805
0.66887613
0.66337854
0.65891185
0.66276905
0.67018612
0.67600107
0.67846803
0.67504899
0.67187053
0.67041344
0.67127574
0.67173375
0.66982781
0.67113178
0.67299301
0.67372356
0.67350679
0.67267084
0.67180269
0.67112724
0.67108314
0.67122238
0.67155743
0.67220403
0.67285016
0.67335905
0.67351655
0.67342183
0.67343604
0.67364011
0.67420358
0.67511722
0.67642182
0.67774886
0.67862591
0.67856405
0.6775844
0.66842863
0.66295439
0.65893494
0.66303326
0.67011376
0.67593289
0.67879868
0.67562375
0.67237288
0.67081916
0.67147593
0.67173851
0.66972585
0.67095746
0.67278353
0.67353407
0.67338998
0.67261158
0.67176511
0.6711099
0.67107615
0.67121244
0.67155243
0.6722019
0.6728413
0.67333138
0.6734525
0.67331097
0.67329192
0.67347728
0.67401027
0.67488381
0.67614156
0.67739549
0.67813337
0.6777635
0.6763185
0.66794305
0.66251448
0.65899295
0.66331454
0.67000215
0.67579579
0.67911467
0.67625509
0.67289462
0.67124094
0.67167845
0.67174015
0.6696028
0.67074678
0.67251862
0.67329129
0.67324269
0.6725397
0.67172059
0.67108762
0.67106432
0.67119848
0.6715469
0.67220082
0.67283402
0.67330422
0.67338677
0.67319577
0.6731422
0.67330827
0.67380613
0.67463223
0.67582557
0.67698778
0.67754509
0.67679037
0.67475704
0.66741518
0.66207407
0.65908867
0.66360751
0.66983998
0.67557234
0.67940993
0.67694623
0.67343813
0.67167514
0.67188287
0.6717374
0.6694492
0.67049174
0.67218249
0.67298078
0.67305693
0.6724521
0.67166766
0.67105939
0.67104656
0.6711798
0.67154076
0.6722008
0.67282853
0.67327775
0.6733194
0.67307623
0.67298703
0.67313318
0.67359106
0.67436198
0.67546917
0.67650992
0.67682085
0.67561474
0.6732958
0.66686229
0.6616699
0.6592139
0.66390001
0.66961344
0.67523895
0.67968119
0.67768991
0.67401109
0.67212073
0.67208901
0.67172816
0.66925477
0.67017699
0.67175438
0.6725849
0.67282355
0.67234488
0.67160454
0.67102389
0.67102151
0.67115549
0.67153372
0.6722017
0.67282487
0.67325202
0.67325038
0.67295216
0.67282647
0.67295179
0.67336514
0.67407273
0.67506915
0.67593459
0.67589619
0.67426332
0.67225902
0.66632718
0.66132865
0.65935334
0.66416953
0.66931186
0.6747678
0.67992911
0.67846941
0.6746269
0.67257762
0.67229739
0.67170865
0.66900364
0.66978003
0.67120707
0.67208342
0.67253269
0.67221304
0.6715289
0.67097944
0.67098739
0.67112438
0.67152522
0.67220313
0.67282272
0.67322698
0.67317967
0.67282306
0.67266023
0.67276359
0.67312836
0.67376412
0.674624
0.67522118
0.67469245
0.67288507
0.67162248
0.66572294
0.66103814
0.659504
0.66439406
0.66893988
0.67415485
0.68011401
0.6792804
0.6753101
0.6730505
0.67251051
0.671672
0.66867008
0.66926718
0.67050624
0.67145707
0.67217378
0.67205027
0.67143816
0.67092338
0.67094172
0.67108497
0.67151433
0.67220441
0.6728215
0.67320238
0.67310696
0.67268788
0.67248757
0.67256742
0.67288065
0.67343476
0.67413236
0.67433312
0.67326158
0.67178858
0.67122506
0.6650646
0.66078194
0.65966935
0.66457158
0.66852358
0.67343563
0.68014691
0.68015842
0.67610718
0.6735566
0.67273728
0.67160442
0.66821295
0.66859118
0.66961955
0.6707037
0.6717409
0.67184641
0.67132806
0.6708523
0.67088091
0.67103556
0.6714999
0.67220453
0.67282054
0.6731776
0.6730312
0.67254473
0.67230696
0.67236105
0.6726213
0.67308531
0.67358435
0.67330784
0.67197353
0.67111529
0.67093444
0.66437938
0.66055468
0.6598438
0.66471274
0.66809967
0.67266656
0.67993164
0.6810407
0.67711666
0.67413303
0.67300315
0.67147084
0.66758356
0.6677236
0.66859309
0.6699093
0.67124519
0.6715853
0.67118895
0.67076083
0.6707995
0.67097473
0.67148066
0.67220217
0.67281888
0.6731516
0.6729505
0.67239041
0.67211466
0.6721424
0.67234755
0.67271492
0.67297823
0.67228842
0.67110734
0.67072026
0.67068374
0.66369386
0.66037641
0.66002258
0.66483566
0.66770881
0.67191781
0.6794048
0.68157559
0.67855261
0.6749633
0.67334705
0.67121592
0.66682405
0.66682916
0.66781577
0.66941513
0.67079747
0.67123683
0.6709947
0.67063622
0.67068841
0.67090163
0.67145502
0.67219554
0.67281516
0.67312283
0.67286183
0.67221996
0.67190497
0.67190661
0.6720559
0.67231842
0.67233563
0.67141821
0.67060287
0.67044047
0.67044306
0.66298801
0.66023889
0.66021754
0.66496861
0.66739652
0.67125208
0.67861081
0.68149059
0.67978675
0.67621185
0.67357807
0.67068401
0.66614847
0.66626857
0.66771381
0.66964881
0.67067531
0.67081333
0.67066469
0.67044212
0.6705339
0.67081509
0.67142034
0.67218217
0.67280764
0.67308914
0.67276055
0.67202581
0.67166942
0.67164576
0.67173999
0.67188979
0.67169135
0.67075508
0.67029451
0.67019028
0.67019802
0.66235487
0.66016026
0.66045063
0.66513855
0.6671944
0.67070887
0.67768458
0.68075518
0.67975582
0.67658022
0.67298266
0.66970928
0.6655924
0.66596447
0.66800417
0.67001838
0.6705869
0.67036507
0.67022404
0.67009236
0.67032524
0.67071186
0.671373
0.67215918
0.6727942
0.67304749
0.67263951
0.67179642
0.67139631
0.67134966
0.67139074
0.6714262
0.6710719
0.6702821
0.67004565
0.66993434
0.66993728
0.66183967
0.66011948
0.66077902
0.66536572
0.6671066
0.67027539
0.67681592
0.67961453
0.67861869
0.67563509
0.6712121
0.66842087
0.66505581
0.66571376
0.66808268
0.66967302
0.66939349
0.66867205
0.66926748
0.66959207
0.67005504
0.67058723
0.67131003
0.67212438
0.67277201
0.67299304
0.67248719
0.67151404
0.67107074
0.6710071
0.67099655
0.67092945
0.67048953
0.66992546
0.66977396
0.66965793
0.66965252
0.66153115
0.6601816
0.66123
0.66566295
0.66711193
0.66991522
0.67593333
0.67868397
0.67758345
0.67383861
0.66915648
0.66715135
0.66450171
0.66542933
0.66804121
0.6694903
0.66887204
0.66734967
0.66733969
0.66874404
0.6697042
0.67043611
0.67122898
0.67207653
0.67273674
0.67291663
0.67228265
0.67115039
0.67067342
0.67060618
0.67054415
0.67039717
0.66993786
0.66958832
0.66942968
0.66934409
0.66933992
0.66156349
0.66035601
0.66184681
0.66601483
0.66733601
0.6696305
0.67491139
0.6776244
0.67686168
0.6730158
0.66784107
0.66600773
0.66389115
0.66515419
0.66811529
0.66960925
0.66895113
0.66713335
0.66600381
0.66730962
0.66922285
0.67025137
0.67112558
0.67201039
0.67268111
0.67279748
0.67197651
0.67065269
0.67017556
0.67012888
0.67001754
0.66980498
0.66938051
0.66915924
0.66897209
0.66894579
0.66899395
0.66190032
0.66081458
0.66260823
0.66630068
0.66751715
0.66943541
0.67378884
0.67623558
0.67586024
0.67255061
0.66702419
0.665014
0.66325102
0.66502431
0.66844988
0.66978977
0.66930898
0.66794619
0.66632564
0.66605478
0.66856781
0.67000616
0.6709915
0.67191528
0.67258949
0.67257238
0.67140867
0.66988963
0.66951788
0.66953445
0.66937251
0.6690741
0.6687341
0.66859146
0.66839439
0.66839238
0.66850775
0.66308466
0.66179279
0.66320054
0.66650802
0.66763813
0.66931898
0.67263989
0.67465841
0.67452571
0.67165447
0.6662469
0.66418011
0.66267387
0.6650298
0.6686145
0.66948944
0.66902699
0.66876098
0.66781677
0.66638642
0.66754159
0.66965988
0.67079601
0.67176273
0.67240536
0.67198456
0.66998118
0.66845977
0.66852743
0.66871562
0.66846298
0.66804889
0.66795516
0.66794944
0.66794919
0.6679398
0.6680596
0.66515162
0.66310227
0.66380505
0.66668703
0.66772703
0.6692885
0.67154696
0.67305091
0.6730532
0.67030955
0.66522907
0.66344492
0.66226463
0.66519579
0.66832515
0.66802972
0.66749819
0.66899872
0.66861622
0.66736958
0.66739412
0.66886983
0.67034082
0.67147206
0.6719406
0.6702551
0.66717593
0.66658161
0.66722
0.66766029
0.66723608
0.66681586
0.66702946
0.66736582
0.66771586
0.66781112
0.66785404
0.66845183
0.66466662
0.66440499
0.66681923
0.66783628
0.66936722
0.67062606
0.67148368
0.67151855
0.66877724
0.66398287
0.66280146
0.66210658
0.66531558
0.66747827
0.66642704
0.66657252
0.66867401
0.66843742
0.66753621
0.66736707
0.66830887
0.6697945
0.67116812
0.67088742
0.66743658
0.66578959
0.66630096
0.66695088
0.66705748
0.66617249
0.66585354
0.66619151
0.6667056
0.66748966
0.66798173
0.66821044
0.67410357
0.66642126
0.66512138
0.66685641
0.66804639
0.66944724
0.66998228
0.67003892
0.66992618
0.66724711
0.66267368
0.6621973
0.66214711
0.6653293
0.66664953
0.66532073
0.66656715
0.66824963
0.66750686
0.66690105
0.66722618
0.66815033
0.66953415
0.67081571
0.66971869
0.66633997
0.66550719
0.6661508
0.66663691
0.6662365
0.6652517
0.66514206
0.66548852
0.66615172
0.66733542
0.66829923
0.66894897
0.67934049
0.66778546
0.66587697
0.66667401
0.66836518
0.66952169
0.66965329
0.668849
0.66826168
0.66566795
0.66160879
0.66194462
0.66235647
0.66528278
0.66590705
0.66477447
0.66698857
0.66812313
0.66727978
0.66678464
0.6672301
0.66808733
0.66918518
0.66991863
0.66809628
0.66556418
0.66544791
0.66601651
0.66588336
0.66468982
0.66399364
0.66416502
0.66458769
0.66543819
0.66694407
0.66822668
0.66894867
0.68024941
0.66878264
0.66638486
0.66672741
0.6684726
0.66961818
0.66959272
0.66818923
0.66661968
0.66379459
0.66083933
0.6620956
0.66295286
0.66541922
0.66539809
0.66471325
0.66726575
0.6680463
0.66731092
0.66699482
0.6675149
0.66806565
0.66858544
0.66830559
0.66641152
0.66527625
0.66550593
0.6652551
0.66363793
0.66259534
0.66266379
0.66316266
0.66386566
0.66493706
0.66630249
0.66765968
0.66892515
0.67834797
0.66928832
0.66683303
0.66700517
0.66839625
0.66965452
0.66971147
0.66802835
0.66565713
0.66249027
0.66031428
0.66251346
0.6641159
0.66563741
0.66498187
0.66503717
0.66683415
0.66686533
0.66662735
0.66674704
0.66765691
0.66804683
0.66757064
0.66668407
0.66551963
0.66500953
0.6646234
0.66297688
0.66114971
0.66094008
0.66154058
0.66232654
0.66332718
0.66533833
0.66785226
0.66985049
0.67116454
0.67804022
0.67039685
0.66717474
0.66722475
0.66813872
0.66957679
0.66985093
0.66851605
0.66559412
0.66250223
0.66059073
0.66305224
0.66537114
0.66604253
0.66475936
0.66539605
0.66588882
0.66548752
0.66570253
0.66591894
0.66679042
0.6674174
0.66637017
0.66539984
0.66501742
0.66465144
0.66315734
0.6601224
0.65859759
0.65904505
0.66134754
0.66448507
0.66757701
0.67001317
0.67145976
0.6724489
0.67320467
0.67831713
0.6714612
0.66746053
0.66722196
0.66767916
0.66940462
0.66997016
0.66931558
0.66737406
0.66416147
0.66196024
0.66426417
0.66716609
0.6665038
0.6648557
0.66575316
0.66518787
0.66415196
0.66452292
0.66506538
0.66569203
0.66565605
0.66470441
0.6645523
0.66476391
0.66304246
0.65912715
0.65713819
0.65779936
0.66331101
0.66788174
0.67004036
0.6713756
0.67233964
0.67303549
0.67353882
0.6738441
0.67750158
0.6717916
0.66763211
0.6670878
0.6672201
0.66886775
0.67005607
0.67003996
0.66949647
0.66750826
0.66519069
0.66664908
0.66901128
0.66715127
0.66553038
0.66615071
0.66498312
0.6631559
0.66302934
0.66391143
0.66451452
0.66437887
0.66412872
0.66353594
0.66113934
0.65766952
0.65684889
0.65968054
0.66653274
0.67000153
0.67111637
0.67181954
0.67247625
0.67298283
0.67335578
0.673659
0.67386548
0.6759651
0.67173622
0.66769085
0.66694945
0.6670485
0.66852833
0.66981201
0.67057041
0.67119108
0.67116363
0.66938549
0.66959946
0.6698774
0.66764467
0.66664795
0.6667961
0.66555461
0.66316214
0.66208833
0.66280507
0.66343604
0.66339668
0.66110492
0.65804734
0.65724395
0.65824259
0.66327341
0.66888438
0.6707717
0.67121151
0.67162533
0.67227057
0.67276772
0.67307312
0.67336978
0.67361308
0.67374246
0.67502672
0.67150501
0.66766798
0.66692678
0.66703145
0.66840527
0.66951345
0.67053795
0.67206377
0.67292353
0.6726542
0.67075654
0.66903725
0.66844649
0.66826697
0.66823735
0.66709976
0.66414768
0.66212373
0.66127929
0.65975357
0.65748527
0.65757967
0.65846874
0.66137489
0.66677364
0.67024857
0.67122742
0.671336
0.67140378
0.67186523
0.672396
0.67277928
0.67306478
0.6732393
0.67309659
0.67294909
0.67436265
0.67112519
0.66772079
0.66720494
0.66738321
0.66859864
0.66939734
0.67048236
0.67205143
0.67306508
0.6728973
0.67059097
0.66891053
0.66905075
0.66947652
0.66962944
0.66886738
0.66726445
0.66539892
0.66336602
0.66160983
0.66124962
0.66237625
0.66578601
0.66929061
0.67098166
0.67151811
0.67154989
0.67148282
0.67164106
0.67201296
0.67259877
0.6728972
0.67276089
0.67245588
0.67204278
0.67171312
0.6736523
0.67081799
0.66800597
0.66770322
0.66784503
0.66870803
0.66947204
0.67045661
0.67172539
0.67251971
0.67242798
0.67062426
0.66912332
0.66924263
0.66999544
0.67005937
0.66962728
0.66973611
0.6703238
0.67036864
0.66981215
0.66948665
0.66987949
0.67062298
0.67142729
0.67193459
0.67145285
0.67110519
0.67132545
0.67179787
0.67231064
0.67253968
0.6723863
0.67204683
0.67169367
0.67144057
0.67129786
0.67070142
0.66837881
0.66809285
0.66810034
0.66871901
0.66950699
0.67045593
0.67162286
0.67219665
0.67194868
0.67035207
0.66944742
0.66964046
0.67015687
0.67002087
0.66952032
0.67030336
0.67181937
0.6724353
0.67266812
0.67242277
0.67198039
0.67198732
0.6718843
0.67155388
0.67107196
0.67104342
0.67142361
0.67176256
0.67189653
0.67159384
0.67129714
0.67128229
0.67129578
0.67134804
0.67142564
0.67072593
0.66870587
0.66827556
0.66815178
0.6685569
0.66927161
0.6701237
0.67105677
0.67153634
0.6713276
0.67024792
0.66989075
0.67003461
0.67003671
0.6695612
0.66916281
0.67038227
0.67182386
0.67258059
0.67279954
0.67261017
0.67186346
0.67157336
0.67154683
0.67147925
0.67154917
0.6716441
0.6717002
0.67147269
0.67101932
0.67074292
0.67065279
0.67079777
0.6709784
0.67122117
0.67141324
0.6707475
0.66883459
0.66829669
0.66811489
0.66836101
0.66909059
0.66990315
0.67066454
0.67111099
0.67111928
0.67057467
0.67018576
0.66998726
0.66966346
0.66925347
0.66907841
0.67031159
0.67144112
0.67196417
0.67223299
0.67232941
0.67160231
0.67112421
0.67122196
0.67153132
0.67178565
0.67189998
0.67170373
0.67120482
0.6707505
0.67053726
0.67051444
0.67061454
0.6707862
0.67098754
0.67112795
0.67058927
0.66885206
0.6683438
0.66820482
0.66848512
0.66915951
0.66984024
0.67046998
0.67085749
0.6709898
0.67071108
0.67014434
0.66971863
0.66950869
0.6693155
0.66960081
0.67065596
0.67127369
0.67148054
0.67162718
0.67184262
0.67167275
0.67124963
0.67108144
0.67128133
0.67154164
0.67151795
0.67135738
0.67114398
0.6709496
0.67086407
0.67079172
0.6707875
0.67079012
0.67075516
0.67077816
0.67034669
0.66896825
0.66864475
0.66857353
0.6687711
0.66914066
0.66954125
0.67007394
0.67063913
0.67085988
0.67087024
0.67010097
0.66956897
0.66948355
0.66944238
0.66994472
0.6706557
0.67092596
0.6710027
0.67114751
0.67139856
0.67166963
0.67157754
0.67112397
0.67094024
0.67098293
0.6710224
0.67098244
0.67099355
0.67105567
0.67108355
0.67105461
0.67092609
0.67077188
0.67061919
0.67052389
0.67022851
0.66917703
0.66892701
0.66882354
0.66881218
0.66895719
0.66933616
0.66995257
0.6705744
0.67077983
0.67071577
0.66998366
0.66954814
0.6694933
0.66959745
0.67014485
0.67053197
0.67056387
0.67058568
0.67074188
0.67100112
0.67130399
0.67153239
0.67120299
0.670788
0.67072331
0.67073142
0.67071006
0.67077225
0.67086816
0.67090767
0.67087932
0.67075537
0.67061037
0.6705156
0.67041902
0.67017789
0.66933661
0.66907546
0.6689105
0.66874891
0.66888874
0.66938448
0.66995621
0.67040445
0.67051297
0.67041666
0.66992074
0.66963506
0.66960294
0.66984746
0.67032601
0.67043989
0.67033772
0.67027454
0.67038165
0.67071428
0.67107836
0.67130324
0.67115379
0.67081643
0.67062033
0.67055048
0.67053928
0.67056105
0.67057732
0.67059415
0.67055755
0.67052204
0.67046337
0.67040443
0.67038027
0.67008424
0.66938021
0.66912008
0.66893198
0.66876895
0.66896331
0.66944232
0.66985345
0.67020752
0.67030927
0.67030801
0.66991853
0.66966316
0.66967419
0.66990474
0.67025746
0.67036013
0.67029228
0.67016605
0.67021273
0.67051086
0.67087966
0.67111908
0.67114818
0.67089486
0.67066489
0.67054333
0.67045511
0.67041794
0.67042419
0.67043552
0.67044898
0.6704519
0.67045085
0.67041866
0.67038813
0.66993592
0.6694273
0.66923825
0.66905126
0.66886569
0.66896045
0.66936614
0.66975845
0.67009696
0.67019067
0.67017062
0.66988694
0.66968804
0.66970129
0.66982555
0.67008084
0.6702573
0.67023974
0.67012751
0.67014295
0.6703149
0.67060575
0.6708398
0.67095054
0.67084059
0.6706745
0.67052864
0.67044173
0.67039573
0.67039479
0.67041597
0.67045259
0.67049467
0.67051589
0.67053013
0.67050306
0.66983405
0.66950172
0.66934849
0.66914028
0.66892614
0.66894064
0.66928844
0.66967538
0.66997976