/*--------------------------------*- C++ -*----------------------------------*\
| =========                 |                                                 |
| \\      /  F ield         | OpenFOAM: The Open Source CFD Toolbox           |
|  \\    /   O peration     | Version:  2506                                  |
|   \\  /    A nd           | Website:  www.openfoam.com                      |
|    \\/     M anipulation  |                                                 |
\*---------------------------------------------------------------------------*/
FoamFile
{
    version     2.0;
    format      ascii;
    arch        "LSB;label=32;scalar=64";
    class       volVectorField;
    location    "2.95";
    object      wallShearStress;
}
// * * * * * * * * * * * * * * * * * * * * * * * * * * * * * * * * * * * * * //

dimensions      [1 -1 -2 0 0 0 0];

internalField   uniform (0 0 0);

boundaryField
{
    Side
    {
        type            empty;
    }
    Inlet
    {
        type            calculated;
        value           uniform (0 0 0);
    }
    Airfoil
    {
        type            calculated;
        value           nonuniform List<vector> 
117
(
(-4.4266101 -2.319663 6.4988085e-19)
(-3.5295959 -5.8195502 -1.3684375e-19)
(-5.3757938 -3.7054473 5.1628045e-19)
(-3.797555 -5.0932013 -9.2237857e-19)
(-4.7415169 -5.1332377 -3.3512427e-19)
(-3.9917215 -4.6909382 6.3679926e-19)
(-3.6322305 -5.734103 1.6496702e-19)
(-4.0039468 -5.328609 5.0584033e-19)
(-3.375725 -5.7128493 4.4377011e-19)
(-3.6159049 -5.2061254 2.9527842e-18)
(-3.2441426 -5.576634 1.6699538e-19)
(-3.8567079 -5.4708392 8.716299e-20)
(-2.803967 -3.9164569 -5.3050836e-18)
(-2.714664 -4.9798395 6.3363957e-18)
(-3.5497307 -4.5815519 -2.0052698e-19)
(-2.6211128 -3.9447442 6.2068559e-18)
(-2.5581495 -3.899073 -7.1335051e-18)
(-1.7876233 -3.2662363 -3.118891e-20)
(-1.6849669 -1.8944566 -8.9203393e-19)
(-1.7031239 -6.6772278 7.8216694e-20)
(-4.193234 -2.9501834 -1.1775299e-18)
(-0.3955042 -0.91998129 -3.0990733e-20)
(-1.6636518 -4.405068 -1.6106367e-17)
(-0.6755517 -4.6825441 2.7307661e-17)
(-2.5532716 -3.7786824 -1.8409869e-17)
(-1.7857781 -3.4759375 1.7382501e-17)
(-3.3164736 -2.4564285 -7.751086e-18)
(-1.262033 -1.5630642 5.8311078e-19)
(-2.3178956 -2.7316916 0)
(-1.7393257 -1.7763801 -6.151219e-18)
(-2.3570504 -1.7129472 9.9409134e-20)
(-2.1636386 -0.99043781 1.0000719e-17)
(-2.0778398 -0.83664415 -8.1526728e-18)
(-2.1821504 -0.61159267 6.4401613e-18)
(-2.4018368 -0.3654266 -3.1868365e-18)
(-2.6554439 -0.070582833 -1.4444475e-34)
(-2.9181381 0.2062012 -1.966266e-18)
(-3.1226638 0.48339384 1.6222399e-18)
(-3.3966413 0.56082699 -6.4182401e-19)
(3.6807799 2.2223832 -2.4979351e-18)
(4.1097741 0.083701689 2.4430495e-18)
(4.8841249 -0.28007382 -8.2002486e-35)
(5.345723 -0.45679965 1.2420046e-18)
(5.5098834 -0.61600594 -1.2183129e-18)
(5.1758653 -0.68120941 2.4106814e-18)
(4.6353252 -0.66678034 -2.4074124e-35)
(3.8647455 -0.62462964 7.5231638e-36)
(3.0136282 -0.52658323 9.1706957e-19)
(2.2442852 -0.41787257 -3.0795232e-19)
(1.6155449 -0.31333709 1.4622145e-20)
(1.1202197 -0.22204773 -6.2157868e-19)
(0.74995843 -0.16705604 9.2057293e-19)
(0.51503021 -0.093973902 3.0128713e-19)
(0.43920161 -0.0081078257 -2.8626306e-19)
(0.50430782 0.0051733685 2.840442e-19)
(0.58162928 -0.03161146 -2.1270679e-22)
(0.58509213 -0.085935709 -1.4880457e-19)
(0.53616554 -0.10039762 -1.5505406e-19)
(0.52886207 -0.13531381 2.4773347e-19)
(0.60568583 -0.15617212 -5.153739e-20)
(0.7878297 0.078858764 2.4685381e-37)
(1.4570677 0.67493877 3.2318128e-19)
(2.614344 1.1788348 -1.8584147e-19)
(4.0221947 1.4863681 -3.9701211e-19)
(4.7324376 0.71634064 -2.100396e-19)
(4.6700487 2.3512774 -1.1912629e-19)
(6.6802366 3.7124084 1.233888e-19)
(7.7435856 2.2848135 -4.5249927e-19)
(6.988793 4.2087047 -4.2520553e-19)
(8.3374915 -0.47202648 -5.8128978e-19)
(6.5060123 -4.4286802 1.7929149e-19)
(0.13367387 -4.6852196 1.6913523e-19)
(-0.73672869 -2.4885604 0)
(-1.4054296 -2.7388372 5.3777307e-19)
(-1.8587161 -2.7965354 -4.7468791e-19)
(-2.4511132 -3.4844611 -5.2908399e-20)
(-3.1284654 -4.9458492 6.1488172e-19)
(-4.8493554 -3.916141 -1.0016441e-18)
(-3.6418732 0.67522754 2.4074124e-35)
(-3.8646538 0.70620093 0)
(-4.0504495 0.75442795 3.5219802e-19)
(-4.2192808 0.74070788 1.3036721e-20)
(-4.3785418 0.71323754 -6.3341441e-19)
(-4.5222906 0.68918999 -3.1473263e-19)
(-4.6557044 0.64614205 -1.7336817e-21)
(-4.7936826 0.59420525 -2.745213e-19)
(-4.9369161 0.55320267 2.6945231e-19)
(-5.0803912 0.50780831 2.5981686e-19)
(-5.2164752 0.46202876 1.2246516e-22)
(-5.3416725 0.40720494 -2.4093205e-19)
(-5.4585854 0.35348103 -1.1729119e-19)
(-5.5705793 0.30195871 -1.0884134e-19)
(-5.6799497 0.2379843 -2.6919391e-22)
(-5.7815598 0.17913726 -5.1747964e-20)
(-5.8809736 0.12297482 1.9883119e-19)
(-5.9723811 0.066462029 -1.9230895e-19)
(-6.0551509 0.011328001 4.7307269e-20)
(-6.1400611 -0.046843683 -3.6353466e-19)
(-6.2249057 -0.10113253 3.5264174e-19)
(-6.3152073 -0.15617354 5.2203857e-19)
(-6.4044784 -0.21133817 -3.3685954e-19)
(-6.4821071 -0.25808885 -3.2783355e-19)
(-6.5637562 -0.32395348 3.1906233e-19)
(-6.6566111 -0.36111186 0)
(-6.724458 -0.32766572 6.2700286e-19)
(-6.7456317 -0.48858847 -6.0410249e-19)
(-6.8264001 -0.51834718 5.8043274e-19)
(-6.8918802 -0.55433546 -5.6757145e-19)
(-6.9578042 -0.60641875 2.730445e-19)
(-7.0462195 -0.62458593 -1.3390232e-18)
(-7.0715911 -0.67977079 2.6549267e-19)
(-7.1170016 -0.73934964 1.0219121e-18)
(-7.1950491 -0.79123185 -9.6346787e-19)
(-7.2601482 -0.84063823 -4.6011663e-19)
(-7.3408207 -0.88746041 -1.3272352e-18)
(-7.4995161 -1.2452518 -1.6618496e-18)
(-7.9134478 -0.47235537 -4.0217965e-19)
)
;
    }
    Outlet
    {
        type            calculated;
        value           uniform (0 0 0);
    }
}


// ************************************************************************* //
