/*--------------------------------*- C++ -*----------------------------------*\
| =========                 |                                                 |
| \\      /  F ield         | OpenFOAM: The Open Source CFD Toolbox           |
|  \\    /   O peration     | Version:  2506                                  |
|   \\  /    A nd           | Website:  www.openfoam.com                      |
|    \\/     M anipulation  |                                                 |
\*---------------------------------------------------------------------------*/
FoamFile
{
    version     2.0;
    format      ascii;
    arch        "LSB;label=32;scalar=64";
    class       volScalarField;
    location    "0.006";
    object      Co;
}
// * * * * * * * * * * * * * * * * * * * * * * * * * * * * * * * * * * * * * //

dimensions      [0 0 0 0 0 0 0];

internalField   nonuniform List<scalar> 
13763
(
0.094818778
0.099023932
0.10369112
0.10845752
0.11294217
0.11681284
0.11982039
0.12180227
0.12267332
0.12241309
0.12104309
0.11863092
0.11526817
0.11110381
0.10629424
0.1010041
0.095406963
0.089677389
0.083970235
0.078404298
0.073063521
0.068007674
0.063282172
0.058915343
0.054906501
0.051230405
0.047845725
0.044696714
0.041735364
0.038943399
0.036324826
0.033887809
0.031634489
0.029560048
0.027654814
0.025906655
0.024303702
0.022835159
0.021490104
0.020258158
0.01913154
0.018104339
0.017169176
0.016316347
0.01553557
0.014814037
0.01413801
0.013497543
0.089824555
0.093833295
0.098281137
0.10282411
0.10710073
0.11079545
0.11367143
0.11557391
0.1164216
0.11619458
0.1149128
0.11264002
0.10946287
0.10552262
0.10096765
0.09595433
0.09064755
0.085213232
0.07979864
0.074516829
0.06944773
0.064648267
0.060161711
0.056015148
0.052208112
0.04871673
0.045501767
0.042510278
0.039696701
0.037043737
0.034555253
0.032239064
0.03009726
0.028125311
0.026314067
0.024652028
0.023127935
0.021731543
0.020452489
0.019280931
0.018209491
0.017232566
0.016343141
0.015531976
0.014789294
0.014102927
0.013459813
0.012850492
0.012269762
0.011714973
0.085056064
0.0888774
0.093115985
0.097445846
0.1015241
0.10505112
0.1078018
0.10962882
0.11045456
0.11025959
0.10906236
0.10692296
0.10392328
0.1001972
0.095885492
0.091136586
0.0861071
0.080954711
0.075819445
0.070808878
0.065999111
0.061444356
0.057185849
0.053249495
0.049635037
0.046319912
0.043266889
0.040425694
0.037753097
0.035232736
0.032868346
0.030667407
0.028631963
0.026757764
0.025036157
0.023456245
0.022007352
0.020679761
0.019463642
0.018349662
0.017330832
0.016401842
0.015556023
0.014784581
0.014078217
0.013425375
0.012813638
0.012234007
0.011681536
0.011153709
0.01064906
0.080549637
0.084192159
0.088231221
0.092357866
0.096246814
0.099613523
0.102244
0.10399806
0.10480154
0.10463555
0.10351714
0.10150295
0.098670395
0.095146374
0.091064439
0.086565512
0.081798365
0.076912834
0.072042073
0.067288449
0.062724417
0.058401603
0.054359296
0.050622266
0.047190448
0.044042513
0.041143123
0.038444536
0.035905738
0.033511246
0.031264666
0.029173157
0.027238717
0.025457356
0.02382089
0.022318995
0.020941546
0.019679326
0.018523008
0.017463744
0.016494913
0.01561148
0.014807109
0.014073425
0.013401583
0.012780612
0.012198705
0.011647303
0.011121703
0.010619516
0.01013935
0.0096801683
0.0092410615
0.076267792
0.079739645
0.083588359
0.087521125
0.091229413
0.094443042
0.09695861
0.098642685
0.099424465
0.099285535
0.09824163
0.096346144
0.093672217
0.090340118
0.086476526
0.082215222
0.077697502
0.073065747
0.06844656
0.063937349
0.059607093
0.055504952
0.051668358
0.048120997
0.044862981
0.041874154
0.039120978
0.036558122
0.034146674
0.031871992
0.029737555
0.02775022
0.025911935
0.024218958
0.022663551
0.021235934
0.019926508
0.018726528
0.01762715
0.016619986
0.015698764
0.014858712
0.014093808
0.013396077
0.012757111
0.012166488
0.011612988
0.011088469
0.010588458
0.010110688
0.0096538385
0.0092169276
0.0087990926
0.0083995244
0.0080174512
0.072191768
0.075500729
0.07916782
0.08291563
0.086451559
0.089519108
0.091924978
0.093542174
0.094303075
0.094189744
0.09321667
0.091434125
0.088911198
0.085761837
0.082106171
0.078071173
0.073791021
0.069400987
0.065021436
0.060745043
0.056637478
0.052745551
0.049104923
0.045738246
0.0426458
0.039808546
0.037194662
0.034761109
0.032470982
0.030310438
0.028282837
0.026394743
0.02464806
0.023039283
0.021561098
0.020204242
0.018959618
0.017818932
0.016773798
0.015816266
0.014940397
0.014141671
0.013414365
0.012750885
0.012143236
0.011581524
0.011055085
0.010556174
0.010080541
0.0096260308
0.0091913925
0.008775696
0.008378124
0.0079979101
0.0076343226
0.0072866606
0.0069542517
0.06833184
0.071485393
0.074979298
0.078550726
0.081922202
0.084850208
0.087151022
0.088703793
0.089443952
0.089354026
0.088447337
0.08677122
0.08439093
0.081414422
0.077955614
0.074135015
0.070080042
0.065919212
0.061766958
0.057711455
0.053815218
0.050122815
0.046668219
0.043473091
0.040537866
0.037844558
0.035362971
0.033052245
0.030877377
0.02882528
0.0268992
0.02510542
0.0234458
0.021917056
0.020512277
0.019222692
0.018039675
0.016955365
0.015961807
0.01505147
0.01421873
0.013459305
0.012767755
0.012136849
0.011558986
0.011024773
0.010524074
0.010049523
0.0095970789
0.0091646968
0.00875119
0.0083556775
0.0079773853
0.0076155872
0.00726959
0.0069387292
0.0066223675
0.0063198934
0.0060307203
0.0057542857
0.064668125
0.067673331
0.071002006
0.074405159
0.077619673
0.080414378
0.082614683
0.084105575
0.08482539
0.084757128
0.083913012
0.08233759
0.080092477
0.077279937
0.074007981
0.070390978
0.066549909
0.062606862
0.058670622
0.054825079
0.051129744
0.047627046
0.044349344
0.041317355
0.038531653
0.035975255
0.033619509
0.031425623
0.029360405
0.027411487
0.025582002
0.023877964
0.022301192
0.02084861
0.01951369
0.018288127
0.017163746
0.016133093
0.015188628
0.014323214
0.013531527
0.012809512
0.012151999
0.011552103
0.011002596
0.010494561
0.010018366
0.0095670075
0.0091366416
0.0087253276
0.0083319408
0.0079556467
0.0075957123
0.0072514498
0.0069222026
0.0066073407
0.0063062601
0.006018381
0.0057431473
0.0054800253
0.005228503
0.0049880893
0.061195356
0.064058981
0.067230043
0.070472668
0.073537378
0.076204727
0.078308794
0.079740139
0.08043988
0.080391467
0.079606103
0.078125704
0.076008438
0.07335117
0.070256307
0.066832375
0.063194241
0.059457882
0.05572671
0.052080532
0.048575996
0.045253496
0.042143849
0.039266863
0.036623246
0.034196959
0.031960817
0.029877994
0.027917016
0.026066195
0.024328557
0.022709858
0.021211874
0.019831727
0.018563253
0.017398588
0.016329985
0.015350376
0.014452615
0.01362994
0.012877313
0.012190893
0.011565767
0.010995377
0.010472852
0.0099897289
0.0095368542
0.0091075665
0.0086982131
0.0083069512
0.0079327147
0.0075747137
0.0072322539
0.0069046841
0.0065913819
0.0062917509
0.0060052182
0.0057312344
0.0054692721
0.005218825
0.0049794075
0.0047505536
0.057904388
0.060632912
0.063653653
0.066743178
0.069664936
0.072210619
0.074222558
0.07559661
0.076276549
0.076246285
0.075516059
0.074125299
0.072128914
0.069618645
0.066691575
0.063450687
0.060005038
0.056464792
0.052928248
0.049471333
0.046147966
0.042996596
0.04004657
0.03731683
0.034808201
0.03250554
0.030383053
0.02840578
0.026543877
0.024786306
0.023135982
0.02159842
0.020175351
0.018864083
0.017658796
0.016552045
0.015536491
0.014605433
0.013752096
0.012970075
0.012254605
0.011602047
0.011007731
0.010465413
0.0099685592
0.0095091382
0.0090784519
0.0086701655
0.0082808069
0.0079086268
0.007552615
0.0072120233
0.0068861946
0.0065745122
0.0062763868
0.0059912529
0.005718568
0.005457811
0.005208482
0.0049701008
0.0047422069
0.004524358
0.054773017
0.057372538
0.060249797
0.063193199
0.065978507
0.068408024
0.07033194
0.071651165
0.072312005
0.072298807
0.071620901
0.070315348
0.068433949
0.066063569
0.06329622
0.060229602
0.056967232
0.053613737
0.050262545
0.046985881
0.043835064
0.04084669
0.038048704
0.035459219
0.03307917
0.030894271
0.028880048
0.02700332
0.025235798
0.023567057
0.021999913
0.020539644
0.01918794
0.017942289
0.016797197
0.01574562
0.014780603
0.013895796
0.013084779
0.012341489
0.011661416
0.011041116
0.010476152
0.0099605774
0.0094881794
0.0090513384
0.00864179
0.0082535106
0.0078831999
0.007529198
0.0071905475
0.0068665406
0.0065565553
0.0062600077
0.0059763399
0.0057050163
0.0054455228
0.0051973658
0.0049600713
0.0047331841
0.0045162674
0.0043089017
0.051802987
0.054279371
0.057019742
0.059823732
0.062478805
0.064797347
0.066637018
0.067903542
0.068545651
0.068548116
0.067919412
0.066694363
0.064921827
0.06268403
0.06006817
0.057166926
0.05407855
0.050902399
0.047727266
0.044621848
0.041634989
0.038801516
0.036148037
0.033691873
0.031434059
0.029361121
0.027449838
0.025668719
0.023990952
0.022406695
0.020918666
0.01953192
0.018248105
0.017064878
0.015977055
0.014977971
0.014061039
0.013220241
0.012449495
0.01174306
0.011096673
0.010507072
0.0099700412
0.0094799177
0.0090307952
0.0086154448
0.0082260153
0.0078567789
0.0075045992
0.0071679008
0.006845777
0.0065375579
0.006242655
0.0059605158
0.0056906119
0.0054324364
0.0051855022
0.0049493415
0.0047235052
0.0045075617
0.004301097
0.0041037132
0.048991702
0.051350583
0.053960401
0.056631425
0.059162201
0.061374688
0.063133647
0.064349385
0.064972951
0.064989536
0.064406829
0.063257541
0.061587742
0.059475273
0.057002764
0.054258127
0.051334612
0.048326571
0.045318385
0.042375401
0.039544101
0.036857629
0.034341311
0.03201171
0.029869954
0.02790333
0.026089809
0.024399503
0.022807002
0.021303015
0.019890164
0.018573288
0.017353997
0.016230106
0.015196722
0.014247543
0.013376328
0.012577375
0.011844922
0.011173535
0.010559181
0.0099987762
0.0094883132
0.0090223973
0.0085954139
0.0082005059
0.0078302149
0.0074790946
0.0071441644
0.0068239293
0.0065175305
0.0062243343
0.0059437838
0.0056753562
0.0054185514
0.0051728893
0.0049379087
0.0047131663
0.0044982364
0.0042927102
0.0040961949
0.0039083133
0.046325493
0.0485722
0.05105745
0.053601596
0.056013717
0.058124863
0.059806557
0.060973468
0.061578858
0.061608339
0.061068853
0.059991115
0.058418556
0.056424853
0.054088294
0.051492259
0.048725246
0.045876841
0.04302723
0.040238565
0.037555079
0.035008308
0.032622359
0.030413068
0.028381645
0.026516101
0.024795539
0.023191591
0.021680181
0.02025254
0.018911199
0.01766079
0.016502884
0.015435444
0.014453858
0.013552163
0.012724451
0.011965317
0.011269305
0.010631272
0.010047406
0.009514788
0.0090296108
0.0085867356
0.0081808249
0.007805375
0.0074533015
0.0071194263
0.0068009168
0.0064963545
0.0062049263
0.0059260325
0.0056591466
0.005403774
0.0051594412
0.0049256939
0.0047020952
0.0044882253
0.004283681
0.0040880745
0.0039010337
0.0037222008
0.043796829
0.045936447
0.048302835
0.050725916
0.053024766
0.055039082
0.056646815
0.057766793
0.058354393
0.058395632
0.057896759
0.056886599
0.055406085
0.053524933
0.051317309
0.048862291
0.046243849
0.043547038
0.040848051
0.038205998
0.035662969
0.033248967
0.030986934
0.028892009
0.026965478
0.02519604
0.023563869
0.022042045
0.020607756
0.01925273
0.01797941
0.016792229
0.01569272
0.014678989
0.013746686
0.012890172
0.012103854
0.011382613
0.010721279
0.010114987
0.0095601362
0.0090539639
0.0085928525
0.0081719069
0.0077860532
0.0074291242
0.0070943913
0.0067769317
0.0064740534
0.0061844109
0.0059072344
0.0056419569
0.0053880804
0.005145137
0.0049126789
0.0046902758
0.0044775144
0.004273997
0.0040793414
0.0038931806
0.0037151616
0.0035449454
0.041398358
0.043435749
0.045688726
0.047996293
0.050187023
0.052108833
0.053645785
0.05472067
0.055290888
0.055342852
0.05488216
0.053935848
0.052542478
0.050768009
0.048682692
0.046361507
0.043884124
0.041331286
0.038775385
0.036272635
0.033863081
0.031575267
0.029431022
0.027444819
0.025618013
0.023939953
0.022391832
0.020948105
0.019587162
0.018301205
0.017092586
0.015965552
0.014921599
0.013958965
0.01307355
0.012260026
0.011513095
0.010827909
0.010199575
0.0096234888
0.0090962502
0.0086152455
0.0081770374
0.0077769627
0.0074101981
0.0070708967
0.0067526686
0.0064508336
0.0061628339
0.0058873933
0.0056237832
0.0053714675
0.0051299753
0.0048988642
0.0046777107
0.0044661077
0.0042636637
0.0040700024
0.0038847618
0.003707594
0.0035381647
0.0033761525
0.039122921
0.041062706
0.043207453
0.045404781
0.047492288
0.049325705
0.050794914
0.051826478
0.052379728
0.052441466
0.052016677
0.051130707
0.049819866
0.048146546
0.046177272
0.043983135
0.041639711
0.039223639
0.036803693
0.034433326
0.032150641
0.029982784
0.027950525
0.0260677
0.024335723
0.022744564
0.02127638
0.019906935
0.018615763
0.017395509
0.016248445
0.015178638
0.014187545
0.013273531
0.012432736
0.01166012
0.010950673
0.010299801
0.009702873
0.0091555363
0.0086545784
0.0081975285
0.0077811205
0.0074009118
0.0070523178
0.0067297962
0.0064272794
0.0061403181
0.0058664826
0.0056045622
0.0053538677
0.0051138921
0.0048841906
0.004664345
0.0044539547
0.0042526346
0.0040600143
0.0038757375
0.0036994616
0.0035308569
0.0033696067
0.0032154064
0.036966358
0.038812948
0.040854408
0.042946528
0.044935472
0.046684398
0.048088723
0.049078601
0.049615211
0.049685734
0.049294589
0.04846552
0.047232707
0.045655156
0.043795858
0.041722202
0.039505876
0.037219614
0.034928746
0.0326841
0.030521921
0.028468028
0.026542175
0.024757588
0.023115739
0.021607179
0.020214985
0.018916162
0.017691329
0.016533556
0.015445033
0.014429653
0.013488839
0.012621077
0.011822728
0.011089032
0.010415248
0.0097970254
0.0092299813
0.0087100013
0.0082340526
0.0077997991
0.0074041376
0.0070428356
0.0067115354
0.0064049844
0.0061174216
0.0058446181
0.0055842651
0.0053352151
0.0050968156
0.0048685879
0.0046501116
0.0044409915
0.0042408488
0.0040493194
0.0038660528
0.0036907118
0.003522972
0.0033625214
0.0032090598
0.0030622986
0.034927397
0.036685062
0.038628024
0.040619801
0.042514667
0.044182825
0.045524948
0.046474616
0.046994774
0.047072981
0.046713127
0.045937456
0.044778139
0.043290975
0.041535606
0.039575914
0.037479892
0.035316569
0.033147999
0.031022511
0.028974583
0.027028767
0.025203847
0.023512463
0.021956136
0.020525969
0.019205906
0.017974129
0.016812288
0.015713853
0.014680935
0.013717261
0.012824218
0.012000403
0.011242391
0.010545686
0.0099057983
0.0093186119
0.0087799772
0.008286006
0.0078338359
0.0074212582
0.0070453247
0.006702002
0.0063871484
0.0060957864
0.0058224469
0.00556311
0.0053155827
0.0050787766
0.0048520747
0.0046350247
0.0044272294
0.0042283155
0.0040379249
0.0038557132
0.0036813489
0.0035145129
0.0033548981
0.0032022091
0.0030561616
0.0029164822
0.032995388
0.034668162
0.036517143
0.038413169
0.040218218
0.041809186
0.043091746
0.044002737
0.044506792
0.04459184
0.044261285
0.043535949
0.042446097
0.041044492
0.039387595
0.037535954
0.035554053
0.033507393
0.031454915
0.029442565
0.027503141
0.025659983
0.02393095
0.022328123
0.020853063
0.019497396
0.01824589
0.017077845
0.015975889
0.014933871
0.013953826
0.013039321
0.012191709
0.011409693
0.010690049
0.010028529
0.0094208868
0.0088632253
0.0083516186
0.0078823926
0.0074528467
0.0070608934
0.0067037313
0.0063775169
0.0060783136
0.0058014059
0.005541602
0.0052950812
0.0050597602
0.0048346076
0.0046190395
0.0044126289
0.0042150007
0.0040258021
0.0038446948
0.0036713532
0.0035054638
0.0033467247
0.0031948453
0.0030495459
0.0029105572
0.0027776203
0.031162969
0.03275467
0.034513939
0.036318566
0.038037843
0.039555032
0.040780564
0.041654381
0.042142735
0.042233911
0.041930858
0.041253052
0.040228957
0.038908446
0.037344957
0.035595871
0.033722331
0.031786484
0.029844301
0.027939465
0.026103168
0.024357595
0.022719725
0.021201099
0.019803316
0.018518497
0.017332193
0.016224767
0.015179777
0.014191429
0.013261686
0.012393964
0.011589581
0.010847338
0.010164205
0.0095361697
0.0089592158
0.0084296544
0.007943772
0.0074980986
0.0070900871
0.0067177651
0.006378471
0.006068542
0.0057842366
0.0055210886
0.0052741702
0.0050398503
0.0048161502
0.0046020921
0.0043971242
0.0042008433
0.0040128953
0.0038329471
0.0036606789
0.0034957832
0.0033379634
0.0031869342
0.0030424206
0.0029041576
0.0027718907
0.0026453745
0.029429858
0.03094419
0.032617891
0.034335324
0.035972718
0.037419374
0.038590246
0.039428234
0.039901131
0.03999758
0.039720107
0.039086925
0.038124793
0.036880851
0.035405674
0.033753635
0.031982707
0.030151845
0.028314205
0.026511308
0.02477282
0.023119825
0.021568456
0.020129741
0.018805311
0.017587752
0.016463359
0.0154135
0.014422617
0.013485254
0.012603305
0.011780036
0.011016735
0.010312295
0.0096638672
0.0090676629
0.0085198843
0.00801704
0.0075556178
0.0071323412
0.0067448086
0.0063911568
0.0060688565
0.0057744171
0.0055042826
0.0052542232
0.0050195627
0.0047968502
0.0045842063
0.0043807045
0.0041858233
0.0039991818
0.003820446
0.0036493013
0.0034854459
0.0033285889
0.0031784504
0.0030347601
0.0028972581
0.0027656938
0.002639826
0.0025194225
0.027788885
0.02922935
0.0308214
0.032455625
0.03401483
0.035394057
0.036512557
0.037316046
0.037773797
0.0378748
0.03762119
0.037029992
0.03612635
0.034954814
0.033563239
0.032003145
0.03032949
0.028598199
0.026859743
0.025153591
0.023507949
0.021942855
0.020473634
0.019110819
0.017856068
0.016702411
0.015636843
0.014641691
0.013702232
0.012813335
0.01197682
0.011195817
0.010471579
0.0098030881
0.0091876653
0.0086217357
0.0081017075
0.0076242769
0.0071861232
0.0067841534
0.0064161042
0.0060802153
0.005774084
0.0054943829
0.0052377324
0.005000128
0.0047771323
0.0045654661
0.0043633447
0.0041698901
0.0039846093
0.003807143
0.0036371763
0.003474412
0.0033185652
0.0031693613
0.0030265355
0.0028898324
0.0027590062
0.0026338199
0.002514045
0.0023994619
0.026234905
0.027604853
0.029118991
0.03067381
0.032158357
0.033473126
0.034541457
0.03531175
0.035754689
0.035859603
0.035628269
0.035076583
0.03422817
0.033125118
0.031812706
0.030339741
0.028758318
0.027121478
0.025477138
0.023862812
0.022305318
0.020823692
0.019432491
0.018141773
0.016953219
0.015860276
0.014850607
0.013907446
0.013016866
0.01217404
0.01138072
0.010639903
0.0099528089
0.0093185039
0.0087344702
0.0081973345
0.0077037012
0.0072504445
0.0068344253
0.006452725
0.0061032112
0.0057842219
0.0054934741
0.0052277959
0.0049839755
0.0047582225
0.0045463268
0.0043451724
0.0041530647
0.0039691719
0.0037930282
0.0036242949
0.0034626746
0.0033078873
0.0031596638
0.0030177448
0.0028818802
0.0027518288
0.0026273579
0.0025082434
0.0023942693
0.0022852275
0.024765926
0.026068586
0.02750842
0.028987494
0.030400773
0.031653922
0.032674167
0.03341246
0.033840837
0.033948965
0.033738288
0.033223648
0.032427228
0.031388794
0.030151179
0.028760621
0.027266494
0.0257191
0.024163931
0.022636638
0.021162718
0.019760252
0.01844306
0.017220746
0.016095009
0.01505969
0.014103083
0.013209285
0.01236512
0.01156605
0.010813762
0.010111123
0.0094593215
0.0088575023
0.0083033
0.007793532
0.0073249886
0.0068947125
0.006499737
0.0061373087
0.0058054195
0.0055025002
0.0052263812
0.004974039
0.0047424211
0.0045279402
0.0043266026
0.0041354476
0.0039528661
0.0037780703
0.0036106202
0.0034501963
0.0032965183
0.003149322
0.0030083534
0.0028733678
0.0027441288
0.0026204085
0.002501987
0.0023886524
0.0022802003
0.0021764338
0.023375057
0.024613467
0.025982386
0.027389164
0.028734374
0.029928603
0.030902769
0.031610258
0.032024398
0.032135184
0.031943754
0.031463953
0.030716607
0.029739276
0.028572472
0.027259992
0.025848627
0.024386075
0.022915515
0.021470828
0.020076251
0.018748954
0.017502054
0.016344718
0.015278659
0.014298092
0.01339191
0.012545026
0.011744982
0.010987509
0.010274232
0.0096078954
0.0089896565
0.0084187327
0.0078929036
0.0074091676
0.0069644909
0.0065560767
0.0061811215
0.005837029
0.0055219091
0.0052342803
0.0049720814
0.0047324295
0.0045124236
0.00430867
0.0041173805
0.0039357423
0.0037622279
0.0035960908
0.0034369159
0.0032844019
0.0031382846
0.0029983149
0.0028642533
0.0027358685
0.0026129377
0.0024952454
0.0023825838
0.0022747526
0.0021715586
0.0020728153
0.022060282
0.023237387
0.024538674
0.025876489
0.027156721
0.028294623
0.029224628
0.029902434
0.030302609
0.030415468
0.03024187
0.029794725
0.029093575
0.028173894
0.027073998
0.025835366
0.024502338
0.023120135
0.021729743
0.020363353
0.019044005
0.017788
0.01660778
0.015512097
0.014502671
0.013574071
0.012715756
0.011913415
0.011155269
0.010437305
0.0097610864
0.0091292385
0.0085428898
0.0080013256
0.007502462
0.0070434688
0.0066214791
0.0062338476
0.0058779262
0.0055512675
0.0052520927
0.0049790038
0.0047300421
0.0045024587
0.0042934967
0.0040999461
0.0039182142
0.0037456288
0.0035807397
0.0034228404
0.0032715388
0.003126551
0.0029876281
0.0028545352
0.0027270465
0.0026049439
0.0024880168
0.0023760619
0.0022688828
0.0021662901
0.0020681012
0.0019741397
0.020816785
0.021935374
0.023172138
0.024444147
0.025662331
0.026746378
0.027634056
0.028283271
0.028669771
0.02878419
0.02862713
0.028210621
0.027552992
0.026687742
0.025651105
0.024482361
0.023223523
0.021917458
0.020603063
0.019310925
0.01806294
0.016874579
0.015757645
0.014720484
0.013764825
0.01288557
0.012072714
0.011312682
0.010594339
0.009913914
0.0092729106
0.008673841
0.008117804
0.0076041492
0.0071309218
0.0066954538
0.0062950364
0.0059271681
0.005589348
0.00527927
0.0049952612
0.0047360022
0.004499632
0.0042835291
0.0040850734
0.0039012296
0.0037285909
0.003564619
0.0034079374
0.003257877
0.003114068
0.0029762429
0.0028441672
0.0027176197
0.0025963874
0.0024802646
0.0023690526
0.0022625594
0.0021605996
0.0020629942
0.0019695705
0.0018801617
0.019640913
0.020703653
0.021878862
0.02308808
0.024247018
0.02527957
0.026126679
0.026748353
0.02712147
0.027236974
0.027095233
0.026707447
0.026090806
0.025276936
0.024300096
0.023197483
0.022008896
0.020774969
0.019532609
0.018310878
0.01713058
0.016006398
0.01494952
0.013967906
0.013063288
0.012230884
0.011461196
0.010741348
0.010060814
0.0094160539
0.0088085122
0.0082405928
0.0077133656
0.0072262401
0.0067773837
0.0063642817
0.0059843754
0.0056352997
0.0053146932
0.005020384
0.0047507992
0.0045046942
0.0042803007
0.0040751182
0.0038866571
0.0037120476
0.00354806
0.0033922832
0.0032434109
0.0031008098
0.0029641308
0.0028331221
0.0027075631
0.0025872452
0.0024719678
0.0023615369
0.0022557651
0.0021544711
0.0020574798
0.0019646223
0.0018757352
0.0017906609
0.018529434
0.019538875
0.020655369
0.021804681
0.022907048
0.023890362
0.024698587
0.025293727
0.025653744
0.025769884
0.025642302
0.025281422
0.024703355
0.023937956
0.023017615
0.02197755
0.02085546
0.019689855
0.018515753
0.017360762
0.016244649
0.015181341
0.01418144
0.013252537
0.012396361
0.011608429
0.010879724
0.010198034
0.0095534094
0.0089425273
0.0083667755
0.0078284542
0.0073286046
0.0068666927
0.006441001
0.0060491602
0.0056887535
0.005357545
0.0050533059
0.0047739914
0.0045181236
0.0042845283
0.0040715253
0.0038767296
0.0036977751
0.0035319496
0.0033761917
0.0032282115
0.003086769
0.0029512651
0.0028213706
0.0026968485
0.002577491
0.0024631018
0.002353492
0.0022484786
0.002147885
0.00205154
0.0019592785
0.0018709407
0.0017863724
0.0017054247
0.017479244
0.01843783
0.019498324
0.020590485
0.021638839
0.022575075
0.023346024
0.023915595
0.024262785
0.024379138
0.024264615
0.02392891
0.023387118
0.02266742
0.021800434
0.020819503
0.019760332
0.018659415
0.017549971
0.016458226
0.015402957
0.014397373
0.013451515
0.012572618
0.011762407
0.011016681
0.010326878
0.0096814131
0.0090708875
0.0084921806
0.0079466254
0.0074364228
0.0069625862
0.0065246342
0.0061209577
0.0057493253
0.0054074543
0.0050932315
0.0048045536
0.0045394964
0.0042966717
0.0040749723
0.0038728014
0.0036878839
0.0035179713
0.0033605009
0.0032125713
0.0030720077
0.0029376337
0.0028088823
0.0026854432
0.0025670933
0.0024536372
0.0023448903
0.0022406744
0.0021408173
0.0020451523
0.0019535181
0.0018657588
0.0017817235
0.0017012667
0.0016242475
0.016487086
0.017397148
0.018404235
0.019441877
0.020438661
0.021329883
0.022065101
0.022610037
0.022944676
0.023060855
0.022958361
0.022646202
0.022138515
0.021461899
0.020645292
0.019720261
0.018720619
0.017680942
0.016632742
0.015600927
0.014603332
0.013652482
0.012757881
0.011926422
0.011159824
0.010454149
0.0098012708
0.0091901963
0.008612048
0.0080638972
0.0075470241
0.0070635337
0.0066144123
0.0061992277
0.0058164733
0.0054640477
0.0051397956
0.0048417196
0.0045678356
0.004316334
0.0040859113
0.0038755236
0.0036836534
0.0035081302
0.0033468171
0.0031972935
0.00305681
0.0029233014
0.0027956518
0.0026733246
0.0025560275
0.0024435506
0.0023357102
0.0022323326
0.00213325
0.0020383002
0.0019473263
0.0018601759
0.0017767021
0.0016967625
0.0016202195
0.0015469402
0.015550852
0.016414646
0.017370827
0.018356485
0.019304052
0.020152244
0.02085321
0.021374397
0.021696739
0.021812358
0.021720882
0.021430683
0.020954996
0.020318923
0.019549815
0.018677557
0.017734168
0.016752402
0.01576215
0.014787066
0.01384409
0.012945092
0.012099064
0.011312569
0.010587318
0.0099196228
0.0093017647
0.0087233151
0.008175889
0.0076567384
0.0071670916
0.0067089624
0.0062833101
0.0058897481
0.0055268664
0.0051926866
0.0048851737
0.0046024402
0.0043426148
0.0041039959
0.0038853608
0.003685725
0.0035036464
0.0033370539
0.0031839165
0.0030419486
0.0029085453
0.0027817458
0.0026604912
0.0025442743
0.0024328194
0.0023259294
0.0022234315
0.0021251623
0.0020309641
0.001940684
0.001854174
0.0017712908
0.0016918956
0.0016158542
0.0015430365
0.0014733171
0.014666672
0.015486325
0.016393962
0.017330031
0.018230607
0.019037653
0.019705783
0.020204089
0.020514407
0.020629141
0.020547779
0.020278091
0.019832465
0.019234588
0.018510311
0.017687921
0.016797736
0.01587078
0.014935402
0.014014064
0.013122851
0.01227301
0.011473043
0.010729197
0.01004317
0.0094115107
0.0088268877
0.0082794065
0.0077611484
0.0072695361
0.0068057474
0.0063717087
0.0059683529
0.0055953359
0.0052513391
0.0049344999
0.0046428974
0.0043747479
0.0041282874
0.0039019169
0.0036944895
0.0035050772
0.0033323095
0.0031742099
0.0030288481
0.0028940666
0.0027673979
0.0026469803
0.0025318094
0.0024214056
0.0023155094
0.0022139354
0.0021165213
0.0020231136
0.0019335637
0.0018477279
0.0017654669
0.0016866454
0.0016111326
0.0015388019
0.0014695307
0.0014032003
0.013831617
0.014609155
0.015470495
0.016359256
0.017214961
0.01798266
0.018619311
0.019095572
0.019394144
0.019507703
0.019435613
0.01918508
0.018767695
0.018205807
0.017523844
0.016748582
0.015908722
0.015033647
0.014150237
0.01327982
0.012437668
0.011634433
0.01087815
0.010174759
0.0095259461
0.0089284828
0.0083754036
0.0078573206
0.0073667574
0.0069012971
0.006462069
0.0060509154
0.0056687435
0.0053152493
0.0049891995
0.0046888416
0.0044123625
0.0041580772
0.0039243229
0.0037095982
0.0035128278
0.0033331372
0.0031692238
0.0030192011
0.0028812348
0.0027532887
0.002633026
0.0025186793
0.0024092961
0.0023044231
0.0022038159
0.0021073003
0.0020147241
0.0019259428
0.001840817
0.0017592112
0.0016809942
0.0016060389
0.0015342218
0.0014654236
0.0013995284
0.0013364246
0.013043939
0.013781325
0.014598541
0.015442197
0.016255076
0.01698516
0.017591635
0.018046649
0.018333731
0.018445823
0.01838218
0.018149482
0.017758568
0.017230526
0.016588439
0.015857652
0.015065332
0.014239304
0.013405055
0.012582831
0.011787132
0.011028042
0.010313149
0.0096480986
0.0090345621
0.0084695207
0.0079463556
0.0074561588
0.0069918723
0.0065512301
0.0061353141
0.0057458865
0.0053838293
0.005048875
0.0047398713
0.0044551694
0.0041930582
0.0039519458
0.0037302656
0.0035266085
0.0033399668
0.0031695166
0.0030140195
0.002871675
0.0027407397
0.0026192926
0.0025051209
0.0023965473
0.0022926685
0.0021930558
0.0020974795
0.002005776
0.0019178023
0.0018334227
0.0017525062
0.0016749255
0.0016005571
0.0015292811
0.0014609813
0.0013955452
0.0013328636
0.0012728309
0.0123007
0.012999796
0.013774948
0.014575588
0.015347583
0.016041698
0.016619243
0.017053782
0.017329637
0.017440011
0.017384059
0.017167971
0.016801882
0.016305685
0.015701193
0.015012393
0.014265001
0.013485361
0.012697633
0.011921038
0.011169338
0.010452077
0.0097764134
0.0091477125
0.0085676259
0.0080333343
0.0075385467
0.0070748096
0.0066354613
0.0062183778
0.0058245952
0.0054557985
0.0051128454
0.0047955022
0.0045026928
0.0042328666
0.0039844084
0.003755815
0.0035456108
0.003352474
0.003175461
0.0030137953
0.0028662999
0.002731256
0.0026070064
0.0024917396
0.0023833609
0.002280278
0.0021816347
0.0020870261
0.0019962359
0.0019091107
0.0018255162
0.0017453252
0.0016684144
0.0015946643
0.0015239587
0.0014561846
0.0013912328
0.0013289971
0.0012693745
0.0012122656
0.011599962
0.012262563
0.012997637
0.01375727
0.014490249
0.01514998
0.015699793
0.016114603
0.016379485
0.016487899
0.016438917
0.016238267
0.015895423
0.015429153
0.014860067
0.01421087
0.0135059
0.012770098
0.012026362
0.011292938
0.010582885
0.0099052322
0.0092667289
0.0086724681
0.0081240816
0.0076189375
0.007151055
0.0067124111
0.006296719
0.0059019879
0.0055292095
0.0051799954
0.0048551787
0.0045545576
0.0042771271
0.0040214293
0.0037859403
0.00356924
0.0033699394
0.0031867993
0.0030189365
0.0028656193
0.0027257289
0.0025976243
0.0024797302
0.0023703389
0.0022674677
0.0021696057
0.0020759411
0.0019860915
0.0018998534
0.001817083
0.0017376544
0.0016614482
0.0015883486
0.0015182433
0.001451023
0.0013865815
0.0013248158
0.0012656259
0.001208915
0.0011545889
0.010939416
0.011567236
0.012264126
0.012984672
0.013680417
0.014307278
0.014830507
0.015226304
0.015480468
0.015586707
0.015544018
0.015357704
0.015036614
0.014598458
0.01406271
0.01345086
0.012785942
0.01209156
0.011389419
0.010696835
0.010026199
0.009386049
0.0087827427
0.0082211111
0.0077027642
0.0072252468
0.0067828719
0.0063680239
0.0059747708
0.0056012467
0.0052484003
0.0049177727
0.0046101734
0.0043254295
0.0040626034
0.0038203242
0.0035971543
0.0033917524
0.0032028114
0.0030291704
0.0028700029
0.0027246198
0.0025919574
0.0024704486
0.0023585962
0.0022547907
0.0021571558
0.002064258
0.0019753279
0.0018900042
0.0018080957
0.0017294677
0.0016540021
0.0015815869
0.0015121134
0.0014454762
0.0013815724
0.0013203023
0.0012615689
0.001205278
0.0011513382
0.001099661
0.010317089
0.010911776
0.011572299
0.012255598
0.012915817
0.013511259
0.014009004
0.014386481
0.014630175
0.014734038
0.014697005
0.014523979
0.014223228
0.013811461