/*--------------------------------*- C++ -*----------------------------------*\
| =========                 |                                                 |
| \\      /  F ield         | OpenFOAM: The Open Source CFD Toolbox           |
|  \\    /   O peration     | Version:  2506                                  |
|   \\  /    A nd           | Website:  www.openfoam.com                      |
|    \\/     M anipulation  |                                                 |
\*---------------------------------------------------------------------------*/
FoamFile
{
    version     2.0;
    format      ascii;
    arch        "LSB;label=32;scalar=64";
    class       surfaceScalarField;
    location    "0.0065";
    object      phi;
}
// * * * * * * * * * * * * * * * * * * * * * * * * * * * * * * * * * * * * * //

dimensions      [1 0 -1 0 0 0 0];

oriented        oriented;

internalField   nonuniform List<scalar> 
27235
(
0.0014381542
-7.5152401e-05
0.0015126749
-0.00052120044
-0.00050454184
-0.0011160133
-0.00056168563
-0.0010626301
-0.00057450973
-0.0010117689
-0.00012596425
-0.00096175138
-0.0002510557
-0.00032062424
-0.0011803087
-0.00062172336
-0.0011242245
-0.00063051673
-0.0010707849
-0.00017935181
-0.0010182185
-0.00030337746
-0.0009686499
-0.0003699908
-0.00092405868
-9.2802636e-05
-0.00036080364
-0.0012490397
-0.00068481295
-0.0011901149
-0.00068935404
-0.0011339613
-0.00023544409
-0.0010787106
-0.00035836855
-0.0010266067
-0.00042188191
-0.0009797502
-0.00013971433
-0.00093457549
-0.00040603046
-0.00088963673
-0.00060604262
-0.00029969683
-0.0013215796
-0.0007510997
-0.0012596719
-0.00075116914
-0.0012006659
-0.00029438473
-0.0011425946
-0.00041617176
-0.0010878293
-0.00047641307
-0.0010385945
-0.00018900658
-0.00099112497
-0.00045356933
-0.00094388271
-0.00065331852
-0.00090018841
-0.0003435186
-0.00085913615
-0.00047702636
-0.00062688211
-0.0013986754
-0.00082074657
-0.0013336322
-0.00081611477
-0.0012716246
-0.00035632278
-0.0012105851
-0.00047692736
-0.0011530223
-0.0005337286
-0.0011012875
-0.00024080085
-0.0010514028
-0.00050354457
-0.0010017363
-0.00070302102
-0.0009558033
-0.00038958553
-0.00091264877
-0.00052032934
-0.00086967914
-0.00066989867
-0.00082883955
-0.00026582181
-0.00014714877
-0.0014808668
-0.00089392623
-0.0014125271
-0.00088435162
-0.0013473601
-0.00042141581
-0.0012831956
-0.00054079104
-0.0012226911
-0.00059397131
-0.0011683283
-0.00029522627
-0.001115901
-0.00055606758
-0.0010636818
-0.00075527282
-0.0010153932
-0.00043800715
-0.00097002427
-0.00056585411
-0.00092482693
-0.0007151469
-0.00088186724
-0.00030872263
-0.00084159501
-0.00018735919
-0.00080257133
-0.00023155198
-0.00022275085
-0.0015679504
-0.00097081591
-0.0014961479
-0.00095604577
-0.0014276585
-0.00048982691
-0.0013602079
-0.00060792239
-0.0012966144
-0.00065728777
-0.0012394915
-0.00035241501
-0.00118439
-0.00061127039
-0.0011294869
-0.00081021144
-0.001078723
-0.00048891172
-0.0010310246
-0.00061373459
-0.00098348268
-0.00076272213
-0.00093829316
-0.00035385237
-0.00089592942
-0.00022965811
-0.00085486397
-0.00027253415
-0.00081576612
-0.0002617891
-0.00077826334
-0.00036877518
-0.0007418437
-0.00023122385
-0.00014142151
-0.0016605058
-0.0010516048
-0.0015850635
-0.001031374
-0.0015130771
-0.00056173032
-0.001442168
-0.00067849272
-0.0013753282
-0.00072383409
-0.0013153048
-0.00041250768
-0.0012573882
-0.00066929383
-0.0011996604
-0.00086797784
-0.0011462936
-0.00054242759
-0.001096142
-0.00066407828
-0.0010461296
-0.00081276975
-0.00099859264
-0.00040128529
-0.00095402577
-0.00027414682
-0.00091080827
-0.00031566332
-0.00086965511
-0.00030287791
-0.00083017013
-0.00040820377
-0.00079181302
-0.00026956629
-0.00075521062
-0.00017808405
-0.00071979124
-0.00031879452
-0.00039310006
-0.0017587426
-0.0011364902
-0.0016794753
-0.0011105215
-0.0016038088
-0.00063730895
-0.0015292605
-0.00075268096
-0.0014590105
-0.00079377307
-0.0013959393
-0.00047565153
-0.0013350601
-0.00073028588
-0.0012743606
-0.00092871937
-0.0012182571
-0.000598689
-0.001165523
-0.00071701547
-0.0011129082
-0.00086542172
-0.0010629008
-0.00045118305
-0.0010160141
-0.00032095081
-0.00097052919
-0.00036105457
-0.0009272109
-0.00034613698
-0.00088563625
-0.00044971891
-0.00084523647
-0.00030995312
-0.00080667558
-0.00021670827
-0.00076933843
-0.00035620703
-0.00073264328
-0.00042987659
-0.0006965645
-0.00058460926
-0.00079335285
-0.0018630078
-0.001225679
-0.0017797213
-0.001193682
-0.0017001822
-0.0007167553
-0.001621805
-0.0008306756
-0.001547973
-0.00086727536
-0.0014817002
-0.00054200043
-0.001417703
-0.00079440217
-0.0013538772
-0.00099259078
-0.0012948974
-0.00065783642
-0.0012394442
-0.00077268337
-0.0011840883
-0.00092081696
-0.0011314814
-0.00050367404
-0.0010821524
-0.00037019231
-0.0010342788
-0.00040882873
-0.00098867977
-0.00039167268
-0.0009449023
-0.00049342763
-0.00090234915
-0.00035246625
-0.0008617234
-0.00025740767
-0.00082236173
-0.00039564602
-0.0007836523
-0.00046866919
-0.0007455679
-0.00062279158
-0.00070855316
-0.00083048795
-0.00067335465
-0.0009633002
-0.00099704403
-0.0019743027
-0.0013193922
-0.0018867899
-0.0012810626
-0.0018031715
-0.00080027575
-0.0017207606
-0.00091267923
-0.0016431624
-0.0009445233
-0.0015735234
-0.00061171919
-0.0015062413
-0.00086180997
-0.0014391224
-0.0010597592
-0.0013771156
-0.00072002137
-0.0013187961
-0.00083123006
-0.0012605479
-0.00097910685
-0.0012052013
-0.00055889842
-0.0011532963
-0.00042200467
-0.0011029012
-0.00045911814
-0.0010548948
-0.00043961142
-0.0010087899
-0.00053945934
-0.00096396103
-0.00039725313
-0.00092115253
-0.0003002945
-0.00087964708
-0.00043726134
-0.00083880266
-0.00050963334
-0.00079859022
-0.00066310333
-0.00075947897
-0.00086972277
-0.00072227218
-0.0010006636
-0.00068678781
-0.0010326921
-0.00065197177
-0.00098983887
-0.00091908776
-0.0020927
-0.0014178594
-0.0020007448
-0.0013728792
-0.0019128313
-0.00088808604
-0.0018261738
-0.00099890315
-0.0017446184
-0.0010257066
-0.0016714421
-0.00068497892
-0.0016007008
-0.00093268409
-0.0015301157
-0.001130398
-0.0014649258
-0.00078540081
-0.0014035865
-0.00089281035
-0.0013422892
-0.0010404485
-0.0012840579
-0.00061700067
-0.0012294386
-0.00047652577
-0.0011763848
-0.00051205968
-0.0011258403
-0.00049008347
-0.0010772794
-0.00058794233
-0.001030049
-0.00044443945
-0.000984937
-0.00034548988
-0.00094116564
-0.00048114919
-0.00089806278
-0.00055286306
-0.00085559765
-0.00070571975
-0.0008142654
-0.00091122822
-0.00077492973
-0.0010401635
-0.00073739864
-0.0010703977
-0.00070054457
-0.00102684
-0.00066315367
-0.00095659049
-0.00062432171
-0.00091162216
-0.00058488761
-0.0009219281
-0.00086722725
-0.0022183667
-0.00152132
-0.0021217439
-0.0014693568
-0.0020293087
-0.00098041256
-0.0019381819
-0.0010895679
-0.0018524707
-0.0011110216
-0.0017755782
-0.00076195865
-0.0017011952
-0.0010072074
-0.0016269636
-0.0012046878
-0.0015584279
-0.00085413829
-0.0014939083
-0.0009575858
-0.0014293981
-0.0011050057
-0.0013681314
-0.0006781308
-0.0013106538
-0.00053389935
-0.0012547985
-0.0005677957
-0.0012015802
-0.0005432243
-0.0011504296
-0.00063900981
-0.0011006675
-0.00049415531
-0.0010531271
-0.00039311903
-0.0010069635
-0.00052743645
-0.00096147475
-0.00059848621
-0.0009166298
-0.00075072536
-0.00087294782
-0.00095509422
-0.00083135937
-0.0010819508
-0.00079166167
-0.0011102814
-0.00075264769
-0.0010660125
-0.00071301396
-0.0009963455
-0.00067178183
-0.00095293516
-0.00062984322
-0.0009639144
-0.00059001573
-0.00090707952
-0.00055376687
-0.00077904231
-0.0006559574
-0.0023521199
-0.0016300282
-0.0022505902
-0.0015707345
-0.002153392
-0.0010774963
-0.0020575584
-0.0011849091
-0.0019674804
-0.0012006781
-0.0018866818
-0.00084284813
-0.0018084624
-0.0010855756
-0.0017303919
-0.0012828211
-0.0016583374
-0.00092640787
-0.0015904658
-0.0010257301
-0.0015225669
-0.0011729546
-0.0014581034
-0.0007424496
-0.0013976131
-0.00059427948
-0.0013388027
-0.00062647927
-0.0012827647
-0.00059917945
-0.0012288802
-0.00069280574
-0.0011764455
-0.00054654129
-0.0011263419
-0.00044331729
-0.0010776486
-0.00057626112
-0.0010296354
-0.00064664196
-0.00098227107
-0.00079826048
-0.0009360992
-0.0010014617
-0.00089212123
-0.0011261405
-0.00085012438
-0.0011524767
-0.00080881566
-0.0011074758
-0.00076679696
-0.0010384787
-0.00072300671
-0.00099681296
-0.00067839526
-0.0010085772
-0.00063598605
-0.00094951534
-0.00059736068
-0.00081768187
-0.00056222075
-0.00069110709
-0.00052839677
-0.00060690565
-0.00049352573
-0.00067086983
-0.0008753205
-0.0024945556
-0.0017442504
-0.0023878677
-0.0016772633
-0.0022856516
-0.001179592
-0.0021848602
-0.0012851752
-0.0020901938
-0.0012948956
-0.0020052896
-0.00092784714
-0.0019230284
-0.0011679942
-0.0018409158
-0.0013650014
-0.0017651603
-0.0010023928
-0.0016937548
-0.0010974262
-0.0016222814
-0.0012444809
-0.0015544509
-0.00081012601
-0.0014907844
-0.00065782896
-0.0014288562
-0.00068827248
-0.001369844
-0.00065810311
-0.0013130727
-0.00074948235
-0.0012578164
-0.0006017462
-0.0012050067
-0.0004962282
-0.0011536377
-0.00062776973
-0.0011029526
-0.00069747853
-0.0010529202
-0.00084847457
-0.0010041092
-0.0010504809
-0.00095759628
-0.0011728788
-0.00091315762
-0.0011971269
-0.00086941106
-0.0011513873
-0.00082485402
-0.0010831582
-0.00077833789
-0.0010434147
-0.00073087219
-0.0010560966
-0.00068570241
-0.00099471399
-0.00064453053
-0.00085886896
-0.00060705655
-0.00072859151
-0.00057095919
-0.00064301104
-0.0005336818
-0.00070814957
-0.00049373499
-0.00091526122
-0.00045291757
-0.0010291216
-0.00040123681
-0.0015383439
-0.002258395
-0.00032280742
-0.0026463463
-0.0018642664
-0.0025342365
-0.0017892068
-0.0024267336
-0.0012869683
-0.0023207197
-0.0013906286
-0.0022212321
-0.0013939053
-0.0021320127
-0.0010171653
-0.0020454928
-0.0012546812
-0.0019591245
-0.0014514427
-0.0018794762
-0.001082286
-0.0018043449
-0.0011728682
-0.0017290999
-0.0013197819
-0.0016577226
-0.00088133897
-0.0015907072
-0.00072472004
-0.0015254892
-0.00075334689
-0.0014633394
-0.0007201583
-0.0014035189
-0.00080920163
-0.001345283
-0.00065992784
-0.0012896157
-0.00055200375
-0.0012354156
-0.0006821187
-0.0011819013
-0.00075115399
-0.0011290433
-0.00090152618
-0.001077433
-0.0011023129
-0.0010282296
-0.0012223226
-0.00098119714
-0.0012443852
-0.00093485792
-0.0011979025
-0.00088759932
-0.0011305476
-0.00083817515
-0.0010929305
-0.00078766064
-0.0011066686
-0.00073953548
-0.0010428702
-0.0006956329
-0.00090278868
-0.00065565212
-0.00076858371
-0.00061711274
-0.00068155913
-0.00057724602
-0.00074801893
-0.00053442561
-0.00095807499
-0.00049058577
-0.0010729587
-0.0004350318
-0.001594056
-0.0023704555
-0.00035299553
-0.0028082422
-0.0019903705
-0.0026904326
-0.0019068427
-0.0025773577
-0.0013999099
-0.002465841
-0.0015015466
-0.0023612867
-0.0014979508
-0.0022675309
-0.0011110241
-0.0021765227
-0.0013458664
-0.0020856723
-0.0015423716
-0.0020019288
-0.0011662909
-0.0019228678
-0.0012522616
-0.0018436418
-0.0013990671
-0.0017685273
-0.0009562772
-0.0016979796
-0.0007951355
-0.0016292886
-0.00082188494
-0.0015638276
-0.0007855183
-0.0015007851
-0.0008721356
-0.0014394013
-0.00072125388
-0.0013807155
-0.00061080569
-0.0013235185
-0.00073947472
-0.0012670072
-0.00080783709
-0.0012111548
-0.0009575855
-0.0011565745
-0.0011571299
-0.001104513
-0.0012746406
-0.0010547242
-0.0012944151
-0.0010056258
-0.001247189
-0.00095548832
-0.001180825
-0.00090296104
-0.0011455559
-0.00084918692
-0.0011605045
-0.00079789633
-0.0010941941
-0.0007510616
-0.00094964188
-0.00070838531
-0.00081127227
-0.0006672178
-0.0007227353
-0.00062456184
-0.00079067738
-0.0005786403
-0.0010039901
-0.00053153475
-0.0011200604
-0.00047189925
-0.0016539174
-0.0024827781
-0.00038608655
-0.002980792
-0.0021228726
-0.0028569901
-0.0020304633
-0.0027380415
-0.0015187183
-0.0026207259
-0.0016182227
-0.0025108468
-0.0016072885
-0.0024123214
-0.0012096568
-0.0023165824
-0.0014417932
-0.0022210117
-0.0016380269
-0.0021329598
-0.0012546221
-0.0020497533
-0.0013358238
-0.0019663251
-0.0014825577
-0.0018872729
-0.0010351405
-0.0018129993
-0.0008692683
-0.0017406424
-0.00089407895
-0.0016716872
-0.00085436573
-0.0016052402
-0.00093846623
-0.0015405314
-0.00078590103
-0.0014786581
-0.00067280387
-0.0014182895
-0.00080001381
-0.0013586044
-0.00086770586
-0.001299581
-0.0010168303
-0.0012418517
-0.0012151121
-0.0011867575
-0.001330009
-0.0011340383
-0.0013473919
-0.0010820072
-0.0012994211
-0.0010288058
-0.001234176
-0.00097297021
-0.0012014965
-0.00091571638
-0.0012178245
-0.00086103935
-0.0011489071
-0.00081105923
-0.0009996419
-0.00076548679
-0.00085685791
-0.00072149398
-0.00076673742
-0.00067583662
-0.0008363375
-0.00062657125
-0.0010532486
-0.00057594447
-0.0011706848
-0.00051200059
-0.0017182204
-0.0025738266
-0.00042230495
-0.0031642073
-0.0022620948
-0.0030341076
-0.0021603739
-0.0029089692
-0.0016437094
-0.0027855454
-0.0017409627
-0.0026700736
-0.0017221844
-0.002566535
-0.0013133074
-0.0024658112
-0.0015427156
-0.0023652727
-0.0017386568
-0.0022726906
-0.0013475026
-0.0021851132
-0.0014237814
-0.002097252
-0.0015704844
-0.002014054
-0.0011181356
-0.0019358534
-0.00094731906
-0.0018596302
-0.00097012874
-0.0017869914
-0.00092688951
-0.0017169506
-0.001008382
-0.0016487342
-0.00085405137
-0.0015834995
-0.00073817301
-0.0015197792
-0.00086391714
-0.0014567393
-0.0009309423
-0.0013943646
-0.0010794427
-0.0013333042
-0.0012764436
-0.0012749972
-0.0013886093
-0.0012191735
-0.0014034911
-0.0011640307
-0.0013547785
-0.0011075779
-0.0012907887
-0.0010482286
-0.0012609582
-0.00098727313
-0.001278851
-0.00092898769
-0.0012072311
-0.00087564494
-0.0010530061
-0.00082697039
-0.00090554666
-0.00077995094
-0.00081376689
-0.00073107574
-0.00088521574
-0.00067822129
-0.0011060956
-0.0006238112
-0.0012250922
-0.00055533213
-0.0017870003
-0.0026795993
-0.00046176059
-0.0033597937
-0.0024083782
-0.0032230742
-0.0022968967
-0.0030914095
-0.0017752194
-0.0029615478
-0.0018700929
-0.0028401988
-0.0018429212
-0.0027313889
-0.001422234
-0.0026254108
-0.0016489038
-0.0025196406
-0.0018445256
-0.0024222921
-0.0014451701
-0.0023301028
-0.0015163772
-0.0022375612
-0.001663095
-0.0021499943
-0.0012054848
-0.0020676507
-0.0010295031
-0.0019873456
-0.0010502492
-0.0019108192
-0.0010032934
-0.0018369802
-0.0010820868
-0.0017650584
-0.00092590235
-0.0016962741
-0.00080710217
-0.0016290061
-0.00093138231
-0.0015624134
-0.00099774592
-0.0014964903
-0.0011456213
-0.001431898
-0.0013413266
-0.0013701817
-0.00145064
-0.001311057
-0.0014629107
-0.0012526048
-0.00141346
-0.001192692
-0.0013508727
-0.0011295969
-0.0013241737
-0.0010646918
-0.0013438324
-0.0010025449
-0.0012694196
-0.00094559227
-0.0011099819
-0.00089357982
-0.00095757439
-0.00084330298
-0.00086405452
-0.00079096031
-0.00093756179
-0.00073423351
-0.0011628145
-0.0006757427
-0.0012835786
-0.00060245912
-0.0018605142
-0.002802108
-0.00050504756
-0.0035687452
-0.0025620824
-0.0034250651
-0.0024403722
-0.0032865165
-0.0019136056
-0.0031498664
-0.0020059598
-0.0030223388
-0.0019697982
-0.0029079843
-0.0015367105
-0.0027964652
-0.0017606448
-0.0026851828
-0.0019559147
-0.0025828175
-0.0015478764
-0.0024857594
-0.0016138695
-0.0023882725
-0.001760654
-0.0022960989
-0.0012974253
-0.0022093816
-0.0011160507
-0.0021247638
-0.0011346705
-0.0020441315
-0.0010837949
-0.0019662744
-0.0011597995
-0.0018904352
-0.0010016656
-0.0018178997
-0.00087979413
-0.0017468728
-0.0010026216
-0.0016765133
-0.0010683318
-0.0016068299
-0.0012155803
-0.0015384892
-0.0014099799
-0.0014731481
-0.0015163184
-0.0014105103
-0.0015258644
-0.0013485328
-0.0014756829
-0.0012849309
-0.0014146576
-0.0012178374
-0.0013913964
-0.0011487086
-0.001413043
-0.0010824232
-0.0013357496
-0.0010215853
-0.0011708449
-0.0009659713
-0.0010132049
-0.00091217735
-0.00091786011
-0.00085608904
-0.00099365385
-0.00079517117
-0.001223724
-0.00073226694
-0.0013464749
-0.00065389015
-0.0019390488
-0.0029392617
-0.00055274033
-0.003791311
-0.0027235836
-0.0036403144
-0.0025911566
-0.0034945061
-0.0020592437
-0.0033507005
-0.0021489262
-0.0032166801
-0.0021031273
-0.0030964943
-0.0016570234
-0.0029791346
-0.0018782389
-0.0028620481
-0.0020731167
-0.0027544042
-0.0016558851
-0.0026522083
-0.0017165286
-0.0025494999
-0.0018634382
-0.0024524718
-0.0013942039
-0.0023611407
-0.0012072015
-0.0022719706
-0.0012236313
-0.0021870061
-0.00116862
-0.0021049029
-0.0012417476
-0.0020249274
-0.0010815599
-0.0019484336
-0.00095645692
-0.0018734302
-0.0010778541
-0.0017990858
-0.0011429195
-0.0017254258
-0.0012895373
-0.0016531176
-0.0014826243
-0.0015839335
-0.001585865
-0.0015175656
-0.0015925711
-0.0014518434
-0.0015416677
-0.0013843219
-0.001482375
-0.0013129781
-0.0014628784
-0.0012393542
-0.0014867548
-0.0011686507
-0.0014065013
-0.001103647
-0.0012358757
-0.0010441608
-0.0010727088
-0.00098658436
-0.00097544905
-0.00092646462
-0.0010537778
-0.00086103399
-0.0012891457
-0.0007933827
-0.0014141132
-0.00070966215
-0.0020228632
-0.0030866838
-0.00060499072
-0.0040288174
-0.0028932787
-0.003870128
-0.0027496261
-0.0037166603
-0.0022125331
-0.0035653092
-0.0022993775
-0.0034244626
-0.0022432394
-0.0032981416
-0.0017834772
-0.0031746234
-0.0020020045
-0.0030514227
-0.0021964424
-0.0029382221
-0.0017694762
-0.0028306013
-0.0018246432
-0.0027223762
-0.0019717426
-0.0026202295
-0.0014960841
-0.002524028
-0.0013032114
-0.0024300492
-0.0013173875
-0.0023405103
-0.0012580103
-0.0022539164
-0.0013281748
-0.0021695697
-0.0011658199
-0.0020888959
-0.0010373133
-0.0020096823
-0.0011573147
-0.0019311172
-0.0012217455
-0.0018532499
-0.0013677251
-0.0017767373
-0.0015594988
-0.0017034741
-0.0016595176
-0.0016331392
-0.0016632694
-0.0015634338
-0.0016116541
-0.0014917428
-0.0015542758
-0.0014158713
-0.0015388982
-0.0013374558
-0.0015652646
-0.0012620273
-0.0014819818
-0.0011925464
-0.0013053859
-0.0011288849
-0.0011363895
-0.0010672291
-0.0010371183
-0.0010027586
-0.0011182529
-0.00093245317
-0.0013594419
-0.00085968283
-0.0014868648
-0.00077035576
-0.0021122169
-0.0032388342
-0.0006624336
-0.0042824824
-0.0030715858
-0.004115705
-0.0029161763
-0.0039541552
-0.0023738964
-0.0037948459
-0.0024577215
-0.0036468218
-0.002390483
-0.003514045
-0.0019163927
-0.0033840333
-0.0021322772
-0.0032543915
-0.0023262199
-0.00313534
-0.0018889457
-0.0030219912
-0.0019385185
-0.0029079355
-0.0020858809
-0.0028003902
-0.0016033452
-0.0026990463
-0.0014043519
-0.002599987
-0.00141621
-0.0025056169
-0.0013522219
-0.0024142714
-0.0014193412
-0.0023253044
-0.001254695
-0.0022402158
-0.0011225992
-0.0021565433
-0.0012412533
-0.0020735074
-0.0013050611
-0.0019911873
-0.0014503906
-0.0019102203
-0.0016408548
-0.0018326239
-0.0017375326
-0.0017580695
-0.0017382138
-0.0016841232
-0.0016859013
-0.0016079935
-0.0016306302
-0.001527301
-0.0016197497
-0.0014437761
-0.0016488909
-0.0013632923
-0.0015625215
-0.0012889927
-0.0013797172
-0.0012208217
-0.0012045813
-0.0011547569
-0.0011031977
-0.0010855848
-0.0011874302
-0.0010100078
-0.0014350093
-0.00093171752
-0.00156513
-0.0008365203
-0.002207371
-0.0033917805
-0.00072567144
-0.0045529393
-0.0032589431
-0.0043776588
-0.0030912224
-0.0042075808
-0.0025437798
-0.0040398793
-0.0026243864
-0.0038843086
-0.0025452243
-0.0037447377
-0.0020561084
-0.0036078813
-0.0022694091
-0.0034714559
-0.0024627924
-0.0033462444
-0.0020146048
-0.0032268481
-0.0020584757
-0.0031066325
-0.0022061825
-0.0029933943
-0.0017162804
-0.0028866228
-0.0015109076
-0.0027821984
-0.0015203828
-0.0026827281
-0.0014515231
-0.0025863586
-0.0015155185
-0.0024925116
-0.001348445
-0.0024027649
-0.0012125592
-0.0023143747
-0.0013299298
-0.0022266092
-0.0013931257
-0.0021395866
-0.0015377851
-0.0020539081
-0.001726951
-0.0019717181
-0.0018201719
-0.0018926797
-0.0018176706
-0.0018142281
-0.0017646751
-0.0017333855
-0.0017117134
-0.0016475726
-0.0017057331
-0.0015586172
-0.0017379553
-0.001472739
-0.0016484599
-0.0013932652
-0.0014592253
-0.0013202319
-0.0012776371
-0.0012494129
-0.0011740325
-0.001175169
-0.0012616799
-0.0010939067
-0.0015162617
-0.0010096838
-0.0016493225
-0.0009083991
-0.0023085431
-0.0035411452
-0.00079502964
-0.0048420459
-0.003455817
-0.0046578223
-0.0032752049
-0.0044787399
-0.002722659
-0.0043021832
-0.0027998298
-0.0041386714
-0.0027078546
-0.0039919457
-0.0022029849
-0.003847872
-0.0024137737
-0.0037042976
-0.0026065266
-0.0035725949
-0.0021467871
-0.0034468094
-0.0021848588
-0.0033200804
-0.0023330007
-0.0032008327
-0.0018352048
-0.0030883273
-0.0016231841
-0.0029782317
-0.0016302108
-0.0028733722
-0.0015562022
-0.0027716837
-0.0016170006
-0.0026726762
-0.0014473504
-0.0025780093
-0.0013074569
-0.0024846218
-0.0014236252
-0.0023918469
-0.0014862198
-0.0022998511
-0.0016301807
-0.0022091829
-0.001818067
-0.0021221141
-0.0019077227
-0.0020383032
-0.0019019301
-0.0019550543
-0.0018482688
-0.0018691973
-0.0017978281
-0.0017779351
-0.0017971783
-0.0016831961
-0.0018328114
-0.001591547
-0.001740174
-0.0015064982
-0.0015443114
-0.0014282023
-0.0013559572
-0.0013522349
-0.0012500169
-0.0012724992
-0.001341422
-0.0011850826
-0.0016036683
-0.0010944669
-0.0017399037
-0.00098685904
-0.0024159732
-0.0036845589
-0.00087141028
-0.0051506603
-0.0036626962
-0.0049570321
-0.0034685856
-0.0047684444
-0.0029110351
-0.0045825454
-0.0029845323
-0.0044106786
-0.0028787848
-0.004256418
-0.0023574025
-0.0041047381
-0.0025657608
-0.003953633
-0.0027578053
-0.0038150904
-0.0022858435
-0.0036825579
-0.0023180284
-0.0035489439
-0.0024667067
-0.0034233541
-0.0019604494
-0.0033047942
-0.0017415012
-0.0031887075
-0.0017460132
-0.0030781559
-0.0016665615
-0.0029708399
-0.0017240951
-0.0028663796
-0.0015517037
-0.0027665214
-0.0014075648
-0.002667846
-0.0015226312
-0.0025697727
-0.001584633
-0.0024725286
-0.0017278539
-0.0023765871
-0.0019144877
-0.0022843445
-0.0020004815
-0.0021954588
-0.0019912964
-0.0021071104
-0.0019369862
-0.0020159305
-0.001889284
-0.0019188855
-0.0018944195
-0.0018180047
-0.0019338181
-0.0017201969
-0.0018380517
-0.0016291506
-0.0016353981
-0.0015451664
-0.0014399677
-0.0014636307
-0.001331571
-0.0013779581
-0.0014271018
-0.0012838962
-0.0016977201
-0.0011864148
-0.0018373494
-0.0010722889
-0.0025298709
-0.0038200572
-0.00095529689
-0.0054805052
-0.0038801004
-0.0052769839
-0.0036718536
-0.0050783572
-0.0031094418
-0.0048825989
-0.0031790046
-0.0047019345
-0.0030584539
-0.0045397334
-0.0025197665
-0.0043800375
-0.002725781
-0.0042209965
-0.0029170354
-0.0040752414
-0.0024321492
-0.0039355812
-0.0024583673
-0.0037946861
-0.0026076966
-0.0036623982
-0.0020923683
-0.0035374414
-0.0018662002
-0.0034150226
-0.0018681301
-0.0032984558
-0.0017829233
-0.003185182
-0.0018371311
-0.0030749573
-0.0016618166
-0.0029696193
-0.0015131733
-0.0028653469
-0.0016272586
-0.002761668
-0.0016886733
-0.0026588857
-0.0018310963
-0.0025573709
-0.0020165143
-0.0024596392
-0.0020987652
-0.0023653529
-0.0020860972
-0.0022715795
-0.0020311544
-0.0021747453
-0.0019864135
-0.0020715622
-0.0019978131
-0.0019641594
-0.0020413561
-0.0018597763
-0.00194251
-0.0017622691
-0.0017329491
-0.0016721213
-0.0015301439
-0.0015845501
-0.001419162
-0.0014924475
-0.0015192123
-0.0013911995
-0.0017989581
-0.0012863404
-0.0019421745
-0.0011655215
-0.0026504252
-0.0039473936
-0.00104758
-0.0058332021
-0.0041085805
-0.0056192709
-0.0038855264
-0.0054100398
-0.0033184443
-0.0052038741
-0.0033837881
-0.0050139407
-0.0032473293
-0.0048433677
-0.002690508
-0.0046752268
-0.0028942646
-0.004507822
-0.0030846466
-0.0043544568
-0.0025861041
-0.0042072667
-0.0026062808
-0.0040586699
-0.0027563904
-0.0039193039
-0.0022313393
-0.0037875879
-0.0019976424
-0.003658476
-0.0019969215
-0.0035355511
-0.0019056297
-0.003415969
-0.0019564579
-0.0032996493
-0.0017780196
-0.0031885286
-0.0016245875
-0.0030783327
-0.0017378358
-0.0029687266
-0.0017986629
-0.0028601064
-0.0019402094
-0.002752705
-0.0021244616
-0.0026491498
-0.00220291
-0.0025491157
-0.0021866815
-0.0024495713
-0.0021311209
-0.0023467354
-0.0020895654
-0.002237044
-0.0021077301
-0.0021227212
-0.002155824
-0.0020113193
-0.0020539927
-0.0019068478
-0.001837468
-0.0018100167
-0.0016270059
-0.0017158957
-0.0015133046
-0.0016168241
-0.0016182928
-0.001507808
-0.0019079645
-0.0013950288
-0.0020549245
-0.0012673584
-0.0027778188
-0.0040670706
-0.0011491859
-0.006210409
-0.0043487225
-0.005985521
-0.0041101512
-0.0057650856
-0.0035386424
-0.0055479324
-0.0035994564
-0.0053482265
-0.0034459103
-0.0051688207
-0.0028700869
-0.0049917869
-0.0030716607
-0.0048155669
-0.0032610925
-0.004654167
-0.0027481358
-0.0044990228
-0.0027621955
-0.004342279
-0.0029132332
-0.0041954295
-0.0023777657
-0.0040565705
-0.0021362106
-0.0039203838
-0.0021327679
-0.0037907376
-0.0020350434
-0.0036644761
-0.0020824452
-0.0035417124
-0.0019006617
-0.0034244907
-0.0017421278
-0.0033080299
-0.0018547064
-0.0031921608
-0.0019149384
-0.0030773938
-0.0020555044
-0.0029637841
-0.0022386527
-0.0028540535
-0.0023132694
-0.002747902
-0.0022934212
-0.0026422197
-0.0022372542
-0.0025330194
-0.0021991036
-0.0024164365
-0.0022245549
-0.002294785
-0.0022776313
-0.0021758976
-0.0021729669
-0.0020639177
-0.0019494993
-0.0019598336
-0.0017311234
-0.0018586009
-0.0016145606
-0.0017519718
-0.0017249319
-0.0016345624
-0.0020253642
-0.0015132909
-0.0021761745
-0.0013786428
-0.0029121982
-0.0041802835
-0.0012611217
-0.0066139073
-0.0046011527
-0.006377482
-0.0043463093
-0.0061452065
-0.003770671
-0.005916451
-0.0038266181
-0.0057064313
-0.0036547333
-0.0055176997
-0.0030589949
-0.005331307
-0.0032584366
-0.005145795
-0.0034468524
-0.0049759052
-0.0029187019
-0.0048123592
-0.0029265618
-0.0046469969
-0.0030786964
-0.00449223
-0.0025320789
-0.0043458216
-0.00228231
-0.0042021574
-0.0022760711
-0.0040654052
-0.0021715483
-0.0039320706
-0.0022154852
-0.0038024946
-0.0020301111
-0.0036788398
-0.001866129
-0.0035557561
-0.001978231
-0.0034332759
-0.0020378483
-0.0033120489
-0.0021772972
-0.0031918988
-0.0023594215
-0.0030756228
-0.0024302153
-0.00296296
-0.002406712
-0.002850752
-0.0023499436
-0.0027348103
-0.0023154064
-0.0026109422
-0.0023486822
-0.0024815426
-0.0024071981
-0.0023546825
-0.0022999201
-0.0022346078
-0.0020696297
-0.0021226469
-0.0018431206
-0.0020136852
-0.0017235475
-0.0018988615
-0.0018397666
-0.0017724007
-0.0021518155
-0.0016420391
-0.0023065237
-0.0015003102
-0.0030536913
-0.0042884451
-0.0013844902
-0.007045785
-0.0048665448
-0.0067972043
-0.0045946197
-0.0065524144
-0.0040152022
-0.0063114047
-0.0040659198
-0.006090487
-0.0038743772
-0.0058918992
-0.0032577602
-0.0056956644
-0.0034550768
-0.0055003564
-0.0036424331
-0.0053214865
-0.0030982952
-0.0051490682
-0.0030998534
-0.0049745874
-0.0032532799
-0.0048114368
-0.0026947426
-0.0046570486
-0.0024363696
-0.0045054803
-0.0024272566
-0.0043612133
-0.0023155521
-0.0042203899
-0.0023559921
-0.0040836115
-0.002166758
-0.0039531751
-0.0019969427
-0.0038230953
-0.0021087854
-0.003693643
-0.002167755
-0.0035656363
-0.0023059091
-0.0034386061
-0.0024871098
-0.0033153949
-0.0025541392
-0.0031957991
-0.002526978
-0.0030766545
-0.0024696016
-0.0029535786
-0.0024388676
-0.0028220215
-0.0024805169
-0.0026844427
-0.0025449562
-0.0025490941
-0.0024353686
-0.0024202924
-0.0021984915
-0.0022997711
-0.0019636811
-0.0021824023
-0.0018409435
-0.0020586897
-0.0019634915
-0.0019224744
-0.0022880216
-0.0017823958
-0.0024466027
-0.0016335034
-0.0032023927
-0.0043926423
-0.0015206187
-0.0075076914
-0.0051456278
-0.0072462958
-0.0048557419
-0.0069882788
-0.0042729445
-0.0067343271
-0.0043180456
-0.0065018773
-0.0041054694
-0.0062928621
-0.0034669507
-0.0060862898
-0.0036620789
-0.0058806554
-0.0038483685
-0.0056922782
-0.0032874452
-0.005510495
-0.0032825655
-0.0053263697
-0.00343751
-0.0051543371
-0.002866252
-0.0049915162
-0.0025988412
-0.004831598
-0.0025867691
-0.0046793864
-0.0024674839
-0.0045306378
-0.0025044008
-0.0043862506
-0.0023110089
-0.0042486738
-0.0021349306
-0.0041112152
-0.0022467552
-0.0039744255
-0.0023050246
-0.0038393261
-0.0024416547
-0.003705076
-0.00262206
-0.003574526
-0.0026854464
-0.0034475557
-0.0026546626
-0.0033210466
-0.0025966577
-0.0031904383
-0.0025698865
-0.0030507939
-0.0026204584
-0.0029046124
-0.0026913299
-0.0027602529
-0.0025798352
-0.0026220534
-0.002336756
-0.0024922371
-0.0020935399
-0.0023657297
-0.0019674803
-0.0022323937
-0.0020968412
-0.0020857127
-0.0024346935
-0.0019352809
-0.0025970411
-0.0017791849
-0.0033583678
-0.004493383
-0.001670691
-0.008002595
-0.005439205
-0.0077276715
-0.0051303835
-0.0074556691
-0.0045446534
-0.0071880408
-0.0045837286
-0.0069433595
-0.004348702
-0.0067232938
-0.0036871844
-0.0065058732
-0.0038799561
-0.0062893478
-0.0040652272
-0.0060908872
-0.0034867298
-0.0058992196
-0.0034752212
-0.0057048899
-0.0036319471
-0.0055234319
-0.0030471474
-0.0053516943
-0.0027702071
-0.0051829511
-0.0027550826
-0.0050223342
-0.0026278032
-0.0048651966
-0.0026611734
-0.0047127663
-0.0024632982
-0.004567671
-0.0022804743
-0.0044224333
-0.002392544
-0.0042779269
-0.0024500371
-0.0041354169
-0.0025848534
-0.0039935982
-0.002764623
-0.0038552757
-0.0028245722
-0.00372045
-0.0027902489
-0.0035861135
-0.0027315766
-0.0034475543
-0.0027088825
-0.0032994068
-0.0027689238
-0.0031441825
-0.0028467606
-0.0029902567
-0.0027338755
-0.0028419276
-0.0024851555
-0.0027020004
-0.0022335129
-0.0025655449
-0.0021039677
-0.0024217792
-0.0022406221
-0.002263882
-0.0025925817
-0.0021024324
-0.0027584984
-0.0019390979
-0.0035216547
-0.0045902046
-0.0018366652
-0.0085333861
-0.0057481586
-0.008244161
-0.0054193153
-0.0079573688
-0.0048311307
-0.0076752813
-0.0048637537
-0.007417591
-0.0046048437
-0.0071857914
-0.0039191378
-0.0069570034
-0.0041092305
-0.0067289864
-0.0042936144
-0.0065198119
-0.0036967809
-0.0063177155
-0.0036783682
-0.0061125874
-0.0038371866
-0.0059211132
-0.0032380156
-0.0057399445
-0.00295098
-0.0055618741
-0.0029326984
-0.0053923612
-0.0027969993
-0.0052263451
-0.0028267978
-0.005065413
-0.0026240848
-0.0049124059
-0.0024339711
-0.004758977
-0.0025465673
-0.0046063672
-0.0026031793
-0.004456134
-0.002735819
-0.0043063925
-0.0029151558
-0.0041598407
-0.0029719747
-0.0040166392
-0.0029342596
-0.0038739827
-0.0028748524
-0.0037270379
-0.0028562917
-0.0035699706
-0.0029263308
-0.0034052611
-0.0030116913
-0.0032411904
-0.0028980688