/*--------------------------------*- C++ -*----------------------------------*\
| =========                 |                                                 |
| \\      /  F ield         | OpenFOAM: The Open Source CFD Toolbox           |
|  \\    /   O peration     | Version:  2506                                  |
|   \\  /    A nd           | Website:  www.openfoam.com                      |
|    \\/     M anipulation  |                                                 |
\*---------------------------------------------------------------------------*/
FoamFile
{
    version     2.0;
    format      ascii;
    arch        "LSB;label=32;scalar=64";
    class       volScalarField;
    location    "0.0175";
    object      T;
}
// * * * * * * * * * * * * * * * * * * * * * * * * * * * * * * * * * * * * * //

dimensions      [0 0 0 1 0 0 0];

internalField   nonuniform List<scalar> 
13761
(
245.48239
245.6859
245.5462
245.69249
245.59451
245.64443
245.57927
245.56655
245.51519
245.43854
245.26709
244.96925
244.59659
244.34853
244.44068
244.97148
245.62885
245.87997
245.51268
245.27846
245.35897
245.2763
245.08005
245.05915
245.00783
244.87955
244.81606
244.72719
244.62121
244.53524
244.42677
244.32252
244.21166
244.09287
243.97196
243.83958
243.70431
243.56235
243.41393
243.25661
243.09074
242.91631
242.73329
242.54158
245.48253
245.68547
245.54643
245.69228
245.59476
245.64448
245.57956
245.5668
245.5158
245.43988
245.26977
244.97329
244.60069
244.35009
244.43711
244.9634
245.62146
245.88017
245.51763
245.27817
245.35764
245.27797
245.08059
245.05855
245.00862
244.8801
244.81643
244.72805
244.62196
244.53612
244.42784
244.32367
244.21304
244.09443
243.97376
243.84163
243.70663
243.56497
243.41685
243.25985
243.09429
242.92027
242.73756
242.54615
245.48268
245.68502
245.54668
245.69207
245.595
245.64452
245.57983
245.56704
245.51638
245.44114
245.27228
244.97707
244.60454
244.35161
244.43387
244.95587
245.61448
245.88025
245.52226
245.27791
245.35632
245.27947
245.08109
245.05795
245.00933
244.88061
244.81676
244.72885
244.62267
244.53695
244.42884
244.32476
244.21436
244.09591
243.9755
243.84362
243.70887
243.56751
243.41971
243.26302
243.09783
242.92415
242.74176
242.55066
242.35039
245.48282
245.68456
245.54694
245.69185
245.59526
245.64456
245.58011
245.56729
245.51698
245.44244
245.2749
244.98103
244.6086
244.35324
244.43055
244.94798
245.60716
245.88019
245.52714
245.27771
245.35492
245.28103
245.08165
245.05733
245.01006
244.88115
244.81711
244.72968
244.62341
244.53781
244.4299
244.3259
244.21574
244.09746
243.9773
243.84568
243.7112
243.57014
243.42265
243.26627
243.10149
242.92814
242.74608
242.55531
242.35536
245.48297
245.68408
245.5472
245.69163
245.59553
245.6446
245.58041
245.56754
245.51759
245.44377
245.27758
244.98509
244.61279
244.35496
244.42724
244.93989
245.59963
245.87998
245.53216
245.27758
245.35346
245.28262
245.08226
245.05669
245.01081
244.88172
244.81747
244.73054
244.62418
244.5387
244.43098
244.32707
244.21715
244.09905
243.97914
243.84778
243.71357
243.57282
243.42566
243.26962
243.10522
242.93221
242.75049
242.56007
242.36043
245.48312
245.6836
245.54747
245.6914
245.5958
245.64465
245.58071
245.5678
245.51822
245.44513
245.28032
244.98928
244.61713
244.35678
244.42392
244.93157
245.59185
245.87961
245.53736
245.27752
245.35193
245.28423
245.08292
245.05603
245.01157
244.88232
244.81783
244.73143
244.62498
244.53961
244.4321
244.32828
244.2186
244.10069
243.98102
243.84994
243.716
243.57557
243.42872
243.27306
243.10903
242.93637
242.755
242.56493
242.36563
245.48327
245.68309
245.54775
245.69116
245.59609
245.6447
245.58102
245.56807
245.51886
245.44652
245.28314
244.99359
244.62163
244.35871
244.4206
244.92302
245.58382
245.87908
245.54273
245.27753
245.35034
245.28586
245.08363
245.05536
245.01234
244.88295
244.81821
244.73234
244.62581
244.54055
244.43325
244.32952
244.22009
244.10236
243.98296
243.85215
243.71848
243.57837
243.43185
243.27659
243.11292
242.94062
242.75961
242.5699
242.37095
245.48342
245.68257
245.54804
245.69091
245.59638
245.64474
245.58134
245.56834
245.51951
245.44794
245.28602
244.99802
244.62628
244.36075
244.4173
244.91423
245.57553
245.87836
245.54828
245.27763
245.34866
245.28751
245.0844
245.05466
245.01312
244.8836
244.81859
244.73327
244.62667
244.54151
244.43445
244.33079
244.22162
244.10408
243.98494
243.85441
243.72103
243.58124
243.43504
243.28021
243.11689
242.94496
242.76432
242.57498
242.37638
242.16831
245.48357
245.68203
245.54833
245.69066
245.59669
245.64479
245.58168
245.56862
245.52018
245.44938
245.28897
245.00258
244.6311
244.36291
244.414
244.90519
245.56698
245.87745
245.55401
245.27783
245.34691
245.28918
245.08524
245.05395
245.01392
244.88429
244.81897
244.73424
244.62755
244.54251
244.43567
244.33211
244.22319
244.10585
243.98697
243.85673
243.72363
243.58417
243.4383
243.28392
243.12094
242.94939
242.76913
242.58017
242.38194
242.17422
245.48372
245.68148
245.54864
245.6904
245.597
245.64484
245.58202
245.5689
245.52086
245.45086
245.292
245.00727
244.63609
244.3652
244.41073
244.8959
245.55816
245.87633
245.55993
245.27813
245.34507
245.29087
245.08614
245.05321
245.01472
244.885
244.81937
244.73523
244.62847
244.54353
244.43694
244.33346
244.22481
244.10766
243.98905
243.8591
243.72629
243.58716
243.44162
243.28771
243.12508
242.95392
242.77405
242.58547
242.38762
242.18026
245.48387
245.68091
245.54895
245.69013
245.59732
245.64489
245.58237
245.56919
245.52155
245.45236
245.29509
245.0121
244.64125
244.36762
244.40749
244.88635
245.54906
245.87498
245.56602
245.27855
245.34315
245.29257
245.08711
245.05245
245.01554
244.88575
244.81978
244.73625
244.62942
244.54458
244.43824
244.33485
244.22647
244.10952
243.99119
243.86153
243.72901
243.59022
243.44502
243.29156
243.1293
242.95854
242.77906
242.59089
242.39342
242.18643
245.48402
245.68032
245.54927
245.68985
245.59766
245.64494
245.58274
245.56948
245.52226
245.45389
245.29826
245.01706
244.64659
244.37018
244.40429
244.87654
245.53966
245.87338
245.5723
245.2791
245.34113
245.29429
245.08815
245.05168
245.01636
244.88654
244.82019
244.73729
244.63041
244.54566
244.43959
244.33629
244.22818
244.11143
243.99337
243.86402
243.7318
243.59335
243.4485
243.29549
243.13362
242.96325
242.78418
242.59641
242.39935
242.19274
241.97605
245.48418
245.67971
245.5496
245.68957
245.598
245.64499
245.58311
245.56979
245.52298
245.45545
245.3015
245.02216
244.65213
244.37289
244.40113
244.86646
245.52996
245.87153
245.57875
245.2798
245.33902
245.29601
245.08927
245.05088
245.01719
244.88736
244.82061
244.73837
244.63143
244.54678
244.44098
244.33776
244.22993
244.1134
243.99561
243.86657
243.73465
243.59655
243.45205
243.2995
243.13802
242.96807
242.78941
242.60206
242.4054
242.19919
241.98287
245.48433
245.67909
245.54994
245.68927
245.59835
245.64505
245.5835
245.57009
245.52372
245.45703
245.30482
245.02741
244.65786
244.37576
244.39803
244.85611
245.51995
245.8694
245.58538
245.28066
245.33681
245.29774
245.09047
245.05007
245.01802
244.88822
244.82104
244.73948
244.63248
244.54792
244.44241
244.33928
244.23173
244.11541
243.99791
243.86918
243.73756
243.59982
243.45569
243.30357
243.14252
242.97298
242.79474
242.60782
242.41158
242.20578
241.98983
245.48448
245.67845
245.55029
245.68897
245.59872
245.6451
245.5839
245.57041
245.52447
245.45865
245.30821
245.0328
244.66378
244.3788
244.39499
244.84549
245.5096
245.86699
245.59218
245.2817
245.3345
245.29948
245.09176
245.04924
245.01886
244.88912
244.82148
244.74061
244.63357
244.5491
244.44388
244.34084
244.23359
244.11748
244.00026
243.87186
243.74055
243.60317
243.45941
243.30771
243.14712
242.978
242.80018
242.61369
242.41789
242.2125
241.99695
245.48463
245.67778
245.55064
245.68866
245.5991
245.64516
245.58431
245.57073
245.52524
245.46029
245.31167
245.03834
244.66992
244.38201
244.39203
244.83459
245.49889
245.86427
245.59915
245.28294
245.33207
245.30121
245.09314
245.04838
245.01971
244.89006
244.82193
244.74178
244.6347
244.55031
244.4454
244.34244
244.23549
244.1196
244.00267
243.8746
243.7436
243.60659
243.46322
243.31191
243.15183
242.98312
242.80574
242.61969
242.42432
242.21937
242.00422
245.48478
245.6771
245.55101
245.68834
245.59948
245.64521
245.58473
245.57105
245.52601
245.46196
245.31521
245.04404
244.67627
244.38542
244.38914
244.82342
245.48778
245.86125
245.60626
245.28439
245.32954
245.30293
245.09462
245.04751
245.02055
244.89104
244.82239
244.74298
244.63587
244.55156
244.44697
244.3441
244.23744
244.12178
244.00514
243.8774
243.74672
243.61009
243.46711
243.31619
243.15663
242.98834
242.81141
242.62581
242.43089
242.22638
242.01165
241.78672
245.48493
245.6764
245.55138
245.68801
245.59988
245.64527
245.58516
245.57138
245.52681
245.46365
245.31882
245.04988
244.68285
244.38902
244.38635
244.81198
245.47625
245.85793
245.61352
245.28609
245.32689
245.30464
245.09621
245.04662
245.02139
244.89207
244.82285
244.74421
244.63709
244.55284
244.44858
244.3458
244.23945
244.12402
244.00767
243.88028
243.74992
243.61367
243.47108
243.32057
243.1615
242.99369
242.81719
242.63206
242.4376
242.23353
242.01924
241.79469
245.48508
245.67568
245.55176
245.68768
245.6003
245.64533
245.58561
245.57172
245.52761
245.46538
245.32251
245.05589
244.68965
244.39284
244.38366
244.80027
245.46427
245.85431
245.62091
245.28803
245.32412
245.30633
245.09792
245.04571
245.02222
244.89315
244.82333
244.74548
244.63834
244.55416
244.45024
244.34755
244.24152
244.12632
244.01027
243.88322
243.75319
243.61733
243.47514
243.32505
243.16643
242.99915
242.8231
242.63844
242.44444
242.24083
242.02698
241.80284
245.48522
245.67493
245.55216
245.68733
245.60072
245.64539
245.58607
245.57207
245.52843
245.46713
245.32627
245.06205
244.69668
244.39687
244.38108
244.78829
245.45183
245.85038
245.62843
245.29025
245.32124
245.308
245.09975
245.04478
245.02305
244.89428
244.82382
244.74678
244.63964
244.55551
244.45196
244.34935
244.24364
244.12868
244.01293
243.88624
243.75654
243.62107
243.4793
243.32963
243.17144
243.00474
242.82913
242.64494
242.45142
242.24829
242.03489
241.81117
245.48536
245.67417
245.55256
245.68698
245.60116
245.64546
245.58654
245.57242
245.52926
245.4689
245.3301
245.06837
244.70396
244.40115
244.37862
244.77606
245.43889
245.84614
245.63605
245.29275
245.31824
245.30963
245.1017
245.04384
245.02387
244.89545
244.82432
244.74811
244.64098
244.55691
244.45373
244.35121
244.24582
244.13111
244.01566
243.88933
243.75997
243.6249
243.48355
243.33432
243.17656
243.01039
242.8353
242.65158
242.45855
242.25589
242.04296
241.81967
241.58559
245.4855
245.67338
245.55297
245.68661
245.60161
245.64552
245.58703
245.57278
245.5301
245.47071
245.33401
245.07485
244.71149
244.40567
244.37629
244.76359
245.42546
245.84157
245.64377
245.29555
245.31514
245.31123
245.1038
245.04287
245.02467
244.89668
244.82484
244.74947
244.64237
244.55834
244.45555
244.35312
244.24806
244.1336
244.01846
243.89251
243.76349
243.62882
243.48789
243.33911
243.1818
243.0161
242.84161
242.65836
242.46582
242.26365
242.0512
241.82835
241.59467
245.48564
245.67256
245.55339
245.68624
245.60207
245.64559
245.58753
245.57314
245.53096
245.47253
245.33799
245.0815
244.71927
244.41045
244.37411
244.75088
245.41152
245.83665
245.65156
245.29865
245.31193
245.31278
245.10605
245.0419
245.02546
244.89797
244.82537
244.75087
244.64382
244.55982
244.45743
244.35509
244.25037
244.13616
244.02134
243.89576
243.76708
243.63283
243.49233
243.344
243.18716
243.0219
242.84803
242.66529
242.47324
242.27158
242.05961
241.83721
241.60395
245.48577
245.67173
245.55382
245.68586
245.60254
245.64565
245.58805
245.57351
245.53182
245.47439
245.34204
245.0883
244.72731
244.41551
244.37208
244.73795
245.39707
245.83135
245.65941
245.30208
245.30864
245.31427
245.10844
245.04091
245.02622
244.89932
244.82592
244.7523
244.64531
244.56134
244.45937
244.35712
244.25273
244.13879
244.02428
243.89909
243.77077
243.63693
243.49687
243.34901
243.19263
243.02787
242.85448
242.67239
242.48082
242.27966
242.06819
241.84625
241.61342
241.36958
245.4859
245.67087
245.55426
245.68546
245.60303
245.64572
245.58858
245.57389
245.5327
245.47626
245.34617
245.09528
244.73563
244.42085
244.37022
244.72482
245.38208
245.82564
245.66729
245.30584
245.30527
245.31569
245.111
245.03991
245.02696
244.90072
244.82649
244.75377
244.64685
244.5629
244.46136
244.35921
244.25517
244.1415
244.02731
243.9025
243.77454
243.64113
243.50151
243.35412
243.19823
243.03396
242.86102
242.67962
242.48857
242.2879
242.07695
241.85548
241.62309
241.37963
245.48602
245.66999
245.55471
245.68506
245.60354
245.64579
245.58912
245.57427
245.53359
245.47817
245.35036
245.10242
244.74422
244.4265
244.36855
244.71151
245.36654
245.81948
245.67517
245.30996
245.30184
245.31704
245.11372
245.03892
245.02766
244.90219
244.82708
244.75527
244.64846
244.56451
244.46342
244.36136
244.25767
244.14428
244.03041
243.906
243.77841
243.64542
243.50626
243.35935
243.20395
243.04018
242.86775
242.68686
242.49649
242.29632
242.08588
241.8649
241.63296
241.38989
245.48614
245.66908
245.55517
245.68464
245.60406
245.64586
245.58968
245.57466
245.53448
245.48009
245.35462
245.10973
244.75309
244.43247
244.36708
244.69804
245.35042
245.81283
245.68305
245.31447
245.29835
245.31828
245.11662
245.03793
245.02833
244.90373
244.82769
244.75681
244.65011
244.56616
244.46554
244.36357
244.26025
244.14713
244.03359
243.9096
243.78237
243.64982
243.51112
243.3647
243.20979
243.04654
242.87462
242.69422
242.50453
242.30493
242.09499
241.87452
241.64304
241.40037
245.48625
245.66814
245.55563
245.68422
245.60459
245.64593
245.59025
245.57506
245.53539
245.48204
245.35894
245.1172
244.76225
244.43877
244.36582
244.68443
245.3337
245.80567
245.69088
245.31939
245.29482
245.31942
245.11969
245.03695
245.02896
244.90533
244.82832
244.75838
244.65183
244.56787
244.46773
244.36586
244.26289
244.15007
244.03686
243.91328
243.78643
243.65433
243.51609
243.37017
243.21577
243.05304
242.88165
242.70179
242.51263
242.31377
242.10432
241.88436
241.65336
241.41111
241.15736
245.48635
245.66718
245.55611
245.68379
245.60514
245.64601
245.59084
245.57546
245.53631
245.48401
245.36332
245.12483
244.7717
244.44542
244.36481
244.67073
245.31633
245.79795
245.69867
245.32479
245.29123
245.32043
245.12297
245.03599
245.02954
244.90701
244.82898
244.75999
244.65362
244.56963
244.46999
244.36822
244.26562
244.1531
244.04023
243.91707
243.7906
243.65896
243.52119
243.37578
243.2219
243.05971
242.88886
242.70954
242.52088
242.32282
242.11388
241.89444
241.66393
241.42213
241.16875
245.48645
245.66619
245.55659
245.68334
245.6057
245.64608
245.59144
245.57587
245.53724
245.486
245.36777
245.13264
244.78146
244.45244
244.36404
244.65696
245.29829
245.78962
245.70638
245.33071
245.28758
245.3213
245.12643
245.03506
245.03006
244.90876
244.82968
244.76164
244.65547
244.57144
244.47233
244.37066
244.26844
244.15623
244.04369
243.92097
243.79489
243.66371
243.52643
243.38153
243.22818
243.06654
242.89624
242.71748
242.52937
242.33198
242.12369
241.90477
241.67478
241.43343
241.18043
245.48654
245.66518
245.55709
245.68288
245.60628
245.64615
245.59206
245.57629
245.53818
245.48801
245.37228
245.1406
244.79153
244.45984
244.36356
244.64315
245.27956
245.78067
245.71401
245.3372
245.28385
245.322
245.1301
245.03417
245.03052
244.9106
244.8304
244.76332
244.65739
244.57332
244.47474
244.37318
244.27133
244.15945
244.04725
243.92498
243.79929
243.66858
243.5318
243.38743
243.23462
243.07353
242.9038
242.72562
242.53808
242.34127
242.13377
241.91536
241.68589
241.44503
241.19244
240.9281
245.48662
245.66413
245.55759
245.68242
245.60687
245.64623
245.5927
245.57671
245.53912
245.49004
245.37683
245.14873
244.80191
244.46764
244.36337
244.62935
245.26012
245.77105
245.7215
245.34427
245.28009
245.32252
245.13397
245.03333
245.03092
244.91252
244.83117
244.76504
244.65939
244.57525
244.47723
244.37579
244.27432
244.16277
244.05092
243.92911
243.80382
243.67359
243.53731
243.39348
243.24122
243.08071
242.91155
242.73396
242.54701
242.35073
242.14411
241.92623
241.6973
241.45693
241.20477
240.94077
245.48668
245.66306
245.5581
245.68194
245.60749
245.64631
245.59335
245.57714
245.54007
245.49208
245.38144
245.15702
244.8126
244.47586
244.36349
244.6156
245.23994
245.76073
245.72882
245.35194
245.27632
245.32284
245.13805
245.03255
245.03124
244.91452
244.83197
244.76679
244.66146
244.57725
244.4798
244.37848
244.2774
244.16619
244.05469
243.93335
243.80848
243.67874
243.54297
243.39969
243.24799
243.08806
242.91949
242.7425
242.55617
242.36047
242.15457
241.9374
241.709
241.46915
241.21744
240.9538
245.48674
245.66196
245.55863
245.68145
245.60811
245.64638
245.59401
245.57757
245.54103
245.49415
245.3861
245.16547
244.82362
244.4845
244.36396
244.60196
245.21902
245.74968
245.73591
245.36023
245.27259
245.32293
245.14233
245.03185
245.03148
244.91661
244.83282
244.76858
244.66361
244.57931
244.48246
244.38127
244.28057
244.16972
244.05858
243.93772
243.81327
243.68402
243.54877
243.40606
243.25494
243.0956
242.92763
242.75127
242.56556
242.37047
242.16518
241.94889
241.721
241.48169
241.23047
240.9672
245.48679
245.66082
245.55915
245.68095
245.60876
245.64646
245.59469
245.57801
245.542
245.49623
245.3908
245.17406
244.83497
244.4936
244.36479
244.58847
245.19735
245.73787
245.74271
245.36914
245.26895
245.32278
245.14681
245.03125
245.03163
244.91879
244.83372
244.7704
244.66584
244.58144
244.4852
244.38415
244.28385
244.17336
244.06259
243.94221
243.81819
243.68946
243.55474
243.4126
243.26206
243.10333
242.93599
242.76025
242.57519
242.38074
242.17599
241.9607
241.73334
241.49458
241.24385
240.98099
240.70613
245.48682
245.65966
245.55969
245.68044
245.60943
245.64653
245.59539
245.57845
245.54298
245.49833
245.39554
245.18281
244.84664
244.50315
244.366
244.57518
245.17491
245.72524
245.74918
245.37868
245.26544
245.32235
245.15147
245.03075
245.03168
244.92105
244.83468
244.77225
244.66815
244.58365
244.48804
244.38712
244.28722
244.17712
244.06671
243.94684
243.82326
243.69504
243.56087
243.41932
243.26938
243.11127
242.94455
242.76947
242.58506
242.39127
242.18716
241.97262
241.74604
241.50781
241.25761
240.99519
240.72066
245.48683
245.65846
245.56024
245.67992
245.61011
245.64661
245.5961
245.5789
245.54396
245.50045
245.40031
245.1917
244.85864
244.51318
244.36763
244.56216
245.1517
245.71172
245.75526
245.38884
245.26214
245.32163
245.15631
245.03038
245.03163
244.92339
244.83571
244.77414
244.67054
244.58592
244.49097
244.3902
244.2907
244.181
244.07096
243.95161
243.82848
243.70079
243.56717
243.42622
243.27689
243.11942
242.95334
242.77893
242.5952
242.40208
242.19863
241.98474
241.75911
241.52142
241.27175
241.00979
240.73562
245.48684
245.65723
245.56079
245.67938
245.61082
245.64668
245.59683
245.57936
245.54494
245.50257
245.40511
245.20073
244.87097
244.5237
244.36969
244.54945
245.12774
245.69724
245.76093
245.3996
245.25909
245.32058
245.1613
245.03017
245.03146
244.92583
244.8368
244.77606
244.67303
244.58828
244.494
244.39339
244.29429
244.185
244.07535
243.95652
243.83384
243.7067
243.57364
243.4333
243.2846
243.12778
242.96237
242.78863
242.6056
242.41317
242.2104
241.9971
241.77252
241.53541
241.2863
241.02483
240.75104
240.46489
245.48682
245.65597
245.56135
245.67884
245.61155
245.64674
245.59757
245.57982
245.54593
245.50471
245.40994
245.20989
244.88363
244.53473
244.37221
244.53711
245.10305
245.68174
245.76616
245.41094
245.25638
245.31918
245.16643
245.03013
245.03118
244.92834
244.83798
244.77801
244.67561
244.59072
244.49712
244.39669
244.298
244.18914
244.07986
243.96158
243.83937
243.71277
243.5803
243.44058
243.29252
243.13636
242.97163
242.79859
242.61627
242.42456
242.2225
242.00989
241.78608
241.54984
241.30127
241.04031
240.76694
240.48108
245.48679
245.65468
245.56191
245.67829
245.6123
245.64681
245.59833
245.58029
245.54693
245.50687
245.41479
245.21918
244.89662
244.54627
244.37522
244.52519
245.07764
245.66513
245.77093
245.42283
245.25409
245.31739
245.17167
245.03028
245.03077
244.93095
244.83924
244.77999
244.67827
244.59325
244.50035
244.40011
244.30182
244.1934
244.08452
243.96679
243.84506
243.71903
243.58714
243.44807
243.30066
243.14517
242.98113
242.80881
242.62722
242.43625
242.23492
242.02303
241.79989
241.56469
241.31667
241.05625
240.78332
240.49778
245.48674
245.65335
245.56249
245.67772
245.61307
245.64687
245.5991
245.58076
245.54792
245.50902
245.41966
245.22858
244.90993
244.55835
244.37874
244.51376
245.05156
245.64735
245.77523
245.43522
245.25228
245.31519
245.177
245.03066
245.03022
244.93364
244.8406
244.78199
244.68104
244.59587
244.50369
244.40365
244.30576
244.19781
244.08933
243.97216
243.85093
243.72546
243.59418
243.45576
243.30902
243.15423
242.9909
242.8193
242.63847
242.44825
242.24768
242.03653
241.81403
241.57987
241.33255
241.07266
240.80022
240.51503
240.2175
245.48666
245.65199
245.56307
245.67715
245.61386
245.64692
245.59989
245.58124
245.54892
245.51119
245.42455
245.2381
244.92357
244.57097
244.38279
244.50285
245.02488
245.62834
245.77902
245.44804
245.25105
245.31253
245.1824
245.03129
245.02953
244.93644
244.84207
244.78402
244.6839
244.59858
244.50713
244.40731
244.30983
244.20236
244.09428
243.9777
243.85697
243.73209
243.60142
243.46367
243.31761
243.16353
243.00092
242.83008
242.65001
242.46057
242.26079
242.05041
241.82865
241.59526
241.34893
241.08956
240.81763
240.53283
240.23553
245.48657
245.65058
245.56365
245.67656
245.61468
245.64697
245.60069
245.58172
245.54992
245.51336
245.42944
245.24771
244.93752
244.58414
244.38741
244.49255
244.99765
245.60803
245.78226
245.46124
245.25045
245.30939
245.18786
245.03219
245.02869
244.93934
244.84365
244.78607
244.68686
244.6014
244.51069
244.4111
244.31403
244.20706
244.09939
243.98341
243.86319
243.73891
243.60887
243.4718
243.32644
243.17308
243.01122
242.84114
242.66187
242.47323
242.27425
242.06468
241.84367
241.61095
241.3658
241.10699
240.83559
240.55121
240.25417
239.94463
245.48645
245.64915
245.56424
245.67597
245.61552
245.64701
245.6015
245.58221
245.55092
245.51553
245.43434
245.25741
244.95177
244.59788
244.39261
244.48289
244.96997
245.58637
245.78486
245.47477
245.25056
245.30572
245.19338
245.0334
245.02769
244.94235
244.84536
244.78814
244.68992
244.60432
244.51437
244.41502
244.31836
244.21191
244.10467
243.98929
243.8696
243.74593
243.61653
243.48016
243.33552
243.1829
243.02181
242.85251
242.67405
242.48623
242.28808
242.07934
241.85913
241.62713
241.38295
241.125
240.85411
240.57019
240.27346
239.96403
245.48631
245.64767
245.56483
245.67537
245.61639
245.64704
245.60232
245.5827
245.55192
245.5177
245.43925
245.26718
244.96633
244.61219
244.39843
244.47394
244.94193
245.56329
245.78673
245.48854
245.25141
245.30149
245.19899
245.03494
245.02656
244.94548
244.84721
244.79022
244.69308
244.60736
244.51816
244.41909
244.32283
244.21692
244.11011
243.99536
243.87621
243.75316
243.62442
243.48876
243.34485
243.19299
243.03268
242.86419
242.68657
242.49959
242.3023
242.0944
241.87503
241.64382
241.40038
241.1436
240.87322
240.58979
240.2934
239.98414
245.48613
245.64616
245.56542
245.67476
245.61728
245.64706
245.60316
245.5832
245.55292
245.51986
245.44415
245.27702
244.98118
244.62708
244.40491
244.46576
244.91365
245.53872
245.78777
245.50251
245.25307
245.29667
245.20475
245.03684
245.0253
244.94872
244.8492
244.79231
244.69636
244.61051
244.52207
244.4233
244.32744
244.2221
244.11572
244.00161
243.88302
243.7606
243.63253
243.49761
243.35445
243.20337
243.04386
242.87619
242.69942
242.51331
242.31691
242.10989
241.89138
241.66099
241.4182
241.16272
240.89297
240.61002
240.31402
240.00497
239.68342
245.48593
245.64461
245.56602
245.67414
245.6182
245.64707
245.604
245.58371
245.55392
245.52202
245.44906
245.28692
244.99631
244.64256
244.41207
244.45837
244.88526
245.51259
245.78782
245.51664
245.25556
245.29132
245.21063
245.03911
245.02397
244.95204
244.85136
244.79442
244.69974
244.61379
244.52611
244.42766
244.3322
244.22745
244.12152
244.00806
243.89003
243.76827
243.64089
243.50671
243.36431
243.21403
243.05534
242.88853
242.71263
242.52742
242.33193
242.12581
241.9082
241.67867
241.4367
241.18206
240.91339
240.63093
240.33534
240.02656
239.70504
245.4857
245.64302
245.56662
245.67352
245.61915
245.64707
245.60485
245.58422
245.55491
245.52416
245.45396
245.29686
245.01171
244.65862
244.41996
244.45184
244.85688
245.48487
245.78675
245.53087
245.25892
245.28557
245.21655
245.04179
245.02258
244.95544
244.85367
244.79652
244.70324
244.6172
244.53028
244.43218
244.33711
244.23296
244.1275
244.01471
243.89727
243.77616
243.64949
243.51608
243.37446
243.225
243.06715
242.9012
242.72621
242.54191
242.34736
242.14217
241.92549
241.69687
241.45574
241.20181
240.93446
240.65255
240.35739
240.04891
239.72749
245.48544
245.64139
245.56722
245.67289
245.62011
245.64706
245.60571
245.58474
245.5559
245.52629
245.45886
245.30682
245.02736
244.67526
244.42864
244.44617
244.82867
245.4555
245.78436
245.5452
245.26318
245.27956
245.22243
245.04489
245.02119
244.95888
244.85616
244.79864
244.70685
244.62074
244.53458
244.43685
244.34218
244.23866
244.13367
244.02156
243.90473
243.7843
243.65834
243.52572
243.38491
243.23627
243.07929
242.91423
242.74017
242.5568
242.36323
242.159
241.94328
241.7156
241.47536
241.22219
240.95592
240.67494
240.38018
240.07207
239.75079
239.41679
245.48514
245.63971
245.56782
245.67225
245.62111
245.64703
245.60658
245.58527
245.55688
245.5284
245.46374
245.31681
245.04324
244.6925
244.43813
244.44142
244.80077
245.42449
245.78044
245.55964
245.26836
245.27344
245.22817
245.04843
245.01983
244.96235
244.85882
244.80077
244.71057
244.62444
244.53901
244.44169
244.34741
244.24455
244.14005
244.02863
243.91242
243.79267
243.66746
243.53563
243.39565
243.24787
243.09177
242.92762
242.75451
242.57212
242.37954
242.1763
241.96158
241.73487
241.49557
241.24326
240.97776
240.69812
240.40377
240.09605
239.77497
239.44093
245.4848
245.638
245.56842
245.67161
245.62213
245.64699
245.60745
245.5858
245.55785
245.53047
245.46863
245.3268
245.05935
244.71031
244.44847
244.43762
244.77335
245.39181
245.77476
245.57419
245.27449
245.26736
245.23367
245.05243
245.01855
244.96581
244.86167
244.80292
244.71441
244.62828
244.54357
244.44669
244.35281
244.25062
244.14662
244.03592
243.92034
243.8013
243.67684
243.54584
243.4067
243.25979
243.10461
242.94139
242.76925
242.58786
242.3963
242.19409
241.9804
241.7547
241.51638
241.26498
241.00018
240.72189
240.42824
240.1209
239.80007
239.46603
239.11939
245.48443
245.63624
245.56902
245.67097
245.62317
245.64693
245.60833
245.58634
245.55882
245.53251
245.4735
245.33679
245.07565
244.72869
244.45971
244.4348
244.74656
245.35751
245.76705
245.58891
245.28164
245.26144
245.23883
245.05693
245.01735
244.96921
244.8647
244.80509
244.71836
244.63228
244.54827
244.45187
244.35838
244.25689
244.15341
244.04344
243.92852
243.8102
243.6865
243.55634
243.41806
243.27206
243.1178
242.95555
242.78441
242.60404
242.41354
242.21239
241.99977
241.77512
241.53782
241.28737
241.02345
240.74593
240.45368
240.14665
239.8261
239.49213
239.14527
245.48401
245.63444
245.56962
245.67032
245.62423
245.64686
245.60921
245.58689
245.55978
245.5345
245.47837
245.34677
245.09213
244.74763
244.47187
244.433
244.72054
245.32162
245.75703
245.60387
245.28997
245.25564
245.24352
245.06199
245.01623
244.97252
244.86791
244.80731
244.72243
244.63644
244.55311
244.45723
244.36413
244.26336
244.16042
244.05119
243.93694
243.81935
243.69645
243.56714
243.42976
243.28467
243.13137
242.9701
242.8
242.62067
242.43126
242.2312
242.01968
241.79612
241.55989
241.31045
241.04746
240.77048
240.47998
240.17338
239.85311
239.51927
239.17225
245.48355
245.63259
245.57021
245.66968
245.62532
245.64677
245.61008
245.58745
245.56072
245.53644
245.48323
245.35673
245.10876
244.76713
244.48496
244.43226
244.69545
245.28424
245.74443
245.61914
245.29965
245.24988
245.24762
245.06765
245.01515
244.9757
244.87131
244.80958
244.72662
244.64077
244.55809
244.46277
244.37006
244.27004
244.16764
244.05918
243.94562
243.82879
243.7067
243.57827
243.44179
243.29764
243.14532
242.98506
242.81602
242.63778
242.44948
242.25055
242.04017
241.81774
241.58262
241.33423
241.07223
240.79615
240.50648
240.20113
239.88115
239.54747
239.20037
238.84063
245.48304
245.6307
245.5708
245.66903
245.62642
245.64667
245.61096
245.58801
245.56166
245.53833
245.48806
245.36665
245.12552
244.78715
244.49901
244.43261
244.67143
245.24551
245.72901
245.63474
245.3106
245.24431
245.25102
245.0739
245.01413
244.9787
244.87487
244.81193
244.73093
244.64528
244.56321
244.46849
244.37618
244.27693
244.17511
244.06742
243.95458
243.83851
243.71725
243.58971
243.45417
243.31098
243.15967
243.00045
242.83249
242.65536
242.46821
242.27044
242.06124
241.83999
241.60602
241.35874
241.09779
240.82265
240.5336
240.22985
239.91029
239.57679
239.22966
238.86959
245.48248
245.62876
245.57139
245.66838
245.62755
245.64656
245.61183
245.58859
245.56258
245.54017
245.49287
245.37653
245.14238
244.80769
244.51402
244.43407
244.64863
245.2056
245.71061
245.65058
245.32268
245.23918
245.25359
245.08067
245.01326
244.98149
244.87859
244.81438
244.73535
244.64996
244.56848
244.4744
244.38249
244.28403
244.1828
244.07591
243.9638
243.84852
243.72811
243.60149
243.46691
243.32471
243.17443
243.01627
242.84943
242.67344
242.48748
242.29091
242.08292
241.86289
241.63012
241.384
241.12415
240.85002
240.56179
240.25902
239.94059
239.60727
239.26018
238.89983
238.52683
245.48187
245.62678
245.57198
245.66773
245.62868
245.64643
245.6127
245.58917
245.56349
245.54197
245.49764
245.38636
245.15933
244.82871
244.53001
244.43668
244.6272
245.16474
245.68915
245.6664
245.33578
245.23475
245.25523
245.08786
245.01262
244.98404
244.88245
244.81697
244.7399
244.65482
244.57388
244.4805
244.389
244.29136
244.19074
244.08466
243.97331
243.85883
243.73929
243.61361
243.48001
243.33882
243.1896
243.03253
242.86684
242.69203
242.50728
242.31195
242.10522
241.88645
241.65492
241.41002
241.15132
240.87828
240.59096
240.28884
239.97199
239.63901
239.29195
238.93142
238.55787
245.48121
245.62476
245.57256
245.66708