/*--------------------------------*- C++ -*----------------------------------*\
| =========                 |                                                 |
| \\      /  F ield         | OpenFOAM: The Open Source CFD Toolbox           |
|  \\    /   O peration     | Version:  2506                                  |
|   \\  /    A nd           | Website:  www.openfoam.com                      |
|    \\/     M anipulation  |                                                 |
\*---------------------------------------------------------------------------*/
FoamFile
{
    version     2.0;
    format      ascii;
    arch        "LSB;label=32;scalar=64";
    class       volSymmTensorField;
    location    "0.00032";
    object      R;
}
// * * * * * * * * * * * * * * * * * * * * * * * * * * * * * * * * * * * * * //

dimensions      [0 2 -2 0 0 0 0];

internalField   nonuniform List<symmTensor> 
3452
(
(6.1493304e-08 3.2722342e-14 6.8187778e-25 6.1493027e-08 -1.7940464e-25 6.1493117e-08)
(0.0032946386 1.2606864e-06 -1.4647123e-24 0.0024965225 3.9433487e-25 0.0027560836)
(0.10489019 0.013833579 1.1328972e-21 0.078746361 4.7186689e-21 0.086989454)
(6.2477519e-08 3.6437802e-14 4.1816028e-23 6.2477182e-08 1.7518271e-22 6.2477291e-08)
(0.0039110344 1.9108663e-06 2.7836026e-23 0.0029516332 9.9124548e-23 0.0032602094)
(0.11435914 0.016942592 -4.1056549e-21 0.085457964 -1.6795526e-20 0.094412915)
(0.45394474 0.072592396 9.9255605e-21 0.36882998 4.2908272e-20 0.3954818)
(1.3108639 0.28464584 9.1373489e-20 1.0938384 3.9019708e-19 1.1334629)
(2.9805127 0.82748427 2.9965493e-20 2.4193328 4.6631107e-20 2.5078873)
(6.329402e-08 3.5235539e-14 -2.8421651e-26 6.3293734e-08 1.0902152e-26 6.3293828e-08)
(0.003325043 1.3714616e-06 1.6448805e-24 0.0025221154 -4.1781857e-25 0.0027846294)
(0.10764654 0.014511659 -9.931397e-25 0.080793545 2.4721878e-25 0.0893141)
(0.4542901 0.072697433 8.6766814e-21 0.37022767 3.8161482e-20 0.39632544)
(1.3430102 0.2938109 -3.3851153e-20 1.1221156 -1.606272e-19 1.16227)
(3.0615503 0.85688378 -1.9000292e-19 2.4944312 -7.4882235e-19 2.5790025)
(5.23099 1.7917789 4.0286776e-19 4.2486557 1.6896908e-18 4.3120817)
(6.3921537e-08 3.9239973e-14 -2.4863759e-24 6.3921171e-08 -7.9746813e-24 6.3921288e-08)
(0.0041911061 2.1647205e-06 1.8887099e-23 0.0031740572 6.8466497e-23 0.0034972237)
(0.12186781 0.01816331 -4.0873835e-22 0.09138477 -1.4873416e-21 0.10070115)
(0.4831028 0.077940885 1.2121253e-20 0.39416311 5.0431309e-20 0.42129398)
(1.399624 0.30674619 -5.0336665e-20 1.1745892 -2.1937629e-19 1.2116752)
(3.1642385 0.88974567 -3.5240035e-21 2.5920876 8.8956812e-22 2.6683761)
(5.3596128 1.8474173 8.8073649e-21 4.384287 -2.1682371e-21 4.4260976)
(7.3953806 2.8867293 1.9581547e-23 6.1083493 5.5003039e-23 6.0305677)
(9.1305733 3.8276056 -9.7463992e-19 7.6220431 -4.0183152e-18 7.390358)
(6.4176795e-08 4.0572258e-14 -4.2821662e-23 6.4176428e-08 -1.8021128e-22 6.4176543e-08)
(0.0042349843 2.3887248e-06 -5.3181335e-24 0.0032172916 -3.22787e-23 0.0035366306)
(0.12673895 0.019052437 2.4231491e-21 0.095226204 1.0838637e-20 0.10473076)
(0.49798964 0.081078869 1.4859969e-21 0.40754191 3.3215092e-21 0.43458878)
(1.4410892 0.31745957 -5.072878e-20 1.2121678 -2.2055208e-19 1.248897)
(3.2509843 0.92132811 -1.3028559e-19 2.6778452 -5.6644119e-19 2.7457151)
(5.4710803 1.9011389 -8.4435354e-20 4.5067194 -1.1134756e-19 4.5279822)
(7.51533 2.9554607 1.318019e-18 6.2553612 5.8107e-18 6.1439822)
(9.2561337 3.9066034 -6.1575379e-19 7.7883465 -3.7123575e-18 7.5123639)
(10.742996 4.704416 -9.4168806e-19 9.1383892 -1.9664548e-18 8.6827619)
(11.988337 5.3471972 2.8281583e-18 10.311742 9.4035201e-18 9.6689782)
(13.032608 5.8158639 -4.1824585e-18 11.304091 -1.8548262e-17 10.509524)
(14.374562 4.3827992 -2.5066004e-18 10.946768 -8.9901322e-18 12.410551)
(13.920407 4.1378085 2.0190943e-19 10.469946 -2.793827e-20 12.087856)
(6.3986317e-08 4.066815e-14 -3.7703159e-23 6.3985919e-08 -1.6988947e-22 6.3986043e-08)
(0.0046252045 2.4322432e-06 -2.7814615e-23 0.003519774 -9.915541e-23 0.0038642678)
(0.12972926 0.019493798 2.8272057e-21 0.097864201 1.2368047e-20 0.10737787)
(0.51205217 0.083166691 -1.0329671e-20 0.42053617 -4.7632586e-20 0.44733692)
(1.485393 0.32722559 9.3593289e-25 1.2562872 4.1511502e-24 1.2888416)
(3.3381767 0.94865576 1.6209021e-24 2.7671393 2.9867165e-24 2.8245857)
(5.5809647 1.9492388 -1.7598252e-20 4.6344831 4.2631726e-21 4.6305182)
(7.6308975 3.0162132 2.329945e-23 6.4044468 1.4383109e-22 6.2569486)
(9.3750646 3.97682 1.4339556e-21 7.9545537 2.182119e-22 7.6331036)
(10.865876 4.7824731 -1.9955785e-21 9.3181368 1.3302891e-22 8.8111014)
(12.116999 5.4317377 -1.4973827e-18 10.50252 -6.9411523e-18 9.8057791)
(13.169163 5.90782 2.5787935e-18 11.507409 1.5649013e-17 10.6554)
(14.024642 6.2336503 2.8900817e-18 12.331952 3.7280244e-18 11.362062)
(14.701232 6.4083025 -6.7736606e-18 12.980064 -2.5384421e-17 11.940124)
(15.409133 5.2503122 8.0635072e-18 12.749288 2.245493e-17 13.024767)
(15.216492 5.0021947 -2.7636808e-18 12.210824 -1.0370969e-17 12.957793)
(14.976104 4.758391 1.750154e-18 11.666189 7.7267994e-18 12.844016)
(14.635804 4.5131809 1.4580414e-18 11.143185 -7.141533e-18 12.632234)
(14.176608 4.2615873 -4.89804e-18 10.65255 -8.2594177e-18 12.303768)
(13.599003 4.0005794 1.6941763e-18 10.181554 7.5428415e-18 11.860273)
(12.922612 3.7289617 1.4144277e-18 9.7073809 5.3528156e-18 11.321849)
(6.4221832e-08 4.1871105e-14 1.2252196e-24 6.4221404e-08 -3.0635073e-25 6.4221535e-08)
(0.0049828807 2.6458614e-06 -4.3922063e-24 0.0037989818 1.1097302e-24 0.0041615934)
(0.13600077 0.020486261 -1.0491639e-21 0.10288707 -4.9302385e-21 0.1125694)
(0.53480482 0.087173275 -1.2732754e-21 0.44079645 -3.4136736e-21 0.4672061)
(1.5502185 0.34208252 4.6586674e-20 1.316328 2.2320696e-19 1.3451286)
(3.4584709 0.98838303 1.2345976e-19 2.8850285 5.7195779e-19 2.9281278)
(5.7219594 2.011467 9.2233305e-20 4.7844249 1.1047239e-19 4.7540134)
(7.7744181 3.0893687 -1.5522509e-19 6.5695419 -6.9821277e-19 6.3863423)
(9.5202636 4.0556021 -5.6008643e-19 8.1318546 -3.723307e-18 7.7673788)
(11.01447 4.8697637 -2.0748438e-18 9.5116398 -7.5332683e-18 8.9505168)
(12.270569 5.5292574 3.4535763e-18 10.713182 1.5820534e-17 9.9508617)
(13.328256 6.0120378 9.8909089e-19 11.725359 5.6410852e-19 10.807305)
(14.190831 6.3426031 -4.4959275e-18 12.554248 -2.0518453e-17 11.521903)
(14.877454 6.5235645 -1.3208792e-18 13.214005 -6.4724027e-19 12.108982)
(15.402576 6.5865252 2.7362022e-18 13.7026 1.2885991e-17 12.578579)
(15.762663 6.549319 2.2931534e-18 14.030715 1.0313334e-17 12.920901)
(15.993009 6.4372842 -2.6085341e-18 14.226547 -2.0137292e-17 13.161037)
(16.076761 6.288365 -5.0496017e-18 14.25527 -3.7123586e-18 13.285162)
(16.058989 6.1147027 8.2410213e-18 14.153334 2.5695294e-17 13.330408)
(15.965954 5.8686546 -4.8631529e-18 13.890445 -2.1913998e-17 13.331611)
(15.823737 5.6214638 -3.1582924e-18 13.495824 -1.7436722e-19 13.298428)
(15.669359 5.3755056 2.6046304e-18 13.008725 1.1048767e-17 13.259301)
(15.489226 5.1334243 1.5905308e-18 12.458998 8.3071382e-18 13.199219)
(15.258347 4.8939909 3.1712428e-18 11.901364 3.1773273e-20 13.090012)
(14.923537 4.6513489 -1.6051399e-18 11.365185 -9.0908999e-18 12.879612)
(14.465516 4.4003094 -3.8865966e-19 10.862143 9.8793456e-20 12.549184)
(13.885309 4.1378191 -2.2139967e-21 10.380127 -7.1976071e-21 12.100984)
(13.203666 3.8628424 1.8557156e-19 9.896594 -4.6726298e-20 11.55623)
(12.440509 3.5755768 1.0034085e-20 9.3903814 7.1523829e-21 10.934741)
(6.5101687e-08 4.3240373e-14 -2.2912084e-24 6.5101255e-08 -7.6176701e-24 6.5101387e-08)
(0.0049739458 2.7134409e-06 1.9092737e-23 0.0037945239 6.8041128e-23 0.0041561844)
(0.13712622 0.020744873 -2.5482559e-21 0.10374652 -1.1405695e-20 0.11352512)
(0.54161185 0.0885402 2.6121552e-20 0.44626914 1.2295358e-19 0.47328871)
(1.5776473 0.34898986 6.513476e-20 1.3409538 2.5453142e-19 1.3696359)
(3.5231132 1.0120374 -5.6401771e-19 2.9494132 -2.5810737e-18 2.9853843)
(5.8081978 2.0534924 -1.5946349e-19 4.8797129 -2.2802366e-19 4.8318213)
(7.8702077 3.1442744 1.4206479e-18 6.6867916 6.5432583e-18 6.4749216)
(9.623304 4.1205046 3.2409709e-20 8.2686147 -8.7821775e-21 7.864435)
(11.124345 4.9436736 1.091967e-18 9.6662307 5.5701954e-18 9.0553439)
(12.388206 5.6105547 -8.0999857e-19 10.883828 -6.3963964e-18 10.064054)
(13.454598 6.1009425 4.3739722e-19 11.913424 5.2007997e-18 10.929059)
(14.32673 6.4383117 9.0084812e-19 12.760226 -5.2629445e-18 11.652475)
(15.023522 6.6242095 -6.2988436e-18 13.434972 -1.6145431e-17 12.248791)
(15.558074 6.6904256 7.2930612e-18 13.936038 2.6238484e-17 12.726467)
(15.928844 6.6564067 -2.8762768e-18 14.277012 -1.3075532e-17 13.077518)
(16.170041 6.5467855 1.4923869e-19 14.481595 -3.7119927e-20 13.326714)
(16.264935 6.3984398 -2.5632052e-18 14.514254 -1.0112548e-17 13.460445)
(16.257075 6.2257276 -1.3804184e-19 14.414684 9.5131562e-18 13.514052)
(16.175411 5.9814926 5.4353333e-18 14.154814 1.2474476e-17 13.524592)
(16.04465 5.7335714 -2.7431645e-18 13.759431 -1.1586765e-17 13.501756)
(15.90164 5.4866784 1.7339604e-18 13.268089 8.7652797e-18 13.473245)
(15.733386 5.2448858 1.1576302e-18 12.712026 -8.0628354e-18 13.423903)
(15.513896 5.0068455 -6.5818004e-18 12.146719 -1.743757e-17 13.324498)
(15.188272 4.7656902 2.8360819e-19 11.602463 1.6068918e-17 13.121491)
(14.736064 4.5158282 5.2028512e-18 11.091753 8.0853514e-18 12.795008)
(14.158061 4.253834 -3.1310397e-18 10.602674 -1.3360647e-17 12.347241)
(13.475589 3.9784306 -1.8345262e-18 10.112518 5.4845486e-18 11.800146)
(12.709539 3.6896855 5.1069507e-18 9.6000479 1.0701892e-17 11.174628)
(11.873474 3.3884071 8.8829755e-19 9.0498422 -9.8871405e-18 10.483747)
(6.6081627e-08 4.5113149e-14 1.6548175e-24 6.6081164e-08 7.7860145e-24 6.6081305e-08)
(0.0052735924 2.8783945e-06 -9.2839394e-23 0.0040271488 -4.210553e-22 0.0044053747)
(0.14213508 0.021493522 1.293686e-21 0.10772813 6.0525984e-21 0.1176786)
(0.56061543 0.091817025 -8.7419192e-21 0.4631059 -3.9243026e-20 0.48984694)
(1.6331962 0.36217934 -7.0377431e-21 1.3926092 -1.5848984e-20 1.4177139)
(3.6234563 1.0453648 2.810663e-19 3.0461303 1.2933225e-18 3.0717444)
(5.925286 2.1051921 5.8183045e-20 5.004964 1.1962138e-19 4.9342192)
(7.9893317 3.2053213 -1.2874586e-18 6.8263116 -5.8340988e-18 6.5819484)
(9.7434519 4.1875263 5.3911377e-19 8.4193915 3.716152e-18 7.9750964)
(11.24682 5.0158564 2.0803667e-18 9.8271462 7.5026112e-18 9.1704718)
(12.515014 5.6880524 -3.4233874e-18 11.055276 -1.5744212e-17 10.184894)
(13.587809 6.1841757 7.5604891e-19 12.095405 7.4860248e-18 11.056913)
(14.468273 6.5274198 3.9487418e-18 12.952901 1.1990053e-17 11.788457)
(15.175712 6.719972 -3.093724e-18 13.63977 -1.2165725e-17 12.394219)
(15.72275 6.7934133 2.3978088e-19 14.153751 -5.9971434e-20 12.882357)
(16.108064 6.7668966 -1.294718e-19 14.507789 3.4951523e-20 13.245137)
(16.365087 6.6646097 1.4185007e-19 14.725177 -3.5138302e-20 13.506779)
(16.47656 6.5217178 -1.518287e-19 14.769135 3.7189157e-20 13.653304)
(16.483682 6.354759 -2.3336652e-18 14.67717 -9.9164003e-18 13.718121)
(16.417248 6.1180065 -2.3137525e-18 14.422732 -4.3708473e-19 13.739596)
(16.300274 5.8730036 4.3001109e-18 14.02835 2.0885652e-17 13.72761)
(16.168445 5.6263432 3.014026e-18 13.533468 1.7784131e-19 13.708862)
(16.00985 5.3830432 -2.0630326e-18 12.97115 -1.0408188e-17 13.668705)
(15.798488 5.142932 1.282098e-18 12.398324 7.7289249e-18 13.577299)
(15.479033 4.8998087 1.6316435e-19 11.846714 -1.4175931e-17 13.38027)
(15.030273 4.6477806 -6.286004e-18 11.329597 -1.6896145e-18 13.057)
(14.452827 4.3832216 6.0856753e-18 10.835114 1.4929755e-17 12.609582)
(13.768292 4.1046715 -4.9460697e-19 10.340026 -1.3651934e-18 12.060365)
(12.998223 3.8120784 2.0976771e-18 9.8228228 -5.0033456e-18 11.431006)
(12.156899 3.5061922 -3.9842083e-18 9.268022 -5.1752124e-18 10.735342)
(11.250655 3.1881506 1.6794583e-18 8.6654398 8.5092921e-18 9.9789543)
(6.7006806e-08 4.7028206e-14 3.793113e-23 6.7006348e-08 1.7612046e-22 6.7006486e-08)
(0.0051763353 3.050944e-06 5.267443e-24 0.0039608942 3.2267996e-23 0.00432738)
(0.14455597 0.022029483 -1.2841096e-21 0.10963646 -6.0686545e-21 0.11967506)
(0.56998822 0.094153469 8.4801866e-21 0.47134095 3.9394802e-20 0.49814004)
(1.6648662 0.37124712 -3.1051995e-20 1.4204847 -1.6581243e-19 1.4458242)
(3.6896022 1.0722155 -1.8472941e-19 3.1125815 -7.685227e-19 3.1302448)
(6.0053187 2.1474689 6.7352668e-19 5.0950336 3.0871919e-18 5.0069721)
(8.0730778 3.2567221 1.8614027e-19 6.9326236 2.0716821e-19 6.6606711)
(9.829772 4.2448668 -1.9730495e-18 8.539861 -9.1557649e-18 8.0585733)
(11.336046 5.0784012 7.3503383e-19 9.9610631 5.0687263e-18 9.2586355)
(12.608557 5.7549982 1.1725257e-18 11.202196 2.4541264e-18 10.278608)
(13.68697 6.2555551 -4.9474184e-18 12.255519 -1.8822493e-17 11.156889)
(14.574517 6.6028376 5.146874e-18 13.126264 2.8599627e-17 11.895639)
(15.29057 6.7991675 3.4613957e-18 13.826285 3.8535869e-18 12.509715)
(15.847271 6.87621 -4.8658775e-18 14.3531 -1.6097527e-17 13.00669)
(16.244334 6.8534521 2.4053135e-18 14.720175 3.3807618e-18 13.379753)
(16.51479 6.7546032 -2.6763249e-18 14.949079 -3.3034114e-18 13.653196)
(16.641559 6.6134591 5.0931948e-18 15.00144 1.3306935e-17 13.813287)
(16.664126 6.4447935 -4.768939e-18 14.914796 -2.2445267e-17 13.891629)
(16.612396 6.2229727 -7.0719043e-19 14.67601 9.2498929e-18 13.922679)
(16.51263 5.9768645 3.2977918e-18 14.283512 2.6909467e-18 13.925415)
(16.397356 5.7325155 -5.0091368e-18 13.787446 -1.1237273e-17 13.920885)
(16.254472 5.4914327 3.9768306e-18 13.221794 1.8478823e-17 13.894191)
(16.057087 5.2534164 -4.3185684e-19 12.644138 -1.5103187e-17 13.814722)
(15.749247 5.0120294 -7.8096914e-18 12.087845 -8.9915791e-18 13.627412)
(15.309063 4.7612872 4.8603533e-18 11.566823 2.2877228e-17 13.310943)
(14.737054 4.4974496 3.0322545e-18 11.069166 -9.0317213e-20 12.867319)
(14.055195 4.2189839 -1.4580893e-18 10.571202 -6.7761252e-18 12.31932)
(13.285609 3.9257655 1.0317312e-18 10.051011 4.7888492e-18 11.689225)
(12.443116 3.6184723 2.8757728e-18 9.4929295 -1.9390821e-19 10.991464)
(11.534492 3.2981794 -9.8709638e-19 8.8868646 -4.7503974e-18 10.232116)
(10.561625 2.9661348 -3.6358127e-19 8.2261301 -3.3351241e-18 9.4120976)
(6.7931519e-08 4.8803789e-14 3.6379504e-23 6.7931023e-08 1.7648034e-22 6.7931171e-08)
(0.0055300479 3.1890173e-06 -6.4516587e-23 0.0042320433 -3.2270839e-22 0.0046206845)
(0.14922481 0.02272884 -1.4302177e-21 0.11331065 -6.5272604e-21 0.12354149)
(0.58824041 0.097121709 1.9046556e-21 0.48725807 8.9453037e-21 0.5140493)
(1.7196008 0.38427739 3.1632368e-20 1.4723128 1.6606686e-19 1.4932882)
(3.7859185 1.1046798 1.7695744e-19 3.2062359 7.7170013e-19 3.2135612)
(6.1155612 2.197571 -3.6727602e-19 5.2148889 -1.7250094e-18 5.1040357)
(8.1840351 3.3154308 1.7095372e-20 7.0644416 -4.6211637e-21 6.7611784)
(9.9408991 4.3092968 3.4040273e-23 8.6810633 2.2498661e-22 8.1617947)
(11.448573 5.1477062 -4.3543506e-20 10.110106 9.8929593e-21 9.3653154)
(12.724325 5.8288846 1.7075089e-19 11.358536 -4.3902688e-20 10.389945)
(13.807888 6.3346966 -2.158436e-19 12.419802 5.7014208e-20 11.273973)
(14.702277 6.6876161 -2.6081653e-19 13.299134 6.5028832e-20 12.019347)
(15.427119 6.8900107 -1.8203639e-18 14.008345 -9.5783586e-18 12.641157)
(15.994469 6.9737045 5.1863746e-19 14.545565 9.3351712e-18 13.147051)
(16.404541 6.9577623 5.0106552e-18 14.924316 1.3423182e-17 13.530858)
(16.689001 6.8649753 -3.4494333e-18 15.164531 -1.2800459e-17 13.815779)
(16.831126 6.7278343 4.4573204e-19 15.226719 -1.1274495e-19 13.988569)
(16.869602 6.5579377 3.0964413e-19 15.14552 -8.004459e-20 14.080789)
(16.828477 6.3517425 -4.9423247e-19 14.927129 1.3044403e-19 14.116348)
(16.743454 6.1040813 1.783824e-19 14.536224 -3.912977e-20 14.131803)
(16.64231 5.8606518 -1.8113146e-19 14.039016 3.9811895e-20 14.139594)
(16.51291 5.6202665 1.3828183e-18 13.470323 8.2534438e-18 14.124654)
(16.328012 5.3826733 3.592755e-18 12.887969 -5.0503631e-20 14.056139)
(16.030796 5.1412276 -5.5870167e-18 12.326813 -2.2848257e-17 13.878102)
(15.598316 4.8897447 -4.4039669e-18 11.801554 6.4390037e-18 13.568201)
(15.030665 4.6243418 6.3995031e-18 11.300562 1.4820801e-17 13.128093)
(14.350263 4.3434431 5.1781581e-20 10.80001 -1.4869878e-18 12.581045)
(13.579899 4.0469584 1.6291799e-18 10.277517 -4.8816412e-18 11.950022)
(12.735071 3.7356584 -4.171523e-18 9.7171572 -5.1769967e-18 11.250121)
(11.823103 3.4107231 5.2780182e-19 9.1087851 9.2536666e-19 10.487937)
(10.846313 3.0735219 -2.644233e-18 8.4458271 2.5755438e-19 9.6647762)
(9.8042757 2.7255383 1.7937312e-18 7.7229308 9.2254059e-18 8.7789521)
(6.8823369e-08 5.038973e-14 7.7421773e-23 6.882287e-08 3.6773218e-22 6.882302e-08)
(0.0054979667 3.2783859e-06 -1.6356336e-22 0.0042105483 -7.8371655e-22 0.004596272)
(0.15063391 0.023026943 -2.1479335e-23 0.11438038 5.4244871e-24 0.12472752)
(0.5957229 0.09860313 -3.1773135e-25 0.49327717 -1.4816722e-24 0.520721)
(1.7479514 0.39170037 -9.3231139e-22 1.4981838 2.2470994e-22 1.5186934)
(3.8452138 1.1280338 3.2126053e-21 3.2664197 -7.9624837e-22 3.2669021)
(6.1883363 2.2353539 2.9645828e-23 5.2967331 1.3573191e-22 5.1716738)
(8.2611218 3.362839 -1.9992835e-23 7.1617446 -1.4375818e-22 6.8353981)
(10.020972 4.3638167 -8.8913481e-23 8.7922047 -3.3018762e-22 8.2410135)
(11.531365 5.2083196 -2.2989311e-18 10.233449 -1.0917751e-17 9.448896)
(12.810916 5.8942303 1.2529656e-18 11.493204 1.2613276e-17 10.47849)
(13.898877 6.4049427 9.6200059e-18 12.567174 3.7250898e-17 11.367467)
(14.798718 6.7622458 -2.292935e-18 13.459814 -2.1355386e-17 12.118219)
(15.529921 6.9680225 -9.1519463e-18 14.180785 -4.3045571e-17 12.746042)
(16.104174 7.0542821 -7.3468745e-18 14.729367 -2.1006724e-17 13.258223)
(16.521902 7.0402687 1.0191035e-17 15.119276 6.4935067e-17 13.648696)
(16.814799 6.9487527 9.5766962e-18 15.368672 7.6061638e-18 13.941154)
(16.966971 6.8123321 -1.9488435e-17 15.437895 -7.1990514e-17 14.122987)
(17.017098 6.6411386 4.3758406e-18 15.360942 4.3708731e-17 14.225957)
(16.988499 6.4368139 1.0255361e-17 15.148486 2.4779567e-17 14.272209)
(16.918267 6.1907183 -4.8454312e-18 14.762684 -2.3021057e-17 14.300263)
(16.833261 5.9496529 3.6353238e-18 14.267329 1.7274005e-17 14.321864)
(16.721173 5.7125928 2.5419704e-18 13.698438 -1.5941795e-17 14.321612)
(16.553533 5.4786112 -6.642028e-18 13.114584 -4.248533e-18 14.267612)
(16.272161 5.2408657 6.9499941e-18 12.551717 3.770885e-18 14.102573)
(15.852937 4.9929345 -9.9058577e-18 12.025154 -1.6201678e-17 13.80305)
(15.295474 4.7306431 8.4078997e-19 11.52332 3.0683565e-18 13.370316)
(14.622352 4.4521435 -3.5199617e-18 11.022033 1.0853645e-17 12.827916)
(13.856745 4.1571438 1.0335971e-17 10.498531 2.1452468e-17 12.199329)
(13.014605 3.846253 1.9106701e-18 9.9367521 -1.9800215e-17 11.500217)
(12.10364 3.5205459 -7.859652e-18 9.3266401 -9.0174067e-18 10.737646)
(11.126518 3.1813477 1.6001589e-18 8.6618591 8.3407961e-18 9.9133397)
(10.083151 2.8301449 -1.2938965e-20 7.9373603 -1.7161852e-20 9.0259809)
(8.9715988 2.4685501 2.5614307e-19 7.1475262 -5.2153587e-20 8.0721319)
(6.9715822e-08 5.2789838e-14 4.3911817e-26 6.9715295e-08 -1.2170464e-26 6.971545e-08)
(0.0057755776 3.5515684e-06 2.6617951e-24 0.0044351029 -6.4550834e-25 0.0048285988)
(0.15738502 0.024018109 -4.093634e-23 0.11987686 1.00956e-23 0.13032939)
(0.62019514 0.10303045 3.5293228e-22 0.51543329 -8.7655748e-23 0.54202533)
(1.8138181 0.40703165 -5.079403e-25 1.5585043 -1.8143082e-24 1.5757855)
(3.9550719 1.1661586 -6.1131991e-21 3.3756997 1.4859818e-21 3.3617993)
(6.3077232 2.2902442 1.5697165e-20 5.4278455 -4.0861068e-21 5.2769927)
(8.3782054 3.4253806 -3.1989764e-20 7.3021069 8.1817291e-21 6.9418455)
(10.135804 4.4304345 1.0876488e-19 8.9386255 -2.5722529e-20 8.3485096)
(11.645456 5.2786087 2.1041687e-18 10.385705 1.0917026e-17 9.5583256)
(12.925961 5.968338 -1.3263425e-18 11.651698 -1.2525137e-17 10.590778)
(14.016494 6.4827897 -5.7911256e-18 12.730963 -2.1404505e-17 11.483565)
(14.920269 6.8434984 8.3229703e-18 13.628365 3.9936702e-17 12.238878)
(15.656802 7.053025 -9.9100163e-19 14.355346 -1.7623189e-17 12.871898)
(16.237409 7.1429464 -8.7226554e-18 14.910095 -2.6190377e-17 13.389692)
(16.663374 7.1324669 5.3124601e-18 15.306745 2.5563111e-17 13.787232)
(16.965286 7.0440693 2.8277327e-19 15.562927 -7.275678e-20 14.087207)
(17.127785 6.9103051 -2.9297911e-19 15.638651 7.7693599e-20 14.277477)
(17.18884 6.7410565 -3.1030131e-19 15.567007 7.9821167e-20 14.388992)
(17.168493 6.5409178 3.2639892e-19 15.364654 -8.3431478e-20 14.439702)
(17.109953 6.2957721 1.0912152e-21 14.981716 4.3919386e-21 14.477648)
(17.037498 6.0556008 3.3739843e-19 14.486629 -8.223447e-20 14.510226)
(16.938474 5.8192852 1.1326512e-20 13.916901 -1.6737641e-20 14.521359)
(16.783653 5.5859396 -1.7217171e-20 13.331433 3.801275e-21 14.478551)
(16.513979 5.3486502 3.6517777e-19 12.767046 -8.0817995e-20 14.323644)
(16.104429 5.1008741 -7.0997252e-19 12.23959 1.8102229e-19 14.032311)
(15.554221 4.8383291 -2.1002058e-18 11.737517 -1.1849577e-17 13.605454)
(14.886038 4.5590919 -4.9468955e-18 11.236288 1.1143306e-17 13.066773)
(14.123445 4.2628363 7.4693046e-18 10.712754 1.9891125e-18 12.440178)
(13.282846 3.9501749 -6.3155925e-18 10.150638 -1.8753881e-18 11.741799)
(12.372348 3.6222064 7.2418638e-18 9.5398697 9.1889407e-18 10.979114)
(11.394967 3.2802715 -1.740308e-18 8.8742743 -8.3375593e-18 10.154206)
(10.350923 2.9258759 9.0823612e-22 8.1490786 7.1535698e-21 9.2660846)
(9.2385194 2.5606116 -9.9968772e-19 7.358941 -4.7989078e-18 8.3115912)
(8.0540782 2.1861176 -3.3953098e-18 6.4966474 4.4702781e-18 7.2853425)
(7.0606136e-08 5.5028201e-14 4.3461399e-24 7.0605562e-08 1.5109315e-23 7.0605728e-08)
(0.0062283012 3.7824113e-06 -3.1188835e-23 0.0047845128 -1.3864843e-22 0.0052033846)
(0.16423006 0.025016328 8.0616836e-22 0.12526751 3.0800332e-21 0.13596756)
(0.64374888 0.10672951 -2.2669861e-20 0.53638591 -1.0479559e-19 0.56256319)
(1.8799581 0.42241485 1.6730844e-19 1.6218644 8.2147493e-19 1.6331481)
(4.062154 1.2023252 -1.7774456e-19 3.4818871 -1.0600334e-18 3.4547003)
(6.4238369 2.3425709 -2.991588e-19 5.5568957 -9.504918e-19 5.3797491)
(8.4921486 3.4847508 -3.9134601e-19 7.4404359 -3.2940159e-18 7.0457525)
(10.247702 4.494125 -1.0901313e-19 9.0835896 4.4686427e-18 8.4534671)
(11.756942 5.3456427 5.5265004e-18 10.53534 1.863215e-17 9.6655045)
(13.03889 6.0380551 -1.128603e-17 11.804209 -4.9037582e-17 10.701547)
(14.132653 6.5561811 5.4026279e-18 12.887818 3.4662785e-17 11.598885)
(15.040832 6.921246 6.9179701e-18 13.790891 2.3470174e-17 12.359132)
(15.783012 7.1350625 -4.7180976e-18 14.523479 -2.3914571e-17 12.997717)
(16.369759 7.2290141 -4.4581836e-18 15.084021 -1.9433396e-17 13.521103)
(16.802487 7.2218423 5.130247e-19 15.486724 1.8788065e-17 13.924432)
(17.11131 7.13618 9.1298878e-18 15.75 2.6639075e-17 14.23004)
(17.281552 7.0042149 -4.9122905e-18 15.8338 -2.5274285e-17 14.426474)
(17.351337 6.8355857 -9.216805e-22 15.767994 -7.6816663e-21 14.545272)
(17.338583 6.6370961 -2.9084716e-21 15.570618 -7.678215e-21 14.602046)
(17.289376 6.3922124 -3.7230338e-18 15.193204 -1.807792e-17 14.64759)
(17.227879 6.1528758 -1.9329452e-18 14.70099 1.6640489e-17 14.689409)
(17.141765 5.9184473 6.4100101e-18 14.13194 4.7005559e-18 14.711476)
(17.00101 5.6872976 -1.0033589e-17 13.545763 -1.926626e-17 14.680611)
(16.745291 5.4524087 6.4239633e-18 12.980459 3.1706221e-17 14.537403)
(16.34815 5.2069787 3.4777313e-18 12.452412 -1.2921194e-17 14.256137)
(15.807888 4.9464785 -4.1003568e-18 11.950139 8.7071011e-18 13.836881)
(15.147139 4.6687712 1.0256678e-17 11.448944 -8.216088e-18 13.303374)
(14.389661 4.3733201 -1.5023865e-17 10.925222 -1.404888e-17 12.679841)
(13.552166 4.0605711 1.0255731e-17 10.362397 2.1287328e-17 11.982835)
(12.643104 3.7315201 -1.9561325e-18 9.750441 -9.5662564e-18 11.22027)
(11.665847 3.3874691 -2.8831589e-19 9.0834227 7.0340173e-20 10.394651)
(10.621005 3.0299409 2.2858683e-21 8.3569442 1.1113954e-20 9.5054174)
(9.5072884 2.6605949 5.059618e-19 7.5660615 -1.2215377e-19 8.5498308)
(8.321358 2.2811709 -2.3621206e-19 6.703876 3.9209164e-20 7.522837)
(7.1478418e-08 5.0919166e-14 1.1164739e-24 7.1477907e-08 -2.7801711e-25 7.1478056e-08)
(0.0055924163 2.6231582e-06 -1.4782894e-22 0.0043232517 -7.121928e-22 0.0046936572)
(0.1537233 0.021279258 -2.6989639e-22 0.11814999 -9.0018793e-22 0.12803189)
(0.64723904 0.10706748 3.5502554e-20 0.54163366 1.7832315e-19 0.56611511)
(1.9315292 0.43601591 1.4049148e-20 1.6707 3.2143977e-20 1.6784086)
(4.1591894 1.2388822 -2.89517e-19 3.5806917 -1.4540954e-18 3.53954)
(6.5298255 2.3947997 -1.5935822e-20 5.6767325 3.9431668e-21 5.4747456)
(8.5959326 3.5439883 3.2344872e-20 7.5700051 -7.8909153e-21 7.141921)
(10.349558 4.5572681 -1.0921589e-19 9.2206478 2.6899187e-20 8.5508043)
(11.858139 5.4122132 2.3580371e-18 10.679682 1.0749837e-17 9.7646787)
(13.140809 6.1079726 -1.3491363e-18 11.956463 -1.2373909e-17 10.803282)
(14.236246 6.6287213 -6.187896e-18 13.046485 -2.1035155e-17 11.703812)
(15.147153 6.9955379 4.8316172e-18 13.954773 2.206362e-17 12.46789)
(15.893048 7.2111423 3.9664254e-18 14.693068 1.8532297e-17 13.110707)
(16.483858 7.3062316 -7.854e-19 15.258718 -1.8180462e-17 13.638373)
(16.921232 7.2995323 -5.0421545e-18 15.666125 -6.4876721e-18 14.046269)
(17.234946 7.2139929 5.5935786e-18 15.933938 6.3620076e-18 14.35642)
(17.411578 7.0818693 -9.5934503e-18 16.022411 -2.5982342e-17 14.558401)
(17.489456 6.9133946 4.9756973e-18 15.959558 2.4446247e-17 14.684127)
(17.485028 6.7171654 1.7107916e-21 15.764606 3.1014506e-21 14.747556)
(17.446165 6.4739379 -3.6521773e-18 15.390339 -1.7942393e-17 14.801348)
(17.396423 6.2360734 -2.6431385e-18 14.899779 1.6665835e-17 14.852999)
(17.323338 6.0028984 1.0320388e-17 14.33157 2.0548244e-17 14.88626)
(17.196264 5.773194 -4.2031038e-18 13.745979 -1.8867703e-17 14.867218)
(16.954103 5.5399819 -2.6140419e-21 13.181636 -1.5489775e-20 14.735613)
(16.569473 5.2963782 -2.2583422e-18 12.655241 -1.2890799e-17 14.464804)
(16.040094 5.0376894 -6.5573165e-18 12.155275 2.4341834e-19 14.054314)
(15.388395 4.7616053 5.5009111e-18 11.656581 2.3916186e-17 13.527738)
(14.638162 4.467426 3.0416968e-18 11.135016 -9.6256482e-18 12.909394)
(13.806192 4.1554498 -6.04799e-18 10.573602 -1.9855728e-18 12.216)
(12.901021 3.8265318 9.4188769e-18 9.9621627 1.6631047e-17 11.455629)
(11.926166 3.481873 3.754712e-18 9.2948627 -8.8430697e-18 10.631008)
(10.882491 3.1229302 -3.7419028e-18 8.5676075 -1.8691519e-17 9.741897)
(9.7690481 2.7513259 -9.5120628e-18 7.7758899 9.8553703e-19 8.7859654)
(8.5828571 2.368787 2.8707112e-18 6.9132745 1.4340789e-17 7.7585732)
(7.2374619e-08 5.2709496e-14 -1.0604825e-24 7.2374094e-08 2.5918636e-25 7.2374246e-08)
(0.0057079526 2.7486884e-06 2.570815e-24 0.0044194072 -6.3240857e-25 0.0047922081)
(0.15731567 0.021823072 -4.1287296e-23 0.12108223 1.0075454e-23 0.13104954)
(0.66397759 0.11020314 -3.4252244e-22 0.55657404 8.4498988e-23 0.58080399)
(1.9856349 0.44988746 5.2221596e-21 1.7217973 -1.2658248e-21 1.7257984)
(4.2522006 1.2744353 -5.9085649e-21 3.6758981 1.4301826e-21 3.6212789)
(6.6324493 2.446591 -1.0624129e-23 5.7939768 -5.2788053e-23 5.5672714)
(8.6991145 3.6043922 0 7.6998697 0 7.2377574)
(10.453381 4.6237801 4.8549752e-23 9.3612457 2.4123386e-22 8.649634)
(11.963541 5.4841518 3.3512066e-23 10.829587 2.4704922e-23 9.8669242)
(13.249403 6.1848601 2.7899205e-18 12.11478 1.3305807e-17 10.909902)
(14.349362 6.7109995 -1.3105333e-18 13.213317 -1.4378666e-17 11.815381)
(15.265999 7.083135 -1.0217082e-17 14.129993 -4.0439441e-17 12.584941)
(16.018687 7.3037488 5.3848817e-18 14.875959 4.0932285e-17 13.233814)
(16.616982 7.4034955 8.6215411e-18 15.448862 2.5688155e-17 13.767743)
(17.063359 7.4013005 -5.2901874e-18 15.863855 -2.505395e-17 14.182955)
(17.386488 7.3194389 2.5835634e-19 16.138382 -6.2491715e-20 14.500719)
(17.572947 7.1886796 -1.1642236e-20 16.232271 -2.5909537e-21 14.71071)
(17.660289 7.0205063 -2.8311508e-19 16.173213 7.3130818e-20 14.844049)
(17.663658 6.8331452 -2.9581767e-19 15.983861 7.5024284e-20 14.912629)
(17.63405 6.5855459 3.0963697e-19 15.610456 -7.6064479e-20 14.974672)
(17.59462 6.346547 -6.5025069e-19 15.118508 1.5802208e-19 15.035747)
(17.533209 6.1138011 9.904851e-19 14.548083 -2.5323166e-19 15.079404)
(17.418507 5.884827 -3.3714465e-19 13.959958 6.5326881e-20 15.071322)
(17.188506 5.6523666 -4.4503272e-21 13.393821 8.5376921e-21 14.9504)
(16.814787 5.4093421 2.8519089e-21 12.866909 1.5904971e-20 14.688986)
(16.294531 5.150978 -3.461176e-19 12.367649 7.2055831e-20 14.286073)
(15.649936 4.8748869 2.1335871e-18 11.870207 1.0633507e-17 13.765091)
(14.905014 4.5803064 6.4247714e-18 11.34988 -3.7167353e-19 13.15063)
(14.076773 4.2674549 -4.1417295e-18 10.789255 -1.9317555e-17 12.459672)
(13.173849 3.9371016 -5.3708667e-18 10.177891 3.2817714e-19 11.700458)
(12.19985 3.5903448 2.257614e-18 9.5099564 8.2551191e-18 10.87588)
(11.155797 3.2285414 -2.7363701e-19 8.7815598 7.2090018e-20 9.9859323)
(10.041002 2.8532515 -5.0484142e-19 7.988554 1.4531532e-19 9.0286084)
(8.8528134 2.4661621 -2.12292e-19 7.1249438 5.2461058e-20 7.9996537)
(7.3239664e-08 5.4598534e-14 5.2771572e-24 7.3239106e-08 1.4732763e-23 7.3239266e-08)
(0.005991587 2.8985711e-06 -1.7530569e-22 0.0046385255 -8.5424135e-22 0.0050275638)
(0.16234795 0.022593178 4.5703393e-21 0.12498034 2.2558142e-20 0.13518519)
(0.68418089 0.11380908 -2.911356e-20 0.57399743 -1.541189e-19 0.59838037)
(2.0410643 0.46382335 -5.1238015e-20 1.7754222 -1.5177866e-19 1.7743711)
(4.3406143 1.3078124 6.3952155e-19 3.7672555 3.0157931e-18 3.6996195)
(6.7278401 2.4944107 -6.8819916e-19 5.9054369 -3.4592925e-18 5.6544424)
(8.7935722 3.6591057 -9.2321389e-25 7.8222059 2.2216753e-25 7.3273168)
(10.547191 4.6828845 5.0946466e-20 9.4926607 -1.2260243e-20 8.7414695)
(12.057583 5.5469128 -7.5269357e-20 10.968859 1.7428245e-20 9.9614388)
(13.345032 6.2506261 1.007223e-19 12.261267 -2.5167928e-20 11.007925)
(14.447607 6.7798331 -1.2193255e-19 13.367066 3.1351909e-20 11.917398)
(15.367785 7.1546375 3.246062e-18 14.2909 1.7154165e-17 12.691388)
(16.124877 7.377538 -7.7043213e-19 15.043661 -1.7174785e-17 13.345125)
(16.72792 7.4789401 -8.0867317e-18 15.623077 -2.5605386e-17 13.883948)