/*--------------------------------*- C++ -*----------------------------------*\
| =========                 |                                                 |
| \\      /  F ield         | OpenFOAM: The Open Source CFD Toolbox           |
|  \\    /   O peration     | Version:  2506                                  |
|   \\  /    A nd           | Website:  www.openfoam.com                      |
|    \\/     M anipulation  |                                                 |
\*---------------------------------------------------------------------------*/
FoamFile
{
    version     2.0;
    format      ascii;
    arch        "LSB;label=32;scalar=64";
    class       volScalarField;
    location    "0.0035";
    object      k;
}
// * * * * * * * * * * * * * * * * * * * * * * * * * * * * * * * * * * * * * //

dimensions      [0 2 -2 0 0 0 0];

internalField   nonuniform List<scalar> 
13761
(
30.093304
30.319505
30.480804
30.565839
30.561655
30.453829
30.226406
29.861345
29.33752
28.629192
27.704017
26.521012
25.028981
23.166327
20.8633
18.046351
14.640272
10.556413
5.4821198
1.2954844
0.21237484
0.094697178
0.082236573
0.081487457
0.029400537
0.012177783
0.065345855
0.26676082
0.78111255
1.8350073
3.631003
6.1677906
9.1489993
12.158996
14.903669
17.267192
19.248969
20.898796
22.278494
23.445233
24.446455
25.319295
26.091633
26.784117
27.411695
27.984475
28.508914
28.988716
29.425159
29.817481
30.162909
30.456619
30.691694
30.859074
30.947665
30.944543
30.83513
30.603176
30.230259
29.694825
28.970692
28.025058
26.816478
25.293305
23.393585
21.047533
18.182336
14.725015
10.591524
5.4697274
1.2736164
0.20903013
0.094203003
0.082134787
0.02998868
0.012495486
0.067242122
0.27451073
0.80356032
1.8862831
3.7268816
6.3166699
9.3464592
12.393125
15.162976
17.543738
19.537991
21.197591
22.585511
23.759521
24.767365
25.646342
26.424443
27.122404
27.755261
28.333209
28.862785
29.347755
29.78943
30.18703
30.537696
30.836419
31.075988
31.246949
31.337727
31.33486
31.223198
30.985932
30.604114
30.055707
29.314096
28.346076
27.109827
25.553372
23.614561
21.223812
18.309377
14.800896
10.619284
5.4531976
1.2504306
0.20561834
0.03057228
0.012814077
0.069151356
0.28231549
0.82615051
1.9378154
3.8230226
6.4655419
9.5433996
12.626252
15.421026
17.818996
19.825854
21.49547
22.891924
24.073559
25.088414
25.973942
26.758237
27.462132
28.100762
28.684419
29.219733
29.71054
30.158178
30.56183
30.918509
31.222969
31.467644
31.642613
31.735746
31.732975
31.61854
31.375055
30.98305
30.420042
29.659036
28.666522
27.400429
25.808579
23.828722
21.391796
18.427503
14.868509
10.640778
5.4341659
0.031127833
0.013129161
0.071062965
0.29012769
0.84874697
1.9893241
3.9189696
6.6137998
9.7392
12.857862
15.677473
18.092793
20.112545
21.792506
23.197819
24.387377
25.409508
26.301829
27.09256
27.80265
28.447364
29.037122
29.578667
30.075922
30.530245
30.940756
31.304289
31.61529
31.865753
32.045204
32.140878
32.138044
32.020294
31.769658
31.366163
30.786897
30.00452
28.985401
27.687465
26.0585
24.035569
21.551097
18.536691
0.031669586
0.01344184
0.072969426
0.29792003
0.87128784
2.040646
4.0144132
6.7609513
9.9331931
13.087154
15.931328
18.363869
20.396437
22.086659
23.500709
24.698042
25.727298
26.626297
27.423419
28.139779
28.790808
29.387089
29.935499
30.440044
30.902079
31.320594
31.692147
32.010749
32.267862
32.452379
32.55084
32.547811
32.426246
32.167636
31.751556
31.154581
30.34836
29.300103
27.968525
0.032238365
0.013761417
0.0748996
0.30580301
0.89406613
2.0924317
4.1104272
6.9084048
10.126809
13.31524
16.183185
18.632269
20.677078
22.377079
23.799485
25.004313
26.04054
26.946217
27.749919
28.472952
29.13095
29.734684
30.291186
30.804541
31.276056
31.704465
32.085746
32.41284
32.67701
32.866614
32.967494
32.963511
32.837061
32.569384
32.140319
0.032814649
0.014084813
0.076853513
0.31378568
0.9171312
2.1448175
4.2073677
7.0569074
10.321351
13.544047
16.435637
18.901219
20.958281
22.668114
24.098986
25.311503
26.355002
27.267801
28.078705
28.809253
29.475319
30.087923
30.654346
31.178924
31.663232
32.106345
0.099651282
0.049543885
0.28708473
1.168381
3.3421409
7.4024069
13.20596
19.683792
25.720005
30.795162
34.870062
38.094596
40.648333
42.687474
44.333039
45.673843
46.77329
47.675553
48.41056
48.998319
49.451598
49.77754
49.979404
50.057702
50.010962
49.836497
49.530889
49.090538
48.512054
47.792662
46.930524
45.924809
44.775536
43.482813
42.045459
40.459478
38.715931
36.798571
34.681735
32.328802
29.692099
26.715512
23.341028
19.517572
15.205725
10.365857
4.5688009
0.69802418
0.12993888
0.1001985
0.049799342
0.28852979
1.1742429
3.3585759
7.4367386
13.26118
19.756213
25.803314
30.883845
34.960018
38.182816
40.732606
42.766202
44.405123
45.738587
46.830324
47.724759
48.45201
49.032222
49.478251
49.797299
49.992657
50.064852
50.012421
49.832678
49.522204
49.077399
48.494873
47.771856
46.906513
45.898022
44.74641
43.451797
42.013005
40.426047
38.681977
36.76454
34.648069
32.295932
29.660422
26.685445
23.312987
19.491995
15.18308
10.346738
4.5558615
0.69522862
0.12967578
0.078769408
0.07541987
0.075078304
0.07489711
0.074836681
0.074784221
0.074679637
0.074803817
0.075129483
0.074997516
0.07538298
0.076604009
0.076167934
0.075089432
0.076185683
0.077575241
0.076102245
0.073262626
0.071924111
0.072870723
0.074798548
0.075451751
0.075100561
0.075432721
0.07630326
0.076638883
0.076202313
0.075631983
0.075117831
0.075029756
0.075830866
0.075731766
0.074354609
0.073411517
0.073974876
0.073973105
0.071926698
0.070860369
0.072937049
0.074708919
0.074110194
0.10073439
0.050061454
0.29004019
1.1803751
3.3757735
7.4726807
13.319047
19.832243
25.891057
30.977688
35.055786
38.277418
40.823718
42.852101
44.484566
45.810737
46.894677
47.781082
48.500286
49.072591
49.510967
49.822693
50.011115
50.076791
50.018276
49.832896
49.517232
49.067686
48.480866
47.753998
46.885249
45.873799
44.719678
43.423011
41.982624
40.394528
38.64978
36.732108
34.615839
32.264327
29.629833
26.656268
23.285617
19.466846
15.160591
10.327424
4.5418237
0.69173617
0.12933708
0.078736421
0.075411699
0.075071689
0.074891257
0.074831378
0.074779384
0.074674616
0.074798046
0.07512308
0.074990828
0.075375084
0.076594925
0.076159992
0.075081902
0.076174978
0.077562184
0.076095159
0.073262144
0.071926622
0.072871716
0.074794509
0.075444695
0.075095225
0.07542832
0.076296765
0.076630497
0.076194505
0.075626953
0.075114088
0.075025874
0.075825654
0.075728178
0.074355466
0.073414694
0.073975704
0.07397377
0.071933665
0.070870829
0.072940461
0.07470703
0.074109989
0.07394411
0.075303282
0.076702034
0.07714689
0.077252003
0.077796432
0.078103879
0.078571555
0.078788991
0.10127382
0.050331708
0.29161181
1.1867522
3.3936336
7.5099457
13.378922
19.910765
25.981558
31.074443
35.154585
38.375158
40.918062
42.941289
44.567309
45.88614
46.96218
47.8404
48.551355
49.115522
49.545995
49.850144
50.03138
50.090303
50.025495
49.834298
49.513301
49.058909
48.467726
47.736974
46.864813
45.850418
44.693815
43.395123
41.953163
40.363942
38.618507
36.700574
34.584453
32.233479
29.599901
26.627615
23.258609
19.441868
15.138051
10.307759
4.5266354
0.68759101
0.12894273
0.078699462
0.07540421
0.075065855
0.074886189
0.074826861
0.074775327
0.074670388
0.074793092
0.075117501
0.074984945
0.075368087
0.076586753
0.076152799
0.075075187
0.076165258
0.077550056
0.076088721
0.073262259
0.071929824
0.072873606
0.074791323
0.075438497
0.075090738
0.075424763
0.076291144
0.076622959
0.076187508
0.075622766
0.075111088
0.075022833
0.075821275
0.07572531
0.074357031
0.073418555
0.073977303
0.073975088
0.071941211
0.070881972
0.072944673
0.074705954
0.074110494
0.073944561
0.075297947
0.076691835
0.077135271
0.077239613
0.077782243
0.078087941
0.078553927
0.078770842
0.078608908
0.079081959
0.079061231
0.078571546
0.078945279
0.10180792
0.050606506
0.29322508
1.1932991
3.411962
7.548173
13.440322
19.991293
26.074443
31.173906
35.256382
38.476156
41.015877
43.034093
44.653733
45.965207
47.033251
47.90312
48.605607
49.161375
49.58366
49.87994
50.053701
50.105597
50.034248
49.837018
49.510508
49.051127
48.455476
47.72077
46.845161
45.827809
44.668728
43.368024
41.924506
40.334167
38.588035
36.669813
34.553786
32.203257
29.57049
26.59934
23.231809
19.416905
15.115297
10.287572
4.5101614
0.68276561
0.12849544
0.078660316
0.075397094
0.075060418
0.074881525
0.074822755
0.074771674
0.074666572
0.074788587
0.075112389
0.07497949
0.075361638
0.076579182
0.076145966
0.075068865
0.076156194
0.077538523
0.076082513
0.07326247
0.071933338
0.072876044
0.074788681
0.075432812
0.075086689
0.075421695
0.076286044
0.07661587
0.076180965
0.075619011
0.075108454
0.075020263
0.07581734
0.075722789
0.074358896
0.073422732
0.073979305
0.073976722
0.071948972
0.070893449
0.072949348
0.074705361
0.07411134
0.073945813
0.0752935
0.076682524
0.077124559
0.077228085
0.077768972
0.078072933
0.078537145
0.078753668
0.0785913
0.07906231
0.079042306
0.078554831
0.078926951
0.079210479
0.078353475
0.078082239
0.10234402
0.05088882
0.2948955
1.2000776
3.430925
7.5876829
13.503718
20.074383
26.170291
31.276643
35.361732
38.580969
41.117738
43.131121
44.744489
46.048636
47.10863
47.970019
48.663844
49.210968
49.624786
49.912895
50.078874
50.123441
50.045262
49.841732
49.509469
49.044889
48.444592
47.705787
46.826613
45.806215
44.644588
43.341817
41.896691
40.305179
38.558288
36.6397
34.523654
32.173471
29.541368
26.571183
23.204928
19.391636
15.091981
10.266489
4.4920079
0.67713192
0.12798733
0.078618811
0.075390099
0.075055138
0.074877032
0.074818833
0.074768208
0.074662942
0.074784324
0.075107549
0.074974249
0.075355556
0.076572057
0.076139253
0.075062679
0.076147631
0.077527417
0.076076248
0.073262444
0.071936934
0.072878852
0.074786461
0.075427426
0.075082854
0.075418917
0.076281259
0.076609011
0.076174663
0.075615423
0.07510598
0.075017946
0.075813631
0.075720407
0.074360805
0.073427009
0.07398149
0.073978495
0.071956739
0.070905056
0.072954287
0.074705061
0.07411232
0.073947498
0.075289571
0.076673732
0.077114352
0.077217019
0.077756238
0.078058435
0.078520865
0.078737051
0.07857451
0.079043494
0.079024366
0.078538807
0.078909284
0.079191404
0.078339061
0.078068482
0.079020581
0.079557685
0.078733683
0.10288572
0.051180817
0.29663668
1.2071429
3.4506815
7.6288076
13.569638
20.160721
26.269879
31.383477
35.471494
38.690481
41.224553
43.233313
44.840552
46.137434
47.189359
48.042168
48.727155
49.265401
49.670468
49.950089
50.107947
50.144838
50.059481
49.84931
49.510968
49.040883
48.435661
47.692506
46.809545
45.785906
44.62156
43.316571
41.869696
40.276884
38.529095
36.609988
34.49379
32.143761
29.512088
26.542601
23.177323
19.365318
15.067268
10.243583
4.4711628
0.67032275
0.12739449
0.078573769
0.075383103
0.075049932
0.07487263
0.074815026
0.07476486
0.07465943
0.07478026
0.075102938
0.074969167
0.075349832
0.076565369
0.076132541
0.075056515
0.076139574
0.077516703
0.076069741
0.073261989
0.071940509
0.07288202
0.07478469
0.075422272
0.075079147
0.075416387
0.076276725
0.076602326
0.076168504
0.075611894
0.075103575
0.075015808
0.075810083
0.075718098
0.074362653
0.073431301
0.073983785
0.073980347
0.071964429
0.070916716
0.07295943
0.074704983
0.07411337
0.073949386
0.075285961
0.07666526
0.07710442
0.077206229
0.077743816
0.078044235
0.078504927
0.078720728
0.07855813
0.079025201
0.079006932
0.078523056
0.078891986
0.079173148
0.078325443
0.0780554
0.079003453
0.079538887
0.078719869
0.077355093
0.076307864
0.075851952
0.10346297
0.051488714
0.29846575
1.2145587
3.4713918
7.6718239
13.638382
20.250464
26.37311
31.494007
35.584936
38.803642
41.334974
43.339046
44.940054
46.229523
47.273176
48.117148
48.792996
49.322024
49.717975
49.988732
50.138093
50.166939
50.074058
49.856925
49.512216
49.036378
48.426022
47.678352
46.791482
45.764522
44.597419
43.290205
41.841602
40.247506
38.498868
36.579279
34.462912
32.11299
29.481667
26.51276
23.148304
19.337394
15.040715
10.218516
4.4473773
0.66236604
0.12671823
0.078524183
0.075375905
0.075044737
0.074868282
0.074811302
0.074761593
0.074655993
0.074776371
0.07509852
0.074964193
0.075344476
0.076559138
0.07612576
0.075050329
0.07613212
0.077506424
0.076062906
0.073260968
0.071943993
0.072885589
0.074783394
0.075417409
0.075075534
0.075414092
0.076272458
0.076595827
0.07616243
0.075608432
0.075101217
0.075013829
0.075806729
0.075715861
0.074364447
0.073435583
0.073986208
0.073982258
0.071972022
0.070928401
0.072964789
0.074705107
0.074114491
0.073951389
0.075282621
0.076657047
0.077094697
0.07719568
0.077731616
0.078030296
0.078489276
0.078704617
0.078541991
0.079007257
0.078989712
0.078507422
0.078874982
0.079155387
0.078312109
0.078042471
0.078986797
0.079520867
0.078707019
0.077347106
0.07630372
0.075849438
0.075781372
0.075708987
0.10402572
0.051796219
0.30030803
1.2220299
3.4922549
7.7151671
13.707696
20.341082
26.477574
31.606168
35.700412
38.919218
41.44814
43.447774
45.042703
46.324798
47.360108
48.195066
48.861505
49.380971
49.76741
50.02887
50.169287
50.189649
50.088826
49.864355
49.512954
49.031092
48.415392
47.663055
46.772188
45.741881
44.572055
43.262706
41.81251
40.217321
38.468002
36.548122
34.431793
32.082192
29.451435
26.483322
23.119892
19.310265
15.015107
10.194567
4.4247392
0.65512943
0.12609549
0.078476144
0.075368808
0.075039689
0.074864057
0.074807698
0.07475848
0.074652641
0.074772545
0.075094307
0.07495928
0.075339068
0.076553252
0.076119318
0.07504409
0.076124743
0.077496689
0.076056533
0.073260151
0.071947437
0.072889147
0.074782317
0.07541279
0.075072072
0.075411898
0.076268362
0.076589554
0.07615654
0.07560513
0.075098992
0.075011958
0.075803571
0.075713791
0.074366324
0.073439898
0.073988753
0.073984349
0.07197965
0.070940076
0.072970278
0.074705399
0.074115736
0.073953467
0.075279495
0.076649061
0.077085181
0.077185378
0.077719621
0.078016632
0.078473907
0.078688729
0.07852607
0.078989595
0.078972634
0.078491945
0.078858255
0.079137878
0.078298734
0.078029503
0.078970289
0.079503304
0.078694668
0.077339931
0.076300381
0.075847742
0.075778544
0.075706437
0.075615563
0.075651456
0.10451106
0.05208555
0.30208853
1.229261
3.5124712
7.7572716
13.775319
20.430009
26.580819
31.717917
35.81648
39.036478
41.564084
43.56031
45.150076
46.425567
47.453136
48.279509
48.936798
49.446799
49.823677
50.075668
50.206864
50.218382
50.109196
49.876925
49.518353
49.029996
48.408506
47.651093
46.755861
45.721885
44.549067
43.237369
41.785429
40.189044
38.43903
36.518875
34.402621
32.053412
29.423327
26.45613
23.093851
19.285613
14.992049
10.173269
4.4057414
0.64981665
0.12561264
0.078434637
0.075362328
0.075035042
0.07486017
0.074804384
0.074755668
0.074649558
0.07476892
0.075090319
0.074954618
0.075333717
0.076547441
0.076113299
0.075038167
0.076117362
0.077487153
0.076050792
0.073260042
0.071951139
0.072892687
0.074781221
0.075408358
0.075068839
0.075409801
0.076264392
0.076583482
0.076150883
0.075602042
0.075096987
0.075010226
0.075800591
0.075711881
0.074368381
0.073444337
0.073991419
0.073986614
0.071987406
0.070951819
0.072975879
0.074705797
0.074117157
0.073955663
0.075276578
0.076641305
0.077075894
0.077175343
0.077707864
0.078003278
0.078458836
0.078673117
0.078510417
0.078972187
0.078955742
0.078476712
0.078841784
0.079120468
0.078285238
0.078016513
0.078953846
0.079486028
0.078682495
0.077333149
0.076297383
0.075846324
0.075776433
0.075704576
0.075613316
0.075649537
0.075776531
0.10496103
0.052362269
0.30380681
1.236242
3.5319903
7.7979472
13.840724
20.516206
26.681228
31.827084
35.93051
39.15246
41.679655
43.673458
45.259067
46.52893
47.549665
48.368264
49.017097
49.518202
49.885956
50.128784
50.250941
50.253675
50.136072
49.895848
49.529856
49.034679
48.407016
47.644112
46.744089
45.706026
44.529811
43.215388
41.76136
40.163485
38.412526
36.491904
34.375615
32.02672
29.397229
26.430908
23.069752
19.262872
14.970863
10.15383
4.3897745
0.64604655
0.12524173
0.078398958
0.075356521
0.075030872
0.074856721
0.07480145
0.074753225
0.074646866
0.074765643
0.075086581
0.074950351
0.075328707
0.076541633
0.076107582
0.075032831
0.076110197
0.077477598
0.076045428
0.073260611
0.071955276
0.072896376
0.074780134
0.075404083
0.075065879
0.075407892
0.076260548
0.076577594
0.076145431
0.075599181
0.075095219
0.075008688
0.075797786
0.075710099
0.074370633
0.073448944
0.073994226
0.073988993
0.071995323
0.070963689
0.072981605
0.074706288
0.074118771
0.073958046
0.075273891
0.07663381
0.077066855
0.0771656
0.077696389
0.077990249
0.078444096
0.078657831
0.078495068
0.078955063
0.078939123
0.078461783
0.078825542
0.07910312
0.078271671
0.078003573
0.078937506
0.079468935
0.078670398
0.077326473
0.076294474
0.075845026
0.075774595
0.07570297
0.075611903
0.075648481
0.075774568
0.075832329
0.075787163
0.10540657
0.052633166
0.30548372
1.243052
3.5510193
7.8375646
13.904359
20.600001
26.778826
31.93328
36.041632
39.265794
41.792997
43.784914
45.366984
46.63188
47.646455
48.457939
49.098942
49.59173
49.950883
50.185007
50.298511
50.292776
50.166995
49.918972
49.545636
49.043629
48.409702
47.641145
46.736111
45.6937
44.513807
43.196365
41.73996
40.140319
38.388163
36.466857
34.350338
32.001611
29.372619
26.407079
23.046975
19.241396
14.950903
10.135587
4.3756216
0.64302697
0.12492657
0.078366692
0.075351195
0.075027098
0.074853658
0.074798862
0.074751117
0.074644538
0.074762708
0.075083094
0.074946454
0.075324068
0.076535897
0.076102129
0.075028045
0.076103332
0.077468078
0.076040326
0.073261716
0.071959807
0.07290027
0.074779128
0.075399979
0.075063187
0.075406186
0.076256847
0.076571894
0.07614019
0.075596534
0.075093664
0.07500736
0.075795148
0.075708441
0.074373054
0.073453714
0.073997173
0.073991482
0.072003386
0.070975683
0.072987457
0.074706886
0.074120566
0.073960652
0.075271439
0.0766266
0.077058078
0.077156163
0.077685222
0.077977546
0.078429716
0.078642904
0.078480039
0.078938283
0.078922858
0.078447157
0.078809516
0.07908586
0.078258137
0.077990778
0.078921319
0.079451988
0.078658366
0.07731981
0.076291591
0.07584377
0.075772853
0.075701426
0.075610815
0.075647714
0.075773333
0.075830161
0.075785018
0.07571181
0.10585066
0.052900662
0.30713491
1.2497555
3.5697443
7.876509
13.966831
20.682165
26.874445
32.037301
36.150529
39.376982
41.904387
43.894699
45.47357
46.733878
47.742688
48.547453
49.181012
49.665853
50.016754
50.242502
50.347661
50.333737
50.200031
49.944429
49.563929
49.055228
48.415123
47.640942
46.730871
45.684036
44.500347
43.17974
41.72079
40.119202
38.365665
36.443499
34.326588
31.97788
29.349259
26.384407
23.025268
19.220917
14.931881
10.118214
4.3623599
0.64018313
0.12462624
0.07833599
0.075346189
0.075023616
0.074850886
0.074796546
0.074749269
0.074642494
0.074760052
0.07507982
0.074942843
0.075319746
0.076530282
0.076096885
0.075023681
0.076096776
0.077458655
0.07603541
0.073263183
0.07196462
0.072904366
0.074778253
0.075396051
0.07506073
0.075404665
0.076253297
0.076566371
0.076135161
0.075594067
0.075092289
0.075006235
0.075792659
0.075706895
0.074375601
0.073458617
0.074000248
0.073994071
0.072011551
0.070987784
0.072993431
0.074707597
0.07412251
0.07396348
0.075269223
0.076619671
0.077049568
0.077147018
0.077674371
0.077965173
0.078415697
0.078628346
0.078465336
0.07892189
0.078906975
0.07843281
0.078793718
0.079068742
0.078244764
0.077978185
0.078905321
0.079435201
0.078646388
0.077313163
0.076288755
0.075842556
0.07577118
0.075699924
0.075609826
0.07564706
0.075772349
0.075828572
0.075783436
0.075709565
0.075669306
0.10629698
0.053167024
0.30877402
1.2564071
3.5883148
7.915094
14.028641
20.76335
26.968823
32.139911
36.257947
39.486718
42.014436
44.00332
45.579213
46.835173
47.838463
48.636748
49.263088
49.740186
50.083026
50.300574
50.397553
50.3756
50.234124
49.971095
49.583576
49.068316
48.42215
47.642438
46.727394
45.676165
44.488677
43.16487
41.703314
40.099695
38.344677
36.421542
34.304123
31.955311
29.326964
26.362703
23.00444
19.201233
14.913578
10.101476
4.3494243
0.63722197
0.12431887
0.078305754
0.075341397
0.075020337
0.074848321
0.074794429
0.074747603
0.074640655
0.074757603
0.075076714
0.074939434
0.075315679
0.076524819
0.07609179
0.075019614
0.076090498
0.077449369
0.076030607
0.073264832
0.071969614
0.072908637
0.074777527
0.075392283
0.07505846
0.075403304
0.076249891
0.076561006
0.076130317
0.075591732
0.075091055
0.07500528
0.075790301
0.075705442
0.074378227
0.073463607
0.074003429
0.073996733
0.072019759
0.070999968
0.07299951
0.074708414
0.074124567
0.073966522
0.075267214
0.076613004
0.077041315
0.077138136
0.077663824
0.077953119
0.078402027
0.07861414
0.078450958
0.078905899
0.078891454
0.078418719
0.078778179
0.079051835
0.078231642
0.077965814
0.078889522
0.079418565
0.078634484
0.077306558
0.076286001
0.075841427
0.07576959
0.075698493
0.07560892
0.075646473
0.075771456
0.075827206
0.075782083
0.075707954
0.075667012
0.075653355
0.075648799
0.10674817
0.053433918
0.31041207
1.2630518
3.6068527
7.9535723
14.090198
20.844087
27.06257
32.241757
36.364537
39.595637
42.123744
44.111329
45.684405
46.936198
47.934145
48.726113
49.345372
49.814844
50.149714
50.359134
50.447993
50.418066
50.268873
49.998475
49.604002
49.082254
48.430103
47.644935
46.724987
45.66942
44.478172
43.151188
41.687026
40.081359
38.324821
36.400658
34.28266
31.933667
29.305518
26.341758
22.98428
19.182131
14.895775
10.08514
4.3364526
0.63401056
0.1239942
0.078275363
0.075336741
0.07501719
0.074845894
0.074792447
0.074746054
0.074638948
0.074755301
0.07507374
0.074936158
0.075311813
0.076519528
0.076086793
0.075015731
0.076084475
0.077440233
0.07602585
0.073266498
0.071974703
0.072913056
0.074776949
0.075388652
0.075056329
0.075402075
0.07624661
0.076555776
0.076125599
0.075589495
0.075089932
0.075004455
0.075788048
0.075704048
0.074380905
0.073468625
0.074006697
0.073999425
0.072027956
0.071012207
0.073005674
0.074709337
0.074126702
0.07396975
0.075265383
0.076606577
0.077033296
0.077129485
0.077653555
0.077941358
0.078388678
0.07860026
0.078436896
0.078890291
0.078876254
0.078404871
0.078762942
0.079035197
0.078218816
0.077953658
0.078873914
0.07940207
0.078622662
0.07730002
0.076283354
0.075840412
0.075768117
0.075697173
0.075608113
0.075645994
0.075770629
0.07582592
0.075780806
0.075706592
0.075665402
0.075651025
0.07564646
0.075647696
0.10720704
0.053702845
0.31205851
1.2697302
3.6254756
7.9921894
14.151893
20.924881
27.156264
32.343446
36.470905
39.704322
42.232861
44.219237
45.789622
47.037385
48.030128
48.8159
49.428176
49.890089
50.217027
50.418333
50.499067
50.461148
50.304217
50.02643
49.62499
49.096753
48.438627
47.648026
46.723204
45.663335
44.468362
43.138228
41.671482
40.063775
38.305711
36.380492
34.261876
31.912677
29.284651
26.321315
22.964539
19.163361
14.878216
10.068942
4.3231501
0.63047931
0.12364558
0.07824437
0.07533216
0.07501412
0.074843549
0.074790549
0.074744568
0.074637317
0.074753098
0.075070869
0.074932963
0.075308111
0.076514429
0.076081846
0.075011944
0.076078687
0.077431269
0.076021063
0.073268055
0.071979805
0.072917617
0.07477652
0.075385134
0.075054293
0.075400961
0.076243431
0.076550643
0.076120971
0.075587328
0.075088866
0.075003723
0.075785874
0.075702691
0.074383597
0.07347362
0.074010029
0.074002115
0.072036092
0.071024468
0.073011916
0.074710361
0.074128885
0.073973104
0.075263726
0.076600363
0.077025482
0.077121033
0.077643529
0.077929861
0.078375621
0.078586665
0.078423129
0.078875034
0.078861339
0.07839127
0.078748038
0.07901886
0.078206295
0.07794169
0.078858476
0.0793857
0.078610912
0.077293553
0.076280823
0.075839525
0.075766781
0.075695992
0.075607452
0.075645645
0.075769897
0.075824696
0.075779587
0.075705317
0.075664052
0.075649398
0.075644831
0.075645341
0.075647452
0.10767759
0.053976034
0.3137258
1.2764903
3.6443172
8.0312201
14.21415
21.006286
27.250529
32.445627
36.577692
39.813392
42.342373
44.327591
45.895367
47.139201
48.126839
48.906501
49.511859
49.966247
50.285256
50.478422
50.550981
50.505002
50.340256
50.055
49.646518
49.111723
48.447568
47.651494
46.721774
45.657592
44.458893
43.125614
41.656291
40.046547
38.286942
36.360674
34.241444
31.891991
29.264033
26.301051
22.944896
19.144598
14.860568
10.052539
4.3091805
0.62654125
0.1232659
0.078212313
0.075327595
0.075011085
0.074841246
0.074788692
0.074743103
0.074635719
0.074750964
0.075068085
0.074929813
0.075304559
0.07650954
0.076076904
0.075008183
0.076073138
0.077422488
0.076016182
0.073269369
0.071984877
0.072922313
0.074776248
0.075381712
0.07505232
0.075399932
0.076240362
0.076545589
0.076116392
0.075585194
0.07508782
0.075003043
0.075783774
0.075701349
0.074386247
0.073478566
0.074013397
0.074004779
0.072044131
0.071036728
0.073018237
0.07471148
0.074131089
0.073976547
0.075262235
0.076594333
0.077017846
0.077112754
0.077633711
0.077918595
0.078362821
0.078573321
0.078409636
0.078860093
0.078846684
0.078377925
0.078733483
0.079002831
0.078194054
0.077929902
0.078843182
0.079369431
0.078599223
0.077287142
0.076278403
0.075838755
0.075765584
0.075694956
0.075606956
0.07564546
0.075769294
0.075823566
0.075778455
0.075704109
0.075662795
0.075648033
0.075643465
0.075643698
0.07564508
0.075647377
0.10816512
0.054255859
0.31542802
1.2833909
3.6635403
8.0709961
14.277494
21.088955
27.346078
32.549033
36.685621
39.923529
42.452909
44.436962
46.002152
47.242098
48.22468
48.998274
49.596734
50.043593
50.35464
50.539605
50.603899
50.549753
50.377069
50.084215
49.66856
49.127084
48.456786
47.655141
46.72044
45.65188
44.449406
43.112946
41.64101
40.029208
38.268093
36.340778
34.220905
31.871165
29.243226
26.280534
22.92492
19.125415
14.842404
10.03549
4.2940922
0.62206957
0.1228456
0.078178569
0.075322973
0.075008043
0.074838949
0.074786844
0.074741631
0.074634128
0.074748885
0.075065378
0.07492669
0.075301165
0.076504879
0.076071916
0.075004403
0.076067843
0.077413902
0.076011112
0.073270352
0.071989867
0.072927159
0.074776172
0.075378377
0.075050385
0.075398992
0.076237397
0.076540597
0.076111833
0.075583056
0.07508677
0.075002393
0.075781748
0.075699992
0.074388826
0.073483441
0.0740168
0.074007406
0.072052053
0.071048952
0.073024634
0.074712693
0.074133297
0.073980044
0.0752609
0.076588466
0.077010364
0.077104623
0.077624075
0.077907533
0.078350245
0.078560201
0.078396398
0.078845444
0.078832281
0.078364856
0.078719278
0.078987103
0.078182058
0.077918292
0.078828013
0.079353249
0.078587571
0.07728076
0.076276073
0.075838081
0.075764516
0.075694053
0.075606638
0.075645435
0.075768843
0.075822566
0.075777446
0.075703
0.075661614
0.075646766
0.075642197
0.075642316
0.075643422
0.075644988
0.075647326
0.10867572
0.054546024
0.31718761
1.2905228
3.6833984
8.1120389
14.342743
21.173933
27.444092
32.654902
36.795936
40.035955
42.565647
44.548472
46.111035
47.34707
48.324576
49.092077
49.683598
50.122863
50.425854
50.602492
50.658371
50.595881
50.415064
50.114404
49.691361
49.142988
48.466334
47.658915
46.719046
45.645934
44.439518
43.099745
41.625136
40.011252
38.248573
36.320154
34.199583
31.849487
29.221482
26.258973
22.903777
19.104929
14.822794
10.016804
4.2768631
0.61674899
0.12236373
0.078142131
0.075318241
0.07500497
0.074836641
0.074784994
0.074740142
0.074632538
0.074746874
0.075062758
0.074923595
0.07529797
0.076500479
0.076066831
0.075000548
0.076062856
0.077405533
0.07600575
0.07327088
0.071994736
0.0729322
0.074776344
0.075375134
0.075048465
0.075398143
0.076234544
0.076535654
0.076107277
0.075580888
0.0750857
0.075001766
0.075779797
0.0756986
0.074391312
0.073488231
0.074020235
0.074009991
0.07205983
0.071061117
0.07303111
0.074714
0.074135497
0.073983565
0.075259713
0.076582745
0.077003016
0.077096622
0.077614591
0.077896656
0.078337869
0.078547282
0.078383404
0.078831077
0.07881812
0.078352076
0.078705418
0.078971658
0.07817028
0.077906857
0.07881297
0.07933715
0.078575924
0.077274384
0.076273805
0.075837481
0.075763551
0.075693266
0.075606473
0.075645568
0.075768544
0.075821714
0.075776581
0.075702026
0.075660543
0.075645588
0.07564102
0.075641036
0.075642024
0.075643314
0.075644918
0.075647276
0.10923869
0.054852966
0.31902339
1.2979543
3.7040649
8.1546449
14.410222
21.26144
27.544572
32.762953
36.908047
40.149759
42.679355
44.660576
46.220178
47.452007
48.424177
49.18535
49.769714
50.201175
50.495903
50.66401
50.711271
50.640238
50.451098
50.142453
49.711861
49.156449
48.473325
47.660042
46.714942
45.637234
44.426916
43.083919
41.606719
39.990836
38.226694
36.297287
34.176134
31.825797
29.197832
26.235601
22.880904
19.082781
14.801568
9.9964826
4.2575778
0.61068698
0.12182613
0.078102367
0.075313217
0.075001798
0.074834273
0.074783098
0.074738598
0.074630899
0.074744884
0.075060175
0.074920459
0.075294933
0.07649634
0.07606162
0.074996559
0.076058202
0.077397452
0.076000092
0.073270898
0.071999404
0.072937402
0.074776776
0.075371998
0.075046538
0.075397366
0.076231795
0.076530759
0.076102719
0.075578693
0.075084604
0.075001148
0.075777919
0.075697189
0.074393705
0.073492933
0.0740237
0.074012551
0.072067454
0.071073199
0.073037657
0.074715379
0.074137683
0.073987086
0.075258656
0.076577159
0.076995774
0.077088747
0.07760523
0.07788595
0.078325673
0.078534548
0.078370654
0.078816988
0.078804192
0.078339594
0.078691886
0.078956488
0.078158702
0.077895611
0.078798054
0.079321136
0.078564258
0.07726799
0.076271578
0.075836933
0.075762657
0.07569258
0.07560644
0.075645833
0.075768384
0.075821008
0.075775859
0.075701205
0.075659617
0.075644533
0.075639968
0.075639852
0.07564073
0.075641897
0.075643227
0.075644848
0.075647223
0.10978428
0.055156195
0.3208485
1.3053462
3.7246332
8.1970919
14.47756
21.348962
27.645332
32.87158
37.020999
40.264616
42.794269
44.773984
46.330674
47.558299
48.525089
49.279843
49.856912
50.280385
50.566627
50.725945
50.764305
50.684433
50.486671
50.169755
49.731355
49.168685
48.478924
47.659672
46.709305
45.627057
44.412871
43.06668
41.586954
39.969175
38.203715
36.273506
34.151995
31.80168
29.174057
26.212443
22.858614
19.061597
14.781671
9.9779035
4.2402852
0.60554029
0.1213551
0.078065052
0.075308245
0.074998659
0.074831902
0.074781189
0.074737078
0.074629216
0.074742788
0.075057637
0.074917233
0.075291583
0.076492322
0.076056715
0.07499237
0.076053297
0.077389729
0.075995015
0.073271182
0.072003901
0.072942311
0.074777134
0.075368946