/*--------------------------------*- C++ -*----------------------------------*\
| =========                 |                                                 |
| \\      /  F ield         | OpenFOAM: The Open Source CFD Toolbox           |
|  \\    /   O peration     | Version:  2506                                  |
|   \\  /    A nd           | Website:  www.openfoam.com                      |
|    \\/     M anipulation  |                                                 |
\*---------------------------------------------------------------------------*/
FoamFile
{
    version     2.0;
    format      ascii;
    arch        "LSB;label=32;scalar=64";
    class       volScalarField;
    location    "0.05";
    object      rho;
}
// * * * * * * * * * * * * * * * * * * * * * * * * * * * * * * * * * * * * * //

dimensions      [1 -3 0 0 0 0 0];

internalField   nonuniform List<scalar> 
30604
(
0.68514746
0.68529015
0.68541411
0.68532213
0.68533966
0.68535217
0.68533717
0.68520727
0.68512638
0.68501779
0.68497047
0.68495642
0.68494428
0.68493339
0.68492943
0.68489923
0.68485672
0.68480995
0.6847619
0.68470796
0.684624
0.68453397
0.68443597
0.68432532
0.68420379
0.6840614
0.68390906
0.6837477
0.68358676
0.68344356
0.68330924
0.68318822
0.68306721
0.68292619
0.68275411
0.68256552
0.68237037
0.6821657
0.68196923
0.68177091
0.68156101
0.68134514
0.68111965
0.6808732
0.68060157
0.68032006
0.68002218
0.67972242
0.67941408
0.67913936
0.67888457
0.6785839
0.67825769
0.67775499
0.67720377
0.67654703
0.67577823
0.67501765
0.67433602
0.67370935
0.67302107
0.67236383
0.67162466
0.67087735
0.67016864
0.66937761
0.6687443
0.66834376
0.66780613
0.66674885
0.66579179
0.66368719
0.65988445
0.65730634
0.65566523
0.65442122
0.65420645
0.65577578
0.65494535
0.65314484
0.65047455
0.6444037
0.64006056
0.6372964
0.63461283
0.63242424
0.63114713
0.62882839
0.62549342
0.62226002
0.61783517
0.61188246
0.60784328
0.59359517
0.30038696
1.0028622
0.49854738
0.78051467
0.63749071
0.69057009
0.681011
0.68080666
0.68090396
0.6804394
0.67977184
0.67927008
0.6788786
0.67859786
0.67832949
0.67803721
0.6778908
0.67799889
0.6782936
0.67870752
0.67916774
0.67965207
0.6801288
0.68057994
0.68101385
0.68145257
0.68192081
0.68243053
0.68299628
0.68361569
0.6842836
0.68498152
0.68567701
0.68633645
0.68690603
0.68730216
0.68744262
0.6873145
0.68696629
0.68649118
0.6859671
0.68542518
0.6848832
0.68440558
0.68402166
0.68374451
0.68358352
0.68350715
0.68349318
0.68352958
0.6835887
0.68366209
0.68372419
0.68376196
0.68376422
0.6837453
0.68371313
0.68366801
0.68361996
0.68357838
0.68354037
0.6834985
0.68345867
0.68341536
0.68336672
0.68332323
0.68329184
0.68327259
0.68325953
0.6832612
0.68328294
0.68331664
0.68335835
0.68341672
0.68349997
0.68360102
0.68370921
0.68382272
0.68393391
0.68402162
0.68406174
0.68405405
0.68403718
0.68402237
0.68398756
0.68393494
0.68389557
0.68387426
0.68384453
0.68382218
0.68381196
0.68381675
0.68383706
0.68386057
0.68388458
0.68391912
0.68396694
0.68403144
0.68409364
0.68413863
0.68422128
0.68437181
0.68449753
0.68458908
0.6847393
0.68491928
0.68509954
0.68530744
0.68551596
0.68568236
0.6858467
0.68602945
0.68617586
0.6862559
0.68630589
0.68640567
0.68650198
0.68650247
0.68647264
0.68649362
0.68644677
0.68639543
0.68633213
0.68626527
0.68622019
0.68614802
0.68606708
0.68596847
0.68591079
0.68581977
0.68575772
0.685702
0.68562641
0.68554966
0.68548993
0.68541909
0.68537459
0.68534884
0.68529902
0.6852286
0.68520903
0.68519632
0.68517568
0.68512986
0.68510042
0.68508417
0.68509102
0.68508911
0.68507114
0.68507594
0.68499659
0.68504885
0.68504406
0.68506739
0.68509684
0.68509595
0.68512959
0.68515459
0.68520127
0.68523689
0.68520092
0.68526764
0.6852295
0.68524739
0.68524929
0.68520698
0.68528031
0.68535682
0.6853269
0.68532502
0.68535073
0.68547236
0.68546235
0.68543885
0.68542696
0.68555916
0.68558204
0.68556557
0.68555768
0.68569646
0.68566991
0.68563173
0.6856926
0.68564309
0.68568057
0.68568651
0.68577097
0.68579679
0.68583821
0.68581511
0.6858283
0.68577767
0.68567349
0.68588417
0.68596837
0.6858206
0.68579113
0.68585476
0.68601535
0.68599013
0.68594385
0.68595901
0.68600654
0.68600018
0.68595591
0.68587783
0.68604903
0.68609018
0.68606964
0.68610132
0.68622069
0.68611105
0.685929
0.68596153
0.68583051
0.68589157
0.68588476
0.68587287
0.68586191
0.68585038
0.6858434
0.68582976
0.68581912
0.68579332
0.68578374
0.68572658
0.68563869
0.68555262
0.68547218
0.6853902
0.68527601
0.68514483
0.6850097
0.68486491
0.68473176
0.68460756
0.68449537
0.68441416
0.68431577
0.6842029
0.68408076
0.6839341
0.68374196
0.68353496
0.68332001
0.68311366
0.68293077
0.68273981
0.68255474
0.68237717
0.68219307
0.68200608
0.68176328
0.68150531
0.68118249
0.68079504
0.68036121
0.67987645
0.67943652
0.67903837
0.67864501
0.67836392
0.67803154
0.67772964
0.67724755
0.67686948
0.67638114
0.67609825
0.67554785
0.67526385
0.67463191
0.67399327
0.67309042
0.67189586
0.67129725
0.67020224
0.66905012
0.66782336
0.66602116
0.66381013
0.66311976
0.66285794
0.66398824
0.66363985
0.66094883
0.65460826
0.64953103
0.6466227
0.64369852
0.64099931
0.63676797
0.63284189
0.62994605
0.62777476
0.62660648
0.62627086
0.62625134
0.62576579
0.61945171
0.30419781
1.0028756
0.49795093
0.7807577
0.6325519
0.69165131
0.67983376
0.68004942
0.68080397
0.68050942
0.67972686
0.67900808
0.67852595
0.67814642
0.67779468
0.67746232
0.6773006
0.67737747
0.67766886
0.67809333
0.67855057
0.67899907
0.67943613
0.6798284
0.68016894
0.68048728
0.68081374
0.68117005
0.68156928
0.68202312
0.68254158
0.68313494
0.68379339
0.6844904
0.68519858
0.68588233
0.68648018
0.68691566
0.68711934
0.68705284
0.68676167
0.68633261
0.68586407
0.68540427
0.68494702
0.68453529
0.68419997
0.68397047
0.6838319
0.68375663
0.68373422
0.68374342
0.68377225
0.68378879
0.68377687
0.6837557
0.68372873
0.68370012
0.68367731
0.68366059
0.68363895
0.68360516
0.6835673
0.68352296
0.68347641
0.6834396
0.68341421
0.68339073
0.68336903
0.68336393
0.6833775
0.68339799
0.68342801
0.68347916
0.68355144
0.68363675
0.6837323
0.68383449
0.68393209
0.68400614
0.68403294
0.68401873
0.68400466
0.68398233
0.68393728
0.68388159
0.68384306
0.68381949
0.68379053
0.68376831
0.68376297
0.68377082
0.68379111
0.68380989
0.6838369
0.68388075
0.68393872
0.68400565
0.6840631
0.68413904
0.68426513
0.6843999
0.68447119
0.68460343
0.68479565
0.68498639
0.6851769
0.68538766
0.68559425
0.68578512
0.68598027
0.6861717
0.68630627
0.68639021
0.68648509
0.68662376
0.68665852
0.68665121
0.68663428
0.68666079
0.68665436
0.68660727
0.68653487
0.68647544
0.6864194
0.68635239
0.68627697
0.68618352
0.68610216
0.6860357
0.68598744
0.68590483
0.68585105
0.68579275
0.68573215
0.68568011
0.68562951
0.6855685
0.6855707
0.6855319
0.68547442
0.68543401
0.68541389
0.68540554
0.68537087
0.68535681
0.68537646
0.68535187
0.68532509
0.68530264
0.68532048
0.68537814
0.68537544
0.68536539
0.68537942
0.685429
0.68545337
0.68548184
0.68550527
0.68551347
0.68555261
0.68561544
0.68556832
0.68560448
0.68563002
0.68566264
0.68571413
0.68569852
0.68564794
0.68564181
0.68577843
0.68582122
0.68582321
0.68581374
0.68591745
0.6860041
0.68602814
0.6860065
0.6861186
0.68614893
0.68608572
0.6861339
0.68620756
0.68613062
0.68612603
0.68620928
0.68632566
0.68635582
0.68634923
0.68631672
0.68632809
0.68641318
0.68639651
0.68651074
0.68640374
0.68640789
0.68640766
0.686576
0.68664628
0.68650967
0.68649286
0.68656315
0.68674548
0.68673019
0.68668021
0.68670592
0.68677533
0.68680418
0.68682061
0.68696297
0.68689168
0.6865997
0.68672757
0.68689936
0.68687319
0.68680827
0.68675866
0.68675978
0.68677424
0.6867253
0.68675398
0.68676977
0.68674497
0.68678167
0.68677502
0.68675762
0.68669635
0.68664703
0.68659828
0.68657915
0.68650647
0.68640041
0.68628768
0.68616368
0.68603785
0.68592116
0.68582251
0.685754
0.68566676
0.68554531
0.68542127
0.68529403
0.68514981
0.68500811
0.68487766
0.68476646
0.68465777
0.68455157
0.68441305
0.68424109
0.6840461
0.6838243
0.68360793
0.68337626
0.68317202
0.68298873
0.68278407
0.68256106
0.68228632
0.6818867
0.68141713
0.68085621
0.68031271
0.67985319
0.67949093
0.67922346
0.67887321
0.67849924
0.67799059
0.67746601
0.67682093
0.67636451
0.67568274
0.67529477
0.67471246
0.67242859
0.6695389
0.66853312
0.66880944
0.66893113
0.66979279
0.66582901
0.65873644
0.65297166
0.64813166
0.65035692
0.65226941
0.65233158
0.65262991
0.65300737
0.65250028
0.65028237
0.64585707
0.64220903
0.63850386
0.63329012
0.6278399
0.62394367
0.61642577
0.3072769
1.0028577
0.49798474
0.7808153
0.62939272
0.69238708
0.67877858
0.67935397
0.68065434
0.68060526
0.67980737
0.67898559
0.67837976
0.67788788
0.67745717
0.6770876
0.67688911
0.67693268
0.67720587
0.67762077
0.67808607
0.67851947
0.67892135
0.67928645
0.67958766
0.67983591
0.68006792
0.68030657
0.6805567
0.6808373
0.68117262
0.6815771
0.68207033
0.68264797
0.68328727
0.6839643
0.68466193
0.68533795
0.68593329
0.68639171
0.68665999
0.68669217
0.68650647
0.6861846
0.68582793
0.6854699
0.68508169
0.68474207
0.68444988
0.6842358
0.68407857
0.68395456
0.68389343
0.68384971
0.68381346
0.68379183
0.6837656
0.68373715
0.68371669
0.68369624
0.68366425
0.68362734
0.68359637
0.68356763
0.68353856
0.68351874
0.68350706
0.68349306
0.68347904
0.683475
0.68348074
0.68349173
0.68351494
0.68355814
0.68361794
0.68368945
0.68377303
0.68386492
0.68395153
0.68401255
0.68403106
0.68401716
0.68399659
0.68395845
0.68390904
0.68385436
0.68381347
0.68378199
0.6837589
0.68374181
0.68373522
0.68374626
0.68376418
0.68378319
0.68381522
0.68386872
0.6839354
0.68399543
0.68406214
0.68417278
0.68429471
0.68437367
0.68449854
0.68468181
0.68487309
0.68505116
0.68525372
0.685486
0.6857048
0.68590341
0.68611167
0.68631513
0.68645671
0.68655704
0.68666347
0.68680279
0.68681943
0.68681685
0.6868229
0.68686661
0.68684078
0.68679731
0.68672243
0.68667842
0.68660769
0.68653956
0.6864606
0.68639731
0.68631864
0.68627193
0.68617412
0.68611847
0.68605025
0.68601053
0.68595676
0.68590952
0.68584717
0.68579268
0.68582172
0.68578803
0.68572889
0.68572401
0.68570547
0.68566704
0.68562295
0.68564309
0.68562352
0.68563248
0.68560952
0.68559902
0.68567184
0.68566232
0.6856429
0.68563158
0.68568894
0.68574244
0.68576698
0.68575827
0.68574644
0.68576908
0.6859218
0.68590028
0.68587543
0.6859255
0.68597179
0.68604486
0.68607117
0.68603624
0.68603159
0.6860974
0.68621846
0.68618472
0.68617126
0.68616846
0.68631654
0.68642198
0.68642967
0.68645551
0.68655654
0.68653219
0.68656731
0.68672071
0.68659324
0.6865747
0.68659617
0.68673588
0.68679926
0.68682848
0.68679718
0.68677272
0.68686639
0.6870644
0.68701017
0.68702835
0.68709203
0.68711997
0.68708612
0.68717317
0.6871248
0.68706096
0.68713721
0.68728298
0.68748959
0.68733859
0.68735865
0.6874341
0.68755285
0.687588
0.68760929
0.68759155
0.68746311
0.68743451
0.68774144
0.6876871
0.68764974
0.68753697
0.68750959
0.68759693
0.68773438
0.68770572
0.68767476
0.6876203
0.68770757
0.68773852
0.68774561
0.68770095
0.68769594
0.68763916
0.68764299
0.68771091
0.68766132
0.68757725
0.68747146
0.68741268
0.68728217
0.68719043
0.68714143
0.68710765
0.68706296
0.6869857
0.68690156
0.68681602
0.68670181
0.68656522
0.68643247
0.68629454
0.68617303
0.68605407
0.68593002
0.68579847
0.68566028
0.68553219
0.68536779
0.68517699
0.68497493
0.68472709
0.6844334
0.68409347
0.68373338
0.68340622
0.68310555
0.68285389
0.68265544
0.68243349
0.68216618
0.68172337
0.68128107
0.68067519
0.68001003
0.67919282
0.6782128
0.67736067
0.67648109
0.6760225
0.67556962
0.6738771
0.67223776
0.6715973
0.67112138
0.6706637
0.66891006
0.66728611
0.66621172
0.66711026
0.66935004
0.67065057
0.66934055
0.66791791
0.66585916
0.66568034
0.66292818
0.65628764
0.65121528
0.64856896
0.64650698
0.64451121
0.64237261
0.63995835
0.63337209
0.3093495
1.0027046
0.49826978
0.78078246
0.6275638
0.69287169
0.67796103
0.67884732
0.6805775
0.68074413
0.67993663
0.67906308
0.6783366
0.67775327
0.67725729
0.67683947
0.6766121
0.67665413
0.67690055
0.67727945
0.67772365
0.67816602
0.67857071
0.67892642
0.67922105
0.67944319
0.67961286
0.67975243
0.67987815
0.68001376
0.6801776
0.6804024
0.68070115
0.68109188
0.68157775
0.68212841
0.68272931
0.68337917
0.68405436
0.68471479
0.6853229
0.68584146
0.68621913
0.68639512
0.68635291
0.68615485
0.68591982
0.68564374
0.68530101
0.68495733
0.68464834
0.6844089
0.6842105
0.68405934
0.68395172
0.68389028
0.68384745
0.68380851
0.68376538
0.68370808
0.68365208
0.68360807
0.68357676
0.68355314
0.6835383
0.68353731
0.6835398
0.68354117
0.68354597
0.68355535
0.68356694
0.6835819
0.68360583
0.68364331
0.68369399
0.68375449
0.68382487
0.68390545
0.68398205
0.68403352
0.68404603
0.68402944
0.6840027
0.68396112
0.68390546
0.68385399
0.68381326
0.68378138
0.68375424
0.68373466
0.68373288
0.6837481
0.68375868
0.68377401
0.68382067
0.68388623
0.68394207
0.68399677
0.6840913
0.68420997
0.68430834
0.6844228
0.68458229
0.68476329
0.68493595
0.68512996
0.68536655
0.68560596
0.68582032
0.68603947
0.6862751
0.68647608
0.68660787
0.68672433
0.68685244
0.68695784
0.6870094
0.68700894
0.68703376
0.687058
0.68701658
0.68695555
0.68690709
0.68685845
0.68681821
0.6867347
0.68666244
0.68661117
0.6865324
0.68643841
0.68639079
0.68633293
0.68625214
0.68622617
0.68616622
0.68609544
0.68605658
0.6860955
0.68603486
0.68598355
0.68595985
0.6859588
0.68595027
0.68590547
0.68589682
0.68590022
0.68591217
0.68592968
0.68589014
0.68588461
0.6859475
0.68594109
0.68590079
0.68592934
0.68598616
0.68600715
0.68603615
0.68602989
0.68602073
0.68610463
0.68621857
0.68618478
0.68618565
0.68625289
0.68634002
0.6863514
0.68639084
0.68644797
0.68644
0.68650257
0.6865986
0.6865608
0.68649278
0.68657947
0.68679299
0.68682784
0.68677647
0.68688515
0.68698936
0.68700823
0.68702803
0.68703555
0.68709906
0.68707838
0.68701804
0.68709811
0.68727753
0.68732552
0.6872792
0.68730744
0.68747477
0.68761698
0.68752275
0.68753442
0.68772674
0.68770502
0.68766063
0.68774342
0.68773235
0.68779595
0.68778151
0.68797536
0.68811139
0.68797109
0.68800227
0.68813444
0.6883224
0.68829353
0.68825801
0.68826769
0.68828859
0.68835008
0.68838296
0.68838187
0.68845201
0.68832943
0.68826217
0.68850079
0.68850011
0.68855959
0.6885112
0.6885334
0.68872506
0.68870518
0.68858849
0.6885809
0.68870951
0.68861073
0.68866552
0.6888489
0.68885073
0.68869147
0.68858627
0.6885993
0.68841366
0.6883682
0.68841459
0.68836662
0.68830804
0.68824694
0.68819173
0.68813317
0.68806177
0.68797393
0.68790541
0.6878459
0.68779646
0.68775184
0.68770609
0.68761661
0.68749082
0.68733649
0.68717915
0.68698285
0.68679905
0.68662215
0.68644203
0.68623804
0.6860271
0.68578746
0.68552169
0.68522991
0.68495903
0.68475353
0.68460065
0.68456391
0.68459623
0.68463479
0.68471226
0.68466532
0.68458205
0.68411064
0.68327885
0.68195651
0.67970229
0.67911462
0.6784043
0.67731481
0.67663689
0.67671464
0.67713762
0.67756397
0.67786772
0.67749742
0.67601927
0.67346509
0.669345
0.66060974
0.66059386
0.65358801
0.64345473
0.65302803
0.65694711
0.65993877
0.66290616
0.66373974
0.6632249
0.66316662
0.65937076
0.30985156
1.0028581
0.49840091
0.78083101
0.62658282
0.69323016
0.67746003
0.67859649
0.6806398
0.68089057
0.68006739
0.67914661
0.67834952
0.67769822
0.67715053
0.67670134
0.67644782
0.67646995
0.67669391
0.67704452
0.67748117
0.67793789
0.67837465
0.6787439
0.67902933
0.67923
0.67934919
0.67940576
0.6794246
0.67943895
0.67947375
0.67954352
0.67968347
0.67990166
0.68020476
0.6805932
0.68104282
0.68154298
0.68211511
0.68274973
0.68342294
0.68411372
0.68479791
0.68543607
0.68595884
0.68629559
0.68640554
0.68629087
0.68608295
0.68578102
0.68540957
0.6850594
0.68475662
0.68450452
0.68428861
0.68412774
0.68399751
0.68388256
0.68379179
0.68370432
0.68363345
0.68358737
0.68355322
0.68353362
0.68351812
0.68351353
0.68351564
0.6835254
0.68354642
0.68357471
0.68360301
0.6836328
0.68366874
0.68371109
0.68375944
0.68381462
0.68387884
0.68395104
0.68401808
0.68406146
0.68407106
0.68405435
0.68402218
0.6839729
0.68391736
0.68386772
0.68382775
0.6837974
0.68376943
0.68375197
0.68375362
0.68376378
0.68377329
0.68380387
0.68385603
0.68390688
0.68395619
0.68403916
0.68415133
0.68425414
0.68435589
0.68449694
0.68466894
0.68484346
0.68503333
0.6852633
0.68550975
0.68573403
0.68595506
0.68620411
0.68644896
0.68663417
0.6867789
0.68692364
0.68705671
0.68713977
0.68716019
0.68718956
0.6872211
0.68722376
0.68718927
0.68714365
0.68710628
0.68704566
0.68700455
0.68692929
0.68686434
0.68677719
0.68671417
0.68665135
0.68658362
0.68653072
0.68647848
0.68640086
0.68637314
0.68633355
0.68629797
0.68634374
0.6862167
0.68616491
0.68616628
0.68618469
0.68618455
0.68614356
0.68612756
0.68614938
0.68619221
0.68615932
0.68613805
0.68617457
0.68621731
0.68619003
0.68616689
0.68620787
0.68624651
0.68629625
0.68628292
0.68630142
0.68635055
0.68643232
0.68647346
0.68652359
0.68656205
0.68660608
0.68666674
0.68666558
0.68673727
0.6867934
0.68676678
0.68687583
0.68695089
0.68691423
0.68688757
0.68702999
0.68715845
0.68715889
0.6871625
0.68730219
0.68741722
0.68744022
0.68743384
0.68747409
0.68761406
0.68758604
0.68749455
0.68762091
0.68777888
0.68771582
0.68768419
0.68778532
0.6880331
0.688076
0.6879619
0.68809655
0.68826637
0.68824521
0.68822843
0.68833822
0.68837891
0.68837066
0.68829963
0.68858646
0.68866464
0.68855377
0.68859789
0.68881132
0.68901393
0.68895921
0.68898662
0.68907996
0.68913511
0.68911068
0.68906572
0.68926976
0.68917142
0.68909139
0.6891167
0.68917105
0.68927641
0.6894557
0.68935266
0.68947265
0.68959762
0.68951393
0.689399
0.68946954
0.68958313
0.68957664
0.68977688
0.68993065
0.68984068
0.68956396
0.68964714
0.68978975
0.68961633
0.68965145
0.68965364
0.68957827
0.68951749
0.68949978
0.68948557
0.68943572
0.6894104
0.68934004
0.68930263
0.68925835
0.68926874
0.68918813
0.68914175
0.6891033
0.68903819
0.68895088
0.68887904
0.68875188
0.68862623
0.68847877
0.68831806
0.68811847
0.68791825
0.68771891
0.68753269
0.68735034
0.6871969
0.68706683
0.68689869
0.68668245
0.68639892
0.68605135
0.68564638
0.68528384
0.68497071
0.68469234
0.68464841
0.6848596
0.68613005
0.6841528
0.67922172
0.6776051
0.67608076
0.67635015
0.67692724
0.67606851
0.67507692
0.67415633
0.67316218
0.67230697
0.67074373
0.67184361
0.67157175
0.67535237
0.67787513
0.66652919
0.66434219
0.66894349
0.67175198
0.67184112
0.66999497
0.66814045
0.66514757
0.31063498
1.0027677
0.49850733
0.78090795
0.62621937
0.69350761
0.67731822
0.67857969
0.68074652
0.68100809
0.6801593
0.67921219
0.67837587
0.67768599
0.67711442
0.67665157
0.67638269
0.67638976
0.67659896
0.67694174
0.67738873
0.6778551
0.67829491
0.67866932
0.67893855
0.67910703
0.67917919
0.67916943
0.67910909
0.67903431
0.67896822
0.67893237
0.67894546
0.67902549
0.67917618
0.67939622
0.67968304
0.68002055
0.68041894
0.6809158
0.68150768
0.68218242
0.68293075
0.68373217
0.68454293
0.68529175
0.6858954
0.68631042
0.68648908
0.68645592
0.68631036
0.68603079
0.68565966
0.68525376
0.68488626
0.68453875
0.68422915
0.68398791
0.68381956
0.68370615
0.683616
0.68356093
0.68352492
0.68350159
0.68348644
0.68347621
0.68347657
0.68348929
0.68351176
0.68353998
0.68357439
0.68361708
0.68366687
0.68372054
0.6837764
0.68383702
0.6839057
0.68397865
0.68404307
0.68408416
0.6840931
0.6840743
0.68404026
0.68399239
0.6839379
0.68388982
0.6838536
0.6838221
0.68379613
0.68378568
0.68378968
0.68380024
0.68382165
0.68385891
0.68390301
0.68395085
0.68402244
0.6841193
0.68421584
0.6843092
0.68443758
0.68459934
0.68477311
0.68495889
0.68517682
0.68542202
0.68566526
0.68590365
0.68615563
0.68640961
0.68662783
0.68680537
0.68697247
0.68712701
0.68724233
0.68730104
0.68733808
0.68737135
0.687393
0.68739094
0.68736133
0.68732838
0.68728121
0.68723492
0.68716676
0.68711213
0.68703521
0.68695204
0.68690385
0.68687549
0.68678882
0.68671536
0.68665809
0.68660058
0.68657387
0.68653055
0.68650296
0.68647837
0.68643379
0.68638406
0.68638334
0.68644418
0.68641068
0.68636741
0.68636447
0.68638648
0.68638712
0.68635488
0.68638096
0.686417
0.68647523
0.68643752
0.6864157
0.6864532
0.68656611
0.68658254
0.68655025
0.68660766
0.68668091
0.68673298
0.68677237
0.68684809
0.68688179
0.68688443
0.68694304
0.68700979
0.6870635
0.68703654
0.68712251
0.68728867
0.68730961
0.68729609
0.68736022
0.68748932
0.68747692
0.68744765
0.68755102
0.6876769
0.68782788
0.68781341
0.68784759
0.68792151
0.68807616
0.68812533
0.6880754
0.68825533
0.6881138
0.68808359
0.68812172
0.68826736
0.68854988
0.6885037
0.6884568
0.68865088
0.6888379
0.68880841
0.68882754
0.68886034
0.68887294
0.68876264
0.68900787
0.68928781
0.68920966
0.68913453
0.68917544
0.68948114
0.68973734
0.68963676
0.68966535
0.68981398
0.68985933
0.68976996
0.68981445
0.68996789
0.68986596
0.68988557
0.6899561
0.69004149
0.69026114
0.69019217
0.69013469
0.69023382
0.69027752
0.69040083
0.69018685
0.69032028
0.6905634
0.69059345
0.69070283
0.69073087
0.69080568
0.69055925
0.69075397
0.69097305
0.69080442
0.69066358
0.6906997
0.69078316
0.69063251
0.69076702
0.6906692
0.6906272
0.69068516
0.69068665
0.69063271
0.690646
0.69074178
0.69065531
0.69071278
0.6907682
0.69072074
0.69063503
0.69055697
0.69043915
0.69028588
0.6901294
0.68998408
0.68981804
0.68966685
0.68950767
0.68937038
0.68921375
0.68909523
0.68902027
0.68897372
0.68897839
0.68903995
0.68906109
0.68901516
0.68876972
0.68827811
0.68754765
0.68671876
0.68584186
0.68491596
0.6844807
0.6846593
0.68599921
0.68881561
0.69137745
0.69291118
0.69196704
0.69123218
0.69100701
0.69135973
0.6918884
0.69274611
0.69241256
0.68941467
0.68026132
0.67289649
0.67432872
0.67098316
0.66431943
0.66080048
0.65979969
0.66026312
0.65983334
0.65712452
0.30982132
1.0031143
0.49838508
0.78112408
0.62636477
0.69371397
0.67752623
0.67873864
0.68084619
0.68107473
0.68020399
0.67924457
0.67840131
0.67770851
0.67714275
0.67669834
0.6764494
0.67646317
0.67667368
0.67701395
0.67745378
0.6779028
0.67831154
0.67865393
0.67889394
0.67902787
0.67905861
0.67899978
0.67888519
0.67875017
0.6786148
0.67849927
0.67842145
0.67839308
0.67841848
0.67849983
0.67863249
0.67881776
0.67904379
0.67935397
0.67978417
0.68033222
0.68099709
0.68178066
0.68266687
0.68361482
0.68455931
0.6854185
0.68610299
0.68653321
0.68667485
0.68659541
0.6863861
0.68603017
0.6856176
0.68518216
0.68476941
0.68438762
0.68406648
0.68384997
0.68369634
0.68359096
0.68352879
0.6834879
0.68346113
0.68344905
0.68344819
0.68345625
0.68347222
0.68349586
0.68352977
0.68357458
0.68362716
0.68368386
0.68374579
0.6838168
0.68389521
0.68397227
0.68403597
0.68407836
0.68409163
0.68407624
0.6840454
0.68400188
0.68395169
0.68391046
0.68388108
0.68385132
0.68383089
0.68382722
0.68383573
0.68385325
0.68388066
0.68391949
0.68396697
0.68402842
0.68411085
0.68420424
0.68429958
0.68441652
0.68456146
0.68472331
0.68490289
0.68511357
0.68535117
0.68559821
0.68585188
0.68612008
0.68638934
0.68663054
0.68683652
0.68702566
0.68719864
0.68733921
0.68743414
0.68749201
0.68753227
0.68755836
0.68756918
0.68755586
0.68752431
0.68748854
0.68744943
0.68741677
0.68734496
0.68728142
0.68721004
0.68713978
0.68709919
0.68704626
0.68699207
0.6869006
0.68685936
0.68684769
0.68675719
0.6867206
0.68671337
0.68665172
0.6866131
0.68658974
0.68666164
0.68664128
0.68657436
0.68656385
0.68658905
0.68662725
0.68658437
0.68656575
0.68659008
0.68663178
0.68668734
0.68669395
0.68669919
0.68664719
0.68680151
0.68687127
0.68688179
0.68694315
0.68697063
0.6870201
0.68710979
0.68713872
0.68710959
0.68714007
0.6872795
0.68736066
0.68730641
0.6873162
0.68744697
0.68764257
0.68769292
0.6876816
0.68776767
0.6877751
0.68780997
0.68786002
0.68797971
0.6881643
0.68822033
0.68816954
0.68821514
0.6884019
0.68850442
0.68844821
0.68843534
0.68855004
0.68862097
0.6886143
0.68859117
0.68880531
0.68898897
0.68895655
0.68892924
0.6891775
0.68941115
0.68933978
0.68938006
0.6894028
0.68939473
0.68944868
0.68964294
0.68972725
0.68968401
0.68972124
0.68984266
0.6902125
0.69022947
0.69015385
0.69023517
0.69045586
0.69048171
0.6904498
0.69066849
0.69071219
0.69065586
0.69075135
0.69081246
0.69090037
0.69100161
0.69097069
0.69089182
0.69099886
0.69119693
0.69115607
0.6909413
0.69120799
0.69151484
0.69148193
0.69145517
0.69168733
0.69175942
0.69145066
0.69171233
0.69200943
0.69172556
0.69168234
0.69186177
0.69166577
0.69169118
0.69199859
0.69179749
0.69187841
0.69191318
0.69203766
0.69186374
0.69203244
0.69215839
0.69208839
0.69211742
0.69218684
0.69221482
0.69221176
0.69214237
0.69204895
0.69197293
0.69184315
0.69172491
0.69161136
0.69149438
0.6914096
0.69135682
0.69131353
0.69125748
0.69121137
0.69111747
0.69102358
0.69093007
0.69079854
0.69067425
0.69059631
0.6906751
0.69091914
0.69137786
0.69225106
0.69321304
0.69405562
0.69335846
0.68973885
0.68624435
0.68164222
0.67996455
0.68415946
0.68557771
0.68490124
0.6841527
0.68333669
0.68262342
0.6817987
0.68061293
0.67841969
0.67700465
0.67696719
0.67706669
0.67736544
0.67767584
0.67791779
0.67790802
0.67719443
0.6755054
0.3100604
1.0029867
0.49826049
0.78133021
0.62701426
0.69389264
0.67812096
0.67913885
0.68099407
0.68113239
0.68020739
0.67924006
0.67841094
0.67774414
0.6772096
0.67680599
0.67659875
0.67663644
0.67686371
0.67721461
0.67764049
0.67804663
0.67839762
0.67867628
0.67886471
0.67895382
0.67894467
0.67885048
0.67870022
0.6785247
0.67834118
0.6781683
0.67802071
0.67790939
0.67784024
0.677809
0.67781871
0.67787443
0.67796458
0.67810716
0.67836334
0.67875734
0.67928593
0.67995857
0.68077999
0.6817331
0.6827786
0.68385577
0.68488657
0.68577769
0.68642988
0.68677508
0.68681167
0.68666343
0.68634326
0.68593589
0.68548393
0.68501431
0.68456357
0.68416853
0.68391036
0.68370958
0.68357983
0.68350357
0.68345759
0.68343077
0.68342082
0.68342152
0.68343243
0.68345174
0.68348152
0.68351913
0.68356373
0.68361786
0.68368415
0.68376188
0.68384512
0.68392477
0.68399078
0.68403661
0.68405764
0.68405108
0.68402726
0.6839894
0.68394854
0.68391981
0.68389544
0.6838738
0.68386495
0.68386703
0.68388144
0.68390464
0.68394026
0.6839878
0.68404511
0.68411673
0.68420658
0.68430885
0.68442162
0.6845509
0.68469903
0.68487236
0.6850764
0.6853041
0.68554455
0.68579888
0.68607492
0.68636015
0.6866268
0.68686263
0.68707717
0.68727295
0.68743778
0.6875611
0.68764597
0.68770519
0.68774505
0.68776363
0.68776076
0.68773352
0.68769804
0.68766301
0.6876258
0.68758523
0.68752206
0.68745093
0.68739176
0.68732634
0.68727688
0.68719955
0.68715182
0.68709623
0.68707733
0.68702163
0.686941
0.68694027
0.68692456
0.68680662
0.68678524
0.68681895
0.68689579
0.68678335
0.68672514
0.68675038
0.68680501
0.68684701
0.68681728
0.68680178
0.68686574
0.68690068
0.68691677
0.68690317
0.6869142
0.68698604
0.68707548
0.68710016
0.68713973
0.6871638
0.68719636
0.6873787
0.68743198
0.68733037
0.68738647
0.68750456
0.68758566
0.68760874
0.68757297
0.68760832
0.68782592
0.68796581
0.68791399
0.68797539
0.68812517
0.68815937
0.68817036
0.68820083
0.68827379
0.68860446
0.68859779
0.68860201
0.68876864
0.68897103
0.68881565
0.68870565
0.68881294
0.68896031
0.6890928
0.68910613
0.68916996
0.68938375
0.68935658
0.68921642
0.68942045
0.68975619
0.68979775
0.68970086
0.6898565
0.69002897
0.69000228
0.6900813
0.69018602
0.69021465
0.69026488
0.69033083
0.69059784
0.69086744
0.69069552
0.69057031
0.69087093
0.69108248
0.69103076
0.69111182
0.69138438
0.69139221
0.69139202
0.69145344
0.69160504
0.69167613
0.69169443
0.69172779
0.69177281
0.69186665
0.6919903
0.69184527
0.69181384
0.69212513
0.69244997
0.69236175
0.6924804
0.69269745
0.6924486
0.69230619
0.69273824
0.69290736
0.69259284
0.69266266
0.692696
0.69248588
0.69284733
0.69304171
0.69283894
0.69282393
0.69305594
0.69335645
0.69312756
0.69329924
0.69345003
0.693483
0.69341775
0.69351348
0.69389749
0.69377074
0.69346328
0.69347158
0.69346792
0.69328158
0.69312175
0.69314708
0.69308086
0.69309142
0.69309468
0.69309217
0.69305057
0.69297209
0.69293177
0.6929248
0.69290891
0.69288792
0.69280954
0.69262912
0.69236181
0.69195507
0.69141818
0.69081083
0.69005454
0.68932672
0.68836215
0.6878652
0.68767029
0.68883414
0.68941358
0.68793538
0.68737617
0.68748481
0.68749084
0.68822081
0.68914284
0.69008051
0.69018398
0.68833383
0.68652028
0.68521205
0.68335247
0.68188459
0.68087028
0.6804661
0.68080718
0.68140983
0.68087945
0.30811101
1.0033148
0.49789403
0.78169906
0.62824
0.69401265
0.67898819
0.67965548
0.68117971
0.68116774
0.68018077
0.67923228
0.67843278
0.67781147
0.67731943
0.67696388
0.67680322
0.67686189
0.6771023
0.67746408
0.67787593
0.67824632
0.67854235
0.67875173
0.67887298
0.67889514
0.67883356
0.67870109
0.67851994
0.67831445
0.67809696
0.67788303
0.67768688
0.67751763
0.67737875
0.67726838
0.67718419
0.67712746
0.67712354
0.67714238
0.67724404
0.67748274
0.67786563
0.67839493
0.67908525
0.67993862
0.68093722
0.68204506
0.68320857
0.68435663
0.68539963
0.6862311
0.68675476
0.68693328
0.68684223
0.68656246
0.68614737
0.68568931
0.68519611
0.68468593
0.68425095
0.68396699
0.68373888
0.68358656
0.68349266
0.6834391
0.68340687
0.68339371
0.68339256
0.68340822
0.68343151
0.68346137
0.68349807
0.68354654
0.68360848
0.68368027
0.68375818
0.68383653
0.6839048
0.68395553
0.68398425
0.68398854
0.68397297
0.68394678
0.68392255
0.68390557
0.68388555
0.68387592
0.68388168
0.68389998
0.68392429
0.6839578
0.68400528
0.68406102
0.68412608
0.68421219
0.68431898
0.68443324
0.6845545
0.68469334
0.68486116
0.68505833
0.68527377
0.68550544
0.68576206
0.68604425
0.68633675
0.68662064
0.68688526
0.68712913
0.68734853
0.68753448
0.68768097
0.68779051
0.68787219
0.68793052
0.68796341
0.68796918
0.68795575
0.68792543
0.68788788
0.68784535
0.68779981
0.68774707
0.6876852
0.68762842
0.68757156
0.68751367
0.68744342
0.68738091
0.68732482
0.68727154
0.68723242
0.68716711
0.68712814
0.68709454
0.68705574
0.68700247
0.68699352
0.68707162
0.68702254
0.68697472
0.68693284
0.68697696
0.6870642
0.68701747
0.68698634
0.686997
0.68714044
0.68718766
0.68714747
0.6871501
0.68709156
0.68731297
0.68734528
0.68729698
0.68733204
0.68741253
0.68751987
0.68757869
0.68757158
0.68760558
0.68770053
0.68784713
0.68788391
0.68787454
0.6879514
0.68809091
0.68822561
0.68814925
0.68812833
0.68826186
0.68846205
0.68853344
0.68847355
0.68859918
0.68877171
0.6888875
0.68888209
0.68899377
0.68924165
0.68920776
0.68912285
0.6891639
0.68931134
0.68944853
0.68952478
0.68956008
0.68964897