/*--------------------------------*- C++ -*----------------------------------*\
| =========                 |                                                 |
| \\      /  F ield         | OpenFOAM: The Open Source CFD Toolbox           |
|  \\    /   O peration     | Version:  2506                                  |
|   \\  /    A nd           | Website:  www.openfoam.com                      |
|    \\/     M anipulation  |                                                 |
\*---------------------------------------------------------------------------*/
FoamFile
{
    version     2.0;
    format      ascii;
    arch        "LSB;label=32;scalar=64";
    class       surfaceScalarField;
    location    "3";
    object      phi;
}
// * * * * * * * * * * * * * * * * * * * * * * * * * * * * * * * * * * * * * //

dimensions      [1 0 -1 0 0 0 0];

oriented        oriented;

internalField   nonuniform List<scalar> 
2660
(
-0.2011408
2.5945954
-0.29838635
2.7088661
-0.39486854
2.8307026
-0.49034335
2.9585042
-0.58465855
3.0927372
3.2347753
-0.10401378
2.5907064
-0.2022326
2.6928392
-0.29995983
2.8066178
-0.39691538
2.927682
-0.49286272
3.0544743
-0.58765277
3.1875492
-0.68118469
3.3283281
-0.77337507
3.478392
-0.86414202
3.6392316
-0.9533979
3.8122338
-1.0410412
3.9987259
-1.1269533
4.2000092
-1.2110073
4.417391
-1.2930559
4.6522249
-1.3729315
4.9059202
-1.4504477
5.1799607
-1.5254026
5.475929
-1.5975817
5.7955337
6.1406366
-0.10443285
2.6898796
-0.20317859
2.7916081
-0.30141733
2.9048793
-0.39887308
3.0251598
-0.49531542
3.1509374
-0.59059905
3.2828527
-0.68462324
3.4223711
-0.77730392
3.5710902
-0.86855802
3.7305018
-0.95829565
3.9019857
-1.0464127
4.0868552
-1.1327909
4.2863972
-1.2172994
4.5019065
-1.2997884
4.7347178
-1.3800885
4.9862206
-1.4580121
5.2578808
-1.5333573
5.5512666
-1.60591
5.8680747
-1.6754451
6.2101558
-1.7417242
6.5795314
-1.8044914
6.9784018
-1.863469
7.4091476
-1.918355
7.8743334
-1.9688208
8.3767224
-2.0145112
8.9192932
-2.0550424
9.5052609
10.1381
-0.10480276
2.7896004
-0.20409508
2.8909203
-0.30286646
3.0036701
-0.40084032
3.1231525
-0.49779262
3.2479074
-0.59358096
3.3786579
-0.68810596
3.5169119
-0.78128378
3.6642826
-0.8730304
3.8222613
-0.96325442
3.9922208
-1.0518511
4.1754608
-1.1387011
4.3732538
-1.2236707
4.58688
-1.3066074
4.8176553
-1.3873399
5.0669504
-1.4656796
5.3362142
-1.5414241
5.6270011
-1.6143598
5.9409964
-1.6842612
6.2800395
-1.750889
6.646138
-1.8139857
7.0414744
-1.8732716
7.4684074
-1.9284425
7.9294774
-1.9791686
8.4274223
-2.0250926
8.9651936
-2.0658289
9.5459784
-2.1009617
10.173221
-2.1300427
10.850641
-2.1525884
11.582261
-2.1680765
12.372427
-2.1759434
13.225829
-2.1755787
14.147526
-2.1663222
15.142969
16.218035
-0.10523197
2.8898739
-0.20507902
2.9907828
-0.30439125
3.1029974
-0.40289096
3.2216669
-0.50035994
3.3453899
-0.59665775
3.4749685
-0.69168721
3.611953
-0.78536498
3.7579705
-0.87760675
3.9145116
-0.96831981
4.0829403
-1.0573988
4.264544
-1.1447236
4.4605805
-1.2301578
4.6723133
-1.3135462
4.9010399
-1.3947155
5.1481127
-1.4734765
5.4149647
-1.5496266
5.7031372
-1.6229517
6.014304
-1.6932263
6.3502931
-1.7602097
6.7130974
-1.8236426
7.1048808
-1.8832433
7.5279801
-1.9387055
7.9849115
-1.9896973
8.4783873
-2.0358599
9.0113327
-2.0768057
9.5869064
-2.1121172
10.208522
-2.1413436
10.879868
-2.1639991
11.604929
-2.1795595
12.388013
-2.1874578
13.233765
-2.187081
14.147198
-2.1777659
15.133712
-2.1587957
16.199127
-2.1293988
17.349726
-2.0887443
18.592311
-2.035939
19.934264
21.383624
-0.10574833
2.9907064
-0.20615047
3.0911952
-0.30600386
3.2028605
-0.40503204
3.3207043
-0.50302142
3.4433873
-0.59983349
3.5717876
-0.69537243
3.7074979
-0.78955481
3.8521573
-0.88229612
4.0072555
-0.97350266
4.1741476
-1.0630682
4.3541082
-1.1508713
4.5483797
-1.2367733
4.7582087
-1.3206169
4.9848739
-1.4022272
5.2297103
-1.4814141
5.4941356
-1.5579747
5.7796784
-1.6316951
6.0880016
-1.7023487
6.4209209
-1.7696936
6.7804137
-1.8334685
7.1686251
-1.8933896
7.5878695
-1.9491487
8.0406392
-2.0004118
8.5296209
-2.046818
9.0577134
-2.0879781
9.6280472
-2.1234719
10.244005
-2.152847
10.909243
-2.1756148
11.62771
-2.1912483
12.403672
-2.1991779
13.241735
-2.1987873
14.14686
-2.1894103
15.124397
-2.1703273
16.180111
-2.1407635
17.32023
-2.0998849
18.551494
-2.0467945
19.881224
-1.9805187
21.317381
-1.9000096
22.868549
-1.8041021
24.544064
26.35365
-0.10630676
3.092104
-0.20726509
3.1921584
-0.30765992
3.3032592
-0.40722031
3.4202678
-0.50573625
3.5419048
-0.60307084
3.6691225
-0.69912853
3.8035545
-0.79382515
3.9468514
-0.88707501
4.1005012
-0.97878343
4.2658499
-1.0688433
4.4441596
-1.1571316
4.6366571
-1.2435074
4.8445709
-1.3278117
5.0691618
-1.4098684
5.3117474
-1.4894866
5.5737311
-1.5664636
5.8566294
-1.6405849
6.1620939
-1.7116234
6.4919273
-1.7793357
6.8480915
-1.8434585
7.2327116
-1.9037059
7.6480799
-1.9597676
8.0966644
-2.0113076
8.5811268
-2.0579631
9.1043391
-2.0993425
9.6694034
-2.1350238
10.279672
-2.1645517
10.938768
-2.1874352
11.650603
-2.2031444
12.419406
-2.2111063
13.249736
-2.2107017
14.146507
-2.2012609
15.115019
-2.1820616
16.160982
-2.1523254
17.290566
-2.1112157
18.510452
-2.0578317
19.827898
-1.9911955
21.250786
-1.9102523
22.787625
-1.813835
24.447635
-1.7006996
26.240469
-1.5694852
28.177003
-1.4187833
30.267798
32.526976
-0.10683555
3.1940745
-0.20835521
3.2936775
-0.30929842
3.4042003
-0.40939971
3.5203657
-0.50845312
3.6409528
-0.60632265
3.766985
-0.70291199
3.9001354
-0.79813584
4.0420652
-0.89190693
4.1942605
-0.9841294
4.3580586
-1.0746945
4.5347088
-1.1634774
4.7254217
-1.2503357
4.9314082
-1.3351085
5.1539108
-1.4176188
5.394231
-1.4976755
5.653758
-1.5750758
5.9339967
-1.649605
6.2365871
-1.721035
6.5633187
-1.789121
6.9161365
-1.8535979
7.297146
-1.9141778
7.7086166
-1.9705483
8.1529925
-2.0223715
8.6329101
-2.0692825
9.1512147
-2.1108877
9.7109798
-2.1467624
10.315527
-2.1764489
10.968446
-2.1994534
11.673613
-2.2152424
12.435215
-2.2232399
13.257768
-2.222823
14.146139
-2.2133188
15.105575
-2.1940016
16.141734
-2.16409
17.260727
-2.1227441
18.469179
-2.0690597
19.774278
-2.0020557
21.183832
-1.9206689
22.706266
-1.82373
24.350696
-1.7099842
26.126688
-1.5780595
28.045003
-1.4265446
30.116159
-1.2538781
32.354132
-1.058321
34.769789
37.382119
-0.10728962
3.2966251
-0.20937982
3.3957617
-0.31088461
3.5056971
-0.41154022
3.6210115
-0.51114484
3.7405451
-0.60956305
3.8653892
-0.7066976
3.9972543
-0.80246179
4.1378122
-0.89676689
4.2885466
-0.98951544
4.4507863
-1.080597
4.6257673
-1.1698849
4.8146843
-1.2572349
5.0187302
-1.3424849
5.2391302
-1.4254571
5.4771696
-1.5059604
5.7342247
-1.5837915
6.0117884
-1.6587358
6.3114891
-1.7305643
6.6351024
-1.7990308
6.9845562
-1.8638684
7.3619352
-1.9247872
7.7694866
-1.981473
8.2096304
-2.0335861
8.6849777
-2.0807594
9.1983468
-2.1225971
9.7527828
-2.1586724
10.351577
-2.1885246
10.998283
-2.2116566
11.696743
-2.227532
12.451103
-2.2355703
13.265833
-2.2351453
14.145756
-2.2255803
15.096065
-2.2061463
16.122365
-2.1760587
17.230711
-2.1344739
18.427667
-2.0804844
19.720357
-2.0131054
21.11651
-1.9312667
22.624465
-1.8337933
24.253232
-1.7194224
26.012291
-1.5867728
27.912285
-1.4344306
29.963699
-1.2608208
32.180346
-1.064201
34.572928
-0.84284103
37.160473
-0.59447725
39.95197
42.978399
-0.10767713
3.399763
-0.21035182
3.4984255
-0.31243351
3.6077657
-0.41365763
3.7222202
-0.51382582
3.8406954
-0.61280373
3.9643472
-0.71049352
4.0949226
-0.80680757
4.2341031
-0.90165583
4.3833699
-0.99493934
4.5440429
-1.0865459
4.7173448
-1.176347
4.904454
-1.2641965
5.1065459
-1.3499313
5.3248285
-1.4333728
5.560572
-1.5143295
5.8151396
-1.5925985
6.0900129
-1.6679648
6.3868082
-1.7401983
6.7072865
-1.8090514
7.0533579
-1.8742555
7.4270868
-1.9355192
7.8306975
-1.9925264
8.2665857
-2.0449354
8.7373371
-2.0923775
9.2457434
-2.1344547
9.7948206
-2.1707377
10.387828
-2.200763
11.028288
-2.2240305
11.720002
-2.2399994
12.467076
-2.248086
13.273939
-2.2476591
14.145362
-2.2380383
15.08649
-2.2184908
16.102874
-2.1882287
17.200515
-2.1464047
18.385913
-2.0921066
19.666128
-2.0243457
21.04881
-1.942046
22.542209
-1.8440259
24.155231
-1.7290156
25.897266
-1.5956295
27.77884
-1.442445
29.810401
-1.2678743
32.0056
-1.0701729
34.374981
-0.84758928
36.937595
-0.59785186
39.701949
-0.31940204
42.699685
45.927715
-0.10805306
3.5034928
-0.21132624
3.6016832
-0.31399803
3.7104197
-0.41580173
3.8240037
-0.51654196
3.9414132
-0.61608595
4.063867
-0.71433612
4.1931468
-0.81120475
4.3309441
-0.90660072
4.4787365
-1.0004235
4.6378344
-1.0925596
4.8094475
-1.1828786
4.9947373
-1.2712325
5.1948618
-1.3574568
5.4110124
-1.4413725
5.6444448
-1.5227878
5.8965096
-1.6014998
6.1686771
-1.6772927
6.4625512
-1.7499359
6.7798778
-1.8191803
7.122549
-1.8847556
7.4926078
-1.9463686
7.8922561
-2.0037018
8.3238655
-2.0564119
8.789996
-2.1041282
9.2934123
-2.1464506
9.837101
-2.1829474
10.424291
-2.2131527
11.058467
-2.2365625
11.743396
-2.2526328
12.483143
-2.2607749
13.28209
-2.2603535
14.144963
-2.2506833
15.076855
-2.2310275
16.083265
-2.2005942
17.170137
-2.1585321
18.343913
-2.1039234
19.611584
-2.0357741
20.980722
-1.9530039
22.459489
-1.8544255
24.056681
-1.7387643
25.781599
-1.6046306
27.644656
-1.4505902
29.656255
-1.2750409
31.829878
-1.0762394
34.175932
-0.85240992
36.713464
-0.60127152
39.450521
-0.32119465
42.41934
45.614592
-0.10849047
3.6078188
-0.2123724
3.705545
-0.31564369
3.813669
-0.41803398
3.9263698
-0.5193502
4.0427037
-0.61946199
4.1639514
-0.71827296
4.2919288
-0.81569506
4.4283356
-0.91163932
4.5746484
-1.0060034
4.7321642
-1.0986709
4.9020788
-1.1895097
5.0855378
-1.2783702
5.2836819
-1.3650866
5.4976863
-1.4494791
5.7287926
-1.531356
5.9783397
-1.6105139
6.2477863
-1.6867365
6.5387234
-1.7597922
6.8528816
-1.8294303
7.1921342
-1.8953793
7.5585035
-1.9573442
7.9541681
-2.0150061
8.3814755
-2.0680199
8.8429603
-2.1160134
9.3413597
-2.1585846
9.8796309
-2.1952995
10.46097
-2.2256892
11.088829
-2.2492469
11.766935
-2.2654243
12.499311
-2.2736286
13.290295
-2.2732195
14.144565
-2.2635065
15.067164
-2.2437479
16.063539
-2.2131473
17.139579
-2.1708488
18.301665
-2.1159289
19.556721
-2.0473869
20.912238
-1.9641377
22.376291
-1.8649916
23.95757
-1.7486693
25.665282
-1.613776
27.509723
-1.4588659
29.501246
-1.2823234
31.653167
-1.0824033
33.975762
-0.85730617
36.488059
-0.60474062
39.197661
-0.32300177
42.13733
45.299749
-0.10904921
3.7127475
-0.21354986
3.8100206
-0.31742714
3.9175202
-0.42040921
4.0293247
-0.52230491
4.144571
-0.62298697
4.2646038
-0.72236097
4.3912717
-0.82033868
4.5262806
-0.91682872
4.671104
-1.0117302
4.8270296
-1.1049266
4.9952373
-1.1962837
5.1768553
-1.28565
5.3730069
-1.3728584
5.5848516
-1.4577283
5.8136177
-1.5400675
6.0606326
-1.6196723
6.3273435
-1.6963257
6.615328
-1.7697948
6.9263012
-1.8398276
7.2621172
-1.9061508
7.6247771
-1.9684681
8.0164367
-2.026459
8.4394193
-2.0797771
8.8962336
-2.1280484
9.3895894
-2.1708691
9.9224141
-2.2078031
10.497872
-2.238379
11.119378
-2.2620867
11.790622
-2.2783743
12.515584
-2.2866446
13.298559
-2.2862522
14.144173
-2.2765015
15.057422
-2.2566449
16.043699
-2.2258806
17.108841
-2.1833475
18.259167
-2.1281165
19.501534
-2.0591799
20.843352
-1.9754466
22.292609
-1.8757246
23.857888
-1.7587323
25.548305
-1.6230686
27.374031
-1.4672751
29.34536
-1.2897241
31.475449
-1.0886677
33.774456
-0.86228146
36.261362
-0.60826373
38.943346
-0.32483671
41.853633
44.983158
-0.10975963
3.818282
-0.21488429
3.9151144
-0.31937161
4.0219768
-0.42294874
4.132871
-0.52542413
4.2470151
-0.62667481
4.3658222
-0.72660859
4.4911719
-0.82514135
4.6247785
-0.9221807
4.7681072
-1.0176239
4.9224353
-1.1113524
5.0889269
-1.2032301
5.2686927
-1.2931041
5.4628393
-1.3808061
5.6725108
-1.4661549
5.8989227
-1.5489579
6.1433909
-1.6290108
6.4073511
-1.7060959
6.6923675
-1.7799788
7.0001386
-1.8504062
7.3324997
-1.9171033
7.6914302
-1.9797723
8.0790633
-2.0380911
8.4976979
-2.0917119
8.949817
-2.1402592
9.4381025
-2.1833275
9.9654519
-2.2204787
10.534996
-2.2512388
11.150116
-2.275095
11.81446
-2.2914919
12.531967
-2.2998281
13.306885
-2.2994534
14.143792
-2.2896668
15.047633
-2.2697147
16.02375
-2.2387889
17.077925
-2.1960223
18.21642
-2.1404802
19.44602
-2.0711487
20.774059
-1.9869291
22.208433
-1.8866258
23.757627
-1.7689551
25.430657
-1.6325111
27.23757
-1.475821
29.18859
-1.2972465
31.296712
-1.0950358
33.571995
-0.86733907
36.033354
-0.61184523
38.687556
-0.32671357
41.568233
44.664789
-0.11065078
3.9244315
-0.21639699
4.0208229
-0.32149758
4.127041
-0.42567088
4.2370087
-0.5287279
4.3500369
-0.63054987
4.4676084
-0.73104716
4.5916326
-0.83013569
4.7238294
-0.92772451
4.8656575
-1.02371
5.0183812
-1.1179719
5.1831484
-1.2103723
5.361052
-1.3007566
5.5531816
-1.3889551
5.7606669
-1.4747858
5.9847108
-1.5580556
6.226618
-1.6385594
6.4878124
-1.7160783
6.7698447
-1.7903768
7.0743964
-1.8611997
7.4032834
-1.9282709
7.7584642
-1.9912908
8.1420485
-2.0499361
8.5563114
-2.1038575
9.00371
-2.1526778
9.486898
-2.19599
10.008743
-2.233354
10.572342
-2.2642938
11.181041
-2.2882937
11.838447
-2.3047951
12.548458
-2.3131927
13.315272
-2.3128322
14.143422
-2.3030075
15.037799
-2.2829588
16.003694
-2.251871
17.046833
-2.2088706
18.173422
-2.1530165
19.390179
-2.0832896
20.704356
-1.9985826
22.123763
-1.8976947
23.656777
-1.779338
25.312327
-1.6421033
27.100326
-1.4845051
29.03092
-1.3048935
31.116941
-1.1015107
33.368364
-0.87248217
35.804017
-0.61548952
38.430271
-0.32864151
41.281122
44.344607
-0.11173132
4.0312046
-0.21809596
4.1271426
-0.3238044
4.2327063
-0.42857066
4.3417336
-0.53220933
4.4536348
-0.63460419
4.5699623
-0.73566754
4.6926544
-0.83531607
4.8234358
-0.93345902
4.9637578
-1.0299915
5.1148708
-1.1247913
5.2779053
-1.2177188
5.4539366
-1.3086178
5.6440378
-1.3973176
5.849324
-1.4836352
6.0709863
-1.5673767
6.3103183
-1.6483361
6.5687319
-1.7262934
6.8477636
-1.8010112
7.1490779
-1.8722328
7.4744713
-1.9396799
7.8258807
-2.003052
8.2053934
-2.0620237
8.6152599
-2.1162443
9.0579114
-2.1653353
9.5359739
-2.2088876
10.052284
-2.2464595
10.609907
-2.2775728
11.212149
-2.3017093
11.86258
-2.3183075
12.565053
-2.326759
13.323719
-2.3264053
14.143061
-2.3165355
15.02792
-2.2963849
15.983531
-2.2651317
17.015569
-2.2218947
18.130178
-2.1657263
19.334011
-2.0956014
20.634243
-2.0104063
22.03859
-1.9089306
23.555332
-1.789881
25.193301
-1.651846
26.962284
-1.4933289
28.872334
-1.3126672
30.936124
-1.1080944
33.163546
-0.87771313
35.573333
-0.61920012
38.171475
-0.33062506
40.992291
44.022577
-0.11293565
4.1386123
-0.21992147
4.2340769
-0.3262336
4.3389687
-0.43159488
4.4470471
-0.53582122
4.5578141
-0.63879721
4.6728915
-0.74043563
4.7942459
-0.84065335
4.9236063
-0.93935897
5.0624161
-1.0364465
5.2119111
-1.1317923
5.3732044
-1.2252549
5.5473532
-1.3166763
5.7354143
-1.4058848
5.9384888
-1.4926969
6.1577561
-1.5769179
6.3944986
-1.6583406
6.6501161
-1.7367433
6.9261304
-1.8118872
7.2241887
-1.8835134
7.5460681
-1.951342
7.8936838
-2.0150702
8.2691007
-2.0743713
8.6745448
-2.1288928
9.1124216
-2.1782542
9.585329
-2.2220449
10.096073
-2.259821
10.647685
-2.2911022
11.243435
-2.3153682
11.886853
-2.3320549
12.581745
-2.3405501
13.332219
-2.340193
14.142704
-2.3302686
15.017991
-2.310007
15.963261
-2.2785815
16.984131
-2.2351031
18.086687
-2.1786164
19.277516
-2.1080893
20.563716
-2.0224015
21.952913
-1.9203356
23.453282
-1.8005869
25.073566
-1.6617412
26.823425
-1.5022936
28.712817
-1.3205694
30.754249
-1.1147884
32.957529
-0.88303432
35.341288
-0.62298
37.91115
-0.332663
40.701729
43.698664
-0.11411368
4.2466741
-0.2217323
4.3416403
-0.3286563
4.4458382
-0.43462738
4.5529645
-0.53946025
4.6625941
-0.64303837
4.7764172
-0.74527288
4.8964283
-0.84607931
5.024361
-0.94536511
5.1616505
-1.0430231
5.3095182
-1.1389285
5.4690599
-1.2329387
5.6413146
-1.3248946
5.8273229
-1.4146238
6.0281724
-1.5019419
6.2450308
-1.5866535
6.4791692
-1.6685504
6.7319747
-1.7474093
7.0049543
-1.8229894
7.2997375
-1.89503
7.6180814
-1.963249
7.9618803
-2.0273415
8.3331758
-2.0869791
8.7341704
-2.141807
9.1672433
-2.1914428
9.6349644
-2.2354738
10.140109
-2.2734539
10.685675
-2.3049005
11.274895
-2.3292909
11.911259
-2.346058
12.598529
-2.3545886
13.340764
-2.3542178
14.142345
-2.3442271
15.008007
-2.3238439
15.942878
-2.292236
16.952518
-2.2485083
18.04295
-2.1916971
19.220695
-2.1207617
20.492774
-2.0345748
21.866724
-1.9319108
23.350622
-1.8114576
24.953107
-1.6717909
26.68373
-1.5114019
28.552353
-1.328602
30.571303
-1.1215937
32.750298
-0.88844732
35.107863
-0.6268316
37.64928
-0.33475943
40.409426
43.37283
-0.11511491
4.3554109
-0.22337501
4.4498445
-0.33093428
4.5533414
-0.4375388
4.6595124
-0.54300646
4.7680049
-0.64721675
4.8805712
-0.75007721
4.9992333
-0.85150081
5.1257298
-0.95139317
5.261489
-1.0496456
5.4077178
-1.1461318
5.5654945
-1.2407087
5.7358412
-1.3332165
5.9197823
-1.4234824
6.1183919
-1.511322
6.3328262
-1.5965392
6.5643448
-1.6789247
6.8143218
-1.7582539
7.0842484
-1.8342838
7.3757363
-1.9067519
7.6905228
-1.975374
8.0304805
-2.0398431
8.3976285
-2.0998282
8.794145
-2.1549726
9.2223832
-2.2048915
9.6848851
-2.2491697
10.184395
-2.2873584
10.723878
-2.3189725
11.306529
-2.3434865
11.935797
-2.3603313
12.6154
-2.3688907
13.34935
-2.3684967
14.141976
-2.3584303
14.997962
-2.3379146
15.922378
-2.3061138
16.920725
-2.2621268
17.998964
-2.2049821
19.163545
-2.1336299
20.421412
-2.0469342
21.780016
-1.9436634
23.247336
-1.8224947
24.831915
-1.6819982
26.543186
-1.5206551
28.390922
-1.3367641
30.387267
-1.1285101
32.541833
-0.89395283
34.873047
-0.6307568
37.38585
-0.33691386
40.115369
43.045038
-0.11589602
4.46484
-0.22480457
4.5586999
-0.3330175
4.6615
-0.44027763
4.7667169
-0.54640418
4.8740754
-0.65127269
4.9853838
-0.75478601
5.1026914
-0.85685318
5.227743
-0.95737754
5.3619605
-1.0562487
5.5065372
-1.153339
5.6625345
-1.248504
5.8309575
-1.3415838
6.012815
-1.4324057
6.2091685
-1.5207848
6.4211622
-1.6065247
6.6500441
-1.6894154
6.8971747
-1.7692307
7.1640292
-1.8457263
7.452201
-1.9186375
7.7634071
-1.9876779
8.0994986
-2.0525386
8.4624719
-2.112886
8.8544807
-2.168361
9.2778525
-2.2185759
9.7351008
-2.2631126
10.22894
-2.3015197
10.762299
-2.3333088
11.338338
-2.3579512
11.960466
-2.3748749
12.632356
-2.3834614
13.357972
-2.3830413
14.141593
-2.3728924
14.987848
-2.3522358
15.901752
-2.3202318
16.888745
-2.2759749
17.954721
-2.2184861
19.106059
-2.1467066
20.349624
-2.0594911
21.69278
-1.9556009
23.143413
-1.8337059
24.709973
-1.6923667
26.401775
-1.5300536
28.228503
-1.3450523
30.202115
-1.1355382
32.33212
-0.89955178
34.636826
-0.63475648
37.120845
-0.33912785
39.819546
42.715254
-0.11647001
4.5749806
-0.22605425
4.6682372
-0.33494265
4.7703389
-0.44287604
4.8745989
-0.54967876
4.9808266
-0.65522176
5.0908759
-0.75940402
5.2068241
-0.86213191
5.3304225
-0.96330591
5.4630873
-1.0628133
5.6059989
-1.1605252
5.7602017
-1.2562959
5.9266846
-1.3499649
6.1064419
-1.441359
6.3005222
-1.5302937
6.5100583
-1.6165722
6.7362859
-1.6999836
6.9805516
-1.7803006
7.2443143
-1.8572771
7.5291484
-1.9306466
7.8367507
-2.000121
8.1689507
-2.0653889
8.5277215
-2.1261146
8.9151928
-2.1819358
9.3336654
-2.2324623
9.7856246
-2.2772728
10.273754
-2.3159123
10.800948
-2.3478877
11.370332
-2.3726687
11.985271
-2.3896791
12.649398
-2.3982971
13.366628
-2.3978519
14.14119
-2.3876188
14.977659
-2.3668167
15.880993
-2.3346026
16.856568
-2.2900661
17.910211
-2.2322221
19.048226
-2.1600036
20.277398
-2.0722563
21.605005
-1.9677335
23.038841
-1.8450982
24.587268
-1.7028996
26.259486
-1.5395984
28.065079
-1.3534678
30.015826
-1.1426791
32.121145
-0.90524518
34.399184
-0.63883151
36.854248
-0.34139909
39.521941
42.383441
-0.11684832
4.6858347
-0.22714487
4.778497
-0.33673767
4.8798921
-0.44537037
4.9831904
-0.55286752
5.0882825
-0.65909893
5.1970669
-0.76396335
5.3116492
-0.86736368
5.4337849
-0.9691986
5.5648856
-1.069354
5.7061186
-1.1676991
5.8585122
-1.2640872
6.0230391
-1.3583573
6.2006794
-1.4503362
6.3924695
-1.5398388
6.5995305
-1.626668
6.823086
-1.7106124
7.0644682
-1.7914432
7.3251188
-1.8689132
7.6065937
-1.942754
7.9105688
-2.0126757
8.2388518
-2.0783647
8.5933927
-2.139483
8.9762964
-2.1956659
9.3898371
-2.2465197
9.8364717
-2.2916194
10.318852
-2.3305056
10.839839
-2.3626837
11.40252
-2.3876167
12.010222
-2.404725
12.666532
-2.4133846
13.37532
-2.4129206
14.140766
-2.4026067
14.967389
-2.381659
15.86009
-2.3492313
16.824181
-2.3044088
17.86542
-2.2462001
18.990032
-2.173531
20.204721
-2.0852391
21.516679
-1.9800694
22.93361
-1.8566765
24.463788
-1.7136015
26.1163
-1.5492924
27.900635
-1.3620145
29.82839
-1.1499312
31.908891
-0.91103275
34.160103
-0.64298179
36.586039
-0.34372769
39.222536
42.049567
-0.1171758
4.7973866
-0.22820508
4.8895009
-0.33851529
4.9901753
-0.44785821
5.0925056
-0.55605335
5.1964501
-0.66297419
5.3039611
-0.76852148
5.4171711
-0.872597
5.5378362
-0.97509782
5.6673633
-1.0759069
5.8069055
-1.1748919
5.9574759
-1.2719049
6.1200314
-1.3667841
6.2955384
-1.4593557
6.4850215
-1.5494347
6.6895903
-1.6368234
6.9104559
-1.7213092
7.1489356
-1.8026627
7.4064542
-1.8806347
7.6845482
-1.954956
7.984873
-2.0253344
8.3092138
-2.0914549
8.6594976
-2.152977
9.0378039
-2.2095335
9.4463806
-2.2607274
9.8876546
-2.3061304
10.364247
-2.3452792
10.878984
-2.3776736
11.434915
-2.4027723
12.035327
-2.4199933
12.683765
-2.4287065
13.384053
-2.4282339
14.14032
-2.4178464
14.957034
-2.3967572
15.839036
-2.3641166
16.791575
-2.3190049
17.820335
-2.2604249
18.931464
-2.1872952
20.13158
-2.0984458
21.427789
-1.9926143
22.827707
-1.8684466
24.33952
-1.7244755
25.972206
-1.5591379
27.735157
-1.370693
29.639794
-1.1572923
31.695336
-0.91691338
33.919568
-0.64720701
36.316201
-0.34611137
38.921312
41.713599
-0.11766578
4.909641
-0.22941239
5.0012328
-0.34043701
5.1011851
-0.45048146
5.2025351
-0.55936412
5.3053187
-0.66696266
5.4115466
-0.77317945
5.5233761
-0.87792132
5.6425675
-0.9810808
5.7705132
-1.0825396
5.9083554
-1.1821633
6.0570913
-1.2798019
6.2176622
-1.3752924
6.3910215
-1.4684603
6.578182
-1.5591197
6.7802423
-1.6470722
6.9984008
-1.7321044
7.2339597
-1.8139854
7.4883266
-1.8924649
7.7630183
-1.9672718
8.0596695
-2.0381129
8.3800435
-2.104671
8.7260431
-2.1666038
9.099723
-2.2235413
9.5033034
-2.275084
9.939182
-2.3208
10.409947
-2.360222
10.91839
-2.3928451
11.467524
-2.4181237
12.060594
-2.4354694
12.701103
-2.4442479
13.392829
-2.4437784
14.139853
-2.4333269
14.94659
-2.4121022
15.817825
-2.3792514
16.758738
-2.3338503
17.774944
-2.2748953
18.872508
-2.2012976
20.057963
-2.1118798
21.338326
-2.0053718
22.721123
-1.8804119
24.214456
-1.735525
25.827193
-1.5691367
27.568631
-1.3795022
29.450018
-1.1647621
31.480456
-0.92288664
33.677559
-0.65150606
36.044713
-0.34854816
38.618247
41.375504
-0.11836824
-0.2308347
-0.34257372
-0.45331378
-0.56287849
5.4148805
-0.67114903
5.5198152
-0.77802711
5.6302528
-0.8834219
5.7479617
-0.98722882
5.8743204
-1.0893284
6.0104561
-1.189584
6.1573485
-1.2878436
6.315924
-1.3839429
6.4871231
-1.477706
6.6719474
-1.5689461
6.8714844
-1.6574638
7.0869197
-1.743044
7.3195402
-1.8254546
7.5707361
-1.9044437
7.8420047
-1.9797388
8.1349598
-2.0510449
8.4513423
-2.1180432
8.7930314
-2.1803895
9.1620561
-2.2377115
9.5606089
-2.2896071
9.9910575
-2.3356408
10.455957
-2.3753419
10.958065
-2.408201
11.500354
-2.4336675
12.08603
-2.4511478
12.718552
-2.4600027
13.401654
-2.4595454
14.139368
-2.4490368
14.936059
-2.4276833
15.796453
-2.3946266
16.725668
-2.3489368
17.729242
-2.2896051
18.81316
-2.2155348
19.983865
-2.1255396
21.248284
-2.0183419
22.613853
-1.8925721
24.088588
-1.74675
25.681253
-1.579291
27.401046
-1.3884436
29.259042
-1.1723429
31.264231
-0.92895245
33.434054
-0.65587785
35.771552
-0.35103479
38.313315
41.035253
-0.5665516
-0.67549795
-0.78304567
-0.88910048
-0.99355974
-1.0963025
6.1132057
-1.197191
6.2582442
-1.2960722
6.4148128
-1.3927807
6.5838392
-1.4871397
6.7663139
-1.5789616
6.9633132
-1.6680454
7.1760096
-1.754175
7.4056747
-1.8371164
7.6536807
-1.9166164
7.9215058
-1.9924007
8.2107424
-2.0641725
8.5231092
-2.1316116
8.8604615
-2.1943716
9.2248026
-2.2520782
9.6182968
-2.3043267
10.043281
-2.3506786
10.502278
-2.3906598
10.998009
-2.4237567
11.533407
-2.4494143
12.111638
-2.4670337
12.736117
-2.47597
13.410533
-2.4755307
14.138871
-2.4649718
14.925445
-2.4434938
15.774923
-2.4102335
16.692362
-2.3642563
17.683226
-2.3045463
18.753415
-2.2300002
19.909281
-2.1394212
21.157658
-2.0315231
22.505892
-1.904929
23.96191
-1.758153
25.534376
-1.5896041
27.232387
-1.3975205
29.066851
-1.1800375
31.046641
-0.93511096
33.189028
-0.66032082
35.496689
-0.35357034
38.00649
40.692816
-1.10346
-1.2049904
-1.3045009
-1.4018252
-1.4967859
-1.5891944
-1.6788487
7.2656713
-1.7655313
7.4923635
-1.8490067
7.7371607
-1.92902
8.0015214
-2.0052952
8.287017
-2.0775341
8.5953438
-2.1454142
8.9283332
-2.2085875
9.2879622
-2.2666774
9.676367
-2.3192767
10.095854
-2.3659446
10.548911
-2.4062032
11.038224
-2.4395356
11.566687
-2.4653824
12.137423
-2.4831401
12.753805
-2.4921584
13.419475
-2.4917387
14.138371
-2.4811312
14.914756
-2.4595303
15.753244
-2.4260676
16.658826
-2.3798029
17.636897
-2.3197126
18.693272
-2.2446864
19.834211
-2.1535194
21.066449
-2.0449138
22.397239
-1.9174842
23.834419
-1.7697379
25.386552
-1.6000786
27.062639
-1.4067381
28.873423
-1.1878497
30.827657
-0.94136278
32.942451
-0.66483329
35.220096
-0.35615165
37.697742
40.348162
-1.6898866
-1.7771293
-1.8611448
-1.9416764
-2.0184466
8.3637877
-2.0911553
8.6680498
-2.1594783
8.9966495
-2.2230653
9.3515376
-2.2815378
9.734822
-2.334486
10.148778
-2.3814662
10.595859
-2.4219982
11.078714
-2.4555613
11.600198
-2.4815927
12.163392
-2.4994841
12.771623
-2.5085809
13.428488
-2.5081787
14.137878
-2.4975213
14.904003
-2.4757965
15.731424
-2.4421293
16.625071
-2.3955736
17.590263
-2.3351014
18.632734
-2.2595905
19.758653
-2.1678298
20.974653
-2.0585114
22.287889
-1.9302374
23.706109
-1.7815069
25.237771
-1.6107185
26.891785
-1.4161014
28.678734
-1.1957819
30.607257
-0.94770913
32.694295
-0.66941388
34.941739
-0.35877575
37.387041
40.001265
-2.0318634
-2.1050471
-2.1738167
-2.2378201
-2.296676
9.7936673
-2.3499724
10.202057
-2.3972626
10.643126
-2.4380639
11.119483
-2.4718531
11.633945
-2.4980634
12.189549
-2.5160831
12.789578
-2.5252526
13.437582
-2.5248629
14.137402
-2.5141516
14.893198
-2.4922996
15.709476
-2.4584249
16.591103
-2.4115738
17.543329
-2.3507117
18.571804
-2.2747129
19.682602
-2.1823519
20.882264
-2.0723138
22.177835
-1.9431886
23.576969
-1.7934625
25.088021
-1.6215285
26.71981
-1.4256146
28.482763
-1.2038391
30.385409
-0.95415125
32.444526
-0.67406135
34.661585
-0.36143821
37.074354
39.652097
-2.3120975
-2.365743
-2.4133437
-2.4544129
-2.4884241
11.667931
-2.5148086
12.215899
-2.532951
12.807676
-2.5421882
13.446763
-2.5418056
14.136951
-2.5310353
14.88235
-2.5090514
15.687408
-2.4749642
16.55693
-2.4278126
17.496098
-2.3665539
18.510481
-2.2900559
19.606058
-2.1970888
20.789268
-2.0863223
22.067064
-1.9563373
23.446988
-1.8056063
24.937287
-1.6325126
26.546696
-1.4352825
28.28549
-1.2120252
30.162084
-0.96069011
32.193107
-0.67877508
34.379599
-0.3641376
36.759646
39.300631
-2.5052823
-2.5318381
-2.5500994
-2.5593999
13.456034
-2.5590204
14.136531
-2.5481869
14.871464
-2.5260664
15.665224
-2.4917612
16.522556
-2.444302
17.44857
-2.3826389
18.448757
-2.3056317
19.529007
-2.2120446
20.695657
-2.1005409
21.955554
-1.9696858
23.316145
-1.8179396
24.785556
-1.643674
26.372428
-1.4451085
28.086892
-1.2203436
29.937256
-0.96732738
31.940005
-0.68355482
34.095745
-0.3668687
36.442878
38.94684
-2.5769005
-2.5765204
-2.5656201
-2.5433591
15.642926
-2.508831
16.48798
-2.4610575
17.400743
-2.3989803
18.386627
-2.321453
19.451437
-2.2272324
20.601411
-2.1149756
21.843292
-1.9832377
23.184419
-1.8304658
24.632804
-1.6550153
26.196987
-1.455095
27.886951
-1.228796
29.710899
-0.9740659
31.685189
-0.68840098
33.80999
-0.36962933
36.124011
38.590697
-2.5609425
-2.5261875
-2.4780936
17.35261
-2.4155936
18.324082
-2.3375335
19.373334
-2.2426651
20.506512
-2.1296387
21.730254
-1.9970017
23.05179
-1.8431899
24.479011
-1.6665398
26.020354
-1.4652445
27.685647
-1.2373856
29.482992
-0.98090864
31.428628
-0.69331502
33.522298
-0.3724186
35.803004
38.232174
-2.4954224
-2.4324917
-2.3538877
-2.2583562
20.410946
-2.1445433
21.616422
-2.0109892
22.918238
-1.8561192
24.32416
-1.6782516
25.842509
-1.4755598
27.482962
-1.2461153
29.253517
-0.98785911
31.170295
-0.69829948
33.232635
-0.37523358
35.479811
37.871242
-2.2743189
-2.1597022
-2.0252118
22.783745
-1.8692624
24.168232
-1.6901555
25.663433
-1.4860445
27.278874
-1.2549889
29.022452
-0.99492211
30.910165
-0.70335855
32.94097
-0.37807904
35.15439
37.507868
-2.0396801
-1.8826283
-1.7022573
25.483105
-1.4967029
27.073361
-1.264011
28.789775
-1.0021049
30.648213
-0.70850142
32.647272
-0.38095594
34.826693
37.142018
-1.7145632
-1.5075396
26.866401
-1.2731875
28.555462
-1.0094155
30.384419
-0.7137387
32.351513
-0.38385326
34.496656
36.773662
-1.5185611
-1.282522
-1.0168521
30.118754
-0.71905612
32.053652
-0.38676307
34.164212
36.402783
-1.0244094
-0.72443494
31.753636
-0.38970841
33.829333
36.029346
-0.7298941
-0.39270737
33.492006
35.653303
-0.39576328
)
;

boundaryField
{
    Side
    {
        type            empty;
    }
    Inlet
    {
        type            calculated;
        value           nonuniform List<scalar> 
32
(
-0.0081696156
-0.0082642485
-0.0083496164
-0.0084348767
-0.0085302769
-0.0086425854
-0.0087736696
-0.0089228623
-0.0090915784
-0.0092811731
-0.0094925177
-0.0097260706
-0.0099818634
-0.010259553
-0.010558594
-0.010878352
-0.011218019
-0.01157634
-0.011951439
-0.012340828
-0.012741567
-0.013150419
-0.013564227
-0.013980284
-0.014396316
-0.014810948
-0.01522252
-0.015624765
-0.016015071
-0.016401362
-0.016789205
-0.017178719
)
;
    }
    Airfoil
    {
        type            calculated;
        value           nonuniform List<scalar> 0();
    }
    Outlet
    {
        type            calculated;
        value           nonuniform List<scalar> 0();
    }
    procBoundary4to3
    {
        type            processor;
        value           nonuniform List<scalar> 
57
(
-2.4968514
-2.6115958
-2.7341958
-2.8630053
-2.9983987
-3.1416977
-0.67771386
-3.3861819
-3.5484464
-3.7229614
-3.9110682
-4.1140852