/*--------------------------------*- C++ -*----------------------------------*\
| =========                 |                                                 |
| \\      /  F ield         | OpenFOAM: The Open Source CFD Toolbox           |
|  \\    /   O peration     | Version:  2506                                  |
|   \\  /    A nd           | Website:  www.openfoam.com                      |
|    \\/     M anipulation  |                                                 |
\*---------------------------------------------------------------------------*/
FoamFile
{
    version     2.0;
    format      ascii;
    arch        "LSB;label=32;scalar=64";
    class       volScalarField;
    location    "0.01";
    object      T;
}
// * * * * * * * * * * * * * * * * * * * * * * * * * * * * * * * * * * * * * //

dimensions      [0 0 0 1 0 0 0];

internalField   nonuniform List<scalar> 
13761
(
242.51501
242.30318
242.06546
241.81293
241.54078
241.27502
241.01201
240.73796
240.46591
240.19574
239.93841
239.67107
239.39516
239.10464
238.81899
238.53346
238.25805
237.98649
237.7317
237.47029
237.23169
236.98636
236.76578
236.54376
236.33962
236.14399
235.96868
235.81048
235.63884
235.44118
235.23188
235.06557
234.93863
234.82057
234.70797
234.60497
234.51222
234.42507
234.3367
234.25834
234.1847
234.11613
234.05631
233.99287
233.93093
233.87648
233.82739
233.78368
233.74039
233.69675
233.6554
233.6163
233.58087
233.54644
233.51021
233.47491
233.44258
233.40724
233.40909
234.05006
236.7043
238.55422
239.43833
239.92988
240.19716
240.33604
240.39527
240.4033
240.3788
240.33204
240.27077
240.20059
240.12618
240.05222
239.97962
239.90914
239.8414
239.77688
239.71593
239.65876
239.60548
239.55612
239.51065
239.46907
239.43135
239.39752
239.36765
239.3411
239.31776
239.2977
239.28102
239.26786
239.25842
239.25291
239.25148
239.2542
239.26097
239.27133
239.28401
239.2966
239.30607
239.3107
239.31152
239.31071
239.30996
242.51444
242.30088
242.06216
241.81021
241.53792
241.27158
241.00899
240.73559
240.46565
240.2024
239.94577
239.67314
239.39277
239.10011
238.81334
238.52748
238.24975
237.97635
237.71849
237.45463
237.21342
236.96516
236.74169
236.51686
236.31065
236.11485
235.94131
235.7789
235.5941
235.38327
235.17215
235.01319
234.8893
234.76893
234.65598
234.55254
234.45892
234.37257
234.28585
234.20862
234.13421
234.06524
234.00567
233.94059
233.87828
233.82177
233.76737
233.71552
233.67106
233.63661
233.60414
233.56925
233.53732
233.5058
233.47187
233.43963
233.40524
233.38973
233.45405
234.34553
237.13056
238.82809
239.63465
240.10346
240.39618
240.5795
240.69273
240.75893
240.7929
240.80452
240.80049
240.78548
240.76253
240.73416
240.70243
240.66905
240.63531
240.60204
240.56971
240.5386
240.50893
240.48083
240.45438
240.42963
240.40658
240.38521
240.36548
240.34733
240.33072
240.31555
240.30172
240.28911
240.27756
240.26692
240.25699
240.2476
240.23859
240.22976
240.22079
240.21168
240.20301
240.19583
240.19086
240.18802
240.18684
242.3003
242.06019
241.808
241.53595
241.27016
241.00652
240.73501
240.46871
240.21166
239.95325
239.67512
239.39139
239.09759
238.80948
238.52182
238.24248
237.96756
237.70699
237.44074
237.19638
236.94502
236.71867
236.4909
236.28304
236.08794
235.91483
235.7448
235.54538
235.3242
235.11508
234.96302
234.8389
234.71361
234.59976
234.49431
234.39703
234.30794
234.21862
234.13948
234.06462
233.99734
233.93898
233.87445
233.81393
233.76239
233.7173
233.6772
233.63691
233.59916
233.56408
233.52894
233.49921
233.47308
233.44584
233.41755
233.39169
233.37003
233.41799
234.18752
236.98424
238.77887
239.60559
240.07742
240.35636
240.52059
240.61135
240.65362
240.66368
240.65273
240.62806
240.5942
240.55407
240.51037
240.465
240.41922
240.37387
240.32955
240.28665
240.24552
240.20641
240.16948
240.13481
240.10243
240.07233
240.04446
240.01877
239.9952
239.97371
239.95424
239.93674
239.92117
239.90748
239.8956
239.88547
239.87697
239.86985
239.86389
239.85895
239.85472
239.8509
239.84749
239.84472
239.8428
239.84181
242.29938
242.05929
241.8068
241.5344
241.26948
241.00555
240.73475
240.4755
240.2217
239.95873
239.67587
239.38996
239.09464
238.80522
238.51633
238.23629
237.95908
237.6951
237.42602
237.17901
236.92494
236.69577
236.46565
236.25696
236.06261
235.88883
235.70948
235.49501
235.26596
235.06112
234.91533
234.78985
234.66261
234.54915
234.44204
234.34435
234.25546
234.16738
234.08993
234.01485
233.94633
233.88899
233.8248
233.76282
233.70842
233.65862
233.61324
233.5771
233.55197
233.52435
233.49184
233.46543
233.44224
233.4173
233.39354
233.36767
233.35878
233.42376
234.14336
236.81926
238.75419
239.63043
240.12471
240.42644
240.61438
240.72697
240.78871
240.81577
240.81954
240.80707
240.78337
240.75246
240.71682
240.6784
240.63822
240.59719
240.5563
240.51636
240.47788
240.44116
240.40635
240.37351
240.34263
240.31367
240.28661
240.26137
240.23788
240.21606
240.1958
240.177
240.15955
240.1433
240.12814
240.11391
240.10049
240.08775
240.07564
240.06423
240.05381
240.04492
240.03814
240.0336
240.03097
240.02981
242.29909
242.05797
241.80624
241.53371
241.26864
241.00546
240.73687
240.48512
240.23097
239.96279
239.6768
239.38838
239.09379
238.80244
238.512
238.22944
237.95053
237.68352
237.41208
237.16243
236.90506
236.67288
236.44054
236.2317
236.03867
235.86243
235.67036
235.44096
235.20801
235.00963
234.86785
234.73899
234.60884
234.49471
234.38494
234.28508
234.19322
234.10262
234.02405
233.94947
233.88158
233.8248
233.76318
233.70506
233.65624
233.61548
233.57753
233.53853
233.50396
233.47436
233.44741
233.42628
233.40737
233.38597
233.36175
233.34241
233.32897
233.37766
234.00667
236.57288
238.65061
239.55066
240.06549
240.38456
240.58374
240.7044
240.77156
240.80159
240.80565
240.79188
240.76632
240.73345
240.696
240.65556
240.61356
240.57104
240.52893
240.48772
240.44776
240.40933
240.37268
240.33776
240.30464
240.27339
240.24405
240.21664
240.19111
240.16743
240.14556
240.12543
240.10698
240.09015
240.07488
240.06108
240.04865
240.03743
240.02727
240.018
240.00955
240.00213
239.99621
239.99207
239.9896
239.98851
242.30215
242.05745
241.8055
241.53373
241.26945
241.00605
240.74421
240.49567
240.23873
239.96637
239.67725
239.38764
239.09246
238.79939
238.50732
238.22348
237.94286
237.67248
237.39854
237.14579
236.88567
236.65099
236.41724
236.20858
236.01616
235.83528
235.6286
235.38586
235.15187
234.96025
234.82114
234.68897
234.55829
234.44281
234.33121
234.23165
234.13874
234.04848
233.9706
233.89555
233.82591
233.76833
233.70716
233.64879
233.59764
233.55272
233.51244
233.48135
233.45918
233.43465
233.4082
233.38639
233.36638
233.34604
233.32592
233.30277
233.2957
233.34638
233.89002
236.22009
238.50301
239.46571
240.01327
240.35126
240.56152
240.68973
240.76362
240.80036
240.81043
240.80206
240.78087
240.75079
240.71477
240.67525
240.63428
240.59316
240.55241
240.51248
240.47367
240.43619
240.40009
240.36566
240.33297
240.3021
240.27308
240.24592
240.22054
240.1968
240.17463
240.15391
240.13456
240.11648
240.09956
240.0837
240.06881
240.05481
240.04169
240.02953
240.01859
240.00938
240.00245
239.99793
239.99538
239.9943
242.30459
242.06021
241.80497
241.53416
241.27218
241.01136
240.7525
240.50679
240.24496
239.96909
239.67784
239.38765
239.09193
238.79804
238.50405
238.21765
237.93443
237.66146
237.38518
237.12973
236.86691
236.62939
236.39427
236.1863
235.99458
235.80683
235.58356
235.32972
235.09836
234.91413
234.77519
234.63861
234.50624
234.38919
234.27592
234.1747
234.07894
233.98647
233.90698
233.83333
233.76531
233.70693
233.6475
233.59281
233.54642
233.50746
233.46896
233.42971
233.39683
233.3707
233.35029
233.33327
233.31526
233.29551
233.27451
233.25685
233.2431
233.27627
233.7285
235.90523
238.33495
239.3456
239.91846
240.27387
240.49709
240.63501
240.71585
240.75775
240.77282
240.76927
240.75271
240.72711
240.69528
240.65922
240.62038
240.57992
240.53879
240.49775
240.45743
240.41828
240.38066
240.3448
240.31086
240.2788
240.24855
240.22
240.19308
240.16779
240.14405
240.12184
240.10115
240.08191
240.06406
240.04748
240.03206
240.01771
240.00435
239.99202
239.98092
239.97156
239.96454
239.95999
239.95746
239.9564
242.06287
241.80859
241.53606
241.27777
241.01882
240.76337
240.51586
240.25063
239.97177
239.67887
239.38779
239.09146
238.79588
238.50064
238.21191
237.92696
237.65124
237.37259
237.11419
236.84851
236.60903
236.37352
236.16647
235.97355
235.77598
235.53524
235.27306
235.0464
234.86769
234.7272
234.58719
234.45493
234.33554
234.2204
234.11818
234.02096
233.92772
233.84668
233.77179
233.70267
233.64273
233.58216
233.52566
233.47684
233.43554
233.399
233.37214
233.35099
233.32491
233.29946
233.27999
233.26242
233.24364
233.22355
233.2028
233.19421
233.22363
233.58624
235.4639
238.06001
239.178
239.79861
240.17905
240.41716
240.56521
240.65384
240.70206
240.72224
240.72285
240.70957
240.68657
240.65687
240.6227
240.58574
240.54721
240.50802
240.46886
240.43022
240.39246
240.35585
240.32057
240.28676
240.25452
240.22391
240.19496
240.16768
240.14207
240.11813
240.09572
240.07472
240.05498
240.03641
240.01898
240.00261
239.98725
239.97289
239.95963
239.94779
239.93795
239.93069
239.92608
239.92357
239.92254
242.06798
241.81239
241.54275
241.28538
241.02877
240.77453
240.52365
240.25552
239.97413
239.68013
239.3889
239.09178
238.79485
238.49845
238.20727
237.91924
237.64063
237.35984
237.09891
236.83105
236.58968
236.35394
236.14755
235.95224
235.74283
235.48498
235.2183
234.99849
234.82456
234.68108
234.53761
234.40387
234.28258
234.16583
234.06159
233.96264
233.8675
233.78476
233.71132
233.64405
233.58292
233.52319
233.46847
233.42201
233.38295
233.34312
233.30336
233.27232
233.24821
233.22826
233.21107
233.19401
233.17449
233.15387
233.13684
233.12085
233.13283
233.42124
235.11409
237.78668
239.00977
239.66943
240.07168
240.32514
240.48483
240.58245
240.63775
240.66366
240.66903
240.65983
240.64032
240.61359
240.58189
240.5469
240.50989
240.47181
240.43343
240.39528
240.35781
240.32131
240.28603
240.25212
240.21967
240.18875
240.15938
240.13156
240.10526
240.08046
240.05713
240.03519
240.01461
239.9953
239.9772
239.96025
239.9444
239.92961
239.91595
239.9037
239.89346
239.88596
239.88125
239.87876
239.87778
242.07682
241.8186
241.55103
241.29687
241.03908
240.78351
240.53049
240.25943
239.97654
239.68199
239.39044
239.0914
238.79408
238.49581
238.20285
237.91181
237.63064
237.34797
237.08457
236.81437
236.57141
236.33617
236.13053
235.93046
235.70604
235.43202
235.16373
234.95086
234.77956
234.63203
234.48571
234.351
234.22686
234.10799
234.00139
233.9003
233.80286
233.71726
233.64095
233.57271
233.51088
233.44995
233.39323
233.34395
233.3036
233.26881
233.24183
233.21918
233.19184
233.16515
233.14431
233.12589
233.10473
233.08124
233.05954
233.04782
233.06122
233.276
234.65418
237.38743
238.78325
239.49885
239.92923
240.20051
240.37265
240.47957
240.5422
240.57412
240.58449
240.57963
240.56389
240.54046
240.51165
240.47921
240.44443
240.4083
240.37158
240.33483
240.29851
240.26294
240.22839
240.19502
240.16297
240.13232
240.10312
240.07537
240.04908
240.02422
240.00077
239.97867
239.95787
239.9383
239.91991
239.90263
239.88642
239.87127
239.85728
239.84479
239.83445
239.82696
239.82233
239.81992
239.81898
242.08597
241.82804
241.56059
241.30792
241.04872
240.79102
240.53603
240.2634
239.97909
239.68417
239.39212
239.09269
238.79369
238.49457
238.19898
237.90506
237.62051
237.33575
237.07027
236.79844
236.55463
236.32032
236.11452
235.9073
235.66629
235.37895
235.1131
234.90775
234.73757
234.58545
234.43716
234.30038
234.17451
234.05358
233.9446
233.8425
233.74335
233.65618
233.57967
233.51208
233.44852
233.38813
233.33268
233.28404
233.24163
233.19783
233.15615
233.12544
233.10207
233.08146
233.06125
233.04012
233.01798
232.99612
232.97541
232.95456
232.95203
233.11715
234.31678
237.00177
238.57353
239.33693
239.79354
240.0831
240.26837
240.3849
240.45476
240.49233
240.50721
240.50621
240.49375
240.47316
240.44685
240.41657
240.38364
240.34908
240.31366
240.27797
240.24248
240.20753
240.17341
240.14031
240.10837
240.0777
240.04837
240.02039
239.99379
239.96855
239.94466
239.92206
239.90071
239.88056
239.86155
239.84364
239.82676
239.81095
239.79633
239.78329
239.77255
239.76485
239.76017
239.75779
239.75692
241.83756
241.57237
241.31797
241.05705
240.79719
240.54079
240.26696
239.98148
239.68678
239.39422
239.09344
238.79326
238.49305
238.1951
237.89844
237.61088
237.32441
237.05697
236.78355
236.53914
236.30556
236.09868
235.88193
235.62279
235.32463
235.06318
234.86322
234.6917
234.53561
234.3851
234.24532
234.11637
233.99262
233.88073
233.77545
233.67279
233.58239
233.50159
233.43201
233.36759
233.30479
233.2466
233.1965
233.15558
233.11921
233.08927
233.06173
233.0311
233.00262
232.97837
232.95567
232.93328
232.91041
232.88823
232.87163
232.86965
232.97626
233.88713
236.49323
238.29543
239.12218
239.61356
239.92598
240.12692
240.25473
240.33311
240.37742
240.39788
240.40157
240.39322
240.37625
240.35315
240.32573
240.29535
240.26304
240.22958
240.1956
240.16156
240.12785
240.09475
240.06248
240.03122
240.00108
239.97215
239.94448
239.9181
239.89302
239.86922
239.84668
239.82536
239.80522
239.78621
239.76829
239.75142
239.73561
239.72103
239.70805
239.69739
239.68979
239.68523
239.68295
239.6821
241.84652
241.58263
241.32714
241.06337
240.80285
240.54538
240.2702
239.98528
239.69037
239.39652
239.09577
238.79371
238.49164
238.19191
237.8925
237.60235
237.31318
237.04365
236.76932
236.5252
236.29309
236.08356
235.85451
235.57707
235.27222
235.01778
234.82287
234.64918
234.48917
234.33683
234.19387
234.06355
233.93696
233.82301
233.71629
233.6124
233.52121
233.43904
233.36821
233.30152
233.23872
233.17982
233.12771
233.08124
233.03311
232.98978
232.95752
232.93105
232.90601
232.88136
232.85767
232.83438
232.81141
232.78994
232.7664
232.75461
232.83483
233.59621
236.01513
238.03344
238.92186
239.44811
239.78314
239.99906
240.13721
240.22307
240.27305
240.29802
240.30541
240.30031
240.28622
240.26569
240.24059
240.2123
240.18186
240.15006
240.11752
240.08472
240.05203
240.01976
239.98815
239.95737
239.92755
239.89881
239.87119
239.84475
239.81952
239.79549
239.77264
239.75095
239.73038
239.7109
239.69247
239.67509
239.65878
239.64373
239.63036
239.61945
239.61175
239.6072
239.60499
239.60422
241.85487
241.59157
241.33516
241.06887
240.80739
240.54978
240.27443
239.98865
239.69371
239.39953
239.09727
238.79472
238.49076
238.18855
237.88705
237.594
237.3028
237.03135
236.75643
236.51307
236.28136
236.06687
235.82279
235.52795
235.22012
234.97301
234.78057
234.60273
234.43924
234.2844
234.13758
234.00403
233.87374
233.75634
233.64516
233.53737
233.44239
233.35599
233.28186
233.21345
233.14794
233.08623
233.03328
232.9909
232.95225
232.91754
232.88359
232.84936
232.81782
232.78985
232.76454
232.73922
232.71237
232.68725
232.66832
232.65574
232.69555
233.22567
235.43889
237.68747
238.66405
239.23691
239.6003
239.83471
239.98569
240.08094
240.13809
240.16877
240.18081
240.17976
240.1692
240.15184
240.12962
240.10395
240.0759
240.04628
240.0157
239.98465
239.95352
239.92262
239.89218
239.86241
239.83345
239.80543
239.77841
239.75248
239.72766
239.70397
239.68141
239.65997
239.63962
239.62035
239.60212
239.58495
239.56886
239.55404
239.54093
239.53029
239.52285
239.51854
239.5165
239.51581
241.86166
241.59959
241.34113
241.0739
240.8112
240.55435
240.27878
239.9931
239.69825
239.40251
239.10028
238.79562
238.48999
238.18549
237.88222
237.58696
237.29329
237.0194
236.74458
236.5026
236.27143
236.05
235.78877
235.47843
235.1716
234.93226
234.74137
234.55949
234.39292
234.23582
234.0857
233.94971
233.81636
233.69709
233.58408
233.47513
233.37902
233.29165
233.21497
233.14345
233.07688
233.01263
232.95495
232.90304
232.85071
232.80533
232.77132
232.74166
232.71086
232.68074
232.65396
232.62752
232.60018
232.57395
232.54669
232.52767
232.56239
232.99862
234.92588
237.35165
238.42852
239.04792
239.43765
239.68873
239.85098
239.95416
240.01707
240.05209
240.06756
240.06935
240.06128
240.04618
240.02605
240.00234
239.97613
239.94821
239.91919
239.88955
239.85967
239.82985
239.80034
239.77133
239.74298
239.71541
239.68872
239.66298
239.63825
239.61456
239.59191
239.5703
239.54973
239.53019
239.51166
239.49415
239.47773
239.4626
239.44922
239.4384
239.43089
239.4266
239.42463
239.424
241.86774
241.60673
241.34697
241.07763
240.81623
240.55834
240.28362
239.99766
239.70191
239.40591
239.10271
238.79695
238.4894
238.18343
237.87761
237.58003
237.28405
237.00864
236.73435
236.49394
236.26156
236.03007
235.74987
235.4267
235.1239
234.89163
234.69986
234.51315
234.34335
234.18231
234.02849
233.88836
233.75189
233.62845
233.51033
233.39684
233.29608
233.20528
233.12477
233.05096
232.98157
232.91563
232.85922
232.81256
232.76861
232.7264
232.68552
232.64703
232.61201
232.58004
232.5506
232.52241
232.49398
232.46682
232.44425
232.42279
232.42319
232.68898
234.34857
236.91363
238.13436
238.81199
239.23416
239.50657
239.68374
239.79763
239.86837
239.90926
239.92927
239.93467
239.9297
239.91734
239.8997
239.87833
239.85433
239.8285
239.80146
239.77368
239.74552
239.71729
239.68923
239.66153
239.63437
239.60786
239.58211
239.55721
239.53323
239.5102
239.48816
239.46712
239.44708
239.42805
239.41003
239.39304
239.37715
239.36256
239.34975
239.33945
239.3324
239.32844
239.32666
239.32609
241.61291
241.35185
241.08136
240.81984
240.56373
240.28823
240.00261
239.70697
239.40967
239.10595
238.79855
238.4892
238.18025
237.87347
237.57392
237.27619
236.99916
236.72557
236.48679
236.25213
236.00868
235.70907
235.3767
235.08047
234.85422
234.66041
234.46907
234.29632
234.13228
233.97591
233.83241
233.69273
233.56698
233.4473
233.33254
233.23033
233.13811
233.05394
232.97598
232.90393
232.83373
232.77034
232.71236
232.65513
232.60641
232.56907
232.53374
232.49693
232.46223
232.43172
232.40251
232.37297
232.34497
232.31634
232.2908
232.29788
232.5174
233.85979
236.47763
237.86563
238.59932
239.05142
239.34349
239.5342
239.65748
239.73477
239.78027
239.80361
239.81147
239.80852
239.79787
239.78182
239.76196
239.73944
239.71508
239.6895
239.66313
239.63633
239.60937
239.58248
239.55583
239.52957
239.50383
239.4787
239.45429
239.43067
239.40788
239.38598
239.36499
239.34493
239.32583
239.30774
239.29068
239.27479
239.26034
239.24787
239.23814
239.23196
239.22871
239.22731
239.22675
241.61792
241.3561
241.08533
240.82409
240.56888
240.29394
240.00754
239.71115
239.41376
239.1092
238.80045
238.48949
238.17874
237.86979
237.56782
237.26846
236.99071
236.71857
236.48091
236.24162
235.98324
235.6643
235.32638
235.038
234.8161
234.61878
234.4231
234.24724
234.07837
233.91833
233.77048
233.62757
233.49754
233.37278
233.25275
233.1455
233.05008
232.96307
232.88316
232.80847
232.73667
232.67494
232.62316
232.57221
232.52115
232.47301
232.43043
232.39142
232.35453
232.32166
232.29029
232.25786
232.22757
232.20276
232.17616
232.15713
232.26174
233.3451
235.93932
237.5397
238.33953
238.82893
239.14659
239.35524
239.49116
239.57739
239.62925
239.65717
239.66835
239.668
239.65946
239.64523
239.62707
239.6062
239.5835
239.55958
239.53489
239.50978
239.48448
239.45919
239.43408
239.40928
239.38488
239.361
239.3377
239.31506
239.29313
239.27195
239.25157
239.23199
239.21325
239.19538
239.17841
239.16245
239.14774
239.13472
239.12427
239.11705
239.11317
239.11161
239.11128
241.62213
241.35966
241.08866
240.82893
240.57385
240.3001
240.01298
239.71673
239.41836
239.11292
238.80233
238.48963
238.17677
237.8655
237.56241
237.26204
236.98426
236.71356
236.4761
236.23035
235.95485
235.61838
235.27899
234.99952
234.78002
234.57837
234.37831
234.19868
234.02623
233.86394
233.71236
233.5659
233.43343
233.30714
233.18537
233.07639
232.97888
232.88774
232.80249
232.72451
232.64768
232.57746
232.5139
232.45343
232.40197
232.35938
232.31764
232.27497
232.23541
232.20083
232.16743
232.1326
232.09977
232.06746
232.03782
232.02674
232.12599
232.93447
235.413
237.23753
238.10194
238.62757
238.96957
239.19487
239.34223
239.43628
239.49344
239.52494
239.53852
239.5398
239.53243
239.51912
239.50177
239.48171
239.45986
239.43688
239.41321
239.38918
239.36501
239.34087
239.31689
239.29317
239.26981
239.24687
239.22442
239.20253
239.18124
239.16059
239.14062
239.12135
239.10283
239.0851
239.06821
239.0523
239.03767
239.02486
239.01474
239.00815
239.00471
239.00342
239.00317
241.62681
241.36286
241.09248
240.83385
240.58024
240.30573
240.01899
239.72189
239.42267
239.11667
238.80483
238.48989
238.17588
237.86303
237.55743
237.25632
236.97894
236.7101
236.4719
236.21663
235.92225
235.57058
235.23304
234.96196
234.74282
234.53633
234.33267
234.14925
233.97224
233.80615
233.65022
233.5005
233.36353
233.23289
233.10641
232.99267
232.89216
232.79908
232.7124
232.63193
232.55424
232.48627
232.42734
232.36843
232.30923
232.25476
232.2076
232.16356
232.1216
232.08495
232.04981
232.01382
231.97965
231.94938
231.91632
231.8838
231.90524
232.52092
234.81029
236.87513
237.81914
238.39091
238.76379
239.01021
239.17223
239.27655
239.3409
239.37739
239.39443
239.39803
239.3923
239.38019
239.36379
239.34457
239.32357
239.30151
239.27887
239.25599
239.23307
239.21029
239.18773
239.16548
239.14359
239.1221
239.10107
239.08053
239.06052
239.04106
239.02219
239.00393
238.98631
238.96937
238.95316
238.93779
238.92351
238.91082
238.90058
238.89349
238.88974
238.88834
238.88821
241.36644
241.09585
240.83849
240.58634
240.31216
240.0249
239.72789
239.42757
239.12075
238.80678
238.49099
238.17519
237.85985
237.55314
237.25217
236.97592
236.70872
236.46814
236.20082
235.88657
235.52241
235.18999
234.9271
234.70643
234.4948
234.28728
234.09943
233.91875
233.74956
233.58989
233.43639
233.29681
233.16482
233.03624
232.91993
232.8163
232.71867
232.62697
232.54276
232.45945
232.38328
232.31424
232.25004
232.19533
232.14721
232.09881
232.04946
232.00472
231.96515
231.92668
231.88814
231.85225
231.81699
231.78346
231.76246
231.79815
232.21068
234.24873
236.52668
237.557
238.17552
238.57798
238.84403
239.01948
239.1331
239.20386
239.2447
239.26461
239.26999
239.26532
239.25377
239.23764
239.21854
239.19761
239.17567
239.15326
239.13074
239.10836
239.08625
239.06451
239.04317
239.02227
239.00181
238.98182
238.96232
238.94331
238.92483
238.90689
238.88952
238.87276
238.85668
238.84135
238.82694
238.81374
238.80231
238.79344
238.78789
238.78522
238.78436
238.78423
241.37121
241.09994
240.8444
240.59264
240.31941
240.03048
239.7333
239.43236
239.12461
238.80949
238.49203
238.17489
237.85848
237.55061
237.24937
236.97442
236.70803
236.46363
236.18143
235.84726
235.47483
235.14975
234.89311
234.66915
234.45264
234.24192
234.04993
233.86519
233.69181
233.5287
233.37158
233.22741
233.09103
232.95843
232.83845
232.73268
232.63317
232.54
232.45344
232.36998
232.29603
232.22973
232.16342
232.09695
232.03711
231.98632
231.93792
231.89165
231.85093
231.81104
231.77031
231.73174
231.69739
231.6612
231.61763
231.60243
231.90377
233.65388
236.11238
237.25628
237.93225
238.37007
238.65967
238.85146
238.97662
239.05557
239.10219
239.12611
239.13417
239.13127
239.1208
239.10528
239.08649
239.06571
239.04384
239.02153
238.99922
238.97719
238.95563
238.93462
238.91422
238.89442
238.87519
238.85651
238.83835
238.8207
238.80354
238.78686
238.77067
238.75499
238.73987
238.72536
238.7116
238.69885
238.68762
238.67873
238.67282
238.66993
238.66902
238.66902
241.37558
241.10533
240.8502
240.59971
240.32535
240.03747
239.73897
239.43729
239.12939
238.81193
238.49384
238.17509
237.85754
237.5484
237.24817
236.97417
236.70875
236.45846
236.15861
235.80529
235.42829
235.11171
234.85973
234.6313
234.40998
234.1953
233.99891
233.8106
233.63303
233.46601
233.3046
233.15749
233.01915
232.88479
232.76223
232.65301
232.5486
232.45089
232.36066
232.27205
232.19092
232.11767
232.05149
231.99335
231.93922
231.88466
231.83023
231.78066
231.73675
231.69452
231.65172
231.61187
231.57315
231.53742
231.51267
231.51577
231.68957
233.14157
235.70863
236.98172
237.71471
238.18553
238.49675
238.70349
238.83918
238.92554
238.97732
239.00477
239.01511
239.01364
239.00392
238.98866
238.9698
238.94872
238.92642
238.90362
238.88083
238.85838
238.8365
238.81535
238.79498
238.77542
238.75665
238.73862
238.7213
238.70462
238.68852
238.67297
238.65792
238.64337
238.62933
238.61585
238.60306
238.59123
238.58087
238.57278
238.56765
238.56524
238.5646
238.56469
241.11034
240.85726
240.60645
240.3327
240.04316
239.74517
239.44274
239.13362
238.81524
238.49615
238.17547
237.85727
237.54807
237.24809
236.97533
236.71139
236.45041
236.13121
235.76161
235.38416
235.07722
234.82758
234.59371
234.36796
234.14989
233.94959
233.75727
233.57523
233.40536
233.24091
233.08935
232.94644
232.80895
232.68343
232.57244
232.46653
232.36789
232.27595
232.18765
232.10817
232.03517
231.96256
231.89072
231.82754
231.77408
231.72303
231.67395
231.6302
231.58694
231.54338
231.50081
231.46142
231.41927
231.36755
231.33712
231.46777
232.63663
235.24459
236.67989
237.47849
237.98701
238.3234
238.54773
238.69595
238.7913
238.84951
238.88155
238.8951
238.8958
238.88747
238.873
238.8545
238.83346
238.81098
238.78785
238.76466
238.7418
238.71957
238.69815
238.67767
238.65818
238.63969
238.62219
238.60562
238.58992
238.57499
238.56076
238.54714
238.53406
238.52151
238.50947
238.49802
238.48737
238.47796
238.4705
238.4656
238.46328
238.46265
238.46277
241.11607
240.86374
240.61408
240.33956
240.04968
239.75146
239.44802
239.13872
238.8189
238.49885
238.17717
237.85772
237.54799
237.24878
236.98041
236.7152
236.43966
236.10008
235.7165
235.34191
235.0439
234.79426
234.55445
234.32447
234.10196
233.89762
233.7017
233.51519
233.34081
233.17224
233.01728
232.87167
232.73191
232.60357
232.48898
232.37862
232.276
232.18015
232.08653
232.00135
231.92527
231.85669
231.79537
231.73669
231.67776
231.61979
231.56764
231.52117
231.47632
231.43149
231.38991
231.3499
231.31461
231.28861
231.27311
231.3258
232.24129
234.80306
236.41235
237.27353
237.81668
238.17619
238.41668
238.57631
238.67975
238.74371
238.77979
238.79617
238.79875
238.79163
238.77783
238.75958
238.73848
238.7157
238.69209
238.66825
238.64466
238.62163
238.5994
238.57813
238.55791
238.5388
238.52083
238.50399
238.48825
238.47357
238.45986
238.44706
238.43508
238.42386
238.41334
238.40353
238.39457
238.38682
238.38084
238.37716
238.37559
238.37532
238.3755
241.12185
240.87033
240.62107
240.34674
240.05647
239.75752
239.45459
239.14386
238.82272
238.50217
238.17922
237.86001
237.55012
237.25536
236.98864
236.71677
236.42474
236.06497
235.67166
235.30341
235.01374
234.76251
234.51702
234.28309
234.05653
233.8486
233.64878
233.45774
233.28055
233.10947
232.95052
232.80052
232.65762
232.52728
232.41094
232.29951
232.19617
232.09948
232.00625
231.92201
231.84415
231.76629
231.69056
231.62603
231.57208
231.51926
231.46856
231.4231
231.37777
231.33273
231.28868
231.2473
231.2027
231.14882
231.1142
231.16627
231.87172
234.32476
236.12853
237.05833
237.64062
238.02684
238.28603
238.4589
238.57184
238.64264
238.68366
238.70359
238.70867
238.70332
238.69073
238.67326
238.65259
238.62998
238.60634
238.58233
238.5584
238.53492
238.51214
238.49023
238.46931
238.44947
238.43075
238.41319
238.39678
238.38152
238.36738
238.35432
238.34229
238.33125
238.32113
238.31193
238.30371
238.29669
238.2913
238.28794
238.2865
238.28626
238.28645
241.12697
240.87721
240.62819
240.35441
240.06363
239.76502
239.45979
239.14964
238.82749
238.50578
238.18222
237.86334
237.55616
237.26329
236.99665
236.71632
236.40598
236.02685
235.62724
235.2667
234.98361
234.72837
234.47686
234.23899
234.00745
233.79545
233.59162
233.39658
233.21464
233.0392
232.87683
232.72374
232.5777
232.44405
232.32375
232.2079
232.10095
232.00131
231.90407
231.81585
231.73798
231.66767
231.60245
231.53926
231.47767
231.41878
231.36555
231.31771
231.27222
231.22643
231.18326
231.14303
231.10959
231.08619
231.06209
231.0672
231.61119
233.89255
235.88306
236.87565
237.49383
237.90468
238.18104
238.36599
238.48746
238.56429
238.60953
238.6324
238.63947
238.63547
238.62376
238.60679
238.58636
238.56375
238.53992
238.51555
238.49114
238.46704
238.44351
238.42073
238.39883
238.37787
238.35794
238.33907
238.32129
238.30459
238.28899
238.27449
238.26109
238.2488
238.23764
238.22767
238.21903
238.21197
238.20685
238.20392
238.20284
238.2028
238.20304
240.88448
240.63554
240.36164
240.07087
239.77188
239.46682
239.15542
238.83251
238.51037
238.18659
237.86814
237.56327
237.27373
237.00629
236.71422
236.38334
235.98679
235.58511
235.2339
234.95612
234.69586
234.43908
234.19787
233.96262
233.74687
233.53869
233.33993
233.15488
232.9766
232.81089
232.65478
232.50578
232.37069
232.2492
232.13227
232.02448
231.9238
231.82646
231.73773
231.6551
231.57362
231.49616
231.43135
231.37639
231.32227
231.27031
231.22359
231.17769
231.13239
231.08816
231.04678
231.0014
230.94586
230.91036
230.93104
231.34112
233.41439
235.59547
236.66165
237.32328
237.7638
238.06082
238.2604
238.39228
238.47663
238.52734
238.5542
238.56419
238.56235
238.55223
238.53645
238.51691
238.49499
238.47168
238.44773
238.42365
238.39983
238.37653
238.35394
238.33219
238.31134
238.29146
238.27256
238.25467
238.23777
238.22187
238.20695
238.19303
238.18011
238.16823
238.15749
238.14808
238.1403
238.13462
238.13133
238.13007
238.12995
238.13016
240.89068
240.64314
240.36949
240.07866
239.7791
239.47354
239.16141
238.83815
238.51605
238.19226
237.87547
237.57351
237.28676
237.01534
236.70872
236.3565
235.94515
235.54463
235.20276
234.92732
234.66051
234.3982
234.15311
233.91335
233.69327
233.48057
233.27829
233.08866
232.90593
232.73678
232.57785
232.42437
232.28491
232.15917
232.03798
231.92723
231.82401
231.72412
231.63369
231.55404
231.48143
231.41231
231.34601
231.28301
231.22326
231.16914
231.11999
231.07302
231.02637
230.98292
230.94284
230.91069
230.88964
230.85799
230.8413
231.13784
232.95778
235.30504
236.4539
237.16146
237.63163
237.94852
238.16178
238.30329
238.39445
238.44997
238.48021
238.49252
238.49226
238.48314
238.46793
238.44865
238.42675
238.4033
238.37907
238.35462
238.33037
238.3066
238.28352
238.26128
238.23996
238.21963
238.20032
238.18204
238.16478
238.14854
238.13329
238.11902
238.10575
238.09349
238.08232