/*--------------------------------*- C++ -*----------------------------------*\
| =========                 |                                                 |
| \\      /  F ield         | OpenFOAM: The Open Source CFD Toolbox           |
|  \\    /   O peration     | Version:  2506                                  |
|   \\  /    A nd           | Website:  www.openfoam.com                      |
|    \\/     M anipulation  |                                                 |
\*---------------------------------------------------------------------------*/
FoamFile
{
    version     2.0;
    format      ascii;
    arch        "LSB;label=32;scalar=64";
    class       volScalarField;
    location    "0.0325";
    object      Ma;
}
// * * * * * * * * * * * * * * * * * * * * * * * * * * * * * * * * * * * * * //

dimensions      [0 0 0 0 0 0 0];

internalField   nonuniform List<scalar> 
13761
(
0.70594009
0.70899882
0.71185634
0.71452344
0.71701047
0.71932786
0.72148561
0.72349319
0.72535989
0.72709465
0.72870581
0.73020057
0.73158343
0.73285176
0.73397975
0.73484073
0.73491154
0.73301245
0.72828821
0.72081416
0.71094931
0.69908533
0.68556276
0.67060788
0.65431684
0.63665985
0.61748419
0.59651099
0.57330699
0.54721019
0.51723087
0.48187724
0.43881164
0.38445473
0.31453881
0.22915813
0.13711138
0.045985777
0.66269582
0.6673154
0.6716693
0.67576691
0.67961802
0.68323264
0.68662123
0.68979413
0.69276184
0.69553472
0.69812319
0.70053728
0.70278706
0.7048822
0.70683186
0.70864502
0.71033032
0.71189584
0.71334864
0.71469337
0.71592874
0.71703657
0.71793284
0.71826559
0.71706205
0.71323966
0.70657612
0.69736052
0.68599473
0.67285817
0.65822174
0.64221969
0.62485045
0.60598083
0.5853452
0.56251995
0.53685208
0.50736313
0.47257927
0.43019788
0.3767186
0.30804908
0.22444028
0.13440112
0.045132493
0.64726592
0.65173011
0.65593715
0.65989618
0.66361671
0.66710844
0.67038154
0.67344604
0.6763121
0.67898977
0.68148916
0.68381998
0.68599199
0.68801457
0.68989657
0.6916467
0.69327333
0.69478428
0.69618646
0.69748458
0.69867825
0.69975406
0.70065371
0.70114105
0.70047162
0.69750139
0.69167972
0.68315294
0.67230877
0.6595607
0.64522772
0.62948797
0.61237351
0.59377483
0.57344259
0.5509651
0.52570015
0.49668225
0.4624576
0.42076246
0.36818428
0.30082825
0.21912954
0.1313016
0.044135566
0.63175961
0.63606144
0.64011469
0.64392824
0.64751136
0.65087348
0.65402446
0.65697406
0.65973212
0.66230841
0.66471271
0.66695445
0.66904306
0.67098764
0.67279674
0.6744788
0.67604189
0.67749361
0.67884067
0.68008778
0.68123516
0.68227243
0.68315708
0.68372762
0.68344046
0.68122967
0.67626541
0.6684738
0.65818768
0.64584262
0.63180679
0.61630774
0.59941695
0.58105328
0.56098704
0.53882076
0.51392468
0.48534768
0.45165777
0.41063353
0.35895983
0.29296397
0.21329341
0.12785681
0.043011521
0.61622485
0.62036046
0.62425617
0.62792062
0.63136285
0.63459204
0.63761776
0.6404495
0.64309681
0.64556915
0.647876
0.65002648
0.65202973
0.65389452
0.65562913
0.65724169
0.65874
0.66013139
0.66142235
0.66261754
0.66371755
0.66471403
0.66557435
0.6661844
0.66615594
0.66458259
0.66046596
0.65345983
0.64378419
0.63187356
0.61814212
0.60287162
0.58617936
0.568018
0.54818153
0.5262895
0.50172643
0.47355704
0.44037281
0.39999799
0.3492243
0.28462421
0.20707605
0.12416627
0.0417987
0.59649759
0.60070415
0.60467204
0.6084088
0.61192287
0.61522302
0.61831819
0.62121768
0.62393069
0.62646648
0.62883419
0.63104301
0.63310173
0.63501918
0.63680383
0.63846363
0.64000645
0.64143978
0.64277067
0.64400539
0.6451485
0.6462008
0.64715533
0.64798585
0.64860821
0.64874507
0.64767328
0.64435585
0.63817586
0.62917398
0.61774544
0.60433974
0.58929548
0.57278231
0.55479298
0.53514999
0.51349332
0.48922414
0.46142466
0.42871172
0.38895891
0.33907495
0.2759001
0.2005545
0.12028074
0.040515487
0.58120358
0.58523363
0.589034
0.59261206
0.59597603
0.59913446
0.60209601
0.60486972
0.60746448
0.60988925
0.61215288
0.61426421
0.61623173
0.61806396
0.61976903
0.6213546
0.62282823
0.62419713
0.62546806
0.62664705
0.62773851
0.62874339
0.62965565
0.63045331
0.63107133
0.63130779
0.63060698
0.62800012
0.62266171
0.61439955
0.60351584
0.59047311
0.57566487
0.55931885
0.54147479
0.52198947
0.50052743
0.47650939
0.44903729
0.41675561
0.37759168
0.32858287
0.26685978
0.19378777
0.11623956
0.039176248
0.56190633
0.56598867
0.56984351
0.57347771
0.57689843
0.58011369
0.58313176
0.58596107
0.58861035
0.5910882
0.59340327
0.59556408
0.59757917
0.5994567
0.60120485
0.60283145
0.60434386
0.60574932
0.60705474
0.60826663
0.60939074
0.61043132
0.61138939
0.61225956
0.6130227
0.61362619
0.61391809
0.61347705
0.6114632
0.60694309
0.59947654
0.58921136
0.57658575
0.56203808
0.54585742
0.52813742
0.50877563
0.48746626
0.46365317
0.43646084
0.40456441
0.36595051
0.31779889
0.2575534
0.18682007
0.11207207
0.037791636
0.54697681
0.55087696
0.55455878
0.55802896
0.56129448
0.56436312
0.56724291
0.56994199
0.57246881
0.57483166
0.57703887
0.57909864
0.58101919
0.58280835
0.58447398
0.58602359
0.58746424
0.58880286
0.59004607
0.59120008
0.59227042
0.59326114
0.59417324
0.59500181
0.59572969
0.59631243
0.59663099
0.59636345
0.59481513
0.59104667
0.58440572
0.57483484
0.56269619
0.54845079
0.5324471
0.51483841
0.49556999
0.47437156
0.4507146
0.42374972
0.39218675
0.35407876
0.30676429
0.24802364
0.17968974
0.10780375
0.036370845
0.52823209
0.53216776
0.53588844
0.53939995
0.54270879
0.54582175
0.54874635
0.55149037
0.55406168
0.5564684
0.55871852
0.56082006
0.5627809
0.5646089
0.56631161
0.56789653
0.56937088
0.57074139
0.5720147
0.57319715
0.57429466
0.57531249
0.57625451
0.57712167
0.57790935
0.57860178
0.57916003
0.57948672
0.57933014
0.57812808
0.57500899
0.56918376
0.56037095
0.54879928
0.53491561
0.51911694
0.50161877
0.48242054
0.46129391
0.43774326
0.41094984
0.37966336
0.34201265
0.29551479
0.23830912
0.17243158
0.10345742
0.034922075
0.50978444
0.51374505
0.51749513
0.52103948
0.52438375
0.52753426
0.53049759
0.53328102
0.53589206
0.53833827
0.5406275
0.54276739
0.54476565
0.54662985
0.5483675
0.54998583
0.55149203
0.55289297
0.55419511
0.55540479
0.55652804
0.55757052
0.55853722
0.55943181
0.56025515
0.56100281
0.56165999
0.5621915
0.56251444
0.56242542
0.5614697
0.5588794
0.55381502
0.54579537
0.53486989
0.52142224
0.50587495
0.48850207
0.46936173
0.44827384
0.42478157
0.39810229
0.3670323
0.32978809
0.28408888
0.22845306
0.16508404
0.099057873
0.033454049
0.49166097
0.49563509
0.49940412
0.50297194
0.50634321
0.50952345
0.51251877
0.51533556
0.51798082
0.52046179
0.52278573
0.52496017
0.52699244
0.52888992
0.53065985
0.53230942
0.53384553
0.53527505
0.53660454
0.53784015
0.53898792
0.54005361
0.54104259
0.54195959
0.54280808
0.54358879
0.54429739
0.54491973
0.54542324
0.54573474
0.54568384
0.54489716
0.54271566
0.53831947
0.53108622
0.52086949
0.50793877
0.4927062
0.47549143
0.45641156
0.43533978
0.4118641
0.38524429
0.35433163
0.3174454
0.27253387
0.21850933
0.15769354
0.094634477
0.031976974
0.47786255
0.48163903
0.48521971
0.48860843
0.49180976
0.49482905
0.49767225
0.50034549
0.50285552
0.50520928
0.50741373
0.50947607
0.51140331
0.51320249
0.51488053
0.51644429
0.51790034
0.51925522
0.52051519
0.52168609
0.52277369
0.52378344
0.52472045
0.5255892
0.52639291
0.52713218
0.52780269
0.52839076
0.52886559
0.52916059
0.52912795
0.52845347
0.52657486
0.52273308
0.51623435
0.50675592
0.4944159
0.47957211
0.46256592
0.44356684
0.4225035
0.39901402
0.37240747
0.34160026
0.30503276
0.26091165
0.20854742
0.1503181
0.090223507
0.03050341
0.46045258
0.46422384
0.46780556
0.47120067
0.47441297
0.47744697
0.48030787
0.48300143
0.48553359
0.48791081
0.49013975
0.49222706
0.4941796
0.49600408
0.49770718
0.49929547
0.50077548
0.50215346
0.5034356
0.50462786
0.50573579
0.50676484
0.50772019
0.50860667
0.50942851
0.5101887
0.51088766
0.51152103
0.5120754
0.51252116
0.51279624
0.51276826
0.51216532
0.51050351
0.50709962
0.50124742
0.49249377
0.48079468
0.46641278
0.44967817
0.43079786
0.40975344
0.38623672
0.3596131
0.32887596
0.29260797
0.24930242
0.19865596
0.14302977
0.085869852
0.029048999
0.44343174
0.44718465
0.45075487
0.45414441
0.45735624
0.46039416
0.46326262
0.46596675
0.46851213
0.47090452
0.47315016
0.47525545
0.47722675
0.47907061
0.48079343
0.48240156
0.48390123
0.48529864
0.4865997
0.48781027
0.48893599
0.48998208
0.49095373
0.49185579
0.49269283
0.49346879
0.49418643
0.49484596
0.49544293
0.49596402
0.49638041
0.49663303
0.4966001
0.49603966
0.49452816
0.49145619
0.48614293
0.47805851
0.46701392
0.45315086
0.43675298
0.41804223
0.39704489
0.37350758
0.34685907
0.31618335
0.28022836
0.23779573
0.18893385
0.13590804
0.081623559
0.027631533
0.42682631
0.43054842
0.43409499
0.43746723
0.44066722
0.44369801
0.44656339
0.44926776
0.45181614
0.45421401
0.45646695
0.45858102
0.46056238
0.46241716
0.46415166
0.46577198
0.46728419
0.46869426
0.47000805
0.47123118
0.47236922
0.47342748
0.47441092
0.4753244
0.47617253
0.47695955
0.47768916
0.47836383
0.47898357
0.47954373
0.48003099
0.4804169
0.48064433
0.48059869
0.48005912
0.4786472
0.47581728
0.47093168
0.46342937
0.45301102
0.43969324
0.42368494
0.4051966
0.38428555
0.36075114
0.33409255
0.30349988
0.26790958
0.22644178
0.17943839
0.12899514
0.077509815
0.02625986
0.41065914
0.41433891
0.41785097
0.42119537
0.42437343
0.42738734
0.43024014
0.43293561
0.43547811
0.43787255
0.44012424
0.44223863
0.44422156
0.44607898
0.44781681
0.44944107
0.45095764
0.45237233
0.45369083
0.45491876
0.45606146
0.45712423
0.45811213
0.45902986
0.45988204
0.46067301
0.46140678
0.46208678
0.46271526
0.46329197
0.46381205
0.46426204
0.46461362
0.46481073
0.46474349
0.46420577
0.46285231
0.46018901
0.45562507
0.44859894
0.43873968
0.42595341
0.41035985
0.39213389
0.37134629
0.34784339
0.32120015
0.29072853
0.25557411
0.21517115
0.17008501
0.12219348
0.073445944
0.02489642
0.39494689
0.39857394
0.40204159
0.40534901
0.40849643
0.41148528
0.4143178
0.41699709
0.41952688
0.42191147
0.42415566
0.42626463
0.42824364
0.43009837
0.43183453
0.43345782
0.43497401
0.43638874
0.43770756
0.4389359
0.44007911
0.44114228
0.44213047
0.44304846
0.44390073
0.44469165
0.44542532
0.44610553
0.44673548
0.44731714
0.44785005
0.44832906
0.44874049
0.44905581
0.44921939
0.44912418
0.44857409
0.44724791
0.44469173
0.44035832
0.43370255
0.42431492
0.41201633
0.39683823
0.37890372
0.35827948
0.33484962
0.30826677
0.27797663
0.24334569
0.20410061
0.16095626
0.11555084
0.069455899
0.023548047
0.37970145
0.38326586
0.38668004
0.38994199
0.39305106
0.39600767
0.39881336
0.40147044
0.40398201
0.40635181
0.40858405
0.41068345
0.41265505
0.41450398
0.4162357
0.41785573
0.41936956
0.42078273
0.42210062
0.42332853
0.42447166
0.42553507
0.42652362
0.42744209
0.428295
0.42908659
0.42982097
0.43050201
0.43113323
0.43171759
0.4322568
0.4327501
0.43319205
0.43356856
0.43385076
0.43398294
0.43385963
0.4332917
0.43197574
0.4294891
0.42532226
0.41895354
0.40995786
0.39809688
0.38332575
0.36571062
0.34530192
0.32201261
0.29557214
0.26556492
0.23157444
0.1935751
0.15235494
0.10930974
0.065704583
0.022278652
0.36842503
0.37177691
0.37498539
0.37804875
0.38096655
0.38373935
0.38636879
0.38885726
0.39120785
0.39342429
0.39551071
0.39747174
0.39931226
0.40103726
0.40265201
0.40416181
0.40557192
0.40688765
0.40811411
0.40925637
0.41031934
0.41130785
0.41222646
0.41307969
0.41387182
0.41460682
0.41528856
0.41592065
0.41650639
0.41704845
0.41754831
0.41800489
0.4184124
0.41875632
0.41900727
0.41910911
0.41895716
0.41836721
0.41704933
0.41460557
0.41055826
0.40441086
0.39573694
0.38426072
0.36987765
0.35260094
0.33245961
0.30938926
0.28319326
0.25359176
0.22036586
0.18368043
0.14433489
0.10350228
0.062210151
0.021094035
0.35405886
0.35733967
0.3604867
0.36349718
0.36636962
0.36910377
0.37170032
0.37416099
0.37648822
0.3786851
0.3807553
0.38270288
0.38453233
0.38624841
0.38785591
0.38935989
0.39076545
0.3920776
0.39330139
0.3944417
0.39550332
0.3964909
0.397409
0.39826192
0.39905392
0.39978902
0.40047095
0.40110334
0.40168955
0.40223265
0.40273508
0.40319803
0.40362012
0.40399518
0.40430822
0.40452919
0.40460132
0.40442007
0.40380469
0.40247573
0.40005501
0.39609169
0.39011357
0.38170117
0.37055792
0.3565366
0.33960708
0.31977807
0.29700462
0.27115942
0.24208776
0.20973785
0.17440754
0.13686722
0.098099781
0.058954211
0.019987815
0.3401724
0.34337324
0.34645067
0.34940091
0.35222144
0.354911
0.35746946
0.35989765
0.36219735
0.36437101
0.36642168
0.36835298
0.37016886
0.37187368
0.37347201
0.37496846
0.37636789
0.37767515
0.37889502
0.38003228
0.38109157
0.38207741
0.3829942
0.38384622
0.38463754
0.38537214
0.38605381
0.38668603
0.38727222
0.3878155
0.3883187
0.38878404
0.38921243
0.3896022
0.38994676
0.39023058
0.39042288
0.39046599
0.39025511
0.3896119
0.3882652
0.38585309
0.38194749
0.37609892
0.36789946
0.35704368
0.34335674
0.3267769
0.30729768
0.28489284
0.25949823
0.23106798
0.19968206
0.16572164
0.12990693
0.093066297
0.055916096
0.018953565
0.32676938
0.32988083
0.33288021
0.33576253
0.33852426
0.34116313
0.34367802
0.34606897
0.34833687
0.35048353
0.35251138
0.35442345
0.35622324
0.35791459
0.35950169
0.36098894
0.36238075
0.36368176
0.36489658
0.36602973
0.36708576
0.36806904
0.36898384
0.36983431
0.37062446
0.37135813
0.37203905
0.37267077
0.37325655
0.37379958
0.37430277
0.37476874
0.37519944
0.37559556
0.3759551
0.37627103
0.37652725
0.37669214
0.37670699
0.37646638
0.37579366
0.37442445
0.37201051
0.36814344
0.36239482
0.35437081
0.34376541
0.3303884
0.31415782
0.29505876
0.27308412
0.24822558
0.22052703
0.19016568
0.15756811
0.12339696
0.088358634
0.053070898
0.017983404
0.31385277
0.31686478
0.31977703
0.32258331
0.32527891
0.32786054
0.33032611
0.33267467
0.33490633
0.33702203
0.3390236
0.34091342
0.34269445
0.34437006
0.34594397
0.3474202
0.34880295
0.35009642
0.35130501
0.35243311
0.35348499
0.35446495
0.3553771
0.35622547
0.35701396
0.35774634
0.3584262
0.35905704
0.35964218
0.36018469
0.3606875
0.36115336
0.36158465
0.36198311
0.36234917
0.3626805
0.36296962
0.3631998
0.36333852
0.36332589
0.36305562
0.36235225
0.36095712
0.35853385
0.35469148
0.34902117
0.34114454
0.33076088
0.31767393
0.3017914
0.2830965
0.26160182
0.23734701
0.21044648
0.18114487
0.14988771
0.11728077
0.08393544
0.050394904
0.017069814
0.30142533
0.30432709
0.30714236
0.30986375
0.31248533
0.31500265
0.3174126
0.31971327
0.32190379
0.32398435
0.32595591
0.32782026
0.32957973
0.33123717
0.33279583
0.33425927
0.33563132
0.33691597
0.33811724
0.33923927
0.34028621
0.3412621
0.34217099
0.34301674
0.34380315
0.34453385
0.3452124
0.34584216
0.3464264
0.34696822
0.34747048
0.34793593
0.34836711
0.34876618
0.3491347
0.34947282
0.34977787
0.35004192
0.35024756
0.35036129
0.35032196
0.35002223
0.34928749
0.34786409
0.34542621
0.3415987
0.33599115
0.32824151
0.31805833
0.30524639
0.28971093
0.27143878
0.25046219
0.22686092
0.20080242
0.17257507
0.14262624
0.11150926
0.079761324
0.047867844
0.016206353
0.28949023
0.29226988
0.29497747
0.29760425
0.3001431
0.30258838
0.3049358
0.30718245
0.30932652
0.31136722
0.31330475
0.31514009
0.31687495
0.31851158
0.32005271
0.32150146
0.3228612
0.32413557
0.32532837
0.32644337
0.32748449
0.32845565
0.32936065
0.33020328
0.33098718
0.3317159
0.33239285
0.33302137
0.33360457
0.33414554
0.33464715
0.33511208
0.33554289
0.3359419
0.33631113
0.33665189
0.33696408
0.3372447
0.33748534
0.33766786
0.33775775
0.33769248
0.33736358
0.33659707
0.33514382
0.3326877
0.3288682
0.32331251
0.31567535
0.30567743
0.29312969
0.27794083
0.26010528
0.23967441
0.21676052
0.19156944
0.1644155
0.13573749
0.106042
0.075807484
0.045473208
0.015387756
0.28069597
0.28328404
0.28580554
0.28825202
0.29061661
0.29289387
0.2950797
0.29717129
0.29916692
0.30106584
0.30286825
0.30457509
0.30618799
0.30770909
0.30914099
0.31048663
0.31174922
0.31293218
0.31403911
0.31507355
0.3160392
0.31693973
0.31777871
0.31855969
0.31928609
0.31996121
0.32058826
0.32117034
0.32171038
0.32221124
0.32267561
0.32310597
0.32350471
0.32387398
0.32421559
0.32453066
0.32481884
0.32507678
0.32529556
0.32545631
0.32552342
0.32543295
0.32507523
0.3242768
0.32279275
0.32031603
0.31649997
0.3109887
0.3034541
0.29363093
0.28133998
0.26649762
0.24910857
0.22924206
0.20703629
0.18272358
0.15663145
0.12918413
0.10084708
0.072051344
0.043198043
0.014609872
0.26960906
0.2720647
0.27446905
0.27681246
0.27908673
0.2812852
0.28340259
0.28543495
0.28737955
0.2892347
0.29099968
0.29267466
0.29426048
0.29575869
0.29717131
0.29850078
0.29974987
0.30092158
0.30201916
0.30304594
0.30400528
0.30490064
0.30573545
0.30651304
0.30723676
0.30790977
0.30853518
0.30911597
0.30965503
0.3101551
0.31061884
0.31104876
0.31144717
0.31181627
0.31215806
0.31247416
0.31276549
0.31303146
0.31326836
0.31346675
0.31360698
0.31365231
0.31353735
0.31315119
0.31232089
0.31080557
0.30830689
0.30449145
0.29901987
0.29158132
0.281926
0.26988708
0.25539138
0.23845544
0.21916474
0.19767754
0.17424346
0.1491943
0.12293661
0.095899636
0.068475263
0.041032156
0.013869432
0.25901417
0.2613232
0.26359737
0.26582576
0.26799894
0.27010893
0.27214924
0.27411473
0.27600154
0.27780698
0.27952939
0.28116801
0.28272295
0.28419497
0.2855855
0.28689641
0.28812996
0.28928875
0.29037558
0.29139348
0.29234558
0.293235
0.29406497
0.2948387
0.2955593
0.29622988
0.2968534
0.29743274
0.2979707
0.29846996
0.29893307
0.2993625
0.2997606
0.30012949
0.30047123
0.30078765
0.30108021
0.30134964
0.30159507
0.30181245
0.30199179
0.30211265
0.30213713
0.30199835
0.30158419
0.30072223
0.2991756
0.29665441
0.29283815
0.28740361
0.28005731
0.27056574
0.25877606
0.24462735
0.22814854
0.20943952
0.18867367
0.16611091
0.14208124
0.11697209
0.091180706
0.065065825
0.038967742
0.013163879
0.24891789
0.25106475
0.2531944
0.25529458
0.25735459
0.25936522
0.26131867
0.26320858
0.26502991
0.26677883
0.26845269
0.27004981
0.27156936
0.27301138
0.27437651
0.27566605
0.27688169
0.27802553
0.27909997
0.28010762
0.28105127
0.28193384
0.28275823
0.28352745
0.28424447
0.28491221
0.28553353
0.28611121
0.28664793
0.28714627
0.28760873
0.28803769
0.28843544
0.28880416
0.28914582
0.28946234
0.28975536
0.29002622
0.29027542
0.29050188
0.29070116
0.29086271
0.29096526
0.29096974
0.29080776
0.29036607
0.28947284
0.28789521
0.28535166
0.28153429
0.2761358
0.26888004
0.2595503
0.24800868
0.23420744
0.21818783
0.20006221
0.18001498
0.15831106
0.13527453
0.11127334
0.086676129
0.061812995
0.036998936
0.012491278
0.24129636
0.24326569
0.24522309
0.24715656
0.2490556
0.25091117
0.25271559
0.25446261
0.25614723
0.25776566
0.25931523
0.26079418
0.26220165
0.26353754
0.26480238
0.26599729
0.2671238
0.26818383
0.26917956
0.27011339
0.27098791
0.27180582
0.27256979
0.27328262
0.27394706
0.27456581
0.27514153
0.27567679
0.27617409
0.27663581
0.27706429
0.27746172
0.27783024
0.27817186
0.27848843
0.27878169
0.27905317
0.27930402
0.27953458
0.27974351
0.27992599
0.2800709
0.28015614
0.2801414
0.27995684
0.27948812
0.27856414
0.27695616
0.27439096
0.27057309
0.26521093
0.25804561
0.24887737
0.23758371
0.22413035
0.20857037
0.19102662
0.17169113
0.1508299
0.12875845
0.10582537
0.082373552
0.058707876
0.035120461
0.011849881
0.23202679
0.23381868
0.23561727
0.23740939
0.23918323
0.24092848
0.24263623
0.24429888
0.24591024
0.24746533
0.24896036
0.25039259
0.25176021
0.25306224
0.25429846
0.25546925
0.25657556
0.25761874
0.2586005
0.25952284
0.26038794
0.26119816
0.26195599
0.26266388
0.26332442
0.26394015
0.26451354
0.26504709
0.26554315
0.26600404
0.26643196
0.26682909
0.26719746
0.26753904
0.2678557
0.26814916
0.26842101
0.26867265
0.26890509
0.26911849
0.26931122
0.26947812
0.26960747
0.26967628
0.26964306
0.26943651
0.26894131
0.26798726
0.26634986
0.26376422
0.25994723
0.25462277
0.24754904
0.23854324
0.2274983
0.21439325
0.19929215
0.18232645
0.16369299
0.1436559
0.12252043
0.10061636
0.078263237
0.055743366
0.033327993
0.011238194
0.22326668
0.22486272
0.22648507
0.22811951
0.2297531
0.2313742
0.23297261
0.23453951
0.23606737
0.23755
0.23898243
0.24036081
0.24168233
0.24294509
0.24414797
0.24529062
0.24637324
0.24739662
0.24836191
0.24927063
0.25012454
0.25092564
0.25167607
0.25237809
0.25303396
0.25364604
0.25421667
0.25474814
0.25524272
0.2557026
0.25612992
0.25652671
0.25689499
0.25723662
0.25755344
0.25784718
0.25811942
0.25837163
0.25860508
0.25882062
0.25901825
0.25919608
0.25934855
0.25946335
0.25951662
0.25946563
0.25923769
0.25871664
0.25773339
0.25606781
0.25346343
0.24964941
0.24436493
0.23738503
0.22854366
0.21774899
0.20499285
0.19034924
0.17395642
0.15601363
0.13678092
0.11655211
0.095638847
0.074339289
0.052915386
0.031619159
0.010655436
0.21502852
0.21640914
0.2178365
0.21929554
0.22077225
0.22225384
0.22372883
0.22518708
0.22661983
0.22801958
0.22938012
0.23069644
0.23196459
0.23318169
0.2343457
0.23545536
0.23651017
0.23751015
0.23845589
0.23934835
0.24018884
0.24097893
0.24172039
0.24241516
0.24306529
0.24367283
0.24423993
0.24476875
0.24526137
0.24571989
0.24614633
0.24654264
0.24691071
0.24725238
0.2475694
0.24786346
0.24813614
0.2483889
0.24862311
0.24883989
0.24903997
0.24922316
0.24938731
0.24952645
0.24962769
0.24966626
0.24959822
0.24934955
0.24880341
0.24779201
0.24609983
0.2434789
0.23967059
0.23442919
0.2275463
0.21887226
0.20833006
0.19592368
0.18173594
0.16591023
0.14864624
0.13019812
0.1108475
0.090888383
0.070599079
0.050222823
0.029993818
0.010101766
0.20847116
0.20968362
0.21094815
0.21224991
0.21357507
0.21491097
0.21624621
0.21757072
0.21887575
0.22015377
0.22139853
0.22260495
0.22376897
0.22488759
0.22595861
0.22698065
0.22795298
0.22887547
0.22974851
0.23057284
0.23134958
0.23208008
0.2327659
0.23340877
0.23401054
0.23457306
0.23509829
0.23558818
0.23604465
0.23646962
0.23686494
0.23723239
0.23757374
0.23789066
0.23818477
0.23845763
0.23871071
0.23894534
0.23916277
0.23936403
0.23954969
0.23971937
0.2398707
0.23999728
0.24008559
0.24010999
0.24002534
0.23975635
0.23918567
0.23814706
0.2364298
0.2337945
0.2299947
0.22479953
0.21801681
0.20951279
0.19922467
0.18716782
0.17343276
0.1581666
0.14156789
0.12388377
0.10538329
0.086343519
0.067024292
0.047651538
0.028442871
0.0095738689
0.20106362
0.20204032
0.20309007
0.20419743
0.20534771
0.20652727
0.20772352
0.20892512
0.21012202
0.21130544
0.21246781
0.2136028
0.21470521
0.21577086
0.21679661
0.21778009
0.21871974
0.21961465
0.22046449
0.22126942
0.22203002
0.22274716
0.223422
0.22405589
0.22465036
0.22520704
0.2257276
0.22621381
0.22666744
0.22709023
0.22748394
0.22785024
0.2281908
0.22850722
0.22880104
0.22907376
0.22932681
0.22956155
0.22977922
0.22998093
0.23016762
0.23033972
0.23049669
0.23063587
0.23075048
0.23082635
0.23083694
0.23073593
0.23044687
0.22985204
0.22878696
0.22704592
0.22439818
0.22060936
0.21546319
0.20878328
0.20045122
0.19041778
0.17870882
0.16542154
0.15070552
0.13475708
0.11781559
0.10013754
0.081983929
0.063597412
0.045187908
0.026957512
0.0090685226
0.19420271
0.19492223
0.195736
0.1966283
0.1975839
0.1985883
0.19962794
0.20069033
0.20176412
0.20283925
0.20390688
0.20495937
0.20599026
0.20699423
0.20796697
0.20890513
0.20980619
0.21066838
0.21149061
0.21227233
0.2130135
0.21371448
0.21437594
0.21499882
0.21558427
0.21613362
0.21664831
0.21712981
0.21757973
0.21799964
0.21839114
0.21875582
0.2190952
0.21941081
0.21970412
0.21997654
0.22022945
0.22046417
0.22068195
0.22088392
0.22107112
0.22124434
0.22140392
0.22154912
0.22167703
0.22178043
0.22184452
0.22184186
0.22172498
0.22141636
0.22079807
0.21970766
0.2179446
0.21528688
0.2115121
0.2064183
0.19984438
0.1916867
0.18190879
0.17054615
0.15770156
0.14352605
0.12821268
0.11199251
0.095109596
0.077809544
0.060318932
0.042832745
0.025538531
0.0085861211
0.18834622
0.18890227
0.18955795
0.19029783
0.19110688
0.19197072
0.19287589
0.1938099
0.19476142
0.19572032
0.19667768
0.19762573
0.1985579
0.19946869
0.20035363
0.20120918
0.20203263
0.20282201
0.203576
0.20429386
0.20497533
0.20562056
0.20623
0.2068044
0.2073447
0.20785203
0.20832765
0.20877286
0.20918906
0.20957769
0.20994017
0.21027794
0.2105924
0.21088492
0.21115685
0.21140951
0.21164412
0.21186193
0.21206406
0.21225157
0.21242538
0.2125862
0.21273423
0.21286856
0.21298601
0.21307892
0.21313187
0.2131165
0.21298424
0.2126566
0.21201569
0.21090129
0.20911828
0.20645345
0.20269627
0.19765876
0.1911946
0.1832142
0.17369301
0.16267521
0.15026816
0.13662329
0.12192963
0.10640953
0.090294762
0.073816272
0.057185545
0.040583612
0.024184402
0.0081261191
0.18233018
0.18260675
0.18300378
0.18350604
0.18409831
0.18476576
0.18549413
0.18626998
0.18708085
0.18791535
0.18876325
0.18961554
0.19046431
0.19130281
0.19212538
0.19292733
0.19370496
0.19445531
0.19517622
0.19586616
0.19652415
0.19714973
0.19774283
0.1983037
0.19883288
0.19933112
0.19979934
0.20023864
0.20065012
0.20103504
0.20139466
0.20173025
0.20204312
0.20233452
0.2026057
0.2028579
0.20309229
0.20331003
0.20351224
0.20369996
0.20387414
0.20403563
0.20418503
0.20432242
0.20444671
0.20455444
0.20463754
0.20467992
0.20465235
0.20450521
0.20415914
0.20349654
0.20235968
0.20055903
0.19789026
0.19415457
0.18917762
0.18282727
0.17502725
0.16576404
0.15508951
0.14311461
0.12999027
0.11590082
0.10105966
0.08568653
0.069998399
0.054192573
0.038437037
0.022892977
0.0076877636
0.17689193
0.17686792
0.17698432
0.17722661
0.17757986
0.17802912
0.17855969
0.17915739
0.17980883
0.18050149
0.18122391
0.18196577
0.18271789
0.1834722
0.18422179
0.18496077
0.18568427
0.18638833
0.18706983
0.18772633
0.18835611
0.18895797
0.18953122
0.19007558
0.19059109
0.19107808
0.19153712
0.19196896
0.19237448
0.19275464
0.19311053
0.19344325
0.19375394
0.19404375
0.19431382
0.19456528
0.19479924
0.19501679
0.19521896
0.19540678
0.19558122
0.19574312
0.19589326
0.19603214
0.19615972
0.19627474
0.19637344
0.19644732
0.19647966
0.19644036
0.1962788
0.19591496
0.19523168
0.19407402
0.19225824
0.18958895
0.18587889
0.18096698
0.17473467
0.16711818
0.15811417
0.14778117
0.13623281
0.12361872
0.11011798
0.095934897
0.081277497
0.066349436
0.051334696
0.036389053
0.021661797
0.0072701958
0.17170422
0.17151878
0.17147892
0.17157052
0.17177899
0.17208957
0.17248771
0.1729593
0.17349093
0.17407002
0.17468503
0.17532548
0.17598203
0.17664642
0.17731153
0.17797126
0.17862052
0.17925512
0.17987169
0.18046759
0.18104084
0.18159004
0.18211427
0.18261302
0.18308615
0.18353379
0.1839563
0.18435425
0.18472836
0.18507942
0.18540835
0.18571613
0.18600373
0.1862722
0.18652254
0.18675576
0.18697286
0.18717484
0.18736264
0.1875372
0.18769938
0.18784997
0.18798964
0.18811883
0.18823735
0.18834377
0.18843406
0.18849928
0.18852207
0.18847147
0.18829599
0.18791504
0.18721219
0.18603553
0.1842073
0.18154105
0.17786093
0.17301867
0.16690867
0.15947884
0.15073506
0.14074163
0.12961396
0.11749967
0.10457219
0.091026695
0.077059804
0.062862522
0.048606302
0.034435496
0.020488279
0.0068725112
0.16713303
0.16662615
0.16628286
0.16609044
0.16603522
0.16610288
0.16627889
0.16654881
0.16689855
0.16731469
0.16778457
0.16829652
0.16883989
0.16940516
0.16998386
0.17056864
0.17115317
0.17173212
0.17230105
0.17285637
0.17339518
0.17391528
0.17441502
0.17489329
0.17534936
0.17578286
0.17619375
0.17658218
0.17694856
0.17729343
0.17761743
0.17792133
0.17820595
0.17847215
0.17872083
0.17895288
0.17916922
0.17937074
0.17955833
0.17973286
0.17989516
0.18004602
0.18018617
0.1803162
0.18043642
0.18054658
0.18064503
0.18072748
0.18078453
0.1807982
0.18073673
0.1805478
0.18015045
0.17942922
0.17823549
0.17639763
0.17373816
0.1700924
0.16532446
0.15934102
0.15210087
0.14361819
0.13396215
0.12324912
0.11162411
0.099254569
0.086326561
0.07302568
0.059530888
0.046001853
0.032572253
0.019369861
0.0064938014
0.16316953
0.16232413
0.16165792
0.16116019
0.16081876
0.16062036
0.16055097
0.16059625
0.16074186
0.16097376
0.16127844
0.16164317
0.16205611
0.16250645
0.16298443
0.16348137
0.16398966
0.16450274
0.16501501
0.16552181
0.16601925
0.16650423
0.16697429
0.16742757
0.1678627
0.16827876
0.16867518
0.1690517
0.16940832
0.16974526
0.17006289
0.1703617
0.17064231
0.17090541
0.17115173
0.17138206
0.17159717
0.17179787
0.17198495
0.17215923
0.17232147
0.17247244
0.17261285
0.17274335
0.17286446
0.17297642
0.17307882
0.17316988
0.17324498
0.17329431
0.17329927
0.17322733
0.17302544
0.17261244
0.17187411
0.17066533
0.1688208
0.16617195
0.16256505
0.1578761
0.15202339
0.14497577
0.13675483
0.12743373
0.11712909
0.10598278
0.094156031
0.081825864
0.069167236
0.056347678
0.043515751
0.030795155
0.018303956
0.0061331634
0.15862797
0.15762206
0.15679969
0.15615078
0.15566369
0.15532553
0.1551226
0.15504075
0.15506572
0.15518347
0.15538045
0.15564379
0.15596148
0.15632251
0.1567169
0.1571357
0.15757106
0.15801616
0.15846512
0.15891302
0.15935573
0.15978987
0.16021276
0.1606223
0.16101689
0.16139541
0.16175707
0.16210143
0.16242831
0.16273775
0.16302997
0.1633053
0.16356423
0.16380731
0.16403516
0.16424843
0.16444781
0.164634
0.1648077
0.16496964
0.16512051
0.16526099
0.16539173
0.16551331
0.16562617
0.16573047
0.1658257
0.16590987
0.16597808
0.1660201
0.16601671
0.16593468
0.16572033
0.16529249
0.1645384
0.16331673
0.16146858
0.15883429
0.1552708
0.15066549
0.14494758
0.13809515
0.13013634
0.12114752
0.11124486
0.10056667
0.089267772
0.077516275
0.065476893
0.0533063
0.041142616
0.029100214
0.017288093
0.0057897307
0.15554921
0.15419053
0.15302712
0.15205162
0.15125462
0.15062501
0.15015031
0.14981712
0.14961146
0.14951917
0.14952621
0.14961893
0.14978435
0.15001025
0.15028541
0.15059959
0.1509436
0.1513093
0.15168959
0.15207834
0.15247032
0.15286116
0.15324723
0.15362558
0.15399388
0.15435032
0.15469355
0.15502259
0.15533681
0.15563584
0.15591956
0.15618803
0.15644145
0.15668016
0.15690459
0.15711523
0.15731264
0.1574974
0.15767011
0.15783139
0.15798188
0.1581222
0.15825296
0.15837474
0.15848805
0.15859327
0.15869048
0.15877903
0.15885678
0.15891852
0.15895359
0.1589422
0.15885045
0.15862416
0.15818233
0.15741392
0.1561816
0.15433299
0.15171726
0.14820171
0.14368463
0.13810544
0.13145064
0.12375412
0.11509467
0.10558743
0.09536677
0.084581005
0.073389507
0.061947124
0.050400237
0.038877143
0.027483489
0.01631983
0.0054626508
0.15137449
0.14985759
0.14853957
0.14741386
0.1464717
0.14570251
0.14509426
0.14463383
0.14430744
0.144101
0.14400047