/*--------------------------------*- C++ -*----------------------------------*\
| =========                 |                                                 |
| \\      /  F ield         | OpenFOAM: The Open Source CFD Toolbox           |
|  \\    /   O peration     | Version:  2506                                  |
|   \\  /    A nd           | Website:  www.openfoam.com                      |
|    \\/     M anipulation  |                                                 |
\*---------------------------------------------------------------------------*/
FoamFile
{
    version     2.0;
    format      ascii;
    arch        "LSB;label=32;scalar=64";
    class       volScalarField;
    location    "0.0085";
    object      alphat;
}
// * * * * * * * * * * * * * * * * * * * * * * * * * * * * * * * * * * * * * //

dimensions      [1 -1 -1 0 0 0 0];

internalField   nonuniform List<scalar> 
13761
(
0.00029349616
0.00032255617
0.00035454088
0.00038987089
0.00042896703
0.0004721581
0.00051954908
0.00057084458
0.00062512121
0.00068060259
0.00073448212
0.00078288309
0.00082105852
0.00084390549
0.00084675284
0.0008261907
0.0007805656
0.00070965819
0.00061327297
0.00048902578
0.00033001934
0.0001190138
1.3066546e-05
3.3836179e-06
5.9583646e-11
1.8794301e-10
3.4735634e-09
3.2009381e-08
1.7266445e-07
6.5061854e-07
1.8632051e-06
4.2589495e-06
8.1155651e-06
1.3461072e-05
2.0181569e-05
2.8132109e-05
3.7183657e-05
4.7242307e-05
5.8249929e-05
7.0175945e-05
8.3009839e-05
9.6753849e-05
0.00011141648
0.00012701945
0.00014360515
0.00016123143
0.00017997836
0.00019995905
0.00022132062
0.00024425668
0.0002690157
0.00029588992
0.00032524463
0.00035750326
0.00039311583
0.00043251733
0.00047604042
0.00052379063
0.00057547191
0.00063015934
0.00068607321
0.00074039957
0.00078924658
0.00082784162
0.00085103896
0.00085409811
0.00083353281
0.00078762238
0.00071611772
0.00061881972
0.00049334235
0.00033273866
0.0001198104
1.3108653e-05
6.0456154e-11
1.9115551e-10
3.5356107e-09
3.2576962e-08
1.7564901e-07
6.6127098e-07
1.8910394e-06
4.315121e-06
8.2087222e-06
1.3596518e-05
2.036302e-05
2.8363238e-05
3.7468658e-05
4.758615e-05
5.8658571e-05
7.0656411e-05
8.3570321e-05
9.7403808e-05
0.00011216663
0.0001278817
0.00014459247
0.00016235778
0.00018125843
0.00020140792
0.00022295329
0.0002460869
0.00027105343
0.0002981554
0.00032775849
0.00036028327
0.00039618242
0.00043589304
0.00047974955
0.00052785919
0.00057992743
0.00063502964
0.00069138317
0.0007461659
0.00079547022
0.00083449521
0.00085805045
0.00086132367
0.00084075164
0.00079457108
0.00072249399
0.0006243005
0.00049760408
0.00033538084
6.1001891e-11
1.9384695e-10
3.5909808e-09
3.3084182e-08
1.7831366e-07
6.7079429e-07
1.9160761e-06
4.3662411e-06
8.2948808e-06
1.3724115e-05
2.0537109e-05
2.8588579e-05
3.7750061e-05
4.7928839e-05
5.9068332e-05
7.1139776e-05
8.4134751e-05
9.805766e-05
0.0001129191
0.0001287428
0.0001455729
0.00016346885
0.000182512
0.0002028164
0.0002245297
0.00024784512
0.00027300845
0.00030032373
0.00033015849
0.00036293559
0.00039911026
0.0004391225
0.00048330971
0.00053178179
0.00058424628
0.00063977958
0.0006965973
0.0007518698
0.00080167488
0.00084117133
0.00086509601
0.00086857906
0.00084801771
0.00080159369
0.00072895135
0.00062984006
6.1726195e-11
1.9679035e-10
3.6494483e-09
3.3618599e-08
1.8111875e-07
6.8079704e-07
1.9422472e-06
4.4192828e-06
8.3834823e-06
1.3854042e-05
2.0712657e-05
2.8813669e-05
3.8028715e-05
4.8265385e-05
5.9467521e-05
7.1606925e-05
8.4675814e-05
9.8679213e-05
0.00011362835
0.00012954756
0.00014648168
0.00016449086
0.00018365726
0.00020409595
0.00022595584
0.0002494318
0.00027477185
0.0003022827
0.00033233475
0.0003653541
0.00040179951
0.00044211476
0.00048664082
0.00053549046
0.00058837323
0.00064436806
0.00070168918
0.00075749881
0.00080783737
0.00084781869
0.00087213853
0.00087589936
0.00085542749
6.231821e-11
1.9923969e-10
3.6988443e-09
3.4069576e-08
1.8348107e-07
6.8921601e-07
1.9643488e-06
4.4644063e-06
8.4597215e-06
1.3967339e-05
2.0867593e-05
2.9014095e-05
3.827818e-05
4.8567393e-05
5.9825786e-05
7.2025662e-05
8.5159917e-05
9.923439e-05
0.0001142611
0.00013026525
0.00014729272
0.00016540469
0.00018468445
0.00020524843
0.00022724714
0.0002508777
0.00027639205
0.00030410053
0.00033437579
0.00036764735
0.00040437772
0.00044501462
0.00048990252
0.00053915695
0.00059248697
0.00064895853
0.00070678307
0.00076312833
0.00081407112
6.319013e-11
2.0228694e-10
3.7571374e-09
3.4601474e-08
1.8626677e-07
6.9909858e-07
1.9899841e-06
4.5157745e-06
8.5444886e-06
1.4090246e-05
2.103188e-05
2.9222611e-05
3.8533833e-05
4.8873327e-05
6.0185571e-05
7.2443378e-05
8.5640362e-05
9.9783239e-05
0.00011488491
0.00013097161
0.00014809038
0.00016630363
0.00018569608
0.00020638562
0.0002285244
0.00025231096
0.00027799552
0.00030589633
0.00033639644
0.00036992835
0.0004069559
0.00044792894
0.00049319542
0.00054287888
0.00059670965
6.380202e-11
2.0492068e-10
3.8098387e-09
3.5082879e-08
1.8878815e-07
7.080541e-07
2.0132848e-06
4.5627141e-06
8.6224997e-06
1.4204241e-05
2.1185449e-05
2.941885e-05
3.8775705e-05
4.9163843e-05
6.0528099e-05
7.2841832e-05
8.6099404e-05
0.00010030854
0.00011548324
0.00013165103
0.00014886031
0.00016717502
0.00018668166
0.00020750091
0.00022979124
0.0002537641
1.4573982e-10
4.8880924e-10
9.2040988e-09
8.3843117e-08
4.3685337e-07
1.537985e-06
3.9922583e-06
8.1869875e-06
1.4162335e-05
2.1791459e-05
3.0942345e-05
4.1516397e-05
5.3442459e-05
6.6679318e-05
8.1213935e-05
9.7055021e-05
0.00011422767
0.00013276562
0.00015270179
0.00017407494
0.00019693655
0.00022134313
0.00024735978
0.00027506904
0.00030456533
0.00033596519
0.00036941178
0.00040507825
0.00044317407
0.00048394153
0.00052764395
0.00057454049
0.00062483104
0.00067857664
0.00073557609
0.00079519225
0.00085614524
0.00091621495
0.00097211632
0.0010193975
0.0010526238
0.0010658985
0.0010537475
0.0010122219
0.00093976224
0.00083715094
0.0007061553
0.00054683593
0.00035478552
1.4565955e-10
4.8922331e-10
9.2161399e-09
8.3952043e-08
4.3740673e-07
1.5398924e-06
3.9971616e-06
8.1970969e-06
1.4180165e-05
2.1819614e-05
3.0983289e-05
4.1572277e-05
5.3515027e-05
6.676998e-05
8.1323848e-05
9.7185166e-05
0.0001143789
0.00013293865
0.0001528972
0.00017429368
0.00019718062
0.00022161325
0.00024765319
0.00027538044
0.00030488787
0.00033629096
0.00036973106
0.00040537916
0.00044344212
0.00048416065
0.00052779734
0.00057461208
0.00062480769
0.00067845154
0.00073535187
0.00079486794
0.0008557008
0.00091565535
0.00097144106
0.0010186029
0.0010517006
0.0010648305
0.0010525328
0.0010108702
0.00093828853
0.00083559765
0.00070456548
0.00054523072
0.00035314052
0.00011542073
1.0499211e-05
2.8784977e-06
2.4665583e-06
2.4481096e-06
2.4521456e-06
2.4620001e-06
2.4772647e-06
2.5019635e-06
2.5490482e-06
2.6242437e-06
2.6801839e-06
2.6720851e-06
2.6295469e-06
2.6174362e-06
2.577131e-06
2.5093903e-06
2.5004927e-06
2.5370973e-06
2.5509516e-06
2.517472e-06
2.503657e-06
2.5305817e-06
2.5706523e-06
2.5921679e-06
2.6013409e-06
2.6045661e-06
2.6049189e-06
2.6016547e-06
2.5999774e-06
2.5989769e-06
2.5987442e-06
2.596144e-06
2.5962723e-06
2.5917809e-06
2.5910644e-06
2.5909762e-06
2.5825798e-06
2.5818294e-06
2.590111e-06
2.5764563e-06
1.4561731e-10
4.8981347e-10
9.2314957e-09
8.4090103e-08
4.381043e-07
1.5422688e-06
4.0031606e-06
8.2092132e-06
1.4201158e-05
2.1852316e-05
3.1030405e-05
4.1636198e-05
5.3597786e-05
6.6873322e-05
8.1449323e-05
9.7334183e-05
0.00011455276
0.00013313849
0.00015312386
0.0001745476
0.00019746159
0.0002219202
0.00024798518
0.00027573545
0.00030526158
0.00033667663
0.00037011949
0.00040575879
0.00044379959
0.00048448088
0.00052806374
0.00057480695
0.00062491262
0.00067844746
0.00073521985
0.00079459698
0.0008552823
0.00091508377
0.00097071336
0.0010177188
0.0010506635
0.0010636488
0.0010512122
0.0010094231
0.00093674037
0.00083399184
0.00070294325
0.00054360616
0.0003514807
0.00011424958
1.0372934e-05
2.8769563e-06
2.4673845e-06
2.4456918e-06
2.4456466e-06
2.4526993e-06
2.4677931e-06
2.493583e-06
2.5422292e-06
2.6204074e-06
2.6805129e-06
2.6758295e-06
2.6388589e-06
2.6252427e-06
2.5824264e-06
2.513617e-06
2.5018764e-06
2.5354058e-06
2.5433599e-06
2.5132742e-06
2.5031961e-06
2.5310661e-06
2.5710691e-06
2.5921381e-06
2.6007239e-06
2.6041575e-06
2.6048515e-06
2.6017554e-06
2.599867e-06
2.5989305e-06
2.5987859e-06
2.5964559e-06
2.5966711e-06
2.5922182e-06
2.5914606e-06
2.5915117e-06
2.5833255e-06
2.5825215e-06
2.5907632e-06
2.5770567e-06
2.565486e-06
2.580671e-06
2.5909275e-06
2.5702483e-06
2.5532367e-06
2.5657978e-06
2.5975577e-06
2.624288e-06
2.6411146e-06
1.4557158e-10
4.903555e-10
9.2457445e-09
8.4218226e-08
4.387525e-07
1.5444842e-06
4.0087747e-06
8.220605e-06
1.422097e-05
2.1883257e-05
3.1075035e-05
4.1696758e-05
5.3676167e-05
6.6971144e-05
8.1568035e-05
9.7475129e-05
0.0001147172
0.00013332756
0.00015333847
0.00017478826
0.0001977283
0.00022221214
0.00024830042
0.00027607046
0.00030561178
0.00033703597
0.00037048025
0.0004061114
0.00044413331
0.00048478279
0.00052831863
0.00057499788
0.0006250209
0.00067845264
0.00073510726
0.00079435042
0.00085488869
0.00091453306
0.00096999941
0.00101684
0.0010496215
0.0010624486
0.0010498659
0.0010079522
0.00093517751
0.00083238021
0.0007013214
0.00054198536
0.00034981867
0.00011303792
1.0231338e-05
2.8746736e-06
2.4686084e-06
2.4448435e-06
2.4409462e-06
2.4448465e-06
2.4592197e-06
2.4858942e-06
2.5357617e-06
2.6157689e-06
2.6800247e-06
2.6779821e-06
2.6469657e-06
2.6328909e-06
2.5875809e-06
2.5181756e-06
2.5041389e-06
2.5352535e-06
2.5370684e-06
2.5088439e-06
2.5024547e-06
2.5315828e-06
2.5715951e-06
2.5922951e-06
2.6003074e-06
2.6038229e-06
2.604845e-06
2.6019626e-06
2.5998894e-06
2.5989712e-06
2.5989166e-06
2.5968172e-06
2.5971109e-06
2.5927152e-06
2.5919337e-06
2.5920863e-06
2.5841128e-06
2.5832816e-06
2.5914972e-06
2.5777531e-06
2.5661891e-06
2.5812573e-06
2.5914274e-06
2.5709569e-06
2.5540471e-06
2.5665922e-06
2.5981208e-06
2.6247245e-06
2.6413942e-06
2.644742e-06
2.6449372e-06
2.6498743e-06
2.6524611e-06
2.6596498e-06
1.4552455e-10
4.9089609e-10
9.2597728e-09
8.4343953e-08
4.3938583e-07
1.5466389e-06
4.0142186e-06
8.2316487e-06
1.4240218e-05
2.191341e-05
3.1118633e-05
4.1756012e-05
5.3752903e-05
6.7066856e-05
8.1683996e-05
9.7612468e-05
0.00011487691
0.00013351046
0.00015354512
0.00017501883
0.00019798243
0.0002224888
0.00024859778
0.0002763854
0.00030594015
0.00033737234
0.0003708178
0.00040644188
0.00044444627
0.00048506628
0.00052855983
0.00057518222
0.00062513215
0.00067847669
0.00073502737
0.00079415083
0.00085455491
0.00091405169
0.00096935818
0.0010160285
0.0010486358
0.0010612963
0.0010485643
0.0010065233
0.00093365424
0.0008308024
0.0006997245
0.00054037878
0.00034815603
0.00011180723
1.0087296e-05
2.8722191e-06
2.4705953e-06
2.4452536e-06
2.4379447e-06
2.4385379e-06
2.4516156e-06
2.4789337e-06
2.5298138e-06
2.6109357e-06
2.6783752e-06
2.6788875e-06
2.6532816e-06
2.6399338e-06
2.5922646e-06
2.5224728e-06
2.5072086e-06
2.5356578e-06
2.5319593e-06
2.5042158e-06
2.5013423e-06
2.5319481e-06
2.5720532e-06
2.592459e-06
2.5999432e-06
2.603444e-06
2.6048031e-06
2.6021609e-06
2.5999264e-06
2.5989881e-06
2.5990169e-06
2.5971162e-06
2.5975027e-06
2.593203e-06
2.5924326e-06
2.5926439e-06
2.5848667e-06
2.5840313e-06
2.5922305e-06
2.5784818e-06
2.56692e-06
2.5818861e-06
2.5919617e-06
2.5717127e-06
2.5549109e-06
2.5674539e-06
2.5987352e-06
2.6251958e-06
2.6417122e-06
2.6451035e-06
2.6453278e-06
2.6503108e-06
2.6528808e-06
2.6598795e-06
2.6687965e-06
2.6627197e-06
2.6673544e-06
1.4548818e-10
4.9144407e-10
9.2737638e-09
8.4469266e-08
4.400155e-07
1.5487727e-06
4.0195889e-06
8.2425119e-06
1.4259123e-05
2.1943001e-05
3.1161399e-05
4.1814112e-05
5.3828102e-05
6.7160574e-05
8.1797403e-05
9.774657e-05
0.00011503254
0.00013368827
0.00015374543
0.00017524157
0.00019822701
0.00022275399
0.00024888158
0.00027668499
0.00030625154
0.00033769035
0.00037113596
0.00040675236
0.00044473996
0.00048533242
0.00052878534
0.00057535166
0.00062523408
0.00067850028
0.00073495836
0.00079397355
0.00085425258
0.00091360843
0.00096876091
0.0010152686
0.0010477101
0.0010602075
0.0010473198
0.0010051491
0.00093217632
0.00082925372
0.00069813992
0.00053876671
0.00034646688
0.00011054508
9.9393605e-06
2.8692428e-06
2.4727714e-06
2.4461514e-06
2.4363688e-06
2.4340602e-06
2.4453519e-06
2.4729816e-06
2.5246873e-06
2.6065504e-06
2.6758808e-06
2.679509e-06
2.6580241e-06
2.6463019e-06
2.596514e-06
2.5263565e-06
2.5108703e-06
2.5363797e-06
2.5282366e-06
2.4997306e-06
2.5000246e-06
2.5322629e-06
2.5725523e-06
2.5927595e-06
2.5997898e-06
2.6031602e-06
2.6048454e-06
2.6024398e-06
2.6000903e-06
2.599098e-06
2.5992078e-06
2.5974587e-06
2.5979256e-06
2.5937492e-06
2.5930262e-06
2.5932166e-06
2.5855866e-06
2.5847798e-06
2.592961e-06
2.5792553e-06
2.5677266e-06
2.5825909e-06
2.5925461e-06
2.5725015e-06
2.5557941e-06
2.5683282e-06
2.5993279e-06
2.6256179e-06
2.6419972e-06
2.6454331e-06
2.6456555e-06
2.6506806e-06
2.6532261e-06
2.6600734e-06
2.6686509e-06
2.6624416e-06
2.6669805e-06
2.6785694e-06
2.6654974e-06
2.6561883e-06
1.4547479e-10
4.9203123e-10
9.2882363e-09
8.4598683e-08
4.4066329e-07
1.5509467e-06
4.0249901e-06
8.2532981e-06
1.4277694e-05
2.1971837e-05
3.1202849e-05
4.187018e-05
5.3900388e-05
6.7250324e-05
8.1905585e-05
9.7873936e-05
0.00011517963
0.00013385535
0.00015393241
0.00017544792
0.00019845164
0.00022299511
0.00024913663
0.00027695017
0.00030652209
0.00033796057
0.00037139908
0.00040700051
0.00044496414
0.00048552221
0.00052892991
0.00057544462
0.00062526532
0.00067845688
0.00073482706
0.00079374104
0.00085390579
0.00091313441
0.00096814719
0.0010145049
0.0010467849
0.0010591091
0.0010460592
0.0010037521
0.0009306811
0.00082767514
0.00069650627
0.00053708534
0.00034468637
0.00010919819
9.780904e-06
2.8655568e-06
2.4749238e-06
2.4472453e-06
2.4357875e-06
2.4308953e-06
2.4402136e-06
2.467846e-06
2.5202339e-06
2.6026898e-06
2.672874e-06
2.6797972e-06
2.6608232e-06
2.651726e-06
2.6003043e-06
2.529612e-06
2.5145645e-06
2.5371503e-06
2.5254891e-06
2.4953326e-06
2.4983802e-06
2.5323286e-06
2.5728932e-06
2.5929781e-06
2.5996205e-06
2.6027742e-06
2.6047902e-06
2.6026239e-06
2.6002072e-06
2.5991456e-06
2.5993253e-06
2.5976763e-06
2.5982177e-06
2.5941987e-06
2.5935669e-06
2.5936929e-06
2.5861619e-06
2.5854152e-06
2.5935658e-06
2.5799568e-06
2.5685173e-06
2.5832873e-06
2.5931025e-06
2.5732575e-06
2.5566574e-06
2.5691942e-06
2.5999092e-06
2.6260351e-06
2.6423068e-06
2.6457884e-06
2.6460133e-06
2.651075e-06
2.6535641e-06
2.6602589e-06
2.6685009e-06
2.6620838e-06
2.6664795e-06
2.6780874e-06
2.6650691e-06
2.6557915e-06
2.6701794e-06
2.6850827e-06
2.6750418e-06
1.4550452e-10
4.9267946e-10
9.3035201e-09
8.4735134e-08
4.4134397e-07
1.5532096e-06
4.0305207e-06
8.2641202e-06
1.4295964e-05
2.1999741e-05
3.1242433e-05
4.1923171e-05
5.3968132e-05
6.7333851e-05
8.2005676e-05
9.799117e-05
0.00011531437
0.00013400768
0.00015410201
0.00017563393
0.00019865253
0.00022320854
0.00024935924
0.00027717801
0.0003067493
0.00033818061
0.00037160433
0.00040718181
0.00044511072
0.00048562474
0.00052898048
0.00057543215
0.00062517829
0.00067828338
0.00073455529
0.00079335958
0.00085340323
0.00091249886
0.00096736606
0.0010135614
0.001045664
0.0010578111
0.001044593
0.0010021387
0.00092896105
0.00082591803
0.00069473801
0.00053529388
0.00034280086
0.00010777373
9.6148129e-06
2.8612508e-06
2.4770307e-06
2.4487559e-06
2.4360982e-06
2.4288641e-06
2.436296e-06
2.4636867e-06
2.516608e-06
2.5995629e-06
2.6699639e-06
2.6796111e-06
2.6626689e-06
2.6565039e-06
2.603819e-06
2.532441e-06
2.5181121e-06
2.5382114e-06
2.5237707e-06
2.4912668e-06
2.4965794e-06
2.5322478e-06
2.5732091e-06
2.593265e-06
2.5995938e-06
2.6024535e-06
2.6047711e-06
2.6028362e-06
2.6003879e-06
2.599231e-06
2.5994581e-06
2.5978639e-06
2.598483e-06
2.5946327e-06
2.5941164e-06
2.5941471e-06
2.5866356e-06
2.585964e-06
2.5940694e-06
2.580615e-06
2.5692877e-06
2.5839722e-06
2.5936287e-06
2.5739598e-06
2.5574558e-06
2.5699895e-06
2.6004342e-06
2.6264202e-06
2.6426106e-06
2.6461289e-06
2.6463254e-06
2.6513971e-06
2.6538088e-06
2.6602908e-06
2.6682906e-06
2.6616833e-06
2.6659623e-06
2.6775038e-06
2.6645498e-06
2.6553231e-06
2.6698038e-06
2.684612e-06
2.6746437e-06
2.6440033e-06
2.615222e-06
1.4549134e-10
4.932084e-10
9.3168754e-09
8.4854822e-08
4.419437e-07
1.5552195e-06
4.0354712e-06
8.2738473e-06
1.4312363e-05
2.2024633e-05
3.1277396e-05
4.1969402e-05
5.4026412e-05
6.74046e-05
8.2089041e-05
9.8087084e-05
0.00011542256
0.00013412762
0.00015423286
0.00017577444
0.0001988009
0.00022336233
0.00024951503
0.00027733146
0.00030689546
0.00033831267
0.00037171547
0.00040726511
0.00044516001
0.00048563056
0.00052893113
0.00057531481
0.00062497947
0.00067798957
0.00073415412
0.0007928393
0.00085275283
0.00091170834
0.00096642546
0.0010124593
0.0010443982
0.0010563845
0.0010430147
0.0010004305
0.00092716422
0.00082409435
0.00069292073
0.00053347265
0.00034090469
0.00010638088
9.457198e-06
2.8569158e-06
2.4790815e-06
2.4506599e-06
2.4367844e-06
2.4273845e-06
2.4331859e-06
2.460171e-06
2.5134802e-06
2.5968313e-06
2.667199e-06
2.6787735e-06
2.6636194e-06
2.6606141e-06
2.6070809e-06
2.5348731e-06
2.5212606e-06
2.5396233e-06
2.5226526e-06
2.4874163e-06
2.4945156e-06
2.5318969e-06
2.5733742e-06
2.5934819e-06
2.5995446e-06
2.6020625e-06
2.6046454e-06
2.6029403e-06
2.6005041e-06
2.5992418e-06
2.5995062e-06
2.5979371e-06
2.5986286e-06
2.5949505e-06
2.5945626e-06
2.5945005e-06
2.5869585e-06
2.5863842e-06
2.5944298e-06
2.5811784e-06
2.5699516e-06
2.5845866e-06
2.5941014e-06
2.5746013e-06
2.5581887e-06
2.5707331e-06
2.6009566e-06
2.6268374e-06
2.6429395e-06
2.6465001e-06
2.646653e-06
2.651698e-06
2.6539788e-06
2.6602513e-06
2.6679775e-06
2.6611921e-06
2.6653596e-06
2.6768338e-06
2.6639615e-06
2.6548129e-06
2.6693069e-06
2.6839994e-06
2.6741304e-06
2.6438036e-06
2.6151089e-06
2.6049906e-06
2.5944476e-06
1.4538214e-10
4.935212e-10
9.3269005e-09
8.4945293e-08
4.4240403e-07
1.5568183e-06
4.0396188e-06
8.2824303e-06
1.4327424e-05
2.2048081e-05
3.1310747e-05
4.201362e-05
5.4081878e-05
6.7471194e-05
8.2166246e-05
9.8174049e-05
0.00011551814
0.00013423036
0.00015434093
0.00017588562
0.00019891253
0.00022347111
0.00024961709
0.00027742265
0.00030697132
0.00033836833
0.00037174491
0.00040726197
0.00044511625
0.00048553756
0.0005287795
0.00057509452
0.00062467994
0.00067759961
0.00073366202
0.00079223407
0.00085202513
0.00091085054
0.00096542548
0.0010113146
0.0010431091
0.0010549543
0.001041454
0.00099876178
0.0009254246
0.00082231605
0.0006911426
0.0005316965
0.00033906066
0.0001050617
9.3131232e-06
2.8527448e-06
2.4810528e-06
2.4529207e-06
2.4376036e-06
2.4266109e-06
2.4310195e-06
2.4574484e-06
2.5109456e-06
2.5945196e-06
2.6647934e-06
2.6775179e-06
2.6643859e-06
2.6642963e-06
2.6102335e-06
2.5371528e-06
2.5241403e-06
2.5414422e-06
2.5223157e-06
2.4840499e-06
2.4924532e-06
2.5314647e-06
2.5735529e-06
2.5937855e-06
2.5996311e-06
2.6017851e-06
2.6045781e-06
2.6031004e-06
2.6007166e-06
2.5993264e-06
2.5996013e-06
2.5980333e-06
2.5987931e-06
2.5952735e-06
2.5950147e-06
2.5948941e-06
2.5872899e-06
2.586803e-06
2.5947398e-06
2.5817166e-06
2.5705748e-06
2.5851947e-06
2.5945827e-06
2.5752388e-06
2.5589015e-06
2.5714436e-06
2.6014552e-06
2.6272173e-06
2.6431991e-06
2.6468103e-06
2.6468929e-06
2.6518557e-06
2.653936e-06
2.6600399e-06
2.6675084e-06
2.660614e-06
2.6647173e-06
2.6761525e-06
2.6633819e-06
2.6543182e-06
2.6688056e-06
2.6833607e-06
2.6735785e-06
2.6435591e-06
2.6149984e-06
2.6050924e-06
2.5944402e-06
2.5944662e-06
1.4525414e-10
4.9375294e-10
9.3353275e-09
8.5021687e-08
4.427966e-07
1.558213e-06
4.0433464e-06
8.2903763e-06
1.4341711e-05
2.2070719e-05
3.1343373e-05
4.2057293e-05
5.4137051e-05
6.753778e-05
8.2243724e-05
9.8261502e-05
0.00011561429
0.00013433355
0.00015444909
0.00017599621
0.00019902256
0.00022357717
0.00024971538
0.00027750886
0.00030704067
0.00033841557
0.00037176311
0.00040724381
0.0004450535
0.00048542199
0.00052860195
0.00057484493
0.00062434768
0.00067717403
0.00073313248
0.00079159316
0.00085126933
0.00090996971
0.00096441709
0.0010101772
0.0010418422
0.0010535609
0.0010399443
0.00099715646
0.0009237543
0.00082061374
0.0006894367
0.00052998835
0.00033727975
0.00010380066
9.1789633e-06
2.8492715e-06
2.483026e-06
2.4551506e-06
2.438523e-06
2.4263577e-06
2.4294937e-06
2.4552584e-06
2.508777e-06
2.5924183e-06
2.662587e-06
2.6759327e-06
2.6648708e-06
2.6674222e-06
2.6131777e-06
2.5392129e-06
2.52663e-06
2.5434221e-06
2.5222786e-06
2.481021e-06
2.4903134e-06
2.5308474e-06
2.5736152e-06
2.59402e-06
2.5996866e-06
2.6014782e-06
2.6044309e-06
2.6031769e-06
2.6008698e-06
2.5993489e-06
2.5996199e-06
2.5980604e-06
2.5988896e-06
2.5955146e-06
2.5953765e-06
2.5952473e-06
2.5875705e-06
2.5871623e-06
2.5949672e-06
2.5821901e-06
2.5711309e-06
2.5857638e-06
2.5950416e-06
2.5758532e-06
2.5595979e-06
2.5721313e-06
2.6019398e-06
2.6275791e-06
2.6434261e-06
2.647064e-06
2.6470612e-06
2.6519063e-06
2.6538393e-06
2.6597228e-06
2.6669646e-06
2.6599981e-06
2.6640311e-06
2.6754081e-06
2.6627555e-06
2.6537895e-06
2.6682687e-06
2.6826849e-06
2.6729873e-06
2.643289e-06
2.6148761e-06
2.605228e-06
2.5944767e-06
2.594344e-06
2.5982298e-06
2.5913765e-06
1.4508823e-10
4.9384752e-10
9.3410418e-09
8.5073535e-08
4.4306626e-07
1.5592119e-06
4.0461797e-06
8.2967689e-06
1.4353716e-05
2.2090337e-05
3.1372166e-05
4.2096251e-05
5.4186538e-05
6.7597603e-05
8.2313204e-05
9.8339469e-05
0.00011569921
0.00013442342
0.0001545414
0.00017608784
0.00019910969
0.00022365521
0.0002497791
0.00027755208
0.00030705633
0.00033839582
0.00037170107
0.0004071314
0.00044488303
0.00048518623
0.00052829443
0.00057446025
0.00062388173
0.00067662425
0.00073249696
0.00079086486
0.00085043455
0.00090902823
0.00096337058
0.0010090256
0.0010405849
0.0010521997
0.0010384867
0.00099561903
0.00092216157
0.00081899318
0.0006878123
0.00052835592
0.00033556752
0.00010259322
9.0530306e-06
2.8458273e-06
2.48497e-06
2.4575065e-06
2.4397189e-06
2.4269465e-06
2.4286968e-06
2.4536753e-06
2.5070328e-06
2.5906026e-06
2.6606648e-06
2.6743609e-06
2.6653475e-06
2.6702372e-06
2.6160363e-06
2.5412121e-06
2.5289184e-06
2.5455504e-06
2.5227176e-06
2.4785486e-06
2.4882934e-06
2.5302318e-06
2.5737161e-06
2.5943284e-06
2.5998523e-06
2.6013011e-06
2.604344e-06
2.6033063e-06
2.601095e-06
2.5994477e-06
2.5996938e-06
2.5981551e-06
2.5990232e-06
2.595766e-06
2.5957231e-06
2.5956443e-06
2.5879182e-06
2.5875745e-06
2.5952094e-06
2.5826597e-06
2.5716792e-06
2.5863435e-06
2.5955161e-06
2.5764693e-06
2.5602937e-06
2.5727953e-06
2.6023864e-06
2.6278755e-06
2.6435616e-06
2.6472028e-06
2.64711e-06
2.6518374e-06
2.6535885e-06
2.6592844e-06
2.6663418e-06
2.6593423e-06
2.6633265e-06
2.6746699e-06
2.6621669e-06
2.6533001e-06
2.6677425e-06
2.6820027e-06
2.6723772e-06
2.6429903e-06
2.6147257e-06
2.6053628e-06
2.5945169e-06
2.594266e-06
2.5981911e-06
2.5912566e-06
2.5996155e-06
1.4490062e-10
4.9381031e-10
9.3439417e-09
8.5100103e-08
4.4320962e-07
1.559799e-06
4.048062e-06
8.3014569e-06
1.4363127e-05
2.2106338e-05
3.1396218e-05
4.2129185e-05
5.4228516e-05
6.764817e-05
8.2371383e-05
9.8404001e-05
0.0001157684
0.00013449515
0.00015461299
0.00017615598
0.00019917046
0.00022370388
0.0002498103
0.00027755941
0.00030703291
0.00033833464
0.00037159326
0.00040696784
0.00044465491
0.00048488507
0.00052791278
0.00057399241
0.00062332378
0.00067597307
0.00073175097
0.00079002805
0.00084951597
0.00090802864
0.00096228829
0.0010078591
0.001039333
0.0010508633
0.0010370715
0.00099413724
0.0009206308
0.00081743718
0.00068625105
0.00052678313
0.00033390729
0.00010142878
8.93192e-06
2.8428029e-06
2.486914e-06
2.4596863e-06
2.4411449e-06
2.4277411e-06
2.4282846e-06
2.4524372e-06
2.5055239e-06
2.588951e-06
2.6588801e-06
2.6728055e-06
2.6657366e-06
2.6726702e-06
2.6186718e-06
2.5430367e-06
2.530905e-06
2.5476073e-06
2.5231762e-06
2.4763944e-06
2.4861938e-06
2.5294848e-06
2.5737106e-06
2.5945539e-06
2.5999599e-06
2.6010997e-06
2.6041807e-06
2.6033575e-06
2.6012539e-06
2.5994914e-06
2.5997011e-06
2.5982032e-06
2.5990925e-06
2.5959459e-06
2.5959678e-06
2.5959946e-06
2.5882476e-06
2.5879521e-06
2.5953991e-06
2.5830547e-06
2.5721555e-06
2.5868718e-06
2.5959509e-06
2.5770445e-06
2.5609521e-06
2.5734073e-06
2.6027795e-06
2.6281261e-06
2.6436635e-06
2.6472752e-06
2.6470836e-06
2.6517196e-06
2.6532491e-06
2.6588154e-06
2.6657144e-06
2.6586949e-06
2.662623e-06
2.6739098e-06
2.6615616e-06
2.6527854e-06
2.667186e-06
2.6813007e-06
2.6717498e-06
2.6426694e-06
2.6145508e-06
2.6054744e-06
2.5945383e-06
2.5941893e-06
2.5982e-06
2.5911786e-06
2.5994022e-06
2.6054276e-06
1.4468307e-10
4.9365008e-10
9.344261e-09
8.5103414e-08
4.4323693e-07
1.5600042e-06
4.0490456e-06
8.3044974e-06
1.4369949e-05
2.2118641e-05
3.1415267e-05
4.2155592e-05
5.4262222e-05
6.768854e-05
8.2417355e-05
9.845408e-05
0.00011582078
0.00013454763
0.00015466303
0.00017620064
0.00019920608
0.00022372625
0.00024981446
0.00027754
0.00030698399
0.00033824952
0.00037146533
0.00040679014
0.00044442033
0.00048458696
0.00052754482
0.00057354826
0.00062279763
0.00067536078
0.00073105013
0.00078923643
0.00084863133
0.00090705268
0.00096122501
0.0010067101
0.0010380992
0.001049547
0.0010356796
0.00099268245
0.0009191298
0.00081591291
0.0006847221
0.00052524181
0.00033227829
0.00010029344
8.8143637e-06
2.8392709e-06
2.488706e-06
2.4618899e-06
2.4427402e-06
2.4286564e-06
2.4282307e-06
2.4515759e-06
2.5043321e-06
2.587553e-06
2.6573298e-06
2.6714257e-06
2.6660381e-06
2.6749458e-06
2.6212199e-06
2.5448171e-06
2.5327514e-06
2.5496731e-06
2.5237879e-06
2.474718e-06
2.4841669e-06
2.5287626e-06
2.5737355e-06
2.5948283e-06
2.600155e-06
2.6010302e-06
2.6040768e-06
2.603461e-06
2.6014628e-06
2.5996069e-06
2.5997619e-06
2.598331e-06
2.5992107e-06
2.5961594e-06
2.5961938e-06
2.5963677e-06
2.5886284e-06
2.5883765e-06
2.5956374e-06
2.5834489e-06
2.5726085e-06
2.5873856e-06
2.5963692e-06
2.5776034e-06
2.5615934e-06
2.5739885e-06
2.6031248e-06
2.6283085e-06
2.6436971e-06
2.6472265e-06
2.646968e-06
2.6514741e-06
2.6528104e-06
2.6582787e-06
2.6650522e-06
2.6580273e-06
2.6619074e-06
2.673162e-06
2.6610023e-06
2.6523193e-06
2.6666596e-06
2.6806187e-06
2.6711295e-06
2.6423464e-06
2.6143648e-06
2.6055649e-06
2.5945469e-06
2.5940893e-06
2.598212e-06
2.5910998e-06
2.5992415e-06
2.6052919e-06
2.5961882e-06
2.6039029e-06
1.4445933e-10
4.9338764e-10
9.3422397e-09
8.5085595e-08
4.4315697e-07
1.5598552e-06
4.0491886e-06
8.3059652e-06
1.4374247e-05
2.2127253e-05
3.1429223e-05
4.2175245e-05
5.4287233e-05
6.7717983e-05
8.2449855e-05
9.8487948e-05
0.00011585402
0.00013457797
0.00015468786
0.0001762169
0.00019921031
0.00022371459
0.00024978243
0.0002774827
0.00030689567
0.00033812373
0.00037129508
0.00040656795
0.0004441384
0.00048423743
0.0005271204
0.00057304301
0.00062220761
0.00067468442
0.0007302882
0.0007883913
0.00084770632
0.00090604918
0.00096014017
0.0010055422
0.0010368479
0.0010482149
0.0010342736
0.00099121579
0.00091762022
0.00081438417
0.00068319301
0.00052370562
0.00033066196
9.9175567e-05
8.6985097e-06
2.8360826e-06
2.4904971e-06
2.4638759e-06
2.4443733e-06
2.4295039e-06
2.4281586e-06
2.450739e-06
2.5031767e-06
2.5861759e-06
2.6558021e-06
2.6700479e-06
2.6660911e-06
2.6768437e-06
2.6236182e-06
2.546472e-06
2.5343788e-06
2.5516374e-06
2.5243882e-06
2.4732848e-06
2.4821217e-06
2.5279451e-06
2.5736584e-06
2.5950094e-06
2.600281e-06
2.6009335e-06
2.6038849e-06
2.6034765e-06
2.6015811e-06
2.5996625e-06
2.5997581e-06
2.5984166e-06
2.5992593e-06
2.5962993e-06
2.5963199e-06
2.5966729e-06
2.5889684e-06
2.5887704e-06
2.5958552e-06
2.5837783e-06
2.5729746e-06
2.5878241e-06
2.5967228e-06
2.5781065e-06
2.5621839e-06
2.5745161e-06
2.6034181e-06
2.6284332e-06
2.6436582e-06
2.6471553e-06
2.6467934e-06
2.6511637e-06
2.6523413e-06
2.6577437e-06
2.6644071e-06
2.6573815e-06
2.6612222e-06
2.6724273e-06
2.6604384e-06
2.6518252e-06
2.6661038e-06
2.6799247e-06
2.6705028e-06
2.6420245e-06
2.6141745e-06
2.6056421e-06
2.5945546e-06
2.5939701e-06
2.5982066e-06
2.5910005e-06
2.5990927e-06
2.6052156e-06
2.5961503e-06
2.6036697e-06
2.6192417e-06
1.4422863e-10
4.930291e-10
9.3379922e-09
8.5047805e-08
4.42976e-07
1.559369e-06
4.0485179e-06
8.3058849e-06
1.4376034e-05
2.2132153e-05
3.1438022e-05
4.2188044e-05
5.4303417e-05
6.7736344e-05
8.2468746e-05
9.8505397e-05
0.00011586781
0.00013458567
0.00015468679
0.00017620413
0.0001991826
0.00022366831
0.00024971359
0.00027738674
0.00030676753
0.00033795791
0.00037108566
0.00040630868
0.0004438227
0.00048385861
0.00052667198
0.00057251917
0.00062160348
0.0006739963
0.00072951393
0.0007875307
0.00084676024
0.00090501692
0.00095902088
0.001004336
0.0010355563
0.0010468416
0.0010328269
0.00098971047
0.00091607646
0.00081282109
0.00068163361
0.00052214686
0.00032903405
9.8057096e-05
8.5829672e-06
2.8321935e-06
2.4920538e-06
2.4659939e-06
2.4460739e-06
2.4303504e-06
2.4280962e-06
2.4499407e-06
2.5020999e-06
2.5848982e-06
2.6543995e-06
2.6687965e-06
2.665937e-06
2.6784962e-06
2.6260021e-06
2.5481526e-06
2.5359659e-06
2.5536301e-06
2.5251394e-06
2.4722912e-06
2.4803024e-06
2.5271868e-06
2.5735936e-06
2.5952133e-06
2.6004557e-06
2.600938e-06
2.6037212e-06
2.6035257e-06
2.6017244e-06
2.5997754e-06
2.599797e-06
2.5985581e-06
2.5993348e-06
2.5964713e-06
2.5964491e-06
2.5969815e-06
2.589316e-06
2.5891846e-06
2.5961139e-06
2.5841088e-06
2.5733261e-06
2.588233e-06
2.5970609e-06
2.5785888e-06
2.562757e-06
2.5750107e-06
2.6036775e-06
2.6284929e-06
2.6435733e-06
2.6469811e-06
2.6464964e-06
2.6507785e-06
2.6518304e-06
2.6571806e-06
2.6637481e-06
2.6567371e-06
2.660544e-06
2.6717056e-06
2.6599069e-06
2.6513792e-06
2.6655898e-06
2.6792663e-06
2.6698973e-06
2.6417179e-06
2.6139882e-06
2.6057113e-06
2.5945702e-06
2.5938433e-06
2.5981909e-06
2.5908887e-06
2.5989364e-06
2.6051511e-06
2.5961366e-06
2.6034767e-06
2.6191247e-06
2.6082687e-06
1.4400194e-10
4.9260531e-10
9.3320207e-09
8.4994174e-08
4.4271454e-07
1.5586097e-06
4.047173e-06
8.3045005e-06
1.4375656e-05
2.2133791e-05
3.1442205e-05
4.2194612e-05
5.4311485e-05
6.7744428e-05
8.2474945e-05
9.8507538e-05
0.00011586354
0.0001345725
0.00015466211
0.00017616514
0.00019912627
0.00022359134
0.00024961235
0.00027725718
0.00030660519
0.00033775798
0.00037084304
0.00040601809