/*--------------------------------*- C++ -*----------------------------------*\
| =========                 |                                                 |
| \\      /  F ield         | OpenFOAM: The Open Source CFD Toolbox           |
|  \\    /   O peration     | Version:  2506                                  |
|   \\  /    A nd           | Website:  www.openfoam.com                      |
|    \\/     M anipulation  |                                                 |
\*---------------------------------------------------------------------------*/
FoamFile
{
    version     2.0;
    format      ascii;
    arch        "LSB;label=32;scalar=64";
    class       volScalarField;
    location    "0.0085";
    object      rho;
}
// * * * * * * * * * * * * * * * * * * * * * * * * * * * * * * * * * * * * * //

dimensions      [1 -3 0 0 0 0 0];

internalField   nonuniform List<scalar> 
13763
(
0.66798696
0.66796599
0.66788129
0.66773732
0.66769239
0.66760988
0.66743041
0.66739752
0.66789897
0.66835098
0.66818523
0.66771377
0.66756802
0.66827987
0.67056213
0.67294414
0.67350608
0.67321308
0.67240684
0.67154394
0.67097235
0.67051351
0.66996609
0.66930721
0.6686532
0.6681333
0.66774494
0.66746781
0.66721972
0.66702757
0.66686012
0.66669217
0.66651003
0.66639222
0.6663494
0.66620849
0.66625912
0.66687003
0.66771317
0.66752573
0.66616807
0.66455623
0.66335009
0.66262865
0.66223533
0.66206477
0.66217459
0.66263992
0.66798848
0.66796587
0.66788145
0.66773766
0.66769251
0.66761027
0.66743083
0.66739748
0.66789802
0.66835146
0.6681865
0.66771498
0.66756838
0.66827866
0.67056326
0.67295064
0.67351352
0.67321922
0.67241063
0.67154369
0.67096737
0.67050582
0.66995877
0.66930315
0.66865256
0.66813408
0.66774562
0.66746806
0.66721973
0.66702753
0.66686007
0.66669216
0.6665101
0.66639236
0.66634953
0.66620859
0.66625931
0.66687036
0.6677135
0.66752567
0.66616783
0.66455585
0.66334974
0.6626285
0.66223522
0.66206482
0.66217469
0.66264014
0.6633511
0.6640657
0.66799003
0.66796565
0.66788155
0.66773796
0.6676926
0.66761067
0.66743126
0.6673973
0.66789683
0.6683519
0.66818789
0.66771634
0.66756875
0.66827724
0.67056399
0.67295644
0.67352035
0.673225
0.67241417
0.67154243
0.67096045
0.67049588
0.66994964
0.66929835
0.66865208
0.66813532
0.66774665
0.66746846
0.66721979
0.66702749
0.66686002
0.66669216
0.66651021
0.66639255
0.66634973
0.66620881
0.66625962
0.66687064
0.66771358
0.66752541
0.66616749
0.66455553
0.6633495
0.66262838
0.66223518
0.66206489
0.66217484
0.66264033
0.66335132
0.66406583
0.6646304
0.66799161
0.66796535
0.66788159
0.66773823
0.66769264
0.66761106
0.66743166
0.66739697
0.66789534
0.6683523
0.66818939
0.66771781
0.66756908
0.66827549
0.67056421
0.67296146
0.6735265
0.67323029
0.67241725
0.67153996
0.67095138
0.67048344
0.6699385
0.66929263
0.66865167
0.668137
0.66774802
0.66746902
0.6672199
0.66702746
0.66685997
0.66669217
0.66651034
0.6663928
0.66634998
0.66620905
0.66625991
0.66687099
0.66771382
0.6675253
0.66616721
0.66455518
0.66334926
0.66262825
0.66223513
0.66206491
0.66217491
0.66264044
0.66335146
0.66406595
0.6646305
0.66494366
0.66504414
0.66799321
0.66796498
0.66788156
0.66773845
0.66769265
0.66761142
0.66743202
0.66739648
0.66789353
0.66835266
0.66819102
0.66771938
0.66756934
0.66827335
0.67056381
0.67296562
0.67353192
0.67323497
0.67241967
0.67153606
0.67093994
0.67046828
0.66992511
0.66928582
0.66865123
0.66813907
0.66774972
0.66746974
0.66722007
0.66702744
0.66685992
0.66669219
0.6665105
0.66639308
0.66635028
0.66620933
0.66626025
0.66687131
0.66771399
0.66752511
0.66616692
0.66455492
0.66334911
0.66262818
0.66223511
0.66206495
0.66217501
0.66264056
0.66335158
0.66406605
0.66463055
0.66494369
0.66504415
0.66506614
0.66506992
0.66799483
0.6679645
0.66788144
0.66773862
0.6676926
0.66761175
0.66743232
0.66739581
0.66789134
0.66835296
0.66819277
0.66772106
0.66756953
0.66827073
0.67056267
0.67296889
0.67353652
0.67323883
0.6724211
0.67153047
0.67092591
0.67045016
0.66990922
0.66927768
0.6686506
0.66814146
0.66775172
0.6674706
0.66722028
0.66702745
0.66685989
0.66669223
0.66651069
0.66639339
0.6663506
0.66620962
0.66626059
0.66687169
0.66771424
0.66752498
0.66616661
0.66455459
0.66334891
0.66262807
0.66223507
0.66206494
0.66217506
0.66264067
0.66335171
0.66406616
0.66463063
0.66494372
0.66504416
0.66506614
0.66506992
0.66507047
0.66507054
0.66799646
0.6679639
0.66788122
0.66773871
0.66769249
0.66761203
0.66743255
0.66739493
0.66788873
0.6683532
0.66819464
0.66772282
0.66756959
0.66826755
0.67056069
0.67297124
0.67354019
0.67324164
0.67242121
0.6715229
0.67090907
0.67042883
0.66989052
0.66926793
0.66864958
0.66814405
0.66775397
0.66747159
0.66722054
0.66702747
0.66685988
0.66669228
0.6665109
0.66639371
0.66635093
0.66620993
0.66626094
0.66687206
0.66771444
0.66752479
0.66616629
0.66455428
0.66334871
0.66262796
0.66223501
0.66206495
0.66217514
0.66264078
0.66335184
0.66406627
0.66463069
0.66494375
0.66504417
0.66506614
0.66506992
0.66507047
0.66507054
0.66507054
0.66507055
0.66507055
0.6679981
0.66796318
0.66788087
0.66773872
0.6676923
0.66761226
0.66743269
0.66739381
0.66788565
0.66835335
0.66819662
0.66772466
0.6675695
0.66826369
0.67055777
0.67297268
0.67354279
0.67324309
0.67241952
0.67151302
0.67088916
0.670404
0.66986869
0.66925624
0.66864792
0.66814669
0.66775639
0.66747267
0.66722083
0.66702752
0.6668599
0.66669236
0.66651111
0.66639404
0.66635126
0.66621023
0.66626129
0.66687244
0.66771466
0.6675246
0.6661659
0.66455391
0.66334847
0.66262783
0.66223495
0.66206494
0.6621752
0.66264091
0.66335198
0.66406639
0.66463077
0.66494378
0.66504418
0.66506614
0.66506992
0.66507047
0.66507054
0.66507054
0.66507055
0.66507055
0.66507055
0.66507055
0.66799972
0.6679623
0.66788036
0.66773862
0.66769202
0.66761242
0.66743273
0.66739242
0.66788207
0.66835338
0.66819869
0.66772655
0.6675692
0.66825906
0.67055387
0.6729732
0.67354412
0.67324283
0.67241553
0.67150044
0.67086587
0.6703753
0.66984329
0.66924221
0.66864533
0.66814923
0.66775891
0.66747381
0.66722115
0.66702759
0.66685993
0.66669245
0.66651132
0.66639435
0.66635157
0.6662105
0.66626163
0.66687281
0.66771486
0.66752437
0.66616551
0.66455352
0.66334822
0.66262769
0.66223488
0.66206493
0.66217527
0.66264103
0.66335212
0.66406651
0.66463085
0.66494382
0.66504419
0.66506614
0.66506992
0.66507047
0.66507054
0.66507054
0.66507055
0.66507055
0.66507055
0.66507055
0.66800133
0.66796124
0.66787968
0.6677384
0.66769164
0.66761249
0.66743263
0.66739073
0.66787792
0.66835327
0.66820083
0.66772845
0.66756862
0.66825355
0.67054897
0.67297281
0.67354394
0.67324035
0.67240866
0.67148478
0.67083885
0.67034226
0.6698138
0.66922538
0.66864149
0.66815148
0.66776144
0.66747497
0.66722147
0.66702766
0.66685998
0.66669254
0.66651152
0.66639463
0.66635184
0.66621075
0.66626196
0.66687319
0.66771507
0.66752413
0.66616506
0.66455309
0.66334794
0.66262753
0.6622348
0.66206492
0.66217534
0.66264116
0.66335228
0.66406664
0.66463093
0.66494386
0.6650442
0.66506615
0.66506992
0.66507047
0.66507054
0.66507054
0.66507055
0.66507055
0.66507055
0.66507055
0.66800291
0.66795999
0.66787878
0.66773803
0.66769115
0.66761245
0.66743236
0.6673887
0.66787315
0.66835296
0.66820299
0.66773031
0.6675677
0.66824708
0.6705431
0.67297153
0.67354185
0.67323509
0.6723983
0.67146559
0.67080763
0.67030424
0.66977952
0.66920517
0.66863603
0.66815326
0.6677639
0.66747612
0.66722178
0.66702773
0.66686002
0.66669262
0.66651169
0.66639488
0.66635208
0.66621097
0.66626227
0.66687356
0.66771528
0.66752387
0.6661646
0.66455265
0.66334765
0.66262737
0.66223472
0.66206491
0.66217542
0.6626413
0.66335244
0.66406678
0.66463102
0.6649439
0.66504421
0.66506615
0.66506992
0.66507047
0.66507054
0.66507054
0.66507055
0.66507055
0.66507055
0.66507055
0.66800445
0.66795851
0.66787763
0.66773748
0.66769052
0.66761228
0.66743189
0.66738629
0.66786772
0.6683524
0.66820512
0.66773208
0.66756636
0.66823957
0.67053636
0.67296933
0.67353735
0.67322636
0.67238377
0.67144241
0.6707716
0.67026036
0.66973956
0.66918089
0.66862858
0.66815443
0.66776625
0.66747723
0.66722206
0.66702778
0.66686005
0.66669268
0.66651183
0.66639509
0.66635228
0.66621116
0.66626256
0.66687393
0.66771549
0.66752358
0.66616411
0.66455217
0.66334733
0.6626272
0.66223464
0.6620649
0.6621755
0.66264144
0.66335261
0.66406693
0.66463111
0.66494394
0.66504422
0.66506615
0.66506992
0.66507047
0.66507054
0.66507054
0.66507055
0.66507055
0.66507055
0.66507055
0.66800594
0.66795677
0.66787618
0.66773672
0.66768975
0.66761193
0.66743118
0.66738346
0.66786157
0.66835152
0.66820715
0.66773367
0.66756447
0.66823097
0.67052892
0.67296616
0.67352982
0.67321335
0.67236432
0.67141469
0.67072996
0.67020943
0.66969269
0.66915173
0.66861873
0.66815485
0.66776847
0.66747831
0.66722231
0.6670278
0.66686005
0.66669271
0.66651194
0.66639526
0.66635244
0.66621131
0.66626284
0.6668743
0.66771569
0.66752328
0.66616359
0.66455167
0.66334701
0.66262702
0.66223455
0.66206489
0.66217558
0.6626416
0.66335279
0.66406708
0.6646312
0.66494398
0.66504423
0.66506615
0.66506992
0.66507047
0.66507054
0.66507054
0.66507055
0.66507055
0.66507055
0.66507055
0.66800735
0.66795473
0.66787437
0.66773572
0.66768882
0.66761138
0.66743018
0.66738015
0.66785465
0.66835025
0.668209
0.66773501
0.66756193
0.66822126
0.67052104
0.67296189
0.67351849
0.67319506
0.67233909
0.67138177
0.67068167
0.67014993
0.66963739
0.66911663
0.66860606
0.6681545
0.6677706
0.66747937
0.66722252
0.66702779
0.66686002
0.66669271
0.66651201
0.6663954
0.66635257
0.66621145
0.66626311
0.66687467
0.6677159
0.66752295
0.66616303
0.66455114
0.66334666
0.66262683
0.66223446
0.66206488
0.66217567
0.66264176
0.66335298
0.66406724
0.6646313
0.66494403
0.66504424
0.66506616
0.66506992
0.66507047
0.66507054
0.66507054
0.66507055
0.66507055
0.66507055
0.66507055
0.66800867
0.66795235
0.66787214
0.66773442
0.6676877
0.66761059
0.66742883
0.66737631
0.66784687
0.66834849
0.66821056
0.66773595
0.66755859
0.66821043
0.67051301
0.67295638
0.67350242
0.67317029
0.67230694
0.67134268
0.6706253
0.67007987
0.66957183
0.66907442
0.66859005
0.66815333
0.66777275
0.66748046
0.66722271
0.66702775
0.66685996
0.66669268
0.66651205
0.6663955
0.66635267
0.66621156
0.66626337
0.66687506
0.6677161
0.6675226
0.66616245
0.66455058
0.6633463
0.66262663
0.66223437
0.66206487
0.66217577
0.66264193
0.66335318
0.66406741
0.66463141
0.66494407
0.66504426
0.66506616
0.66506992
0.66507047
0.66507054
0.66507054
0.66507055
0.66507055
0.66507055
0.66507055
0.66800987
0.66794959
0.66786942
0.66773278
0.66768639
0.6676095
0.66742707
0.66737189
0.66783819
0.66834613
0.66821171
0.6677364
0.66755432
0.6681985
0.67050524
0.67294945
0.67348053
0.67313753
0.67226627
0.67129593
0.67055892
0.66999681
0.66949388
0.66902377
0.6685702
0.66815134
0.66777504
0.66748165
0.66722289
0.66702766
0.66685986
0.66669262
0.66651207
0.66639559
0.66635274
0.66621164
0.66626363
0.66687545
0.66771632
0.66752223
0.66616183
0.66454999
0.66334592
0.66262642
0.66223426
0.66206486
0.66217587
0.66264212
0.66335339
0.66406758
0.66463152
0.66494412
0.66504427
0.66506616
0.66506992
0.66507047
0.66507054
0.66507054
0.66507055
0.66507055
0.66507055
0.66507055
0.66801094
0.66794639
0.66786611
0.66773073
0.66768487
0.66760806
0.66742482
0.6673668
0.66782852
0.66834305
0.66821228
0.66773614
0.66754893
0.66818552
0.67049817
0.67294089
0.6734516
0.6730949
0.67221468
0.67123908
0.67047978
0.66989783
0.66940131
0.66896346
0.66854604
0.66814864
0.66777769
0.66748305
0.66722307
0.66702754
0.66685973
0.66669253
0.66651206
0.66639565
0.66635279
0.66621172
0.66626389
0.66687585
0.66771654
0.66752184
0.66616118
0.66454937
0.66334551
0.6626262
0.66223416
0.66206485
0.66217597
0.66264231
0.66335361
0.66406777
0.66463164
0.66494418
0.66504428
0.66506616
0.66506992
0.66507047
0.66507054
0.66507054
0.66507055
0.66507055
0.66507055
0.66507055
0.66801184
0.66794268
0.66786211
0.6677282
0.66768311
0.66760621
0.66742198
0.66736097
0.66781781
0.6683391
0.66821209
0.66773499
0.66754223
0.66817157
0.67049234
0.6729305
0.67341433
0.6730399
0.67214855
0.67116817
0.67038404
0.66977962
0.66929217
0.66889256
0.66851719
0.66814535
0.66778098
0.66748476
0.66722328
0.66702736
0.66685955
0.66669241
0.66651204
0.66639569
0.66635283
0.66621177
0.66626415
0.66687627
0.66771677
0.66752142
0.6661605
0.66454871
0.66334509
0.66262597
0.66223405
0.66206484
0.66217608
0.66264251
0.66335384
0.66406797
0.66463176
0.66494423
0.6650443
0.66506617
0.66506992
0.66507047
0.66507054
0.66507054
0.66507055
0.66507055
0.66507055
0.66507055
0.66801255
0.6679384
0.66785731
0.66772512
0.66768112
0.66760384
0.66741844
0.6673543
0.66780598
0.66833407
0.66821095
0.66773271
0.66753402
0.66815674
0.67048841
0.67291813
0.67336728
0.67296921
0.67206239
0.67107703
0.67026633
0.66963875
0.66916538
0.66881095
0.6684836
0.66814173
0.66778523
0.66748695
0.66722354
0.66702714
0.66685934
0.66669227
0.666512
0.66639571
0.66635284
0.66621181
0.66626441
0.6668767
0.66771701
0.66752099
0.66615977
0.66454802
0.66334464
0.66262572
0.66223393
0.66206483
0.6621762
0.66264272
0.66335408
0.66406817
0.66463189
0.66494429
0.66504432
0.66506617
0.66506992
0.66507047
0.66507054
0.66507054
0.66507055
0.66507055
0.66507055
0.66507055
0.66801302
0.66793347
0.66785156
0.66772139
0.66767888
0.66760087
0.66741406
0.66734669
0.66779297
0.66832775
0.66820848
0.66772897
0.66752404
0.66814118
0.67048682
0.67290359
0.67330883
0.67287829
0.67194824
0.67095663
0.67011961
0.66947218
0.66902154
0.66871973
0.66844555
0.66813806
0.66779079
0.66748975
0.66722387
0.66702686
0.66685908
0.6666921
0.66651194
0.66639573
0.66635284
0.66621184
0.66626467
0.66687715
0.66771725
0.66752052
0.66615901
0.6645473
0.66334417
0.66262546
0.6622338
0.66206482
0.66217632
0.66264294
0.66335434
0.66406839
0.66463203
0.66494435
0.66504433
0.66506617
0.66506992
0.66507047
0.66507054
0.66507054
0.66507055
0.66507055
0.66507055
0.66507055
0.66801322
0.66792778
0.66784469
0.66771692
0.66767639
0.66759714
0.66740867
0.66733801
0.66777873
0.66831986
0.66820431
0.66772334
0.66751202
0.66812506
0.67048868
0.67288658
0.67323702
0.67276086
0.67179517
0.6707948
0.66993539
0.66927807
0.66886374
0.66862143
0.66840359
0.66813447
0.66779795
0.6674933
0.66722429
0.66702652
0.66685878
0.66669192
0.66651187
0.66639573
0.66635283
0.66621186
0.66626493
0.66687761
0.66771751
0.66752004
0.66615821
0.66454653
0.66334367
0.66262519
0.66223367
0.66206481
0.66217645
0.66264317
0.66335461
0.66406862
0.66463217
0.66494442
0.66504435
0.66506618
0.66506992
0.66507047
0.66507054
0.66507054
0.66507055
0.66507055
0.66507055
0.66507055
0.6680131
0.66792125
0.66783652
0.66771158
0.66767366
0.66759247
0.66740204
0.66732813
0.66776329
0.66831007
0.66819791
0.6677153
0.66749763
0.66810877
0.67049502
0.67286612
0.67314911
0.67260852
0.67158937
0.67057695
0.66970524
0.66905705
0.66869779
0.66851979
0.66835826
0.6681306
0.66780659
0.66749763
0.66722483
0.66702614
0.66685844
0.66669172
0.66651179
0.66639573
0.66635281
0.66621187
0.66626521
0.6668781
0.66771777
0.66751952
0.66615736
0.66454573
0.66334315
0.6626249
0.66223354
0.66206479
0.66217659
0.66264342
0.6633549
0.66406886
0.66463232
0.66494449
0.66504437
0.66506618
0.66506992
0.66507047
0.66507054
0.66507054
0.66507055
0.66507055
0.66507055
0.66507055
0.6680126
0.66791375
0.66782681
0.66770526
0.66767069
0.6675866
0.66739388
0.66731688
0.66774673
0.6682979
0.66818855
0.6677041
0.66748056
0.66809305
0.67050715
0.67283955
0.67304101
0.67241073
0.6713157
0.67028873
0.66942335
0.66881432
0.66853068
0.66841915
0.66830979
0.66812514
0.66781577
0.66750247
0.66722549
0.66702574
0.66685808
0.6666915
0.6665117
0.66639572
0.66635278
0.66621187
0.66626549
0.6668786
0.66771805
0.66751898
0.66615647
0.66454488
0.6633426
0.6626246
0.66223339
0.66206478
0.66217673
0.66264368
0.6633552
0.66406911
0.66463248
0.66494456
0.66504439
0.66506618
0.66506993
0.66507047
0.66507054
0.66507054
0.66507055
0.66507055
0.66507055
0.66507055
0.66801166
0.66790514
0.6678153
0.66769784
0.66766746
0.66757916
0.66738381
0.66730412
0.66772929
0.66828271
0.66817513
0.66768871
0.66746048
0.66807928
0.67052641
0.67280091
0.67290635
0.67215566
0.67096147
0.66992131
0.66909068
0.66856104
0.66836775
0.66832334
0.66825882
0.66811591
0.66782335
0.6675072
0.66722625
0.66702539
0.6668577
0.66669126
0.66651161
0.6663957
0.66635274
0.66621187
0.66626577
0.66687913
0.66771834
0.66751841
0.66615553
0.66454399
0.66334202
0.66262428
0.66223324
0.66206477
0.66217688
0.66264395
0.66335551
0.66406938
0.66463265
0.66494463
0.66504441
0.66506619
0.66506993
0.66507047
0.66507054
0.66507054
0.66507055
0.66507055
0.66507055
0.66507055
0.6680102
0.66789526
0.66780169
0.66768922
0.66766386
0.66756965
0.6673714
0.66728979
0.66771146
0.66826348
0.66815596
0.66766756
0.66743713
0.6680699
0.67055351
0.67273842
0.67273522
0.67183216
0.67052289
0.66947884
0.66872064
0.66831049
0.66821056
0.6682318
0.66821349
0.6680994
0.66782686
0.66751099
0.66722698
0.6670251
0.66685734
0.66669101
0.6665115
0.66639567
0.66635269
0.66621186
0.66626607
0.66687968
0.66771864
0.66751781
0.66615455
0.66454305
0.66334141
0.66262395
0.66223308
0.66206475
0.66217704
0.66264424
0.66335585
0.66406966
0.66463283
0.66494471
0.66504443
0.66506619
0.66506993
0.66507047
0.66507054
0.66507054
0.66507055
0.66507055
0.66507055
0.66507055
0.66800814
0.66788393
0.66778562
0.66767937
0.66765965
0.66755746
0.66735612
0.66727401
0.66769418
0.66823853
0.66812827
0.66763835
0.66741024
0.66806782
0.67058734
0.67263157
0.67251291
0.67143223
0.67001226
0.66898602
0.6683419
0.66807527
0.6680363
0.66815327
0.6681834
0.66808524
0.66782756
0.66751331
0.66722744
0.66702487
0.66685701
0.66669075
0.66651138
0.66639564
0.66635263
0.66621184
0.66626638
0.66688025
0.66771896
0.66751718
0.66615351
0.66454206
0.66334077
0.66262359
0.66223291
0.66206474
0.6621772
0.66264454
0.6633562
0.66406996
0.66463301
0.6649448
0.66504446
0.6650662
0.66506993
0.66507047
0.66507054
0.66507054
0.66507055
0.66507055
0.66507055
0.66507055
0.6680054
0.66787094
0.66776668
0.6676683
0.66765448
0.66754164
0.66733722
0.66725727
0.66767905
0.66820493
0.6680875
0.66759752
0.66737919
0.6680792
0.67062246
0.67245425
0.67220896
0.67095808
0.66946181
0.66849043
0.66799251
0.66784616
0.66787379
0.66809173
0.66816512
0.66807631
0.66782742
0.66751439
0.66722759
0.66702466
0.6668567
0.66669049
0.66651125
0.6663956
0.66635257
0.66621182
0.6662667
0.66688085
0.66771929
0.66751651
0.66615241
0.66454102
0.66334009
0.66262322
0.66223274
0.66206472
0.66217738
0.66264486
0.66335657
0.66407027
0.66463321
0.66494488
0.66504448
0.6650662
0.66506993
0.66507047
0.66507054
0.66507054
0.66507055
0.66507055
0.66507055
0.66507055
0.66800192
0.66785603
0.6677444
0.6676562
0.6676478
0.66752062
0.66731357
0.66724085
0.66766852
0.6681574
0.66802599
0.66753953
0.66734236
0.66811025
0.67064728
0.67217213
0.67178987
0.67041787
0.66891878
0.66805109
0.66770704
0.66763129
0.66774135
0.66805218
0.66815623
0.66807209
0.66782717
0.66751466
0.66722748
0.66702444
0.66685641
0.66669021
0.66651111
0.66639556
0.6663525
0.66621179
0.66626704
0.66688148
0.66771964
0.66751581
0.66615126
0.66453993
0.66333938
0.66262283
0.66223255
0.6620647
0.66217756
0.6626452
0.66335695
0.6640706
0.66463342
0.66494498
0.66504451
0.66506621
0.66506993
0.66507047
0.66507054
0.66507054
0.66507055
0.66507055
0.66507055
0.66507055
0.66799772
0.6678388
0.66771822
0.66764345
0.66763841
0.66749222
0.66728379
0.66722725
0.66766481
0.66808655
0.66793112
0.66745575
0.66729545
0.66816907
0.67063714
0.67174855
0.67123439
0.66982351
0.66843043
0.66771614
0.66749443
0.66745881
0.66765307
0.66803273
0.66815355
0.66807094
0.66782699
0.66751437
0.66722717
0.66702421
0.66685613
0.66668993
0.66651097
0.66639551
0.66635242
0.66621176
0.66626739
0.66688214
0.66772001
0.66751507
0.66615004
0.66453878
0.66333864
0.66262242
0.66223235
0.66206468
0.66217775
0.66264555
0.66335736
0.66407095
0.66463364
0.66494507
0.66504453
0.66506621
0.66506993
0.66507047
0.66507054
0.66507054
0.66507055
0.66507055
0.66507055
0.66507055
0.66799312
0.66781845
0.6676875
0.6676306
0.6676232
0.66745434
0.66724561
0.66721941
0.66766778
0.6679779
0.66778355
0.66733192
0.66723171
0.66825998
0.67055225
0.67116694
0.67054245
0.66919487
0.66802521
0.66749515
0.66735165
0.66735003
0.66760953
0.66802811
0.66815452
0.66807165
0.66782671
0.66751367
0.66722674
0.66702398
0.66685583
0.66668962
0.66651081
0.66639546
0.66635234
0.66621172
0.66626775
0.66688283
0.66772039
0.6675143
0.66614876
0.66453757
0.66333785
0.66262199
0.66223215
0.66206466
0.66217795
0.66264592
0.66335779
0.66407131
0.66463387
0.66494518
0.66504456
0.66506622
0.66506993
0.66507047
0.66507054
0.66507054
0.66507055
0.66507055
0.66507055
0.66507055
0.66798903
0.66779246
0.66765223
0.66761805
0.66759854
0.66740217
0.66719675
0.66722814
0.66767566
0.6678169
0.66755743
0.66714298
0.66714285
0.66837313
0.67033048
0.67045723
0.66974375
0.66856488
0.66770588
0.66736106
0.66726816
0.66729889
0.66759897
0.66803516
0.66815884
0.66807396
0.66782643
0.66751273
0.66722624
0.66702375
0.66685552
0.6666893
0.66651064
0.66639541
0.66635225
0.66621168
0.66626814
0.66688356
0.6677208
0.66751348
0.66614741
0.66453629
0.66333702
0.66262154
0.66223193
0.66206464
0.66217816
0.66264632
0.66335825
0.6640717
0.66463411
0.66494529
0.66504459
0.66506622
0.66506993
0.66507047
0.66507054
0.66507054
0.66507055
0.66507055
0.66507055
0.66507055
0.6679851
0.66775973
0.6676119
0.66760491
0.66756298
0.66732981
0.66713712
0.66725994
0.66766571
0.66760115
0.6672241
0.66685923
0.66701413
0.66846251
0.66990045
0.66969823
0.66889211
0.66798524
0.6674608
0.66727599
0.66722232
0.66728537
0.66761417
0.66805011
0.6681642
0.66807653
0.66782595
0.66751167
0.66722573
0.66702351
0.6668552
0.66668896
0.66651046
0.66639535
0.66635215
0.66621164
0.66626854
0.66688432
0.66772122
0.66751262
0.66614599
0.66453495
0.66333615
0.66262106
0.6622317
0.66206462
0.66217839
0.66264673
0.66335873
0.6640721
0.66463436
0.6649454
0.66504462
0.66506623
0.66506993
0.66507047
0.66507054
0.66507054
0.66507055
0.66507055
0.66507055
0.66507055
0.66798073
0.66771966
0.66756521
0.66758691
0.6675125
0.66723973
0.66706664
0.66730203
0.66759125
0.66735924
0.66676442
0.66646229
0.66683397
0.66846281
0.66928867
0.66888277
0.66809893
0.66751552
0.66727463
0.66721503
0.66720089
0.66730523
0.66764773
0.66806856
0.66816977
0.66807902
0.66782531
0.66751056
0.66722521
0.66702326
0.66685485
0.6666886
0.66651027
0.66639528
0.66635205
0.66621159
0.66626896
0.66688512
0.66772167
0.66751171
0.66614449
0.66453354
0.66333524
0.66262055
0.66223146
0.6620646
0.66217862
0.66264717
0.66335923
0.66407253
0.66463463
0.66494552
0.66504466
0.66506624
0.66506993
0.66507047
0.66507054
0.66507054
0.66507055
0.66507055
0.66507055
0.66507055
0.66797531
0.66767105
0.66751041
0.66755578
0.66744039
0.6671322
0.66698393
0.66732796
0.66748235
0.66704741
0.66622761
0.66597748
0.66659004
0.6682165
0.66854047
0.66807683
0.66745919
0.66718212
0.66713584
0.66716875
0.66721562
0.66734884
0.66768638
0.66808557
0.66817454
0.66808099
0.66782452
0.66750944
0.66722469
0.667023
0.66685448
0.66668821
0.66651008
0.66639521
0.66635195
0.66621154
0.6662694
0.66688596
0.66772214
0.66751076
0.66614291
0.66453205
0.66333428
0.66262002
0.6622312
0.66206457
0.66217886
0.66264763
0.66335977
0.66407298
0.66463492
0.66494565
0.66504469
0.66506624
0.66506993
0.66507047
0.66507054
0.66507054
0.66507055
0.66507055
0.66507055
0.66507055
0.66796834
0.66761168
0.66744441
0.66749389
0.66733662
0.66699714
0.66688839
0.66729879
0.66732899
0.6666952
0.66570605
0.66549786
0.66623712
0.66765716
0.66774805
0.66737026
0.66702353
0.66696043
0.66703938
0.66716592
0.6672537
0.66739459
0.6677191
0.66809854
0.66817794
0.66808217
0.66782358
0.66750836
0.66722419
0.66702273
0.66685408
0.6666878
0.66650986
0.66639514
0.66635183
0.66621148
0.66626987
0.66688685
0.66772264
0.66750976
0.66614124
0.66453048
0.66333326
0.66261946
0.66223093
0.66206454
0.66217912
0.66264811
0.66336033
0.66407346
0.66463522
0.66494578
0.66504473
0.66506625
0.66506994
0.66507047
0.66507054
0.66507054
0.66507055
0.66507055
0.66507055
0.66507055
0.66795948
0.66753757
0.66735926
0.66737734
0.66717085
0.66681571
0.66677055
0.66719957
0.66711376
0.66634931
0.66533848
0.66516481
0.6658276
0.66691311
0.66704359
0.66685503
0.66676395
0.66681948
0.66701371
0.66719758
0.66729636
0.66743275
0.66774338
0.66810733
0.6681799
0.66808258
0.66782252
0.66750732
0.66722369
0.66702244
0.66685364
0.66668737
0.66650964
0.66639506
0.66635172
0.66621142
0.66627035
0.66688777
0.66772316
0.6675087
0.66613949
0.66452883
0.66333219
0.66261887
0.66223065
0.66206452
0.66217939
0.66264862
0.66336092
0.66407396
0.66463554
0.66494593
0.66504477
0.66506626
0.66506994
0.66507047
0.66507054
0.66507054
0.66507055
0.66507055
0.66507055
0.66507055
0.66794738
0.66744355
0.66723118
0.66717222
0.66689744
0.66656741
0.66662034
0.66701436
0.66683941
0.66607617
0.66519839
0.66505865
0.6655272
0.66627856
0.66656078
0.66656848
0.66660698
0.66677822
0.66704113
0.6672387
0.66733357
0.66746189
0.66776035
0.66811272
0.66818062
0.66808232
0.66782137
0.66750631
0.66722319
0.66702213
0.66685318
0.66668691
0.66650941
0.66639497
0.66635159
0.66621136
0.66627087
0.66688875
0.6677237
0.66750758
0.66613763
0.66452709
0.66333107
0.66261825
0.66223035
0.66206449
0.66217968
0.66264916
0.66336155
0.66407449
0.66463587
0.66494608
0.66504481
0.66506627
0.66506994
0.66507047
0.66507054
0.66507054
0.66507055
0.66507055
0.66507055
0.66507055
0.66792851
0.66732792
0.66701283
0.6668356
0.66648825
0.66624503
0.66643186
0.66671923
0.66651627
0.66592863
0.66530538
0.6652051
0.66547018
0.66599755
0.66632103
0.66643397
0.66655605
0.66678954
0.66707952
0.66727468
0.66736256
0.66748297
0.66777147
0.66811544
0.66818058
0.66808158
0.66782015
0.66750532
0.6672227
0.6670218
0.66685268
0.66668642
0.66650916
0.66639488
0.66635146
0.66621129
0.66627141
0.66688977
0.66772428
0.66750641
0.66613568
0.66452525
0.66332988
0.6626176
0.66223003
0.66206445
0.66217998
0.66264973
0.66336221
0.66407505
0.66463623
0.66494623
0.66504485
0.66506627
0.66506994
0.66507047
0.66507054
0.66507054
0.66507055
0.66507055
0.66507055
0.66507055
0.66789922
0.66719922
0.66668411
0.6663618
0.66599099
0.6658683
0.66619794
0.66636631
0.6662024
0.66591648
0.66568587
0.66557842
0.6656575
0.66597223
0.66626004
0.66639783
0.6665474
0.66680918
0.66710921
0.66730057
0.667383
0.66749712
0.66777796
0.66811635
0.66817967
0.66808039
0.66781887
0.66750435
0.66722219
0.66702145
0.66685214
0.6666859
0.6665089
0.66639479
0.66635132
0.66621122
0.66627197
0.66689085
0.66772489
0.66750517
0.66613361
0.66452332
0.66332864
0.66261691
0.6622297
0.66206442
0.66218029
0.66265034
0.6633629
0.66407564
0.6646366
0.6649464
0.6650449
0.66506628
0.66506994
0.66507047
0.66507054
0.66507054
0.66507055
0.66507055
0.66507055
0.66507055
0.66784651
0.66707878
0.66630265
0.66583666
0.6655748
0.66557126
0.66593058
0.66606062
0.66600361
0.66592414
0.66586866
0.66584087
0.66592895
0.66612069
0.66629629
0.66640191
0.66655485
0.66682421
0.66712711
0.6673164
0.6673956
0.66750544
0.66778103
0.66811585
0.6681783
0.66807895
0.66781754
0.66750336
0.66722165
0.66702106
0.66685157
0.66668535
0.66650862
0.66639468
0.66635117
0.66621114
0.66627257
0.66689198
0.66772553
0.66750387
0.66613143
0.66452128
0.66332732
0.66261618
0.66222935
0.66206438
0.66218062
0.66265097
0.66336364
0.66407626
0.664637
0.66494658
0.66504494
0.66506629
0.66506994
0.66507047
0.66507054
0.66507054
0.66507055
0.66507055
0.66507055
0.66507055
0.66774324
0.66696142
0.66599711
0.66552238
0.66535273
0.66543307
0.66576821
0.66589714
0.66586693
0.66586845
0.66591914
0.66598585
0.66611595
0.66627708
0.66638922
0.66644804
0.66657377
0.66683351
0.66713499
0.66732381
0.66740175
0.66750927
0.66778191
0.66811463
0.66817665
0.66807732
0.66781613
0.66750231
0.66722109
0.66702065
0.66685095
0.66668476
0.66650832
0.66639457
0.66635102
0.66621105
0.66627319
0.66689316
0.6677262
0.6675025
0.66612913
0.66451914
0.66332594
0.66261542
0.66222897
0.66206434
0.66218097
0.66265164
0.66336442
0.66407692
0.66463742
0.66494676
0.66504499
0.6650663
0.66506994
0.66507047
0.66507054
0.66507054
0.66507055
0.66507055
0.66507055
0.66507055
0.66754223
0.666798
0.66588421
0.66545305
0.66530861
0.66545191
0.66573941
0.66581039
0.66580141
0.66583903
0.66594266
0.66606252
0.66621779
0.66636784
0.66645277
0.66648721
0.66659214
0.6668392
0.66713688
0.6673257
0.66740353
0.66751021
0.6677814
0.668113
0.66817484
0.66807557
0.66781462
0.6675012
0.66722048
0.6670202
0.66685029
0.66668414
0.66650801
0.66639445
0.66635085
0.66621096
0.66627385
0.66689441
0.66772691
0.66750105
0.66612671
0.66451687
0.66332448
0.66261461
0.66222858
0.6620643
0.66218134
0.66265235
0.66336524
0.66407761
0.66463786
0.66494696
0.66504505
0.66506631
0.66506995
0.66507047
0.66507054
0.66507054
0.66507055
0.66507055
0.66507055
0.66507055
0.66720493
0.66658885
0.66587566
0.66556961
0.66548118
0.66560195
0.66578203
0.66580717
0.66579349
0.66583846
0.66596486
0.66610793
0.66627307
0.66641681
0.6664885
0.6665114
0.66660495
0.66684247
0.66713666
0.66732542
0.66740341
0.66750963
0.66777992
0.66811105
0.66817292
0.66807372
0.66781301
0.6675
0.66721983
0.66701972
0.66684958
0.66668348
0.66650768
0.66639433
0.66635068
0.66621087
0.66627454
0.66689572
0.66772766
0.66749952
0.66612414
0.66451449
0.66332294
0.66261376
0.66222817
0.66206426
0.66218172
0.6626531
0.6633661
0.66407835
0.66463833
0.66494717
0.6650451
0.66506632
0.66506995
0.66507047
0.66507054
0.66507054
0.66507055
0.66507055
0.66507055
0.66507055
0.66679796
0.66637401
0.66599966
0.66577606
0.66569099
0.66578847
0.66590982
0.66587976
0.6658357
0.66586744
0.66599144
0.66613825
0.66630539
0.66644573
0.66651094
0.66652776
0.66661425
0.66684439
0.66713547
0.66732393
0.66740172
0.66750725
0.66777717
0.66810863
0.66817084
0.66807175
0.6678113
0.66749871
0.66721914
0.66701921
0.66684882
0.66668278
0.66650733
0.66639419
0.6663505
0.66621076
0.66627527
0.6668971
0.66772845
0.66749791
0.66612143
0.66451197
0.66332132
0.66261286
0.66222773
0.66206421
0.66218213
0.66265389
0.66336702
0.66407912
0.66463883
0.66494739
0.66504516
0.66506634
0.66506995
0.66507047
0.66507054
0.66507054
0.66507055
0.66507055
0.66507055