/*--------------------------------*- C++ -*----------------------------------*\
| =========                 |                                                 |
| \\      /  F ield         | OpenFOAM: The Open Source CFD Toolbox           |
|  \\    /   O peration     | Version:  2506                                  |
|   \\  /    A nd           | Website:  www.openfoam.com                      |
|    \\/     M anipulation  |                                                 |
\*---------------------------------------------------------------------------*/
FoamFile
{
    version     2.0;
    format      ascii;
    arch        "LSB;label=32;scalar=64";
    class       volScalarField;
    location    "0.028";
    object      Co;
}
// * * * * * * * * * * * * * * * * * * * * * * * * * * * * * * * * * * * * * //

dimensions      [0 0 0 0 0 0 0];

internalField   nonuniform List<scalar> 
13761
(
3.6559561e-05
7.6388048e-05
0.00011641993
0.00018005567
0.00026703055
0.00036921837
0.00048526329
0.00061355594
0.00075229645
0.00089920033
0.0010509266
0.001204717
0.0013578517
0.0015071197
0.0016499521
0.0017841977
0.0019081752
0.0020211616
0.0021232539
0.0022134831
0.0022915282
0.0023585039
0.0024142789
0.0024590884
0.0024939069
0.0025184892
0.0025336549
0.0025393871
0.0025357491
0.0025226834
0.0024999253
0.002466878
0.0024230667
0.0023672339
0.0022982311
0.0022151823
0.0021168965
0.0020027353
0.0018724567
0.0017265721
0.0015662575
0.0013936181
0.0012115234
0.0010238945
0.00083572147
0.00066843955
0.000587759
0.0005506913
0.00047716773
0.00036420442
0.00019421831
0.00027524714
0.00049665998
0.00076290166
0.0010895979
0.0014853983
0.0019265186
0.0023924181
0.0028802598
0.0033871935
0.0039106046
0.004448979
0.0050020474
0.005570139
0.0061532568
0.0067503485
0.0073587786
0.0079740757
0.0085898335
0.0091978664
0.009788635
0.010351918
0.010877729
0.011357453
0.011784961
0.012157498
0.012476125
0.012745597
0.012981391
0.013202879
0.013409531
0.013596932
0.01377109
0.013929217
0.014072183
0.014202049
0.014318548
0.014420707
0.014507974
0.014579951
0.014636736
0.014678651
0.014706214
0.014719981
0.014720481
0.014708171
0.014683396
0.014646367
0.014597178
0.014535793
0.014462077
0.014375855
0.014276832
0.014164492
0.014038315
0.013897973
0.013743141
0.013573326
0.013388007
0.013186783
0.012969341
0.012735488
0.012485268
0.012218954
0.01193688
0.011639369
0.011326954
0.011000663
0.010662087
0.010313098
0.0099555171
0.0095910762
0.0092213551
0.0088478539
0.0084723261
0.0080970055
0.0077239243
0.0073555239
0.006992772
0.0066373012
0.0062908682
0.0059531549
0.0056272076
0.0053113012
0.0050073588
0.0047178896
0.0044322978
0.0041642433
1.8471197e-05
5.6130545e-05
9.6429725e-05
0.00013915396
0.00018402063
0.00023071776
0.00027881649
0.00032763579
0.00037617327
0.00042287586
0.00046558654
0.00050182766
0.00052935971
0.0005469439
0.00057226156
0.00061091726
0.00064998359
0.00068665994
0.00072070429
0.00075189627
0.00078006735
0.00080518416
0.00082711192
0.00084574364
0.00086105213
0.00087287485
0.0008811681
0.00088580471
0.00088667435
0.00088366996
0.00087667851
0.000865572
0.00085025186
0.00083055671
0.00080638237
0.00077771013
0.00074457933
0.00070720922
0.00066603239
0.00065375145
0.00067019964
0.00068209159
0.00068222324
0.0006664775
0.00063077182
0.00057155936
0.00048739239
0.00038326773
0.00030905291
0.00024589106
0.000129749
0.00019817576
0.00040600939
0.00065270421
0.00093680738
0.0012555409
0.0016044801
0.0019791519
0.0023753556
0.0027893371
0.0032181459
0.0036601006
0.0041147101
0.0045820757
0.0050620949
0.0055538482
0.0060551411
0.0065622622
0.0070699005
0.0075712654
0.0080584169
0.0085228365
0.0089562067
0.0093513601
0.009703197
0.010009483
0.010271186
0.010492359
0.010684506
0.010870305
0.011049761
0.011213347
0.011366113
0.011505611
0.011632636
0.011749018
0.011854613
0.011948668
0.012030837
0.012100917
0.012159081
0.012205699
0.012241295
0.012266414
0.012281582
0.012287228
0.012283686
0.012271168
0.012249776
0.012219491
0.012180202
0.012131747
0.012073832
0.012005984
0.011927707
0.011838639
0.01173839
0.01162641
0.011502114
0.011364968
0.01121449
0.01105028
0.010872128
0.010679986
0.010473828
0.010253617
0.010019486
0.0097720045
0.0095122311
0.0092415062
0.0089611426
0.0086723928
0.0083764141
0.0080743321
0.0077675422
0.0074579191
0.0071472384
0.0068376749
0.0065300934
0.0062260659
0.005927212
0.0056333889
0.0053476145
0.0050682307
0.00479748
0.0045378226
0.0042791257
0.0040349662
1.6196315e-05
5.0252978e-05
8.8431425e-05
0.00013047899
0.00017607231
0.00022486456
0.00027649759
0.00033043776
0.000386057
0.00044248527
0.00049846179
0.00055254435
0.00060301974
0.00064814566
0.00068686489
0.00071896954
0.00074496358
0.00076571804
0.00078218214
0.0007949707
0.00080461768
0.00081169772
0.00081650005
0.00081927307
0.00082030558
0.0008196835
0.00081760204
0.00081413806
0.0008093723
0.00080337438
0.00079618907
0.00078782409
0.00077828674
0.0007674748
0.00075525625
0.00074145514
0.00072574969
0.00070771673
0.00068675855
0.00066209844
0.00063275202
0.00059752836
0.00055501224
0.00053365054
0.00054555173
0.00056689958
0.00058518961
0.00059126223
0.00057022039
0.00050690996
0.00039514745
0.00042716218
0.00061294855
0.00081840866
0.0010491033
0.001307031
0.0015922873
0.0019038871
0.0022397929
0.0025972535
0.0029733903
0.0033658146
0.0037730002
0.0041941168
0.0046284001
0.0050745438
0.0055302401
0.0059918982
0.0064545195
0.0069117769
0.0073562887
0.0077801385
0.0081755928
0.0085359752
0.0088565274
0.0091351501
0.0093727341
0.0095730381
0.0097422829
0.0099064222
0.010071842
0.01022546
0.010368973
0.010500063
0.010619512
0.010729094
0.010828725
0.010917775
0.010996032
0.011063385
0.011120081
0.011166518
0.011203263
0.011230868
0.011249853
0.011260652
0.011263582
0.011258874
0.011246626
0.01122682
0.011199364
0.011164109
0.011120784
0.011068931
0.011008089
0.010937909
0.010857989
0.010767775
0.010666672
0.010554137
0.01042965
0.010292747
0.010143136
0.0099806669
0.0098052062
0.0096165819
0.0094147702
0.009200171
0.0089736357
0.0087362754
0.0084891823
0.0082333973
0.0079698757
0.0076995641
0.0074236824
0.0071439144
0.0068618997
0.0065796558
0.0062979638
0.0060183402
0.005742269
0.0054696847
0.0052035571
0.0049421645
0.0046879703
0.0044433123
0.0041982317
0.0039663155
1.4162551e-05
4.3016952e-05
7.3805706e-05
0.00010642617
0.00014073555
0.00017659638
0.00021384148
0.00025222048
0.00029140976
0.0003309432
0.00037014332
0.00040811683
0.00044374015
0.0004758962
0.0005038966
0.00052769483
0.0005477753
0.00056486076
0.00057968282
0.0005928044
0.00060466691
0.0006156442
0.00062597437
0.00063584452
0.00064543244
0.00065483488
0.0006641834
0.0006735662
0.00068307477
0.00069280269
0.00070284667
0.00071329531
0.00072426666
0.00073582739
0.00074806778
0.00076111662
0.00077504981
0.00078997179
0.00080594239
0.00082298907
0.0008410134
0.0008597862
0.00087870456
0.0008965533
0.00091103021
0.00091765539
0.00090859224
0.00087190185
0.00079432681
0.00066921724
0.00050144048
0.00046217163
0.00062437194
0.0008143197
0.0010318223
0.0012759064
0.0015449024
0.0018366032
0.0021484116
0.0024779094
0.0028234417
0.0031840993
0.0035594066
0.0039489638
0.0043520505
0.0047672904
0.0051923314
0.0056236305
0.006056349
0.0064844219
0.0069008038
0.0072979334
0.007668404
0.0080058113
0.0083055792
0.0085656717
0.0087869011
0.0089728386
0.0091292673
0.009273663
0.0094227808
0.0095699981
0.0097074035
0.0098327757
0.0099468934
0.010051516
0.010146634
0.010231719
0.010306653
0.010371404
0.010426296
0.010471783
0.010508435
0.010536829
0.010557493
0.010570846
0.01057722
0.010576826
0.01056977
0.010556044
0.010535561
0.010508183
0.010473647
0.010431522
0.010381362
0.010322828
0.010255528
0.010178917
0.010092399
0.0099954204
0.0098874539
0.0097680105
0.0096367533
0.0094934829
0.0093379891
0.0091700225
0.0089894766
0.0087966349
0.0085922222
0.0083772048
0.0081525226
0.0079190708
0.0076776727
0.0074291412
0.0071745733
0.0069155216
0.0066535237
0.0063904725
0.0061270768
0.0058648108
0.0056050294
0.0053477283
0.0050958293
0.004847516
0.0046054561
0.0043718466
0.0041368294
1.4757584e-05
4.5802668e-05
8.0793944e-05
0.00011960501
0.00016203265
0.00020786706
0.00025690507
0.00030879662
0.00036312557
0.00041927663
0.00047625482
0.00053293553
0.00058788564
0.00063954388
0.00068686452
0.00072949202
0.00076767313
0.00080203251
0.00083331565
0.00086189406
0.00088811441
0.00091250295
0.00093522604
0.00095646294
0.00097652561
0.00099542266
0.0010134108
0.0010305561
0.0010469771
0.0010628044
0.0010781633
0.0010931438
0.0011079263
0.0011225037
0.0011369129
0.001151305
0.0011656446
0.001179959
0.0011941538
0.0012080663
0.0012212888
0.0012332635
0.0012428917
0.0012483392
0.0012465377
0.001232054
0.0011964487
0.0011289016
0.0010208223
0.00087237826
0.00069150707
0.00063610035
0.0007757198
0.0009375506
0.0011233138
0.0013335679
0.0015681499
0.0018261965
0.002106106
0.0024058003
0.0027232817
0.0030571014
0.0034064416
0.0037706957
0.0041489833
0.0045398068
0.0049407548
0.0053482994
0.0057577046
0.0061630848
0.006557616
0.0069339812
0.0072850119
0.0076044868
0.0078879481
0.0081333906
0.0083415493
0.0085158516
0.0086618159
0.0087861972
0.0089190183
0.0090614452
0.0091942063
0.0093151175
0.0094249639
0.0095255114
0.0096168106
0.0096984302
0.0097703499
0.0098326319
0.0098856508
0.0099299031
0.0099660005
0.0099945202
0.010015991
0.010030845
0.0100394
0.01004187
0.010038354
0.010028849
0.010013278
0.0099915008
0.0099632612
0.0099281492
0.0098857548
0.0098357424
0.0097777167
0.0097111403
0.0096354359
0.0095500536
0.0094544479
0.0093481189
0.0092307136
0.0091019908
0.0089616941
0.0088095176
0.0086452936
0.008469234
0.0082819596
0.0080843258
0.0078771566
0.0076612357
0.0074372777
0.0072059995
0.0069683971
0.0067259038
0.006479986
0.0062324257
0.0059838649
0.0057357472
0.0054893002
0.0052445699
0.0050044316
0.0047669654
0.0045350291
0.0043106749
0.0040841151
1.5864164e-05
4.9327896e-05
8.7233877e-05
0.00012945606
0.00017580039
0.00022606906
0.00028008446
0.00033750883
0.00039792816
0.0004607088
0.00052478748
0.00058898789
0.00065185303
0.00071178299
0.00076771609
0.00081923252
0.00086643637
0.00090981464
0.00095000915
0.00098722607
0.001021708
0.0010539803
0.0010841445
0.0011123397
0.0011389039
0.0011637837
0.001187259
0.0012093726
0.0012302234
0.0012499358
0.0012686185
0.0012863395
0.0013032704
0.0013193402
0.0013345366
0.0013489751
0.0013625439
0.0013751976
0.0013867318
0.0013968561
0.0014049678
0.0014102825
0.0014113681
0.001405947
0.0013903976
0.001358702
0.0013023126
0.0012122449
0.00108436
0.00092342303
0.00073787044
0.00067026555
0.00080540469
0.00096257758
0.001142241
0.0013441163
0.0015673868
0.0018108525
0.0020731474
0.0023530708
0.0026497291
0.0029624746
0.0032908963
0.003634539
0.0039925388
0.0043633711
0.0047446025
0.0051327321
0.0055231105
0.0059099846
0.0062867044
0.0066461308
0.0069812522
0.0072859934
0.0075559794
0.0077892074
0.007986353
0.0081507149
0.0082876258
0.0084034896
0.0085190585
0.0086472345
0.0087762691
0.0088935284
0.0089997714
0.0090967866
0.0091847004
0.0092631784
0.0093322946
0.0093921924
0.0094433086
0.0094861844
0.0095214532
0.0095497166
0.0095715039
0.009587234
0.009597224
0.0096016826
0.009600711
0.0095943034
0.0095823864
0.0095648267
0.0095413712
0.009511631
0.0094752082
0.0094317788
0.0093809565
0.0093222094
0.0092549694
0.0091786978
0.0090928459
0.0089969073
0.0088905138
0.0087733958
0.0086452646
0.0085057773
0.0083547181
0.008192239
0.0080188922
0.0078354379
0.0076426058
0.0074410936
0.0072315249
0.00701453
0.0067910271
0.0065623559
0.00632991
0.006095382
0.0058593577
0.0056232417
0.0053881453
0.0051541629
0.0049241216
0.0046959964
0.0044728246
0.0042565095
0.0040373182
1.7157373e-05
5.3532865e-05
9.5056841e-05
0.0001416101
0.00019299143
0.00024899513
0.00030944276
0.00037396047
0.00044210091
0.00051313905
0.0005858643
0.00065897225
0.00073088846
0.00079990823
0.00086487415
0.00092527593
0.00098111741
0.0010327909
0.001080932
0.001125668
0.0011671991
0.0012061035
0.0012424501
0.0012763732
0.0013082529
0.001337993
0.0013659085
0.0013920159
0.0014164126
0.0014392089
0.0014605155
0.0014803695
0.0014989547
0.0015161361
0.0015318731
0.0015462601
0.0015591215
0.0015703625
0.0015796925
0.001586719
0.0015906832
0.0015906117
0.0015847915
0.0015705739
0.0015438811
0.001498262
0.0014255625
0.0013188548
0.0011777588
0.0010097952
0.00082291328
0.0007376639
0.00086510139
0.0010124153
0.0011801245
0.0013683082
0.001576597
0.0018041974
0.0020500192
0.0023130188
0.0025924792
0.0028879664
0.0031992252
0.0035258732
0.0038670627
0.0042212662
0.0045860596
0.0049579887
0.0053324854
0.0057039138
0.0060657502
0.0064109901
0.0067327576
0.0070250661
0.007283597
0.0075063535
0.00769395
0.0078495826
0.0079784507
0.008086772
0.0081859215
0.008300794
0.0084266783
0.0085407739
0.0086438039
0.0087375974
0.0088223614
0.0088978642
0.0089642749
0.0090218123
0.0090709755
0.0091123532
0.009146604
0.0091743349
0.0091960786
0.0092122546
0.0092231704
0.0092290281
0.0092299227
0.0092258463
0.0092167296
0.0092024438
0.009182731
0.0091572194
0.0091255412
0.0090873713
0.009042325
0.0089898881
0.0089295002
0.0088606225
0.0087827154
0.0086952687
0.0085979019
0.0084903348
0.0083722513
0.0082432739
0.0081031531
0.0079519982
0.0077902956
0.007618739
0.0074379791
0.0072486355
0.0070512589
0.0068464116
0.0066349409
0.0064180987
0.006197232
0.0059739449
0.0057487654
0.0055230755
0.0052978715
0.0050732919
0.0048521168
0.0046322136
0.0044167946
0.004207611
1.8495681e-05
5.7664744e-05
0.00010228718
0.00015225957
0.00020739109
0.00026748858
0.00033238035
0.00040168188
0.00047490852
0.00055127837
0.00062945126
0.00070801931
0.00078531654
0.00085960958
0.00092974511
0.00099516144
0.0010558348
0.0011121242
0.0011646534
0.0012135267
0.0012589427
0.0013015048
0.0013412787
0.0013783928
0.0014132445
0.0014457115
0.0014761225
0.0015044758
0.0015308587
0.0015553693
0.0015781086
0.0015990903
0.0016184875
0.0016361297
0.0016519394
0.0016659922
0.0016780528
0.0016879805
0.0016954131
0.0016998612
0.0017004368
0.0016959992
0.0016845924
0.0016632551
0.0016276138
0.0015712086
0.0014867071
0.0013695117
0.0012227595
0.0010553592
0.0008736291
0.00076454754
0.00089047079
0.0010347645
0.0011977716
0.0013793193
0.0015789307
0.0017959707
0.0020297447
0.0022796831
0.002545491
0.0028270432
0.0031242728
0.0034368951
0.0037641038
0.0041043961
0.0044553854
0.0048136741
0.0051747729
0.0055331402
0.0058823589
0.0062155376
0.0065258884
0.0068074986
0.007056086
0.0072696462
0.0074487537
0.0075965244
0.0077180532
0.0078194448
0.0079067854
0.0080090052
0.0081288145
0.0082400547
0.0083401188
0.0084308829
0.0085126377
0.0085852589
0.0086490029
0.008704182
0.0087513491
0.0087911361
0.0088242238
0.008851227
0.0088726819
0.0088889969
0.0089004736
0.008907308
0.0089095827
0.0089072932
0.0089003659
0.0088886698
0.008871955
0.0088498592
0.0088220334
0.0087881642
0.0087478619
0.0087006208
0.0086458977
0.0085831611
0.0085118717
0.0084315209
0.0083417261
0.0082421886
0.0081325734
0.008012483
0.0078816377
0.0077401125
0.0075883493
0.0074269741
0.0072565752
0.0070777063
0.0068908541
0.0066965218
0.0064954979
0.0062889651
0.0060782156
0.0058647801
0.0056491423
0.0054326556
0.0052162065
0.0049999783
0.0047867052
0.0045741459
0.0043656826
0.004162913
2.0000865e-05
6.2364635e-05
0.00011059679
0.00016459162
0.00022415811
0.00028909195
0.00035921307
0.0004341087
0.00051322684
0.00059567176
0.00067994379
0.00076448701
0.00084754288
0.00092732078
0.0010026706
0.0010730175
0.0011382916
0.0011988371
0.0012552944
0.0013077698
0.0013564733
0.0014020504
0.001444576
0.0014841887
0.0015213103
0.0015558107
0.0015880243
0.0016179573
0.0016456804
0.0016712936
0.0016948833
0.0017164632
0.0017361904
0.001753872
0.0017694042
0.0017828444
0.0017939204
0.0018024442
0.0018080028
0.0018100218
0.0018075044
0.0017991665
0.001782859
0.0017553983
0.0017122129
0.0016468688
0.0015528827
0.0014281103
0.0012785651
0.0011134344
0.00093665701
0.00079009392
0.00091395552
0.0010550575
0.0012134714
0.0013889722
0.0015811267
0.0017894305
0.0020134142
0.002252793
0.0025075491
0.0027777634
0.0030634994
0.003364542
0.0036801212
0.0040087668
0.0043481323
0.0046948772
0.0050445845
0.0053917954
0.0057301827
0.0060529341
0.0063533314
0.0066255155
0.0068652251
0.0070704538
0.0072417406
0.0073821514
0.0074967179
0.0075914747
0.0076723647
0.0077609278
0.0078695791
0.0079782215
0.0080755471
0.0081634523
0.0082423344
0.0083121822
0.0083733371
0.0084261991
0.0084713826
0.0085095525
0.008541415
0.0085675975
0.0085886239
0.0086048988
0.0086167116
0.008624246
0.0086275821
0.0086267023
0.0086215408
0.0086119648
0.0085977167
0.0085784535
0.008553844
0.0085235752
0.0084872624
0.0084444102
0.0083944844
0.0083369636
0.0082713104
0.0081970179
0.0081137011
0.0080210539
0.0079187254
0.0078062966
0.0076834718
0.0075502965
0.0074071681
0.007254667
0.0070933203
0.0069236259
0.0067460155
0.0065609423
0.0063691434
0.006171733
0.0059699693
0.0057653109
0.0055581934
0.0053499499
0.0051413641
0.0049326596
0.004726525
0.0045206164
0.0043184781
0.0041215549
2.1529155e-05
6.7095415e-05
0.00011888506
0.00017680424
0.0002406516
0.00031022873
0.00038534268
0.00046553356
0.00055017555
0.00063823898
0.00072806242
0.00081792927
0.00090601938
0.00099054073
0.0010703601
0.0011449057
0.0012140826
0.0012782273
0.0013379714
0.0013934335
0.001444834
0.0014928622
0.0015375991
0.0015792043
0.001618115
0.0016542014
0.001687805
0.0017189266
0.0017476406
0.0017740437
0.0017982145
0.0018201562
0.0018400281
0.0018576109
0.001872787
0.0018855958
0.0018957364
0.0019029867
0.0019068824
0.001906783
0.0019015994
0.0018899292
0.0018694708
0.00183687
0.0017874516
0.001715014
0.0016142687
0.0014855457
0.0013368589
0.0011761618
0.0010054469
0.00083273416
0.00093270571
0.0010715211
0.0012262959
0.0013968382
0.0015828055
0.0017838638
0.0019997707
0.0022304809
0.0024761827
0.0027370973
0.0030133705
0.0033048312
0.0036107323
0.0039296285
0.004259212
0.0045961941
0.0049362189
0.0052738986
0.0056029707
0.0059166766
0.006208344
0.0064721418
0.0067038257
0.0069013907
0.0070653609
0.0071987707
0.0073066216
0.0073949247
0.0074695684
0.0075441065
0.0076414073
0.0077476079
0.0078423192
0.0079274659
0.0080035438
0.0080706632
0.0081292635
0.0081798296
0.0082230267
0.008259565
0.0082901606
0.0083154456
0.0083359416
0.008352039
0.0083640173
0.0083720502
0.0083762
0.0083764516
0.0083727368
0.0083649122
0.0083527279
0.0083358535
0.008313967
0.0082867626
0.008253858
0.0082147643
0.0081689599
0.0081159302
0.0080551424
0.0079860933
0.0079084006
0.0078217505
0.0077257777
0.0076200488
0.0075042496
0.0073784051
0.007242882
0.0070982118
0.0069448708
0.0067833095
0.006613913
0.006437087
0.0062535253
0.0060642853
0.0058705876
0.0056738268
0.0054743996
0.0052736186
0.0050721653
0.0048703077
0.0046706883
0.0044708584
0.0042745245
2.3133526e-05
7.2079434e-05
0.00012762938
0.00018968842
0.00025805276
0.00033250044
0.00041281578
0.00049848036
0.00058877446
0.00068250798
0.00077783622
0.00087290295
0.00096582475
0.001054834
0.001138858
0.001217345
0.0012901763
0.0013576641
0.0014204439
0.0014786489
0.0015325054
0.0015827457
0.0016294665
0.0016728349
0.001713313
0.0017507715
0.0017855673
0.0018176943
0.0018472341
0.0018742798
0.0018989111
0.00192112
0.0019410698
0.001958526
0.0019733552
0.0019855881
0.0019948954
0.0020010329
0.0020034937
0.0020015908
0.0019941541
0.0019796928
0.0019557921
0.0019189818
0.0018645737
0.0017867173
0.0016813764
0.0015510967
0.0014045887
0.0012484391
0.0010835923
0.00090890752
0.00094697485
0.0010840733
0.0012360116
0.0014025649
0.0015834734
0.0017785721
0.0019878317
0.002211416
0.0024496795
0.0027029455
0.0029714149
0.0032549451
0.0035528032
0.0038635658
0.004184954
0.0045137216
0.0048455623
0.005175137
0.0054962214
0.0058020878
0.0060860799
0.0063423754
0.006566742
0.0067571792
0.0069142089
0.0070408636
0.0071421487
0.0072240825
0.0072925728
0.007352953
0.0074389158
0.0075427521
0.0076348824
0.007717294
0.007790576
0.0078549823
0.0079110344
0.0079593047
0.0080005085
0.0080353896
0.0080646817
0.0080890178
0.0081089047
0.0081247218
0.008136735
0.0081451021
0.0081498819
0.0081510476
0.0081485258
0.0081421727
0.008131732
0.0081168861
0.0080973341
0.0080727707
0.0080428103
0.0080069737
0.0079647519
0.007915637
0.0078591016
0.0077946485
0.0077218937
0.0076405175
0.0075501476
0.0074503365
0.0073407597
0.0072214233
0.0070926607
0.0069549674
0.0068087787
0.006654501
0.0064924718
0.0063230613
0.006146924
0.0059650616
0.005778666
0.0055890762
0.0053966478
0.0052026749
0.0050077443
0.0048121648
0.0046185343
0.0044243038
0.0042333363
2.5069415e-05
7.7980831e-05
0.00013780631
0.00020444381
0.00027768935
0.0003573179
0.00044309632
0.00053444945
0.00063054878
0.00073004495
0.00083087899
0.00093105563
0.0010286725
0.0011220094
0.0012100677
0.0012923304
0.0013686865
0.0014394426
0.0015052027
0.0015661078
0.0016223989
0.0016748197
0.001723501
0.0017686154
0.0018106444
0.0018494596
0.0018854343
0.0019185615
0.0019489157
0.0019766012
0.0020016969
0.0020241885
0.0020442399
0.002061607
0.0020761411
0.0020878702
0.0020964443
0.0021015984
0.0021027913
0.0020993012
0.0020899037
0.0020730495
0.0020462562
0.0020060252
0.0019477572
0.0018660631
0.0017580993
0.0016277504
0.0014840633
0.0013328176
0.001173936
0.0010059001
0.0009595419
0.0010949782
0.0012442674
0.0014071975
0.0015836251
0.0017735602
0.0019771643
0.0021947646
0.0024268356
0.0026737638
0.0029357784
0.0032127493
0.0035039497
0.0038079667
0.0041225438
0.0044444659
0.0047694578
0.0050922033
0.0054064901
0.0057055903
0.0059828385
0.0062324054
0.0064500571
0.0066338001
0.0067841733
0.0069042397
0.0069990431
0.0070746331
0.0071369763
0.0071912074
0.0072653394
0.0073596744
0.0074491731
0.0075288209
0.0075992756
0.0076609377
0.0077144147
0.0077603671
0.0077995603
0.0078327652
0.007860723
0.0078840609
0.0079032788
0.0079187389
0.0079306875
0.007939267
0.0079445222
0.0079464247
0.0079448952
0.007939781
0.0079308251
0.0079177256
0.0079001941
0.0078779236
0.0078505319
0.0078175475
0.0077784684
0.007732797
0.0076800114
0.0076196153
0.0075512317
0.0074745398
0.007389153
0.0072946167
0.0071905935
0.0070770763
0.0069543799
0.0068229604
0.006683209
0.0065354968
0.006380128
0.0062174331
0.0060480328
0.0058728845
0.0056931508
0.0055101128
0.0053240943
0.0051363752
0.004947447
0.0047576603
0.0045695688
0.0043805243
0.0041945437
2.6839652e-05
8.3505723e-05
0.00014756856
0.00021891992
0.00029732916
0.00038255139
0.00047430116
0.00057192323
0.00067443839
0.00078028127
0.00088716892
0.00099294684
0.0010956598
0.0011936528
0.0012860119
0.0013722878
0.0014523736
0.0015265811
0.001595533
0.0016593302
0.0017182459
0.0017730399
0.0018238489
0.0018708665
0.0019145923
0.0019548903
0.0019921505
0.0020263683
0.0020576269
0.0020860256
0.0021116398
0.0021344643
0.0021546592
0.0021719688
0.0021862369
0.0021974838
0.0022053435
0.0022095335
0.0022094913
0.0022044683
0.0021932123
0.002174156
0.0021448172
0.0021017646
0.0020406073
0.0019563964
0.001846993
0.0017172157
0.0015765816
0.001429973
0.0012764849
0.0011144505
0.00098413702
0.0011036022
0.0012502494
0.0014097767
0.0015821392
0.0017674986
0.0019661771
0.0021786352
0.0024054418
0.002647027
0.0029036341
0.0031751373
0.0034608116
0.0037592508
0.0040682137
0.0043845001
0.0047038432
0.0050209296
0.0053295329
0.0056228872
0.0058942852
0.006137871
0.0063493993
0.0065268913
0.0066709176
0.0067845913
0.0068730305
0.0069423558
0.006998612
0.0070469077
0.0071107173
0.0071968741
0.0072835532
0.0073602835
0.0074277716
0.0074865715
0.0075373752
0.0075809269
0.0076180347
0.0076494941
0.0076760487
0.0076983175
0.007716779
0.0077317773
0.0077435431
0.0077522018
0.0077577847
0.0077602528
0.0077595229
0.0077554358
0.0077477334
0.0077361238
0.0077203276
0.0077000446
0.0076748904
0.0076443961
0.0076080749
0.0075654354
0.0075159599
0.0074591613
0.0073946598
0.007322132
0.0072411887
0.0071513654
0.0070523174
0.0069440273
0.0068267836
0.0067010138
0.0065670786
0.0064253097
0.0062759768
0.0061193827
0.005956115
0.0057870869
0.0056134423
0.0054364108
0.005256281
0.0050743182
0.0048909241
0.0047064922
0.0045235325
0.0043393015
0.0041579667
2.9027633e-05
9.0238752e-05
0.00015930456
0.00023610877
0.00032040914
0.00041194112
0.00051038786
0.00061499871
0.0007246494
0.00083754136
0.00095110555
0.0010630156
0.0011712597
0.0012742217
0.0013710862
0.0014614895
0.0015453786
0.0016230852
0.00169526
0.0017620099
0.0018236035
0.001880841
0.0019338609
0.001982861
0.00202836
0.0020702251
0.0021088521
0.0021442315
0.0021764508
0.0022056183
0.0022318023
0.0022549923
0.0022753576
0.0022926289
0.0023066377
0.0023174007
0.002324535
0.0023277476
0.0023264582
0.0023199024
0.0023068175
0.0022856576
0.002254004
0.0022085762
0.0021452719
0.0020595356
0.001949685
0.0018211407
0.001683603
0.0015413339
0.0013929224
0.0012366857
0.0010723523
0.0011123358
0.0012561057
0.0014122157
0.0015806977
0.001761853
0.0019561348
0.0021641041
0.0023863892
0.0026234449
0.0028755278
0.0031425055
0.0034236396
0.0037175298
0.00402194
0.0043336698
0.0046484445
0.0049609233
0.0052648261
0.0055533198
0.0058196269
0.0060578364
0.006263686
0.0064352228
0.006573067
0.0066804139
0.0067624815
0.0068255005
0.0068756225
0.0069179843
0.0069722748
0.0070509021
0.0071345855
0.0072082564
0.0072726516
0.0073284931
0.0073765514
0.0074176503
0.0074526365
0.0074823197
0.0075074396
0.0075285995
0.0075462598
0.0075607428
0.0075722567
0.007580908
0.0075867123
0.0075896228
0.0075895497
0.007586328
0.0075796941
0.0075693691
0.0075550903
0.0075365501
0.0075133645
0.007485075
0.007451201
0.0074112566
0.0073647311
0.0073111426
0.0072501181
0.0071813331
0.0071043862
0.0070188052
0.0069242454
0.006820679
0.0067083764
0.0065877373
0.0064590871
0.0063227314
0.0061789077
0.0060278906
0.0058702402
0.0057068318
0.0055387867
0.0053672877
0.0051925948
0.005015959
0.0048376965
0.0046582422
0.0044800623
0.0043003199
3.1045512e-05
9.6609929e-05
0.00017071823
0.00025324347
0.00034391107
0.00044240263
0.00054834465
0.00066086592
0.00077865465
0.00089963589
0.0010209042
0.0011398935
0.0012544962
0.0013631102
0.0014649931
0.0015598733
0.0016477777
0.0017291089
0.0018045858
0.0018743388
0.0019386694
0.0019984173
0.0020537249
0.0021048123
0.0021521966
0.0021957476
0.00223586
0.0022725233
0.0023058184
0.0023358502
0.0023626956
0.0023863361
0.0024069361
0.0024242215
0.0024380133
0.0024483248
0.0024547595
0.0024570144
0.0024544964
0.0024464469
0.0024316043
0.0024084732
0.0023747455
0.0023273611
0.0022625988
0.0021763424
0.0020671823
0.0019405481
0.0018061957
0.0016681976
0.0015248383
0.0013743887
0.0012164892
0.0011221488
0.0012616131
0.0014144877
0.0015794248
0.001756817
0.0019472296
0.0021513047
0.0023697257
0.002602966
0.0028512782
0.0031145316
0.0033919923
0.0036822557
0.003983077
0.0042912421
0.0046024414
0.0049112761
0.0052113779
0.0054958079
0.005757684
0.0059910224
0.0061915423
0.0063573178
0.006489043
0.0065900284
0.0066656323
0.0067222366
0.0067661095
0.0068024674
0.0068476854
0.006919075
0.0069995676
0.0070700143
0.007131196
0.0071839881
0.0072292476
0.0072678618
0.0073007073
0.0073286086
0.0073522899
0.0073723321
0.0073891739
0.007403112
0.0074143282
0.0074229116
0.0074288635
0.0074321272
0.0074326084
0.0074301283
0.0074244226
0.0074152268
0.0074022847
0.0073852911
0.0073638584
0.0073375345
0.0073058501
0.0072683264
0.0072244548
0.0071737614
0.0071158764
0.0070504713
0.0069771452
0.0068954191
0.0068049402
0.0067056752
0.0065978788
0.0064819279
0.0063581185
0.0062267241
0.0060879583
0.0059420711
0.0057895973
0.0056313751
0.0054685101
0.0053021406
0.0051324965
0.0049608197
0.00478734
0.0046125356
0.0044388302
0.0042632958
3.3961649e-05
0.00010547486
0.00018600181
0.00027540128
0.00037339413
0.00047967559
0.00059384987
0.00071497582
0.00084157662
0.00097134393
0.0011010561
0.0012278798
0.0013495717
0.0014644801
0.0015719118
0.0016716558
0.0017638228
0.0018488957
0.0019276693
0.0020003128
0.0020671863
0.0021292137
0.0021865763
0.0022395043
0.0022885641
0.0023336072
0.0023750496
0.0024128645
0.0024471383
0.0024779561
0.0025053989
0.0025294346
0.0025502326
0.0025674892
0.0025810181
0.0025908279
0.0025965051
0.0025977435
0.0025939418
0.0025843448
0.0025677101
0.0025426155
0.0025068939
0.0024577498
0.0023919156
0.0023058003
0.0021981971
0.0020740747
0.0019429387
0.0018090207
0.001670513
0.0015255624
0.0013737017
0.0012147875
0.001267786
0.0014171584
0.0015784454
0.0017521668
0.0019389592
0.0021395145
0.0023545431
0.0025845205
0.0028296998
0.0030899509
0.0033645303
0.003652021
0.0039501577
0.0042556922
0.0045642562
0.004870362
0.0051675157
0.0054486326
0.0057066949
0.0059356241
0.0061311106
0.0062912752
0.0064169116
0.0065114759
0.0065805081
0.0066305738
0.0066680811
0.0066983657
0.006735181
0.0067997746
0.0068768401
0.0069438604
0.007001681
0.0070513195
0.0070937116
0.0071298067
0.0071605014
0.0071866147
0.0072088549
0.0072277787
0.0072437921
0.0072571641
0.0072680523
0.0072765204
0.0072825591
0.007286103
0.0072870452
0.0072852018
0.0072803083
0.0072721066
0.0072603522
0.0072447376
0.0072248726
0.0072003134
0.0071706006
0.007135259
0.0070937859
0.0070457146
0.0069906787
0.0069283499
0.0068583198
0.0067801053
0.0066933543
0.0065980272
0.0064943649
0.006382719
0.006263359
0.0061365358
0.0060024341
0.0058612854
0.0057136021
0.0055601877
0.0054021347
0.0052405379
0.0050756015
0.0049085567
0.0047395519
0.0045691082
0.0043996049
0.0042280275
3.648663e-05
0.00011337914
0.00020002003
0.0002962466
0.00040175736
0.00051620624
0.00063914536
0.00076956305
0.00090587578
0.0010455365
0.0011849775
0.0013210102
0.0014511192
0.0015734831
0.0016873955
0.0017927278
0.0018896772
0.0019788579
0.0020611908
0.0021368818
0.0022063551
0.0022706393
0.0023299627
0.002384614
0.0024352163
0.0024816268
0.0025243036
0.0025632059
0.0025984164
0.002630012
0.0026580658
0.0026825219
0.0027035503
0.0027208172
0.0027341185
0.0027434614
0.0027484143
0.0027486649
0.0027436127
0.0027325147
0.0027141721
0.0026872504
0.0026497573
0.0025992105
0.0025328426
0.0024476367
0.0023425743
0.0022218392
0.0020942267
0.001964377
0.001830697
0.0016911748
0.0015451454
0.0013921972
0.0012972588
0.0014178328
0.0015757314
0.0017461588
0.0019297739
0.0021273002
0.0023394707
0.0025667685
0.0028094522
0.0030673937