/*--------------------------------*- C++ -*----------------------------------*\
| =========                 |                                                 |
| \\      /  F ield         | OpenFOAM: The Open Source CFD Toolbox           |
|  \\    /   O peration     | Version:  2506                                  |
|   \\  /    A nd           | Website:  www.openfoam.com                      |
|    \\/     M anipulation  |                                                 |
\*---------------------------------------------------------------------------*/
FoamFile
{
    version     2.0;
    format      ascii;
    arch        "LSB;label=32;scalar=64";
    class       surfaceScalarField;
    location    "0.00049";
    object      phi;
}
// * * * * * * * * * * * * * * * * * * * * * * * * * * * * * * * * * * * * * //

dimensions      [1 0 -1 0 0 0 0];

oriented        oriented;

internalField   nonuniform List<scalar> 
6772
(
-0.085488334
0.14407956
0.11634071
-0.11997102
0.16107691
-0.087237872
0.14999796
-0.085332756
0.11989643
-0.109547
0.11936725
-0.15935373
0.14643896
-0.1461514
0.16266943
0.1334578
-0.11790308
0.16836779
-0.0878392
0.15364097
-0.086518512
0.12489158
-0.11191681
0.12402272
-0.16226595
0.15211728
-0.14791878
0.16906379
0.13717661
-0.1201273
0.17428431
-0.089983345
0.16015829
-0.088764167
0.12876449
-0.11468676
0.13023532
-0.16533316
0.1586599
-0.14899432
0.17769372
-0.12579716
0.14325297
-0.09548491
0.096446316
-0.096078366
0.080794843
-0.087079033
0.085581262
-0.07784624
0.084452321
-0.074100909
0.079569064
0.078118478
-0.11968043
0.17928273
-0.090653658
0.1645337
-0.089730789
0.13399501
-0.11623806
0.13333299
-0.16709391
0.1643466
-0.15046643
0.18240693
-0.12715266
0.14884953
-0.096993492
0.099583274
-0.097700335
0.08486742
-0.08888167
0.089384083
-0.079435406
0.089251824
-0.074476748
0.083075084
0.081645496
-0.12145455
0.18325972
-0.092462831
0.16875124
-0.091714494
0.13678623
-0.11868779
0.13929326
-0.169665
0.16978325
-0.15038167
0.19126521
-0.12676908
0.15246906
-0.098355253
0.10470436
-0.099010993
0.088620222
-0.089605182
0.094335991
-0.081183129
0.092174819
-0.074470588
0.087089793
0.085786915
-0.12198912
0.18908108
-0.093440513
0.17280363
-0.092723384
0.14200893
-0.1198641
0.14185566
-0.16961559
0.17601145
-0.15042916
0.19459286
-0.12922732
0.15602243
-0.10054046
0.1084578
-0.10084513
0.093905721
-0.091693796
0.098131919
-0.082062129
0.097583641
-0.073775605
0.090763166
-0.062548677
0.088956297
-0.063869982
0.079272346
0.073288286
-0.12517726
0.19287578
-0.095304061
0.17869398
-0.094574713
0.14468522
-0.12191504
0.14648955
-0.17014523
0.18011469
-0.15043145
0.19842395
-0.13036191
0.15899999
-0.10108472
0.11212689
-0.1011501
0.096846471
-0.091829686
0.10144182
-0.081741836
0.1011849
-0.072108121
0.09466583
-0.060984123
0.091640526
-0.062922895
0.081610939
-0.067778487
0.075572083
-0.070183342
0.069328794
-0.07173808
0.061656302
-0.070424226
0.05587497
-0.068852986
0.050238002
0.047503925
-0.15260198
0.21316071
-0.12611101
0.19901933
-0.096583267
0.1831092
-0.095893281
0.149283
-0.12297969
0.15081269
-0.17019532
0.1838804
-0.15025014
0.20200707
-0.13099217
0.16125859
-0.10209432
0.11496533
-0.10131156
0.10000974
-0.091866224
0.10320536
-0.080938055
0.10351612
-0.070741942
0.096723802
-0.059771898
0.09360375
-0.062726615
0.083016218
-0.068111044
0.076102605
-0.071828345
0.069094654
-0.072926943
0.06142243
-0.071303193
0.05602442
-0.066850279
0.051509319
-0.061436435
0.048710846
-0.052822056
0.045368364
-0.048184577
0.041526106
-0.051400851
0.038098759
0.034274764
-0.14938475
0.22082974
-0.13229546
0.20124201
-0.099067426
0.18960529
-0.098115804
0.15441132
-0.12522548
0.15424502
-0.17152366
0.18892436
-0.15191678
0.20497518
-0.1326171
0.16433233
-0.1018383
0.11825626
-0.10096078
0.10238637
-0.091024637
0.10600795
-0.076304135
0.10594161
-0.068063681
0.097859577
-0.058016377
0.094717352
-0.062246265
0.083806499
-0.06945044
0.07618941
-0.072277031
0.068848186
-0.073957242
0.062473505
-0.070716343
0.057736336
-0.065392663
0.054100549
-0.061669202
0.050720213
-0.053542115
0.046958588
-0.049020441
0.042898673
-0.049722857
0.039602455
-0.058154427
0.035255836
-0.065127159
0.03240285
-0.067123598
0.030025661
-0.058868733
0.028880543
-0.048269023
0.027137699
-0.045723129
0.022699112
-0.045580977
0.020367621
0.018806089
-0.16609931
0.24338005
-0.15419957
0.22465394
-0.13368991
0.20991547
-0.10046739
0.19540253
-0.099392121
0.15806809
-0.12634624
0.1596071
-0.17231451
0.19397927
-0.15286775
0.21018052
-0.13295002
0.16953423
-0.101304
0.12096896
-0.10101143
0.10474894
-0.090872997
0.1092277
-0.07389848
0.10845111
-0.066785985
0.098533999
-0.057947583
0.095823973
-0.06310729
0.084618052
-0.071265046
0.076947449
-0.072738892
0.069414437
-0.073027648
0.063641163
-0.0682212
0.059491044
-0.064490691
0.055255623
-0.060860157
0.05125211
-0.052046072
0.047313987
-0.047308118
0.043463089
-0.048162025
0.040396657
-0.059696137
0.036746614
-0.066599342
0.033288313
-0.070231222
0.031287821
-0.063457413
0.029840555
-0.053091074
0.027839785
-0.049984545
0.023725168
-0.049835388
0.021237111
-0.051600161
0.019710532
-0.05977644
0.019698186
-0.071807974
0.01894881
-0.080798597
0.017831131
-0.08472484
0.016442593
-0.082764527
0.014830025
-0.078684674
0.012951662
0.011534571
-0.041386363
0.0070580638
-0.038247764
0.0069867196
-0.032757805
0.0068687817
-0.024055527
0.0066902141
-0.011227323
0.0063831626
-0.000678616
0.0058754252
0.0076592827
0.0052095329
0.014027408
0.0046944568
0.018388413
0.0043355084
0.023237654
0.0040557657
0.028053059
0.0038013486
0.032837843
0.0036115598
0.034660445
0.0033052313
0.035437212
0.0029883169
0.035447458
0.0026878474
0.035244877
0.0023944537
0.0339731
0.0021508905
0.02596721
0.0018427718
0.011680032
0.0011881152
0.00038422197
-0.17427622
0.27088781
-0.1650711
0.25383584
-0.1543935
0.23134838
-0.13523958
0.21409281
-0.10222752
0.20184383
-0.10131727
0.16292284
-0.12927802
0.16481766
-0.17560757
0.20125784
-0.15559842
0.21731546
-0.13389811
0.17562698
-0.1013559
0.12429349
-0.10122206
0.10675832
-0.089981477
0.11252269
-0.071717118
0.11096337
-0.065231184
0.10054594
-0.058800295
0.098101415
-0.064157712
0.085909919
-0.072958223
0.077932555
-0.07202233
0.070851147
-0.070604165
0.064661461
-0.066324147
0.060372616
-0.063265687
0.05588688
-0.059569849
0.051261295
-0.050589475
0.047686801
-0.046033729
0.043839239
-0.04949052
0.040782464
-0.061315634
0.037038441
-0.067242845
0.033331564
-0.070446063
0.031266308
-0.062379014
0.02984944
-0.049997987
0.028112334
-0.046244824
0.023745711
-0.045829382
0.021281792
-0.047353313
0.019679377
-0.056042293
0.019586143
-0.06788319
0.018868651
-0.077593316
0.017811884
-0.081076014
0.016411378
-0.079360973
0.014782785
-0.075500485
0.012929972
-0.070735385
0.011504744
-0.065794271
0.010388479
-0.061483475
0.0094391112
-0.056338298
0.0087494937
-0.050531907
0.0082827489
-0.044030156
0.0078571207
-0.039906526
0.0073945884
-0.03493067
0.0071214957
-0.029146263
0.0068446441
-0.02115896
0.0066273293
-0.011213285
0.0062839455
-0.0023362421
0.005803789
0.0045845024
0.005352781
0.010272782
0.0048781572
0.013604961
0.0044394298
0.017838821
0.0041495491
0.022530352
0.0039362151
0.026707393
0.0036919732
0.028251686
0.0033593686
0.029133434
0.0030375623
0.029615208
0.0027462784
0.02996384
0.0024911325
0.029295552
0.0022495867
0.022260372
0.0019232586
0.009575753
0.0012007609
0.00037541778
-0.17329207
0.27978925
-0.16747318
0.25617184
-0.15649687
0.23787144
-0.13626496
0.2211673
-0.10373648
0.20646552
-0.10286972
0.16818851
-0.1309682
0.17105384
-0.17730226
0.20848913
-0.15639475
0.22453821
-0.13349948
0.18110145
-0.10065994
0.12817792
-0.10033636
0.10967655
-0.088368587
0.11548765
-0.071623431
0.11323177
-0.066471054
0.10286494
-0.062853592
0.10027369
-0.066568536
0.086942982
-0.073637458
0.079779738
-0.072029802
0.072630588
-0.070293014
0.066605864
-0.065945407
0.061352279
-0.063234813
0.056536034
-0.060023768
0.052557704
-0.052039723
0.049236555
-0.047982662
0.04518482
-0.051469522
0.041743849
-0.061482548
0.037933086
-0.066831497
0.034376382
-0.07056025
0.032682171
-0.059284482
0.031347887
-0.051018692
0.028550319
-0.048411609
0.024739039
-0.048735147
0.022133417
-0.052193177
0.020453241
-0.060946009
0.020335394
-0.073205778
0.020035785
-0.082356526
0.019172155
-0.084612426
0.017599783
-0.082055949
0.015778459
-0.077207634
0.013777982
-0.071962855
0.012216445
-0.06761389
0.010898855
-0.063855189
0.010083455
-0.058913124
0.0095310582
-0.051255293
0.0090196851
-0.04430678
0.00848429
-0.039363588
0.007840444
-0.035726192
0.0072628662
-0.031151127
0.0070716152
-0.023510469
0.0069066333
-0.013297636
0.0065533644
-0.0039083001
0.0060792342
0.0037355532
0.0054569035
0.010525341
0.0049889538
0.0150088
0.0045413706
0.019343644
0.0042437729
0.023079976
0.0039888413
0.026036753
0.0036922215
0.027024001
0.0033593465
0.027646535
0.0030554692
0.027895453
0.0027846863
0.028012208
0.0025331619
0.027035788
0.0023095926
0.019987004
0.0019656538
0.0084377943
0.0011904392
0.00039533175
-0.18177097
0.30713612
-0.17505863
0.28731431
-0.16403672
0.26528885
-0.15909169
0.23974205
-0.13748178
0.23045543
-0.10512753
0.21225532
-0.10449728
0.1717483
-0.13379951
0.17714515
-0.18087547
0.21631671
-0.15881013
0.2340223
-0.134258
0.18654581
-0.10168278
0.13209253
-0.10079101
0.11333205
-0.088400851
0.11835694
-0.072243117
0.11636305
-0.067064853
0.10507171
-0.064105996
0.10149375
-0.067078673
0.088020139
-0.07322206
0.080754627
-0.071970167
0.074805137
-0.070015163
0.068686021
-0.067024966
0.063679284
-0.064186143
0.058866718
-0.061510709
0.054885751
-0.053933202
0.051440744
-0.049438748
0.047336027
-0.051734814
0.043881909
-0.062987421
0.040036703
-0.069010344
0.036181641
-0.07008122
0.034680958
-0.062788345
0.031681716
-0.05479857
0.029138938
-0.052336772
0.025075872
-0.052534819
0.022504789
-0.055787896
0.021266343
-0.057491885
0.021393494
-0.064537685
0.02081837
-0.073352983
0.019232753
-0.077053367
0.017525971
-0.076834766
0.015678009
-0.074677779
0.013772549
-0.07214142
0.012429331
-0.068221242
0.0117043
-0.06020977
0.011232696
-0.044961384
0.010428807
-0.03670362
0.0092897017
-0.038035367
0.008051999
-0.041473849
0.0071172701
-0.046333995
0.0068139914
-0.050859571
0.0069404847
-0.043949345
0.0070315817
-0.033768424
0.0068021626
-0.022547493
0.0064651169
-0.0080967484
0.0059133541
0.0055060837
0.0055838846
0.013427291
0.0050695046
0.022268993
0.0047495551
0.031521451
0.00445341
0.036370996
0.0041400787
0.0385297
0.0037340327
0.039481427
0.0033557461
0.039837629
0.0030083909
0.039371628
0.0026942227
0.036921489
0.0024307778
0.027732304
0.0020673389
0.012218793
0.0012993536
0.00047795918
-0.18886177
0.33952447
-0.18367031
0.31509955
-0.17407679
0.29637984
-0.16990041
0.26656392
-0.15967448
0.25056077
-0.14110299
0.23451951
-0.10730757
0.22150048
-0.10640493
0.17702405
-0.13551123
0.18338837
-0.18215618
0.22371709
-0.15902585
0.24051733
-0.12959955
0.19281152
-0.1000287
0.13681933
-0.099554332
0.11540061
-0.086758197
0.12226904
-0.074418353
0.11702725
-0.068733859
0.10689347
-0.066203983
0.10268918
-0.068001758
0.088993213
-0.074101046
0.083006575
-0.071735133
0.077681466
-0.071673474
0.071061621
-0.069246705
0.06671703
-0.066177655
0.061596012
-0.062938461
0.057873775
-0.056348426
0.05396227
-0.050432997
0.049772334
-0.054908086
0.045765345
-0.066694121
0.04134131
-0.07279128
0.037416966
-0.07526805
0.03477574
-0.068642855
0.03260505
-0.057232269
0.030442389
-0.053423338
0.026406108
-0.051694339
0.023896348
-0.049099916
0.02271756
-0.048304531
0.022508005
-0.057731331
0.021601961
-0.072889093
0.020021295
-0.079789778
0.018340078
-0.082761414
0.016434074
-0.083090068
0.014491972
-0.086429978
0.013209277
-0.083817937
0.012757152
-0.059189092
0.012119207
-0.04153254
0.010630026
-0.031938076
0.0091580985
-0.041462464
0.0075473639
-0.051202906
0.006918677
-0.066143705
0.0071828841
-0.080174399
0.0074754383
-0.074717718
0.0077434995
-0.057210007
0.0077111974
-0.027842038
0.0073781118
-0.010138144
0.0065093988
0.0088729198
0.0061915329
0.022463874
0.0057201438
0.036986797
0.0053456398
0.049113662
0.004956573
0.063108412
0.0046908669
0.069083933
0.0042342449
0.071334652
0.0037733179
0.07058282
0.0033041124
0.068229084
0.0028523221
0.064734189
0.0024966549
0.051951202
0.0021532624
0.025105926
0.0014924141
0.00051284609
-0.1911333
0.34402306
-0.18569449
0.32523094
-0.17510239
0.30408238
-0.1707873
0.27510007
-0.16328004
0.25645854
-0.13713982
0.24351622
-0.10820842
0.22438152
-0.10759357
0.18166495
-0.13677131
0.18833919
-0.18383111
0.22892514
-0.15953959
0.24699918
-0.12817991
0.19818933
-0.10019404
0.13813941
-0.099796801
0.11893912
-0.087964086
0.12395294
-0.076805692
0.11971814
-0.071004072
0.10912596
-0.066112848
0.10577857
-0.066913888
0.091284296
-0.072942679
0.086515876
-0.071692486
0.080572177
-0.072008258
0.073468484
-0.068575199
0.068916461
-0.065893662
0.063319434
-0.06266778
0.058876856
-0.057153424
0.05485375
-0.051870533
0.050515701
-0.058384121
0.046066969
-0.069139233
0.041645812
-0.073955523
0.037720437
-0.075513468
0.035052997
-0.066550985
0.03349776
-0.051385443
0.031922644
-0.045790734
0.027125494
-0.043430521
0.02458555
-0.043413425
0.022639081
-0.0485725
0.022277223
-0.065231543
0.021605914
-0.080589362
0.020545199
-0.086032768
0.018878295
-0.086982251
0.017295532
-0.0839435
0.014837164
-0.081788497
0.013620916
-0.073054397
0.012289575
-0.060792269
0.011233216
-0.050727543
0.0098021196
-0.046325255
0.0086266499
-0.048040135
0.0078928219
-0.057027817
0.0078217182
-0.066471178
0.0079708109
-0.067288673
0.0080130763
-0.05540066
0.0080038569
-0.037059775
0.0075978079
-0.01707004
0.0075023686
0.0021622329
0.0073223116
0.015936872
0.0065699783
0.024974353
0.0058138965
0.034384723
0.0052847622
0.042943111
0.0048889342
0.05255002
0.0045573812
0.057020097
0.0041142532
0.059258209
0.0036870618
0.05996225
0.0032954889
0.059083479
0.0029391979
0.057552142
0.0026352754
0.047703591
0.0023109587
0.022760362
0.0016236932
0.000543746
-0.19846443
0.40281265
-0.19172483
0.35680333
-0.18784086
0.33394207
-0.17565689
0.31301196
-0.17395151
0.27842784
-0.16537697
0.26605139
-0.13838355
0.25033908
-0.10994677
0.23077551
-0.10939818
0.18623237
-0.13844808
0.19372297
-0.18443392
0.23448342
-0.15759387
0.251245
-0.12669157
0.20070097
-0.099296726
0.14220352
-0.099511237
0.12027919
-0.087790571
0.12716327
-0.078234743
0.1211918
-0.071504046
0.1120555
-0.06672979
0.10738573
-0.068242813
0.09456653
-0.073802112
0.0892824
-0.072893238
0.082089582
-0.072830773
0.075708733
-0.068630459
0.069977248
-0.064586678
0.064260451
-0.063569157
0.058926509
-0.058458297
0.05538187
-0.055508854
0.050623455
-0.060487765
0.046514365
-0.068594392
0.042540982
-0.07228195
0.039014988
-0.073245803
0.036555974
-0.057797279
0.035549606
-0.047273461
0.032213422
-0.04391414
0.027654647
-0.043896946
0.024668717
-0.04632999
0.023087145
-0.058153222
0.022728845
-0.07247785
0.022283243
-0.082501101
0.021429749
-0.087282293
0.019700893
-0.087804827
0.016896179
-0.086980155
0.014966336
-0.081989014
0.013300318
-0.077585616
0.012009797
-0.059043549
0.011690789
-0.049100662
0.010164029
-0.043090056
0.009272993
-0.044493861
0.0083780061
-0.053245134
0.0082188203
-0.061048593
0.0080897333
-0.062477722
0.0078803223
-0.050962542
0.0077200847
-0.048636029
0.0074862921
-0.037062024
0.0080340439
-0.017156043
0.0081034096
0.0056028447
0.0078174334
0.019222075
0.0070617923
0.02888827
0.0061940953
0.0366655
0.0054843351
0.043464566
0.0047844332
0.048127114
0.0042003212
0.050954041
0.0036474217
0.053448828
0.0032188832
0.054883571
0.0028404328
0.056697109
0.0025695643
0.050705174
0.002317706
0.024560047
0.0016972569
0.00059047064
-0.20008736
0.40469012
-0.19583592
0.3667041
-0.18882482
0.34742559
-0.17814274
0.32035459
-0.17558813
0.28646198
-0.1684421
0.2721541
-0.13802772
0.25805897
-0.11077426
0.23287892
-0.11051692
0.19098058
-0.1392113
0.19920383
-0.18508481
0.23818997
-0.15814286
0.2568795
-0.12679109
0.20458431
-0.10064817
0.14461194
-0.10104034
0.12377269
-0.089889496
0.13022349
-0.080094031
0.12453522
-0.072722275
0.1155551
-0.065972772
0.10979721
-0.068102301
0.098002018
-0.072672145
0.090908892
-0.072029288
0.083963353
-0.071694719
0.076678114
-0.068261511
0.070494759
-0.065313606
0.065226601
-0.065282494
0.059697312
-0.060558352
0.056009611
-0.057848909
0.050730828
-0.057965904
0.047048909
-0.063459288
0.043154024
-0.06663039
0.039448793
-0.066474497
0.037734559
-0.054105223
0.035711598
-0.048780019
0.031947249
-0.050031926
0.027578649
-0.051602167
0.024903582
-0.055323514
0.023323999
-0.062044323
0.023100551
-0.067847967
0.022876789
-0.07569124
0.021742531
-0.083977418
0.019314161
-0.0889323
0.016189332
-0.092423725
0.014282404
-0.095636651
0.012897214
-0.096521018
0.012696227
-0.05427493
0.013079815
-0.02069443
0.012159374
-0.0055085102
0.0098436185
-0.022679756
0.0080675872
-0.052687427
0.0078235904
-0.066402012
0.0075788378
-0.076982198
0.0073754315
-0.084590248
0.0077275393
-0.084744495
0.0086771277
-0.074919185
0.0095185789
-0.049542257
0.0099652621
-0.012487323
0.010093163
0.023334712
0.0095659511
0.047639832
0.0081109786
0.062430745
0.006793386
0.06936668
0.0057526332
0.075701444
0.0048621443
0.078496934
0.0041875529
0.08152444
0.0035713402
0.081997768
0.0031061513
0.083002724
0.0026875066
0.076461308
0.0023872843
0.039928156
0.0018569603
0.00069570352
-0.21162989
0.45637449
-0.20372552
0.40855406
-0.19701903
0.37598103
-0.19045239
0.35606018
-0.17922376
0.32847
-0.17686066
0.29281343
-0.16989775
0.27828534
-0.13997802
0.26270115
-0.11242262
0.23833689
-0.11190625
0.19497368
-0.1407058
0.20271146
-0.1861007
0.24384298
-0.15769026
0.26280377
-0.12664178
0.21009226
-0.10056362
0.14761331
-0.10104158
0.12737699
-0.090577574
0.13319078
-0.077522247
0.12822534
-0.072355872
0.11684772
-0.065890899
0.11219833
-0.06879268
0.099870428
-0.07376225
0.091897349
-0.072956415
0.085446056
-0.072945157
0.077631176
-0.069312888
0.072665425
-0.06915466
0.06567976
-0.069243143
0.062132752
-0.062700317
0.057933618
-0.056922405
0.05314136
-0.052924654
0.049171762
-0.059631768
0.044907839
-0.06459073
0.040910715
-0.06618701
0.038071108
-0.059891806
0.035545553
-0.058618243
0.032345894
-0.059316767
0.028562375
-0.060800094
0.02603761
-0.064474671
0.024696355
-0.065916077
0.024409067
-0.068136404
0.023644338
-0.07562701
0.021751285
-0.084278629
0.019164871
-0.093501871
0.016906478
-0.095162634
0.014682198
-0.10307172
0.013553237
-0.10459716
0.013952646
-0.080671567
0.014900335
-0.026756767
0.014742964
0.031741185
0.011033546
0.041733453
0.0077610602
-0.017485355
0.0070482625
-0.074445138
0.0076153204
-0.092862718
0.0077998339
-0.10248003
0.0088832161
-0.10098975
0.010353826
-0.087130894
0.011564234
-0.057428092
0.012389399
-0.017254345
0.012101045
0.031923292
0.011389124
0.062052986
0.010212758
0.07529808
0.0087214789
0.085035831
0.0076430386
0.090824319
0.0062554182
0.09705738
0.0055032459
0.098859085
0.0045769782
0.1012495
0.0040353785
0.10024597
0.0034035336
0.097362681
0.0030235068
0.055012414
0.0023539856
0.00086425177
-0.20928366
0.45868786
-0.20531263
0.40933974
-0.20017632
0.38664507
-0.19052968
0.36609988
-0.18112587
0.3306162
-0.17946475
0.30030821
-0.17204707
0.284592
-0.14075588
0.26959309
-0.1131926
0.24262715
-0.11268373
0.1991831
-0.14107746
0.20775821
-0.18696951
0.25033496
-0.15894685
0.27081898
-0.1284226
0.21428827
-0.10166165
0.15135584
-0.10331614
0.12877619
-0.092016377
0.13736856
-0.079271752
0.12990526
-0.074319854
0.1191252
-0.06727306
0.1157443
-0.068999349
0.10188205
-0.073134098
0.094384959
-0.072224954
0.087039523
-0.072565874
0.079898589
-0.072529863
0.073416947
-0.073575162
0.068371667
-0.073217129
0.065381042
-0.06316373
0.061268551
-0.054517012
0.056353543
-0.050746575
0.051667794
-0.061106555
0.047021344
-0.069461892
0.042676345
-0.072845887
0.039378041
-0.072318771
0.036649435
-0.067125257
0.033937501
-0.064904409
0.029794357
-0.064027085
0.027310612
-0.062326596
0.025875988
-0.062614283
0.024939818
-0.065617373
0.023777175
-0.071466901
0.022057223
-0.080214959
0.019489864
-0.093184581
0.017084417
-0.097576824
0.014845009
-0.10984318
0.013743129
-0.12632983
0.01456891
-0.10207013
0.015505816
-0.019955895
0.014749631
0.03773011
0.011228428
0.063624991
0.0078943984
0.08688726
0.0069084053
0.06054721
0.0076975415
-0.040428986
0.0084016297
-0.13023263
0.0097680161
-0.1342874
0.011359071
-0.12402798
0.012804427
-0.082939703
0.01326321
-0.022324338
0.012611071
0.041733263
0.011464165
0.083440066
0.010617513
0.11048642
0.0094917148
0.12624095
0.0085435843
0.12918482
0.0071403655
0.13476013
0.0063442884
0.13319846
0.0052450301
0.13408716
0.0046281172
0.13016402
0.0039004315
0.12233319
0.003441638
0.066791553
0.0026617315
0.00095797929
-0.20850901
0.47182633
-0.20453869
0.41122541
-0.20049439
0.39129527
-0.18990911
0.37309924
-0.18609535
0.33321765
-0.18101932
0.30893694
-0.17185233
0.29069999
-0.14135749
0.27304966
-0.11402279
0.24640551
-0.11397403
0.20307611
-0.14294925
0.21275474
-0.189519
0.25591011
-0.16027663
0.27806014
-0.12833077
0.21898751
-0.10162085
0.15144526
-0.10299991
0.1311772
-0.09085168
0.13870786
-0.080061564
0.13060719
-0.072694335
0.12134959
-0.06510219
0.11709919
-0.067489121
0.10292246
-0.072713783
0.095336258
-0.074836827
0.088291705
-0.075735315
0.08092234
-0.077993517
0.076139287
-0.077275894
0.071548228
-0.070631055
0.067421094
-0.060282465
0.061948836
-0.052526166
0.057373609
-0.053741624
0.052919337
-0.067317648
0.048212635
-0.078233455
0.044041623
-0.083597458
0.04093447
-0.077793894
0.038548948
-0.06947921
0.034726397
-0.063997456
0.030573622
-0.061566007
0.027903804
-0.060407201
0.02609591
-0.061519071
0.024875161
-0.068168295
0.023671495
-0.078377603
0.021991955
-0.090197085
0.019815212
-0.10153378
0.017384248
-0.10621235
0.015219852
-0.11524582
0.013965237
-0.13102261
0.014380077
-0.094681269
0.0142028
-0.018039558
0.013069664
0.044750064
0.010747527
0.067848508
0.0088769565
0.078770509
0.0075089319
0.11806964
0.0077913987
0.14657744
0.00907271
0.0082319707
0.010666273
-0.14510308
0.01205014
-0.12092719
0.013283278
-0.065027475
0.013520861
0.00029146389
0.013154112
0.044320198
0.011656612
0.085866194
0.010664611
0.11312146
0.0091103398
0.13060271
0.0082091937
0.1375007
0.0068566187
0.14413187
0.0060921029
0.1422073
0.0050001303
0.14329583
0.0044038953
0.13894552
0.0036591676
0.13108018
0.003247657
0.071553411
0.0024742527
0.00082999994
-0.22646477
0.51238917
-0.20966119
0.47588896
-0.20471275
0.42337254
-0.20128079
0.39668659
-0.19067504
0.37546135
-0.18850171
0.33726489
-0.18366209
0.31653882
-0.17196419
0.2970524
-0.14262949
0.27653649
-0.11547228
0.25192263
-0.11522119
0.20879359
-0.14301208
0.21645957
-0.18870154
0.26232217
-0.15941684
0.28208836
-0.13029277
0.21987349
-0.10263123
0.1530643
-0.10373333
0.13340799
-0.091581087
0.1392578
-0.081162374
0.13171883
-0.073594477
0.12320832
-0.066699633
0.11819733
-0.069527766
0.10495463
-0.07553754
0.097414758
-0.077403527
0.090894452
-0.079155981
0.083949625
-0.079286655
0.078874513
-0.072463413
0.07351529
-0.064611134
0.067011396
-0.058968492
0.061699847
-0.052707706
0.05750687
-0.059848121
0.052474969
-0.073526959
0.047717075
-0.081265208
0.043763843
-0.085280178
0.040664379
-0.072848182
0.038397193
-0.063855335
0.034287138
-0.058639025
0.030692043
-0.056652717
0.02803209
-0.056930769
0.025949381
-0.064423616
0.024586046
-0.078994901
0.023371211
-0.086253256
0.021314239
-0.093280868
0.019660743
-0.096208477
0.018281749
-0.094678186
0.016197131
-0.097193184
0.014926089
-0.075439048
0.014555215
-0.051246094
0.01255203
-0.017591887
0.011418479
0.021417577
0.01062273
0.046669437
0.0098634241
0.05505186
0.0087419264
0.073530669
0.0086192872
0.098659869
0.0092850996
0.04782667
0.0096794067
-0.051070743
0.010774033
-0.074561929
0.011540302
-0.028781804
0.012021887
0.006841512
0.012392754
0.030673826
0.011033478
0.054843863
0.0098561296
0.067207497
0.0078920277
0.080376995
0.0070237233
0.084225831
0.0058247654
0.088480347
0.0050744315
0.087534057
0.0042186725
0.087175634
0.0036613942
0.083874333
0.0030822173
0.079129683
0.0027478518
0.040289784
0.0020658257
0.00064601389
-0.22514576
0.53527852
-0.2091542
0.47737803
-0.20637195
0.42786416
-0.20272363
0.4062102
-0.19068906
0.38552391
-0.18961623
0.34186044
-0.18453819
0.32538931
-0.16864205
0.30334074
-0.14211251
0.28046744
-0.11519742
0.2542972
-0.11539633
0.21169669
-0.14277707
0.22158722
-0.18762521
0.26452628
-0.15879348
0.28413806
-0.13147774
0.21991005
-0.10337792
0.15576753
-0.10410383
0.13450382
-0.091961148
0.14090786
-0.080375904
0.13487939
-0.072925354
0.1252379
-0.065981325
0.12073661
-0.069330691
0.10757897
-0.075957992
0.09974208
-0.079210918
0.093748373
-0.079834608
0.085808757
-0.075824679
0.080149823
-0.069667895
0.073188417
-0.065042912
0.067168805
-0.059150371
0.062139926
-0.056191272
0.056905148
-0.063371334
0.051956926
-0.072774441
0.047036448
-0.079286571
0.043431504
-0.081439287
0.039968458
-0.071907048
0.037845279
-0.064572847
0.034555648
-0.06139097
0.031269461
-0.060945738
0.028638518
-0.062775608
0.026658808
-0.071125516
0.025759212
-0.079209081
0.024017024
-0.085669459
0.022857275
-0.081727517
0.021057069
-0.079969086
0.018905583
-0.075980469
0.017013214
-0.072412177
0.015659034
-0.054353881
0.014942615
-0.036517467
0.01336248
-0.014899597
0.012087495
0.0098286045
0.011314295
0.02477653
0.010718831
0.039663358
0.010497361
0.026420398
0.010033788
-0.025617095
0.0091689658
-0.059819989
0.0087263744
-0.061533921
0.0095715763
-0.039601843
0.0099556052
-0.017829164
0.010099109
0.008697438
0.010112359
0.025481534
0.009021594
0.039313115
0.0079196801
0.047381445
0.0065945374
0.054571567
0.0057555377
0.057551681
0.0048456966
0.058067949
0.004099778
0.057253164
0.0034304447
0.055569755
0.0029826157
0.054917787
0.0026461655
0.04999915
0.0024113007
0.024100246
0.0017656632
0.00052988888
-0.22891271
0.54458744
-0.21390595
0.49278789
-0.20951976
0.44378679
-0.2018567
0.41813505
-0.1918586
0.38833995
-0.19151452
0.34882327
-0.18793257
0.33221734
-0.16857002
0.3114194
-0.14458311
0.28302633
-0.11629755
0.25954896
-0.11629931
0.21479064
-0.14168726
0.22424147
-0.1859186
0.26536354
-0.15825332
0.28579518
-0.13206262
0.22203553
-0.10400727
0.15840335
-0.10453505
0.13726833
-0.093217937
0.14327146
-0.07952755
0.13882533
-0.073362025
0.12883788
-0.068983
0.12365705
-0.07401149
0.1102815
-0.07950593
0.10131896
-0.08106153
0.094171647
-0.080409273
0.086788782
-0.074479714
0.080320393
-0.067206958
0.074012273
-0.067047306
0.06709295
-0.063281289
0.063834229
-0.06083154
0.057982772
-0.066836658
0.053072045
-0.075498952
0.048126289
-0.0802378
0.044187549
-0.084014366
0.04121371
-0.075398831
0.039298511
-0.069360854
0.035459924
-0.063541964
0.032866416
-0.061351728
0.030138093
-0.060950831
0.028247069
-0.062461493
0.026606543
-0.066990728
0.02591651
-0.066529283
0.024209923
-0.061515235
0.022281102
-0.057528398
0.019747276
-0.053154653
0.017828483
-0.05021473
0.016115843
-0.042684552
0.01449196
-0.03411527
0.013056359
-0.026147847
0.01211387
-0.017490493
0.011557657
-0.023066649
0.011037771
-0.041435004
0.010485006
-0.05451981
0.0096669437
-0.054664406
0.0086838945
-0.053800355
0.0080945802
-0.042224218
0.0084277035
-0.026096002
0.0086563814
-0.0134004
0.0086193144
0.0012562061
0.0084488337
0.013445033
0.0074596008
0.025248072
0.0064245873
0.033248942
0.0055112584
0.037542662
0.0047155275
0.039032088
0.0039450164
0.038302669
0.0033927303
0.038288033
0.0029627178
0.038796018
0.0027028968
0.040352434
0.002529053
0.037556534
0.0024522621
0.016690966
0.0014735548
0.00032129501
-0.24699983
0.5894676
-0.22633454
0.56049618
-0.22128573
0.49244917
-0.21274585
0.46035329
-0.2021291
0.43024342
-0.19149966
0.39438076
-0.19130624
0.35180507
-0.18902303
0.3359432
-0.16587909
0.32113725
-0.14870467
0.28366585
-0.11596524
0.26636679
-0.11566107
0.2195629
-0.1412537
0.22606359
-0.18554565
0.27027021
-0.15871186
0.28694009
-0.13301415
0.22436016
-0.10598761
0.16126233
-0.10576432
0.1412439
-0.093642936
0.14700566
-0.082697561
0.14206267
-0.074069147
0.13329611
-0.070779466
0.1268448
-0.075355372
0.11246548
-0.080038972
0.10329638
-0.078665939
0.094776297
-0.077520055
0.086890367
-0.071262807
0.081345607
-0.07052964
0.073690133
-0.071752535
0.069460005
-0.069694342
0.065389083
-0.06811052
0.059872591
-0.071920991
0.055173877
-0.079447396
0.050616661
-0.083794395
0.04674954
-0.088409092
0.044270916
-0.075651325
0.041867058
-0.06576138
0.036909265
-0.056352335
0.033559579
-0.050588896
0.030713771
-0.048031801
0.028662131
-0.046583802
0.028141289
-0.049912717
0.027401509
-0.054928355
0.025406547
-0.055371717
0.022897116
-0.052124024
0.020210526
-0.049963046
0.018265068
-0.051567026
0.01655809
-0.056802879
0.014938463
-0.060350913
0.013471948
-0.063952398
0.01226818
-0.066298285
0.011601431
-0.063550525
0.011401313
-0.054728802
0.010992496
-0.041409819
0.010203291
-0.027019352
0.0089138447
-0.01835814
0.0080587163
-0.012890967
0.0075525796
-0.010083529
0.0066323496
-0.013741397
0.0058112575
-0.01510463
0.005552668
-0.009478319
0.0050430244
-0.0043832962
0.0043597358
-0.00094283134
0.0035334375
0.00045907287
0.0030164046
0.00014761925
0.0028554363
-0.00071029824
0.0026630044
-0.0010880054
0.0025150218
-0.00014153497
0.0024809321
0.0021270496
0.0024532742
0.0028872846
0.0022144468
0.00083969524
0.00084807742
0.00015017603
-0.2514702
0.60088116
-0.23103237
0.57771811
-0.2233137
0.50693019
-0.21700389
0.46796342
-0.20295698
0.44338589
-0.19465726
0.39683586
-0.19437887
0.36122422
-0.1901991
0.34521343
-0.16857853
0.32495144
-0.14704201
0.29185232
-0.11702633
0.26921027
-0.11724388
0.2229258
-0.14189183
0.23166019
-0.18647582
0.27658149
-0.15856503
0.29227296
-0.1326725
0.22505052
-0.10700261
0.16513459
-0.10547786
0.14566941
-0.093908697
0.14903974
-0.08252284
0.14605755
-0.075115065
0.13578835
-0.073720268
0.12838171
-0.078063469
0.11515414
-0.080902944
0.105495
-0.078689228
0.096971919
-0.076127441
0.088445862
-0.075545987
0.081880695
-0.07607786
0.076856605
-0.076510723
0.071923657
-0.075539259
0.06682697
-0.069675357
0.062028792
-0.070822174
0.057085292
-0.078813056
0.052943881
-0.08659207
0.049231225
-0.084909951
0.046650296