/*--------------------------------*- C++ -*----------------------------------*\
| =========                 |                                                 |
| \\      /  F ield         | OpenFOAM: The Open Source CFD Toolbox           |
|  \\    /   O peration     | Version:  2506                                  |
|   \\  /    A nd           | Website:  www.openfoam.com                      |
|    \\/     M anipulation  |                                                 |
\*---------------------------------------------------------------------------*/
FoamFile
{
    version     2.0;
    format      ascii;
    arch        "LSB;label=32;scalar=64";
    class       volScalarField;
    location    "1.55";
    object      nut;
}
// * * * * * * * * * * * * * * * * * * * * * * * * * * * * * * * * * * * * * //

dimensions      [0 2 -1 0 0 0 0];

internalField   nonuniform List<scalar> 
1375
(
0.046975764
0.057780431
0.071398008
0.087107111
0.10373742
0.1200122
0.040970318
0.047911071
0.05914183
0.07321124
0.089283156
0.10611199
0.12241704
0.13729934
0.15026107
0.16108211
0.16973262
0.17637494
0.1812226
0.18426576
0.18605035
0.18689764
0.18711896
0.18697909
0.18667482
0.041662526
0.048813062
0.060402337
0.074849167
0.091219023
0.10820851
0.12453732
0.13933219
0.15211908
0.16269583
0.17105305
0.17738353
0.18187992
0.18462108
0.18615693
0.18682771
0.18694437
0.1867574
0.18644196
0.18610071
0.18579257
0.18558008
0.18546188
0.18534112
0.18525407
0.18520734
0.18518617
0.042395631
0.049747116
0.061665873
0.076436074
0.09303731
0.11012898
0.12644241
0.1411302
0.15373876
0.16408111
0.17216535
0.17821059
0.1823967
0.18487482
0.18619841
0.18672169
0.18675355
0.18653046
0.18620795
0.18587381
0.18558796
0.18541718
0.18530112
0.18518152
0.18510793
0.1850697
0.18505446
0.18505545
0.18506797
0.18508834
0.18511566
0.18514957
0.18518899
0.18523391
0.043152934
0.050738821
0.063002291
0.078079484
0.094868997
0.11200908
0.12825529
0.14279174
0.15518847
0.16527702
0.17308545
0.17885886
0.18276663
0.18502135
0.18617241
0.18658055
0.18654935
0.18630127
0.18597523
0.18565109
0.18539801
0.18525966
0.18513687
0.18502613
0.1849645
0.18493379
0.18492404
0.18492885
0.18494367
0.18496571
0.18499458
0.18503
0.18507106
0.18511773
0.18517067
0.18523074
0.18529848
0.18537488
0.04390539
0.05178974
0.064447901
0.079854418
0.096825048
0.11398417
0.13012036
0.14445687
0.15659469
0.16639142
0.17390113
0.17939815
0.18303709
0.18509345
0.18610021
0.1864176
0.18633971
0.18607452
0.18574802
0.18543913
0.18522507
0.18510392
0.18497227
0.18487576
0.184824
0.18479978
0.18479482
0.18480306
0.18482014
0.18484391
0.18487432
0.18491117
0.18495372
0.18500196
0.18505642
0.18511793
0.18518718
0.18526529
0.18535427
0.18545681
0.1855758
0.044635788
0.052892767
0.066008562
0.081790016
0.09896517
0.11614361
0.13214899
0.14624869
0.15808251
0.16754295
0.17471793
0.17991778
0.18327431
0.18513702
0.1860105
0.18624899
0.18613292
0.18585473
0.18553046
0.18524138
0.1850671
0.18494603
0.18481319
0.18473003
0.18468625
0.18466751
0.18466669
0.18467804
0.18469741
0.184723
0.18475498
0.1847932
0.18483709
0.18488669
0.18494247
0.18500526
0.18507595
0.18515571
0.18524644
0.18535064
0.18547119
0.18561187
0.18577798
0.18597645
0.045352315
0.054044636
0.067670297
0.083872031
0.10128573
0.11850104
0.13437351
0.1482157
0.15971155
0.16879583
0.17559807
0.18047361
0.18352329
0.18518329
0.18592232
0.18608431
0.18593244
0.18564223
0.18532246
0.18506175
0.18491709
0.1847873
0.18466045
0.18458849
0.18455118
0.184537
0.18453968
0.18455379
0.18457537
0.18460286
0.18463647
0.18467606
0.1847212
0.18477198
0.18482894
0.1848929
0.1849649
0.18504623
0.1851386
0.18524437
0.18536639
0.18550849
0.18567582
0.18587539
0.18611917
0.18643062
0.046079769
0.05524205
0.069402357
0.086048751
0.10372368
0.12099193
0.13673571
0.15031106
0.16144842
0.1701297
0.17653175
0.18106273
0.18378773
0.18523563
0.18583733
0.18592286
0.18573562
0.18543437
0.18512384
0.18489735
0.18476947
0.18462821
0.18451298
0.18445022
0.1844184
0.18440822
0.18441393
0.18443036
0.1844539
0.18448327
0.18451856
0.18455957
0.18460594
0.18465785
0.18471587
0.18478095
0.18485417
0.18493688
0.18503074
0.18513798
0.18526133
0.18540478
0.18557333
0.18577389
0.18601867
0.18633116
0.18673458
0.18706424
0.046836031
0.056467478
0.071156266
0.088242725
0.10617814
0.12350075
0.13911553
0.15241988
0.16319112
0.17145946
0.17745202
0.18163823
0.18403837
0.18527542
0.18574366
0.18575627
0.18553623
0.18522747
0.18493249
0.18474313
0.18461698
0.18447012
0.18436903
0.18431429
0.18428749
0.1842809
0.18428919
0.18430764
0.18433305
0.18436423
0.18440116
0.18444357
0.1844912
0.18454423
0.18460332
0.18466947
0.18474381
0.18482772
0.18492292
0.18503144
0.18515612
0.18530088
0.18547048
0.18567198
0.18591773
0.18623114
0.18663303
0.1869489
0.18411762
0.04761374
0.057677482
0.072860441
0.090354669
0.10852572
0.12588753
0.14136654
0.1544
0.16481084
0.17267763
0.17828317
0.18213199
0.18423584
0.18527858
0.18562681
0.18557542
0.18532815
0.18501767
0.1847475
0.18459142
0.18445669
0.18431383
0.1842269
0.18417971
0.18415785
0.18415476
0.18416549
0.18418573
0.18421275
0.18424565
0.18428424
0.18432808
0.18437693
0.18443112
0.18449131
0.1845585
0.18463391
0.18471892
0.18481521
0.18492491
0.18505081
0.18519672
0.1853673
0.18556968
0.1858164
0.18613066
0.18653089
0.1868327
0.18386277
0.048389755
0.05883006
0.074458161
0.092312367
0.11067918
0.12805368
0.14338539
0.15615074
0.16621641
0.17370944
0.17897578
0.18249991
0.18435509
0.1852313
0.18547944
0.18537635
0.18510948
0.1848054
0.1845695
0.18443549
0.18428906
0.18415906
0.1840855
0.18404582
0.18402902
0.18402948
0.18404265
0.1840647
0.18409334
0.18412782
0.18416783
0.18421299
0.18426314
0.18431845
0.18437967
0.18444795
0.18452444
0.18461046
0.18470772
0.18481843
0.18494543
0.18509239
0.18526385
0.18546707
0.18571468
0.18602983
0.18642841
0.1867154
0.18359142
0.049139195
0.059900208
0.075924347
0.094090236
0.11261173
0.1299717
0.14514561
0.15764888
0.16739067
0.17454612
0.17951734
0.18274579
0.18439769
0.18513691
0.1853049
0.18516216
0.18488412
0.18459518
0.18439787
0.18427182
0.18411736
0.18400586
0.18394464
0.18391252
0.1839009
0.18390487
0.18392037
0.18394421
0.18397443
0.18401037
0.18405174
0.18409823
0.18414956
0.18420604
0.18426846
0.18433785
0.18441539
0.18450238
0.18460052
0.18471211
0.18484001
0.18498785
0.18516021
0.18536422
0.18561263
0.18592873
0.18632571
0.1865967
0.18330165
0.049846197
0.060886055
0.077268857
0.095709
0.11435287
0.13167721
0.14668643
0.15893526
0.16837466
0.17522526
0.17993459
0.18290128
0.18438437
0.18501084
0.18511441
0.18494168
0.18465987
0.18439198
0.18423192
0.18409994
0.1839479
0.18385455
0.18380436
0.18377958
0.18377316
0.18378073
0.18379869
0.18382434
0.18385615
0.18389358
0.18393634
0.18398394
0.18403631
0.18409401
0.18415761
0.1842281
0.18430668
0.18439458
0.18449354
0.18460589
0.18473459
0.18488323
0.18505638
0.18526107
0.18551032
0.18582752
0.1862229
0.18647625
0.1829926
0.050508208
0.061806615
0.078526753
0.097218024
0.11596381
0.13323954
0.14808098
0.16008253
0.16923625
0.17580469
0.18027318
0.18300564
0.18434147
0.18487111
0.18492024
0.18472362
0.18444316
0.1842032
0.18406939
0.18392526
0.18378396
0.18370619
0.18366551
0.18364755
0.18364617
0.18365729
0.18367772
0.18370522
0.18373862
0.18377744
0.18382128
0.18386993
0.18392348
0.18398228
0.18404699
0.18411855
0.18419807
0.18428697
0.18438678
0.1844998
0.18462917
0.18477853
0.18495237
0.18515772
0.18540777
0.18572624
0.1861198
0.18635378
0.18266503
0.051132478
0.062689657
0.079738047
0.098666289
0.11749976
0.13471733
0.14938855
0.16114793
0.17002749
0.17632809
0.18056849
0.18308617
0.18428723
0.18472963
0.18473026
0.18451392
0.18423964
0.18403069
0.18390975
0.18375252
0.18362714
0.18356182
0.18352891
0.18351686
0.18352006
0.18353447
0.18355727
0.18358659
0.18362149
0.18366157
0.18370655
0.18375625
0.18381082
0.18387066
0.18393648
0.18400914
0.18408975
0.1841795
0.18428008
0.18439391
0.1845239
0.18467383
0.18484827
0.18505421
0.18530507
0.18562474
0.18601627
0.18622917
0.18232098
0.051730608
0.063558302
0.080928131
0.10007842
0.11898342
0.13613102
0.15062763
0.16214826
0.17076317
0.1768079
0.180831
0.18315035
0.18422629
0.18458887
0.18454591
0.18431439
0.18405125
0.18387284
0.18375044
0.18358662
0.18347764
0.18342188
0.18339507
0.18338779
0.18339483
0.18341223
0.18343725
0.18346831
0.18350464
0.1835459
0.18359193
0.18364266
0.18369831
0.18375926
0.18382616
0.18389987
0.18398143
0.1840721
0.18417361
0.18428818
0.18441878
0.18456921
0.18474411
0.18495057
0.18520222
0.18552289
0.18591214
0.18610252
0.18196362
0.052315079
0.064426816
0.082108197
0.10146136
0.12041712
0.13747855
0.15179248
0.16307538
0.17143414
0.17723548
0.18105348
0.18319198
0.18415361
0.18444473
0.18436449
0.18412368
0.18387534
0.18372463
0.18359103
0.18342915
0.18333476
0.18328632
0.1832642
0.18326057
0.18327057
0.18329046
0.18331753
0.18335024
0.18338797
0.18343041
0.18347745
0.18352916
0.18358584
0.1836479
0.18371587
0.18379062
0.1838732
0.18396491
0.18406731
0.1841826
0.18431382
0.18446469
0.18463995
0.1848468
0.18509916
0.18542057
0.1858072
0.18597418
0.18159638
0.052896544
0.065298963
0.083276814
0.10281079
0.12179557
0.13875405
0.1528763
0.16392123
0.17203133
0.17760167
0.18122753
0.18320295
0.18406252
0.18429185
0.18418187
0.18393801
0.18371019
0.18358049
0.18343152
0.18327883
0.18319687
0.18315438
0.18313604
0.18313523
0.18314749
0.18316928
0.18319804
0.18323227
0.18327131
0.18331493
0.18336304
0.18341576
0.18347344
0.18353655
0.1836056
0.1836814
0.18376504
0.18385779
0.18396112
0.18407718
0.18420894
0.18436019
0.18453573
0.18474286
0.1849958
0.18531773
0.18570132
0.18584451
0.1812215
0.053484816
0.066178205
0.084437479
0.10413336
0.12312978
0.13997191
0.15389432
0.16469927
0.17256475
0.17791276
0.18135674
0.18318282
0.1839512
0.18412756
0.1839952
0.18375512
0.1835535
0.18343539
0.18327145
0.18313386
0.18306244
0.18302513
0.18301004
0.18301153
0.18302555
0.18304885
0.18307897
0.1831145
0.18315475
0.18319949
0.18324867
0.18330243
0.18336109
0.18342517
0.18349528
0.18357215
0.18365684
0.18375056
0.18385485
0.18397178
0.18410416
0.1842557
0.18443138
0.18463868
0.18489208
0.18521428
0.18559436
0.18571356
0.18083972
0.054087713
0.067067918
0.085598677
0.10544663
0.12444744
0.14116769
0.15488543
0.16544663
0.17306592
0.17819288
0.18145901
0.18314123
0.1838247
0.18395387
0.18380505
0.18357523
0.18340282
0.18328436
0.18311175
0.18299235
0.18293008
0.18289768
0.18288576
0.18288934
0.18290479
0.18292923
0.18296047
0.18299709
0.18303842
0.1830842
0.18313437
0.1831891
0.18324871
0.18331371
0.18338477
0.18346268
0.18354839
0.18364314
0.18374841
0.18386621
0.18399929
0.18415119
0.18432691
0.18453423
0.18478789
0.18511016
0.18548642
0.18558122
0.18045008
0.054711188
0.067969927
0.086768678
0.10676844
0.12577663
0.14237809
0.15589106
0.16620465
0.17357166
0.17847181
0.1815577
0.18309289
0.18369214
0.1837763
0.18361522
0.18339974
0.183255
0.18312567
0.18295477
0.18285277
0.18279872
0.18277128
0.18276267
0.18276843
0.18278528
0.18281068
0.18284276
0.18288024
0.18292244
0.18296911
0.18302019
0.18307579
0.18313627
0.18320211
0.18327402
0.18335284
0.1834396
0.1835354
0.18364165
0.18376039
0.18389418
0.18404648
0.18422221
0.18442946
0.18468331
0.18500548
0.1853777
0.18544705
0.18005057
0.055363761
0.068890715
0.087956352
0.10811061
0.12713237
0.14362144
0.15693234
0.16699564
0.17410336
0.17876821
0.18166857
0.18304965
0.18356193
0.18360104
0.1834296
0.18322948
0.18310856
0.1829617
0.18280149
0.18271474
0.18266815
0.18264555
0.18264033
0.18264836
0.18266671
0.18269313
0.18272595
0.18276411
0.18280701
0.1828544
0.18290617
0.18296252
0.18302376
0.18309038
0.18316309
0.18324277
0.18333043
0.18342719
0.18353446
0.18365416
0.18378875
0.18394148
0.18411724
0.18432443
0.18457848
0.18490037
0.18526835
0.18531049
0.17963803
0.05605952
0.069849964
0.089181659
0.10948858
0.12852265
0.14489918
0.15800685
0.16781622
0.17465853
0.17908111
0.18179301
0.1830149
0.18343792
0.18343165
0.18325068
0.18306897
0.18296038
0.18279599
0.18265199
0.18257808
0.18253846
0.1825207
0.18251888
0.18252918
0.18254898
0.18257635
0.18260987
0.18264863
0.18269213
0.18274009
0.18279247
0.18284939
0.18291124
0.18297854
0.18305199
0.18313246
0.18322094
0.18331856
0.18342676
0.18354738
0.18368281
0.18383609
0.184012
0.18421917
0.1844734
0.18479504
0.1851585
0.18517104
0.17920972
0.056809098
0.07087122
0.0904693
0.11092065
0.12995548
0.1462067
0.15910026
0.16864724
0.17521805
0.17939606
0.18191842
0.18298338
0.18331846
0.1832689
0.18308092
0.18291857
0.1828094
0.18263207
0.18250645
0.18244303
0.18240977
0.18239666
0.18239825
0.18241092
0.18243222
0.18246047
0.18249453
0.18253375
0.18257772
0.18262619
0.18267906
0.18273645
0.18279876
0.18286662
0.18294072
0.18302188
0.18311112
0.18320955
0.1833186
0.1834401
0.18357634
0.18373022
0.1839064
0.18411366
0.18436812
0.18468968
0.18504821
0.18502849
0.17876433
0.13143956
0.14754065
0.16019856
0.1694674
0.17575856
0.17970106
0.18202502
0.18294543
0.18319846
0.1831111
0.18292006
0.1827755
0.18265515
0.18247369
0.18236489
0.18231004
0.18228246
0.18227362
0.18227837
0.18229328
0.18231609
0.18234533
0.18238005
0.18241967
0.1824639
0.18251264
0.18256587
0.18262369
0.18268642
0.18275473
0.18282934
0.18291112
0.18300104
0.18310022
0.18321004
0.18333232
0.18346932
0.18362383
0.18380037
0.18400778
0.18426276
0.18458437
0.18493741
0.18488255
0.17830164
0.17998235
0.18210146
0.18289251
0.18307258
0.18295538
0.18276548
0.18263601
0.18249908
0.18232144
0.18222706
0.18217924
0.18215666
0.18215166
0.18215929
0.18217626
0.1822005
0.18223071
0.18226609
0.18230617
0.18235071
0.18239962
0.18245301
0.18251112
0.18257426
0.18264293
0.18271797
0.18280025
0.18289072
0.18299056
0.1831011
0.18322412
0.18336181
0.18351692
0.18369392
0.18390168
0.18415718
0.18447881
0.18482601
0.18473325
0.17782239
0.18249753
0.18234182
0.18217457
0.18209242
0.18205058
0.18203241
0.18203082
0.18204103
0.18205989
0.18208548
0.18211664
0.18215267
0.18219317
0.18223797
0.18228707
0.18234062
0.18239889
0.18246228
0.18253128
0.18260663
0.18268928
0.18278024
0.18288061
0.1829918
0.18311552
0.18325388
0.18340957
0.18358703
0.18379525
0.18405127
0.1843729
0.18471373
0.18458063
0.17732838
0.18192391
0.18190969
0.18191113
0.18192362
0.18194418
0.18197102
0.18200311
0.18203981
0.18208076
0.18212582
0.18217506
0.1822287
0.18228707
0.18235059
0.18241979
0.18249538
0.18257829
0.18266961
0.18277045
0.18288221
0.18300657
0.18314556
0.18330179
0.18347969
0.18368848
0.18394511
0.1842664
0.18460035
0.18442461
0.17682127
0.18182924
0.1818572
0.18189014
0.18192751
0.18196897
0.18201434
0.18206373
0.18211742
0.18217578
0.18223929
0.18230854
0.18238425
0.18246733
0.18255888
0.18266011
0.18277236
0.18289729
0.18303683
0.18319355
0.18337188
0.18358124
0.18383858
0.18415929
0.18448576
0.18426503
0.17630221
0.18185772
0.18190344
0.18195304
0.18200681
0.18206513
0.18212854
0.18219768
0.18227336
0.18235648
0.18244815
0.18254963
0.18266226
0.18278762
0.18292763
0.18308483
0.1832636
0.18347353
0.18373156
0.18405147
0.18436979
0.18410179
0.17577214
0.18189681
0.18195513
0.18201842
0.18208735
0.18216282
0.18224581
0.18233744
0.18243899
0.18255185
0.18267754
0.18281791
0.18297551
0.18315478
0.18336537
0.18362406
0.18394286
0.1842525
0.18393449
0.17523122
0.18197765
0.18205278
0.18213547
0.18222686
0.18232825
0.18244112
0.18256699
0.18270762
0.18286554
0.18304531
0.18325662
0.18351599
0.18383356
0.184134
0.18376272
0.17467844
0.18202559
0.18211653
0.18221758
0.1823302
0.182456
0.18259674
0.1827549
0.18293514
0.18314721
0.18340733
0.18372358
0.18401436
0.18358615
0.17411214
0.18221924
0.18234471
0.18248531
0.1826436
0.18282428
0.18303717
0.1832981
0.18361306
0.18389375
0.18340423
0.17353153
0.1823735
0.1825317
0.18271271
0.18292647
0.1831883
0.18350198
0.183772
0.18321614
0.17293427
0.18260046
0.18281505
0.18307784
0.18339027
0.18364894
0.18302159
0.17237971
0.18270289
0.1829667
0.18327783
0.18352437
0.18281983
0.17194238
0.18316458
0.18339822
0.18260833
0.17099864
0.18327023
0.18238838
0.17028869
0.18216305
0.16986033
)
;

boundaryField
{
    Side
    {
        type            empty;
    }
    Inlet
    {
        type            calculated;
        value           nonuniform List<scalar> 
32
(
0.19944743
0.19944939
0.19945128
0.19945174
0.19945077
0.19945086
0.19945161
0.19945265
0.19945373
0.19945454
0.19945553
0.19945737
0.19946008
0.19946289
0.19946475
0.19946548
0.1994664
0.19946763
0.19946822
0.19946908
0.1994706
0.19947232
0.19947429
0.19947733
0.19948029
0.19948175
0.19948291
0.19948492
0.19948576
0.1994854
0.1994855
0.19948601
)
;
    }
    Airfoil
    {
        type            nutkWallFunction;
        blending        stepwise;
        value           nonuniform List<scalar> 0();
    }
    Outlet
    {
        type            calculated;
        value           nonuniform List<scalar> 0();
    }
    procBoundary4to3
    {
        type            processor;
        value           nonuniform List<scalar> 
57
(
0.045935474
0.056234475
0.069332211
0.084634829
0.10105627
0.11732184
0.13500033
0.13500033
0.14817108
0.1592778
0.16826257
0.1752492
0.18048191
0.18385162
0.18590459
0.18694371
0.18728123
0.18719582
0.18690549
0.1863284
0.1863284
0.1860037
0.18575305
0.18561636
0.18550303
0.185403
0.18534692
0.1853195
0.18518311
0.18518311
0.18519322
0.18521179
0.18523739
0.18526964
0.18530733
0.18535043
0.18528512
0.18528512
0.1853436
0.18540975
0.18548446
0.18546205
0.18546205
0.18556291
0.18568034
0.18571504
0.18571504
0.18587983
0.18607713
0.18621925
0.18621925
0.18652954
0.18683525
0.18683525
0.18717875
0.18435706
0.18435706
)
;
    }
    procBoundary4to5
    {
        type            processor;
        value           nonuniform List<scalar> 
64
(
0.071974066
0.091844617
0.11242861
0.11242861
0.1329833
0.1489041
0.16129786
0.17026724
0.17626991
0.17626991
0.18023545
0.18214561
0.18282108
0.18293808
0.18279908
0.18261346
0.18261346
0.18235627
0.18218374
0.18203205
0.1819604
0.1819604
0.18179911
0.18178855
0.18179269
0.18180719
0.18180719
0.18171517
0.18174413
0.18177785
0.18181582
0.18181582
0.18174715
0.18179318
0.18184296
0.18184296
0.1817875
0.18184578
0.18190894
0.18190894
0.18186862
0.1819434
0.1819434
0.18191634
0.18200666
0.1821071
0.1821071
0.1821084
0.18223325
0.18223325
0.18226143
0.18241926
0.18241926
0.1824876
0.1824876
0.18259003
0.18285479
0.18285479
0.18305039
0.18305039
0.18313996
0.18313996
0.1819304
0.1695711
)
;
    }
    procBoundary4to11
    {
        type            processor;
        value           nonuniform List<scalar> 
26
(
0.040889896
0.041695561
0.042547125
0.043401351
0.044205032
0.044922098
0.045554071
0.046139323
0.046732589
0.047378632
0.048089891
0.048848197
0.049622433
0.050382211
0.051105041
0.05177813
0.052400845
0.052984387
0.05354803
0.054115238
0.054712073
0.055359446
0.056064692
0.056816413
0.040301771
0.040301771
)
;
    }
    procBoundary4to12
    {
        type            processor;
        value           uniform 0.057612871;
    }
}


// ************************************************************************* //
