/*--------------------------------*- C++ -*----------------------------------*\
| =========                 |                                                 |
| \\      /  F ield         | OpenFOAM: The Open Source CFD Toolbox           |
|  \\    /   O peration     | Version:  2506                                  |
|   \\  /    A nd           | Website:  www.openfoam.com                      |
|    \\/     M anipulation  |                                                 |
\*---------------------------------------------------------------------------*/
FoamFile
{
    version     2.0;
    format      ascii;
    arch        "LSB;label=32;scalar=64";
    class       surfaceScalarField;
    location    "0.01";
    object      phi;
}
// * * * * * * * * * * * * * * * * * * * * * * * * * * * * * * * * * * * * * //

dimensions      [1 0 -1 0 0 0 0];

oriented        oriented;

internalField   nonuniform List<scalar> 
27059
(
-58.293061
-58.277043
-58.261105
-58.245173
-58.229302
-58.213407
-58.197638
-58.182076
-0.15570603
-53.688026
-58.166514
-0.15567643
-53.673624
-58.150979
-0.15566481
-53.659073
-58.135355
-0.15565756
-53.644484
-58.119362
-0.15569381
-53.630041
-58.103051
-0.15571998
-53.615762
-58.086618
-0.15567471
-53.601422
-58.07028
-0.15567639
-53.586976
-58.054169
-0.13983493
-49.324826
-0.15568544
-53.572467
-58.038143
-0.13982013
-49.31154
-0.15566794
-53.557959
-58.02211
-0.13983521
-49.298438
-0.15569841
-53.543554
-58.006085
-0.13981667
-49.285227
-0.15567865
-53.529204
-57.990038
-0.13979855
-49.271832
-0.15565707
-53.514792
-57.973998
-0.1398226
-49.25828
-0.15569759
-53.500402
-57.958027
-0.13982284
-49.244845
-0.15570151
-53.48592
-57.942067
-0.12634556
-45.36286
-0.13982843
-49.231512
-0.15570599
-53.471384
-57.926152
-0.12635084
-45.350639
-0.139879
-49.21806
-0.1557425
-53.456963
-57.910401
-0.12635593
-45.338429
-0.13988973
-49.204569
-0.15576045
-53.442615
-57.894753
-0.12636408
-45.326194
-0.13986327
-49.191172
-0.15576222
-53.428229
-57.879146
-0.12637184
-45.313937
-0.1398751
-49.177832
-0.15576495
-53.413862
-57.863517
-0.12638095
-45.301667
-0.13989619
-49.164461
-0.15576654
-53.399561
-0.12638988
-45.289393
-0.13990028
-49.151039
-53.385266
-0.12639703
-45.277118
-0.13992113
-49.137588
-53.37101
-0.11331629
-41.700079
-0.12641008
-45.264845
-0.13992891
-49.124135
-53.356771
-0.11333295
-41.688755
-0.12642653
-45.25258
-0.13992872
-49.110689
-53.342446
-0.11335111
-41.677435
-0.12644185
-45.240325
-0.13991238
-49.097316
-53.328053
-0.11337091
-41.666119
-0.1264572
-45.228084
-0.1398884
-49.08396
-53.313637
-0.11339015
-41.654807
-0.12647476
-45.215847
-0.13991323
-49.070525
-53.299173
-0.11340353
-41.643497
-0.12648617
-45.203603
-0.13995005
-49.057021
-53.284647
-0.11341817
-41.63219
-0.12649282
-45.191349
-0.13996114
-49.04367
-0.11343448
-41.620887
-0.12650399
-45.179097
-49.030466
-0.10181408
-38.341722
-0.11345254
-41.609589
-0.12652201
-45.166853
-49.017263
-0.10183744
-38.331321
-0.11347221
-41.598298
-0.12653947
-45.154622
-49.00396
-0.10186299
-38.320924
-0.11349364
-41.587011
-0.12655369
-45.142399
-48.990636
-0.10189041
-38.310531
-0.11351675
-41.57573
-0.12656767
-45.130183
-48.977243
-0.1019199
-38.300142
-0.11354156
-41.564454
-0.12658743
-45.117951
-48.963923
-0.10195152
-38.289759
-0.11356812
-41.553182
-0.12661562
-45.105687
-48.950907
-0.10198515
-38.279381
-0.11359644
-41.541916
-0.12663958
-45.093418
-48.937822
-0.091443782
-35.267353
-0.10201701
-38.269009
-0.11362311
-41.530655
-0.12665667
-45.081173
-0.0914724
-35.257799
-0.10204192
-38.25864
-0.11364414
-41.519398
-45.068944
-0.091502896
-35.248249
-0.10206852
-38.248276
-0.11366643
-41.508146
-45.05673
-0.091535709
-35.238703
-0.10209719
-38.237916
-0.1136904
-41.496899
-45.044524
-0.091570784
-35.229161
-0.10212767
-38.227561
-0.11371612
-41.485657
-45.032326
-0.091608176
-35.219624
-0.10216022
-38.217211
-0.11374345
-41.474419
-45.020151
-0.091647885
-35.210091
-0.10219484
-38.206866
-0.11377229
-41.463185
-45.008002
-0.082080179
-32.44162
-0.091689788
-35.200564
-0.10223127
-38.196527
-0.11380288
-41.451955
-44.995869
-0.082129835
-32.432845
-0.091734073
-35.191042
-0.1022697
-38.186194
-0.11383517
-41.440731
-44.983741
-0.082181994
-32.424075
-0.091780607
-35.181526
-0.10231021
-38.175867
-0.11386915
-41.429515
-0.082236775
-32.415311
-0.091829391
-35.172016
-0.10235265
-38.165546
-41.418308
-0.082290859
-32.406553
-0.091877548
-35.162511
-0.10239452
-38.155232
-41.407111
-0.082334851
-32.397798
-0.091916863
-35.153012
-0.10242874
-38.144923
-41.395922
-0.0823801
-32.389049
-0.091957183
-35.143518
-0.10246378
-38.13462
-41.384739
-0.073652034
-29.843187
-0.082427854
-32.380304
-0.091999761
-35.134029
-0.10250082
-38.124323
-41.373564
-0.073707342
-29.835132
-0.082478064
-32.371564
-0.092044479
-35.124546
-0.10253974
-38.114031
-41.362394
-0.073765286
-29.827082
-0.08253073
-32.36283
-0.092091457
-35.115069
-0.10258054
-38.103745
-41.351232
-0.073825926
-29.819037
-0.082585838
-32.354101
-0.092140556
-35.105597
-0.10262321
-38.093466
-0.073889321
-29.810998
-0.082643383
-32.345378
-0.092191844
-35.096133
-38.083194
-0.073955407
-29.802964
-0.082703435
-32.336661
-0.092245335
-35.086675
-38.072929
-0.074024258
-29.794936
-0.082765944
-32.327951
-0.092301026
-35.077224
-38.062672
-0.066063788
-27.453268
-0.07409575
-29.786914
-0.082830957
-32.319247
-0.092358961
-35.06778
-38.052424
-0.066143772
-27.44588
-0.07416948
-29.778899
-0.082897818
-32.31055
-0.092418562
-35.058343
-38.042184
-0.066211722
-27.438497
-0.074232113
-29.770888
-0.082954759
-32.301859
-0.092469249
-35.048912
-38.031951
-0.066276665
-27.431119
-0.074291996
-29.762883
-0.083009096
-32.293173
-0.092517661
-35.039488
-38.021724
-0.066344741
-27.423746
-0.074354757
-29.754883
-0.083066122
-32.284493
-0.092568508
-35.030069
-38.011504
-0.066416137
-27.416378
-0.074420528
-29.746889
-0.083125852
-32.275819
-0.092621801
-35.020658
-0.06649073
-27.409016
-0.074489324
-29.738901
-0.083188313
-32.267152
-35.011253
-0.059208536
-25.254966
-0.066568458
-27.401659
-0.07456102
-29.730918
-0.083253492
-32.258491
-35.001855
-0.059295346
-25.248191
-0.066649449
-27.394307
-0.074635655
-29.722942
-0.083321341
-32.249837
-34.992465
-0.059385603
-25.241421
-0.066733708
-27.386962
-0.074713337
-29.714973
-0.083391798
-32.24119
-34.983083
-0.059479434
-25.234657
-0.066821099
-27.379624
-0.074793904
-29.707011
-0.083464843
-32.232551
-34.973709
-0.059576587
-25.227899
-0.066911807
-27.372291
-0.074877488
-29.699055
-0.083540724
-32.223919
-34.964344
-0.059677249
-25.221148
-0.067005637
-27.364966
-0.07496398
-29.691107
-0.083619324
-32.215296
-34.954987
-0.053029716
-23.23911
-0.059776469
-25.214402
-0.067098206
-27.357647
-0.075049253
-29.683166
-0.083696796
-32.20668
-34.945638
-0.053119729
-23.232898
-0.059861211
-25.207662
-0.067177181
-27.350334
-0.075122089
-29.675232
-0.083762903
-32.198071
-0.053211371
-23.22669
-0.059947458
-25.200928
-0.067257668
-27.343027
-0.075196201
-29.667303
-32.189469
-0.05330621
-23.220488
-0.060036776
-25.194198
-0.06734091
-27.335726
-0.075272945
-29.659382
-32.180873
-0.053404245
-23.21429
-0.060129039
-25.187475
-0.067427031
-27.328431
-0.075352377
-29.651467
-32.172286
-0.053505602
-23.208098
-0.060224498
-25.180757
-0.067516039
-27.321143
-0.07543438
-29.643559
-32.163706
-0.053610155
-23.201912
-0.060322902
-25.174046
-0.067607805
-27.313861
-0.075518961
-29.635658
-32.155133
-0.047527241
-21.378852
-0.053717968
-23.195732
-0.06042444
-25.167341
-0.067702519
-27.306586
-0.0756063
-29.627765
-32.146569
-0.047644533
-21.373156
-0.053829165
-23.189558
-0.060529051
-25.160642
-0.067800054
-27.299318
-0.075696198
-29.619879
-32.138013
-0.047765086
-21.367467
-0.053943497
-23.183389
-0.060636732
-25.15395
-0.067900469
-27.292057
-0.075788794
-29.612002
-0.047889276
-21.361783
-0.054061212
-23.177227
-0.06074761
-25.147265
-0.068003894
-27.284804
-29.604132
-0.048016915
-21.356105
-0.05418225
-23.171072
-0.060861496
-25.140587
-0.068110142
-27.277558
-29.596271
-0.048138601
-21.350433
-0.054297647
-23.164923
-0.060970181
-25.133916
-0.068211499
-27.27032
-29.588417
-0.042507096
-19.674077
-0.048245934
-21.344767
-0.054399443
-23.158779
-0.061065892
-25.127251
-0.068300757
-27.263088
-29.580571
-0.042623211
-19.66884
-0.048356529
-21.339105
-0.054504248
-23.152641
-0.061164735
-25.120592
-0.068392896
-27.255863
-29.572732
-0.042743349
-19.663607
-0.048470949
-21.333449
-0.05461275
-23.146509
-0.061266773
-25.113939
-0.06848811
-27.248645
-29.5649
-0.042867384
-19.65838
-0.048589067
-21.327798
-0.054724762
-23.140383
-0.061372259
-25.107293
-0.068586524
-27.241434
-29.557076
-0.042995315
-19.653158
-0.048710948
-21.322153
-0.054840284
-23.134263
-0.061481008
-25.100653
-0.068687946
-27.23423
-0.043127268
-19.647942
-0.048836591
-21.316514
-0.054959441
-23.12815
-0.061593265
-25.094021
-27.227034
-0.037779553
-18.108973
-0.04326318
-19.642731
-0.048966059
-21.310881
-0.055082171
-23.122043
-0.061708718
-25.087395
-27.219845
-0.037926006
-18.104115
-0.043402988
-19.637526
-0.049099226
-21.305255
-0.055208474
-23.115943
-0.061827618
-25.080777
-27.212665
-0.038076697
-18.099262
-0.04354688
-19.632327
-0.049236217
-21.299635
-0.055338349
-23.10985
-0.061949964
-25.074167
-27.205493
-0.038231503
-18.094416
-0.04369473
-19.627135
-0.049377096
-21.294021
-0.055471922
-23.103764
-0.062075696
-25.067565
-27.198329
-0.038390611
-18.089575
-0.043846601
-19.621948
-0.049521799
-21.288415
-0.055609131
-23.097686
-0.062204814
-25.06097
-27.191174
-0.032957635
-16.681597
-0.038543296
-18.08474
-0.043992335
-19.616768
-0.049660548
-21.282815
-0.055740698
-23.091615
-0.06232873
-25.054383
-27.184027
-0.033098626
-16.676998
-0.038678144
-18.079911
-0.044120964
-19.611593
-0.049782938
-21.27722
-0.055856721
-23.08555
-0.062437978
-25.047803
-0.033243186
-16.672403
-0.038816478
-18.075087
-0.044252861
-19.606424
-0.049908527
-21.271632
-0.055975816
-23.079491
-25.04123
-0.033392194
-16.667813
-0.038958923
-18.070268
-0.044388589
-19.60126
-0.050037814
-21.26605
-0.056098358
-23.073439
-25.034664
-0.033545336
-16.663229
-0.039105291
-18.065454
-0.044528211
-19.596103
-0.050170675
-21.260474
-0.056224347
-23.067394
-25.028106
-0.033702922
-16.65865
-0.039255833
-18.060647
-0.044671728
-19.590951
-0.05030736
-21.254905
-0.05635397
-23.061356
-25.021555
-0.027761586
-15.377673
-0.033864702
-16.654076
-0.039410421
-18.055846
-0.044819203
-19.585805
-0.050447745
-21.249342
-0.056487042
-23.055325
-25.015012
-0.027932448
-15.3732
-0.034030922
-16.649509
-0.039569181
-18.05105
-0.044970507
-19.580666
-0.050591828
-21.243786
-0.056623624
-23.049302
-25.008477
-0.028108058
-15.368732
-0.034201459
-16.644947
-0.039732049
-18.046261
-0.045125768
-19.575533
-0.050739673
-21.238237
-0.056763841
-23.043286
-25.00195
-0.028288223
-15.364269
-0.034376368
-16.640391
-0.039899023
-18.041478
-0.045285047
-19.570407
-0.050891341
-21.232695
-0.056907629
-23.037277
-0.028473195
-15.359811
-0.034555716
-16.635842
-0.040070168
-18.036702
-0.045448219
-19.565288
-0.051046708
-21.227161
-23.031277
-0.022220504
-14.196007
-0.028662908
-15.355358
-0.034739372
-16.631299
-0.04024548
-18.031933
-0.045615408
-19.560176
-0.051205898
-21.221634
-23.025285
-0.02240337
-14.191619
-0.028851574
-15.350911
-0.034921937
-16.626763
-0.040419629
-18.027171
-0.045781413
-19.55507
-0.051364023
-21.216115
-23.019301
-0.022563697
-14.187233
-0.029018057
-15.346469
-0.035082946
-16.622233
-0.040572923
-18.022414
-0.045927425
-19.549971
-0.051502969
-21.210602
-23.013324
-0.022725242
-14.182849
-0.029185508
-15.342033
-0.035244685
-16.617708
-0.040726872
-18.017664
-0.046074007
-19.544878
-0.051642479
-21.205096
-23.007354
-0.022891454
-14.178468
-0.029357308
-15.337601
-0.035410411
-16.61319
-0.040884611
-18.012919
-0.046224293
-19.539792
-0.051785561
-21.199597
-23.001392
-0.018086772
-13.109449
-0.023062284
-14.174089
-0.029533341
-15.333175
-0.035580127
-16.608677
-0.041046076
-18.008181
-0.046378032
-19.534712
-0.051931841
-21.194105
-0.018232633
-13.105382
-0.023237716
-14.169714
-0.029713593
-15.328754
-0.035753765
-16.604171
-0.041211329
-18.003449
-0.046535413
-19.529638
-21.18862
-0.018383416
-13.101313
-0.023417953
-14.165342
-0.029898133
-15.324339
-0.035931389
-16.599672
-0.04138037
-17.998724
-0.046696371
-19.524572
-21.183142
-0.018539168
-13.097242
-0.023602728
-14.160975
-0.030087012
-15.31993
-0.036113057
-16.595179
-0.04155307
-17.994006
-0.04686097
-19.519512
-21.177671
-0.018432341
-12.091537
-0.018699977
-13.093169
-0.023792243
-14.156611
-0.030280234
-15.315528
-0.036298706
-16.590693
-0.041729746
-17.989294
-0.047029209
-19.51446
-21.172209
-0.018568886
-12.088057
-0.018865704
-13.089095
-0.023986483
-14.152252
-0.030477726
-15.311132
-0.036488459
-16.586214
-0.041910205
-17.984589
-0.047201151
-19.509415
-21.166754
-0.01871018
-12.084571
-0.019036624
-13.085019
-0.024185584
-14.147896
-0.03067968
-15.306742
-0.036682189
-16.581742
-0.042094449
-17.979892
-0.047376671
-19.504377
-21.161307
-0.018856373
-12.081081
-0.019212601
-13.080943
-0.024389346
-14.143546
-0.0308859
-15.302359
-0.036880081
-16.577278
-0.042282664
-17.975201
-0.047556081
-19.499347
-21.155868
-0.019006909
-12.077586
-0.019393407
-13.076865
-0.02459765
-14.1392
-0.031096321
-15.297982
-0.037081695
-16.572821
-0.042474473
-17.970518
-0.047738754
-19.494326
-0.021867535
-11.139466
-0.019138472
-12.074087
-0.019556381
-13.072786
-0.024788257
-14.134859
-0.031289309
-15.293613
-0.037266504
-16.568371
-0.042649872
-17.965841
-19.489311
-0.021987255
-11.136583
-0.019260374
-12.070582
-0.019710458
-13.068704
-0.024969993
-14.130523
-0.03147342
-15.28925
-0.037442419
-16.563928
-0.042816825
-17.96117
-19.484304
-0.022110787
-11.133697
-0.019386461
-12.067074
-0.019869189
-13.064621
-0.025156066
-14.126192
-0.031661469
-15.284894
-0.03762205
-16.559492
-0.04298712
-17.956506
-19.479303
-0.022237949
-11.130807
-0.01951707
-12.063561
-0.02003273
-13.060535
-0.02534636
-14.121865
-0.031853334
-15.280544
-0.037805335
-16.555062
-0.043161009
-17.951849
-19.47431
-0.023142493
-10.277107
-0.022368969
-11.127912
-0.019652016
-12.060044
-0.020200823
-13.056447
-0.025541046
-14.117544
-0.032049317
-15.276201
-0.03799227
-16.55064
-0.043338364
-17.947198
-19.469324
-0.023322308
-10.27467
-0.022503921
-11.125012
-0.019791386
-12.056525
-0.020373693
-13.052358
-0.025740074
-14.113229
-0.032249108
-15.271865
-0.038182853
-16.546225
-0.043519122
-17.942554
-19.464344
-0.023505481
-10.272223
-0.02264265
-11.122106
-0.019935245
-12.053003
-0.020551463
-13.048268
-0.025943429
-14.108918
-0.032452948
-15.267537
-0.038377207
-16.541818
-0.043703471
-17.937919
-0.023691991
-10.269767
-0.022785358
-11.119192
-0.02008362
-12.049477
-0.020733986
-13.044176
-0.026151186
-14.104613
-0.032660776
-15.263215
-0.038575206
-16.537418
-17.933291
-0.020059486
-9.4832238
-0.023881892
-10.267303
-0.022932081
-11.116271
-0.020236507
-12.045949
-0.020921396
-13.040085
-0.026363392
-14.100314
-0.032872585
-15.258902
-0.038777035
-16.533026
-17.928671
-0.020311136
-9.481255
-0.024075164
-10.264829
-0.023082834
-11.113343
-0.020393999
-12.042418
-0.021113806
-13.035993
-0.026579993
-14.096021
-0.033088499
-15.254596
-0.038982505
-16.528642
-17.924058
-0.02056608
-9.4792811
-0.024271985
-10.262346
-0.023237709
-11.110407
-0.020556094
-12.038885
-0.021311178
-13.031901
-0.026801038
-14.091733
-0.033308386
-15.250298
-0.039191927
-16.524265
-17.919453
-0.020824155
-9.4773039
-0.024472272
-10.259852
-0.023396728
-11.107466
-0.020722951
-12.03535
-0.021513705
-13.02781
-0.027026659
-14.087452
-0.033532495
-15.246008
-0.039405049
-16.519897
-17.914855
-0.0150641
-8.7261607
-0.021080708
-9.4753238
-0.024671214
-10.257347
-0.023555232
-11.104519
-0.020889796
-12.031814
-0.021716913
-13.023719
-0.027252311
-14.083177
-0.033756296
-15.241726
-0.039617978
-16.515536
-17.910266
-0.015329441
-8.7246233
-0.021310381
-9.4733405
-0.024844385
-10.254832
-0.023688885
-11.101565
-0.021033255
-12.028275
-0.021898294
-13.019627
-0.027455967
-14.078908
-0.033958541
-15.237452
-0.039809815
-16.511182
-0.015593396
-8.7230855
-0.021537849
-9.4713534
-0.025015588
-10.252306
-0.023821459
-11.098606
-0.021176199
-12.024735
-0.022079809
-13.015535
-0.02765915
-14.074646
-0.034160035
-15.233185
-16.506836
-0.015860815
-8.721546
-0.021767737
-9.4693623
-0.025189688
-10.249772
-0.023957497
-11.095639
-0.021323193
-12.021192
-0.022266202
-13.011444
-0.027866264
-14.070389
-0.034365046
-15.228927
-16.502498
-0.012968804
-8.0193954
-0.016131733
-8.7200029
-0.022000291
-9.4673668
-0.025366644
-10.247229
-0.024097116
-11.092666
-0.02147421
-12.017648
-0.022457355
-13.007352
-0.028077116
-14.066137
-0.034573509
-15.224676
-16.498166
-0.013216033
-8.0176746
-0.016406266
-8.7184537
-0.022235392
-9.4653669
-0.025546594
-10.244679
-0.024240438
-11.089685
-0.021629362
-12.014101
-0.022653485
-13.003261
-0.028291891
-14.061892
-0.034785481
-15.220433
-16.493842
-0.01346837
-8.0159599
-0.01668427
-8.716897
-0.022473155
-9.4633623
-0.02572955
-10.242123
-0.024387382
-11.086698
-0.021788691
-12.010552
-0.022854636
-12.999171
-0.028510524
-14.057654
-0.035000897
-15.216198
-16.489526
-0.013725646
-8.0142535
-0.016965922
-8.7153324
-0.022713479
-9.4613518
-0.025915468
-10.239558
-0.024538007
-11.083705
-0.02195224
-12.007001
-0.023060834
-12.995082
-0.028733133
-14.053423
-0.035219877
-15.211971
-16.485217
-0.01248391
-7.3997748
-0.013987908
-8.0125594
-0.017251005
-8.7137603
-0.022956543
-9.4593338
-0.026104487
-10.236987
-0.024692487
-11.080704
-0.022119926
-12.003448
-0.02327216
-12.990995
-0.028959656
-14.049199
-0.03544242
-15.207753
-0.012720734
-7.3977466
-0.014255261
-8.0108827
-0.017539819
-8.712181
-0.023202387
-9.4573066
-0.026296636
-10.234409
-0.024850818
-11.077698
-0.022291914
-11.999893
-0.023488454
-12.986909
-0.029190149
-14.044982
-15.203544
-0.012962738
-7.3957479
-0.0145275
-8.0092298
-0.017832076
-8.7105948
-0.023450989
-9.4552688
-0.026491989
-10.231823
-0.025012918
-11.074685
-0.022468252
-11.996338
-0.023709536
-12.982827
-0.02942461
-14.040772
-15.199343
-0.010675818
-6.8396321
-0.013210115
-7.3937677
-0.014804712
-8.0076069
-0.018128
-8.7090013
-0.023702463
-9.4532196
-0.026690647
-10.229232
-0.02517904
-11.071666
-0.022648911
-11.992781
-0.0239353
-12.978746
-0.029663097
-14.036569
-15.195152
-0.010916772
-6.8375691
-0.013462748
-7.3918045
-0.015086817
-8.0060193
-0.018427549
-8.7074003
-0.023956777
-9.4511589
-0.026892482
-10.226634
-0.025349166
-11.068641
-0.02283401
-11.989222
-0.024165468
-12.974669
-0.029905732
-14.032373
-15.190969
-0.011154409
-6.8354934
-0.013712372
-7.3898696
-0.015365669
-8.0044707
-0.018722489
-8.7057917
-0.024206047
-9.449087
-0.027089998
-10.224032
-0.02551561
-11.065611
-0.023016155
-11.985663
-0.024392596
-12.970594
-0.03014527
-14.028185
-15.186797
-0.0097156172
-6.3098277
-0.011367905
-6.8334025
-0.013938421
-7.387946
-0.015620724
-8.0029641
-0.018992657
-8.7041749
-0.024430469
-9.4470036
-0.027263362
-10.221425
-0.025659266
-11.062575
-0.023176554
-11.982102
-0.024598353
-12.966522
-0.030364277
-14.024004
-0.0099315818
-6.3082572
-0.011583481
-6.8312946
-0.014166375
-7.3860255
-0.01587739
-8.0015016
-0.019263224
-8.7025502
-0.024654695
-9.4449092
-0.027437168
-10.218812
-0.025803992
-11.059534
-0.023338445
-11.97854
-0.024805259
-12.962452
-14.019831
-0.010150811
-6.3066803
-0.011803493
-6.8291676
-0.014398935
-7.3841042
-0.016137826
-8.0000832
-0.019536369
-8.7009181
-0.024880969
-9.442804
-0.027613461
-10.216195
-0.025951902
-11.056487
-0.023504118
-11.974976
-0.025015298
-12.958384
-14.015664
-0.0090818123
-5.8230375
-0.010373391
-6.3050986
-0.012028125
-6.8270205
-0.014636052
-7.3821804
-0.01640218
-7.9987043
-0.019812136
-8.6992808
-0.025109492
-9.4406876
-0.027792476
-10.213572
-0.026103288
-11.053436
-0.023673524
-11.971411
-0.025228866
-12.954319
-14.011504
-0.0093247775
-5.821743
-0.010599137
-6.3035109
-0.012257421
-6.8248542
-0.014878076
-7.3802547
-0.016670319
-7.9973539
-0.020090529
-8.6976414
-0.025340199
-9.4385598
-0.027974081
-10.210944
-0.026257897
-11.050381
-0.023846603
-11.967844
-0.025445892
-12.950257
-14.007353
-0.0095711443
-5.8204341
-0.010828322
-6.3019132
-0.012491612
-6.8226725
-0.015124942
-7.3783329
-0.01694221
-7.9960148
-0.020371466
-8.6960034
-0.02557309
-9.4364201
-0.028158514
-10.20831
-0.026416078
-11.047321
-0.024023496
-11.964277
-0.025666426
-12.946198
-14.00321
-0.0075292865
-5.3713178
-0.0098210863
-5.8191116
-0.011060799
-6.3003024
-0.012730728
-6.8204815
-0.015376995
-7.376423
-0.017217937
-7.994668
-0.020655022
-8.6943699
-0.025808275
-9.4342681
-0.028345705
-10.205672
-0.026577582
-11.044257
-0.024204272
-11.960707
-0.025890501
-12.942142
-13.999075
-0.0077863453
-5.3699381
-0.010074379
-5.8177766
-0.011296737
-6.2986765
-0.012974768
-6.8182882
-0.015634246
-7.3745401
-0.017497382
-7.9932993
-0.020941091
-8.6927414
-0.02604561
-9.4321041
-0.028535638
-10.203028
-0.026742692
-11.041189
-0.024388816
-11.957137
-0.026118337
-12.938091
-0.0066373317
-4.9607076
-0.0080482363
-5.3685816
-0.01033133
-5.8164295
-0.011536127
-6.2970345
-0.013224008
-6.816097
-0.015896665
-7.3727021
-0.017780781
-7.9919062
-0.021229952
-8.6911156
-0.026285228
-9.4299289
-0.028728501
-10.200379
-0.026911288
-11.038117
-0.024577258
-11.953567
-12.934043
-0.0068760507
-4.9591896
-0.0083149417
-5.3672474
-0.010591796
-5.8150711
-0.011779126
-6.2953762
-0.013478798
-6.8139087
-0.016164118
-7.3709148
-0.01806794
-7.9904979
-0.021521404
-8.6894879
-0.026527019
-9.4277431
-0.028924344
-10.197725
-0.027083523
-11.035041
-0.024769737
-11.949995
-12.929999
-0.0071192325
-4.9576776
-0.008586362
-5.3659357
-0.010855863
-5.8137022
-0.012025713
-6.2937023
-0.013739259
-6.8117209
-0.016436464
-7.3691803
-0.018359003
-7.9890896
-0.021815599
-8.6878544
-0.02677093
-9.4255469
-0.0291231
-10.195066
-0.02725941
-11.031962
-0.02496613
-11.946424
-12.925959
-0.0063528933
-4.5856739
-0.0073667184
-4.9561688
-0.0088624586
-5.3646453
-0.011123543
-5.8123242
-0.012276163
-6.2920137
-0.014005917
-6.809533
-0.016713581
-7.3674862
-0.018653854
-7.9876929
-0.022112586
-8.6862131
-0.027016859
-9.4233403
-0.029325009
-10.192402
-0.027439036
-11.02888
-0.025166511
-11.942852
-12.921924
-0.0066022326
-4.5845213
-0.0076129218
-4.9546586
-0.0091372776
-5.3633718
-0.011389238
-5.8109386
-0.012524766
-6.2903108
-0.014273357
-6.8073482
-0.016990046
-7.3658142
-0.01894712
-7.9863103
-0.022406919
-8.6845639
-0.027259515
-9.4211233
-0.02952477
-10.189732
-0.027617303
-11.025795
-0.025366132
-11.939281
-12.917893
-0.0051183267
-4.232454
-0.0068277487
-4.5833505
-0.0078361237
-4.9531424
-0.0093895781
-5.362107
-0.011631598
-5.809548
-0.012750521
-6.2885924
-0.014520443
-6.8051718
-0.017245256
-7.3641525
-0.019218537
-7.9849356
-0.022678721
-8.6829072
-0.027478972
-9.4188956
-0.029703117
-10.187058
-0.027775304
-11.022707
-0.025546326
-11.935709
-0.0053470795
-4.2312424
-0.0070524973
-4.5821561
-0.00805882
-4.9516156
-0.0096411301
-5.3608435
-0.011872579
-5.8081551
-0.012975101
-6.2868561
-0.014768262
-6.8030082
-0.017500606
-7.3625015
-0.019488802
-7.9835622
-0.022948506
-8.681243
-0.027695409
-9.416657
-0.02988018
-10.18438
-0.027932598
-11.019616
-11.932136
-0.0055795384
-4.230044
-0.0072802636
-4.5809345
-0.0082846074
-4.9500755
-0.0098953493
-5.3595758
-0.012115585
-5.8067623
-0.013201946
-6.2850994
-0.015018852
-6.8008604
-0.017758945
-7.3608667
-0.019761176
-7.9821878
-0.023219531
-8.67957
-0.02791167
-9.4144082
-0.030058701
-10.181698
-0.028092159
-11.016523
-11.928562
-0.0046411275
-3.9147597
-0.0058163392
-4.228857
-0.0075111557
-4.5796816
-0.0085133816
-4.9485215
-0.010152295
-5.3583018
-0.012360528
-5.8053707
-0.013431009
-6.2833199
-0.015271988
-6.7987306
-0.018020378
-7.3592519
-0.020035652
-7.9808145
-0.023491617
-8.6778864
-0.028127872
-9.4121489
-0.030238923
-10.179015
-0.028253985
-11.013428
-11.924988
-0.0048608486
-3.913364
-0.0060578584
-4.2276803
-0.0077451318
-4.5783946
-0.0087452493
-4.9469553
-0.010411897
-5.3570231
-0.012607457
-5.8039795
-0.013662316
-6.2815171
-0.015527543
-6.7966203
-0.018284775
-7.357656
-0.020312187
-7.9794462
-0.023765015
-8.6761916
-0.028344076
-9.4098793
-0.030420898
-10.176329
-0.028418172
-11.01033
-11.921414
-0.0040034567
-3.6211281
-0.0050857453
-3.9119721
-0.006303853
-4.226514
-0.007981872
-4.5770741
-0.0089802222
-4.9453806
-0.010674279
-5.3557424
-0.012856358
-5.8025866
-0.013896138
-6.2796913
-0.015786053
-6.7945296
-0.018552258
-7.3560756
-0.020590805
-7.9780851
-0.024039662
-8.6744863
-0.028560717
-9.407599
-0.030604554
-10.173642
-0.028584777
-11.007231
-11.917839
-0.0042310685
-3.620109
-0.0053155371
-3.9105813
-0.006553604
-4.2253604
-0.0082209673
-4.5757245
-0.0092183516
-4.943803
-0.010939415
-5.3544619
-0.013107111
-5.8011891
-0.01413244
-6.2778455
-0.016047525
-6.7924601
-0.01882259
-7.3545061
-0.020871467
-7.9767316
-0.024315547
-8.6727721
-0.028778572
-9.4053072
-0.030790064
-10.170953
-0.028753769
-11.004129
-0.0032190719
-3.3452813
-0.0044655763
-3.6190754
-0.005549238
-3.9091796
-0.0068061048
-4.2242207
-0.0084620421
-4.5743507
-0.0094596689
-4.9422294
-0.011207313
-5.3531826
-0.013359777
-5.7997817
-0.01437128
-6.2759842
-0.016312307
-6.7904177
-0.019096056
-7.3529426
-0.021154153
-7.9753851
-0.024592723
-8.6710513
-0.028998258
-9.4030037
-0.030977425
-10.168263
-11.001026
-0.0034478718
-3.3443128
-0.0047037117
-3.6180352
-0.005785804
-3.907762
-0.0070605599
-4.2230952
-0.008704879
-4.572957
-0.0097044395
-4.9406667
-0.011477981
-5.3519041
-0.013614389
-5.798361
-0.014612786
-6.274113
-0.016580267
-6.7884081
-0.019372381
-7.3513806
-0.021438936
-7.9740447
-0.024871243
-8.6693266
-0.029220626
-9.400688
-0.031166681
-10.165571
-10.997921
-0.0027279222
-3.0934648
-0.0036797658
-3.3433475
-0.0049423219
-3.6169842
-0.0060246985
-3.9063368
-0.0073165978
-4.2219816
-0.0089496504
-4.5715475
-0.009952681
-4.939121
-0.011751481
-5.3506246
-0.013870875
-5.7969188
-0.014857081
-6.2722366
-0.016851583
-6.7864336
-0.019651729
-7.3498177
-0.021725763
-7.9727093
-0.025151153
-8.6675992
-0.029446151
-9.3983603
-0.031357957
-10.162876
-10.994815
-0.0020185601
-2.8602744
-0.0029538988
-3.0925411
-0.0039154392
-3.3423845
-0.0051822192
-3.6159162
-0.0062662254
-3.9049124
-0.007574659
-4.220878
-0.0091968698
-4.5701153
-0.010204645
-4.9375968
-0.012027749
-5.3493419
-0.014129477
-5.7954571
-0.015104137
-6.2703589
-0.01712623
-6.7844926
-0.019934153
-7.3482539
-0.022014711
-7.9713775
-0.025432306
-8.6658677
-0.029674919
-9.3960231
-0.031551299
-10.160176
-10.991708
-0.0022380074
-2.8594935
-0.0031848682
-3.0916074
-0.0041557447
-3.3414204
-0.005424861
-3.6148289
-0.0065111551
-3.9034935
-0.0078355
-4.2197835
-0.0094473014
-4.5686771
-0.010460278
-4.9360962
-0.012306907
-5.3480536
-0.014390073
-5.7939781
-0.015354085
-6.2684822
-0.017404376
-6.7825807
-0.020219679
-7.3466921
-0.022305733
-7.9700478
-0.02571498
-8.6641294
-0.029906701
-9.3936798
-0.031746642
-10.157471
-10.9886
-0.0015295883
-2.6459158
-0.0024599795
-2.8587021
-0.0034189036
-3.0906608
-0.0043994585
-3.3404501
-0.0056701295
-3.6137201
-0.0067595023
-3.902084
-0.0080991085
-4.2186952
-0.0097006599
-4.5672364
-0.010718677
-4.9346192
-0.012587854
-5.3467578
-0.014652144
-5.7924811
-0.015606264
-6.2666074
-0.017685143
-6.7806944
-0.020507403
-7.3451354
-0.022598282
-7.9687184
-0.025998101
-8.6623837
-0.030140533
-9.3913318
-0.031943581
-10.154761
-0.00082348607
-2.4483714
-0.0017176495
-2.6451583
-0.0026640265
-2.8578965
-0.0036349898
-3.0897001
-0.0046257322
-3.3394722
-0.0058976171
-3.6125878
-0.00699143
-3.9006868
-0.0083462256
-4.217608
-0.0099375928
-4.5657879
-0.010959906
-4.9331635
-0.012851347
-5.3454537
-0.014896432
-5.7909714
-0.015841991
-6.2647332
-0.017950026
-6.7788275
-0.020779176
-7.3435862
-0.022874047
-7.9673878
-0.026263589
-8.660631
-0.030358696
-9.3889791
-10.152045
-0.00099747712
-2.4476503
-0.0018982901
-2.6443898
-0.0028617478
-2.8570757
-0.003844367
-3.0887261
-0.0048451789
-3.3384847
-0.006117793
-3.6114255
-0.0072173946
-3.8993034
-0.0085873247
-4.2165165
-0.01016848
-4.5643265
-0.011193996
-4.9317251
-0.013107763
-5.3441413
-0.015133504
-5.7894465
-0.016071271
-6.2628575
-0.01820912
-6.7769749
-0.021044736
-7.3420455
-0.023142888
-7.9660542
-0.026520553
-8.6588713
-0.030570525
-9.3866227
-10.149324
-0.00037786824
-2.2650843
-0.0011779556
-2.4469188
-0.0020867201
-2.6436105
-0.0030637604
-2.8562435
-0.0040572038
-3.0877414
-0.0050672099
-3.3374879
-0.0063396561
-3.6102385
-0.00744567
-3.8979321
-0.0088306807
-4.215417
-0.010401574
-4.5628483
-0.011429474
-4.9302969
-0.013365222
-5.3428244
-0.015371574
-5.7879089
-0.016302647
-6.2609775
-0.01847057
-6.7751392
-0.021312132
-7.3405135
-0.02341265
-7.964716
-0.026775581
-8.6571033
-0.030783647
-9.384263
-10.146597
0.000162139
-2.0956785
-0.00055486102
-2.264379
-0.0013609446
-2.446178
-0.0022791587
-2.6428186
-0.0032695688
-2.8554007
-0.0042740575
-3.0867476
-0.0052926899
-3.3364825
-0.0065638514
-3.6090331
-0.0076758384
-3.8965697
-0.0090757332
-4.214306
-0.010636323
-4.56135
-0.011666625
-4.928872
-0.013623821
-5.3415086
-0.015610864
-5.7863546
-0.016536033
-6.2590917
-0.018734306
-6.773326
-0.021581356
-7.3389905
-0.023683567
-7.9633709
-0.027031784
-8.6553278
-0.030996808
-9.381899
-10.143866
0.00063551737
-1.939341
-8.5517877e-06
-2.0950295
-0.00073365502
-2.2636632
-0.0015464825
-2.4454283
-0.0024743666
-2.6420169
-0.0034786337
-2.8545476
-0.0044945375
-3.0857455
-0.0055218851
-3.3354682
-0.0067909918
-3.6078047
-0.0079076725
-3.8952138
-0.0093223105
-4.2131788
-0.010872428
-4.5598311
-0.011906363
-4.9274488
-0.013883619
-5.3401989
-0.015851331
-5.784779
-0.016771325
-6.2572003
-0.019000482
-6.7715354
-0.021852604
-7.3374779
-0.023955483
-7.9620171
-0.027296742
-8.6535496
-0.031208708
-9.3795274
0.00047540551
-1.93877
-0.0001776367
-2.0943723
-0.00091339007
-2.2629356
-0.0017337947
-2.4446699
-0.0026717656
-2.6412056
-0.0036898836
-2.8536847
-0.0047177839
-3.0847356
-0.0057543598
-3.3344445
-0.0070215239
-3.6065515
-0.0081411216
-3.8938614
-0.0095705686
-4.2120316
-0.011109894