/*--------------------------------*- C++ -*----------------------------------*\
| =========                 |                                                 |
| \\      /  F ield         | OpenFOAM: The Open Source CFD Toolbox           |
|  \\    /   O peration     | Version:  2506                                  |
|   \\  /    A nd           | Website:  www.openfoam.com                      |
|    \\/     M anipulation  |                                                 |
\*---------------------------------------------------------------------------*/
FoamFile
{
    version     2.0;
    format      ascii;
    arch        "LSB;label=32;scalar=64";
    class       volScalarField;
    location    "0.006";
    object      p;
}
// * * * * * * * * * * * * * * * * * * * * * * * * * * * * * * * * * * * * * //

dimensions      [1 -1 -2 0 0 0 0];

internalField   nonuniform List<scalar> 
13761
(
41256.268
41193.137
41134.042
41078.788
41027.179
40979.02
40934.117
40892.289
40853.356
40817.145
40783.488
40752.224
40723.198
40696.265
40671.288
40648.139
40626.697
40606.85
40588.496
40571.559
40555.995
40541.808
40529.01
40517.59
40507.51
40498.705
40491.092
40484.583
40479.086
40474.514
40470.786
40467.835
40465.598
40464.017
40463.013
40462.472
40462.253
40462.194
42199.561
42107.755
42020.927
41938.954
41861.689
41788.976
41720.645
41656.519
41596.419
41540.16
41487.554
41438.415
41392.56
41349.802
41309.969
41272.893
41238.406
41206.35
41176.571
41148.922
41123.266
41099.472
41077.418
41056.99
41038.079
41020.591
41004.444
40989.589
40976.016
40963.738
40952.755
40943.045
40934.557
40927.221
40920.958
40915.681
40911.306
40907.754
40904.958
40902.856
40901.387
40900.468
40899.986
40899.803
40899.777
42570.752
42483.817
42401.601
42323.986
42250.836
42182
42117.32
42056.627
41999.75
41946.515
41896.743
41850.258
41806.885
41766.449
41728.784
41693.73
41661.13
41630.833
41602.692
41576.567
41552.33
41529.855
41509.026
41489.735
41471.881
41455.371
41440.127
41426.091
41413.246
41401.6
41391.158
41381.909
41373.819
41366.829
41360.871
41355.864
41351.728
41348.388
41345.776
41343.832
41342.49
41341.667
41341.25
41341.106
41341.114
42938.92
42856.95
42779.438
42706.273
42637.325
42572.453
42511.505
42454.323
42400.743
42350.601
42303.728
42259.956
42219.12
42181.053
42145.6
42112.609
42081.932
42053.424
42026.947
42002.371
41979.573
41958.434
41938.845
41920.704
41903.915
41888.393
41874.06
41860.857
41848.76
41837.771
41827.894
41819.13
41811.455
41804.825
41799.18
41794.45
41790.559
41787.434
41785.011
41783.225
41782.012
41781.283
41780.929
41780.825
41780.865
43302.62
43225.63
43152.837
43084.137
43019.405
42958.508
42901.302
42847.638
42797.362
42750.317
42706.344
42665.287
42626.986
42591.288
42558.044
42527.111
42498.35
42471.625
42446.807
42423.772
42402.405
42382.594
42364.237
42347.238
42331.508
42316.965
42303.536
42291.163
42279.817
42269.494
42260.199
42251.935
42244.689
42238.429
42233.107
42228.658
42225.015
42222.107
42219.871
42218.243
42217.155
42216.519
42216.225
42216.158
42216.228
43736.646
43660.577
43588.525
43520.41
43456.133
43395.576
43338.615
43285.113
43234.929
43187.918
43143.934
43102.827
43064.448
43028.65
42995.287
42964.22
42935.316
42908.442
42883.474
42860.288
42838.769
42818.809
42800.304
42783.159
42767.282
42752.591
42739.01
42726.471
42714.915
42704.313
42694.657
42685.948
42678.191
42671.382
42665.498
42660.5
42656.334
42652.936
42650.242
42648.191
42646.717
42645.75
42645.199
42644.962
42644.93
42645.028
44082.647
44011.693
43944.495
43880.975
43821.042
43764.584
43711.484
43661.614
43614.841
43571.03
43530.043
43491.74
43455.983
43422.632
43391.552
43362.613
43335.691
43310.661
43287.406
43265.813
43245.774
43227.187
43209.956
43193.991
43179.208
43165.53
43152.886
43141.213
43130.455
43120.582
43111.582
43103.456
43096.209
43089.84
43084.335
43079.663
43075.779
43072.626
43070.143
43068.271
43066.946
43066.093
43065.623
43065.439
43065.437
43065.56
44490.511
44420.998
44355.039
44292.578
44233.543
44177.846
44125.383
44076.045
44029.713
43986.261
43945.564
43907.493
43871.918
43838.709
43807.738
43778.876
43752.004
43727.006
43703.766
43682.176
43662.129
43643.526
43626.271
43610.275
43595.456
43581.735
43569.039
43557.305
43546.472
43536.489
43527.325
43518.968
43511.416
43504.675
43498.745
43493.619
43489.273
43485.669
43482.758
43480.483
43478.785
43477.601
43476.856
43476.462
43476.325
43476.351
43476.494
44815.346
44750.941
44689.834
44631.972
44577.289
44525.701
44477.113
44431.421
44388.516
44348.281
44310.599
44275.35
44242.414
44211.669
44182.997
44156.28
44131.406
44108.266
44086.755
44066.771
44048.217
44030.998
44015.029
44000.225
43986.51
43973.812
43962.063
43951.205
43941.181
43931.944
43923.465
43915.731
43908.739
43902.494
43896.999
43892.249
43888.227
43884.901
43882.227
43880.152
43878.621
43877.569
43876.922
43876.595
43876.499
43876.55
43876.711
45193.851
45131.306
45071.841
45015.425
44962.009
44911.53
44863.911
44819.064
44776.892
44737.294
44700.162
44665.387
44632.86
44602.467
44574.098
44547.642
44522.99
44500.039
44478.69
44458.843
44440.406
44423.288
44407.402
44392.67
44379.012
44366.36
44354.646
44343.808
44333.792
44324.547
44316.028
44308.208
44301.075
44294.625
44288.862
44283.791
44279.409
44275.703
44272.647
44270.202
44268.319
44266.945
44266.015
44265.457
44265.189
44265.129
44265.202
44265.378
45555.806
45495.419
45437.877
45383.172
45331.274
45282.137
45235.704
45191.904
45150.655
45111.868
45075.448
45041.298
45009.318
44979.404
44951.454
44925.366
44901.038
44878.37
44857.266
44837.634
44819.385
44802.432
44786.693
44772.086
44758.54
44745.983
44734.35
44723.58
44713.616
44704.409
44695.91
44688.081
44680.894
44674.338
44668.41
44663.114
44658.453
44654.428
44651.03
44648.236
44646.012
44644.311
44643.084
44642.266
44641.79
44641.576
44641.548
44641.639
44641.828
45900.668
45842.725
45787.379
45734.641
45684.505
45636.942
45591.911
45549.358
45509.218
45471.417
45435.872
45402.497
45371.202
45341.895
45314.483
45288.871
45264.964
45242.671
45221.898
45202.558
45184.569
45167.846
45152.311
45137.887
45124.502
45112.089
45100.582
45089.922
45080.054
45070.924
45062.488
45054.702
45047.53
45040.947
45034.944
45029.517
45024.67
45020.407
45016.729
45013.629
45011.089
45009.077
45007.55
45006.459
45005.745
45005.341
45005.175
45005.174
45005.281
45005.48
46172.814
46119.925
46069.406
46021.269
45975.506
45932.091
45890.987
45852.144
45815.503
45780.995
45748.547
45718.079
45689.509
45662.753
45637.726
45614.342
45592.515
45572.16
45553.193
45535.534
45519.108
45503.838
45489.651
45476.48
45464.257
45452.921
45442.413
45432.678
45423.665
45415.328
45407.625
45400.516
45393.969
45387.961
45382.483
45377.533
45373.113
45369.23
45365.884
45363.069
45360.771
45358.958
45357.594
45356.63
45356.011
45355.672
45355.547
45355.571
45355.693
45355.9
46485.392
46435.205
46387.146
46341.243
46297.504
46255.921
46216.472
46179.12
46143.822
46110.523
46079.16
46049.667
46021.972
45996
45971.675
45948.92
45927.657
45907.809
45889.298
45872.048
45855.987
45841.046
45827.156
45814.251
45802.269
45791.149
45780.836
45771.275
45762.418
45754.218
45746.633
45739.624
45733.157
45727.202
45721.738
45716.758
45712.261
45708.248
45704.726
45701.696
45699.154
45697.084
45695.461
45694.248
45693.401
45692.866
45692.586
45692.498
45692.543
45692.675
45692.889
46780.272
46733.003
46687.621
46644.168
46602.667
46563.126
46525.538
46489.88
46456.119
46424.215
46394.118
46365.77
46339.111
46314.074
46290.594
46268.6
46248.023
46228.793
46210.839
46194.093
46178.485
46163.951
46150.428
46137.855
46126.172
46115.323
46105.254
46095.915
46087.256
46079.234
46071.807
46064.937
46058.59
46052.734
46047.341
46042.396
46037.89
46033.823
46030.198
46027.02
46024.29
46022.005
46020.152
46018.707
46017.636
46016.897
46016.441
46016.214
46016.158
46016.221
46016.364
46016.583
47057.402
47013.225
46970.694
46929.869
46890.786
46853.467
46817.919
46784.133
46752.091
46721.762
46693.107
46666.082
46640.633
46616.705
46594.239
46573.172
46553.441
46534.985
46517.737
46501.635
46486.615
46472.617
46459.581
46447.45
46436.171
46425.688
46415.953
46406.915
46398.53
46390.755
46383.55
46376.879
46370.707
46365.005
46359.744
46354.9
46350.458
46346.413
46342.763
46339.514
46336.668
46334.23
46332.194
46330.551
46329.276
46328.34
46327.705
46327.323
46327.147
46327.124
46327.205
46327.356
46327.579
47316.907
47275.951
47236.404
47198.336
47161.802
47126.837
47093.459
47061.675
47031.478
47002.851
46975.766
46950.187
46926.075
46903.381
46882.055
46862.043
46843.289
46825.735
46809.326
46794.002
46779.705
46766.38
46753.969
46742.421
46731.682
46721.704
46712.439
46703.839
46695.862
46688.467
46681.614
46675.268
46669.396
46663.968
46658.956
46654.335
46650.084
46646.19
46642.648
46639.458
46636.622
46634.146
46632.03
46630.273
46628.862
46627.777
46626.99
46626.467
46626.166
46626.042
46626.052
46626.15
46626.309
46626.533
47559.094
47521.454
47484.983
47449.769
47415.875
47383.353
47352.233
47322.534
47294.262
47267.41
47241.964
47217.896
47195.177
47173.769
47153.629
47134.71
47116.964
47100.341
47084.788
47070.255
47056.688
47044.036
47032.247
47021.271
47011.061
47001.57
46992.753
46984.568
46976.974
46969.93
46963.402
46957.354
46951.755
46946.575
46941.788
46937.37
46933.298
46929.553
46926.126
46923.011
46920.209
46917.723
46915.558
46913.714
46912.188
46910.971
46910.043
46909.379
46908.946
46908.709
46908.626
46908.658
46908.767
46908.928
46909.149
47784.352
47750.094
47716.769
47684.473
47653.285
47623.268
47594.466
47566.909
47540.615
47515.588
47491.824
47469.308
47448.018
47427.926
47408.998
47391.195
47374.476
47358.798
47344.114
47330.379
47317.546
47305.569
47294.401
47283.997
47274.312
47265.303
47256.929
47249.151
47241.931
47235.232
47229.019
47223.261
47217.927
47212.989
47208.422
47204.201
47200.306
47196.717
47193.418
47190.401
47187.661
47185.2
47183.021
47181.127
47179.52
47178.196
47177.147
47176.354
47175.795
47175.439
47175.254
47175.204
47175.254
47175.37
47175.53
47175.745
47962.338
47932.204
47902.875
47874.44
47846.974
47820.533
47795.159
47770.881
47747.714
47725.665
47704.729
47684.895
47666.142
47648.446
47631.778
47616.102
47601.383
47587.58
47574.655
47562.567
47551.274
47540.734
47530.908
47521.754
47513.234
47505.308
47497.943
47491.102
47484.751
47478.859
47473.396
47468.332
47463.642
47459.3
47455.284
47451.574
47448.152
47444.999
47442.103
47439.455
47437.054
47434.9
47432.996
47431.347
47429.953
47428.81
47427.91
47427.237
47426.77
47426.481
47426.341
47426.319
47426.382
47426.501
47426.658
47426.866
48158.727
48131.818
48105.49
48079.843
48054.962
48030.914
48007.753
47985.52
47964.24
47943.93
47924.597
47906.238
47888.843
47872.396
47856.875
47842.255
47828.506
47815.595
47803.489
47792.153
47781.55
47771.646
47762.402
47753.784
47745.757
47738.285
47731.335
47724.876
47718.877
47713.308
47708.142
47703.351
47698.911
47694.799
47690.992
47687.472
47684.221
47681.222
47678.46
47675.925
47673.609
47671.51
47669.631
47667.975
47666.544
47665.339
47664.357
47663.59
47663.022
47662.634
47662.403
47662.301
47662.301
47662.375
47662.496
47662.648
47662.848
48339.855
48316.195
48292.894
48270.061
48247.79
48226.16
48205.237
48185.07
48165.698
48147.146
48129.433
48112.565
48096.541
48081.355
48066.993
48053.437
48040.666
48028.653
48017.372
48006.793
47996.886
47987.619
47978.962
47970.882
47963.349
47956.331
47949.799
47943.723
47938.076
47932.831
47927.963
47923.446
47919.257
47915.375
47911.78
47908.452
47905.375
47902.534
47899.913
47897.501
47895.288
47893.268
47891.44
47889.806
47888.369
47887.131
47886.094
47885.254
47884.603
47884.127
47883.808
47883.626
47883.556
47883.574
47883.654
47883.774
47883.921
47884.112
48506.349
48485.954
48465.697
48445.698
48426.059
48406.869
48388.202
48370.12
48352.673
48335.896
48319.816
48304.451
48289.809
48275.893
48262.698
48250.214
48238.425
48227.316
48216.863
48207.044
48197.834
48189.207
48181.137
48173.596
48166.557
48159.993
48153.878
48148.185
48142.89
48137.968
48133.395
48129.151
48125.213
48121.561
48118.176
48115.041
48112.14
48109.457
48106.98
48104.695
48102.594
48100.666
48098.908
48097.32
48095.903
48094.66
48093.594
48092.705
48091.99
48091.44
48091.044
48090.785
48090.643
48090.599
48090.63
48090.714
48090.831
48090.972
48091.152
48658.847
48641.729
48624.534
48607.385
48590.396
48573.663
48557.27
48541.29
48525.782
48510.793
48496.359
48482.508
48469.258
48456.62
48444.598
48433.19
48422.389
48412.185
48402.563
48393.505
48384.994
48377.007
48369.524
48362.52
48355.975
48349.864
48344.165
48338.853
48333.908
48329.307
48325.03
48321.056
48317.367
48313.944
48310.769
48307.826
48305.1
48302.577
48300.245
48298.092
48296.107
48294.281
48292.608
48291.083
48289.707
48288.482
48287.411
48286.494
48285.734
48285.125
48284.662
48284.333
48284.123
48284.015
48283.991
48284.032
48284.116
48284.23
48284.364
48284.532
48797.993
48784.162
48770.04
48755.758
48741.434
48727.175
48713.075
48699.213
48685.659
48672.471
48659.695
48647.369
48635.519
48624.167
48613.324
48602.997
48593.187
48583.89
48575.099
48566.804
48558.99
48551.643
48544.745
48538.278
48532.224
48526.564
48521.277
48516.345
48511.747
48507.465
48503.481
48499.775
48496.333
48493.135
48490.168
48487.416
48484.865
48482.501
48480.314
48478.292
48476.425
48474.705
48473.124
48471.675
48470.356
48469.167
48468.111
48467.19
48466.406
48465.758
48465.243
48464.855
48464.584
48464.417
48464.338
48464.331
48464.379
48464.465
48464.575
48464.7
48464.857
48924.422
48913.886
48902.849
48891.449
48879.808
48868.041
48856.25
48844.524
48832.941
48821.569
48810.464
48799.673
48789.234
48779.174
48769.516
48760.275
48751.459
48743.073
48735.115
48727.581
48720.464
48713.755
48707.441
48701.508
48695.943
48690.729
48685.852
48681.295
48677.041
48673.074
48669.378
48665.938
48662.738
48659.764
48657.001
48654.436
48652.057
48649.851
48647.807
48645.916
48644.167
48642.553
48641.066
48639.7
48638.449
48637.311
48636.288
48635.38
48634.592
48633.923
48633.374
48632.941
48632.619
48632.399
48632.267
48632.212
48632.218
48632.27
48632.355
48632.459
48632.577
48632.722
49031.52
49023.582
49015.078
49006.139
48996.884
48987.422
48977.85
48968.257
48958.718
48949.299
48940.058
48931.04
48922.284
48913.819
48905.67
48897.852
48890.379
48883.255
48876.484
48870.064
48863.991
48858.258
48852.857
48847.778
48843.008
48838.537
48834.35
48830.436
48826.78
48823.369
48820.19
48817.228
48814.473
48811.911
48809.53
48807.319
48805.268
48803.365
48801.603
48799.971
48798.463
48797.07
48795.788
48794.61
48793.533
48792.554
48791.675
48790.898
48790.224
48789.656
48789.193
48788.831
48788.565
48788.386
48788.285
48788.249
48788.265
48788.321
48788.404
48788.502
48788.611
48788.746
49137.667
49132.838
49127.249
49121.031
49114.309
49107.199
49099.804
49092.222
49084.537
49076.824
49069.148
49061.566
49054.125
49046.864
49039.816
49033.004
49026.448
49020.162
49014.156
49008.433
49002.997
48997.845
48992.973
48988.377
48984.049
48979.98
48976.162
48972.583
48969.234
48966.104
48963.181
48960.455
48957.914
48955.549
48953.348
48951.302
48949.402
48947.637
48946.001
48944.484
48943.08
48941.782
48940.584
48939.481
48938.467
48937.541
48936.701
48935.947
48935.283
48934.71
48934.229
48933.839
48933.538
48933.32
48933.177
48933.101
48933.08
48933.103
48933.16
48933.239
48933.331
48933.432
48933.555
49232.903
49231.196
49228.538
49225.064
49220.9
49216.167
49210.977
49205.431
49199.623
49193.638
49187.549
49181.422
49175.312
49169.269
49163.333
49157.536
49151.906
49146.464
49141.226
49136.204
49131.405
49126.834
49122.493
49118.379
49114.49
49110.822
49107.369
49104.124
49101.079
49098.226
49095.557
49093.063
49090.734
49088.562
49086.539
49084.656
49082.904
49081.276
49079.764
49078.361
49077.06
49075.855
49074.742
49073.714
49072.768
49071.899
49071.105
49070.385
49069.742
49069.176
49068.689
49068.282
49067.954
49067.703
49067.524
49067.41
49067.353
49067.343
49067.372
49067.428
49067.502
49067.587
49067.68
49067.793
49317.782
49319.208
49319.501
49318.794
49317.215
49314.889
49311.931
49308.452
49304.551
49300.32
49295.843
49291.193
49286.436
49281.628
49276.819
49272.05
49267.357
49262.767
49258.305
49253.989
49249.832
49245.844
49242.032
49238.401
49234.952
49231.683
49228.593
49225.679
49222.935
49220.357
49217.938
49215.672
49213.553
49211.571
49209.722
49207.998
49206.391
49204.896
49203.505
49202.213
49201.013
49199.901
49198.87
49197.917
49197.038
49196.228
49195.486
49194.807
49194.193
49193.645
49193.165
49192.753
49192.411
49192.137
49191.931
49191.785
49191.696
49191.656
49191.655
49191.687
49191.742
49191.812
49191.891
49191.977
49192.078
49397.401
49400.663
49402.748
49403.783
49403.896
49403.205
49401.825
49399.864
49397.42
49394.585
49391.44
49388.059
49384.509
49380.847
49377.124
49373.381
49369.656
49365.98
49362.376
49358.867
49355.467
49352.189
49349.043
49346.033
49343.164
49340.437
49337.852
49335.408
49333.102
49330.932
49328.892
49326.978
49325.184
49323.506
49321.938
49320.474
49319.109
49317.838
49316.654
49315.554
49314.531
49313.583
49312.704
49311.891
49311.141
49310.451
49309.817
49309.239
49308.717
49308.251
49307.844
49307.497
49307.21
49306.983
49306.813
49306.696
49306.627
49306.6
49306.606
49306.64
49306.693
49306.758
49306.831
49306.909
49307.001
49466.275
49472.524
49477.425
49481.106
49483.691
49485.304
49486.062
49486.078
49485.457
49484.298
49482.691
49480.718
49478.453
49475.962
49473.305
49470.532
49467.688
49464.81
49461.931
49459.079
49456.274
49453.535
49450.877
49448.309
49445.841
49443.477
49441.222
49439.077
49437.043
49435.118
49433.302
49431.591
49429.983
49428.473
49427.059
49425.735
49424.497
49423.342
49422.265
49421.261
49420.327
49419.458
49418.652
49417.905
49417.214
49416.576
49415.989
49415.451
49414.96
49414.517
49414.123
49413.78
49413.488
49413.249
49413.061
49412.922
49412.829
49412.777
49412.76
49412.772
49412.806
49412.857
49412.917
49412.984
49413.055
49413.137
49526.302
49535.553
49543.296
49549.654
49554.749
49558.705
49561.643
49563.678
49564.921
49565.478
49565.446
49564.915
49563.967
49562.678
49561.113
49559.333
49557.39
49555.329
49553.19
49551.006
49548.807
49546.616
49544.452
49542.332
49540.268
49538.27
49536.346
49534.5
49532.737
49531.058
49529.464
49527.954
49526.529
49525.186
49523.922
49522.735
49521.623
49520.581
49519.607
49518.698
49517.85
49517.06
49516.325
49515.642
49515.009
49514.423
49513.882
49513.384
49512.927
49512.511
49512.136
49511.803
49511.515
49511.27
49511.071
49510.916
49510.804
49510.73
49510.691
49510.682
49510.697
49510.731
49510.779
49510.834
49510.895
49510.959
49511.033
49577.928
49590.195
49600.803
49609.87
49617.513
49623.854
49629.015
49633.115
49636.269
49638.586
49640.172
49641.124
49641.531
49641.477
49641.036
49640.277
49639.259
49638.037
49636.657
49635.159
49633.579
49631.947
49630.289
49628.624
49626.972
49625.345
49623.756
49622.212
49620.722
49619.29
49617.919
49616.611
49615.368
49614.19
49613.076
49612.025
49611.036
49610.106
49609.233
49608.416
49607.652
49606.938
49606.271
49605.651
49605.074
49604.539
49604.043
49603.585
49603.163
49602.776
49602.424
49602.108
49601.828
49601.585
49601.381
49601.216
49601.089
49600.998
49600.94
49600.912
49600.909
49600.926
49600.96
49601.004
49601.055
49601.11
49601.168
49601.234
49636.869
49650.363
49662.168
49672.397
49681.167
49688.6
49694.813
49699.927
49704.054
49707.306
49709.785
49711.59
49712.811
49713.53
49713.825
49713.762
49713.404
49712.806
49712.014
49711.071
49710.014
49708.873
49707.675
49706.443
49705.195
49703.947
49702.712
49701.5
49700.318
49699.174
49698.071
49697.013
49696.002
49695.04
49694.127
49693.263
49692.446
49691.677
49690.953
49690.274
49689.638
49689.042
49688.486
49687.968
49687.485
49687.037
49686.621
49686.237
49685.884
49685.56
49685.265
49685
49684.766
49684.565
49684.396
49684.261
49684.158
49684.085
49684.041
49684.022
49684.024
49684.043
49684.076
49684.117
49684.163
49684.213
49684.265
49684.324
49675.973
49692.368
49706.938
49719.79
49731.033
49740.785
49749.165
49756.292
49762.283
49767.252
49771.31
49774.56
49777.1
49779.021
49780.407
49781.334
49781.871
49782.081
49782.019
49781.734
49781.269
49780.661
49779.943
49779.142
49778.283
49777.384
49776.463
49775.533
49774.606
49773.691
49772.795
49771.923
49771.081
49770.271
49769.495
49768.755
49768.052
49767.385
49766.754
49766.159
49765.599
49765.073
49764.58
49764.118
49763.687
49763.286
49762.912
49762.566
49762.246
49761.951
49761.681
49761.435
49761.215
49761.021
49760.855
49760.716
49760.606
49760.524
49760.467
49760.434
49760.422
49760.428
49760.448
49760.479
49760.517
49760.559
49760.603
49760.65
49760.703
49707.878
49727.186
49744.546
49760.054
49773.812
49785.934
49796.533
49805.729
49813.641
49820.385
49826.076
49830.824
49834.734
49837.903
49840.424
49842.379
49843.847
49844.897
49845.592
49845.989
49846.138
49846.082
49845.859
49845.503
49845.042
49844.502
49843.902
49843.261
49842.594
49841.912
49841.225
49840.542
49839.87
49839.213
49838.575
49837.959
49837.368
49836.803
49836.264
49835.753
49835.268
49834.811
49834.38
49833.974
49833.594
49833.239
49832.907
49832.598
49832.311
49832.046
49831.801
49831.577
49831.373
49831.191
49831.031
49830.894
49830.781
49830.692
49830.626
49830.582
49830.558
49830.551
49830.559
49830.579
49830.608
49830.643
49830.681
49830.721
49830.763
49830.809
49755.162
49775.331
49793.526
49809.841
49824.38
49837.253
49848.576
49858.468
49867.047
49874.432
49880.736
49886.07
49890.54
49894.242
49897.27
49899.709
49901.635
49903.121
49904.229
49905.016
49905.533
49905.824
49905.929
49905.882
49905.711
49905.443
49905.098
49904.697
49904.253
49903.78
49903.288
49902.788
49902.285
49901.786
49901.295
49900.817
49900.353
49899.906
49899.477
49899.067
49898.677
49898.307
49897.957
49897.627
49897.317
49897.025
49896.753
49896.499
49896.263
49896.045
49895.843
49895.658
49895.491
49895.341
49895.21
49895.098
49895.006
49894.935
49894.883
49894.85
49894.833
49894.831
49894.84
49894.86
49894.887
49894.919
49894.953
49894.988
49895.025
49895.066
49776.628
49799.616
49820.523
49839.431
49856.433
49871.633
49885.142
49897.076
49907.553
49916.694
49924.616
49931.436
49937.262
49942.201
49946.351
49949.806
49952.65
49954.963
49956.815
49958.27
49959.386
49960.214
49960.8
49961.182
49961.395
49961.47
49961.433
49961.305
49961.106
49960.852
49960.556
49960.231
49959.886
49959.527
49959.163
49958.798
49958.436
49958.08
49957.734
49957.399
49957.076
49956.767
49956.471
49956.191
49955.925
49955.674
49955.438
49955.217
49955.01
49954.818
49954.639
49954.474
49954.322
49954.185
49954.063
49953.956
49953.865
49953.792
49953.735
49953.694
49953.669
49953.658
49953.659
49953.669
49953.688
49953.713
49953.742
49953.772
49953.804
49953.836
49953.872
49791.895
49817.705
49841.343
49862.875
49882.383
49899.961
49915.714
49929.751
49942.192
49953.155
49962.762
49971.13
49978.376
49984.61
49989.938
49994.459
49998.268
50001.45
50004.084
50006.241
50007.986
50009.377
50010.466
50011.298
50011.912
50012.345
50012.627
50012.783
50012.838
50012.81
50012.717
50012.572
50012.387
50012.172
50011.936
50011.686
50011.427
50011.164
50010.901
50010.64
50010.385
50010.136
50009.895
50009.663
50009.441
50009.23
50009.03
50008.841
50008.663
50008.496
50008.341
50008.196
50008.062
50007.939
50007.828
50007.729
50007.642
50007.57
50007.511
50007.467
50007.436
50007.417
50007.411
50007.414
50007.425
50007.443
50007.466
50007.491
50007.519
50007.546
50007.575
50007.606
49829.888
49856.268
49880.449
49902.5
49922.504
49940.555
49956.759
49971.229
49984.083
49995.443
50005.429
50014.16
50021.753
50028.318
50033.963
50038.788
50042.886
50046.344
50049.242
50051.651
50053.635
50055.254
50056.559
50057.595
50058.403
50059.018
50059.472
50059.791
50059.999
50060.115
50060.156
50060.137
50060.07
50059.966
50059.834
50059.68
50059.511
50059.331
50059.146
50058.958
50058.769
50058.583
50058.4
50058.223
50058.051
50057.886
50057.729
50057.58
50057.439
50057.306
50057.182
50057.066
50056.959
50056.86
50056.771
50056.691
50056.622
50056.564
50056.518
50056.483
50056.46
50056.447
50056.443
50056.448
50056.46
50056.476
50056.497
50056.52
50056.544
50056.568
50056.593
50056.621
49836.441
49865.561
49892.408
49917.034
49939.507
49959.912
49978.343
49994.909
50009.723
50022.907
50034.582
50044.869
50053.888
50061.756
50068.585
50074.483
50079.55
50083.881
50087.562
50090.673
50093.286
50095.465
50097.269
50098.75
50099.953
50100.921
50101.687
50102.283
50102.737
50103.071
50103.306
50103.46
50103.546
50103.578
50103.567
50103.521
50103.448
50103.354
50103.245
50103.125
50102.998
50102.867
50102.733
50102.599
50102.467
50102.338
50102.212
50102.092
50101.976
50101.866
50101.763
50101.665
50101.573
50101.488
50101.41
50101.339
50101.276
50101.222
50101.176
50101.141
50101.114
50101.097
50101.089
50101.088
50101.094
50101.105
50101.12
50101.139
50101.159
50101.18
50101.202
50101.224
50101.248
49837.633
49869.477
49898.994
49926.214
49951.193
49974.002
49994.723
50013.452
50030.299
50045.38
50058.817
50070.733
50081.25
50090.489
50098.568
50105.601
50111.695
50116.951
50121.465
50125.321
50128.601
50131.375
50133.71
50135.662
50137.285
50138.624
50139.72
50140.609
50141.322
50141.886
50142.324
50142.658
50142.904
50143.077
50143.191
50143.257
50143.283
50143.277
50143.246
50143.196
50143.131
50143.055
50142.971
50142.882
50142.789
50142.696
50142.602
50142.51
50142.42
50142.333
50142.249
50142.17
50142.094
50142.023
50141.957
50141.896
50141.84
50141.791
50141.749
50141.714
50141.686
50141.667
50141.655
50141.649
50141.65
50141.657
50141.667
50141.681
50141.698
50141.716
50141.734
50141.753
50141.772
50141.793
49868.263
49900.44
49930.266
49957.775
49983.026
50006.09
50027.05
50046.002
50063.057
50078.334
50091.955
50104.045
50114.729
50124.129
50132.363
50139.547
50145.788
50151.187
50155.838
50159.829
50163.238
50166.138
50168.593
50170.663
50172.398
50173.844
50175.043
50176.03
50176.837
50177.489
50178.012
50178.425
50178.747
50178.992
50179.173
50179.301
50179.386
50179.436
50179.458
50179.456
50179.437
50179.403
50179.358
50179.306
50179.248
50179.186
50179.122
50179.057
50178.993
50178.93
50178.868
50178.809
50178.752
50178.699
50178.648
50178.601
50178.559
50178.521
50178.489
50178.462
50178.442
50178.428
50178.42
50178.417
50178.42
50178.427
50178.437
50178.449
50178.464
50178.48
50178.496
50178.513
50178.529
50178.547
49862.158
49896.978
49929.407
49959.466
49987.192
50012.638
50035.879
50057.003
50076.109
50093.306
50108.714
50122.458
50134.665
50145.461
50154.969
50163.31
50170.598
50176.941
50182.442
50187.193
50191.281
50194.786
50197.78
50200.327
50202.485
50204.306
50205.836
50207.115
50208.179
50209.059
50209.783
50210.373
50210.85
50211.232
50211.535
50211.77
50211.95
50212.083
50212.178
50212.242
50212.28
50212.298
50212.3
50212.288
50212.266
50212.236
50212.201
50212.162
50212.12
50212.077
50212.033
50211.99
50211.948
50211.907
50211.868
50211.83
50211.796
50211.764
50211.736
50211.711
50211.692
50211.677
50211.667
50211.662
50211.662
50211.665
50211.672
50211.681
50211.693
50211.706
50211.719
50211.733
50211.748
50211.762
50211.777
49888.833
49923.851
49956.47
49986.693
50014.567
50040.138
50063.483
50084.7
50103.892
50121.17
50136.652
50150.465
50162.737
50173.596
50183.167
50191.571
50198.923
50205.33
50210.895
50215.712
50219.866
50223.437
50226.496
50229.109
50231.331
50233.216
50234.808
50236.148
50237.271
50238.208
50238.986
50239.629
50240.157
50240.587
50240.935
50241.214
50241.434
50241.607
50241.739
50241.837
50241.908
50241.956
50241.986
50242.001
50242.004
50241.998
50241.984
50241.965
50241.943
50241.917
50241.89
50241.862
50241.834
50241.806
50241.779
50241.752
50241.727
50241.705
50241.684
50241.667
50241.653
50241.643
50241.637
50241.634
50241.635
50241.639
50241.646
50241.655
50241.665
50241.676
50241.688
50241.701
50241.713
50241.725
50241.738
49876.225
49913.813
49948.969
49981.711
50012.03
50039.98
50065.613
50089.004
50110.254
50129.472
50146.772
50162.275
50176.108
50188.4
50199.28
50208.873
50217.302
50224.682
50231.12
50236.718
50241.57
50245.762
50249.373
50252.473
50255.128
50257.394
50259.323
50260.959
50262.342
50263.508
50264.487
50265.307
50265.99
50266.556
50267.024
50267.407
50267.721
50267.974
50268.177
50268.338
50268.465
50268.562
50268.635
50268.688
50268.725
50268.748
50268.761
50268.766
50268.763
50268.756
50268.746
50268.732
50268.717
50268.7
50268.683
50268.665
50268.648
50268.631
50268.616
50268.602
50268.59
50268.581
50268.575
50268.571
50268.57
50268.572
50268.577
50268.583
50268.591
50268.6
50268.61
50268.62
50268.631
50268.641
50268.652
50268.663
49859.247
49899.439
49937.163
49972.406
50005.192
50035.545
50063.507
50089.143
50112.53
50133.764
50152.956
50170.229
50185.707
50199.516
50211.787
50222.65
50232.23
50240.65
50248.025
50254.464
50260.067
50264.929
50269.135
50272.763
50275.885
50278.563
50280.854
50282.81
50284.474
50285.886
50287.082
50288.091
50288.94
50289.652
50290.247
50290.743
50291.154
50291.493
50291.772
50291.999
50292.183
50292.332
50292.449
50292.542
50292.614
50292.668
50292.708
50292.736
50292.755
50292.767
50292.772
50292.773
50292.771
50292.766
50292.759
50292.751
50292.741
50292.731
50292.721
50292.711
50292.703
50292.696
50292.69
50292.687
50292.686
50292.686
50292.689
50292.694
50292.7
50292.707
50292.715
50292.724
50292.733
50292.742
50292.751
50292.76
50292.769
49881.023
49921.114
49958.926
49994.216
50026.994
50057.324
50085.245
50110.829
50134.156
50155.324
50174.447
50191.652
50207.065
50220.813
50233.027
50243.838
50253.374
50261.755
50269.098
50275.511
50281.095
50285.944
50290.143
50293.77
50296.894
50299.579
50301.881
50303.849
50305.528
50306.957
50308.171
50309.199
50310.067
50310.799
50311.415
50311.93
50312.361
50312.72
50313.017
50313.263
50313.465
50313.63
50313.764
50313.872
50313.958
50314.026
50314.079
50314.12
50314.15
50314.172
50314.188
50314.199
50314.205
50314.208
50314.209
50314.208
50314.205
50314.2
50314.196
50314.191
50314.187
50314.183
50314.18
50314.179
50314.18
50314.181
50314.185
50314.189
50314.195
50314.201
50314.208
50314.216
50314.224