/*--------------------------------*- C++ -*----------------------------------*\
| =========                 |                                                 |
| \\      /  F ield         | OpenFOAM: The Open Source CFD Toolbox           |
|  \\    /   O peration     | Version:  2506                                  |
|   \\  /    A nd           | Website:  www.openfoam.com                      |
|    \\/     M anipulation  |                                                 |
\*---------------------------------------------------------------------------*/
FoamFile
{
    version     2.0;
    format      ascii;
    arch        "LSB;label=32;scalar=64";
    class       surfaceScalarField;
    location    "0.006";
    object      phi;
}
// * * * * * * * * * * * * * * * * * * * * * * * * * * * * * * * * * * * * * //

dimensions      [1 0 -1 0 0 0 0];

oriented        oriented;

internalField   nonuniform List<scalar> 
27023
(
0.0016996126
-0.010445203
0.0015466049
-0.0096552966
0.0014056649
-0.0089229466
0.0012758394
-0.0082448977
0.0011562613
-0.0076165136
0.0010461111
-0.0070355524
0.00094464107
-0.0064981513
0.0008511803
-0.0060000263
0.00076509421
-0.0055394252
0.00068580063
-0.0051134671
0.00061276137
-0.0047197857
0.00054547863
-0.0043561267
0.00048349632
-0.0040201815
0.00042640464
-0.00370935
0.00037381823
-0.0034226723
0.00032541866
-0.0031569974
0.00028095164
-0.0029115985
0.00024035751
-0.0026841085
0.00020399234
-0.0024713245
0.00017258599
-0.0022714368
0.00014663975
-0.0020804849
0.00012585941
-0.0018956002
0.00010928089
-0.0017179848
9.5739037e-05
-0.0015491385
8.4219795e-05
-0.0013901276
7.3986761e-05
-0.0012415734
6.4569378e-05
-0.0011035441
5.5699572e-05
-0.00097513056
4.7231851e-05
-0.00085607682
3.9094775e-05
-0.00074577125
3.1273308e-05
-0.00064182403
2.3797016e-05
-0.00054265319
1.6773128e-05
-0.00044657884
1.0486602e-05
-0.00035166345
5.4542052e-06
-0.00025864888
2.1360721e-06
-0.00017127061
4.4118027e-07
-9.4225802e-05
-2.9234969e-05
0.0034153746
-0.017665419
0.0031307965
-0.016363781
0.0028681695
-0.01515166
0.0026258235
-0.014025382
0.0024022161
-0.012979184
0.002195929
-0.01200719
0.0020056317
-0.011105571
0.0018301007
-0.010268619
0.0016682111
-0.0094924349
0.0015189206
-0.0087727581
0.001381252
-0.0081063997
0.0012543155
-0.0074888116
0.0011372688
-0.0069177993
0.0010293414
-0.0063895726
0.00092984208
-0.0058999265
0.00083811407
-0.0054471439
0.00075355493
-0.0050283974
0.00067560518
-0.0046413648
0.00060374751
-0.0042838337
0.00053750579
-0.0039535377
0.00047645169
-0.0036479249
0.00042017893
-0.0033660578
0.0003683463
-0.0031048504
0.0003206565
-0.0028636197
0.0002769514
-0.0026401366
0.00023737346
-0.0024315004
0.00020244925
-0.0022362832
0.00017277928
-0.0020506012
0.00014842484
-0.0018710442
0.0001287033
-0.0016980736
0.00011253077
-0.0015327867
9.8823484e-05
-0.0013762517
8.672389e-05
-0.0012293159
7.5648757e-05
-0.0010923209
6.5246283e-05
-0.00096459102
5.5322535e-05
-0.00084602595
4.577689e-05
-0.00073611014
3.6587606e-05
-0.00063253309
2.7804866e-05
-0.00053377487
1.9564411e-05
-0.00043825308
1.222589e-05
-0.00034424177
6.3977595e-06
-0.00025273505
2.5413839e-06
-0.00016733064
5.4436284e-07
-9.2150755e-05
-2.8631207e-05
0.0036175671
-0.017342204
0.0033204793
-0.016065063
0.0030459771
-0.014875649
0.0027923741
-0.013770383
0.0025581093
-0.012743627
0.0023417459
-0.011789631
0.0021419321
-0.010904652
0.0019574339
-0.010083099
0.0017870982
-0.0093211547
0.0016298588
-0.008614646
0.0014847157
-0.0079604507
0.0013507587
-0.0073541105
0.001227123
-0.0067934768
0.0011130172
-0.0062748335
0.0010077301
-0.0057940553
0.00091058514
-0.0053494606
0.00082096013
-0.0049382755
0.00073827673
-0.0045582229
0.00066199906
-0.0042071322
0.00059163324
-0.0038827806
0.00052673396
-0.0035826645
0.00046687678
-0.003305868
0.00041170076
-0.0030493682
0.00036087761
-0.0028125152
0.00031418133
-0.0025931806
0.00027160137
-0.0023886811
0.00023344542
-0.0021979047
0.0002002577
-0.0020172065
0.00017233598
-0.0018429281
0.00014931977
-0.0016748752
0.00013030895
-0.0015136038
0.00011422649
-0.0013600083
0.00010012324
-0.0012150617
8.7298417e-05
-0.0010793553
7.5303869e-05
-0.00095246581
6.3876984e-05
-0.00083447785
5.287743e-05
-0.00072500054
4.2272941e-05
-0.00062183028
3.212223e-05
-0.00052353472
2.2606318e-05
-0.00042865992
1.4168804e-05
-0.00033572821
7.4766313e-06
-0.0002459813
3.0166602e-06
-0.00016281263
6.5809815e-07
-8.97387e-05
-2.7914916e-05
0.0037993981
-0.017006777
0.0034906663
-0.015754749
0.0032051321
-0.01458865
0.0029410955
-0.013504991
0.0026969786
-0.012498257
0.0024713275
-0.01156282
0.0022627704
-0.010695022
0.0020700529
-0.0098893902
0.0018920011
-0.0091421863
0.0017275281
-0.0084493261
0.0015756121
-0.0078077524
0.001435321
-0.0072130972
0.0013057675
-0.0066632567
0.0011861384
-0.0061545893
0.0010757019
-0.0056830515
0.0009737602
-0.0052469959
0.00087967071
-0.0048437034
0.00079283519
-0.004470942
0.00071269825
-0.0041265838
0.0006387475
-0.0038084499
0.00057051982
-0.0035140864
0.0005075722
-0.0032425976
0.00044952491
-0.0029910238
0.00039602379
-0.0027587412
0.00034679518
-0.0025437003
0.00030172173
-0.0023433758
0.00026092517
-0.0021568925
0.00022480659
-0.0019808879
0.00019375391
-0.0018116873
0.00016768423
-0.0016486292
0.0001459505
-0.0014917029
0.00012757492
-0.0013414754
0.00011157068
-0.0011989093
9.7137679e-05
-0.0010647836
8.3723887e-05
-0.00093892294
7.0983616e-05
-0.00082161845
5.8724944e-05
-0.00071263279
4.6891151e-05
-0.00060990096
3.5556853e-05
-0.00051211007
2.4950406e-05
-0.00041797243
1.5596563e-05
-0.00032629511
8.2428133e-06
-0.00023854482
3.346496e-06
-0.00015783515
7.4501641e-07
-8.7061302e-05
-2.7111341e-05
0.0039624453
-0.016660126
0.0036430269
-0.015433797
0.0033473907
-0.014291595
0.0030738211
-0.013230108
0.0028207233
-0.012243943
0.0025866246
-0.011327597
0.0023701336
-0.010477492
0.0021699755
-0.0096882708
0.0019849553
-0.0089562776
0.0018139645
-0.0082775144
0.0016559589
-0.0076489884
0.0015099849
-0.007066423
0.001375133
-0.0065277583
0.0012505684
-0.0060294283
0.0011355392
-0.0055674721
0.0010293273
-0.0051402766
0.00093127048
-0.0047451782
0.00084075137
-0.0043799907
0.00075719619
-0.0040426294
0.00068007508
-0.0037309604
0.00060890844
-0.0034425799
0.00054323634
-0.0031766125
0.0004826625
-0.0029301618
0.00042681166
-0.0027026255
0.00037537576
-0.0024920199
0.00032816542
-0.0022959403
0.00028516138
-0.0021136792
0.00024660502
-0.0019421375
0.00021285722
-0.001777758
0.0001840137
-0.001619616
0.00015968605
-0.0014672154
0.00013907099
-0.0013207106
0.00012121697
-0.0011809146
0.00010526193
-0.0010486973
9.0558745e-05
-0.00092409766
7.6672821e-05
-0.00080761921
6.3346405e-05
-0.00069920306
5.0494734e-05
-0.00059695648
3.8192678e-05
-0.00049972357
2.6719012e-05
-0.00040642534
1.6678676e-05
-0.00031618226
8.8319526e-06
-0.00023063982
3.6067507e-06
-0.00015255445
8.0529065e-07
-8.4208717e-05
-2.62494e-05
0.0044635583
-0.017592482
0.004108298
-0.016303261
0.0037791763
-0.01510319
0.0034743836
-0.013985428
0.0031921872
-0.012946639
0.0029309743
-0.011981554
0.0026892543
-0.011084789
0.0024656161
-0.010252847
0.0022587646
-0.0094804885
0.0020674841
-0.0087641369
0.0018906452
-0.0080998806
0.0017271822
-0.0074847912
0.001576121
-0.0069146837
0.0014365307
-0.0063875421
0.0013075565
-0.0058998763
0.0011884272
-0.0054478099
0.0010784059
-0.0050297637
0.00097681172
-0.0046431305
0.00088301021
-0.0042857705
0.00079641034
-0.0039556431
0.00071646656
-0.0036506599
0.00064268418
-0.0033684686
0.00057458805
-0.0031082133
0.00051176693
-0.0028670619
0.00045382848
-0.0026444303
0.00040043779
-0.0024383931
0.00035135724
-0.0022466414
0.00030646468
-0.0020685851
0.00026586075
-0.0019013458
0.00022981495
-0.0017415376
0.00019849483
-0.0015881321
0.00017171863
-0.0014402855
0.00014889526
-0.0012977424
0.00012917908
-0.0011610622
0.00011170383
-0.0010310946
9.5755678e-05
-0.00090802948
8.0813578e-05
-0.00079256718
6.6553515e-05
-0.00068484149
5.2851908e-05
-0.00058316385
3.9786104e-05
-0.00048657524
2.7685346e-05
-0.00039424786
1.7204588e-05
-0.00030562833
9.1023695e-06
-0.00022247167
3.7248613e-06
-0.00014711328
8.3654291e-07
-8.1260448e-05
-2.5354024e-05
0.0046026641
-0.017197658
0.004238149
-0.015937195
0.0039002888
-0.014763893
0.0035872582
-0.013671067
0.0032973086
-0.012655459
0.0030288105
-0.011711917
0.0027802555
-0.010835181
0.0025502131
-0.010021831
0.0023373696
-0.0092667446
0.0021404895
-0.0085664247
0.0019584236
-0.0079170458
0.0017900864
-0.0073157439
0.0016344845
-0.0067584259
0.0014906676
-0.0062431198
0.0013577621
-0.0057664118
0.0012349795
-0.0053245117
0.0011215655
-0.004915874
0.0010168227
-0.0045379489
0.00092010048
-0.0041886433
0.00083079284
-0.0038659618
0.00074833952
-0.0035678616
0.0006722325
-0.0032920436
0.00060198273
-0.0030376707
0.00053716611
-0.002801976
0.00047737507
-0.0025843914
0.00042225485
-0.002383045
0.00037153224
-0.0021957082
0.0003250138
-0.0020218722
0.00028268628
-0.0018588373
0.00024471122
-0.0017033944
0.00021124485
-0.0015545082
0.00018223331
-0.0014111263
0.00015728228
-0.0012726523
0.00013570097
-0.00113935
0.00011668095
-0.0010119521
9.9486885e-05
-0.00089072
8.353713e-05
-0.00077651175
6.8446445e-05
-0.000669653
5.4054218e-05
-0.00056868394
4.0438044e-05
-0.00047287907
2.7960217e-05
-0.00038169563
1.7299646e-05
-0.00029489477
9.1460614e-06
-0.00021425563
3.7516699e-06
-0.00014165695
8.4607326e-07
-7.8296373e-05
-2.4449922e-05
0.0051276207
-0.018115633
0.0047257229
-0.01679414
0.0043529366
-0.015562909
0.0040072703
-0.014416839
0.0036868859
-0.013349398
0.0033900195
-0.012357404
0.003115026
-0.011435823
0.0028603805
-0.010579518
0.0026246349
-0.009785144
0.0024064577
-0.0090476973
0.0022045953
-0.0083637583
0.0020178805
-0.0077295881
0.0018452095
-0.0071423866
0.0016855714
-0.0065981541
0.0015379983
-0.0060949615
0.0014015995
-0.0056294729
0.0012755711
-0.005197985
0.0011591429
-0.004798986
0.0010516029
-0.0044299846
0.00095228604
-0.0040889349
0.0008605728
-0.0037738871
0.00077588999
-0.0034828454
0.00069771753
-0.0032135639
0.00062555421
-0.0029652244
0.00055896451
-0.0027351261
0.0004975276
-0.0025227155
0.00044087353
-0.0023261707
0.00038870167
-0.0021433339
0.00034077023
-0.0019737529
0.00029697832
-0.0018148718
0.00025738984
-0.0016636433
0.00022210462
-0.0015190715
0.00019112261
-0.0013800013
0.00016419635
-0.0012455917
0.00014079955
-0.0011158267
0.00012023053
-0.00099126451
0.00010178286
-0.00087216179
8.4854276e-05
-0.0007594814
6.901818e-05
-0.00065372317
5.4084508e-05
-0.00055366837
4.0134414e-05
-0.00045885056
2.7536985e-05
-0.00036902707
1.6945717e-05
-0.00028423346
8.9506904e-06
-0.00020618699
3.679127e-06
-0.000136313
8.3676143e-07
-7.5385865e-05
-2.3558442e-05
0.0052432687
-0.017672636
0.0048336192
-0.016382926
0.0044535072
-0.015181348
0.0041009289
-0.014062919
0.0037740349
-0.013021263
0.0034710481
-0.012053268
0.003190309
-0.011154022
0.0029302781
-0.010318504
0.0026894913
-0.0095434484
0.002466601
-0.008823967
0.0022603377
-0.0081567187
0.0020695179
-0.0075380512
0.0018930216
-0.0069652279
0.0017298223
-0.0064343431
0.0015789361
-0.0059435105
0.0014394575
-0.005489473
0.0013105686
-0.0050686147
0.001191485
-0.0046794585
0.0010814817
-0.0043195715
0.00097988071
-0.003986956
0.00088605041
-0.0036797079
0.0007994061
-0.0033958794
0.00071941701
-0.0031332783
0.00064557128
-0.0028911058
0.00057742336
-0.002666727
0.0005145413
-0.0024596025
0.00045654193
-0.0022679584
0.00040310504
-0.0020897011
0.00035395187
-0.0019244179
0.00030891981
-0.0017696717
0.00026798966
-0.0016225565
0.00023119462
-0.0014821311
0.00019853441
-0.0013472051
0.00016985171
-0.0012167824
0.00014476257
-0.0010906189
0.00012269286
-0.00096908441
0.00010301162
-0.00085237744
8.5137084e-05
-0.00074151166
6.8633483e-05
-0.00063713161
5.330123e-05
-0.00053825682
3.9211224e-05
-0.0004446871
2.6717218e-05
-0.00035646837
1.6395697e-05
-0.00027384743
8.6687943e-06
-0.00019841131
3.5748878e-06
-0.0001311731
8.1063568e-07
-7.2578806e-05
-2.2695123e-05
0.0057921027
-0.018570713
0.0053436299
-0.017222533
0.004927196
-0.015964982
0.0045406705
-0.014793425
0.0041820403
-0.013702995
0.003849446
-0.01268747
0.0035410993
-0.011743813
0.0032553281
-0.010867225
0.0029905801
-0.010052808
0.0027453771
-0.0092973687
0.0025183579
-0.0085961375
0.0023082386
-0.0079458507
0.0021138216
-0.0073429427
0.0019339728
-0.0067847404
0.0017676521
-0.0062674325
0.0016138619
-0.0057891756
0.0014716834
-0.0053467914
0.0013402863
-0.0049367535
0.0012188745
-0.0045576184
0.0011067107
-0.0042070126
0.0010031064
-0.0038829871
0.00090741911
-0.0035836844
0.00081905434
-0.0033072044
0.00073747197
-0.0030514101
0.00066215064
-0.0028155212
0.00059263586
-0.0025969701
0.00052848653
-0.0023952301
0.00046930744
-0.0022085742
0.00041476477
-0.0020349687
0.00036455115
-0.0018740293
0.00031846126
-0.0017234187
0.00027641101
-0.001580355
0.00023837283
-0.0014439512
0.00020431999
-0.0013130198
0.00017413952
-0.0011864776
0.00014755154
-0.0010639139
0.0001241049
-0.00094552858
0.00010326807
-0.00083143749
8.4513415e-05
-0.0007226626
6.7429113e-05
-0.00061995942
5.1820055e-05
-0.0005225685
3.7747305e-05
-0.00043054093
2.5521763e-05
-0.00034417396
1.5596459e-05
-0.00026385343
8.2405917e-06
-0.00019099814
3.4017607e-06
-0.00012627692
7.7360499e-07
-6.9896552e-05
-2.1866779e-05
0.0063735069
-0.019487005
0.0058842552
-0.018079764
0.0054296151
-0.01676632
0.0050073372
-0.015541248
0.004615283
-0.014400022
0.0042514322
-0.013337895
0.0039139182
-0.012348801
0.0036009435
-0.01142977
0.0033108261
-0.010576119
0.0030420024
-0.00978307
0.0027929828
-0.0090475039
0.0025623941
-0.0083647678
0.0023489404
-0.0077316755
0.0021514121
-0.0071447481
0.0019686628
-0.0066013756
0.0017996407
-0.006097842
0.0016433365
-0.0056323464
0.0014988199
-0.0052017901
0.0013652503
-0.0048027364
0.0012418208
-0.0044337761
0.0011277845
-0.0040925954
0.0010224433
-0.0037772944
0.00092514585
-0.0034860624
0.00083528885
-0.0032170479
0.00075232425
-0.0029681692
0.00067572241
-0.0027386648
0.00060502156
-0.0025260348
0.00053977158
-0.0023297646
0.00047956962
-0.002148173
0.00042406762
-0.0019792835
0.0003729416
-0.0018227322
0.00032595016
-0.0016762693
0.0002829668
-0.0015372223
0.00024390909
-0.0014047544
0.00020872133
-0.0012776995
0.00017730282
-0.0011549343
0.00014944372
-0.0010359365
0.00012479653
-0.00092076969
0.00010293124
-0.00080946718
8.3399529e-05
-0.00070303314
6.5833052e-05
-0.00060230198
5.0052606e-05
-0.00050670737
3.6107245e-05
-0.00041651725
2.4233241e-05
-0.00033222518
1.4742031e-05
-0.00025429058
7.7850516e-06
-0.00018395625
3.2177005e-06
-0.00012162515
7.4048879e-07
-6.7339707e-05
-2.1073796e-05
0.0069887226
-0.02041968
0.0064567446
-0.01895326
0.0059620325
-0.017583415
0.0055021974
-0.016304969
0.0050749868
-0.015112634
0.00467826
-0.014001995
0.0043099927
-0.012968425
0.0039683136
-0.012006009
0.003651418
-0.011111844
0.0033576161
-0.010281365
0.0030853358
-0.0095099091
0.002833078
-0.008794432
0.0025994602
-0.0081303976
0.0023831764
-0.0075146968
0.0021830072
-0.0069439371
0.001997796
-0.0064155717
0.0018264813
-0.0059259798
0.0016680435
-0.0054734031
0.0015215432
-0.0050548229
0.0013861304
-0.004666893
0.00126099
-0.0043082381
0.0011453661
-0.0039766049
0.0010385528
-0.0036701426
0.00093989062
-0.0033870879
0.00084876907
-0.0031256382
0.00076463308
-0.0028837677
0.00068694637
-0.0026607335
0.00061524024
-0.0024541037
0.00054905872
-0.0022633756
0.00048798928
-0.0020869129
0.0004316772
-0.0019227943
0.00037977894
-0.0017706708
0.00033203419
-0.0016283712
0.00028827642
-0.0014933229
0.00024838918
-0.0013647328
0.00021228123
-0.0012414665
0.00017985702
-0.001122391
0.0001509468
-0.0010069153
0.00012528633
-0.00089500385
0.00010253731
-0.0007866209
8.2337842e-05
-0.00068274137
6.4371129e-05
-0.00058425209
4.848941e-05
-0.00049074559
3.4704856e-05
-0.00040266048
2.317695e-05
-0.00032062675
1.4092265e-05
-0.00024512791
7.4427118e-06
-0.00017724538
3.083695e-06
-0.00011718892
7.1080887e-07
-6.4893759e-05
-2.0312241e-05
0.0070623105
-0.01984122
0.0065256719
-0.018414919
0.0060264985
-0.017082664
0.0055624052
-0.015839415
0.0051311423
-0.014680018
0.0047305694
-0.013600171
0.004358661
-0.012595358
0.0040135427
-0.011659819
0.0036934054
-0.010790716
0.0033965535
-0.0099835961
0.0031214089
-0.0092339168
0.002866465
-0.0085387047
0.0026303321
-0.0078935407
0.0024116967
-0.0072953927
0.0022093314
-0.0067409541
0.0020220715
-0.0062277414
0.0018488477
-0.0057522293
0.0016886326
-0.0053127017
0.0015404789
-0.0049062201
0.00140353
-0.0045295296
0.001276963
-0.0041812886
0.0011600157
-0.0038593047
0.0010519752
-0.0035617762
0.00095217563
-0.0032869877
0.00086000049
-0.0030331856
0.00077488892
-0.0027984004
0.00069629886
-0.0025819078
0.00062375613
-0.0023813442
0.00055679874
-0.0021962184
0.0004950078
-0.0020249381
0.00043802024
-0.0018656363
0.00038548098
-0.0017179744
0.00033711065
-0.0015798537
0.00029271837
-0.0014487943
0.00025215665
-0.0013240427
0.00021531049
-0.0012045007
0.00018207733
-0.0010890453
0.00015231774
-0.00097704978
0.00012582384
-0.00086841142
0.00010234104
-0.00076304526
8.1579445e-05
-0.00066189431
6.3282862e-05
-0.00056587678
4.7320524e-05
-0.00047470972
3.3678026e-05
-0.00038895322
2.2435577e-05
-0.00030931985
1.3639134e-05
-0.00023628519
7.2445875e-06
-0.00017079352
3.012978e-06
-0.00011292071
6.8770047e-07
-6.2534852e-05
-1.9575627e-05
0.0077020891
-0.020741497
0.0071217245
-0.019259085
0.0065814681
-0.017873022
0.0060788092
-0.016578486
0.0056113695
-0.015370568
0.0051769047
-0.014244251
0.0047732785
-0.013195339
0.0043984674
-0.012219432
0.0040505978
-0.011310918
0.0037278596
-0.010467023
0.0034285545
-0.0096834089
0.0031511009
-0.0089556479
0.002893988
-0.0082808382
0.0026558209
-0.0076546774
0.0024352803
-0.007074209
0.002231133
-0.006536213
0.0020422083
-0.0060382683
0.0018674306
-0.0055769453
0.0017057665
-0.0051505701
0.0015562625
-0.0047562847
0.0014180565
-0.0043909254
0.0012903201
-0.0040531848
0.0011722858
-0.0037409311
0.0010632353
-0.0034524127
0.00096249808
-0.0031859616
0.00086945255
-0.0029398739
0.00078353385
-0.0027122365
0.00070419494
-0.0025023432
0.00063095817
-0.0023078994
0.00056335573
-0.0021284245
0.00050096519
-0.0019623704
0.0004434143
-0.0018079222
0.00039034123
-0.0016647492
0.00034144903
-0.001530821
0.00029653093
-0.0014037448
0.0002554131
-0.0012828032
0.00021796399
-0.0011669376
0.00018407248
-0.0010550486
0.00015361783
-0.00094649668
0.00012643593
-0.00084113934
0.00010233632
-0.00073886066
8.1094445e-05
-0.00064057471
6.2506425e-05
-0.00054721531
4.64563e-05
-0.00045859213
3.2908258e-05
-0.00037534264
2.1861258e-05
-0.00029821827
1.3299362e-05
-0.00022766861
7.0621236e-06
-0.0001645251
2.9415183e-06
-0.00010877295
6.7117295e-07
-6.0239725e-05
-1.8857934e-05
0.0083770948
-0.02165265
0.0077513234
-0.020113885
0.0071683483
-0.018674404
0.006625533
-0.017328627
0.0061203737
-0.016071863
0.0056505002
-0.01489934
0.005213676
-0.013806173
0.0048077715
-0.012788275
0.0044307688
-0.011841356
0.0040807989
-0.010959956
0.003756055
-0.010141362
0.003454841
-0.0093813468
0.0031755769
-0.0086755997
0.0029167519
-0.0080212887
0.0026769702
-0.0074142265
0.0024549114
-0.0068515322
0.0022493396
-0.0063300707
0.0020590808
-0.0058474828
0.0018830562
-0.0054004344
0.0017202278
-0.0049872928
0.0015696382
-0.0046052805
0.0014304206
-0.0042513252
0.0013017421
-0.0039241532
0.0011828308
-0.003621694
0.0010729639
-0.0033422453
0.00097146685
-0.0030841872
0.00087771409
-0.0028458653
0.00079113702
-0.0026254237
0.00071118505
-0.002422174
0.00063737654
-0.002233891
0.00056924036
-0.0020601039
0.00050634833
-0.0018993086
0.0004483252
-0.0017497417
0.00039479857
-0.0016110773
0.00034546306
-0.00148135
0.00030009485
-0.0013582507
0.00025850501
-0.0012410955
0.00022054542
-0.0011288678
0.00018610051
-0.0010205006
0.00015506073
-0.00091535993
0.00012729467
-0.00081328327
0.00010266036
-0.00071414105
8.0985581e-05
-0.00061882204
6.2107998e-05
-0.00052826434
4.5926907e-05
-0.00044234454
3.2388878e-05
-0.00036174162
2.1443597e-05
-0.00028721375
1.3009646e-05
-0.00021917421
6.8933181e-06
-0.00015836071
2.8657752e-06
-0.00010469652
6.5684787e-07
-5.798445e-05
-1.8153001e-05
0.0090879842
-0.022571111
0.0084152548
-0.020978007
0.0077880949
-0.019484952
0.0072037081
-0.018088375
0.0066594637
-0.016782862
0.0061528664
-0.015563858
0.0056815534
-0.014426724
0.0052432944
-0.013366708
0.0048359658
-0.01237983
0.0044575541
-0.011461912
0.0041061953
-0.010607643
0.0037800871
-0.0098143714
0.0034775375
-0.0090779816
0.0031969708
-0.0083942792
0.0029368802
-0.0077605017
0.0026958742
-0.0071725772
0.0024726354
-0.0066276995
0.0022659319
-0.0061228189
0.002074592
-0.0056556367
0.0018975393
-0.0052229144
0.0017337375
-0.0048230595
0.0015822297
-0.0044533743
0.0014421493
-0.0041108772
0.0013126629
-0.0037943278
0.0011929979
-0.003501716
0.0010824295
-0.0032313883
0.00098028084
-0.0029817722
0.00088592463
-0.0027512636
0.00079878843
-0.0025380612
0.00071831836
-0.0023414956
0.00064402938
-0.0021594104
0.00057544617
-0.0019913447
0.0005121366
-0.0018358367
0.00045371822
-0.0016911741
0.00039981365
-0.0015570338
0.00035010421
-0.0014315122
0.00030435533
-0.0013123811
0.00026236068
-0.0011989883
0.00022396013
-0.0010903605
0.00018903151
-0.00098547129
0.00015747061
-0.00088370419
0.00012917043
-0.00078489326
0.00010402198
-0.00068890868
8.1897478e-05
-0.00059661868
6.2663844e-05
-0.00050895758
4.6235897e-05
-0.00042585083
3.2551278e-05
-0.00034799321
2.1528095e-05
-0.00027612886
1.3043034e-05
-0.00021063111
6.9125196e-06
-0.00015215767
2.8757553e-06
-0.0001005881
6.6762925e-07
-5.5708473e-05
-1.7441234e-05
0.0098326459
-0.02349485
0.0091115232
-0.021847999
0.0084387938
-0.020303435
0.0078115542
-0.018856006
0.0072270166
-0.017502257
0.0066825607
-0.016236942
0.0061757001
-0.015055643
0.0057040782
-0.013953849
0.0052654713
-0.012926942
0.0048577586
-0.011971045
0.0044789311
-0.011082093
0.0041271271
-0.010254921
0.0038005461
-0.0094869423
0.0034974983
-0.00877415
0.0032164092
-0.0081124657
0.0029557734
-0.0074991967
0.0027142007
-0.0069303864
0.0024903759
-0.0064033038
0.0022830682
-0.0059149843
0.0020911086
-0.0054631907
0.001913423
-0.0050447796
0.0017489778
-0.0046581996
0.0015968188
-0.0043008324
0.0014560835
-0.0039697886
0.0013259426
-0.0036638607
0.0012056255
-0.0033810979
0.0010944125
-0.0031198975
0.00099163039
-0.0028787337
0.00089665421
-0.0026560507
0.00080891585
-0.0024501047
0.00072786383
-0.0022602426
0.00065301481
-0.0020843763
0.00058389405
-0.0019220531
0.00052006845
-0.0017718539
0.00046115385
-0.0016321137
0.00040676524
-0.0015025108
0.00035657996
-0.001381201
0.00031034971
-0.0012660345
0.00026786029
-0.001156389
0.00022893759
-0.0010513355
0.00019345674
-0.0009498934
0.00016131541
-0.00085147242
0.00013242234
-0.00075591471
0.00010669416
-0.00066310145
8.4033334e-05
-0.00057388284
6.4329016e-05
-0.00048918505
4.751197e-05
-0.00040896869
3.350838e-05
-0.00033392906
2.2220449e-05
-0.00026478386
1.3526246e-05
-0.00020186729
7.1887794e-06
-0.0001457681
3.0078443e-06
-9.6333316e-05
7.0606664e-07
-5.3336136e-05
-1.6692452e-05
0.010586211
-0.024419389
0.0098149877
-0.022721558
0.0090951185
-0.021126214
0.0084235293
-0.019630072
0.0077973301
-0.018228163
0.007213746
-0.016917152
0.0066701684
-0.015691956
0.0061641199
-0.014548291
0.0056932528
-0.013481776
0.0052553497
-0.012487923
0.0048482973
-0.011562961
0.0044700911
-0.010702933
0.0041188742
-0.0099028229
0.0037928504
-0.0091601036
0.0034903339
-0.0084708805
0.0032097533
-0.0078311893
0.0029496065
-0.007238407
0.0027085058
-0.0066886921
0.002485138
-0.0061793878
0.002278274
-0.0057076142
0.0020867462
-0.0052711957
0.0019094807
-0.0048670829
0.0017454451
-0.0044937658
0.001593686
-0.0041487058
0.0014533404
-0.0038291037
0.0013235775
-0.0035337848
0.0012036288
-0.0032608601
0.0010927718
-0.0030087739
0.00099033337
-0.0027760491
0.00089568746
-0.0025611779
0.00080826548
-0.0023624736
0.00072751445
-0.0021792992
0.00065295046
-0.0020096352
0.00058409696
-0.0018530369
0.00052051939
-0.001708126
0.00046183007
-0.0015732861
0.00040764168
-0.0014481937
0.00035762215
-0.0013310627
0.0003115189
-0.0012198197
0.00026910505
-0.0011138719
0.00023020211
-0.0010123351
0.00019467821
-0.00091427874
0.00016243903
-0.00081914733
0.00013340417
-0.00072679994
0.000107513
-0.00063713474
8.468813e-05
-0.0005509888
6.484349e-05
-0.00046927403
4.7912032e-05
-0.00039197768
3.3823415e-05
-0.00031978215
2.247897e-05
-0.00025337243
1.3702929e-05
-0.00019304346
7.3288999e-06
-0.00013932296
3.0753549e-06
-9.2032484e-05
7.1784126e-07
-5.0934037e-05
-1.5933604e-05
0.01135907
-0.025340715
0.010536104
-0.023594272
0.0097675332
-0.021950996
0.0090501614
-0.020406997
0.0083809318
-0.018959133
0.0077569691
-0.017602619
0.007175512
-0.016334231
0.0066339628
-0.015149053
0.0061298529
-0.014042928
0.0056608425
-0.013011606
0.0052247204
-0.012050729
0.0048193776
-0.011156627
0.0044428146
-0.010325454
0.0040931781
-0.0095523395
0.0037686751
-0.008834818
0.0034676214
-0.0081691036
0.003188448
-0.0075513479
0.0029296545
-0.0069789964
0.0026898542
-0.0064483218
0.0024677345
-0.005956742
0.0022620682
-0.0055014623
0.0020716873
-0.0050803666
0.0018955201
-0.004690502
0.0017325339
-0.0043303978
0.0015817754
-0.0039975948
0.0014423834
-0.0036893864
0.0013135284
-0.0034046294
0.0011944405
-0.0031414951
0.0010844006
-0.0028984782
0.0009827353
-0.0026741477
0.00088882075
-0.0024670456
0.00080208806
-0.0022755404
0.00072198674
-0.0020990131
0.00064803279
-0.0019355113
0.00057975111
-0.0017845986
0.00051670656
-0.0016449372
0.00045851272
-0.0015149585
0.00040477929
-0.0013943369
0.00035517509
-0.0012813433
0.00030944097
-0.0011739791
0.00026734879
-0.0010716796
0.00022871511
-0.00097360866
0.00019341122
-0.00087888754
0.00016134437
-0.00078699918
0.00013244707
-0.00069782614
0.00010667156
-0.00061128834
8.3958052e-05
-0.00052820855
6.4227265e-05
-0.00044948259
4.7422245e-05
-0.00037511465
3.3466896e-05
-0.00030576553
2.2223396e-05
-0.00024208218
1.3566556e-05
-0.00018432103
7.2325993e-06
-0.00013295476
3.0343929e-06
-8.7784024e-05
7.101459e-07
-4.856183e-05
-1.5184589e-05
0.011281595
-0.024462101
0.010462767
-0.022773371
0.0096981288
-0.021184438
0.0089845037
-0.019691595
0.0083188518
-0.018291837
0.0076983126
-0.016980558
0.0071201359
-0.015754646
0.0065817327
-0.014609347
0.0060806421
-0.013540633
0.0056145294
-0.01254438
0.0051811877
-0.011616357
0.0047785126
-0.010753
0.0044045063
-0.0099505672
0.004057318
-0.009204338
0.0037351561
-0.0085119047
0.0034363389
-0.0078695924
0.0031592994
-0.0072736673
0.0029025376
-0.0067216425
0.0026646694
-0.0062099068
0.0024443844
-0.0057359522
0.0022404562
-0.0052970681
0.0020517206
-0.004891201
0.0018771066
-0.0045154911
0.0017155854
-0.0041685104
0.0015662072
-0.0038478785
0.0014281119
-0.0035509793
0.0013004745
-0.0032767042
0.0011825287
-0.0030232835
0.0010735581
-0.0027892623
0.00097289273
-0.002573256
0.00087991192
-0.0023738563
0.00079405081
-0.0021894873
0.00071476159
-0.0020195473
0.00064156281
-0.0018621503
0.00057398291
-0.0017168694
0.00051158842
-0.0015824054
0.00045399402
-0.0014572374
0.00040081237
-0.0013410383
0.00035171075
-0.0012321333
0.0003064318
-0.0011285995
0.00026474631
-0.0010299009
0.00022647343
-0.00093524832
0.00019148241
-0.00084381613
0.00015969025
-0.00075513056
0.00013103277
-0.00066909936
0.00010547806
-0.0005856668
8.2971167e-05
-0.00050564178
6.3442678e-05
-0.00042989811
4.6831481e-05
-0.00035845218
3.304171e-05
-0.00029193708
2.1965202e-05
-0.00023095673
1.3399674e-05
-0.00017573325
7.177487e-06
-0.00012668711
3.0162875e-06
-8.360333e-05
7.0008994e-07
-4.6227803e-05
-1.4447629e-05
0.012052798
-0.025320398
0.011182066
-0.023589212
0.010368622
-0.02195793
0.0096091284
-0.020423096
0.0089004278
-0.018981184
0.0082394954
-0.017629321
0.0076234819
-0.01636308
0.007049647
-0.015179456
0.0065154089
-0.014073856
0.0060183124
-0.013042378
0.0055560268
-0.012081023
0.0051263491
-0.01118569
0.0047271772
-0.010352913
0.0043565167
-0.0095790615
0.0040125181
-0.0088595586
0.0036933934
-0.0081920587
0.0033974633
-0.0075729962
0.0031231626
-0.0069987514
0.002868996
-0.0064669079
0.0026335825
-0.0059739688
0.0024156152
-0.0055175007
0.0022138719
-0.0050948779
0.0020271929
-0.0047041096
0.0018545125
-0.0043424302
0.0016948056
-0.0040084524
0.0015471288
-0.0036998777
0.0014106268
-0.0034141782
0.0012844788
-0.0031502802
0.0011679248
-0.0029064746
0.0010602524
-0.0026813547
0.00096079784
-0.0024735845
0.00086894489
-0.0022818033
0.0007841332
-0.0021044914
0.0007058197
-0.0019410643
0.00063352734
-0.001789702
0.00056678764
-0.0016499862
0.00050517135
-0.0015206571
0.00044829497
-0.0014002392
0.00039577388
-0.0012884045
0.00034727845
-0.0011835335
0.00030255175
-0.001083776
0.00026136737
-0.00098862651
0.00022354388
-0.00089734169
0.00018895839
-0.00080915265
0.00015752676
-0.00072362758
0.00012919733
-0.00064070299
0.00010393859
-0.00056034755
8.1708718e-05
-0.00048335553
6.2437858e-05
-0.00041057685
4.6064429e-05
-0.0003420334
3.2497327e-05
-0.00027832689
2.1584882e-05
-0.00022001822
1.3185928e-05
-0.00016729491
7.0401945e-06
-0.00012053071
2.9581597e-06
-7.9497836e-05
6.8848483e-07
-4.3936109e-05
-1.3724197e-05
0.012851166
-0.026162388
0.011926781
-0.024393767
0.011062902
-0.022723254
0.010256013
-0.021149117
0.0095027972
-0.0196681
0.0088001135
-0.018276853
0.0081449507
-0.016972635
0.0075344701
-0.015751191
0.0069659394
-0.014609623
0.0064367833
-0.013543496
0.0059445506
-0.012549032
0.0054869157
-0.011622359
0.0050616785
-0.010759502
0.00466674
-0.0099570964
0.0043001098
-0.0092116198
0.0039599422
-0.0085186415
0.0036444523
-0.0078758767
0.0033519656
-0.0072798704
0.0030809221
-0.0067271177
0.0028298318
-0.0062152726
0.0025973184
-0.0057409523
0.0023820814
-0.0053017993
0.0021829056
-0.0048952736
0.0019986368
-0.0045194453
0.0018282161
-0.0041716446
0.0016706265
-0.0038505263
0.0015249292
-0.0035538699
0.0013902776
-0.0032792401
0.0012658569
-0.0030255949
0.0011509134
-0.0027912869
0.0010447423
-0.0025749581
0.00094668504
-0.0023753191
0.00085613233
-0.0021910589
0.00077252916
-0.0020207118
0.00069533769
-0.0018637106
0.00062408665
-0.0017183019
0.00055831165