/*--------------------------------*- C++ -*----------------------------------*\
| =========                 |                                                 |
| \\      /  F ield         | OpenFOAM: The Open Source CFD Toolbox           |
|  \\    /   O peration     | Version:  2506                                  |
|   \\  /    A nd           | Website:  www.openfoam.com                      |
|    \\/     M anipulation  |                                                 |
\*---------------------------------------------------------------------------*/
FoamFile
{
    version     2.0;
    format      ascii;
    arch        "LSB;label=32;scalar=64";
    class       volScalarField;
    location    "0.0035";
    object      k;
}
// * * * * * * * * * * * * * * * * * * * * * * * * * * * * * * * * * * * * * //

dimensions      [0 2 -2 0 0 0 0];

internalField   nonuniform List<scalar> 
13761
(
0.0018313943
0.00029045368
0.0020315896
0.031799068
0.28469223
1.344246
3.6523237
6.7742734
9.7571544
11.994784
13.392972
14.074455
14.235115
13.97996
13.442212
12.756976
12.05279
11.458107
11.071695
10.919654
10.952464
11.185314
11.525437
11.917795
12.324455
12.721499
13.097202
13.452535
13.799362
14.148954
14.502008
14.848876
15.173934
15.458817
15.684087
15.830719
15.887954
15.836858
15.640655
15.26707
14.726788
14.017805
13.118715
11.985647
10.616733
9.0811388
7.0565853
4.3126555
1.6960515
0.42312474
0.13766689
0.10072427
0.091839599
0.089150422
0.08878344
0.0890468
0.089531276
0.089812301
0.089777247
0.089388645
0.088348708
0.08722711
0.08630972
0.084692926
0.082762958
0.082618193
0.082734791
0.082191629
0.081765489
0.082822267
0.087637364
0.092254499
0.09239572
0.09076636
0.087306054
0.083583269
0.081058215
0.08036112
0.080476633
0.080927901
0.081034046
0.081096684
0.081417548
0.081597559
0.08140078
0.080812962
0.080478992
0.080907938
0.082191777
0.083697416
0.083827492
0.083210739
0.08152251
0.079445589
0.078118269
0.077572666
0.077248613
0.07717811
0.077317192
0.077002421
0.076566667
0.076515035
0.075952685
0.075566504
0.076070461
0.076146525
0.074793073
0.073542043
0.073300369
0.07394102
0.075066849
0.076116899
0.076821285
0.07725701
0.077527096
0.077570078
0.077490384
0.077430127
0.077416647
0.077444715
0.077484742
0.077518238
0.077538455
0.07754793
0.07755138
0.077550691
0.077549092
0.077548634
0.077548593
0.077549421
0.077550307
0.077550582
0.077550996
0.077551386
0.077551765
0.07755436
0.077557163
0.077560077
0.0017084131
0.00037939167
0.0011796308
0.0046421193
0.013535497
0.031931461
0.065129361
0.1202237
0.20705167
0.33827397
0.52790587
0.78793606
1.1239067
1.5325612
2.0040884
2.5268754
3.0914047
3.6910382
4.3209438
4.9773269
5.6571912
6.3575972
7.0754753
7.8079384
8.5516793
9.3027228
10.055997
10.804797
11.540472
12.252136
12.92675
13.549581
14.104929
14.577022
14.950635
15.211673
15.348044
15.351058
15.210319
14.889289
14.368462
13.629247
12.654185
11.435901
9.9553312
8.1362917
5.753689
2.8612046
0.77373205
0.17353431
0.10829896
0.095479868
0.089868029
0.088492844
0.088630578
0.089086338
0.089560176
0.089710553
0.089623788
0.089094876
0.087960471
0.086949028
0.08604207
0.084264609
0.08261968
0.082730884
0.082822318
0.082124797
0.081836719
0.083311177
0.088579063
0.092563693
0.09237893
0.090474315
0.086918548
0.083312695
0.08099781
0.080420858
0.080568464
0.081017008
0.081090803
0.081150895
0.081477947
0.081637129
0.081420723
0.080837817
0.080534066
0.080995231
0.082269259
0.083727511
0.083823136
0.083170846
0.081457812
0.079397561
0.0780972
0.077559596
0.077245354
0.07718269
0.07730947
0.076989436
0.076557602
0.07649951
0.075936579
0.075565252
0.076073486
0.076126241
0.074762462
0.07351702
0.073286053
0.073942448
0.0750716
0.076121404
0.076824415
0.077258846
0.077528489
0.077570995
0.077491664
0.077430306
0.077415951
0.077444019
0.077484246
0.077517839
0.077538154
0.077547714
0.077550625
0.07754996
0.077548885
0.077548612
0.077548675
0.077549744
0.077550495
0.077550726
0.07755113
0.077551495
0.077552128
0.077555294
0.077558125
0.077561539
2.0284208e-05
0.00020071351
0.0015809966
0.0065659285
0.019421262
0.046929679
0.099252632
0.19083793
0.34113023
0.57402566
0.91446191
1.3799624
1.96916
2.6586249
3.4137978
4.2034158
5.0059987
5.8087798
6.604369
7.3886787
8.1597647
8.9166749
9.65912
10.387284
11.101071
11.799586
12.480395
13.138791
13.767435
14.356587
14.894416
15.367597
15.762274
16.065221
16.264624
16.350863
16.313753
16.130241
15.77363
15.23616
14.514037
13.588672
12.45177
11.11291
9.5292863
7.6081009
5.1022829
2.2597597
0.53328765
0.14338143
0.10477608
0.093773743
0.089202841
0.088353659
0.088624516
0.089092937
0.089537365
0.089665514
0.089538437
0.088923305
0.087781714
0.086854033
0.085944447
0.08405503
0.08259503
0.082815533
0.082883454
0.082088805
0.081889596
0.08361149
0.089158202
0.092717607
0.092400024
0.090341859
0.0867501
0.083216438
0.081011528
0.080491302
0.080651838
0.081096864
0.08114775
0.081201174
0.081534674
0.081683673
0.081469428
0.080897045
0.080594185
0.081052954
0.082305007
0.083738861
0.08382248
0.083155704
0.081433499
0.079383043
0.078091365
0.077553943
0.077245185
0.077185407
0.077301001
0.076980931
0.076550844
0.076486259
0.075925022
0.075562401
0.076071784
0.076110256
0.074742364
0.073496148
0.07326652
0.07392487
0.075061848
0.076115542
0.076820845
0.077258124
0.077529336
0.07757219
0.077492746
0.077430862
0.077416177
0.077444133
0.077484368
0.077517792
0.077538
0.077547276
0.07754973
0.077549337
0.077548766
0.077548612
0.077548953
0.07755001
0.077550646
0.077550845
0.077551252
0.077551588
0.077552672
0.077556257
0.077559059
0.077563052
0.00018698702
0.00011893483
0.00074789313
0.0030818973
0.0091176481
0.022068435
0.046818359
0.090488811
0.16310534
0.27809311
0.45218098
0.70359931
1.0473646
1.4894358
2.024031
2.6369175
3.3118834
4.035098
4.7959661
5.586691
6.401471
7.2352007
8.0829125
8.9395297
9.799086
10.6543
11.49588
12.311568
13.08484
13.802386
14.449469
15.010101
15.468013
15.808155
16.017692
16.084786
16.012434
15.789789
15.407338
14.861238
14.145612
13.249449
12.152891
10.822519
9.2113133
7.229585
4.640141
1.8829282
0.4121432
0.13033159
0.10158513
0.091995121
0.088623872
0.08826334
0.088599538
0.089081902
0.089528413
0.089587123
0.08942127
0.088732318
0.087593626
0.086767544
0.085843243
0.08382944
0.082608226
0.082947272
0.082967686
0.082053492
0.081955053
0.084010456
0.089802662
0.092844689
0.09238185
0.090167148
0.086551016
0.083115071
0.081026411
0.080575245
0.080752944
0.081183232
0.081204903
0.081256598
0.081608385
0.081740485
0.081515993
0.080951907
0.080656535
0.081115844
0.082344784
0.083751658
0.083819749
0.08313555
0.081402663
0.079364046
0.078082658
0.077547561
0.07724544
0.077188166
0.077290986
0.076970176
0.076542445
0.076471382
0.075911192
0.075559951
0.076070316
0.076091194
0.074717673
0.073471232
0.073246888
0.07391397
0.075056074
0.076112008
0.076819078
0.077257729
0.077529645
0.077573053
0.077494397
0.077432093
0.077417312
0.077444866
0.077484743
0.077517932
0.077537634
0.077546495
0.077548951
0.077548901
0.077548729
0.077548726
0.077549336
0.077550256
0.077550796
0.07755098
0.077551388
0.077551787
0.077553436
0.07755725
0.077560121
0.00017288727
0.00016144244
0.0011030319
0.0045614552
0.01350085
0.032675966
0.06928578
0.1337367
0.24041359
0.40785801
0.65742672
1.0087639
1.471816
2.0409618
2.6973949
3.418013
4.1831273
4.9787151
5.7950973
6.6254237
7.4645203
8.3075547
9.1496135
9.9856101
10.809714
11.615196
12.394205
13.137528
13.833924
14.470572
15.032886
15.506729
15.875602
16.124697
16.242952
16.222645
16.061983
15.740392
15.259746
14.624843
13.827891
12.851284
11.669382
10.249358
8.5438708
6.4417985
3.7394134
1.2474667
0.25250001
0.11663264
0.09860494
0.090797091
0.088363774
0.088289197
0.08869817
0.089172198
0.089539271
0.089555829
0.089341777
0.08855211
0.087456286
0.086723523
0.085754262
0.083620868
0.082641037
0.083071447
0.083036521
0.082013581
0.082022113
0.084440988
0.090401125
0.092942531
0.092343842
0.089990509
0.086356895
0.083017021
0.081034609
0.080654441
0.080854767
0.08126562
0.081260561
0.081314074
0.081686855
0.081801848
0.081567339
0.081011937
0.080716854
0.081171959
0.08237961
0.083765021
0.083818273
0.083115389
0.081372374
0.079344291
0.07807214
0.077541346
0.077246269
0.077190589
0.077279695
0.076958822
0.076533516
0.076455955
0.075896693
0.075557369
0.076068147
0.076071254
0.07469142
0.073444796
0.073226368
0.073902077
0.07504961
0.076108131
0.076817049
0.077257721
0.077530441
0.077574012
0.077495518
0.077432534
0.077417523
0.077444924
0.07748474
0.077517834
0.077536825
0.077545591
0.077548299
0.077548628
0.077548724
0.077549039
0.077549701
0.077550458
0.077550932
0.077551115
0.077551498
0.077552166
0.07755432
0.077558217
0.077561584
0.00024588773
0.00019246455
0.0012716905
0.0052517298
0.015541102
0.037610544
0.07973796
0.15386128
0.27636579
0.4679951
0.75166593
1.1464431
1.6584087
2.2758778
2.9745985
3.7283096
4.5161175
5.3237849
6.1417935
6.9636392
7.784634
8.6005904
9.4074261
10.201053
10.976781
11.729144
12.451495
13.136104
13.775666
14.355938
14.861075
15.273845
15.584041
15.780588
15.853565
15.802696
15.62179
15.301257
14.836523
14.219002
13.435363
12.466165
11.284998
9.8581954
8.1365399
5.9902472
3.2697013
0.98760941
0.20619553
0.11237776
0.096935261
0.090049974
0.088198508
0.088285801
0.088734825
0.089211396
0.089535071
0.089519852
0.08924734
0.088407322
0.087354388
0.086684078
0.085650966
0.083426023
0.082707267
0.08321451
0.083105664
0.081985249
0.08210171
0.084919086
0.090952448
0.093015762
0.092291522
0.089817277
0.086176357
0.082936503
0.081044887
0.080729382
0.080953475
0.081341479
0.08131387
0.081375427
0.08176724
0.08186393
0.081618957
0.081072197
0.080773364
0.081219977
0.082407378
0.08377615
0.083816926
0.08309498
0.081342518
0.079323954
0.078059888
0.077534926
0.077247879
0.077192631
0.077267221
0.076946574
0.076523997
0.076439798
0.075881046
0.075554831
0.076065411
0.076050349
0.074663051
0.073416285
0.073205418
0.073890405
0.075043423
0.076104615
0.07681543
0.077258116
0.077531578
0.077575059
0.077496589
0.077432767
0.077417559
0.077444913
0.077484713
0.077517521
0.077535937
0.07754478
0.07754783
0.077548491
0.077548791
0.077549427
0.077550005
0.077550632
0.077551064
0.077551255
0.077551613
0.077552761
0.07755528
0.077559161
0.077563107
0.00044282187
0.00025769548
0.0015794686
0.0065024872
0.019235743
0.046540035
0.098615551
0.19005373
0.34049929
0.57377536
0.91385502
1.3763507
1.9587593
2.6393071
3.3870248
4.1736973
4.9794898
5.7922891
6.6047634
7.4123629
8.2120746
9.0011282
9.776634
10.535476
11.273743
11.986533
12.667549
13.308585
13.899489
14.428292
14.881338
15.247752
15.515748
15.674219
15.713633
15.635697
15.427736
15.082663
14.593329
13.948656
13.132867
12.124248
10.895195
9.4121717
7.6244223
5.3804544
2.6430455
0.67986816
0.16061333
0.10737456
0.094336327
0.08907617
0.088070366
0.088354752
0.088818612
0.089293554
0.089540984
0.089496078
0.089181885
0.088272643
0.087276551
0.086664622
0.085546097
0.083257904
0.082784196
0.083361575
0.083156486
0.081958016
0.082208957
0.085418092
0.0914442
0.093076319
0.092240291
0.089656382
0.086013442
0.082876585
0.081064952
0.080799912
0.081046769
0.081412379
0.081366224
0.081441544
0.081848664
0.081926731
0.081671674
0.081132418
0.08082607
0.081260663
0.082429317
0.083784112
0.0838146
0.083074016
0.081313558
0.079303469
0.078046112
0.077528143
0.077250296
0.077194341
0.077253949
0.076933194
0.076513776
0.076423273
0.075864477
0.075552312
0.076062
0.076028219
0.074633127
0.073386007
0.073184163
0.073878848
0.075037243
0.076101255
0.076814059
0.07725872
0.077532705
0.077575983
0.077497323
0.07743268
0.077417336
0.077444725
0.07748452
0.077516766
0.077535114
0.077544146
0.077547538
0.077548444
0.077549052
0.077549781
0.077550249
0.077550784
0.0775512
0.077551386
0.07755182
0.077553532
0.077556272
0.077560223
0.00055705797
0.00030597889
0.0018413788
0.0075746957
0.022405862
0.054205397
0.11482672
0.2211312
0.39550794
0.66423883
1.0518242
1.5705906
2.2110492
2.9440907
3.7343433
4.5524539
5.3792078
6.2035774
7.0192589
7.8225562
8.6111492
9.3828462
10.135266
10.865756
11.570869
12.246227
12.886207
13.483674
14.029754
14.513694
14.923187
15.245483
15.46894
15.58676
15.591025
15.483177
15.246824
14.877163
14.365793
13.700503
12.864524
11.835698
10.587401
9.0876817
7.2828896
4.9978427
2.2914809
0.54537466
0.14535275
0.10498426
0.09324568
0.088825016
0.088108483
0.088425037
0.088882661
0.089338593
0.089536518
0.089478732
0.089111633
0.088157913
0.087228029
0.08665
0.085435076
0.083123068
0.082866953
0.08350727
0.083189672
0.081937269
0.08233249
0.085932992
0.091881746
0.093123778
0.092180641
0.089500653
0.085862636
0.082831817
0.081107928
0.080874857
0.081139946
0.081482462
0.081423216
0.081515396
0.081932337
0.08199319
0.081728388
0.081192877
0.080875538
0.081295911
0.082448757
0.08379051
0.083809979
0.083052184
0.081286008
0.079283338
0.078031526
0.077521467
0.077252984
0.077195413
0.077240142
0.076918641
0.076502872
0.076406503
0.075847115
0.07554974
0.076058349
0.076004523
0.074601729
0.073354047
0.073162807
0.073867543
0.075031364
0.076098167
0.076812938
0.077259447
0.077533664
0.077576665
0.077497864
0.077432248
0.077417059
0.077444475
0.077484086
0.077515808
0.077534451
0.07754371
0.077547388
0.077548436
0.077549416
0.077550074
0.077550448
0.077550924
0.077551339
0.077551494
0.077552222
0.077554425
0.077557267
0.077561692
0.00088068044
0.00039858205
0.0022304328
0.0091451772
0.027043871
0.065416126
0.13850617
0.26637224
0.47498605
0.79311838
1.2440265
1.8330361
2.5398204
3.3262004
4.1530016
4.991356
5.8243712
6.6435886
7.4449509
8.2265945
8.9876491
9.7270816
10.443473
11.135003
11.798986
12.431754
13.028386
13.582467
14.086208
14.53075
14.907106
15.203441
15.40674
15.505219
15.489979
15.361258
15.107517
14.722198
14.194946
13.511782
12.654294
11.598948
10.318298
8.7793207
6.9250005
4.5642172
1.9024779
0.41220512
0.13143882
0.10174258
0.0915461
0.088285258
0.088034966
0.08849213
0.088957601
0.089400198
0.089546739
0.089463329
0.089053412
0.088063238
0.087204531
0.086653221
0.085328692
0.083021133
0.082941635
0.083647431
0.083200303
0.081920822
0.082471906
0.086447913
0.092252956
0.093158807
0.092113024
0.089347834
0.085720299
0.082794063
0.081160775
0.080954673
0.081233758
0.081555074
0.081488005
0.08159551
0.082016798
0.082062894
0.081788946
0.081251174
0.080919806
0.081325242
0.082467734
0.083796705
0.083803922
0.083029285
0.081259181
0.079262784
0.07801626
0.077515102
0.077256006
0.077195805
0.077225776
0.076903066
0.076491297
0.076389405
0.075829351
0.075547058
0.076054766
0.07597931
0.074569016
0.07332062
0.07314142
0.073856616
0.075025886
0.076095353
0.076812018
0.077260123
0.077534471
0.077577116
0.077498106
0.077431651
0.077416693
0.077444027
0.077483218
0.077514884
0.077533976
0.077543451
0.077547332
0.077548501
0.077549765
0.077550309
0.077550615
0.077551059
0.077551466
0.077551609
0.077552835
0.077555384
0.077558236
0.077563212
0.0010747532
0.00046375103
0.0025407214
0.010407403
0.030774991
0.074436364
0.15755195
0.30270929
0.53861553
0.89570219
1.395783
2.0385348
2.7958873
3.6239022
4.4814371
5.3402441
6.1849439
7.0085609
7.8082516
8.5831131
9.3330578
10.057731
10.756326
11.427566
12.069233
12.67805
13.249376
13.776954
14.252925
14.667954
15.011684
15.273463
15.442906
15.509935
15.468449
15.313256
15.035571
14.626385
14.074602
13.366598
12.484782
11.406729
10.105672
8.5463433
6.6649954
4.2583192
1.656584
0.34436298
0.12516137
0.10001083
0.090837486
0.088237257
0.088142444
0.088590261
0.089028218
0.08944252
0.089554578
0.089464602
0.089007425
0.087993664
0.087197701
0.086660509
0.085215879
0.082948808
0.083015231
0.083785195
0.083194677
0.081913521
0.082630222
0.086955984
0.092569446
0.093191168
0.092043595
0.089206562
0.085594609
0.082762921
0.081211296
0.081034084
0.081326587
0.081634786
0.081559723
0.081677317
0.082098613
0.082133737
0.081852838
0.081304014
0.080956266
0.081346937
0.082484628
0.083801805
0.08379807
0.083006911
0.081233778
0.079241948
0.078000752
0.077508954
0.077259191
0.077194588
0.077210683
0.076886618
0.076479003
0.076371659
0.075811445
0.075544336
0.076051298
0.075952782
0.074534854
0.07328619
0.073120154
0.073846127
0.075020794
0.076092834
0.076811162
0.077260712
0.077535088
0.077577346
0.077498182
0.077430818
0.077416291
0.077443205
0.077482152
0.077514119
0.077533679
0.077543323
0.07754732
0.077548776
0.077550065
0.077550503
0.077550763
0.077551197
0.077551571
0.077551828
0.077553618
0.077556371
0.077559177
0.0015091532
0.00058152472
0.0030107216
0.012298748
0.036360728
0.087934299
0.18601539
0.35682257
0.63266057
1.0453035
1.6127053
2.324875
3.1426597
4.0153981
4.9008321
5.7728041
6.6188531
7.4346582
8.2195308
8.974284
9.700195
10.397985
11.06768
11.708628
12.319099
12.896201
13.435619
13.931417
14.376046
14.760532
15.074969
15.309292
15.454095
15.501209
15.445987
15.276957
14.982202
14.554407
13.983904
13.256815
12.354718
11.25447
9.9286546
8.340116
6.420687
3.9587447
1.4243252
0.28615905
0.11942404
0.097754998
0.089876279
0.087996677
0.088119337
0.088647653
0.089091077
0.089500384
0.089582804
0.089458365
0.088960854
0.087932225
0.087205432
0.086671792
0.085097073
0.082892488
0.083101457
0.083917724
0.083167292
0.081911029
0.082806808
0.087445253
0.092826839
0.093224205
0.091978102
0.089080398
0.085488344
0.082741537
0.0812603
0.08110963
0.081415669
0.081718678
0.081634825
0.081757721
0.082177914
0.082206275
0.081919122
0.081348357
0.080983086
0.081361291
0.082498675
0.083804765
0.083790999
0.082985376
0.081209729
0.079220492
0.07798497
0.077503229
0.07726241
0.077192649
0.077194656
0.076868956
0.07646621
0.076353077
0.075793362
0.075541725
0.076047336
0.075924971
0.074498997
0.073251027
0.073099114
0.073836041
0.075015883
0.076090454
0.076810197
0.077261077
0.077535501
0.077577336
0.07749806
0.077429915
0.077415647
0.077442096
0.077481156
0.077513554
0.077533517
0.077543273
0.077547379
0.077549169
0.077550316
0.077550667
0.077550899
0.077551338
0.077551696
0.077552249
0.077554515
0.077557358
0.07756023
0.0017732692
0.00065974797
0.0033493876
0.013669262
0.04041248
0.097730171
0.20666673
0.39602191
0.70053133
1.1525871
1.7670104
2.5270923
3.3867899
4.2918392
5.1998244
6.0860814
6.9398817
7.7583164
8.541732
9.2916655
10.009882
10.697465
11.35472
11.981239
12.57552
13.134888
13.655251
14.130876
14.554418
14.917112
15.209216
15.420722
15.541933
15.563106
15.481779
15.285951
14.967785
14.518472
13.928307
13.182317
12.261372
11.142186
9.7968748
8.1856934
6.235751
3.7300358
1.2605322
0.25152362
0.11617429
0.096550494
0.089481657
0.088029984
0.088240767
0.088752998
0.089168672
0.089544511
0.0895939
0.089463251
0.088929579
0.08789194
0.087214007
0.086680978
0.08498807
0.082856542
0.08320928
0.084036158
0.083141901
0.081936732
0.082994501
0.087914806
0.093049142
0.093266929
0.09191625
0.088966129
0.085398503
0.082731143
0.081312399
0.081185198
0.081505969
0.081805376
0.081711859
0.081837402
0.082257154
0.082283685
0.081983598
0.081380942
0.080999653
0.081369274
0.082510586
0.083805686
0.083781857
0.082964944
0.081187364
0.079199021
0.077969179
0.077497973
0.077265359
0.077189981
0.077177789
0.07684998
0.076453198
0.076333607
0.075775118
0.075539453
0.076042307
0.075895814
0.074461407
0.073215272
0.073078376
0.073826344
0.07501114
0.076088045
0.076809046
0.077261259
0.077535839
0.077577202
0.077497822
0.077428745
0.077414566
0.077440997
0.077480352
0.077513183
0.077533441
0.077543264
0.077547653
0.077549543
0.077550525
0.077550812
0.077551033
0.077551466
0.077551944
0.077552879
0.077555473
0.077558316
0.077561695
0.0022721658
0.00079128217
0.0038594273
0.015718684
0.04646639
0.11235894
0.23746429
0.4542828
0.8007092
1.3090885
1.9884334
2.8116658
3.7233533
4.6651452
5.5952158
6.4914711
7.345907
8.1578563
8.9293669
9.6632696
10.362307
11.028322
11.662246
12.264172
12.833022
13.366487
13.860788
14.310524
14.708667
15.046761
15.315352
15.504626
15.605055
15.606866
15.507158
15.29359
14.960461
14.49892
13.894699
13.133501
12.196636
11.060742
9.6969052
8.0622947
6.0796957
3.5289961
1.1211377
0.2241375
0.11295778
0.095014492
0.088962597
0.087941824
0.08825872
0.088800543
0.089218337
0.089586404
0.08962156
0.089463978
0.088900419
0.087865721
0.087242664
0.086701592
0.084878645
0.082827949
0.083325588
0.084144928
0.083106043
0.08196698
0.083197763
0.08836687
0.093227148
0.093310744
0.091857173
0.088858611
0.085315499
0.082726627
0.081365865
0.0812623
0.081601635
0.081892816
0.081789281
0.081919481
0.08234131
0.082369839
0.082040541
0.081398882
0.081006521
0.08137214
0.082522289
0.083803332
0.083771019
0.082945409
0.081165885
0.079177115
0.077953876
0.077493299
0.077267629
0.077185335
0.077159735
0.076830453
0.076440094
0.076313162
0.075756905
0.075537489
0.076036094
0.075865387
0.074421851
0.073178933
0.073057981
0.073816884
0.075006462
0.076085459
0.076807654
0.077261241
0.077536019
0.077576814
0.077497304
0.077427207
0.077413195
0.077440057
0.07747977
0.077512964
0.077533415
0.077543377
0.077548047
0.077549852
0.077550702
0.077550947
0.077551171
0.077551573
0.077552395
0.077553672
0.077556455
0.077559246
0.077563209
0.0026068515
0.00088271261
0.0042271232
0.01720021
0.050845213
0.1229398
0.25971756
0.4962609
0.87249416
1.420302
2.1442418
3.0101512
3.9568308
4.9239026
5.8703531
6.7758868
7.634217
8.4460182
9.2143232
9.9426774
10.634353
11.291585
11.915589
12.506656
13.063827
13.584829
14.065855
14.501391
14.8843
15.20601
15.457062
15.627784
15.708924
15.692317
15.572883
15.340447
14.988083
14.506945
13.886283
13.109833
12.158456
11.007859
9.6258146
7.967306
5.9517175
3.3596799
1.0119453
0.20545494
0.11092759
0.094189131
0.08876081
0.088005171
0.088374019
0.088902008
0.08929944
0.089637226
0.089649745
0.089483588
0.088890564
0.087857682
0.087275867
0.086718612
0.08477685
0.082816484
0.083457227
0.084244175
0.083071029
0.082013608
0.083404081
0.088788045
0.093381131
0.093359106
0.091800113
0.088757343
0.085238246
0.082726663
0.081418104
0.081339967
0.081701827
0.081979532
0.081866672
0.082006563
0.082433505
0.082461708
0.082083384
0.081404279
0.081007133
0.081369914
0.082533241
0.083802464
0.083759735
0.082926317
0.081144779
0.079154762
0.077939371
0.077489378
0.077269213
0.077178756
0.077140181
0.07681088
0.076426893
0.076291694
0.075738921
0.075535797
0.076029328
0.075833713
0.074380111
0.073142148
0.073037946
0.073807648
0.075001792
0.076082665
0.076806163
0.077261206
0.077535989
0.077576157
0.07749636
0.077425432
0.07741187
0.077439323
0.077479386
0.077512844
0.077533482
0.077543714
0.077548419
0.077550099
0.077550855
0.07755108
0.077551311
0.077551702
0.077553041
0.07755457
0.077557435
0.077560296
0.0031824814
0.0010333296
0.0048065175
0.019527296
0.057720115
0.13954097
0.29457895
0.56180296
0.98387026
1.5911509
2.3804984
3.3068185
4.3009231
5.3002629
6.2655855
7.1795296
8.038484
8.8451789
9.6041378
10.319976
10.996719
11.637135
12.242813
12.814293
13.35078
13.850115
14.308589
14.720833
15.079947
15.377623
15.604758
15.752104
15.81079
15.774172
15.635352
15.385758
15.018177
14.523297
13.889245
13.1023
12.142859
10.982866
9.5822787
7.8981769
5.8459331
3.2093613
0.9170924
0.18998179
0.10869182
0.093130363
0.088482453
0.087996371
0.088417136
0.088954139
0.089352002
0.089680559
0.089691952
0.0894997
0.088877749
0.087852819
0.087312572
0.086738379
0.084671961
0.082811587
0.083596279
0.084337464
0.083033336
0.082059604
0.083610873
0.089180375
0.093505011
0.093396243
0.091743634
0.088666014
0.085170269
0.082726899
0.08146746
0.081414275
0.081802595
0.082063301
0.081945483
0.082102288
0.082536631
0.082544812
0.082105262
0.081392966
0.080993602
0.08135897
0.082542284
0.08380394
0.083749813
0.08290751
0.081122611
0.079131361
0.077925711
0.077486041
0.077269908
0.077170396
0.077119314
0.076791392
0.076413652
0.076269041
0.07572138
0.075534179
0.076022215
0.075800575
0.07433593
0.073104971
0.073018235
0.073798506
0.074997083
0.076079644
0.076804614
0.077260925
0.077535643
0.07757502
0.077495137
0.077423759
0.077410727
0.077438789
0.077479146
0.077512784
0.077533784
0.077544109
0.077548721
0.077550299
0.077550994
0.077551217
0.077551438
0.077551957
0.077553841
0.077555521
0.077558386
0.077561759
0.0035912326
0.001141256
0.0052257669
0.021213357
0.062704248
0.15157787
0.31983147
0.60914149
1.0638509
1.7128036
2.5471102
3.5143503
4.5405936
5.5624829
6.5422305
7.4644481
8.3271949
9.1344092
9.8914421
10.603459
11.274828
11.90851
12.506171
13.068343
13.594159
14.081367
14.526177
14.923212
15.265648
15.545518
15.754167
15.88296
15.923603
15.870836
15.716884
15.454518
15.076491
14.573296
13.93237
13.136806
12.163826
10.984257
9.5675264
7.856142
5.7650892
3.0836808
0.84173701
0.17914321
0.10731664
0.092585621
0.088403339
0.088071821
0.088523717
0.08905324
0.089431642
0.089733489
0.089725386
0.089523293
0.088884052
0.087867411
0.087354008
0.086760705
0.084587979
0.082829645
0.083731546
0.084417073
0.082998035
0.082114132
0.083813379
0.089538701
0.093622493
0.093431195
0.091691903
0.08858397
0.085111198
0.082739509
0.081521833
0.081487472
0.081901497
0.082145757
0.082029046
0.082208563
0.082640955
0.082607018
0.082110129
0.081368291
0.080977143
0.081345587
0.082549346
0.083805788
0.083741146
0.082889553
0.081099686
0.079107259
0.077913102
0.077483374
0.077269768
0.077160237
0.077097061
0.076772
0.076400616
0.076245176
0.075704432
0.075532521
0.076014735
0.075765831
0.074289216
0.073067523
0.07299879
0.073789437
0.074992288
0.076076344
0.076802989
0.0772604
0.077534958
0.07757368
0.077493911
0.077422329
0.077409807
0.077438412
0.077478996
0.077512775
0.077534156
0.07754445
0.07754896
0.077550467
0.07755113
0.077551356
0.077551542
0.077552415
0.077554739
0.077556492
0.077559307
0.077563267
0.0042326966
0.0013100125
0.0058789008
0.023837818
0.07045529
0.17027246
0.35895895
0.6821748
1.1863824
1.8973286
2.7968553
3.8216279
4.891247
5.9416883
6.9376841
7.8669252
8.7300114
9.5327044
10.281591
10.982658
11.640806
12.259323
12.840079
13.383729
13.889515
14.355323
14.77759
15.151286
15.470095
15.726719
15.913317
16.02197
16.044807
15.977537
15.811545
15.540166
15.155525
14.647173
14.001259
13.199394
12.217225
11.023541
9.5800871
7.8370472
5.705822
2.9796141
0.77900901
0.17021371
0.10570943
0.091858087
0.088257376
0.088097474
0.088575947
0.089103596
0.089480454
0.089770139
0.089763188
0.089545269
0.088877583
0.087874944
0.087394145
0.086777282
0.084492225
0.082837079
0.083867712
0.084494017
0.08296136
0.082171746
0.084017161
0.089875855
0.093722507
0.093457725
0.091644156
0.088511447
0.085061039
0.082761901
0.081584757
0.081564237
0.082002143
0.082231956
0.082119438
0.082316542
0.08272302
0.08264266
0.082092261
0.081336435
0.080953523
0.081330071
0.082557041
0.08380824
0.08373357
0.082871002
0.08107515
0.079082927
0.077901309
0.077480972
0.077268057
0.077148257
0.077073531
0.076752888
0.076387744
0.076220327
0.075688258
0.075530858
0.076006554
0.075729309
0.074239999
0.073029988
0.072979554
0.073780361
0.074987368
0.07607282
0.076801142
0.077259589
0.077534014
0.077572416
0.077492803
0.077421176
0.077409088
0.077438138
0.077478915
0.077513005
0.077534489
0.077544718
0.077549152
0.077550615
0.07755127
0.077551479
0.07755167
0.077553069
0.077555688
0.077557459
0.077560355
0.0046909189
0.0014289048
0.0063322458
0.025658303
0.075833371
0.18324203
0.38606767
0.73260342
1.2704716
2.0228608
2.9651269
4.0270008
5.1245605
6.1939719
7.2017969
8.1376363
9.0035318
9.806218
10.552888
11.24989
11.902334
12.513619
13.085677
13.619225
14.113598
14.566853
14.975701
15.335508
15.64047
15.883844
16.058314
16.156458
16.170732
16.096856
15.925857
15.650762
15.26278
14.750354
14.098326
13.286873
12.290307
11.07654
9.6073783
7.8314661
5.6606287
2.8938557
0.73011618
0.16400272
0.10477483
0.091502013
0.088236226
0.088166755
0.088668895
0.089193498
0.089555551
0.089825005
0.089802658
0.08957624
0.088894757
0.087899863
0.087435559
0.086795844
0.084419264
0.082867684
0.084001386
0.084561539
0.082932096
0.082233478
0.084214127
0.090181766
0.093822388
0.093493285
0.091613387
0.088458038
0.085025123
0.08279005
0.081654637
0.081649662
0.082111693
0.082326161
0.082207061
0.082402064
0.082770858
0.082655309
0.082067726
0.081300916
0.080926508
0.081313887
0.08256664
0.083811793
0.083727696
0.082851654
0.081048999
0.07905965
0.077891009
0.077478706
0.077264306
0.077134076
0.077048766
0.076734372
0.076375246
0.076194373
0.075672927
0.07552936
0.07599744
0.075690867
0.074188383
0.07299256
0.072960404
0.073771269
0.074982293
0.076069058
0.076799058
0.077258694
0.077533181
0.077571458
0.077491787
0.077420254
0.077408521
0.077437937
0.077478902
0.077513339
0.077534756
0.077544926
0.077549313
0.077550752
0.07755141
0.077551581
0.077551928
0.077553874
0.077556655
0.077558394
0.077561818
0.0053466245
0.0016011829
0.006997995
0.028334059
0.08373568
0.20228322
0.42579641
0.80624341
1.392507
2.2034675
3.2047691
4.31643
5.4499071
6.5418303
7.5614753
8.5012646
9.3654035
10.162112
10.899575
11.584799
12.223339
12.818932
13.373815
13.889016
14.364242
14.798001
15.187535
15.528795
15.816556
16.044612
16.206168
16.294177
16.301084
16.222202
16.048028
15.770904
15.380947
14.865389
14.207777
13.387053
12.376516
11.143365
9.6489774
7.8418861
5.6341838
2.8281671
0.6917673
0.15904387
0.10363456
0.091017421
0.088165887
0.088207657
0.088724431
0.089245506
0.089607208
0.089867554
0.089845536
0.089604248
0.08889702
0.087919321
0.087481035
0.086816153
0.084344593
0.082899174
0.084140108
0.08463218
0.082910832
0.082303743
0.084421113
0.090477825
0.093918388
0.093533201
0.091596546
0.088422196
0.085008073
0.082827926
0.0817321
0.081743345
0.082229355
0.082416715
0.082270092
0.082451878
0.08279075
0.082655601
0.082031334
0.081263504
0.08089849
0.081298824
0.082579756
0.083815965
0.083723278
0.08283153
0.081020315
0.079036968
0.077881918
0.077476762
0.077259226
0.077117639
0.077022898
0.076716246
0.076363342
0.076167448
0.075658312
0.075528283
0.075987114
0.075650306
0.074134531
0.072955487
0.07294116
0.073762164
0.074977048
0.07606506
0.076796799
0.077257722
0.077532474
0.077570766
0.077490947
0.077419439
0.077408054
0.077437834
0.077479161
0.077513644
0.077534967
0.077545093
0.077549455
0.077550887
0.077551534
0.077551715
0.077552394
0.077554776