/*--------------------------------*- C++ -*----------------------------------*\
| =========                 |                                                 |
| \\      /  F ield         | OpenFOAM: The Open Source CFD Toolbox           |
|  \\    /   O peration     | Version:  2506                                  |
|   \\  /    A nd           | Website:  www.openfoam.com                      |
|    \\/     M anipulation  |                                                 |
\*---------------------------------------------------------------------------*/
FoamFile
{
    version     2.0;
    format      ascii;
    arch        "LSB;label=32;scalar=64";
    class       volVectorField;
    location    "0.0075";
    object      wallShearStress;
}
// * * * * * * * * * * * * * * * * * * * * * * * * * * * * * * * * * * * * * //

dimensions      [1 -1 -2 0 0 0 0];

internalField   uniform (0 0 0);

boundaryField
{
    Side
    {
        type            empty;
    }
    Inlet
    {
        type            calculated;
        value           uniform (0 0 0);
    }
    Airfoil
    {
        type            calculated;
        value           nonuniform List<vector> 
145
(
(-0.043705486 -1.2977531 3.578646e-17)
(-0.0062105251 0.25415377 -7.3216746e-38)
(-0.046842507 1.4441699 -2.4380529e-24)
(-0.1315662 2.1148924 -3.7615819e-37)
(-0.28432808 3.1088713 1.7885177e-17)
(-0.49242976 4.0663768 -1.0913864e-21)
(-0.76495071 5.0836681 -3.5733311e-17)
(-1.078601 5.9917814 -1.0880178e-21)
(-1.4383204 6.8630755 -3.5675033e-17)
(-1.832192 7.6592845 -3.5644917e-17)
(-2.2601243 8.4041067 3.0264113e-24)
(-2.714246 9.0849226 4.3407236e-21)
(-3.1889121 9.7003875 -7.1025899e-17)
(-3.6774728 10.246591 -7.0918578e-17)
(-4.1754394 10.726404 -1.4160614e-16)
(-4.6726394 11.128225 -4.3180603e-21)
(-5.1592589 11.446593 -7.0550832e-17)
(-5.6335894 11.710033 -4.2731398e-21)
(-6.1000106 11.933131 4.3130756e-21)
(-6.5561877 12.115498 -7.0104792e-17)
(-6.9970445 12.254752 4.2717995e-21)
(-7.425713 12.362665 1.5585057e-33)
(-7.841522 12.442697 4.2409622e-21)
(-8.2518486 12.509787 -4.2366333e-21)
(-8.6546334 12.562651 0)
(-9.0582512 12.614741 -1.3785056e-16)
(-9.4579638 12.659794 -1.3741086e-16)
(-9.8628867 12.710323 8.3087605e-21)
(-10.265745 12.756724 1.3647902e-16)
(-10.671281 12.805048 -2.4074124e-35)
(-11.072992 12.847596 5.2221394e-37)
(-11.47055 12.884502 -3.8440617e-37)
(-11.859106 12.91098 1.348151e-33)
(-12.236229 12.925028 1.340306e-16)
(-12.59669 12.921425 -2.4074124e-35)
(-12.939945 12.902587 3.2988206e-23)
(-13.266649 12.870488 0)
(-13.577634 12.826866 1.3199748e-16)
(-13.872538 12.772157 4.0101755e-21)
(-14.150367 12.70616 -3.9995267e-21)
(-14.414056 12.632173 8.9809767e-33)
(-14.661486 12.548857 -2.4074124e-35)
(-14.895477 12.459036 -1.2945165e-16)
(-15.116031 12.363151 -1.2893393e-16)
(-15.323129 12.261377 -4.030343e-24)
(-15.518367 12.155356 -1.2794423e-16)
(-15.70218 12.04551 -1.274336e-16)
(-15.874366 11.931915 3.8721795e-21)
(-16.036024 11.815449 -3.8606232e-21)
(-16.187887 11.696824 3.5739495e-33)
(-16.329722 11.575844 1.0167481e-37)
(-16.462024 11.453009 7.1849e-24)
(-16.584548 11.328103 -3.7979013e-21)
(-16.699528 11.202871 -1.2401276e-16)
(-16.805448 11.076514 -2.4707637e-16)
(-16.906616 10.951932 -1.2037062e-35)
(-16.999477 10.826649 -1.2258926e-16)
(-17.088358 10.703378 1.2211857e-16)
(-17.169397 10.579585 2.4570717e-24)
(-17.247572 10.458215 3.6977711e-21)
(-17.318182 10.336392 -3.6864063e-21)
(-17.386312 10.216959 -3.6690085e-21)
(-17.446816 10.096817 1.9956917e-24)
(-17.508565 9.9812757 1.1938069e-16)
(-17.557086 9.8615123 -1.1891821e-16)
(-17.612359 9.7489951 -2.3692373e-16)
(-17.653227 9.6318137 3.6004253e-21)
(-17.700396 9.5212499 -3.588264e-21)
(-17.734937 9.4069725 -1.170995e-16)
(-17.774493 9.2983311 1.1665185e-16)
(-17.803008 9.1867912 1.1619741e-16)
(-17.83561 9.080145 -3.5320796e-21)
(-17.858352 8.9711846 1.1529823e-16)
(-17.883668 8.8661325 -1.148501e-16)
(-17.900432 8.7593871 -1.1440229e-16)
(-17.9177 8.6555308 -1.1395615e-16)
(-17.931869 8.5533728 -2.2702001e-16)
(-17.948218 8.4547621 3.4499464e-21)
(-17.961871 8.3572002 -1.0555036e-24)
(-17.974054 8.2611816 -1.1218223e-16)
(-17.986258 8.1673197 3.4094433e-21)
(-17.994198 8.0735867 -3.3968839e-21)
(-18.005388 7.9833157 1.1085667e-16)
(-18.010743 7.8923603 -6.7390954e-21)
(-18.020999 7.8054033 3.3566152e-21)
(-18.02407 7.717109 1.4767148e-37)
(-18.032501 7.6328331 -3.3290275e-21)
(-18.035387 7.5478549 -1.0865785e-16)
(-18.04302 7.4664481 2.1645214e-16)
(-18.045895 7.3846001 3.2891278e-21)
(-18.053921 7.3063237 -7.1498164e-25)
(-18.058087 7.2278934 -3.2636357e-21)
(-18.068117 7.1531485 1.064874e-16)
(-18.075936 7.078807 1.0605397e-16)
(-18.091436 7.0086802 -3.298155e-33)
(-18.107042 6.9397162 -1.0517451e-16)
(-18.135136 6.8764982 0)
(-18.173362 6.8180445 2.0859426e-16)
(-18.254531 6.7761715 1.038667e-16)
(-18.382712 6.7523265 -1.0344798e-16)
(-18.41144 6.6600273 -1.8695752e-24)
(-18.231411 6.4704857 0)
(-18.02206 6.2842678 -1.0216324e-16)
(-17.833079 6.1179202 -1.017557e-16)
(-17.655438 5.9669685 -2.0269268e-16)
(-17.485521 5.8290651 6.1611301e-21)
(-17.337139 5.7078263 -6.1368107e-21)
(-17.196785 5.5979096 3.0560607e-21)
(-17.076975 5.5026493 -3.6734198e-40)
(-16.96704 5.4179646 -1.5148373e-21)
(-16.877187 5.3465608 -2.9778088e-25)
(-16.7983 5.285103 1.5042234e-21)
(-16.742101 5.2368882 1.9640193e-16)
(-16.698174 5.1983581 1.4925738e-21)
(-16.682525 5.1742648 -1.9484332e-16)
(-16.682235 5.1604415 1.4804002e-21)
(-16.717145 5.1628908 9.6609528e-17)
(-16.765888 5.1750989 1.4683427e-21)
(-16.850639 5.2038274 -1.4623037e-21)
(-17.02335 5.2654792 1.4564033e-21)
(-17.213552 5.3384424 9.50337e-17)
(-17.555563 5.4653001 -1.4434274e-21)
(-17.86275 5.5877138 -9.4205728e-17)
(-18.747196 5.9014908 0)
(-18.340484 5.8110353 -1.8670746e-16)
(-24.434625 7.8070414 -5.6006122e-24)
(-19.907618 5.0631886 4.9149697e-17)
(-13.371825 3.4067215 9.6932932e-17)
(-15.28584 3.9187289 1.910658e-16)
(-15.729876 4.0595748 9.4123171e-17)
(-15.885899 4.121308 -6.0185311e-36)
(-16.033207 4.1773162 -1.3939396e-21)
(-16.151519 4.2221681 1.3727259e-21)
(-16.27199 4.2636866 -2.5302352e-24)
(-16.386367 4.2993654 8.729121e-17)
(-16.516661 4.3347119 -1.3141208e-21)
(-16.624753 4.3593908 8.4673614e-17)
(-16.734379 4.3793039 1.2725089e-21)
(-16.834786 4.3913935 8.2158243e-17)
(-16.929954 4.3964697 -1.6187328e-16)
(-17.013792 4.3927743 7.9736407e-17)
(-17.09306 4.3819448 2.397511e-21)
(-17.15656 4.3610433 -1.1813941e-21)
(-17.211759 4.3320144 1.525752e-16)
(-17.244384 4.2913446 -3.5328777e-33)
)
;
    }
    Outlet
    {
        type            calculated;
        value           nonuniform List<vector> 0();
    }
    procBoundary1to0
    {
        type            processor;
        value           uniform (0 0 0);
    }
    procBoundary1to2
    {
        type            processor;
        value           uniform (0 0 0);
    }
    procBoundary1to8
    {
        type            processor;
        value           uniform (0 0 0);
    }
}


// ************************************************************************* //
