/*--------------------------------*- C++ -*----------------------------------*\
| =========                 |                                                 |
| \\      /  F ield         | OpenFOAM: The Open Source CFD Toolbox           |
|  \\    /   O peration     | Version:  2506                                  |
|   \\  /    A nd           | Website:  www.openfoam.com                      |
|    \\/     M anipulation  |                                                 |
\*---------------------------------------------------------------------------*/
FoamFile
{
    version     2.0;
    format      ascii;
    arch        "LSB;label=32;scalar=64";
    class       volScalarField;
    location    "2.45";
    object      k;
}
// * * * * * * * * * * * * * * * * * * * * * * * * * * * * * * * * * * * * * //

dimensions      [0 2 -2 0 0 0 0];

internalField   nonuniform List<scalar> 
1376
(
2.3106407
2.632225
2.8570846
2.9989295
1.9428433
2.295874
2.616951
2.8401821
2.9799541
3.05565
3.0882494
3.097027
3.0968634
3.0907783
3.0866272
1.9250168
2.2797603
2.6003654
2.8221811
2.960194
3.0342897
3.065815
3.0741365
3.0738942
3.0680897
3.0642572
3.0626217
3.062398
3.0646084
3.0687134
3.0735074
1.9069246
2.2631469
2.5830506
2.8034913
2.9399271
3.0126487
3.0433135
3.0513245
3.0510867
3.0456377
3.042134
3.0407367
3.0406429
3.0431744
3.0472984
3.0520768
3.0574651
3.0633574
3.0696814
3.0763989
1.8904937
2.2475244
2.5662065
2.7850358
2.919809
2.9911568
3.0210032
3.0287417
3.0285336
3.0234546
3.0202758
3.0191121
3.0191614
3.0219902
3.0261225
3.0308838
3.03623
3.0420585
3.0483043
3.0549336
3.0619335
3.0693074
3.0770697
3.0852426
3.0938551
1.8777001
2.2344487
2.5512382
2.7679604
2.9006769
2.9703715
2.9992163
3.0065842
3.0063598
3.0015896
2.998713
2.9977353
2.9979761
3.0010504
3.0051844
3.0099272
3.0152283
3.0209896
3.0271529
3.0336891
3.0405877
3.0478517
3.0554962
3.0635443
3.0720255
3.080974
3.0904315
3.1004429
3.1110602
1.8692467
2.2246894
2.5390713
2.7531106
2.8831854
2.9507409
2.9782299
2.9850476
2.984658
2.9800913
2.9774653
2.976625
2.9770887
2.9803486
2.984479
2.9891993
2.9944513
3.0001422
3.0062195
3.0126589
3.0194529
3.0266055
3.0341314
3.0420526
3.0503993
3.0592076
3.0685156
3.0783654
3.088808
3.0999006
3.1117077
3.124305
3.1377823
1.8637776
2.2176426
2.5296023
2.7406117
2.8675195
2.9324216
2.9581653
2.964256
2.9634486
2.9589872
2.9565456
2.9558035
2.9564937
2.9598827
2.9640023
2.9686932
2.9738901
2.9795054
2.9854924
2.9918302
2.9985144
3.0055507
3.012954
3.0207465
3.0289573
3.0376231
3.0467813
3.0564711
3.0667392
3.0776416
3.0892463
3.1016276
3.1148717
3.1290804
3.1443614
3.160863
1.8592851
2.2119916
2.5219151
2.7298812
2.8533434
2.9152308
2.938946
2.9441872
2.9426964
2.9382734
2.9359539
2.9352818
2.9361825
2.9396542
2.9437542
2.9484075
2.953543
2.9590779
2.9649702
2.9712025
2.9777724
2.9846883
2.9919663
2.999628
3.0077013
3.0162209
3.0252233
3.0347486
3.0448421
3.0555569
3.0669606
3.0791276
3.0921396
3.1060884
3.1210875
3.1372873
3.1548403
3.1739517
3.194857
1.8544511
2.2066428
2.5149586
2.7200198
2.8399893
2.8987313
2.9203193
2.9246671
2.9223305
2.9179123
2.9156713
2.9150513
2.9161397
2.9196579
2.9237284
2.9283362
2.9334049
2.938856
2.9446515
2.950777
2.9572326
2.9640275
2.9711783
2.9787065
2.9866386
2.9950087
3.0038531
3.0132128
3.0231313
3.0336579
3.0448579
3.0568032
3.0695731
3.0832611
3.0979769
3.11386
3.1310671
3.1497958
3.1702662
3.1927265
3.2174042
3.2444495
1.8484654
2.2007204
2.5077672
2.7100997
2.8266983
2.8823916
2.9019458
2.9054416
2.9022592
2.8978467
2.8956659
2.8950901
2.8963476
2.8998821
2.9039114
2.9084634
2.9134566
2.9188164
2.9245095
2.9305246
2.936864
2.9435387
2.9505646
2.9579626
2.9657585
2.9739838
2.9826736
2.9918668
3.0016054
3.0119426
3.0229399
3.0346624
3.0471897
3.0606096
3.0750322
3.0905953
3.1074513
3.1257826
3.1458122
3.1677647
3.1918461
3.2181739
3.2467557
3.2775922
3.3114047
1.8408907
2.193622
2.499638
2.6994278
2.8128823
2.8657829
2.8835305
2.8862832
2.8823956
2.8780222
2.8759088
2.8753798
2.8768013
2.8803277
2.8843057
2.8887936
2.8937049
2.8989697
2.9045586
2.9104633
2.9166868
2.9232388
2.9301347
2.9373959
2.9450489
2.953124
2.9616541
2.9706789
2.9802434
2.9903932
3.001187
3.0126917
3.0249753
3.0381268
3.0522576
3.0674976
3.0839964
3.1019345
3.1215228
3.1429562
3.166428
3.1920319
3.2197533
3.2495924
3.2823472
3.3225476
3.3913383
1.8318505
2.1853258
2.4903318
2.6876939
2.7982478
2.8486764
2.8649005
2.8670552
2.8626773
2.8583977
2.8563771
2.8559064
2.8575013
2.8610014
2.8649224
2.8693409
2.8741657
2.8793321
2.8848134
2.8906024
2.8967029
2.9031251
2.909886
2.9170093
2.9245202
2.9324439
2.9408107
2.9496591
2.9590342
2.9689862
2.9795698
2.9908447
3.0028891
3.0157862
3.0296314
3.0445521
3.0607048
3.0782409
3.0973639
3.1182898
3.1411595
3.1660339
3.192883
3.2217234
3.2534439
3.292851
3.3621878
3.6070233
5.4459716
1.821972
2.1763464
2.4800483
2.6749536
2.7827928
2.8310506
2.8460248
2.8477264
2.8430774
2.8389487
2.8370483
2.8366486
2.838425
2.8418821
2.8457408
2.8500838
2.8548174
2.8598816
2.8652529
2.8709258
2.876904
2.8831981
2.8898253
2.8968074
2.9041692
2.9119376
2.9201424
2.9288192
2.9380062
2.9477532
2.9581125
2.9691518
2.9809467
2.9935711
3.0071222
3.0217247
3.0375201
3.0546785
3.0733739
3.0937773
3.1160369
3.1401855
3.1661577
3.1939966
3.2247177
3.2634405
3.3336086
3.5887054
5.4376911
1.8121124
2.1674483
2.4693669
2.6616381
2.7668225
2.8131005
2.8270167
2.8283723
2.8236167
2.8196822
2.8179235
2.8176044
2.8195632
2.8229652
2.8267584
2.8310223
2.8356623
2.8406239
2.8458845
2.8514398
2.8572951
2.8634593
2.8699481
2.8767835
2.88399
2.8915964
2.8996349
2.9081379
2.9171405
2.9266838
2.9368264
2.9476351
2.9591741
2.9715157
2.9847728
2.9990656
3.0145111
3.0312706
3.0495173
3.0694164
3.0910638
3.1144578
3.139543
3.1663786
3.196155
3.2343051
3.305561
3.5711036
5.4371917
1.8031249
2.1594042
2.4590981
2.6484415
2.7508502
2.7951596
2.8080735
2.8091266
2.8043402
2.8006207
2.799019
2.7987887
2.8009256
2.8042654
2.8079907
2.8121708
2.8167123
2.8215664
2.8267131
2.8321476
2.8378752
2.8439058
2.8502523
2.8569346
2.8639802
2.8714197
2.8792836
2.8876042
2.8964166
2.9057661
2.9157009
2.9262655
2.9375421
2.949624
2.9625907
2.9765588
2.9916596
3.0080232
3.0258139
3.0451854
3.0661937
3.0888298
3.1130384
3.1389163
3.1677641
3.2054202
3.2780892
3.5570617
5.5370463
1.7953374
2.152394
2.4496252
2.6357906
2.735243
2.7774944
2.7893712
2.790113
2.7852923
2.7817797
2.7803343
2.780191
2.7824864
2.7857566
2.7894096
2.7934991
2.7979373
2.8026798
2.8077086
2.8130208
2.8186206
2.8245187
2.8307296
2.837269
2.8441581
2.8514284
2.8591131
2.8672445
2.8758645
2.8850192
2.894735
2.9050593
2.9160875
2.9278894
2.9405529
2.9541985
2.9689353
2.9848975
3.0022352
3.0210704
3.0414451
3.0633298
3.0866386
3.1115572
3.139526
3.176855
3.2512688
3.5489716
5.6927984
1.7884088
2.1459796
2.4407562
2.6236739
2.7200794
2.7602019
2.7709933
2.7714006
2.7665049
2.7631724
2.7618693
2.7618038
2.7642265
2.7674198
2.7709954
2.7749894
2.7793192
2.7839477
2.7888572
2.7940451
2.7995172
2.8052839
2.8113617
2.8177659
2.824508
2.831609
2.839108
2.8470459
2.8554641
2.8644077
2.873904
2.8840061
2.8947996
2.9063375
2.9186955
2.9320024
2.9463693
2.9619268
2.9788065
2.997094
3.0168197
3.0379305
3.0603482
3.0843359
3.1114854
3.1485892
3.2252133
3.541445
5.7125502
1.7817967
2.1396294
2.432172
2.6119366
2.7053037
2.7432722
2.7529388
2.753007
2.7479935
2.7448134
2.7436417
2.7436425
2.7461622
2.7492734
2.7527663
2.756661
2.7608785
2.7653867
2.7701715
2.7752298
2.7805678
2.7861965
2.7921327
2.7983946
2.8049936
2.8119408
2.8192637
2.8270097
2.8352269
2.8439513
2.8532262
2.8631123
2.8736456
2.8848893
2.8969593
2.9099498
2.9239589
2.9391165
2.9555348
2.973269
2.9923387
3.0126592
3.0341933
3.057241
3.0836328
3.1205541
3.2000691
3.5364545
5.7419367
1.7749206
2.1327414
2.4234083
2.600264
2.6907259
2.7265893
2.7352133
2.7348731
2.7297533
2.726703
2.7256368
2.7257086
2.7282881
2.7313128
2.7347196
2.7385115
2.7426154
2.7470012
2.7516576
2.7565841
2.7617848
2.7672688
2.7730516
2.779156
2.7856048
2.7924131
2.7995922
2.8071663
2.8151831
2.8236804
2.8327192
2.8423575
2.8526279
2.8636045
2.8753778
2.8880272
2.9016666
2.9164204
2.9323739
2.9495622
2.9679816
2.987523
3.0081681
3.0303314
3.0559299
3.0928517
3.1757683
3.5360394
5.8427135
1.7673351
2.124772
2.413899
2.5881911
2.676028
2.7099768
2.717719
2.7169349
2.7117554
2.708817
2.7078274
2.7079714
2.7105744
2.7135071
2.7168237
2.72051
2.7244966
2.7287597
2.7332881
2.7380817
2.7431471
2.7484894
2.7541218
2.760065
2.7663463
2.7729943
2.7800247
2.787445
2.7952797
2.8035652
2.812372
2.8217594
2.8317655
2.8424715
2.8539506
2.8662743
2.8795529
2.8938881
2.9093585
2.9260013
2.9437523
2.962499
2.9822713
3.0035742
3.0284832
3.0655512
3.1520683
3.537277
5.9771279
1.7589828
2.1156423
2.4034399
2.5755034
2.6610359
2.6933245
2.7003572
2.6991579
2.6939804
2.6911464
2.6902144
2.6904326
2.6930289
2.6958666
2.6990871
2.7026634
2.7065302
2.7106672
2.7150663
2.7197258
2.724653
2.729855
2.7353404
2.7411271
2.7472384
2.7537064
2.7605621
2.7678171
2.7754752
2.7835677
2.7921557
2.801293
2.8110307
2.821452
2.8326294
2.8446381
2.8575706
2.8714988
2.886497
2.9025691
2.9196536
2.9376697
2.9565898
2.9769713
3.0012908
3.0385786
3.1294371
3.5384257
6.0758549
1.7501327
2.1057375
2.3922897
2.5623486
2.6458174
2.6766539
2.6831037
2.6815458
2.6764214
2.6736896
2.6728091
2.6731021
2.6756699
2.678414
2.6815387
2.6850073
2.6887594
2.6927739
2.6970444
2.7015705
2.7063592
2.71142
2.7167623
2.7223984
2.7283444
2.7346269
2.7412847
2.7483437
2.7558127
2.7637143
2.7720887
2.7809763
2.7904427
2.8005716
2.811433
2.8231124
2.8356871
2.8492126
2.8637349
2.879255
2.8956792
2.9129167
2.9309731
2.9506157
2.9743533
3.012093
3.1085079
3.5487775
6.1727642
1.7412093
2.0956649
2.3809062
2.5490116
2.630527
2.6600389
2.665979
2.6641032
2.6590622
2.6564298
2.6555931
2.6559614
2.6584836
2.6611336
2.6641675
2.6675301
2.671168
2.6750647
2.6792077
2.6836001
2.6882508
2.6931676
2.6983635
2.7038503
2.7096397
2.715753
2.7222219
2.7290806
2.7363522
2.7440593
2.752225
2.7608779
2.7700913
2.7799373
2.7904814
2.801813
2.8140021
2.8270879
2.8411178
2.8560922
2.8718551
2.8882788
2.9055183
2.9244911
2.9476243
2.9864213
3.0893217
3.5665218
6.3009893
1.7324424
2.0858255
2.3696085
2.5357034
2.6152881
2.6435402
2.6490157
2.6468384
2.6418962
2.6393549
2.6385531
2.6389908
2.6414503
2.6440044
2.6469419
2.6501993
2.6537235
2.6575024
2.6615251
2.6657871
2.6703019
2.6750758
2.6801191
2.6854489
2.6910756
2.6970159
2.7032993
2.7099568
2.7170181
2.7245148
2.7324629
2.740889
2.749864
2.7594505
2.7697048
2.7807099
2.7925336
2.8052016
2.818723
2.833057
2.8481316
2.8637794
2.8803106
2.8985127
2.9214635
2.9615188
3.0720142
3.5882197
6.438055
1.7239912
2.0765552
2.3587165
2.5226627
2.6002546
2.6272413
2.6322619
2.6297753
2.6249359
2.6224778
2.6217084
2.6222063
2.6245895
2.6270479
2.6298852
2.6330352
2.6364489
2.640109
2.6440083
2.6481426
2.6525189
2.6571455
2.6620325
2.6671955
2.672649
2.6784105
2.6845037
2.690956
2.6978017
2.7050713
2.7127887
2.7209826
2.7297143
2.739041
2.7490091
2.7596944
2.7711399
2.7833797
2.7964166
2.810172
2.8245254
2.8394109
2.855129
2.8726168
2.8955982
2.9373071
3.0578
3.6250409
6.6123389
1.7159589
2.0681345
2.3485345
2.5101129
2.585555
2.6112094
2.6157511
2.612929
2.6081904
2.6058103
2.605073
2.6056289
2.6079272
2.6102852
2.6130216
2.6160568
2.6193504
2.6228881
2.6266562
2.6306559
2.6348947
2.6393794
2.6441182
2.6491225
2.6544092
2.6599951
2.6659007
2.6721501
2.6787769
2.68581
2.6932848
2.7012316
2.709707
2.7187607
2.7284345
2.7387846
2.7498435
2.7616413
2.7741656
2.7873162
2.8009433
2.815088
2.8300083
2.847028
2.8699841
2.9140898
3.0464628
3.6711779
6.7965586
1.7082571
2.0603957
2.3389899
2.498022
2.5711682
2.5954291
2.5994723
2.5962912
2.5916526
2.5893438
2.5886341
2.589248
2.5914521
2.5937063
2.5963367
2.5992576
2.6024274
2.6058379
2.6094735
2.6133323
2.6174298
2.6217671
2.6263538
2.6312021
2.6363235
2.6417362
2.64746
2.653519
2.6599366
2.6667445
2.6739812
2.6816784
2.689892
2.6986663
2.7080417
2.7180581
2.7287383
2.7400975
2.7521045
2.7646524
2.7775819
2.7909905
2.8051743
2.8218052
2.8449074
2.8921528
3.0382973
3.7247401
6.971276
1.7004449
2.0528368
2.3296489
2.4860794
2.5569039
2.5797751
2.5833296
2.5798038
2.5752624
2.5730176
2.5723333
2.5729924
2.5750893
2.5772399
2.5797568
2.5825585
2.5856069
2.5888895
2.5923968
2.5961224
2.600082
2.6042754
2.6087074
2.6133981
2.6183491
2.6235832
2.6291269
2.6349901
2.6411989
2.6477886
2.6547853
2.6622329
2.6701811
2.6786695
2.6877385
2.69742
2.7077278
2.7186471
2.7301259
2.7420513
2.7542918
2.7669831
2.7805458
2.7969153
2.8205345
2.8715309
3.0352531
3.7917461
7.1583154
1.6929621
2.0453776
2.3203706
2.4742097
2.5427724
2.5643199
2.567415
2.5635891
2.5591505
2.5569691
2.5563107
2.5570076
2.5589889
2.5610323
2.5634333
2.5661067
2.5690249
2.5721759
2.575551
2.5791465
2.5829749
2.5870356
2.5913297
2.5958768
2.6006715
2.6057306
2.6110923
2.6167605
2.622765
2.6291347
2.635894
2.6430946
2.6507765
2.6589806
2.6677422
2.6770895
2.6870253
2.697505
2.7084543
2.7197582
2.7313315
2.7433114
2.7562839
2.7725975
2.7969943
2.8531906
3.0395255
3.8867834
7.4009995
1.6851995
2.038071
2.3110002
2.4620587
2.5282787
2.5485011
2.5511494
2.5470667
2.5427445
2.5406329
2.5400079
2.5407382
2.5425951
2.5445272
2.5468056
2.549342
2.5521132
2.5551141
2.558337
2.5617822
2.5654634
2.569379
2.5735346
2.5779454
2.5826009
2.5875051
2.5926803
2.5981534
2.6039539
2.6100959
2.6166261
2.6235738
2.6309852
2.6388944
2.6473254
2.6563259
2.6658531
2.6758641
2.6862671
2.6969173
2.707798
2.7190923
2.7316038
2.7482185
2.7738286
2.8379081
3.0524686
4.0074892
7.660807
1.6798788
2.0318545
2.3026281
2.4511868
2.5154013
2.5345495
2.536848
2.5325877
2.5283839
2.5263456
2.5257415
2.5264953
2.5282418
2.5300766
2.5322504
2.534672
2.5373191
2.5401886
2.543275
2.54658
2.5501118
2.5538761
2.5578853
2.5621542
2.566683
2.571457
2.5764796
2.581796
2.5874267
2.5933856
2.5997231
2.6064639
2.6136491
2.6213129
2.629474
2.6381625
2.6473363
2.6569348
2.6668564
2.6769687
2.6873201
2.6980936
2.7103043
2.7277265
2.7539551
2.8232326
3.0713687
4.1363753
7.9131321
1.6709339
2.0226598
2.289124
2.4328548
2.4933975
2.5106279
2.5123442
2.5078039
2.5037884
2.5018489
2.5012844
2.5020457
2.5035927
2.5052588
2.5072507
2.5094822
2.5119314
2.5145916
2.5174608
2.5205366
2.523821
2.5273249
2.5310682
2.5350628
2.5393244
2.5438443
2.5486131
2.5536643
2.5590133
2.5646808
2.5706964
2.5771035
2.5839262
2.5911767
2.5988902
2.607042
2.615586
2.624447
2.6335191
2.6427259
2.6521373
2.6622854
2.6744391
2.6942935
2.7247914
2.8264961
3.1571516
4.5015676
8.4715516
)
;

boundaryField
{
    Side
    {
        type            empty;
    }
    Inlet
    {
        type            turbulentIntensityKineticEnergyInlet;
        intensity       0.03;
        value           nonuniform List<scalar> 
21
(
12.009933
12.010939
12.011887
12.012861
12.014096
12.015283
12.016646
12.018474
12.020068
12.021854
12.02451
12.027114
12.030381
12.034856
12.039245
12.044096
12.052755
12.063184
12.074108
12.092238
12.087878
)
;
    }
    Airfoil
    {
        type            kqRWallFunction;
        value           nonuniform List<scalar> 0();
    }
    Outlet
    {
        type            inletOutlet;
        inletValue      uniform 1.48208e-06;
        value           nonuniform List<scalar> 
49
(
1.6709339
2.0226598
2.289124
2.4328548
2.4933975
2.5106279
2.5123442
2.5078039
2.5037884
2.5018489
2.5012844
2.5020457
2.5035927
2.5052588
2.5072507
2.5094822
2.5119314
2.5145916
2.5174608
2.5205366
2.523821
2.5273249
2.5310682
2.5350628
2.5393244
2.5438443
2.5486131
2.5536643
2.5590133
2.5646808
2.5706964
2.5771035
2.5839262
2.5911767
2.5988902
2.607042
2.615586
2.624447
2.6335191
2.6427259
2.6521373
2.6622854
2.6744391
2.6942935
2.7247914
2.8264961
3.1571516
4.5015676
8.4715516
)
;
    }
    procBoundary13to6
    {
        type            processor;
        value           nonuniform List<scalar> 
34
(
1.9592064
1.9592064
1.9480141
1.9304341
1.9122974
1.8951208
1.8807057
1.8703217
1.8639637
1.8601206
1.8567942
1.8527295
1.8472366
1.8396779
1.8296223
1.8173441
1.8038228
1.7904217
1.7787327
1.7699996
1.7641407
1.7598361
1.7558745
1.7515882
1.7466184
1.7409168
1.7346131
1.7278815
1.7211095
1.7144717
1.7081098
1.701044
1.6951671
1.6828137
)
;
    }
    procBoundary13to12
    {
        type            processor;
        value           nonuniform List<scalar> 
60
(
2.323893
2.6462064
2.8729644
3.0172012
3.076551
3.076551
3.1105064
3.1199414
3.1199564
3.1136972
3.1092422
3.0847627
3.0847627
3.0844129
3.0862969
3.0903664
3.0951744
3.0789344
3.0789344
3.0848865
3.091284
3.098085
3.0834957
3.0834957
3.0909751
3.0988507
3.1071446
3.1158852
3.1029423
3.1029423
3.1125483
3.1227194
3.133509
3.1223411
3.1223411
3.1343511
3.147171
3.1608906
3.1522442
3.1522442
3.1678176
3.1846353
3.1787641
3.1787641
3.1982678
3.2195981
3.217821
3.217821
3.2430938
3.270842
3.2738986
3.2738986
3.3057375
3.3406142
3.352444
3.352444
3.4209562
3.6260879
3.6260879
5.3875454
)
;
    }
}


// ************************************************************************* //
