/*--------------------------------*- C++ -*----------------------------------*\
| =========                 |                                                 |
| \\      /  F ield         | OpenFOAM: The Open Source CFD Toolbox           |
|  \\    /   O peration     | Version:  2506                                  |
|   \\  /    A nd           | Website:  www.openfoam.com                      |
|    \\/     M anipulation  |                                                 |
\*---------------------------------------------------------------------------*/
FoamFile
{
    version     2.0;
    format      ascii;
    arch        "LSB;label=32;scalar=64";
    class       volScalarField;
    location    "1.95";
    object      p;
}
// * * * * * * * * * * * * * * * * * * * * * * * * * * * * * * * * * * * * * //

dimensions      [1 -1 -2 0 0 0 0];

internalField   nonuniform List<scalar> 
1375
(
47023.623
47023.668
47023.917
47024.057
47024.206
47024.339
47022.838
47023.11
47023.271
47023.444
47023.599
47023.732
47023.841
47023.933
47024.028
47024.146
47021.958
47022.222
47022.378
47022.553
47022.715
47022.861
47022.99
47023.108
47023.234
47023.389
47023.568
47023.764
47023.965
47024.17
47024.384
47020.97
47021.249
47021.408
47021.589
47021.76
47021.92
47022.074
47022.225
47022.379
47022.548
47022.737
47022.934
47023.126
47023.325
47023.542
47023.779
47024.034
47024.291
47024.537
47024.772
47019.821
47020.139
47020.32
47020.529
47020.731
47020.936
47021.149
47021.37
47021.59
47021.802
47022.002
47022.179
47022.338
47022.5
47022.676
47022.886
47023.145
47023.455
47023.799
47024.135
47024.425
47024.682
47024.941
47025.197
47025.432
47018.688
47019.025
47019.221
47019.443
47019.659
47019.888
47020.143
47020.428
47020.734
47021.04
47021.327
47021.58
47021.805
47022.018
47022.222
47022.426
47022.63
47022.833
47023.033
47023.232
47023.486
47023.869
47024.337
47024.732
47024.969
47025.139
47025.317
47025.501
47025.689
47017.675
47018.015
47018.217
47018.445
47018.655
47018.868
47019.101
47019.373
47019.685
47020.02
47020.358
47020.681
47020.992
47021.29
47021.584
47021.882
47022.183
47022.486
47022.783
47023.037
47023.186
47023.224
47023.251
47023.464
47023.885
47024.381
47024.799
47025.074
47025.228
47025.35
47025.515
47025.809
47026.229
47016.66
47016.998
47017.197
47017.432
47017.646
47017.852
47018.064
47018.299
47018.58
47018.895
47019.232
47019.59
47019.954
47020.314
47020.666
47021.017
47021.368
47021.717
47022.072
47022.436
47022.8
47023.144
47023.408
47023.533
47023.512
47023.413
47023.387
47023.564
47023.944
47024.473
47025.001
47025.43
47025.803
47026.145
47026.438
47026.856
47015.617
47015.933
47016.113
47016.348
47016.575
47016.798
47017.029
47017.275
47017.553
47017.863
47018.201
47018.564
47018.934
47019.297
47019.643
47019.976
47020.308
47020.651
47021.019
47021.426
47021.869
47022.322
47022.732
47023.042
47023.255
47023.422
47023.565
47023.666
47023.714
47023.752
47023.846
47024.028
47024.469
47025.151
47025.898
47026.595
47027.073
47027.484
47027.816
47014.597
47014.876
47015.013
47015.204
47015.4
47015.608
47015.834
47016.101
47016.394
47016.717
47017.078
47017.459
47017.851
47018.241
47018.617
47018.971
47019.303
47019.613
47019.906
47020.197
47020.523
47020.921
47021.406
47021.946
47022.454
47022.852
47023.117
47023.275
47023.374
47023.501
47023.75
47024.067
47024.365
47024.553
47024.75
47025.13
47025.788
47026.619
47027.328
47027.936
47028.432
47029.078
47013.425
47013.693
47013.819
47013.994
47014.159
47014.331
47014.524
47014.749
47015.028
47015.35
47015.695
47016.068
47016.451
47016.839
47017.233
47017.628
47018.027
47018.429
47018.835
47019.246
47019.658
47020.059
47020.42
47020.733
47021.026
47021.313
47021.607
47021.954
47022.363
47022.822
47023.265
47023.67
47023.952
47024.139
47024.436
47024.905
47025.358
47025.682
47026.104
47026.755
47027.592
47028.6
47029.343
47029.981
47012.032
47012.325
47012.495
47012.726
47012.939
47013.138
47013.34
47013.561
47013.817
47014.099
47014.399
47014.717
47015.037
47015.367
47015.717
47016.099
47016.52
47016.982
47017.479
47017.995
47018.51
47019.005
47019.465
47019.885
47020.265
47020.594
47020.841
47021.019
47021.212
47021.468
47021.877
47022.347
47022.836
47023.457
47024.037
47024.457
47024.842
47025.243
47025.818
47026.412
47027.036
47027.528
47028.313
47029.297
47030.127
47031.49
47031.58
47010.577
47010.896
47011.101
47011.389
47011.672
47011.934
47012.187
47012.454
47012.732
47013.014
47013.303
47013.59
47013.877
47014.17
47014.475
47014.8
47015.156
47015.555
47016.003
47016.497
47017.027
47017.574
47018.121
47018.654
47019.166
47019.648
47020.094
47020.479
47020.85
47021.228
47021.561
47021.802
47021.913
47022.064
47022.506
47023.162
47023.903
47024.694
47025.444
47026.007
47026.573
47027.181
47027.95
47028.757
47029.772
47030.7
47030.762
47035.143
47030.345
47009.088
47009.433
47009.663
47009.978
47010.285
47010.564
47010.826
47011.095
47011.378
47011.668
47011.959
47012.25
47012.557
47012.894
47013.26
47013.647
47014.053
47014.477
47014.916
47015.35
47015.755
47016.135
47016.522
47016.945
47017.423
47017.971
47018.557
47019.163
47019.777
47020.385
47020.877
47021.219
47021.553
47021.956
47022.42
47022.835
47023.146
47023.511
47024.151
47025.032
47026.166
47027.249
47027.882
47028.412
47029.424
47030.779
47030.413
47034.509
47029.633
47007.481
47007.864
47008.136
47008.498
47008.841
47009.147
47009.422
47009.691
47009.967
47010.251
47010.542
47010.838
47011.16
47011.527
47011.94
47012.378
47012.823
47013.267
47013.717
47014.17
47014.611
47015.027
47015.431
47015.854
47016.297
47016.763
47017.281
47017.799
47018.288
47018.781
47019.344
47020.025
47020.765
47021.52
47022.168
47022.561
47022.973
47023.577
47024.345
47025.03
47025.444
47026.003
47026.845
47027.766
47029.056
47030.69
47029.946
47034.977
47029.084
47005.887
47006.269
47006.551
47006.951
47007.348
47007.711
47008.03
47008.337
47008.641
47008.957
47009.292
47009.628
47009.972
47010.34
47010.737
47011.153
47011.566
47011.969
47012.385
47012.841
47013.346
47013.886
47014.432
47014.977
47015.541
47016.099
47016.655
47017.281
47017.879
47018.358
47018.701
47018.977
47019.374
47020.082
47020.957
47021.806
47022.674
47023.522
47024.167
47024.694
47025.31
47025.922
47026.635
47027.538
47028.467
47029.742
47029.459
47034.854
47028.691
47004.363
47004.69
47004.918
47005.277
47005.65
47005.998
47006.305
47006.601
47006.917
47007.282
47007.697
47008.132
47008.56
47008.976
47009.396
47009.825
47010.253
47010.669
47011.081
47011.518
47012.003
47012.53
47013.085
47013.647
47014.214
47014.843
47015.506
47016.141
47016.847
47017.669
47018.508
47019.249
47019.761
47020.063
47020.3
47020.742
47021.335
47021.969
47022.928
47024.285
47025.352
47026.053
47026.565
47027.522
47028.191
47030.007
47028.976
47033.994
47028.139
47002.86
47003.142
47003.3
47003.567
47003.833
47004.091
47004.336
47004.599
47004.918
47005.326
47005.82
47006.354
47006.868
47007.342
47007.799
47008.268
47008.755
47009.244
47009.73
47010.231
47010.775
47011.365
47011.969
47012.57
47013.156
47013.687
47014.251
47014.918
47015.624
47016.305
47017.052
47017.839
47018.681
47019.475
47020.193
47020.801
47021.473
47022.31
47022.859
47022.984
47023.492
47024.519
47025.807
47026.694
47027.751
47030.36
47028.476
47033.984
47027.127
47001.447
47001.689
47001.764
47001.933
47002.119
47002.347
47002.617
47002.943
47003.337
47003.814
47004.37
47004.956
47005.511
47006.013
47006.489
47006.981
47007.499
47008.022
47008.527
47009.019
47009.529
47010.086
47010.672
47011.242
47011.808
47012.396
47012.95
47013.59
47014.422
47015.298
47015.976
47016.621
47017.445
47018.23
47018.862
47019.558
47020.359
47021.102
47021.915
47022.801
47023.543
47024.349
47025.208
47025.845
47026.655
47028.349
47027.42
47033.965
47026.256
46999.964
47000.139
47000.127
47000.236
47000.43
47000.716
47001.05
47001.42
47001.826
47002.286
47002.807
47003.357
47003.889
47004.374
47004.836
47005.324
47005.858
47006.416
47006.973
47007.527
47008.094
47008.682
47009.295
47009.885
47010.403
47010.923
47011.573
47012.27
47012.915
47013.643
47014.496
47015.363
47016.064
47016.779
47017.49
47018.229
47019.153
47020.055
47020.868
47021.941
47023.005
47023.99
47024.853
47025.919
47026.403
47028.185
47026.512
47033.708
47025.417
46998.277
46998.387
46998.357
46998.506
46998.76
46999.059
46999.338
46999.609
46999.91
47000.26
47000.682
47001.161
47001.634
47002.066
47002.491
47002.969
47003.525
47004.154
47004.822
47005.504
47006.209
47006.923
47007.611
47008.325
47009.021
47009.657
47010.273
47010.957
47011.731
47012.388
47013.037
47013.751
47014.508
47015.253
47016.197
47017.261
47018.082
47018.811
47019.308
47020.098
47021.877
47023.591
47024.705
47026.274
47026.609
47028.822
47025.974
47034.64
47024.097
46996.482
46996.638
46996.715
46996.978
46997.274
46997.532
46997.76
46998.01
46998.276
46998.57
46998.934
46999.332
46999.69
47000.016
47000.377
47000.799
47001.309
47001.912
47002.55
47003.203
47003.899
47004.686
47005.512
47006.311
47007.244
47008.151
47008.847
47009.438
47010.04
47010.88
47011.783
47012.51
47013.254
47013.993
47014.787
47015.846
47016.976
47018.03
47019.283
47020.168
47020.561
47021.147
47022.49
47023.457
47024.768
47028.288
47025.703
47035.107
47022.728
46994.606
46994.862
46995.059
46995.413
46995.744
46996.027
46996.291
46996.585
46996.864
46997.146
46997.473
46997.793
46998.11
46998.497
46998.954
46999.442
47000.002
47000.61
47001.224
47001.851
47002.427
47002.914
47003.404
47003.874
47004.284
47004.981
47005.992
47007.011
47007.929
47008.87
47009.899
47011.065
47011.938
47012.618
47013.376
47014.144
47015.202
47016.302
47017.584
47018.967
47020.034
47020.995
47021.949
47023.16
47024.268
47025.953
47023.783
47034.043
47021.208
46992.492
46992.751
46992.95
46993.282
46993.573
46993.833
46994.099
46994.388
46994.66
46994.903
46995.154
46995.439
46995.813
46996.276
46996.714
46997.129
46997.592
46998.121
46998.805
46999.627
47000.385
47001.082
47001.785
47002.622
47003.458
47004.104
47004.645
47005.177
47005.685
47006.191
47006.678
47007.285
47008.158
47009.268
47010.307
47011.252
47012.614
47014.432
47016.276
47017.949
47019.234
47020.207
47021.108
47022.563
47023.232
47026.904
47022.417
47034.617
47019.416
46990.173
46990.371
46990.504
46990.748
46990.962
46991.161
46991.388
46991.647
46991.873
46992.088
46992.344
46992.667
46993.081
46993.498
46993.83
46994.159
46994.595
46995.223
46996.044
46996.828
46997.553
46998.357
46999.225
46999.959
47000.733
47001.656
47002.442
47003.184
47004.014
47004.753
47005.614
47006.424
47007.156
47007.985
47008.735
47009.365
47009.914
47010.671
47011.706
47012.594
47014.426
47017.101
47019.311
47021.38
47022.41
47026.893
47021.074
47035.363
47017.232
46987.842
46988.027
46988.147
46988.378
46988.585
46988.79
46989.028
46989.315
46989.583
46989.843
46990.169
46990.581
46991.055
46991.508
46991.898
46992.298
46992.762
46993.258
46993.746
46994.112
46994.32
46994.542
46994.851
46995.445
46996.38
46997.794
46999.301
47000.392
47001.276
47002.101
47002.804
47003.497
47004.528
47005.548
47006.566
47007.525
47008.419
47009.582
47010.691
47012.095
47013.22
47014.109
47015.372
47016.545
47018.392
47023.081
47018.262
47034.662
47014.512
46985.64
46985.813
46985.919
46986.16
46986.394
46986.618
46986.847
46987.112
46987.385
46987.65
46987.966
46988.371
46988.832
46989.294
46989.746
46990.231
46990.781
46991.35
46991.89
46992.437
46992.993
46993.588
46994.11
46994.341
46994.186
46993.827
46993.752
46994.158
46994.864
46996.319
46997.799
46999.357
47001.113
47002.528
47003.879
47004.915
47005.972
47007.156
47008.451
47009.762
47010.917
47012.262
47013.846
47015.885
47017.014
47021.661
47014.961
47033.381
47011.093
46983.495
46983.582
46983.58
46983.718
46983.899
46984.074
46984.189
46984.329
46984.497
46984.71
46984.992
46985.317
46985.697
46986.099
46986.53
46987.009
46987.541
46988.116
46988.678
46989.235
46989.8
46990.383
46991.101
46991.884
46992.71
46993.458
46993.969
46994.279
46994.382
46994.43
46994.517
46994.706
46995.06
46995.837
46997.085
46998.527
47000.248
47001.931
47003.736
47005.694
47007.566
47009.555
47011.639
47014.324
47014.844
47021.766
47012.304
47033.938
47007.296
46981.108
46981.143
46981.059
46981.062
46981.109
46981.183
46981.217
46981.218
46981.298
46981.513
46981.795
46982.107
46982.431
46982.765
46983.121
46983.518
46983.956
46984.438
46984.948
46985.465
46985.967
46986.394
46986.894
46987.605
46988.467
46989.399
46990.298
46991.096
46991.761
46992.253
46992.777
46993.331
46993.876
46994.454
46995.107
46995.869
46996.844
46997.882
46999.163
47000.635
47002.252
47004.218
47006.66
47009.584
47010.557
47018.666
47008.601
47033.222
47003.247
46978.511
46978.617
46978.585
46978.574
46978.553
46978.551
46978.606
46978.69
46978.788
46978.957
46979.212
46979.501
46979.771
46980.043
46980.307
46980.587
46980.903
46981.228
46981.554
46981.915
46982.343
46982.765
46983.154
46983.649
46984.234
46984.838
46985.51
46986.241
46986.964
46987.681
46988.448
46989.294
46990.196
46991.191
46992.213
46993.269
46994.364
46995.479
46996.701
46997.977
46999.393
47000.995
47003.013
47005.708
47005.912
47014.675
47002.464
47032.086
46995.102
46976.191
46976.379
46976.432
46976.476
46976.427
46976.367
46976.435
46976.63
46976.763
46976.835
46976.982
46977.202
46977.425
46977.652
46977.913
46978.208
46978.499
46978.736
46978.932
46979.149
46979.457
46979.827
46980.151
46980.44
46980.741
46981.054
46981.422
46981.887
46982.388
46982.885
46983.461
46984.114
46984.87
46985.793
46986.78
46987.836
46988.901
46990.029
46991.284
46992.725
46994.368
46996.088
46998.172
47001.903
47000.959
47012.047
46995.936
47032.382
46987.867
46974.124
46974.301
46974.327
46974.373
46974.284
46974.159
46974.12
46974.211
46974.296
46974.329
46974.389
46974.493
46974.625
46974.811
46975.085
46975.383
46975.648
46975.894
46976.129
46976.356
46976.609
46976.9
46977.162
46977.357
46977.563
46977.801
46978.034
46978.274
46978.511
46978.736
46979.054
46979.376
46979.77
46980.231
46980.7
46981.297
46981.886
46982.726
46983.892
46985.256
46986.683
46988.266
46990.118
46995.37
46993.505
47007.272
46987.313
47031.794
46977.623
46971.882
46972.006
46971.971
46972.02
46971.925
46971.81
46971.677
46971.621
46971.626
46971.658
46971.716
46971.759
46971.831
46971.979
46972.15
46972.261
46972.379
46972.629
46972.774
46972.875
46972.968
46973.004
46973.103
46973.25
46973.469
46973.653
46973.8
46973.927
46973.953
46974.07
46974.285
46974.483
46974.724
46974.892
46975.028
46975.24
46975.664
46976.221
46976.926
46977.976
46979.192
46980.659
46982.198
46986.408
46982.671
47001.861
46976.152
47030.903
46968.368
)
;

boundaryField
{
    Side
    {
        type            empty;
    }
    Inlet
    {
        type            totalPressure;
        rho             rho;
        psi             none;
        gamma           1;
        p0              uniform 50000;
        value           nonuniform List<scalar> 
21
(
47035.311
47035.045
47034.782
47034.5
47034.158
47033.807
47033.417
47032.942
47032.552
47032.176
47031.628
47031.138
47030.538
47029.658
47028.672
47027.477
47025.455
47023.129
47020.657
47016.558
47017.542
)
;
    }
    Airfoil
    {
        type            zeroGradient;
    }
    Outlet
    {
        type            fixedValue;
        value           uniform 46970;
    }
    procBoundary6to5
    {
        type            processor;
        value           nonuniform List<scalar> 
61
(
47024.39
47024.597
47024.711
47024.848
47024.985
47024.455
47024.455
47024.552
47024.636
47024.723
47024.829
47024.293
47024.293
47024.462
47024.648
47024.844
47025.047
47024.607
47024.607
47024.825
47025.022
47025.186
47025.325
47025.001
47025.001
47025.215
47025.38
47025.493
47025.6
47025.624
47025.624
47025.739
47025.786
47025.866
47025.856
47025.856
47026.029
47026.313
47026.681
47026.665
47026.665
47026.979
47027.214
47027.316
47027.316
47027.803
47028.18
47028.233
47028.233
47028.757
47029.425
47029.679
47029.679
47030.331
47030.723
47030.723
47032.034
47032.048
47035.474
47035.474
47030.942
)
;
    }
    procBoundary6to12
    {
        type            processor;
        value           uniform 47024.388;
    }
    procBoundary6to13
    {
        type            processor;
        value           nonuniform List<scalar> 
34
(
47023.807
47022.795
47022.795
47021.947
47020.964
47019.78
47018.628
47017.632
47016.613
47015.574
47014.592
47013.473
47012.079
47010.607
47009.124
47007.497
47005.883
47004.395
47002.938
47001.474
47000.012
46998.406
46996.616
46994.685
46992.589
46990.33
46987.98
46985.739
46983.61
46981.234
46978.58
46976.162
46974.058
46971.823
)
;
    }
}


// ************************************************************************* //
