/*--------------------------------*- C++ -*----------------------------------*\
| =========                 |                                                 |
| \\      /  F ield         | OpenFOAM: The Open Source CFD Toolbox           |
|  \\    /   O peration     | Version:  2506                                  |
|   \\  /    A nd           | Website:  www.openfoam.com                      |
|    \\/     M anipulation  |                                                 |
\*---------------------------------------------------------------------------*/
FoamFile
{
    version     2.0;
    format      ascii;
    arch        "LSB;label=32;scalar=64";
    class       volScalarField;
    location    "2.1";
    object      omega;
}
// * * * * * * * * * * * * * * * * * * * * * * * * * * * * * * * * * * * * * //

dimensions      [0 0 -1 0 0 0 0];

internalField   nonuniform List<scalar> 
1376
(
56.810542
52.020959
49.002738
46.924392
45.38168
44.18417
43.226694
42.444781
41.79675
41.253306
40.792196
40.398398
40.060067
39.767652
39.513587
39.291808
39.097103
38.92603
38.7755
38.642953
38.524964
38.419974
38.327957
38.247578
38.177241
38.116015
38.064993
38.024812
37.998681
37.986699
37.992641
38.022468
38.087611
38.183345
38.342242
38.56621
38.928415
39.423383
40.222653
41.928999
44.117905
47.304459
52.046641
61.465124
80.791911
136.72025
175.77374
477.88794
1350.0994
56.72531
52.16989
49.255855
47.194497
45.646755
44.437441
43.465698
42.66885
42.006234
41.448744
40.974446
40.568115
40.2183
39.914987
39.650827
39.419692
39.21649
39.037516
38.87923
38.739475
38.615049
38.504246
38.406426
38.32083
38.245492
38.179808
38.124214
38.079592
38.048685
38.031956
38.032391
38.056613
38.112798
38.203729
38.346095
38.563382
38.91272
39.410587
40.263629
41.524822
43.244575
46.127772
51.918235
61.332516
80.020525
122.89787
161.31581
487.49253
1327.2911
57.084961
52.648382
49.695769
47.598066
46.017426
44.776988
43.776794
42.954151
42.26815
41.689445
41.196133
40.772375
40.406699
40.088789
39.811515
39.568346
39.354213
39.164865
38.9969
38.848417
38.716282
38.598134
38.493167
38.401003
38.31993
38.248683
38.187291
38.137684
38.100828
38.078078
38.071355
38.09068
38.136614
38.218053
38.345478
38.54452
38.841093
39.343721
40.036639
41.232333
43.243204
45.74073
50.328539
58.034942
75.752571
99.267269
140.3357
412.76763
1307.855
57.27526
53.00068
50.089371
47.985046
46.38297
45.117624
44.092459
43.246029
42.537643
41.938281
41.426029
40.984854
40.602899
40.270164
39.979292
39.723569
39.497769
39.297497
39.119882
38.962142
38.821424
38.695545
38.583143
38.484033
38.396669
38.319244
38.252344
38.197295
38.154309
38.12528
38.112781
38.125996
38.162478
38.231502
38.348887
38.530565
38.81772
39.226169
39.917449
40.927617
42.460375
45.340553
49.802195
57.498006
68.3269
92.837445
142.3506
409.7446
1291.3132
57.490666
53.38321
50.506782
48.394693
46.771399
45.480674
44.429642
43.558294
42.826199
42.204785
41.672247
41.212379
40.81296
40.464233
40.158478
39.889041
39.650577
39.438923
39.250564
39.082571
38.932706
38.798416
38.678181
38.571403
38.477067
38.39329
38.320412
38.259314
38.210121
38.17474
38.155064
38.160696
38.190019
38.250837
38.352916
38.524154
38.783907
39.178442
39.801557
40.841029
42.324979
44.744214
48.91378
55.81747
68.940693
87.605606
130.1152
366.45216
1276.5498
57.682329
53.748601
50.922072
48.811512
47.171351
45.857422
44.781486
43.885424
43.12942
42.485326
41.931847
41.452455
41.03485
40.669264
40.34776
40.0638
39.812167
39.588113
39.388178
39.209714
39.050046
38.906659
38.777952
38.66298
38.561293
38.470838
38.391307
38.323364
38.26758
38.226008
38.201104
38.197335
38.218576
38.271267
38.357619
38.512483
38.753842
39.163591
39.678175
40.629853
42.058856
44.490532
48.366503
55.246659
64.279
83.79121
123.13934
343.77305
1263.1593
57.863844
54.105721
51.336713
49.233553
47.580496
46.245718
45.146022
44.225705
43.445952
42.778848
42.203841
41.704242
41.267796
40.884638
40.546747
40.247605
39.981836
39.744875
39.532904
39.343048
39.172755
39.019873
38.882464
38.758856
38.648913
38.551305
38.465086
38.390466
38.328152
38.279646
38.247798
38.23475
38.251087
38.29147
38.374015
38.509815
38.732065
39.05827
39.660607
40.426389
41.786235
43.984983
47.926209
53.782007
64.552347
81.50425
118.65861
320.50616
1250.5496
58.030423
54.446024
51.742761
49.654054
47.99302
46.640427
45.518793
44.575213
43.772241
43.082426
42.485593
41.96557
41.509872
41.108633
40.753758
40.438809
40.158479
39.907997
39.683377
39.481864
39.300719
39.137807
38.990878
38.858378
38.740097
38.634712
38.541318
38.459783
38.390588
38.335374
38.296452
38.275385
38.283835
38.314143
38.384089
38.50718
38.716901
39.024426
39.543212
40.336505
41.62241
43.531593
47.249868
53.389528
61.630174
77.735577
112.90437
306.27014
1238.0102
58.182065
54.766802
52.134801
50.067084
48.403194
47.036329
45.895054
44.92962
44.104235
43.392302
42.773886
42.23349
41.758423
41.338922
40.966862
40.635859
40.340517
40.07612
39.838561
39.624925
39.432455
39.259024
39.102493
38.960823
38.833941
38.720577
38.61965
38.531087
38.45499
38.392623
38.346289
38.319056
38.31753
38.339106
38.398985
38.512026
38.6866
39.001514
39.429098
40.25166
41.412099
43.428825
46.726987
52.137463
61.025308
75.407249
109.83836
286.33404
1225.4405
58.318984
55.065685
52.50794
50.466551
48.804622
47.427286
46.269149
45.283829
44.437357
43.704264
43.06491
42.504369
42.010238
41.572483
41.183252
40.836088
40.52558
40.247014
39.996389
39.77055
39.566596
39.382381
39.216001
39.06521
38.929359
38.807816
38.69943
38.603689
38.520401
38.450983
38.397438
38.364584
38.349071
38.367255
38.415744
38.514781
38.679231
38.955377
39.397936
40.07396
41.140225
43.238587
46.343449
51.580932
59.600074
73.347553
107.7175
285.25082
1212.6964
58.440856
55.338767
52.856252
50.845874
49.190389
47.80655
46.634555
45.631599
44.765899
44.012963
43.353702
42.773779
42.261091
41.805526
41.399481
41.036371
40.710897
40.418274
40.154535
39.916518
39.701174
39.506181
39.329799
39.169832
39.025091
38.895244
38.779094
38.676168
38.586052
38.509698
38.449276
38.408991
38.383994
38.39632
38.436236
38.517829
38.67928
38.914263
39.350984
39.977169
41.070894
42.676116
45.885433
50.880979
58.522992
71.414408
103.42137
262.91792
1199.9106
58.548279
55.585835
53.176656
51.199719
49.554425
48.167302
46.984579
45.966629
45.083787
44.312561
43.634839
43.036618
42.506211
42.033708
41.611449
41.232917
40.892914
40.586679
40.310207
40.060195
39.833654
39.628159
39.441968
39.272905
39.119477
38.981468
38.857765
38.747759
38.650836
38.567583
38.500389
38.452827
38.420243
38.426092
38.454522
38.527015
38.660767
38.909888
39.270335
39.905755
40.940017
42.525732
45.527987
50.096735
57.441736
70.168923
103.47891
266.08554
1187.3288
58.641046
55.80357
53.46401
51.521911
49.889966
48.503033
47.312606
46.282242
45.384298
44.596839
43.902398
43.28728
42.740387
42.252093
41.814639
41.42163
41.067863
40.74866
40.459974
40.198492
39.961251
39.745692
39.550067
39.372275
39.210614
39.064677
38.933612
38.816764
38.713537
38.623924
38.550301
38.495156
38.458585
38.452819
38.47326
38.536097
38.660506
38.87519
39.239029
39.82522
40.734306
42.511108
45.121733
49.8326
56.465423
70.199184
98.178404
247.67645
1175.2207
58.720179
55.992967
53.717786
51.80946
50.191911
48.80741
47.611755
46.571508
45.660836
44.859407
44.150252
43.520139
42.958363
42.455691
42.004354
41.598036
41.231517
40.900321
40.600342
40.328173
40.080889
39.855906
39.651438
39.465428
39.296062
39.142727
39.00477
38.881489
38.772289
38.676797
38.597182
38.53523
38.495632
38.475997
38.492812
38.54558
38.663404
38.859664
39.204012
39.754776
40.666896
42.154309
44.87474
49.193362
56.388031
67.276415
99.271762
243.51272
1163.9929
58.786117
56.152745
53.934194
52.057118
50.454391
49.074053
47.875557
46.827989
45.907179
45.09403
44.372372
43.729295
43.154495
42.639121
42.175511
41.7574
41.379512
41.037525
40.72737
40.445562
40.189249
39.955809
39.743363
39.549928
39.373591
39.213562
39.069312
38.940179
38.825594
38.724949
38.639999
38.572185
38.527574
38.498012
38.510301
38.557042
38.656274
38.853457
39.166772
39.684306
40.580825
42.016317
44.584019
48.670032
55.391643
66.591725
95.689048
247.58521
1153.9215
58.839228
56.283161
54.112791
52.263286
50.674441
49.298688
48.098823
47.045998
46.117303
45.294665
44.562752
43.908988
43.323371
42.797308
42.323254
41.895049
41.507439
41.156191
40.837324
40.547247
40.283105
40.04232
39.822973
39.623117
39.440774
39.274971
39.125209
38.990915
38.871556
38.766413
38.67683
38.603801
38.554473
38.515968
38.524733
38.563348
38.658668
38.829968
39.128992
39.634879
40.431845
41.841073
44.313341
48.390414
54.618156
66.830882
93.875689
234.77577
1145.2279
58.879961
56.383939
54.251815
52.424943
50.8481
49.47696
48.276765
47.220348
46.285918
45.45611
44.716251
44.054164
43.460037
42.925467
42.443058
42.006721
41.611286
41.252522
40.926534
40.629734
40.359238
40.112484
39.887523
39.6824
39.49513
39.324608
39.17034
39.031811
38.90845
38.799513
38.706111
38.628812
38.575293
38.529652
38.535039
38.568406
38.651716
38.813955
39.094863
39.560857
40.36234
41.687253
44.045488
47.992522
54.3428
65.281349
94.538386
231.68025
1138.2285
58.908735
56.455393
54.350805
52.540624
50.972862
49.605516
48.405559
47.347048
46.408836
45.574067
44.828499
44.160335
43.559987
43.019188
42.530677
42.088415
41.687276
41.32301
40.991794
40.690081
40.414938
40.16379
39.934706
39.725717
39.534841
39.360877
39.203274
39.061543
38.935086
38.82327
38.727163
38.647013
38.590547
38.540559
38.544144
38.57422
38.653348
38.808522
39.082721
39.548393
40.324569
41.649779
43.990395
47.961375
54.347973
65.418322
92.972154
235.00588
1133.2007
58.925813
56.497587
54.409211
52.608939
51.046641
49.681659
48.482148
47.422525
46.482126
45.644342
44.895326
44.223489
43.619334
43.074723
42.582502
42.136712
41.73219
41.364658
41.030345
40.725759
40.447966
40.194354
39.962928
39.751726
39.558818
39.382966
39.223575
39.080174
38.95213
38.838993
38.741971
38.66113
38.604035
38.554003
38.558492
38.5906
38.673176
38.833949
39.117537
39.59757
40.404527
41.775541
44.219054
48.263233
54.714761
66.13232
95.252061
240.27507
1130.3102
58.93139
56.51093
54.427141
52.629288
51.068132
49.703395
48.503416
47.442983
46.501715
45.662861
44.912708
44.239814
43.634609
43.088974
42.595806
42.149174
41.743875
41.375613
41.040648
40.73549
40.457177
40.203096
39.971227
38.058992
38.190647
38.346818
38.532995
38.755422
39.022923
39.346784
39.741715
40.228143
40.83576
41.609402
42.622772
44.011722
46.064602
49.455554
37.560804
37.548957
37.547953
37.559536
37.579463
37.607151
37.642319
37.686359
37.739086
37.802206
37.875085
37.96122
38.063413
38.18258
38.323646
38.490056
38.687584
38.922997
39.204909
39.54507
39.958562
40.466502
41.099478
41.903473
42.954336
44.391662
46.512566
49.993348
41.502176
39.874221
39.246994
38.601853
38.270118
38.009284
37.85711
37.748954
37.674112
37.628203
37.60482
37.597956
37.602572
37.621027
37.64753
37.681076
37.722121
37.771039
37.829672
37.898712
37.978405
38.071876
38.182192
38.310324
38.46134
38.638713
38.848364
39.097539
39.394848
39.752334
40.185635
40.716634
41.376795
42.213334
43.304522
44.793966
46.988329
50.569132
209.3091
155.45435
93.479839
78.029963
61.384017
57.215835
51.801842
56.158788
46.258908
40.996384
39.719424
38.978121
38.552286
38.232537
38.017059
37.870737
37.772396
37.705511
37.667842
37.653779
37.654516
37.664642
37.687039
37.718189
37.755889
37.802371
37.85725
37.92202
37.997733
38.084506
38.185948
38.304624
38.442496
38.604073
38.793087
39.015671
39.279429
39.593232
39.969253
40.423718
40.979363
41.668599
42.540126
43.674741
45.220407
47.494024
51.185011
1522.6117
552.04241
207.79525
176.45328
92.290878
77.521056
59.636187
53.8003
50.753019
52.14512
46.372871
40.382782
39.519084
38.876234
38.509698
38.214738
38.019101
37.891179
37.801511
37.743005
37.714572
37.705394
37.711399
37.726047
37.75334
37.788928
37.831141
37.882557
37.943947
38.015849
38.098838
38.193411
38.303421
38.431186
38.579515
38.752185
38.953586
39.190056
39.469252
39.800614
40.196436
40.673576
41.255549
41.975878
42.885062
44.066537
45.672724
48.031939
51.844448
1491.6984
574.41718
195.97293
194.64886
99.701354
78.470707
59.714048
53.601189
51.420229
52.081787
44.504042
40.189838
39.347022
38.851018
38.490877
38.216877
38.025657
37.913309
37.831207
37.779835
37.757911
37.754498
37.766038
37.786646
37.818881
37.86024
37.908696
37.966554
38.034044
38.112644
38.203128
38.306207
38.424965
38.562465
38.721679
38.906133
39.120728
39.371917
39.667536
40.017552
40.434552
40.935898
41.546055
42.299726
43.249389
44.481271
46.15296
48.604993
52.551698
1461.2324
589.62955
186.4447
188.69479
106.95016
79.148942
60.596427
53.700856
52.330897
48.603282
44.795621
40.145165
39.26962
38.772968
38.432922
38.194016
38.037414
37.935825
37.859521
37.816893
37.803411
37.805996
37.822748
37.850389
37.887762
37.934482
37.988929
38.052875
38.12726
38.2129
38.311085
38.422729
38.551043
38.698848
38.869255
39.066281
39.294859
39.561713
39.874778
40.244705
40.684268
41.211535
41.851948
42.641418
43.634608
44.920861
46.663506
49.216125
53.311564
1430.7421
599.06406
179.28902
161.50357
103.80544
67.736304
58.800157
50.271234
47.184603
47.082088
42.696267
39.972166
39.183088
38.719815
38.400346
38.199523
38.042147
37.956921
37.890296
37.857075
37.850983
37.859904
37.881558
37.915018
37.957998
38.010279
38.070734
38.141085
38.222738
38.316026
38.422405
38.542949
38.681348
38.84019
39.022583
39.232935
39.47635
39.759838
40.09159
40.482716
40.946312
41.501359
42.174291
43.002324
44.042426
45.387354
47.20677
49.868492
54.12828
1401.1182
545.33389
179.33602
145.37457
100.76173
64.589054
54.447775
49.258218
46.191668
44.657075
41.046268
39.848883
39.091028
38.704994
38.383746
38.18468
38.060703
37.977366
37.922103
37.898822
37.898915
37.913611
37.940867
37.980375
38.029302
38.08736
38.15459
38.23176
38.321025
38.422208
38.536982
38.667516
38.816424
38.986792
39.181936
39.406348
39.665587
39.966689
40.318382
40.732025
41.221246
41.806037
42.513869
43.383343
44.473842
45.881965
47.784359
50.564346
55.003729
1371.1459
496.79035
180.07871
137.61338
86.234892
62.595448
53.433145
48.226056
44.290722
43.26946
41.141515
39.61126
39.068009
38.616593
38.357486
38.186307
38.07411
37.999394
37.956209
37.94184
37.947771
37.967997
38.00184
38.047282
38.102631
38.166599
38.240488
38.325228
38.422539
38.532066
38.655502
38.79611
38.956279
39.138878
39.347289
39.586531
39.862528
40.182257
40.555051
40.9925
41.508929
42.125421
42.870462
43.784123
44.928396
46.404186
48.395428
51.299794
55.929305
)
;

boundaryField
{
    Side
    {
        type            empty;
    }
    Inlet
    {
        type            fixedValue;
        value           uniform 60.24606;
    }
    Airfoil
    {
        type            omegaWallFunction;
        blending        binomial;
        n               2;
        value           nonuniform List<scalar> 
25
(
1350.0994
1327.2911
1307.855
1291.3132
1276.5498
1263.1593
1250.5496
1238.0102
1225.4405
1212.6964
1199.9106
1187.3288
1175.2207
1163.9929
1153.9215
1145.2279
1138.2285
1133.2007
1130.3102
1522.6117
1491.6984
1461.2324
1430.7421
1401.1182
1371.1459
)
;
    }
    Outlet
    {
        type            inletOutlet;
        inletValue      nonuniform List<scalar> 0();
        value           nonuniform List<scalar> 0();
    }
    procBoundary7to0
    {
        type            processor;
        value           nonuniform List<scalar> 
50
(
39.759598
39.566328
39.39017
39.23052
39.086912
38.958651
38.845475
38.748725
38.668141
38.611293
38.562554
38.5688
38.604059
38.691378
38.859394
39.154762
39.654449
40.492813
41.917797
44.45843
48.591637
55.215317
66.961058
97.716574
252.05814
1129.5819
58.92587
56.497653
54.409213
52.608797
51.046486
49.681577
48.481932
47.422172
46.481671
45.643789
44.894779
44.223128
43.619145
43.074657
42.582561
42.13691
41.732531
41.365133
41.03096
40.726521
40.44882
40.195276
39.759598
39.963911
)
;
    }
    procBoundary7to8
    {
        type            processor;
        value           nonuniform List<scalar> 
53
(
37.939508
38.062354
38.208808
38.384144
38.594426
38.848422
39.156938
39.53449
40.000728
40.584632
41.329995
42.308463
43.652481
45.642432
48.952135
37.511296
37.494786
37.491702
37.497569
37.514948
37.536902
37.568046
37.604973
37.652532
37.709003
37.7749
37.853906
37.948142
37.948142
41.225174
39.902132
39.180217
38.642854
38.269448
38.005789
37.835378
37.718425
37.640153
37.591688
37.591688
208.47918
154.90596
95.952131
86.770058
68.662078
64.746177
53.283273
55.232873
44.723288
44.723288
1556.1466
560.66154
560.66154
)
;
    }
}


// ************************************************************************* //
