/*--------------------------------*- C++ -*----------------------------------*\
| =========                 |                                                 |
| \\      /  F ield         | OpenFOAM: The Open Source CFD Toolbox           |
|  \\    /   O peration     | Version:  2506                                  |
|   \\  /    A nd           | Website:  www.openfoam.com                      |
|    \\/     M anipulation  |                                                 |
\*---------------------------------------------------------------------------*/
FoamFile
{
    version     2.0;
    format      ascii;
    arch        "LSB;label=32;scalar=64";
    class       volScalarField;
    location    "2.15";
    object      Cp;
}
// * * * * * * * * * * * * * * * * * * * * * * * * * * * * * * * * * * * * * //

dimensions      [0 0 0 0 0 0 0];

internalField   nonuniform List<scalar> 
1376
(
0.025060415
0.025060276
0.024845621
0.024645338
0.024529449
0.024307444
0.02410551
0.02404213
0.024013849
0.023892128
0.023639755
0.025056816
0.024841758
0.024639497
0.024522208
0.024302605
0.024107947
0.024043498
0.024013697
0.023890472
0.023637726
0.025053641
0.024839485
0.024635705
0.024515866
0.024299588
0.024110902
0.024044814
0.024013455
0.023889644
0.023636395
0.025049011
0.024835305
0.024630973
0.024508141
0.02429717
0.024114582
0.024046617
0.02401205
0.023889064
0.02363676
0.025046113
0.024830988
0.024624719
0.024499564
0.024294482
0.024118484
0.024049214
0.024009555
0.023887376
0.023640318
0.025039999
0.024825525
0.024616708
0.024490199
0.024292257
0.024120551
0.024050735
0.024006216
0.023885123
0.02364678
0.025030316
0.024821695
0.024606992
0.024480777
0.024288481
0.024125675
0.024051836
0.024000212
0.023881832
0.023655713
0.025020138
0.024811704
0.024595121
0.024472003
0.024284963
0.024124765
0.024051209
0.023996554
0.02387674
0.023666424
0.025011447
0.024793418
0.024583714
0.024464471
0.024281983
0.024114409
0.024050623
0.023996382
0.023870499
0.023677507
0.025001627
0.024776926
0.024572778
0.024457487
0.024278134
0.024102922
0.024052962
0.023994061
0.023870253
0.023677833
0.024988089
0.024758555
0.024561865
0.024452977
0.024265477
0.024093524
0.024056063
0.023991108
0.023873085
0.023683779
0.025145908
0.02497224
0.024739586
0.024552826
0.024442423
0.024244006
0.024088129
0.024058113
0.023988056
0.023870557
0.02369547
0.025126734
0.024953745
0.024719939
0.024545027
0.024427355
0.024228114
0.024080874
0.024057223
0.02398365
0.023867908
0.02368813
0.025105079
0.024931928
0.024700582
0.02453232
0.024415305
0.024213856
0.024069012
0.02405305
0.023977225
0.023862731
0.023688071
0.025081286
0.024907993
0.024678656
0.024517852
0.024401836
0.024200496
0.024054174
0.024046011
0.023968664
0.023856122
0.02369007
0.025058245
0.024884904
0.024652562
0.024499162
0.024385261
0.024185999
0.024039791
0.024036681
0.023957497
0.023848286
0.023692354
0.02504807
0.024858829
0.024620817
0.024476722
0.024364289
0.024170612
0.024027514
0.024024569
0.023943455
0.023838026
0.02369266
0.025034414
0.024822026
0.024583744
0.024450629
0.024338395
0.024155188
0.024017177
0.024009847
0.023925722
0.023824362
0.023690333
0.024997519
0.024772254
0.024543274
0.024419993
0.024307597
0.024139397
0.024008781
0.023991497
0.023906478
0.023809513
0.023687244
0.024956988
0.024715572
0.024498636
0.024387342
0.024273463
0.024122442
0.024002299
0.023969912
0.023886374
0.023791624
0.023688788
0.024905053
0.024651529
0.024449925
0.024352658
0.024239286
0.024099111
0.023993333
0.02394543
0.0238647
0.023776171
0.023690425
0.024828981
0.024562497
0.024402203
0.02431696
0.024201713
0.024072753
0.023980681
0.02391589
0.023843484
0.023768492
0.023685408
0.024719701
0.024480303
0.024362412
0.02427419
0.024154834
0.024041998
0.023958309
0.023885118
0.023825439
0.023762281
0.02366906
0.024600066
0.024416685
0.024297787
0.024215392
0.024101325
0.024011698
0.023930454
0.023849933
0.02380533
0.023752133
0.023646673
0.02444442
0.024341548
0.024234717
0.024153326
0.024047943
0.023970598
0.023891214
0.023824651
0.023785982
0.023727269
0.02361588
0.024462866
0.024356531
0.024259773
0.024166294
0.024082901
0.02399248
0.023922896
0.023854608
0.023796067
0.023759671
0.0236871
0.023583506
0.024418686
0.024319104
0.024136392
0.024067882
0.024000523
0.023927209
0.023870007
0.023814994
0.023763719
0.023715847
0.023637092
0.023516135
0.024345266
0.024171555
0.02401739
0.023986032
0.023915821
0.023850633
0.023816188
0.023769092
0.023718576
0.023664295
0.023571989
0.023447835
0.024126895
0.024032762
0.023980699
0.023906166
0.023826858
0.023789597
0.023741478
0.02372049
0.023679743
0.023613116
0.023497194
0.023451158
0.023964833
0.02392474
0.023884768
0.023804217
0.023751662
0.023706854
0.023676444
0.023669371
0.02363086
0.023549832
0.023469298
0.023471845
0.023871592
0.023759593
0.023730455
0.023718005
0.023698898
0.023628023
0.023637231
0.023621835
0.023532863
0.023453939
0.023448879
0.023439177
0.023704601
0.02359244
0.02361421
0.023628534
0.023637573
0.023635333
0.023624088
0.023578194
0.023523676
0.023457489
0.023396316
0.023416938
0.023325489
0.023493608
0.023428034
0.023486949
0.023534217
0.023566753
0.023554223
0.023577413
0.023512702
0.023413642
0.023381881
0.023346931
0.023309003
0.02325647
0.023325686
0.023377245
0.023431375
0.02346731
0.023465976
0.023490837
0.023476086
0.023419277
0.023339445
0.023286569
0.023270748
0.023214815
0.023245283
0.023172782
0.023284796
0.023322998
0.023406776
0.023419605
0.023385714
0.02338827
0.023351097
0.023307383
0.023257038
0.023196038
0.023218665
0.023201416
0.023209373
0.023168367
0.023285935
0.023310118
0.023333022
0.023315694
0.023302632
0.023248092
0.023203111
0.023200559
0.023192906
0.023156152
0.023164183
0.023168034
0.023189304
0.023135506
0.023187115
0.023165722
0.023138768
0.023130779
0.023113839
0.02308136
0.023100242
0.023134001
0.023121472
0.023113787
0.023084074
0.023113089
0.023132425
0.022986429
0.022965103
0.022960073
0.022941576
0.022927903
0.022958389
0.02298144
0.023005046
0.023037595
0.023056065
0.023067771
0.023090862
0.023074599
0.023067215
0.023072546
0.022772563
0.022765027
0.022767612
0.022792768
0.022823203
0.022842686
0.022881656
0.022924001
0.022954922
0.022986171
0.023011382
0.022997229
0.023024929
0.023025756
0.023016205
0.022624491
0.02269361
0.022712262
0.022722316
0.022736343
0.022770784
0.022807513
0.022845398
0.022887264
0.022916738
0.02296193
0.022972883
0.022958206
0.02298411
0.022975242
0.022922144
0.022541636
0.022586092
0.022632738
0.022665255
0.022671723
0.022680376
0.022712947
0.022753797
0.022777605
0.022809797
0.022836353
0.022848995
0.022842531
0.02284336
0.02284225
0.022818295
0.02278341
0.022555447
0.022594256
0.022634651
0.022667804
0.022698635
0.022717745
0.022743847
0.022772949
0.022774605
0.022777184
0.022781697
0.022773654
0.022774412
0.022763773
0.022735297
0.022736587
0.022726186
0.022436385
0.022450165
0.022483069
0.022516236
0.022544943
0.022587782
0.02261365
0.022617333
0.022626274
0.022636131
0.022624992
0.022627344
0.022637667
0.02265106
0.022637765
0.022625986
0.022646412
0.022670107
0.022419694
0.022451444
0.022469957
0.022504588
0.022539839
0.022568913
0.022585117
0.022599911
0.02260811
0.022614529
0.022628221
0.022625786
0.022628383
0.022636672
0.02265103
0.02267105
0.022684016
0.022679461
0.022651306
0.022273359
0.022291147
0.022315376
0.022343227
0.022363862
0.02237733
0.022398986
0.022420615
0.022434082
0.022446815
0.022464339
0.022479638
0.022485124
0.022499827
0.022535346
0.022565314
0.022569421
0.022567623
0.02258286
0.022591412
0.022338657
0.022344879
0.022351586
0.022362987
0.022378002
0.022394671
0.022413289
0.022423267
0.0224225
0.022430204
0.022444924
0.022460408
0.022471295
0.022483285
0.022493155
0.022486749
0.022508354
0.022546009
0.022553503
0.022553224
0.022553608
0.022561992
0.022241935
0.022253076
0.022263553
0.022273978
0.022283212
0.022294512
0.022307067
0.02231929
0.022333135
0.022347888
0.022360856
0.022365941
0.022371634
0.022379704
0.022386456
0.022397235
0.022411815
0.022416233
0.022426525
0.022432898
0.022443873
0.02250073
0.022649525
0.022317119
0.022315876
0.02230464
0.022299634
0.022304558
0.022308136
0.022310286
0.02231508
0.022326511
0.022345728
0.022360484
0.022362334
0.02236511
0.022365724
0.022370488
0.022382248
0.02239195
0.022405282
0.022416923
0.022411703
0.02239378
0.022418591
0.022598197
0.022975302
0.023286313
0.022290145
0.02228936
0.022292561
0.022304641
0.022311185
0.022313354
0.022319915
0.022317969
0.022327368
0.022337431
0.02234308
0.022349588
0.022363047
0.02237683
0.022385511
0.022392242
0.022396736
0.022398667
0.022401007
0.022401014
0.022400424
0.022419609
0.022489888
0.022715187
0.02311139
0.023158511
0.02294282
0.023635639
0.02363746
0.023639577
0.023641477
0.023642203
0.023641217
0.023638755
0.023635113
0.023631338
0.023632127
0.023631236
0.023633417
0.023644941
0.0236528
0.023646346
0.023625336
0.023606238
0.023600419
0.023599319
0.023589903
0.023574172
0.023547513
0.023516083
0.02348737
0.023461819
0.023454831
0.023487204
0.023538521
0.023525468
0.023455705
0.02336703
0.023294223
0.023287997
0.023292625
0.023243086
0.023163276
0.023075438
0.023054047
0.023015334
0.022918874
0.022762886
0.022702385
0.022654227
0.022645283
0.022583946
0.022570592
0.022807807
0.023244132
0.022823738
0.023581618
0.023583267
0.023584775
0.023586194
0.023587152
0.023587014
0.023585315
0.023582057
0.023578705
0.023573514
0.023561355
0.023548778
0.023539252
0.023530191
0.023533447
0.023548879
0.023568213
0.023576325
0.02356603
0.023546004
0.0235204
0.023504343
0.023497601
0.023494558
0.023501486
0.023513798
0.023523827
0.023514823
0.023458543
0.02337886
0.023340426
0.023346247
0.023339325
0.023302796
0.023234878
0.023104996
0.023038417
0.023056335
0.023006301
0.02287652
0.022729315
0.022700435
0.022640704
0.0226411
0.022578695
0.022605061
0.022888833
0.023314246
0.02264729
0.023513452
0.023516363
0.023519318
0.023522483
0.023525956
0.023529761
0.023533654
0.023535726
0.023538142
0.023540851
0.023540677
0.023539117
0.023536381
0.023532337
0.023528107
0.023523267
0.023517081
0.023514103
0.023513756
0.023513196
0.023514812
0.023518775
0.023527266
0.023532511
0.023532322
0.023513108
0.023469117
0.023425498
0.023383914
0.023365586
0.023385247
0.02338886
0.023335415
0.023252439
0.023143997
0.023104451
0.023115669
0.023005956
0.022861872
0.022765476
0.022771481
0.022741838
0.022652817
0.022645268
0.022594585
0.022645288
0.022939491
0.023324072
0.022607344
0.023424069
0.023427752
0.023431528
0.023435472
0.023439438
0.023443122
0.023446655
0.023451795
0.023456296
0.023458204
0.02346237
0.023468404
0.023474143
0.0234787
0.023482305
0.023487576
0.023489653
0.023485922
0.023482824
0.023483703
0.023486589
0.023487361
0.023484253
0.023479387
0.023467452
0.023447467
0.023421623
0.023394166
0.023380067
0.023386236
0.023366583
0.023314151
0.023280831
0.023252368
0.02319713
0.023146086
0.023052892
0.022885285
0.02278742
0.022777583
0.022770459
0.02272639
0.022663736
0.022650812
0.022616347
0.022689325
0.022982715
0.023311018
0.022608415
0.023296086
0.023298536
0.023301285
0.023304959
0.02330982
0.02331556
0.023321578
0.023327128
0.023334189
0.023342743
0.023349918
0.023357061
0.023364886
0.02337253
0.023381337
0.02338678
0.023394433
0.023406699
0.02341414
0.023421021
0.023429489
0.023434459
0.023432692
0.023427985
0.023423713
0.023417491
0.023414839
0.023407257
0.023372518
0.023334315
0.023309547
0.023279416
0.023263426
0.023222162
0.023148778
0.023073026
0.022960737
0.022851174
0.022794168
0.022779602
0.022738922
0.022690392
0.022684014
0.022683681
0.022634377
0.022720749
0.023009022
0.023295962
0.022512644
0.023205213
0.023211549
0.023218064
0.023224601
0.023230872
0.023236843
0.023243125
0.023250573
0.02325565
0.023257857
0.023260386
0.023262903
0.02326557
0.023268369
0.023269574
0.023272515
0.023276498
0.023283517
0.023299843
0.023319305
0.023337883
0.023353754
0.023364632
0.02336863
0.02336905
0.023367669
0.023368521
0.02337242
0.023364132
0.023331383
0.023289875
0.023248248
0.023195759
0.023156916
0.023110733
0.02302541
0.022947493
0.022887122
0.022805667
0.022755264
0.022725612
0.022704404
0.02272198
0.022698702
0.022646233
0.02272964
0.023000441
0.02329793
0.022520184
0.023145215
0.023150173
0.023155499
0.023161115
0.023166843
0.023172469
0.023177909
0.023183321
0.023189382
0.023195974
0.023202178
0.023208034
0.023214056
0.023220957
0.023228128
0.023236398
0.023244644
0.023251604
0.02325886
0.02326734
0.023277016
0.023288381
0.023300626
0.02331149
0.02331771
0.023316242
0.0233153
0.02331949
0.023329407
0.023337411
0.023340652
0.023287101
0.023215253
0.023152067
0.023105448
0.023059709
0.022991538
0.022929044
0.022833128
0.022779706
0.022736662
0.022717427
0.022729199
0.022692651
0.022654915
0.022722181
0.022974173
0.023233193
0.022660117
0.023097028
0.02310242
0.023108156
0.023114243
0.023120664
0.023127178
0.023133734
0.023140454
0.023147566
0.023155295
0.023163589
0.023172145
0.023180941
0.023190601
0.023201285
0.023212632
0.02322353
0.023232854
0.023240776
0.023248158
0.023256651
0.02326735
0.023279143
0.023292668
0.02330473
0.023315012
0.02333694
0.023342131
0.023313771
0.023292993
0.023266271
0.02325136
0.023221336
0.02316783
0.023122497
0.023103738
0.023052777
0.022965269
0.022868501
0.022803158
0.022744671
0.022713173
0.022716634
0.02268029
0.022665338
0.022720639
0.02293292
0.023157029
0.022713995
0.023028859
0.023036631
0.023045081
0.023054164
0.023063707
0.023073523
0.023083523
0.023093747
0.023104243
0.023115023
0.023126081
0.023137166
0.023148026
0.023158991
0.023169301
0.02317877
0.023188195
0.023198506
0.02320982
0.023221712
0.023233954
0.023246822
0.023261911
0.023275514
0.023289374
0.023300317
0.023293434
0.02328468
0.02328643
0.023272807
0.023242973
0.023237031
0.023233353
0.023183614
0.023143542
0.023124337
0.023064258
0.022984273
0.02289092
0.022819564
0.022769695
0.02272926
0.022699961
0.022674992
0.02267732
0.022717443
0.022857935
0.023149269
0.022707825
0.022962787
0.022969758
0.022977631
0.022986494
0.022996162
0.023006425
0.023017123
0.023028178
0.023039808
0.023051532
0.023063822
0.023076826
0.023089663
0.023103515
0.023117358
0.023130547
0.023143801
0.023157794
0.02317214
0.023186409
0.023199568
0.023210805
0.023219044
0.02322741
0.023234397
0.02324583
0.02325657
0.023263761
0.023276695
0.023274173
0.023257405
0.023231519
0.023191902
0.023164839
0.023133198
0.023084915
0.023045616
0.022999296
0.022927183
0.022843786
0.022805796
0.02276053
0.022688573
0.022677267
0.022682025
0.022715154
0.022767258
0.023112403
0.022749167
0.022915931
0.022920502
0.022926171
0.022932736
0.022939982
0.022947999
0.022957178
0.022967799
0.022979772
0.022993983
0.023009505
0.023023352
0.02303681
0.023050711
0.023063114
0.023075954
0.023091062
0.023104609
0.023117706
0.023129648
0.023141359
0.023150628
0.023160591
0.023171835
0.023180726
0.023189647
0.023200109
0.023215078
0.023222664
0.023219639
0.023210213
0.023191819
0.023161866
0.023137363
0.023108906
0.023069737
0.023035986
0.02300912
0.022956498
0.022890093
0.022834949
0.0227613
0.022690804
0.022687577
0.02268727
0.022721184
0.022685524
0.023006301
0.022818106
0.022891542
0.022894719
0.022898452
0.022902682
0.022907687
0.02291345
0.022919752
0.022926384
0.022934809
0.022946204
0.022959723
0.022976939
0.022997949
0.023020906
0.023039356
0.023050922
0.023062615
0.023073893
0.023080747
0.023091105
0.023102077
0.023114309
0.023124175
0.02313328
0.023145369
0.023152139
0.023153208
0.023156529
0.023162939
0.023168761
0.023170623
0.023159617
0.023138636
0.023109513
0.023073573
0.023038779
0.023019896
0.023001134
0.02297814
0.022915559
0.022851577
0.02278113
0.022718603
0.022702975
0.022713988
0.022743559
0.022633879
0.022833771
0.022800487
0.0229055
0.022914343
0.022922183
0.022930441
0.022939476
0.022946996
0.022954856
0.022971729
0.022995882
0.023018285
0.023043686
0.023061216
0.023067617
0.023073076
0.023077549
0.023086774
0.023095037
0.023103337
0.023111826
0.02310853
0.023104892
0.023111232
0.023120948
0.023124323
0.023118031
0.023103866
0.023075307
0.023049758
0.023038287
0.023019569
0.02298008
0.022931828
0.022911165
0.022871989
0.022817062
0.022759592
0.022736696
0.022763255
0.022760572
0.022612144
0.022674368
0.022685879
0.022990077
0.023013953
0.023041718
0.023045378
0.023040829
0.023047258
0.023051983
0.023055591
0.023051517
0.023054942
0.023067943
0.023076423
0.023079246
0.023080177
0.023077458
0.023064551
0.023033147
0.022981447
0.022935975
0.022931816
0.02291795
0.022879672
0.022853185
0.022802802
0.022780623
0.022804263
0.022784082
0.02261427
0.022584309
0.022567664
0.023007279
0.023016063
0.023031226
0.023043976
0.023050599
0.023054113
0.023051806
0.023031121
0.022984791
0.022921842
0.022906636
0.022917626
0.022909162
0.02290259
0.022881205
0.022831368
0.022829719
0.022847956
0.02281232
0.022632819
0.022560121
0.022531734
0.022938434
0.022911844
0.022914564
0.022937773
0.02291436
0.022908358
0.022906897
0.022892442
0.022863778
0.022875803
0.0228716
0.022822208
0.022660749
0.022571645
0.022530942
0.022889271
0.022901103
0.022904976
0.022894702
0.0228951
0.022901331
0.022877259
0.022818815
0.022675937
0.022581725
0.022538661
0.022911968
0.022900517
0.022869044
0.022807394
0.022664087
0.022594156
0.022550765
0.022858068
0.022783246
0.022650466
0.022604591
0.022561424
0.022652961
0.022612352
0.022555626
0.022547613
)
;

boundaryField
{
    Side
    {
        type            empty;
    }
    Inlet
    {
        type            calculated;
        value           nonuniform List<scalar> 
48
(
0.022389352
0.022408587
0.022437467
0.022464303
0.022471747
0.022473752
0.022474216
0.022473964
0.0224735
0.022470623
0.022465167
0.022465366
0.022469696
0.022478701
0.022492741
0.022513463
0.022539874
0.022560047
0.0225625
0.022559231
0.02255089
0.022542524
0.022548511
0.022576029
0.022616383
0.02262496
0.022604709
0.022582511
0.022562801
0.022546567
0.022526851
0.022501124
0.022469555
0.022462117
0.022470331
0.022481344
0.022482745
0.022480228
0.022482362
0.022497448
0.022517164
0.022524059
0.022522432
0.022518311
0.022513978
0.022511342
0.022510201
0.02251165
)
;
    }
    Airfoil
    {
        type            calculated;
        value           nonuniform List<scalar> 0();
    }
    Outlet
    {
        type            calculated;
        value           nonuniform List<scalar> 0();
    }
    procBoundary10to2
    {
        type            processor;
        value           uniform 0.025273231;
    }
    procBoundary10to3
    {
        type            processor;
        value           nonuniform List<scalar> 
23
(
0.023641301
0.023892318
0.024013385
0.024040149
0.024101904
0.024309691
0.024533286
0.024647133
0.024844933
0.024844933
0.025053124
0.023633985
0.023579808
0.023511087
0.023422287
0.023296122
0.02320118
0.023142075
0.023094249
0.023024853
0.022959331
0.022914084
0.02288993
)
;
    }
    procBoundary10to9
    {
        type            processor;
        value           nonuniform List<scalar> 
66
(
0.025269797
0.02525871
0.025255173
0.025250542
0.025242159
0.025231205
0.025214701
0.025196331
0.025186911
0.025177674
0.025163154
0.025163154
0.025389881
0.025353482
0.025313732
0.025270171
0.025222181
0.025173379
0.025136737
0.025111439
0.025097871
0.02506907
0.025021754
0.024920643
0.024781772
0.024635786
0.024635786
0.024607762
0.024460616
0.02441187
0.024254357
0.024075214
0.023882303
0.023882303
0.023810378
0.023531809
0.023332041
0.023332041
0.023150695
0.02313409
0.023083199
0.023083199
0.022952898
0.022712463
0.022712463
0.022594935
0.022594935
0.022465896
0.022519094
0.022519094
0.022406281
0.022406281
0.022395685
0.022395685
0.022235842
0.022257356
0.022257356
0.022333902
0.022333902
0.022225679
0.022232941
0.022232941
0.022312082
0.022314209
0.022314209
0.022288414
)
;
    }
    procBoundary10to11
    {
        type            processor;
        value           nonuniform List<scalar> 
58
(
0.0228723
0.022876286
0.022880469
0.02288479
0.022889301
0.022893934
0.022898696
0.022898696
0.022877088
0.022882121
0.022887987
0.022894907
0.022903082
0.022913118
0.022923381
0.022931862
0.022940061
0.02294877
0.022954824
0.022969206
0.022969206
0.022924022
0.022928785
0.02292799
0.022945547
0.022967091
0.02297715
0.022986692
0.022998914
0.022998914
0.022950217
0.022958996
0.022962867
0.022964397
0.02297125
0.022972072
0.0229601
0.0229601
0.02292216
0.022933454
0.0229386
0.022917693
0.022917693
0.02286666
0.022879294
0.022902146
0.022900192
0.022900192
0.022902994
0.022881137
0.022881137
0.022825961
0.022751466
0.022751466
0.022656005
0.022604656
0.022604656
0.022551469
)
;
    }
}


// ************************************************************************* //
