/*--------------------------------*- C++ -*----------------------------------*\
| =========                 |                                                 |
| \\      /  F ield         | OpenFOAM: The Open Source CFD Toolbox           |
|  \\    /   O peration     | Version:  2506                                  |
|   \\  /    A nd           | Website:  www.openfoam.com                      |
|    \\/     M anipulation  |                                                 |
\*---------------------------------------------------------------------------*/
FoamFile
{
    version     2.0;
    format      ascii;
    arch        "LSB;label=32;scalar=64";
    class       surfaceScalarField;
    location    "2.1";
    object      phi;
}
// * * * * * * * * * * * * * * * * * * * * * * * * * * * * * * * * * * * * * //

dimensions      [1 0 -1 0 0 0 0];

oriented        oriented;

internalField   nonuniform List<scalar> 
2652
(
-0.00050588395
48.09528
51.970293
0.0069950483
44.538732
0.0013613341
48.101081
51.976017
0.015482531
41.246194
0.010095497
44.544178
0.0033986521
48.107811
51.983264
0.026111298
38.200199
0.019577335
41.252739
0.012877417
44.550878
0.0050013335
48.115689
51.991652
0.039414888
35.377368
0.032102622
38.207395
0.024332036
41.260526
0.016156989
44.559005
0.0070458685
48.124847
52.0016
0.053624101
32.767762
0.046134666
35.38499
0.037770458
38.215711
0.028870006
41.269466
0.019319587
44.568482
0.0090274817
48.135157
52.012974
0.06922951
30.35345
0.061734326
32.775483
0.053055579
35.393799
0.043574536
38.225162
0.033408424
41.27968
0.022515819
44.579271
0.010977778
48.146718
52.025828
0.086915866
28.115425
0.079323447
30.361177
0.070567433
32.784472
0.060628414
35.403896
0.049952033
38.235812
0.038397744
41.291265
0.025991615
44.591571
0.012986815
48.159744
52.040343
0.10694523
26.04281
0.098483835
28.123877
0.089795077
30.370011
0.079766383
32.794716
0.068572868
35.415273
0.056619156
38.247764
0.04372119
41.304177
0.029693889
44.605526
0.015099992
48.174354
52.056653
0.12766044
24.12712
0.11872439
26.051609
0.10943478
28.133174
0.099721543
30.379869
0.088437014
32.806195
0.076115707
35.427786
0.062938149
38.26098
0.048674655
41.318452
0.033097094
44.62106
0.017134349
48.190323
52.074666
0.1499702
22.352869
0.14091422
24.136066
0.13106189
26.061347
0.12082413
28.143425
0.11000287
30.390821
0.097533663
32.818842
0.084005218
35.441495
0.069531326
38.275531
0.05390084
41.334105
0.036724523
44.638279
0.019095552
48.207962
52.094488
0.17492782
20.708809
0.16591393
22.361832
0.15604285
24.145844
0.14521656
26.072093
0.13387259
28.154769
0.12173377
30.403076
0.10791637
32.832821
0.093059712
35.456517
0.077070423
38.291627
0.059812467
41.351386
0.040837043
44.657344
0.021228241
48.227586
52.116399
0.19286962
20.717647
0.18290452
22.371709
0.17220736
24.156476
0.16034053
26.083913
0.1476777
28.16741
0.13419152
30.416667
0.11899575
32.848172
0.10264231
35.473026
0.084995687
38.309399
0.066051437
41.370373
0.045174479
44.678345
0.02351536
48.249272
52.14053
0.22066468
19.197703
0.21086357
20.727441
0.19995357
22.382514
0.18843352
24.167953
0.17555138
26.096773
0.16159499
28.181329
0.1466905
30.431671
0.13009312
32.864935
0.1123725
35.490905
0.093078475
38.328818
0.072330328
41.391182
0.049502526
44.701317
0.025785265
48.273049
52.166882
0.25126896
17.790852
0.24166411
19.20738
0.23083738
20.738244
0.21891853
22.394332
0.20638351
24.18045
0.19227933
26.11087
0.17692096
28.196636
0.16054396
30.448142
0.14237622
32.883292
0.12301133
35.510447
0.10184948
38.350095
0.079256717
41.41385
0.054305795
44.726407
0.02828615
48.299172
52.195709
0.28594134
16.486176
0.27607697
17.800663
0.26539992
19.218123
0.25338642
20.750221
0.240391
22.407248
0.22667253
24.194128
0.21120507
26.126337
0.19420631
28.21357
0.17613028
30.466308
0.15621569
32.903417
0.13511907
35.531744
0.11178121
38.373544
0.086995475
41.438732
0.059701827
44.753835
0.031099999
48.327905
52.22735
0.33379574
14.151487
0.32496868
15.278289
0.31531472
16.495949
0.30463555
17.811277
0.29280274
19.230022
0.27949318
20.763485
0.2652529
22.421439
0.2500533
24.209299
0.23297998
26.143416
0.21422265
28.232249
0.19425051
30.486362
0.17220452
32.925678
0.14904174
35.555121
0.12336068
38.399324
0.095991642
41.466212
0.065950857
44.78401
0.034333922
48.359683
52.26225
0.37964518
13.116465
0.37094248
14.160034
0.3612714
15.287959
0.35064637
16.506708
0.33865382
17.82319
0.32534815
19.243409
0.31052979
20.778257
0.29482611
22.437122
0.2778784
24.226239
0.25887163
26.162437
0.23792282
28.253112
0.2156754
30.508683
0.19131793
32.950243
0.16553765
35.581109
0.13705791
38.427897
0.10667594
41.496696
0.073301339
44.817518
0.038167549
48.394992
52.300992
0.43429655
12.156542
0.42605241
13.124641
0.41634986
14.169567
0.4052843
15.299048
0.39315058
16.518981
0.37978734
17.836455
0.3647515
19.258549
0.34816157
20.794811
0.330615
22.454671
0.31143265
24.245436
0.29003013
26.183864
0.26662631
28.276424
0.24173655
30.533645
0.21433333
32.977836
0.18552779
35.610111
0.15357636
38.459935
0.11963014
41.530733
0.082226003
44.85505
0.042800743
48.43459
52.344418
0.52292287
10.435068
0.51573907
11.267762
0.50708229
12.165337
0.49632801
13.135242
0.48468653
14.181024
0.47216422
15.311609
0.45819538
16.53309
0.44247071
17.852065
0.42488038
19.276263
0.4056006
20.814079
0.38512949
22.475155
0.36250203
24.268112
0.337726
26.208674
0.31039267
28.303656
0.28143037
30.562685
0.24968534
33.009749
0.21615676
35.643814
0.17887585
38.497292
0.1392972
41.570398
0.095897197
44.898569
0.049857466
48.480794
52.394946
-1.2328309
-0.0011834992
-1.2300136
-0.0017409073
-1.2271039
-0.003119625
-1.2242395
-0.0039457744
-1.2212782
-0.0064437523
-1.2181412
-0.0060294797
-1.2144858
-0.0043101551
-1.2102375
-0.0033122605
-1.2058383
-0.0015639539
-1.2013379
-0.003546211
-1.1967722
-0.0077582269
-1.1922694
-0.011159273
-1.1880271
-0.0085154195
-1.1840387
-0.0031928086
-1.1787567
-0.0026012436
-1.1707575
-0.0044415446
-1.161675
-0.0081735201
-1.1545402
-0.0048219587
-1.1505325
-0.0024107874
-1.1468428
-0.018690619
-1.1359078
-0.026205362
-1.1193964
-0.015962268
-0.0072267648
-1.348145
-0.0024774663
-1.3468772
-0.0030161267
-1.345851
-0.0041409773
-1.3452052
-0.0045862566
-1.3446492
-0.0069902762
-1.3439471
-0.0067305938
-1.3425648
-0.0056988912
-1.3406865
-0.0051852866
-1.3394328
-0.0028153422
-1.3390543
-0.003940387
-1.3392828
-0.0075496662
-1.3398054
-0.010593277
-1.3402464
-0.0080302856
-1.3405905
-0.0028897012
-1.3404846
-0.0027429372
-1.3387588
-0.0061483488
-1.3364462
-0.010397435
-1.335517
-0.0056867724
-1.3382171
0.00030878424
-1.3406797
-0.016317857
-1.3389909
-0.027943352
-1.333769
-0.021043332
-0.012365262
-1.4809029
-0.0022680211
-1.4812561
-0.0026731289
-1.4819511
-0.0034470652
-1.483166
-0.0033773392
-1.4844215
-0.0057331707
-1.4854053
-0.005738624
-1.4857969
-0.005296654
-1.4858019
-0.0051481463
-1.4858907
-0.0027069638
-1.486651
-0.0032156181
-1.4884686
-0.0057726819
-1.4904726
-0.0085652322
-1.4918096
-0.0066693859
-1.4923363
-0.0024177067
-1.4919233
-0.0031900273
-1.4905167
-0.0075058353
-1.4894007
-0.011409935
-1.4885391
-0.0064890468
-1.4895171
0.0011621147
-1.4905052
-0.01544413
-1.4874282
-0.031105386
-1.4798168
-0.028572086
-0.02250596
-1.6199699
-0.0015767989
-1.6207583
-0.0018954437
-1.6217699
-0.0024405568
-1.6230073
-0.0021477876
-1.6241433
-0.0045928972
-1.6251075
-0.004760435
-1.625629
-0.0047589221
-1.6256263
-0.0051155529
-1.625408
-0.0028959465
-1.6253038
-0.0033454406
-1.6258346
-0.0052776031
-1.6267813
-0.0076321513
-1.6271546
-0.0062821291
-1.626577
-0.0030257825
-1.6246621
-0.0051467637
-1.6227992
-0.0092589584
-1.6219848
-0.012122987
-1.6201799
-0.0082286496
-1.6194739
0.00022071779
-1.6171343
-0.017830184
-1.6151609
-0.033138322
-1.6116995
-0.032020589
-0.030827147
-1.7609957
-0.0011004375
-1.761505
-0.0013937616
-1.7620955
-0.0018530524
-1.762682
-0.0015686604
-1.7631144
-0.0041525435
-1.7635388
-0.0043167604
-1.7638352
-0.004446252
-1.7635468
-0.0053700409
-1.7627365
-0.0036884855
-1.7619088
-0.0041929901
-1.7616569
-0.0055528566
-1.7618807
-0.0074245922
-1.7615329
-0.0065997949
-1.7602694
-0.0043279269
-1.7580433
-0.0074404223
-1.7565862
-0.010595899
-1.7558624
-0.012727572
-1.7532346
-0.010815663
-1.7506027
-0.0025867472
-1.7476284
-0.020835941
-1.7463264
-0.034388502
-1.7442604
-0.034024635
-0.036445736
-1.9070913
-0.00091016962
-1.9073217
-0.0011692319
-1.9075389
-0.0016360535
-1.9076525
-0.0014614124
-1.9075717
-0.0042238487
-1.9075545
-0.0043114828
-1.9077021
-0.0042817054
-1.9073172
-0.0057238806
-1.9062984
-0.0046987577
-1.9050479
-0.0054581345
-1.9044082
-0.0062204104
-1.9043454
-0.0074992871
-1.9034229
-0.0074766725
-1.90177
-0.0060044444
-1.8996193
-0.0096652726
-1.8986676
-0.01146473
-1.8980318
-0.013253171
-1.8952267
-0.013609069
-1.8914575
-0.0065249932
-1.8884325
-0.023856759
-1.8876212
-0.035035706
-1.8864869
-0.034947118
-0.040146767
-2.0618805
-0.00092057244
-2.0619682
-0.0010878973
-2.061971
-0.0016339599
-2.0618369
-0.0016005944
-2.0614078
-0.0046429151
-2.0611615
-0.0045305287
-2.0611688
-0.0042604811
-2.0607663
-0.0060969726
-2.0597728
-0.0056940244
-2.0584214
-0.0068237011
-2.0575522
-0.0071148547
-2.0572759
-0.0077683556
-2.0560607
-0.0086382912
-2.0543563
-0.0077101533
-2.0524679
-0.011634537
-2.0515325
-0.012372598
-2.0506822
-0.014006725
-2.0478097
-0.016497269
-2.0434543
-0.010981423
-2.0406726
-0.026587671
-2.0401894
-0.035321599
-2.0396
-0.035092183
-0.044348623
-2.2276975
-0.0010353661
-2.2277154
-0.0010825716
-2.22755
-0.0018011359
-2.2272719
-0.0018822025
-2.2267302
-0.0051730563
-2.2263297
-0.0048953778
-2.2262211
-0.0043585637
-2.2257905
-0.006511914
-2.2249044
-0.0065818469
-2.2235953
-0.0081513387
-2.2225792
-0.0081535752
-2.2220971
-0.008226528
-2.2207103
-0.0099685505
-2.2189846
-0.0094176471
-2.2173522
-0.013356648
-2.2163977
-0.01335471
-2.2154271
-0.014899456
-2.212604
-0.019328915
-2.2081872
-0.015442228
-2.2057299
-0.02899175
-2.2049773
-0.035909064
-2.204953
-0.034854676
-0.048575432
-2.4061722
-0.0012171459
-2.4060903
-0.0011828588
-2.4058359
-0.002063805
-2.405484
-0.0022364275
-2.4049407
-0.0056972135
-2.4044398
-0.0053515209
-2.4041973
-0.0045896094
-2.403692
-0.0070130589
-2.4029096
-0.0073650345
-2.401748
-0.0093408186
-2.4006368
-0.009289256
-2.3999228
-0.0089183054
-2.3983776
-0.011434284
-2.3967962
-0.010993039
-2.3953503
-0.014907885
-2.3942396
-0.014550681
-2.3931129
-0.015974208
-2.3903931
-0.022018461
-2.3861271
-0.019684283
-2.3838817
-0.031234652
-2.3825263
-0.037166976
-2.3821861
-0.035127979
-2.3784808
-0.05198297
-0.05400722
-2.5986149
-0.0014757009
-2.5984252
-0.0013970507
-2.5980771
-0.002430864
-2.5977113
-0.0026014495
-2.5972219
-0.0061557076
-2.5966561
-0.0058612275
-2.5962585
-0.0049754649
-2.5956635
-0.0076111335
-2.5949736
-0.0080532485
-2.5940022
-0.01035335
-2.5928247
-0.010494305
-2.5918515
-0.0098906597
-2.5901415
-0.013044105
-2.5887175
-0.012420339
-2.5874919
-0.016249866
-2.5862454
-0.01594608
-2.5851169
-0.017083021
-2.5827099
-0.024336195
-2.5788437
-0.023484223
-2.5767325
-0.033415233
-2.5747096
-0.039080725
-2.5730611
-0.036468342
-2.5719714
-0.052857386
-0.059431026
-2.8062967
-2.8059871
-0.0017391613
-2.8055463
-0.0028995121
-2.8051789
-0.002963448
-2.8047404
-0.0065483384
-2.8041281
-0.0064058643
-2.8035752
-0.0055123584
-2.8029119
-0.0082855262
-2.8023041
-0.0086645161
-2.8015126
-0.011198847
-2.8003071
-0.011742859
-2.7991005
-0.011111855
-2.797258
-0.014775115
-2.7959284
-0.013729961
-2.794907
-0.017388047
-2.7935187
-0.017554145
-2.7925114
-0.018131322
-2.790454
-0.026233183
-2.7869166
-0.026921713
-2.7848485
-0.035585003
-2.7820364
-0.041763161
-2.7794501
-0.038715456
-2.7804072
-0.051686803
-0.063936915
-3.0301019
-0.0022006455
-3.0295681
-0.0034678352
-3.0291797
-0.0033396786
-3.0287462
-0.0069221854
-3.0280937
-0.0069806683
-3.0274191
-0.0061626972
-3.0267213
-0.0090002598
-3.0261697
-0.0092416786
-3.0255045
-0.011922274
-3.0243421
-0.012977632
-3.0230435
-0.012427444
-3.0211911
-0.016520384
-3.0198951
-0.014961584
-3.019032
-0.01835282
-3.0173585
-0.019515489
-3.0164957
-0.019159635
-3.014898
-0.027640366
-3.0118431
-0.029798594
-3.0103237
-0.037183686
-3.00685
-0.045096593
-3.0036869
-0.041598519
-3.0059163
-0.0493042
-0.066385831
-3.2721698
-0.0027534916
-3.2715477
-0.0041279592
-3.2711007
-0.0037723296
-3.2706198
-0.007330732
-3.2699324
-0.0075803065
-3.2691944
-0.0068675479
-3.2684843
-0.0097385979
-3.2679405
-0.0098314426
-3.2673222
-0.012598211
-3.266255
-0.014143393
-3.265048
-0.013653062
-3.2633061
-0.018162405
-3.2619916
-0.016182585
-3.2612809
-0.019138163
-3.2591979
-0.02193594
-3.258217
-0.020467551
-3.2570334
-0.028699226
-3.2542996
-0.032183058
-3.2538921
-0.037595629
-3.2498883
-0.049050847
-3.2462923
-0.045165744
-3.2467601
-0.048645004
-0.064065451
-3.5336709
-0.003371536
-3.5329767
-0.0048633737
-3.5324411
-0.0042938523
-3.5318934
-0.0077988476
-3.5311878
-0.008183665
-3.5304488
-0.0075601185
-3.5297318
-0.010502161
-3.5291535
-0.010479513
-3.5285535
-0.01326445
-3.5276311
-0.01517562
-3.5266711
-0.014636014
-3.5250776
-0.019666693
-3.5236148
-0.017537911
-3.5230637
-0.019718426
-3.5209118
-0.024410654
-3.5193006
-0.022494718
-3.5183753
-0.02966033
-3.515871
-0.034233243
-3.5147433
-0.038461313
-3.5160672
-0.047877905
-3.5107732
-0.050577556
-3.5097047
-0.049596682
-0.059505077
-3.816194
-0.0040468616
-3.8154603
-0.0056428547
-3.8148454
-0.0048939184
-3.814242
-0.00831832
-3.813517
-0.0087856204
-3.8128206
-0.0081914415
-3.8121271
-0.011259382
-3.8115184
-0.011190268
-3.8109188
-0.013951154
-3.8100151
-0.016188152
-3.8092208
-0.015444308
-3.8078415
-0.020986883
-3.8060421
-0.019221359
-3.8055581
-0.020191423
-3.8040177
-0.026151426
-3.8018754
-0.024995936
-3.8010076
-0.030718908
-3.7988774
-0.036085799
-3.7974845
-0.039139116
-3.8002551
-0.045487799
-3.7987034
-0.052265775
-3.7965488
-0.051823892
-0.05805215
-4.1214916
-0.0047740871
-4.1207676
-0.0064184003
-4.1201191
-0.0055291761
-4.1194793
-0.0088671901
-4.1186984
-0.0094261822
-4.1180729
-0.0087364976
-4.1174577
-0.011935049
-4.1168333
-0.011934096
-4.1161881
-0.014702541
-4.1150533
-0.017441264
-4.1142398
-0.016263861
-4.1135176
-0.021688891
-4.1117071
-0.020915479
-4.1110171
-0.020908184
-4.1098182
-0.027452747
-4.1074405
-0.027533884
-4.1068551
-0.031558741
-4.1058735
-0.037050856
-4.1051555
-0.03944414
-4.1062506
-0.044372808
-4.108741
-0.049969032
-4.1059083
-0.054868444
-4.1046266
-0.05911919
-0.067672687
-4.4514772
-0.0055337376
-4.4507918
-0.0071619531
-4.4501392
-0.0061752455
-4.4494883
-0.0094263125
-4.4486177
-0.010145392
-4.4480475
-0.0092228168
-4.4474275
-0.012599971
-4.4467253
-0.012743812
-4.4461475
-0.015372772
-4.4449329
-0.01876238
-4.4440286
-0.0171724
-4.4439988
-0.021759224
-4.4423961
-0.022388356
-4.4413272
-0.022049825
-4.4407911
-0.028175272
-4.4383082
-0.030003387
-4.43795
-0.032068093
-4.4385457
-0.036606467
-4.4374703
-0.040565452
-4.4380341
-0.043644476
-4.4385113
-0.049770911
-4.4392318
-0.054100372
-4.4393928
-0.058683322
-0.065193414
-4.8081637
-0.0063062058
-4.8075129
-0.0078817808
-4.8068654
-0.0068332804
-4.8062697
-0.0099328294
-4.8053618
-0.010892441
-4.8048422
-0.00966261
-4.8040923
-0.01337933
-4.8031738
-0.013742498
-4.8028009
-0.015806285
-4.8021238
-0.019486356
-4.8008796
-0.018394882
-4.8012271
-0.021564348
-4.7996675
-0.023856134
-4.7983178
-0.023358555
-4.7986435
-0.02802832
-4.79666
-0.032012032
-4.7954983
-0.033267096
-4.7970304
-0.035171409
-4.7975521
-0.039843603
-4.7971206
-0.044279066
-4.7986358
-0.048384859
-4.7990882
-0.053168634
-4.8017142
-0.05589684
-0.061102574
-5.193562
-0.0070936931
-5.1929252
-0.0086138518
-5.1923238
-0.0074659157
-5.1918078
-0.010356644
-5.1909082
-0.011628777
-5.1904202
-0.010081536
-5.1896807
-0.014133385
-5.1886239
-0.01484703
-5.1883526
-0.016114565
-5.1879694
-0.019859329
-5.1870954
-0.019181171
-5.1874973
-0.021312925
-5.1862837
-0.02512897
-5.1844049
-0.025147018
-5.1848129
-0.027547159
-5.1851022
-0.031778265
-5.1830358
-0.03546406
-5.1829704
-0.035429813
-5.1850624
-0.037923313
-5.1863468
-0.043338254
-5.1864638
-0.047475426
-5.1881581
-0.051498964
-5.1918099
-0.052786581
-5.1997219
-0.053494801
-0.072808869
-5.6098424
-0.0078563625
-5.6092621
-0.0093246101
-5.6087663
-0.0080240085
-5.6083526
-0.01067693
-5.6074929
-0.012335605
-5.606797
-0.010714469
-5.6061605
-0.014781373
-5.6054854
-0.015528447
-5.6048459
-0.016738704
-5.6053417
-0.019403277
-5.6041946
-0.020286511
-5.603515
-0.02187463
-5.6044113
-0.024312604
-5.6026933
-0.026973274
-5.601713
-0.028301693
-5.603534
-0.029925054
-5.6035949
-0.035444783
-5.6020522
-0.037138196
-5.6035694
-0.03716116
-5.6050954
-0.041526351
-5.6060486
-0.046073769
-5.6089869
-0.048935183
-5.6108673
-0.052026372
-5.6144871
-0.050396849
-0.062323186
-6.0595699
-0.0085333499
-6.0588593
-0.010208023
-6.0583583
-0.0086370689
-6.0579583
-0.01100925
-6.0573344
-0.012809016
-6.0565363
-0.011414668
-6.0559076
-0.015425079
-6.0554388
-0.015983214
-6.055296
-0.016764306
-6.055807
-0.018951363
-6.0548073
-0.021399437
-6.0533747
-0.023017216
-6.0542353
-0.023374196
-6.054491
-0.026871138
-6.0536864
-0.029221443
-6.0530581
-0.030505108
-6.0547661
-0.033763568
-6.0555986
-0.03651977
-6.0562385
-0.036750186
-6.0570021
-0.040105667
-6.060916
-0.042822502
-6.0613448
-0.048101677
-6.0648545
-0.048221684
-6.067068
-0.048394381
-0.054877784
-6.5453083
-0.0090169819
-6.5443912
-0.011322161
-6.5437574
-0.0094294551
-6.5433809
-0.011400397
-6.5428625
-0.013178332
-6.5422221
-0.011865852
-6.5419634
-0.015631272
-6.541309
-0.016656087
-6.5415695
-0.016458196
-6.540958
-0.019519824
-6.5413652
-0.021017927
-6.5413925
-0.02299794
-6.5395338
-0.025063766
-6.5408536
-0.025515714
-6.5419133
-0.028327387
-6.5416859
-0.030940345
-6.5424464
-0.032866141
-6.544165
-0.035367678
-6.543564
-0.037343971
-6.5460043
-0.03757428
-6.5483396
-0.040608973
-6.5506005
-0.045363558
-6.5547529
-0.043455457
-6.5565643
-0.046139111
-6.5625116
-0.049087772
-0.047102618
-7.069423
-0.0095147606
-7.0687251
-0.01220432
-7.0680313
-0.010296467
-7.0678135
-0.011713003
-7.0672492
-0.013630184
-7.0666755
-0.012142665
-7.0668076
-0.015385358
-7.0657917
-0.017715682
-7.0662162
-0.016132956
-7.0658455
-0.019893663
-7.0655797
-0.021170163
-7.0664181
-0.022330206
-7.0664368
-0.025166085
-7.0657495
-0.026122287
-7.0672078
-0.026819152
-7.0678569
-0.030256553
-7.0695692
-0.031383103
-7.0708665
-0.034410059
-7.0714417
-0.036542963
-7.0738142
-0.035692107
-7.0743845
-0.039495775
-7.0793091
-0.040488961
-7.0838562
-0.038780177
-7.0857382
-0.043899797
-7.0913393
-0.043591277
-0.041660241
-7.6353399
-0.010094972
-7.6348086
-0.012898179
-7.6340824
-0.011210997
-7.6339575
-0.012000133
-7.6336848
-0.013814408
-7.6329498
-0.012521486
-7.6333559
-0.014827853
-7.6333353
-0.017719568
-7.6326234
-0.016977041
-7.6332189
-0.019358177
-7.6332112
-0.021240838
-7.6331906
-0.022445498
-7.6342717
-0.024130154
-7.6342775
-0.026138907
-7.6347359
-0.026177704
-7.6358459
-0.028863529
-7.638135
-0.02967863
-7.6377888
-0.034327138
-7.6411935
-0.033163878
-7.6439375
-0.033163564
-7.645031
-0.038241488
-7.6497498
-0.036420561
-7.6514129
-0.037061126
-7.6564695
-0.038679267
-7.6618833
-0.038222726
-0.036077341
-8.2465618
-8.246234
-0.013355864
-8.2455442
-0.012087711
-8.2452818
-0.012496753
-8.2458483
-0.01329823
-8.2448242
-0.013302511
-8.2452774
-0.014082654
-8.2456028
-0.017225561
-8.2446993
-0.017941739
-8.2454309
-0.018698476
-8.2464039
-0.02049258
-8.2466544
-0.022368774
-8.2471059
-0.023687868
-8.2470598
-0.026175378
-8.2476137
-0.025637865
-8.249418
-0.027000351
-8.2511241
-0.027795653
-8.2524541
-0.032610429
-8.2559177
-0.029833451
-8.2573083
-0.032054992
-8.26156
-0.034648584
-8.2667228
-0.0317387
-8.2706435
-0.032813107
-8.2738023
-0.035206692
-8.2777269
-0.034457366
-8.280393
-0.033508675
-0.038359193
-8.9066552
-0.013789348
-8.9062266
-0.012657126
-8.9065011
-0.012456295
-8.9071473
-0.012893718
-8.9064387
-0.01403416
-8.9062644
-0.013900283
-8.9062817
-0.016846615
-8.9062364
-0.017864453
-8.906336
-0.018568557
-8.9069255
-0.020017123
-8.9082814
-0.02107557
-8.909413
-0.022718507
-8.9102048
-0.025671182
-8.911082
-0.024930594
-8.9123787
-0.025732425
-8.9124349
-0.027501446
-8.9160265
-0.028892074
-8.918522
-0.027358893
-8.9209791
-0.029627541
-8.9241895
-0.031726668
-8.9273518
-0.028966115
-8.9311656
-0.02894827
-8.9340812
-0.032402344
-8.9388222
-0.030225458
-8.941835
-0.030677647
-0.032841624
-9.6203662
-0.013485478
-9.6202417
-0.01292916
-9.6200279
-0.012844525
-9.6203224
-0.012904246
-9.6206821
-0.013871152
-9.6204366
-0.014039891
-9.6209974
-0.016051097
-9.6210166
-0.017506562
-9.6209056
-0.018454944
-9.6210241
-0.019869071
-9.6224668
-0.019557281
-9.6230833
-0.022333251
-9.625331
-0.023804114
-9.6266366
-0.023899895
-9.6278639
-0.024582765
-9.6297357
-0.025617105
-9.6318955
-0.026677835
-9.6340454
-0.025144313
-9.6377105
-0.025741259
-9.6417732
-0.027581405
-9.6440368
-0.026753182
-9.6460167
-0.026984565
-9.6498527
-0.028890345
-9.6534476
-0.027030759
-9.6565223
-0.027735451
-9.6612363
-0.028221679
-0.026134391
-10.391342
-0.012679618
-10.391522
-0.012823762
-10.391164
-0.013343801
-10.391128
-0.013221773
-10.391489
-0.013865095
-10.391657
-0.01418822
-10.392396
-0.015305627
-10.392933
-0.01664886
-10.393227
-0.017986775
-10.393023
-0.019796452
-10.393218
-0.019137405
-10.395202
-0.020387135
-10.396972
-0.022210872
-10.399099
-0.022005105
-10.400814
-0.023008553
-10.403651
-0.022924001
-10.405553
-0.024885659
-10.409613
-0.021241524
-10.410412
-0.024757491
-10.412624
-0.025240982
-10.415356
-0.02395607
-10.417096
-0.025131153
-10.421301
-0.024703204
-10.424191
-0.024119813
-10.427426
-0.024427731
-10.431547
-0.024193007
-0.022827607
-11.223555
-0.012181666
-11.223588
-0.012668232
-11.223796
-0.013151772
-11.223798
-0.013407562
-11.224263
-0.013872299
-11.224616
-0.014404039
-11.224875
-0.015155866
-11.226176
-0.015364238
-11.227351
-0.016533499
-11.22787
-0.01891365
-11.227985
-0.018796867
-11.229166
-0.018929214
-11.230471
-0.020792547
-11.232282
-0.020340471
-11.234705
-0.021128037
-11.235385
-0.022111719
-11.23937
-0.021307388
-11.240556
-0.020503837
-11.242945
-0.022542257
-11.246535
-0.021849313
-11.247898
-0.02257443
-11.251104
-0.021810096
-11.254376
-0.021338709
-11.257039
-0.021338779
-11.260901
-0.020507051
-11.264435
-0.020719097
-0.019634203
-12.122411
-0.011979807
-12.122806
-0.012285984
-12.122932
-0.013005197
-12.123011
-0.013257759
-12.123622
-0.013384649
-12.124442
-0.013849847
-12.124866
-0.015084218
-12.125753
-0.014783244
-12.126823
-0.015432794
-12.127959
-0.017616933
-12.129307
-0.017261768
-12.129975
-0.017994701
-12.130646
-0.019888231
-12.133533
-0.017605247
-12.135592
-0.018781975
-12.136379
-0.021018891
-12.139655
-0.018376565
-12.140327
-0.020229646
-12.142551
-0.020665697
-12.146211
-0.018427435
-12.147498
-0.021381133
-12.151173
-0.018242195
-12.153544
-0.019035862
-12.156442
-0.018460302
-12.159392
-0.017543831
-12.162359
-0.01773275
-0.016614057
-13.093521
-13.09419
-0.011827907
-13.094644
-0.012530089
-13.094962
-0.012854216
-13.095597
-0.012755857
-13.095712
-0.013750743
-13.09678
-0.014255719
-13.097853
-0.01405117
-13.097795
-0.015689977
-13.099669
-0.015901494
-13.101595
-0.015312192
-13.103225
-0.016137063
-13.105057
-0.017911033
-13.106821
-0.015607925
-13.107333
-0.017780816
-13.109704
-0.018485267
-13.111404
-0.016721472
-13.112698
-0.019033782
-13.115451
-0.018034448
-13.116674
-0.017296586
-13.119766
-0.018459364
-13.122085
-0.016143122
-13.124726
-0.016662892
-13.127579
-0.015940749
-13.130233
-0.015216562
-13.13273
-0.015542956
-0.014333349
-14.14303
-0.011603388
-14.143238
-0.012382986
-14.144049
-0.012112825
-14.144726
-0.012074144
-14.144935
-0.013400841
-14.146022
-0.013239002
-14.147475
-0.012716686
-14.148196
-0.015278198
-14.15045
-0.014195507
-14.151606
-0.014270172
-14.151664
-0.016126549
-14.154135
-0.01530531
-14.155065
-0.01460156
-14.156084
-0.016606339
-14.158841
-0.015653807
-14.160352
-0.015042759
-14.162356
-0.016733587
-14.164565
-0.015464183
-14.166024
-0.01540675
-14.168508
-0.015603389
-14.170316
-0.014083335
-14.172482
-0.01443345
-14.174624
-0.013912454
-14.176765
-0.013269641
-14.178989
-0.013542504
-0.012495734
-15.276114
-0.011317135
-15.276816
-0.011986752
-15.277525
-0.011719355
-15.277673
-0.012076908
-15.278369
-0.012750003
-15.279369
-0.012196563
-15.27967
-0.01224528
-15.28148
-0.013319765
-15.282961
-0.012668007
-15.284739
-0.012658145
-15.286539
-0.014693091
-15.288493
-0.013655634
-15.28959
-0.013651163
-15.290789
-0.015569412
-15.292715
-0.013959849
-15.29366
-0.01421014
-15.295643
-0.014748263
-15.297526
-0.013456195
-15.299027
-0.01366529
-15.301115
-0.01329181
-15.302676
-0.012359476
-15.304517
-0.01252533
-15.306529
-0.011897265
-15.308054
-0.011747591
-15.310127
-0.011462706
-0.010985377
-16.499534
-16.500592
-0.011077149
-16.50115
-0.011249843
-16.501508
-0.011851028
-16.502544
-0.011974752
-16.503672
-0.011197276
-16.504199
-0.011706029
-16.505155
-0.012275301
-16.506197
-0.011527925
-16.506424
-0.012239518
-16.508466
-0.012673612
-16.510279
-0.012032253
-16.511707
-0.012299276
-16.514093
-0.013231845
-16.515911
-0.012221814
-16.517728
-0.012433156
-16.519465
-0.013075467
-16.520987
-0.011991758
-16.522226
-0.012438062
-16.52372
-0.011799854
-16.524999
-0.011055782
-16.52648
-0.010994416
-16.528154
-0.010150343
-16.529757
-0.010045865
-16.531531
-0.009577348
-0.0093060345
-17.821348
-0.010115486
-17.82211
-0.010440055
-17.822684
-0.011283191
-17.824029
-0.010813557
-17.824966
-0.010435648
-17.825559
-0.011043404
-17.826802
-0.010990058
-17.828193
-0.010178389
-17.828949
-0.011506847
-17.830537
-0.011216986
-17.83196
-0.010665825
-17.832758
-0.011467656
-17.834869
-0.011136328
-17.836457
-0.010683935
-17.837849
-0.011107931
-17.839752
-0.011285518
-17.841293
-0.010548956
-17.842493
-0.011310992
-17.844024
-0.010338546
-17.845021
-0.010109756
-17.846652
-0.0094195021
-17.847769
-0.0091010896
-17.849279
-0.0086207744
-17.850637
-0.0083204257
-0.0079807374
-19.248797
-0.0088892142
-19.249462
-0.0097184632
-19.249936
-0.010663409
-19.250368
-0.010302998
-19.250764
-0.0099048051
-19.251934
-0.0096281957
-19.253817
-0.0091387637
-19.254764
-0.0093845658
-19.255968
-0.010423334
-19.257126
-0.010159234
-19.257761
-0.010080672
-19.258725
-0.010507469
-19.259456
-0.010396173
-19.260855
-0.0092360554
-19.262457
-0.0094291534
-19.264371
-0.0093051058
-19.266225
-0.008609664
-19.268152
-0.0092822832
-19.269737
-0.0086493809
-19.270926
-0.0088209379
-19.272234
-0.0080150147
-19.273336
-0.0078911378
-19.274357
-0.0074842746
-19.275376
-0.0071819561
-0.0069747959
-20.789701
-20.790898
-0.0085224201
-20.792275
-0.0091950582
-20.793188
-0.0091834358
-20.793656
-0.0092208065
-20.793691
-0.0094172895
-20.794724
-0.00804571
-20.796585
-0.0075032309
-20.797557
-0.0094822109
-20.799073
-0.0087244185
-20.799868
-0.009332559
-20.800593
-0.0098066236
-20.801311
-0.0097333025
-20.80161
-0.0089851485
-20.802714
-0.0083663681
-20.804025
-0.0080112202
-20.804971
-0.0076449776
-20.806828
-0.00737704
-20.808164
-0.007236075
-20.809692
-0.0072007879
-20.81061
-0.0070001005
-20.811649
-0.0067650529
-20.812459
-0.0066054829
-20.813267
-0.0063282626
-0.0061453553
-22.454526
-0.0071130635
-22.45587
-0.0077782637
-22.456586
-0.008276338
-22.457167
-0.0084247286
-22.457748
-0.008661788
-22.458035
-0.007779237
-22.458812
-0.0067140583
-22.460266
-0.0080166794
-22.46167
-0.0074028552
-22.463321
-0.0077680543
-22.465012
-0.0081633618
-22.466701
-0.0080782523
-22.467256
-0.0084460723
-22.467665
-0.0079773018
-22.467955
-0.0077368156
-22.468126
-0.0074550665
-22.468392
-0.007048988
-22.468829
-0.0067167944
-22.469615
-0.0063334492
-22.470471
-0.0060834018
-22.471593
-0.0056070251
-22.472814
-0.0053674857
-22.474024
-0.0051094981
-0.0050044544
-24.250606
-24.253071
-0.0052676624
-24.25428
-0.007120189
-24.255485
-0.0072496732
-24.257326
-0.0068471116
-24.257705
-0.0074232907
-24.256983
-0.0073578234
-24.257653
-0.0072395232
-24.258007
-0.0069448432
-24.258971
-0.0066769488
-24.260366
-0.0066835043
-24.262172
-0.0062367403
-24.263822
-0.0067733944
-24.265149
-0.0066274698
-24.266155
-0.0067367989
-24.266654
-0.0069866422
-24.266815
-0.0068998975
-24.26671
-0.0067864373
-24.266643
-0.0063175719
-24.266535
-0.0060846111
-24.26662
-0.005414168
-24.266887
-0.0050055444
-24.267421
-0.0044930847
-0.0042436008
-26.19127
-26.192692
-0.0058582595
-26.194504
-0.0055640312
-26.196032
-0.0054113204
-26.197599
-0.0059343447
-26.19826
-0.0068310389
-26.198731
-0.0068481578
-26.199215
-0.0065600031
-26.19949
-0.0065659937
-26.199598
-0.0067062862
-26.19959
-0.0063510909
-26.200383
-0.0060583078
-26.201121
-0.0059345468
-26.20209
-0.0058537668
-26.203421
-0.0057288797
-26.204372
-0.0059939024
-26.20544
-0.0057713625
-26.206249
-0.0055833883
-26.207181
-0.0052152133
-26.207635
-0.0049915672
-26.20805
-0.0046062621
-26.208381
-0.0041602095
-0.0039246165
-28.288854
-0.0050915338
-28.289423
-0.0049893787
-28.289951
-0.0048223239
-28.291242
-0.0046934237
-28.292255
-0.0058954207
-28.293112
-0.0060371063
-28.294095
-0.0057586405
-28.294859
-0.0059234086
-28.295224
-0.0064805258
-28.295674
-0.0060581272
-28.295824
-0.0059865605
-28.296189
-0.005633809
-28.296741
-0.0053965712
-28.297673
-0.004903381
-28.298609
-0.0051022907
-28.299623
-0.0047934769
-28.300563
-0.0047074486
-28.301471
-0.0043793508
-28.302253
-0.0043049377
-28.302865
-0.0041077721
-28.303295
-0.0038351379
-0.0036649798
-30.55208
-30.552534
-0.0045621882
-30.552822
-0.0045703805
-30.5527
-0.0048152549
-30.553504
-0.0049803344
-30.554383
-0.005096327
-30.555202
-0.0048719051
-30.555855
-0.0051392435
-30.556936
-0.0053251822
-30.558017
-0.0048941925
-30.558612
-0.0052503375
-30.559127
-0.0050037588
-30.559899
-0.0045656742
-30.560111
-0.0045662243
-30.560523
-0.0045184643
-30.56084
-0.0042993673
-30.561231
-0.0041479178
-30.561391
-0.0040786546
-30.561772
-0.0038125458
-30.562101
-0.0036816347
-30.562346
-0.0035112488
-0.0032517319
-32.998317
-32.998951
-0.0040163824
-32.999607
-0.0041618038
-33.000397
-0.0041315772
-33.001225
-0.0041880292
-33.001725
-0.0042950518
-33.002248
-0.0045006263
-33.003126