/*--------------------------------*- C++ -*----------------------------------*\
| =========                 |                                                 |
| \\      /  F ield         | OpenFOAM: The Open Source CFD Toolbox           |
|  \\    /   O peration     | Version:  2506                                  |
|   \\  /    A nd           | Website:  www.openfoam.com                      |
|    \\/     M anipulation  |                                                 |
\*---------------------------------------------------------------------------*/
FoamFile
{
    version     2.0;
    format      ascii;
    arch        "LSB;label=32;scalar=64";
    class       surfaceScalarField;
    location    "0.001";
    object      phi;
}
// * * * * * * * * * * * * * * * * * * * * * * * * * * * * * * * * * * * * * //

dimensions      [1 0 -1 0 0 0 0];

oriented        oriented;

internalField   nonuniform List<scalar> 
27063
(
0.0069455284
-0.024621048
0.0063863461
-0.022940798
-0.021362526
0.010974286
-0.033844311
0.010123265
-0.031628602
0.0093339025
-0.02954024
0.0086027938
-0.027575248
0.007926115
-0.025727713
0.0072996239
-0.023990796
0.006719835
-0.02235845
0.0061839127
-0.020824971
-0.019385325
0.014469279
-0.040133108
0.013380483
-0.037572717
0.01236719
-0.035158914
0.01142469
-0.032884049
0.010548808
-0.030739445
0.0097354799
-0.028717011
0.0089807073
-0.026813129
0.0082806933
-0.02502233
0.0076322378
-0.023338544
0.0070322472
-0.02175591
0.0064772019
-0.020268326
0.0059636999
-0.018870944
-0.017560626
0.020313451
-0.050363369
0.018835054
-0.047241171
0.017459462
-0.044295673
0.016177223
-0.041516853
0.014981633
-0.038896296
0.013866968
-0.036425845
0.012828402
-0.034095765
0.011861701
-0.031898892
0.010962526
-0.029826537
0.010126835
-0.027871127
0.0093509273
-0.02602969
0.0086311392
-0.02429707
0.0079635321
-0.0226671
0.0073443273
-0.021134157
0.006770358
-0.019692791
0.0062386348
-0.018338391
-0.017067973
0.026201725
-0.058757868
0.024300668
-0.055192059
0.022542939
-0.051826431
0.020917382
-0.048654703
0.019409574
-0.045659022
0.018006369
-0.042828754
0.016698308
-0.040155834
0.01547784
-0.037633091
0.014338574
-0.035253042
0.01327599
-0.033007516
0.012285581
-0.03088921
0.011363117
-0.028889759
0.010504937
-0.027002367
0.0097071953
-0.025224159
0.0089656455
-0.023549862
0.008276784
-0.021974251
0.0076376894
-0.020492399
0.0070451407
-0.019098612
0.0064959588
-0.017788369
0.0059870979
-0.016558877
-0.015405983
0.033755058
-0.068051077
0.031258193
-0.063993201
0.028970235
-0.060184708
0.026870827
-0.056585344
0.024940511
-0.053176767
0.023156241
-0.049954553
0.021499765
-0.046913718
0.019963179
-0.044046181
0.018533398
-0.041333428
0.017200393
-0.038768224
0.015955664
-0.036344105
0.014792811
-0.034055293
0.01370701
-0.0318949
0.012694016
-0.02985605
0.011749964
-0.027930758
0.010870903
-0.026112307
0.010052688
-0.024397878
0.0092916684
-0.022783007
0.0085844865
-0.021262977
0.0079276291
-0.019832813
0.0073177349
-0.01848705
0.0067517464
-0.017221528
0.0062267061
-0.016033611
0.0057398048
-0.014919413
-0.013876047
0.043449463
-0.07843853
0.040246961
-0.0737695
0.037253905
-0.069394653
0.034491828
-0.065290923
0.031958915
-0.061435252
0.029637185
-0.057811319
0.027507463
-0.054383654
0.02554792
-0.051133683
0.023738108
-0.048056274
0.022058649
-0.045148397
0.020494153
-0.042403527
0.019038442
-0.039810179
0.017681247
-0.037354631
0.016413419
-0.035030465
0.015228284
-0.032833923
0.014120885
-0.030759564
0.013086781
-0.028800887
0.012122015
-0.02695039
0.011222746
-0.025201595
0.010384949
-0.023551734
0.0096048278
-0.021996874
0.0088788286
-0.020532772
0.0082037525
-0.019154934
0.0075765406
-0.017858136
0.0069941559
-0.016638285
0.0064536687
-0.015492913
0.0059521233
-0.014418218
0.0054866449
-0.013411484
-0.012468216
0.055239453
-0.090113844
0.0513504
-0.084680494
0.047710384
-0.079616259
0.044267737
-0.074933888
0.041018744
-0.07052548
0.037985824
-0.06638861
0.035186703
-0.062502793
0.032619239
-0.058849097
0.030265675
-0.055410443
0.028107293
-0.052155678
0.026121839
-0.049064905
0.024288275
-0.046133928
0.022587415
-0.043360394
0.021001872
-0.040737843
0.019520881
-0.038259527
0.018139711
-0.035915197
0.016849903
-0.033693296
0.015644139
-0.031590661
0.014516568
-0.02960303
0.013462582
-0.02772502
0.012478241
-0.025949819
0.0115598
-0.024271275
0.010703512
-0.022686842
0.009905728
-0.021192946
0.0091629958
-0.019785774
0.0084718839
-0.018460999
0.0078291331
-0.017213692
0.0072317245
-0.016040052
0.0066766313
-0.01493766
0.0061609172
-0.013902924
0.0056819019
-0.012933443
0.0052373014
-0.012025092
-0.011174289
0.070049643
-0.10291364
0.065056247
-0.096771607
0.060423629
-0.091056239
0.056156159
-0.085646435
0.052212541
-0.080553128
0.048521163
-0.075798406
0.045033942
-0.071401652
0.04174343
-0.067255861
0.038673091
-0.063357164
0.035839135
-0.059689672
0.033239575
-0.05623815
0.0308575
-0.052986182
0.028672366
-0.049903447
0.02666243
-0.046971871
0.024806482
-0.044188465
0.023084488
-0.041550031
0.021480521
-0.039052019
0.019980945
-0.036688196
0.018576947
-0.034451077
0.017265321
-0.032332802
0.01603939
-0.030326027
0.014892591
-0.028426331
0.013819898
-0.026629727
0.012817188
-0.02493033
0.011880724
-0.023322536
0.011006987
-0.021804253
0.01019245
-0.020372148
0.0094334463
-0.019022481
0.0087265399
-0.017751299
0.0080685279
-0.016554043
0.0074563391
-0.015427105
0.0068870052
-0.014368241
0.0063578037
-0.013374217
0.0058661117
-0.012442787
0.005409412
-0.011569948
-0.010752244
0.089007139
-0.11641023
0.082441841
-0.10958759
0.076479529
-0.10321849
0.071033696
-0.097228494
0.066001991
-0.091505841
0.061323984
-0.086179972
0.057004984
-0.081143495
0.053009914
-0.076395299
0.049273664
-0.071956884
0.045745104
-0.067846503
0.042415742
-0.06396357
0.039310419
-0.060304119
0.036444351
-0.056854872
0.033815869
-0.05360627
0.031408115
-0.050541206
0.029199262
-0.047629995
0.027167337
-0.044857311
0.025290542
-0.042220989
0.023548945
-0.039718628
0.021927026
-0.037346825
0.020411343
-0.03509887
0.018991346
-0.032969208
0.017659559
-0.030950751
0.016413238
-0.029039889
0.015247558
-0.027229893
0.014157118
-0.025516064
0.013137382
-0.023893377
0.0121844
-0.022356975
0.011294417
-0.020905228
0.010463892
-0.019535275
0.0096894989
-0.018243799
0.0089679724
-0.017027052
0.0082960377
-0.015880578
0.0076705544
-0.014800986
0.0070885056
-0.01378625
0.0065471123
-0.012833476
0.0060437083
-0.011940556
0.0055758266
-0.01110376
0.0051413359
-0.010319705
-0.0095855033
0.12178062
-0.13907848
0.11305375
-0.13076524
0.10488189
-0.12302373
0.097230028
-0.1158262
0.090032699
-0.10912884
0.083412822
-0.10287067
0.07741337
-0.097014351
0.071936785
-0.091490184
0.066869473
-0.086194261
0.062148376
-0.081269383
0.057782685
-0.076613679
0.053742397
-0.072214831
0.049962557
-0.068093873
0.046396326
-0.064272742
0.043034357
-0.06065451
0.039898032
-0.05723382
0.037003936
-0.05400279
0.034348724
-0.050955459
0.031917309
-0.04807695
0.029688092
-0.04533836
0.027637647
-0.042724374
0.025742142
-0.040233941
0.023982676
-0.037867733
0.022343671
-0.035622855
0.020812183
-0.033492361
0.019376852
-0.031470339
0.018029895
-0.029552182
0.016765535
-0.02773475
0.015581604
-0.02601449
0.014474137
-0.024384889
0.013438343
-0.022840038
0.01246992
-0.021375778
0.011564744
-0.019990912
0.010719325
-0.018683488
0.0099304949
-0.017450726
0.0091949998
-0.016288945
0.0085096331
-0.015193831
0.0078713065
-0.014162196
0.0072770273
-0.013192219
0.0067240233
-0.012281322
0.0062096158
-0.011427516
0.0057311706
-0.01062718
0.0052864534
-0.0098770873
-0.0091746288
0.16640976
-0.16433143
0.15478635
-0.15485353
0.14322476
-0.14534973
0.13257462
-0.13687679
0.12298197
-0.12884711
0.11418024
-0.12135265
0.10592515
-0.1143665
0.098200811
-0.10785742
0.090949841
-0.10178907
0.084285331
-0.096101362
0.078256006
-0.090759246
0.0727522
-0.085705124
0.067654638
-0.080847995
0.062893233
-0.07633284
0.058483688
-0.072062584
0.05440366
-0.068017831
0.050587568
-0.064215996
0.046988761
-0.060685131
0.043595985
-0.057329226
0.040431106
-0.054147592
0.037512162
-0.051136121
0.03483435
-0.048289029
0.032381866
-0.045595531
0.030134105
-0.043029377
0.028066101
-0.040574152
0.026154504
-0.038229529
0.024379578
-0.035999634
0.022725362
-0.033881916
0.021178751
-0.031869251
0.019729285
-0.029956036
0.01836904
-0.02813916
0.017091961
-0.026416139
0.015892907
-0.024783366
0.014769601
-0.023237434
0.013718738
-0.02177144
0.012735997
-0.020380231
0.011817014
-0.019062801
0.010958216
-0.017818398
0.010156293
-0.01664468
0.0094079281
-0.015538133
0.00871001
-0.014494728
0.0080596543
-0.013511585
0.0074539811
-0.012587019
0.0068901336
-0.011718551
0.0063653397
-0.010904326
0.005876909
-0.010140812
0.0054227613
-0.0094252313
0.0050007961
-0.0087549728
-0.0081274625
0.26156662
-0.2163482
0.21484923
-0.20192542
0.21937057
-0.19594235
0.2145875
-0.18259572
0.19799657
-0.17090963
0.1807606
-0.15972903
0.16773066
-0.15008425
0.15601825
-0.14176544
0.14437248
-0.13329385
0.13367521
-0.12573843
0.12403314
-0.11855294
0.11516353
-0.11188705
0.10683618
-0.10565853
0.099049079
-0.099837696
0.091755344
-0.094400181
0.085054313
-0.089285219
0.079002218
-0.084458624
0.073477155
-0.079883184
0.068351316
-0.075474647
0.063552691
-0.071376578
0.059106267
-0.067497612
0.05499243
-0.063808658
0.051144526
-0.060325486
0.04751691
-0.057084836
0.044099533
-0.053991779
0.040911717
-0.051049358
0.037970097
-0.048255171
0.035272846
-0.045608806
0.03280302
-0.043099885
0.030538511
-0.040704333
0.028454605
-0.038407694
0.026529054
-0.036209539
0.02474074
-0.03411641
0.023072663
-0.032125475
0.021512464
-0.030231105
0.020050388
-0.028428129
0.018678103
-0.026713208
0.017389125
-0.025084841
0.016178651
-0.02354046
0.015042565
-0.022077059
0.013977682
-0.020688688
0.012981493
-0.019371138
0.012049974
-0.018122292
0.011179398
-0.016941722
0.010366035
-0.015827384
0.0096062916
-0.014776154
0.0088970435
-0.013784526
0.0082355849
-0.012850115
0.0076191964
-0.011971354
0.0070450924
-0.011145774
0.0065104857
-0.01037159
0.0060127552
-0.0096453772
0.005549763
-0.0089647593
0.0051193709
-0.0083271249
-0.0077301421
0.61987062
-0.39660874
0.57467229
-0.36553813
0.53301481
-0.33690169
0.49462095
-0.31050862
0.45922218
-0.28618331
0.42630896
-0.26376628
0.39442866
-0.24314127
0.36047086
-0.22428597
0.31868077
-0.20736677
0.26389126
-0.19289034
0.21625306
-0.18069522
0.220512
-0.17586751
0.21594177
-0.16409367
0.19928662
-0.15383652
0.18198943
-0.144098
0.16884218
-0.13576357
0.15705789
-0.12861307
0.14534637
-0.12117311
0.13461408
-0.11453713
0.12492777
-0.10821022
0.11599962
-0.10237886
0.10761157
-0.09691009
0.099772179
-0.091776544
0.092444896
-0.086970969
0.085716685
-0.082427847
0.079647949
-0.078119739
0.074105008
-0.074032034
0.068953946
-0.070081348
0.064126071
-0.066408633
0.059648498
-0.062922012
0.055504367
-0.059586958
0.051630521
-0.056424142
0.047980533
-0.053474013
0.044543234
-0.050643995
0.041335388
-0.04793898
0.038374335
-0.04536095
0.035661356
-0.042916845
0.033177827
-0.040592372
0.030899178
-0.038365126
0.0288023
-0.036226856
0.026864534
-0.034176159
0.025064567
-0.032219782
0.023384909
-0.030355865
0.021813022
-0.028580012
0.020339026
-0.026887462
0.018954887
-0.025274759
0.017654727
-0.023741893
0.016433796
-0.022286751
0.015287633
-0.020906407
0.014212215
-0.019595416
0.013204081
-0.01835027
0.012261234
-0.017170554
0.011380146
-0.016054622
0.010556599
-0.015000187
0.0097870376
-0.014004608
0.0090681773
-0.013064963
0.0083972419
-0.01217943
0.0077715209
-0.011346625
0.007188333
-0.01056418
0.0066449277
-0.0098303225
0.0061388691
-0.0091418624
0.0056679552
-0.0084966094
0.0052300759
-0.0078920307
-0.0073260053
15.198021
-9.0777289
14.005459
-8.3658181
12.911006
-7.71031
11.902902
-7.1062668
10.973804
-6.5495579
10.117493
-6.0364625
9.3282658
-5.5635632
8.6008673
-5.127711
7.9304534
-4.7260039
7.3125601
-4.3557665
6.7430728
-4.0145338
6.2181995
-3.7000333
5.7344449
-3.410171
5.2885879
-3.1430165
4.8776596
-2.8967911
4.4989236
-2.6698553
4.1498579
-2.4606975
3.8281382
-2.2679254
3.5316222
-2.090255
3.2583353
-1.9265035
3.0064579
-1.7755803
2.7743127
-1.6364805
2.5603539
-1.5082778
2.3631567
-1.3901187
2.181408
-1.2812162
2.0138975
-1.1808451
1.85951
-1.0883371
1.7172172
-1.0030763
1.5860717
-0.92449487
1.4652002
-0.85206944
1.3537978
-0.78531796
1.2511228
-0.72379572
1.1564913
-0.66709333
1.0692733
-0.61483285
0.98888807
-0.56666659
0.91480022
-0.52227362
0.84651644
-0.48135852
0.78358205
-0.44364865
0.72557797
-0.40889297
0.67211794
-0.37686017
0.622846
-0.3473368
0.57743405
-0.32012618
0.5355797
-0.29504734
0.49700435
-0.27193316
0.46143912
-0.25062986
0.42838234
-0.23099792
0.39639903
-0.21293878
0.36240804
-0.19644745
0.32067998
-0.18171563
0.26579938
-0.16932514
0.21740074
-0.15937216
0.22141124
-0.15573747
0.21703136
-0.14550223
0.20032929
-0.13668193
0.1829858
-0.1283899
0.16973925
-0.1213876
0.15790282
-0.11542082
0.14614313
-0.10900293
0.13538735
-0.10327988
0.12566383
-0.09782958
0.11668764
-0.092837021
0.10824937
-0.088129491
0.10036779
-0.083681609
0.093015552
-0.079508829
0.086268334
-0.075535551
0.080188461
-0.071751774
0.074632627
-0.068160446
0.069460608
-0.064674374
0.064608818
-0.061431523
0.060105973
-0.058336016
0.055939082
-0.055354638
0.052045645
-0.052512764
0.048376609
-0.049851319
0.044922001
-0.047284537
0.041700196
-0.044818883
0.038726467
-0.042457407
0.035999897
-0.040212912
0.03350364
-0.038072029
0.031214286
-0.036014176
0.029107227
-0.0340339
0.02715905
-0.032131184
0.025349022
-0.030311241
0.023659696
-0.028575297
0.022077734
-0.026917936
0.020593619
-0.025335923
0.019199737
-0.023826206
0.017890425
-0.022389458
0.016660368
-0.021023705
0.01550491
-0.01972642
0.014420205
-0.018492879
0.013402778
-0.017320168
0.012449976
-0.016209019
0.011558739
-0.015157656
0.010725628
-0.014163607
0.0099472572
-0.013224447
0.0092201854
-0.01233749
0.0085414219
-0.011501187
0.0079080139
-0.010714486
0.0073172769
-0.0099753114
0.0067664912
-0.0092819467
0.0062533993
-0.0086315597
0.0057756859
-0.0080219152
0.0053312664
-0.0074506503
-0.006915821
15.251902
-7.7854389
14.055141
-7.1748691
12.956812
-6.6126781
11.945135
-6.0946258
11.012745
-5.6171695
10.153401
-5.1771178
9.3613774
-4.77154
8.6314016
-4.3977353
7.9586125
-4.0532148
7.33853
-3.735684
6.767025
-3.4430288
6.240292
-3.1733003
5.7548235
-2.9247025
5.3073868
-2.6955799
4.8950026
-2.4844069
4.5149247
-2.2897774
4.1646223
-2.1103951
3.8417627
-1.9450658
3.5441961
-1.7926884
3.269941
-1.6522484
3.0171712
-1.5228105
2.7842035
-1.4035128
2.5694866
-1.2935609
2.3715907
-1.1922228
2.1891981
-1.0988235
2.0210942
-1.0127412
1.8661596
-0.93340252
1.7233627
-0.86027935
1.5917525
-0.7928847
1.4704528
-0.7307697
1.3586557
-0.67352089
1.2556169
-0.62075689
1.1606501
-0.5721266
1.0731232
-0.52730587
0.99245307
-0.48599651
0.91810273
-0.44792327
0.84957702
-0.4128328
0.78641965
-0.38049127
0.72821006
-0.35068338
0.67456062
-0.32321074
0.62511411
-0.29789028
0.57954127
-0.27455335
0.53753862
-0.2530447
0.49882659
-0.23322103
0.46313601
-0.21495044
0.42997175
-0.19811349
0.3979136
-0.18262954
0.3639043
-0.16851123
0.32223441
-0.15597615
0.26728381
-0.14568152
0.21827202
-0.13797945
0.22206654
-0.13558016
0.21785431
-0.12684456
0.20112082
-0.11946685
0.18374455
-0.1126256
0.17041662
-0.10697432
0.15854955
-0.1022063
0.14675631
-0.096802526
0.13598575
-0.091980402
0.12623468
-0.087422369
0.11722226
-0.083269294
0.10874538
-0.079325233
0.10083153
-0.075561315
0.093464039
-0.072019815
0.086705737
-0.068616231
0.08061912
-0.065362947
0.075054158
-0.062274689
0.069866758
-0.059258583
0.064996016
-0.056444836
0.060474624
-0.053738619
0.056291358
-0.051111071
0.052383199
-0.048589905
0.048701987
-0.046218694
0.045235857
-0.043914657
0.042003206
-0.041688188
0.039018665
-0.039542721
0.036280883
-0.037496481
0.033775794
-0.035540851
0.031479276
-0.033653936
0.029364032
-0.031830762
0.027406399
-0.030074995
0.025587712
-0.028392771
0.023889879
-0.026785177
0.022299723
-0.02524689
0.020807665
-0.02377592
0.019406101
-0.022369598
0.018088308
-0.021028432
0.016849701
-0.019752061
0.015685987
-0.018538183
0.014593607
-0.017382805
0.013568974
-0.016283041
0.012608413
-0.015239889
0.011708847
-0.014252533
0.010867523
-0.013319045
0.010081517
-0.012436971
0.0093475426
-0.01160336
0.0086622077
-0.010816642
0.008022434
-0.010076286
0.0074256123
-0.0093806548
0.0068690135
-0.0087280437
0.0063503584
-0.0081159228
0.0058671515
-0.0075419872
0.0054173454
-0.0070041252
-0.0065006147
15.288011
-6.4900929
14.088442
-5.9811047
12.987517
-5.5124515
11.973449
-5.0805934
11.038855
-4.6825769
10.177479
-4.3157417
9.3835831
-3.9776444
8.6518817
-3.6660339
7.9775022
-3.3788352
7.3559538
-3.1141356
6.7830978
-2.8701728
6.2551197
-2.6453221
5.7685036
-2.4380864
5.3200092
-2.2470855
4.9066501
-2.0710478
4.5256737
-1.908801
4.1745432
-1.7592646
3.8509204
-1.621443
3.5526504
-1.4944184
3.277747
-1.377345
3.0243797
-1.2694431
2.7908612
-1.1699943
2.5756367
-1.0783364
2.377273
-0.99385908
2.1944492
-0.91599972
2.0259479
-0.8442399
1.8706471
-0.7781017
1.7275126
-0.71714486
1.5955914
-0.66096343
1.4740049
-0.60918322
1.3619435
-0.56145954
1.2586611
-0.51747449
1.1634699
-0.47693537
1.075736
-0.43957198
0.99487521
-0.40513573
0.92034911
-0.37339717
0.8516614
-0.3441451
0.78835473
-0.3171846
0.73000754
-0.29233619
0.67623128
-0.26943448
0.62666788
-0.24832688
0.58098731
-0.22887277
0.53888537
-0.21094277
0.5000818
-0.19441738
0.46430737
-0.17918668
0.43107216
-0.16515134
0.39896793
-0.1522489
0.36495608
-0.14050992
0.32334087
-0.13017836
0.26833778
-0.12198866
0.21884938
-0.11653521
0.22247661
-0.11541947
0.21840853
-0.10814359
0.2016574
-0.1022135
0.18426055
-0.096826959
0.17086981
-0.09254327
0.15899711
-0.088969853
0.14718522
-0.084597042
0.13640533
-0.080662818
0.12663857
-0.077003488
0.11760262
-0.073686218
0.10909804
-0.070506595
0.10116142
-0.067424355
0.093786834
-0.064508081
0.087022711
-0.061676256
0.080933824
-0.058960054
0.075364397
-0.056380079
0.070166318
-0.053835332
0.065283713
-0.051448552
0.060752291
-0.049129796
0.056558602
-0.046855225
0.052640149
-0.04465439
0.048951186
-0.042575528
0.045478493
-0.040534196
0.042238783
-0.038546116
0.039247921
-0.036617502
0.036504167
-0.034770153
0.033992455
-0.032999534
0.031689306
-0.031284177
0.029567182
-0.029618532
0.027602788
-0.028010294
0.02577711
-0.026466205
0.024072389
-0.024987302
0.02247592
-0.023568867
0.020977038
-0.022208657
0.019567909
-0.020905185
0.018242621
-0.019659862
0.016997352
-0.018473822
0.01582779
-0.017344255
0.014729769
-0.016267296
0.013699557
-0.015240556
0.012733387
-0.014265409
0.011828164
-0.013342026
0.010980632
-0.012468558
0.010188428
-0.011643568
0.0094484652
-0.010863498
0.0087572714
-0.010126528
0.0081118979
-0.0094327705
0.0075097667
-0.0087810282
0.0069482469
-0.0081694971
0.0064248696
-0.0075958282
0.0059370817
-0.0070577318
0.0054828365
-0.006553388
-0.0060813682
15.306276
-5.1932045
14.105299
-4.7859199
13.003064
-4.4109156
11.987789
-4.0653543
11.052083
-3.7468722
10.189681
-3.4533405
9.3948412
-3.1828042
8.6622691
-2.9334618
7.9870871
-2.7036531
7.3647991
-2.4918476
6.7912614
-2.2966352
6.262655
-2.1167157
5.7754598
-1.9508912
5.3264317
-1.7980574
4.9125807
-1.6571968
4.531151
-1.5273713
4.1796026
-1.4077163
3.8555947
-1.2974351
3.5569698
-1.1957935
3.2817392
-1.1021145
3.0280704
-1.0157743
2.7942741
-0.93619803
2.5787935
-0.86285585
2.3801937
-0.79525933
2.1971524
-0.73295837
2.0284506
-0.67553807
1.8729649
-0.62261607
1.7296601
-0.57384005
1.5975819
-0.52888519
1.4758507
-0.48745203
1.363656
-0.44926484
1.2602507
-0.41406918
1.1649462
-0.38163087
1.0771079
-0.35173369
0.99615086
-0.32417872
0.92153607
-0.29878238
0.85276663
-0.27537566
0.78938463
-0.25380259
0.730968
-0.23391956
0.67712775
-0.21559423
0.62750537
-0.1987045
0.58177044
-0.18313784
0.5396184
-0.16879073
0.50076863
-0.15556756
0.464952
-0.14338037
0.43168264
-0.13214999
0.39956142
-0.12183237
0.36556324
-0.11247626
0.32400032
-0.10435291
0.26895977
-0.098274757
0.21912206
-0.095081847
0.22264303
-0.095269967
0.21869546
-0.089419322
0.20193938
-0.084943086
0.18453357
-0.081014159
0.17109924
-0.078113558
0.15924332
-0.075710034
0.14743116
-0.072397328
0.13664542
-0.06934363
0.12687579
-0.066586047
0.11782854
-0.064100232
0.1093082
-0.061685083
0.10135921
-0.059279542
0.093984513
-0.056981397
0.087220673
-0.054724776
0.081134122
-0.052548554
0.075564975
-0.050479341
0.070362186
-0.048404542
0.065475358
-0.046442546
0.060938397
-0.044507274
0.056739569
-0.042586449
0.052816702
-0.040707144
0.049124608
-0.038921582
0.045650711
-0.037143568
0.042408644
-0.035392842
0.03941496
-0.033682011
0.036668527
-0.032035255
0.034152835
-0.030449655
0.031844509
-0.028905971
0.029717562
-0.027399185
0.027749101
-0.025939625
0.025918417
-0.024533879
0.024208825
-0.023183591
0.022607333
-0.021885234
0.021103291
-0.020635934
0.019688676
-0.019435167
0.018358603
-0.018286426
0.017108547
-0.017191004
0.015934178
-0.016145737
0.014831251
-0.015147062
0.013796201
-0.014193581
0.012825603
-0.01328677
0.011916015
-0.01242744
0.011064356
-0.011614246
0.010267343
-0.010845665
0.0095223307
-0.010118885
0.0088263398
-0.0094319166
0.0081765521
-0.0087851083
0.0075701458
-0.0081773955
0.0070045765
-0.0076071675
0.0064772712
-0.007072085
0.0059857347
-0.006569971
0.0055278974
-0.0060992641
15.306707
-3.8962871
14.105718
-3.5907086
13.003459
-3.3093555
11.988161
-3.0500929
11.052435
-2.8111469
10.190015
-2.5909204
9.3951568
-2.3879464
8.6625685
-2.2008736
7.9873716
-2.0284562
7.3650699
-1.8695459
6.7915196
-1.7230849
6.2629015
-1.5880976
5.7756956
-1.4636853
5.3266576
-1.3490195
4.9127975
-1.2433366
4.5313593
-1.1459331
4.1798033
-1.0561602
3.8557882
-0.97342012
3.5571567
-0.89716192
3.2819201
-0.82687786
3.0282456
-0.76209984
2.7944442
-0.70239657
2.5789588
-0.6473705
2.3803547
-0.5966552
2.1973093
-0.54991297
2.0286038
-0.50683254
1.8731147
-0.46712701
1.7298068
-0.43053208
1.5977256
-0.39680401
1.4759917
-0.36571818
1.3637945
-0.33706766
1.260387
-0.31066159
1.1650804
-0.28632426
1.0772401
-0.26389346
0.99628134
-0.24321993
0.9216649
-0.22416595
0.85289395
-0.20660471
0.78951055
-0.19041919
0.73109263
-0.17550165
0.6772512
-0.16175279
0.62762772
-0.14908102
0.58189178
-0.13740191
0.53973882
-0.12663777
0.50088817
-0.11671688
0.46507099
-0.10757326
0.43180433
-0.099147926
0.39969539
-0.09141545
0.36572741
-0.084443054
0.32421391
-0.07852986
0.26915038
-0.074563655
0.21908388
-0.073638038
0.22256877
-0.075148115
0.218717
-0.070694284
0.20196792
-0.067678415
0.18456459
-0.065205081
0.17110886
-0.063702576
0.15928814
-0.062454192
0.14749313
-0.060195992
0.13670713
-0.058023694
0.12694744
-0.05617807
0.11790155
-0.054523403
0.10937791
-0.052872547
0.10142665
-0.051136495
0.094057684
-0.04945389
0.087299102
-0.047771997
0.081219112
-0.046132642
0.075655408
-0.044573454
0.070454756
-0.042965476
0.065570279
-0.041425863
0.061033426
-0.03987178
0.056836644
-0.038307659
0.05291548
-0.036750149
0.049224845
-0.035256748
0.04575464
-0.033743005
0.042514915
-0.032229149
0.039521171
-0.030736699
0.036774216
-0.029292695
0.034257137
-0.027893251
0.03194588
-0.026521462
0.029816434
-0.025175102
0.027845621
-0.023864988
0.026012019
-0.022597753
0.024299018
-0.02137571
0.02269342
-0.0201972
0.021185609
-0.019059332
0.019768083
-0.01796213
0.018435131
-0.016910232
0.017181634
-0.015904852
0.016003326
-0.01494352
0.0148965
-0.01402308
0.01385757
-0.013143017
0.012883645
-0.012305102
0.011971199
-0.011510268
0.011116992
-0.010757658
0.010317105
-0.010045161
0.0095689629
-0.0093714261
0.0088700396
-0.0087346487
0.0082174236
-0.0081348985
0.007608137
-0.0075711638
0.007039782
-0.0070423107
0.0065097776
-0.0065458727
0.0060158212
-0.0060800021
-0.0056432819
15.289395
-2.6008456
14.089784
-2.3968581
12.98878
-2.2090494
11.974639
-2.0359874
11.039977
-1.8764869
10.178539
-1.7294821
9.3845862
-1.5939936
8.6528321
-1.4691194
7.9784039
-1.354028
7.3568107
-1.2479528
6.7839134
-1.1501876
6.2558972
-1.0600814
5.769246
-0.97703409
5.3207192
-0.90049275
4.9073303
-0.82994774
4.5263265
-0.76492927
4.1751706
-0.70500434
3.8515245
-0.64977398
3.5532329
-0.59887038
3.2783097
-0.55195463
3.0249241
-0.50871422
2.7913888
-0.46886129
2.5761488
-0.4321305
2.3777708
-0.39827719
2.1949338
-0.36707598
2.0264203
-0.33831909
1.8711083
-0.31181499
1.7279635
-0.28738726
1.5960327
-0.26487322
1.4744375
-0.24412292
1.362368
-0.22499822
1.2590782
-0.20737174
1.1638801
-0.19112617
1.0761399
-0.17615324
0.99527324
-0.16235332
0.92074176
-0.14963447
0.85204911
-0.13791205
0.78873787
-0.12710795
0.73038647
-0.11715025
0.67660633
-0.10797266
0.62703935
-0.099514039
0.58135549
-0.091718038
0.53925051
-0.084532802
0.50044411
-0.077910434
0.46466776
-0.071806838
0.43144052
-0.066183448
0.39937302
-0.061033367
0.36545153
-0.056442191
0.32398535
-0.052738734
0.26891113
-0.050887198
0.21873342
-0.052234108
0.22225899
-0.055067295
0.2184769
-0.051990736
0.20174587
-0.050441247
0.18435649
-0.049412588
0.17090371
-0.049325575
0.15913772
-0.049233719
0.14736852
-0.047999204
0.136592
-0.046712475
0.12685318
-0.04579002
0.11782251
-0.044968986
0.10930937
-0.044081899
0.10136634
-0.043008262
0.094008188
-0.041942249
0.087260597
-0.040828117
0.081191095
-0.039718482
0.07563817
-0.038665287
0.070446066
-0.03751914
0.065569789
-0.036399374
0.061040665
-0.035227742
0.056849391
-0.034018972
0.052934292
-0.03278429
0.049251807
-0.031583401
0.045788742
-0.030332612
0.042556471
-0.029057617
0.039567222
-0.027784679
0.036821646
-0.026543607
0.034306019
-0.02533297
0.031996107
-0.024135001
0.029865834
-0.022948192
0.027892489
-0.021786689
0.02605692
-0.020658925
0.024342732
-0.019566446
0.022736004
-0.018508015
0.021226597
-0.017481136
0.019807544
-0.016487666
0.018472701
-0.015532312
0.017217107
-0.01461676
0.016036668
-0.013739341
0.014927948
-0.012897462
0.013887323
-0.012090899
0.012911743
-0.011322096
0.01199779
-0.010591829
0.011141903
-0.0098996237
0.010340564
-0.0092434453
0.0095909212
-0.0086227202
0.0088905403
-0.0080361775
0.0082365031
-0.0074835245
0.0076258185
-0.006963759
0.0070559478
-0.0064761536
0.0065244915
-0.0060184358
0.0060291724
-0.0055888728
15.254505
-1.3083718
14.057648
-1.2057428
12.959167
-1.1112642
11.947349
-1.0242051
11.014829
-0.94396834
10.155364
-0.87001734
9.3632306
-0.80185985
8.6331529
-0.73904173
7.9602698
-0.68114488
7.3401008
-0.62778367
6.768516
-0.57860281
6.2417094
-0.5332748
5.7561731
-0.49149781
5.308674
-0.45299363
4.8962322
-0.41750589
4.5161012
-0.3847983
4.1657499
-0.35465302
3.8428452
-0.32686934
3.5452371
-0.30126224
3.2709437
-0.27766122
3.0181386
-0.25590911
2.7851384
-0.23586107
2.5703915
-0.2173836
2.3724679
-0.20035367
2.1900498
-0.18465788
2.0219224
-0.17019169
1.8669662
-0.15685879
1.7241494
-0.14457039
1.5925208
-0.13324469
1.4712042
-0.12280624
1.3593915
-0.11318554
1.2563383
-0.10431852
1.1613583
-0.096146181
1.0738191
-0.088614029
0.99313773
-0.081671973
0.918777
-0.075273741
0.85024172
-0.069376772
0.78707553
-0.06394176
0.72885781
-0.058932527
0.67520089
-0.054315735
0.62574747
-0.05006062
0.58016826
-0.046138835
0.53815975
-0.042524296
0.49944228
-0.039192895
0.46374772
-0.036122241
0.43059633
-0.033294558
0.39859938
-0.030721226
0.36474118
-0.028506677
0.3233198
-0.027010512
0.26824547
-0.027274334
0.2180727
-0.030902734
0.2217179
-0.035042392
0.21797858
-0.033331977
0.20127595
-0.033251226
0.18391106
-0.033651572
0.17049402
-0.035005812
0.15879355
-0.036057908
0.14705301
-0.035818761
0.13630204
-0.035432909
0.12659437
-0.035437069
0.11759331
-0.035450916
0.10910518
-0.035324433
0.10117958
-0.034909855
0.093838718
-0.034460648
0.087107567
-0.033901746
0.081051568
-0.033316749
0.075515552
-0.032763321
0.070338178
-0.032070849
0.065476274
-0.031368863
0.060959133
-0.030579071
0.056780383
-0.029725367
0.052877654
-0.028813462
0.049208325
-0.027903899
0.045756798
-0.026914856
0.042534583
-0.025880208
0.039553354
-0.024828865
0.03681228
-0.023790958
0.034300222
-0.022771169
0.031992686
-0.021747917
0.029863436
-0.020720792
0.027890927
-0.019708543
0.026055789
-0.018720215
0.024341671
-0.017757375
0.022735122
-0.016819127
0.021225904
-0.015903338
0.01980626
-0.015012885
0.018470714
-0.014153903
0.017214963
-0.01332878
0.016034892
-0.012535733
0.014926292
-0.011772237
0.013885813
-0.011039068
0.012910046
-0.010339178
0.011995779
-0.0096733304
0.011139426
-0.0090413492
0.010337964
-0.0084418154
0.0095883879
-0.0078742899
0.008888056
-0.0073379705
0.0082340882
-0.0068324572
0.0076236576
-0.0063568095
0.0070541536
-0.0059105487
0.0065230765
-0.0054915641
-0.0050982832
15.202277
-0.020337177
14.009534
-0.018718101
12.914826
-0.017249112
11.906482
-0.015897637
10.977165
-0.014652229
10.120652
-0.013504296
9.3312384
-0.012446455
8.6036681
-0.011471371
7.9330958
-0.010572662
7.3150566
-0.009744405
6.7454348
-0.0089810355
6.2204375
-0.0082774543
5.7365686
-0.0076289967
5.2906063
-0.0070313301
4.879581
-0.0064804987
4.5007555
-0.005972819
4.1516074
-0.0055048975
3.8298117
-0.005073633
3.5332256
-0.0046761798
3.2598742
-0.004309839
3.0079373
-0.0039722
2.7757372
-0.0036610175
2.5617279
-0.0033742151
2.3644841
-0.0031098812
2.1826924
-0.0028662373
2.0151425
-0.0026417104
1.8607184
-0.0024347445
1.718392
-0.0022440138
1.5872156
-0.0020682177
1.4663155
-0.001906191
1.3548868
-0.0017568539
1.2521875
-0.001619229
1.1575337
-0.0014923708
1.0702951
-0.0013754638
0.98989088
-0.0012677041
0.91578553
-0.0011683912
0.84748562
-0.0010768648
0.78453636
-0.00099249849
0.72651858
-0.00091474731
0.67304593
-0.00084308487
0.62376235
-0.00077703709
0.57833968
-0.00071616395
0.53647544
-0.000660059
0.49789095
-0.00060833163
0.4623189
-0.00056030957
0.42927917
-0.00051859259
0.39738126
-0.00051343859
0.36360239
-0.00066837512
0.32222248
-0.0013745258
0.26715928
-0.0037503695
0.21710838
-0.0096710453
0.22094919
-0.015088072
0.21722497
-0.014740011
0.20056042
-0.016128669
0.18322764
-0.017947468
0.16988625
-0.020768748
0.15825495
-0.022929605
0.14655259
-0.023672211
0.13583988
-0.024198595
0.12617566
-0.025132446
0.11721716
-0.02597894
0.10876843
-0.026607902
0.10086969
-0.02685719
0.09355409
-0.027017761
0.086843692