/*--------------------------------*- C++ -*----------------------------------*\
| =========                 |                                                 |
| \\      /  F ield         | OpenFOAM: The Open Source CFD Toolbox           |
|  \\    /   O peration     | Version:  2506                                  |
|   \\  /    A nd           | Website:  www.openfoam.com                      |
|    \\/     M anipulation  |                                                 |
\*---------------------------------------------------------------------------*/
FoamFile
{
    version     2.0;
    format      ascii;
    arch        "LSB;label=32;scalar=64";
    class       volScalarField;
    location    "0.0035";
    object      nut;
}
// * * * * * * * * * * * * * * * * * * * * * * * * * * * * * * * * * * * * * //

dimensions      [0 2 -1 0 0 0 0];

internalField   nonuniform List<scalar> 
13761
(
7.1526073e-06
7.1523872e-06
7.1521875e-06
7.1520032e-06
7.1518281e-06
3.8912603e-06
7.151674e-06
3.8912693e-06
7.1515283e-06
3.891263e-06
7.1514001e-06
3.8912727e-06
7.1512774e-06
3.891266e-06
7.151172e-06
3.8916483e-06
3.8912778e-06
7.1510765e-06
3.8916484e-06
3.8912729e-06
7.1509858e-06
3.8916486e-06
3.8912726e-06
7.150913e-06
3.8916488e-06
3.8912817e-06
7.1508465e-06
3.891649e-06
3.8912753e-06
7.1507964e-06
3.8916493e-06
3.8912849e-06
7.1507493e-06
3.8916425e-06
3.8916495e-06
3.8912784e-06
7.1507165e-06
3.8916426e-06
3.8916495e-06
3.8912871e-06
7.1506917e-06
3.8916426e-06
3.8916495e-06
3.8912806e-06
7.1506675e-06
3.8916426e-06
3.8916495e-06
3.8912916e-06
7.150655e-06
3.8916426e-06
3.8916495e-06
3.8912851e-06
7.1506411e-06
3.8916427e-06
3.8916494e-06
3.8912849e-06
7.1506372e-06
3.8916394e-06
3.8916427e-06
3.8916493e-06
3.8912949e-06
7.1506352e-06
3.8916395e-06
3.8916428e-06
3.8916491e-06
3.8912882e-06
7.150632e-06
3.8916395e-06
3.8916428e-06
3.891649e-06
3.8912976e-06
7.1508248e-06
3.8916395e-06
3.8916428e-06
3.891649e-06
3.8912917e-06
7.1506651e-06
3.8916395e-06
3.8916428e-06
3.8916491e-06
3.8912994e-06
7.1510454e-06
3.8916393e-06
3.8916395e-06
3.8916428e-06
3.8916492e-06
3.8912938e-06
7.15074e-06
3.8916394e-06
3.8916395e-06
3.8916427e-06
3.8916493e-06
3.8913052e-06
7.1513422e-06
3.8916393e-06
3.8916395e-06
3.8916427e-06
3.8916494e-06
3.8913026e-06
7.150872e-06
3.8916393e-06
3.8916395e-06
3.8916427e-06
3.8916497e-06
3.8913778e-06
7.1515253e-06
3.8916393e-06
3.8916395e-06
3.8916427e-06
3.89165e-06
3.8915263e-06
7.1510238e-06
3.8916393e-06
3.8916395e-06
3.8916427e-06
3.89165e-06
3.8916586e-06
7.1522143e-06
3.8916393e-06
3.8916393e-06
3.8916395e-06
3.8916427e-06
3.8916499e-06
3.8917261e-06
7.1513812e-06
3.8916394e-06
3.8916393e-06
3.8916395e-06
3.8916428e-06
3.8916508e-06
3.891707e-06
7.1536751e-06
3.8916393e-06
3.8916393e-06
3.8916395e-06
3.891643e-06
3.8916633e-06
3.8916809e-06
7.15159e-06
3.8916393e-06
3.8916393e-06
3.8916395e-06
3.8916436e-06
3.8917168e-06
3.8916594e-06
7.1515126e-06
3.8916393e-06
3.8916393e-06
3.8916395e-06
3.8916445e-06
3.8918151e-06
3.8916433e-06
7.1514667e-06
3.8916399e-06
3.8916393e-06
3.8916393e-06
3.8916395e-06
3.8916453e-06
3.8919151e-06
3.8916319e-06
7.1515182e-06
3.8916399e-06
3.8916393e-06
3.8916393e-06
3.8916395e-06
3.891646e-06
3.8919815e-06
3.8916251e-06
7.1540648e-06
3.8916398e-06
3.8916393e-06
3.8916393e-06
3.8916395e-06
3.8916477e-06
3.8920106e-06
3.8916228e-06
7.1537489e-06
3.8916397e-06
3.8916393e-06
3.8916393e-06
3.8916396e-06
3.8916594e-06
3.8920172e-06
3.8916391e-06
7.1513052e-06
3.8916395e-06
3.8916393e-06
3.8916393e-06
3.89164e-06
3.8917084e-06
3.8920132e-06
3.8917285e-06
7.1514474e-06
3.8916394e-06
3.8916393e-06
3.8916393e-06
3.8916409e-06
3.8918026e-06
3.891989e-06
3.8917795e-06
7.1525967e-06
3.8916404e-06
3.8916393e-06
3.8916393e-06
3.8916393e-06
3.8916418e-06
3.8919033e-06
3.8919687e-06
3.8917003e-06
7.1540668e-06
3.8916403e-06
3.8916393e-06
3.8916393e-06
3.8916393e-06
3.8916424e-06
3.8919735e-06
3.8919624e-06
3.891573e-06
3.89164e-06
3.8916393e-06
3.8916393e-06
3.8916393e-06
3.8916428e-06
3.8920063e-06
3.8919628e-06
3.8915375e-06
3.8916398e-06
3.8916393e-06
3.8916393e-06
3.8916394e-06
3.8916437e-06
3.8920146e-06
3.8919822e-06
3.8915339e-06
3.8916395e-06
3.8916393e-06
3.8916393e-06
3.8916394e-06
3.891652e-06
3.8920127e-06
3.8920176e-06
3.8915187e-06
3.8916412e-06
3.8916393e-06
3.8916393e-06
3.8916393e-06
3.8916396e-06
3.8916941e-06
3.8919895e-06
3.8920468e-06
3.8915973e-06
3.8916411e-06
3.8916393e-06
3.8916393e-06
3.8916393e-06
3.8916401e-06
3.8917844e-06
3.8919647e-06
3.8920652e-06
3.8916454e-06
3.8916408e-06
3.8916393e-06
3.8916393e-06
3.8916393e-06
3.8916407e-06
3.8918881e-06
3.8919545e-06
3.8920652e-06
3.8916543e-06
3.8916404e-06
3.8916393e-06
3.8916393e-06
3.8916393e-06
3.8916411e-06
3.8919647e-06
3.8919528e-06
3.8920157e-06
3.8916035e-06
3.89164e-06
3.8916393e-06
3.8916393e-06
3.8916393e-06
3.8916414e-06
3.8920033e-06
3.8919628e-06
3.8919243e-06
3.8916396e-06
3.8916393e-06
3.8916393e-06
3.8916393e-06
3.891642e-06
3.8920148e-06
3.8919947e-06
3.8918531e-06
3.8916417e-06
3.8916393e-06
3.8916393e-06
3.8916393e-06
3.8916393e-06
3.8916478e-06
3.892015e-06
3.8920266e-06
3.891837e-06
3.8916415e-06
3.8916393e-06
3.8916393e-06
3.8916393e-06
3.8916394e-06
3.8916823e-06
3.8919953e-06
3.8920488e-06
3.8918681e-06
3.8916408e-06
3.8916393e-06
3.8916393e-06
3.8916393e-06
3.8916395e-06
3.8917663e-06
3.891966e-06
3.8920622e-06
3.8919202e-06
3.8916403e-06
3.8916393e-06
3.8916393e-06
3.8916393e-06
3.8916396e-06
3.8918715e-06
3.8919511e-06
3.8920507e-06
3.8919638e-06
3.8916397e-06
3.8916393e-06
3.8916393e-06
3.8916393e-06
3.8916397e-06
3.8919553e-06
3.8919475e-06
3.8919836e-06
3.891965e-06
3.8916424e-06
3.8916394e-06
3.8916393e-06
3.8916393e-06
3.8916393e-06
3.89164e-06
3.8920012e-06
3.8919507e-06
3.891891e-06
3.8919385e-06
3.8916422e-06
3.8916394e-06
3.8916393e-06
3.8916393e-06
3.8916393e-06
3.8916438e-06
3.8920172e-06
3.8919756e-06
3.891833e-06
3.8916413e-06
3.8916394e-06
3.8916393e-06
3.8916393e-06
3.8916393e-06
3.891671e-06
3.8920192e-06
3.8920093e-06
3.8918302e-06
3.8916405e-06
3.8916394e-06
3.8916394e-06
3.8916393e-06
3.8916393e-06
3.8917467e-06
3.8920051e-06
3.8920349e-06
3.8918675e-06
3.8916398e-06
3.8916394e-06
3.8916394e-06
3.8916393e-06
3.8916393e-06
3.8918518e-06
3.8919733e-06
3.8920523e-06
3.8919204e-06
3.8916424e-06
3.8916394e-06
3.8916394e-06
3.8916394e-06
3.8916393e-06
3.8916393e-06
3.8919425e-06
3.8919525e-06
3.8920608e-06
3.8919611e-06
3.891642e-06
3.8916393e-06
3.8916394e-06
3.8916394e-06
3.8916393e-06
3.8916394e-06
3.8919967e-06
3.891946e-06
3.8920347e-06
3.8919584e-06
3.8916408e-06
3.8916393e-06
3.8916394e-06
3.8916394e-06
3.8916393e-06
3.8916412e-06
3.8920183e-06
3.8919458e-06
3.8919541e-06
3.8919312e-06
3.8916399e-06
3.8916393e-06
3.8916394e-06
3.8916394e-06
3.8916393e-06
3.8916602e-06
3.8920224e-06
3.891961e-06
3.8918658e-06
3.8916441e-06
3.8916394e-06
3.8916393e-06
3.8916394e-06
3.8916394e-06
3.8916393e-06
3.8917249e-06
3.8920146e-06
3.8919936e-06
3.8918211e-06
3.8916437e-06
3.8916394e-06
3.8916393e-06
3.8916394e-06
3.8916394e-06
3.8916393e-06
3.8918274e-06
3.8919834e-06
3.8920226e-06
3.891829e-06
3.8916423e-06
3.8916394e-06
3.8916393e-06
3.8916393e-06
3.8916394e-06
3.8916393e-06
3.8919247e-06
3.8919566e-06
3.8920428e-06
3.8918709e-06
3.8916411e-06
3.8916394e-06
3.8916394e-06
3.8916393e-06
3.8916393e-06
3.8916393e-06
3.8919885e-06
3.8919458e-06
3.8920571e-06
3.8919237e-06
3.89164e-06
3.8916394e-06
3.8916394e-06
3.8916393e-06
3.8916393e-06
3.8916402e-06
3.8920172e-06
3.8919439e-06
3.8920593e-06
3.8919612e-06
3.8916438e-06
3.8916394e-06
3.8916394e-06
3.8916394e-06
3.8916393e-06
3.8916393e-06
3.8916522e-06
3.8920243e-06
3.8919505e-06
3.8920175e-06
3.891955e-06
3.8916432e-06
3.8916394e-06
3.8916394e-06
3.8916394e-06
3.8916393e-06
3.8916393e-06
3.8917038e-06
3.8920219e-06
3.8919781e-06
3.8919281e-06
3.8919269e-06
3.8916414e-06
3.8916394e-06
3.8916394e-06
3.8916394e-06
3.8916393e-06
3.8916393e-06
3.8918e-06
3.8919957e-06
3.8920097e-06
3.8918473e-06
3.8916402e-06
3.8916394e-06
3.8916394e-06
3.8916394e-06
3.8916393e-06
3.8916393e-06
3.8919022e-06
3.8919639e-06
3.892033e-06
3.8918156e-06
3.8916446e-06
3.8916393e-06
3.8916394e-06
3.8916394e-06
3.8916394e-06
3.8916393e-06
3.8916393e-06
3.891976e-06
3.8919476e-06
3.8920493e-06
3.8918324e-06
3.8916439e-06
3.8916393e-06
3.8916394e-06
3.8916394e-06
3.8916394e-06
3.8916393e-06
3.8916397e-06
3.8920135e-06
3.8919435e-06
3.892061e-06
3.8918774e-06
3.8916418e-06
3.8916393e-06
3.8916394e-06
3.8916394e-06
3.8916394e-06
3.8916393e-06
3.8916463e-06
3.8920254e-06
3.8919448e-06
3.8920549e-06
3.8919296e-06
3.8916403e-06
3.8916394e-06
3.8916394e-06
3.8916394e-06
3.8916394e-06
3.8916393e-06
3.8916844e-06
3.8920262e-06
3.8919637e-06
3.8919974e-06
3.891964e-06
3.8916455e-06
3.8916394e-06
3.8916394e-06
3.8916394e-06
3.8916394e-06
3.8916394e-06
3.8916393e-06
3.8917706e-06
3.8920086e-06
3.8919956e-06
3.8919039e-06
3.8919547e-06
3.8916446e-06
3.8916394e-06
3.8916394e-06
3.8916394e-06
3.8916394e-06
3.8916394e-06
3.8916393e-06
3.8918752e-06
3.8919744e-06
3.8920222e-06
3.891833e-06
3.8919262e-06
3.8916422e-06
3.8916394e-06
3.8916394e-06
3.8916394e-06
3.8916394e-06
3.8916394e-06
3.8916393e-06
3.891959e-06
3.8919519e-06
3.8920408e-06
3.8918135e-06
3.8916405e-06
3.8916394e-06
3.8916394e-06
3.8916394e-06
3.8916394e-06
3.8916393e-06
3.8916394e-06
3.8920067e-06
3.891944e-06
3.8920547e-06
3.8918373e-06
3.8916465e-06
3.8916394e-06
3.8916394e-06
3.8916394e-06
3.8916394e-06
3.8916394e-06
3.8916393e-06
3.8916426e-06
3.892025e-06
3.891943e-06
3.8920639e-06
3.8918844e-06
3.8916454e-06
3.8916394e-06
3.8916394e-06
3.8916394e-06
3.8916394e-06
3.8916394e-06
3.8916393e-06
3.891668e-06
3.8920283e-06
3.8919523e-06
3.8920468e-06
3.8919356e-06
3.8916426e-06
3.8916394e-06
3.8916394e-06
3.8916394e-06
3.8916394e-06
3.8916394e-06
3.8916393e-06
3.8917405e-06
3.8920197e-06
3.8919806e-06
3.8919754e-06
3.8919667e-06
3.8916407e-06
3.8916394e-06
3.8916394e-06
3.8916394e-06
3.8916394e-06
3.8916394e-06
3.8916393e-06
3.8918438e-06
3.8919875e-06
3.89201e-06
3.8918825e-06
3.8919544e-06
3.8916475e-06
3.8916394e-06
3.8916394e-06
3.8916394e-06
3.8916394e-06
3.8916394e-06
3.8916394e-06
3.8916394e-06
3.8919368e-06
3.8919588e-06
3.8920314e-06
3.8918229e-06
3.8919253e-06
3.8916463e-06
3.8916394e-06
3.8916394e-06
3.8916394e-06
3.8916394e-06
3.8916394e-06
3.8916393e-06
3.8916407e-06
3.8919965e-06
3.891946e-06
3.8920467e-06
3.8918141e-06
3.8916431e-06
3.8916394e-06
3.8916394e-06
3.8916394e-06
3.8916394e-06
3.8916394e-06
3.8916393e-06
3.8916562e-06
3.8920236e-06
3.8919431e-06
3.8920592e-06
3.8918435e-06
3.8916408e-06
3.8916394e-06
3.8916394e-06
3.8916394e-06
3.8916394e-06
3.8916394e-06
3.8916393e-06
3.8917137e-06
3.8920306e-06
3.8919456e-06
3.8920648e-06
3.8918919e-06
3.8916455e-06
3.8916394e-06
3.8916394e-06
3.8916394e-06
3.8916394e-06
3.8916394e-06
3.8916394e-06
3.8916393e-06
3.8918113e-06
3.8920291e-06
3.8919661e-06
3.892035e-06
3.8919416e-06
3.8916441e-06
3.8916394e-06
3.8916394e-06
3.8916394e-06
3.8916394e-06
3.8916394e-06
3.8916394e-06
3.8916393e-06
3.8919105e-06
3.8920047e-06
3.8919963e-06
3.8919527e-06
3.8919693e-06
3.891641e-06
3.8916394e-06
3.8916394e-06
3.8916394e-06
3.8916394e-06
3.8916394e-06
3.8916394e-06
3.8916393e-06
3.8919809e-06
3.8919707e-06
3.8920207e-06
3.8918641e-06
3.8919543e-06
3.8916463e-06
3.8916394e-06
3.8916395e-06
3.8916394e-06
3.8916394e-06
3.8916394e-06
3.8916394e-06
3.8916394e-06
3.8916398e-06
3.8920168e-06
3.8919507e-06
3.8920381e-06
3.8918161e-06
3.8919248e-06
3.8916446e-06
3.8916394e-06
3.8916395e-06
3.8916394e-06
3.8916394e-06
3.8916394e-06
3.8916394e-06
3.8916394e-06
3.8916478e-06
3.8920286e-06
3.8919441e-06
3.8920516e-06
3.8918165e-06
3.8916411e-06
3.8916395e-06
3.8916395e-06
3.8916394e-06
3.8916394e-06
3.8916394e-06
3.8916394e-06
3.8916393e-06
3.8916892e-06
3.8920299e-06
3.8919434e-06
3.8920632e-06
3.8918501e-06
3.8916471e-06
3.8916393e-06
3.8916395e-06
3.8916395e-06
3.8916394e-06
3.8916394e-06
3.8916394e-06
3.8916394e-06
3.8916393e-06
3.8917765e-06
3.8920153e-06
3.8919529e-06
3.8920635e-06
3.8918991e-06
3.8916453e-06
3.8916393e-06
3.8916395e-06
3.8916395e-06
3.8916394e-06
3.8916394e-06
3.8916394e-06
3.8916394e-06
3.8916393e-06
3.8918792e-06
3.8919817e-06
3.8919797e-06
3.8920199e-06
3.8919472e-06
3.8916414e-06
3.8916393e-06
3.8916394e-06
3.8916394e-06
3.8916394e-06
3.8916394e-06
3.8916394e-06
3.8916394e-06
3.8916395e-06
3.8919614e-06
3.8919566e-06
3.8920073e-06
3.8919306e-06
3.8919716e-06
3.8916481e-06
3.8916395e-06
3.8916393e-06
3.8916394e-06
3.8916394e-06
3.8916394e-06
3.8916394e-06
3.8916394e-06
3.8916393e-06
3.8916431e-06
3.8920094e-06
3.8919463e-06
3.8920277e-06
3.8918488e-06
3.8919542e-06
3.891646e-06
3.8916395e-06
3.8916394e-06
3.8916394e-06
3.8916395e-06
3.8916394e-06
3.8916394e-06
3.8916394e-06
3.8916393e-06
3.89167e-06
3.8920291e-06
3.8919442e-06
3.8920428e-06
3.891812e-06
3.8919246e-06
3.8916417e-06
3.8916395e-06
3.8916394e-06
3.8916394e-06
3.8916395e-06
3.8916394e-06
3.8916394e-06
3.8916394e-06
3.8916393e-06
3.891743e-06
3.8920334e-06
3.8919475e-06
3.8920556e-06
3.8918201e-06
3.8916486e-06
3.8916395e-06
3.8916395e-06
3.8916394e-06
3.8916393e-06
3.8916395e-06
3.8916394e-06
3.8916394e-06
3.8916394e-06
3.8916393e-06
3.8918446e-06
3.8920289e-06
3.891968e-06
3.8920664e-06
3.8918569e-06
3.8916463e-06
3.8916396e-06
3.8916395e-06
3.8916394e-06
3.8916393e-06
3.8916394e-06
3.8916394e-06
3.8916394e-06
3.8916394e-06
3.8916394e-06
3.8919361e-06
3.8920004e-06
3.8919961e-06
3.8920594e-06
3.8919061e-06
3.8916415e-06
3.8916396e-06
3.8916395e-06
3.8916394e-06
3.8916393e-06
3.8916394e-06
3.8916394e-06
3.8916394e-06
3.8916394e-06
3.8916407e-06
3.8919963e-06
3.8919683e-06
3.8920188e-06
3.892002e-06
3.8919523e-06
3.8916421e-06
3.8916391e-06
3.8916396e-06
3.8916395e-06
3.8916394e-06
3.8916393e-06
3.8916394e-06
3.8916394e-06
3.8916394e-06
3.8916394e-06
3.891656e-06
3.8920252e-06
3.8919509e-06
3.8920352e-06
3.8919092e-06
3.8919735e-06
3.8916399e-06
3.8916391e-06
3.8916396e-06
3.8916395e-06
3.8916394e-06
3.8916394e-06
3.8916394e-06
3.8916394e-06
3.8916394e-06
3.8916394e-06
3.891712e-06
3.8920338e-06
3.8919453e-06
3.8920483e-06
3.891836e-06
3.8919541e-06
3.8916333e-06
3.8916367e-06
3.8916392e-06
3.8916396e-06
3.8916395e-06
3.8916394e-06
3.8916394e-06
3.8916394e-06
3.8916394e-06
3.8916394e-06
3.8916394e-06
3.8918077e-06
3.8920341e-06
3.8919448e-06
3.8920603e-06
3.8918094e-06
3.8919243e-06
3.891631e-06
3.8916368e-06
3.8916392e-06
3.8916395e-06
3.8916395e-06
3.8916394e-06
3.8916395e-06
3.8916394e-06
3.8916394e-06
3.8916394e-06
3.8916398e-06
3.8919071e-06
3.8920162e-06
3.891954e-06
3.8920691e-06
3.8918238e-06
3.8916205e-06
3.8916276e-06
3.8916368e-06
3.8916392e-06
3.8916395e-06
3.8916395e-06
3.8916394e-06
3.8916395e-06
3.8916394e-06
3.8916394e-06
3.8916394e-06
3.8916476e-06
3.8919811e-06
3.8919819e-06
3.891979e-06
3.8920522e-06
3.8918628e-06
3.8916177e-06
3.8916277e-06
3.8916369e-06
3.8916392e-06
3.8916395e-06
3.8916394e-06
3.8916393e-06
3.8916395e-06
3.8916394e-06
3.8916394e-06
3.8916394e-06
3.8916872e-06
3.8920222e-06
3.8919578e-06
3.8920048e-06
3.8919825e-06
3.8919115e-06
3.8916115e-06
3.8916279e-06
3.8916369e-06
3.8916392e-06
3.8916395e-06
3.8916394e-06
3.8916393e-06
3.8916395e-06
3.8916394e-06
3.8916394e-06
3.8916393e-06
3.8917712e-06
3.8920382e-06
3.8919477e-06
3.8920245e-06
3.8918902e-06
3.8919557e-06
3.891576e-06
3.8916087e-06
3.891628e-06
3.8916369e-06
3.8916392e-06
3.8916395e-06
3.8916394e-06
3.8916393e-06
3.8916394e-06
3.8916394e-06
3.8916394e-06
3.8916393e-06
3.8918718e-06
3.8920412e-06
3.8919456e-06
3.8920394e-06
3.8918269e-06
3.8919743e-06
3.8915738e-06
3.891609e-06
3.8916282e-06
3.8916369e-06
3.8916392e-06
3.8916395e-06
3.8916394e-06
3.8916393e-06
3.8916394e-06
3.8916394e-06
3.8916394e-06
3.8916395e-06
3.8919548e-06
3.8920335e-06
3.8919478e-06
3.8920522e-06
3.89181e-06
3.8919535e-06
3.8915196e-06
3.8915703e-06
3.8916093e-06
3.8916283e-06
3.8916369e-06
3.8916392e-06
3.8916395e-06
3.8916394e-06
3.8916394e-06
3.8916394e-06
3.8916394e-06
3.8916394e-06
3.8916427e-06
3.8920062e-06
3.892001e-06
3.8919651e-06
3.8920644e-06
3.8918301e-06
3.891924e-06
3.8915177e-06
3.891571e-06
3.8916097e-06
3.8916284e-06
3.891637e-06
3.8916392e-06
3.8916395e-06
3.8916394e-06
3.8916394e-06
3.8916394e-06
3.8916394e-06
3.8916394e-06
3.8916672e-06
3.8920296e-06
3.8919683e-06
3.8919914e-06
3.8920704e-06
3.891871e-06
3.8914101e-06
3.8915146e-06
3.8915717e-06
3.89161e-06
3.8916285e-06
3.891637e-06
3.8916392e-06
3.8916395e-06
3.8916394e-06
3.8916394e-06
3.8916394e-06
3.8916394e-06
3.8916394e-06
3.891736e-06
3.8920359e-06
3.8919508e-06
3.8920137e-06
3.8920419e-06
3.8919193e-06
3.8909527e-06
3.8914109e-06
3.8915162e-06
3.8915725e-06
3.8916103e-06
3.8916285e-06
3.891637e-06
3.8916393e-06
3.8916395e-06
3.8916394e-06
3.8916394e-06
3.8916394e-06
3.8916394e-06
3.8916394e-06
3.8918352e-06
3.8920353e-06
3.8919449e-06
3.8920305e-06
3.8919618e-06
3.8919614e-06
3.8909602e-06
3.891414e-06
3.8915175e-06
3.8915733e-06
3.8916106e-06
3.8916286e-06
3.8916371e-06
3.8916393e-06
3.8916395e-06
3.8916394e-06
3.8916394e-06
3.8916394e-06
3.8916394e-06
3.8916405e-06
3.8919288e-06
3.8920148e-06
3.8919441e-06
3.8920441e-06
3.8918724e-06
3.8919766e-06
3.888792e-06
3.890974e-06
3.8914165e-06
3.8915188e-06
3.891574e-06
3.891611e-06
3.8916287e-06
3.8916371e-06
3.8916393e-06
3.8916395e-06
3.8916395e-06
3.8916394e-06
3.8916394e-06
3.8916394e-06
3.8916538e-06
3.8919945e-06
3.8919813e-06
3.8919511e-06
3.8920567e-06
3.8918189e-06
3.8919537e-06
3.888808e-06
3.8909806e-06
3.8914185e-06
3.8915201e-06
3.8915748e-06
3.8916113e-06
3.8916289e-06
3.8916371e-06
3.8916393e-06
3.8916395e-06
3.8916395e-06
3.8916394e-06
3.8916394e-06
3.8916394e-06
3.8917048e-06
3.8920294e-06
3.891959e-06
3.8919739e-06
3.8920686e-06
3.8918102e-06
3.8919241e-06
3.8820231e-06
3.8888314e-06
3.8909854e-06
3.8914206e-06
3.8915214e-06
3.8915756e-06
3.8916117e-06
3.891629e-06
3.8916371e-06
3.8916392e-06
3.8916395e-06
3.8916395e-06
3.8916394e-06
3.8916395e-06
3.8916394e-06
3.8917958e-06
3.8920423e-06
3.8919498e-06
3.8919996e-06
3.8920697e-06
3.8918342e-06
3.8671555e-06
3.882089e-06
3.888855e-06
3.8909902e-06
3.8914227e-06
3.8915227e-06
3.8915763e-06
3.891612e-06
3.8916292e-06
3.8916372e-06
3.8916392e-06
3.8916395e-06
3.8916395e-06
3.8916394e-06
3.8916395e-06
3.8916397e-06
3.8918944e-06
3.8920444e-06
3.8919478e-06
3.8920198e-06
3.8920282e-06
3.8918759e-06
3.8404176e-06
3.8673261e-06
3.88214e-06
3.8888718e-06
3.8909953e-06
3.8914249e-06
3.891524e-06
3.891577e-06
3.8916124e-06
3.8916294e-06
3.8916372e-06
3.8916392e-06
3.8916395e-06
3.8916395e-06
3.8916394e-06
3.8916395e-06
3.8916456e-06
3.891972e-06
3.8920342e-06
3.8919495e-06
3.8920354e-06
3.8919409e-06
3.8919232e-06
3.8407861e-06
3.8674476e-06
3.8821908e-06
3.88889e-06
3.8910005e-06
3.891427e-06
3.8915253e-06
3.8915778e-06
3.8916128e-06
3.8916295e-06
3.8916372e-06
3.8916392e-06
3.8916395e-06
3.8916395e-06
3.8916394e-06
3.8916395e-06
3.8916793e-06
3.8920191e-06
3.8920004e-06
3.8919649e-06
3.8920488e-06
3.8918573e-06
3.8919635e-06
3.8033622e-06
3.8410361e-06
3.8675767e-06
3.8822432e-06
3.8889084e-06
3.8910056e-06
3.8914292e-06
3.8915266e-06
3.8915785e-06
3.8916131e-06
3.8916297e-06
3.8916372e-06
3.8916392e-06
3.8916395e-06
3.8916395e-06
3.8916394e-06
3.8916396e-06
3.8917578e-06
3.8920401e-06
3.8919689e-06
3.8919893e-06
3.8920615e-06
3.8918136e-06
3.8919767e-06
3.7654889e-06
3.8040651e-06
3.8413079e-06
3.8677062e-06
3.8822962e-06
3.8889274e-06
3.8910107e-06
3.8914313e-06
3.8915279e-06
3.8915793e-06
3.8916135e-06
3.8916298e-06
3.8916373e-06
3.8916392e-06
3.8916395e-06
3.8916395e-06
3.8916394e-06
3.8916418e-06
3.8918597e-06
3.8920455e-06
3.8919521e-06
3.8920106e-06
3.8920724e-06
3.8918124e-06
3.891953e-06
3.7444086e-06
3.7666084e-06
3.804507e-06
3.841574e-06
3.8678383e-06
3.8823502e-06
3.8889467e-06
3.8910159e-06
3.8914335e-06
3.8915292e-06
3.89158e-06
3.8916138e-06
3.89163e-06
3.8916374e-06
3.8916392e-06
3.8916395e-06
3.8916395e-06
3.8916394e-06
3.8916611e-06
3.8919505e-06
3.8920437e-06
3.8919463e-06
3.8920271e-06
3.892066e-06
3.8918399e-06
3.8919237e-06
3.7512695e-06
3.7459839e-06
3.7672964e-06
3.8049996e-06
3.8418487e-06
3.8679721e-06
3.8824054e-06
3.8889663e-06
3.8910211e-06
3.8914356e-06
3.8915306e-06
3.8915808e-06
3.8916141e-06
3.8916301e-06
3.8916375e-06
3.8916393e-06
3.8916395e-06
3.8916394e-06
3.8916394e-06
3.8917211e-06
3.892012e-06
3.8920196e-06
3.8919454e-06
3.8920407e-06
3.8920111e-06
3.8918822e-06
3.7774732e-06
3.7536352e-06
3.7469327e-06
3.7680723e-06
3.8054935e-06
3.8421264e-06
3.8681079e-06
3.8824617e-06
3.8889857e-06
3.8910264e-06
3.8914378e-06
3.8915319e-06
3.8915816e-06
3.8916145e-06
3.8916303e-06
3.8916375e-06
3.8916393e-06
3.8916395e-06
3.8916394e-06
3.8916394e-06
3.8918145e-06
3.8920433e-06
3.891984e-06
3.8919507e-06
3.8920534e-06
3.8919198e-06
3.8919286e-06
3.7876292e-06
3.7794773e-06
3.7547043e-06
3.7480104e-06
3.7688462e-06
3.805997e-06
3.8424091e-06
3.8682458e-06
3.8825191e-06
3.8890049e-06
3.8910317e-06
3.8914399e-06
3.8915332e-06
3.8915823e-06
3.8916148e-06
3.8916304e-06
3.8916376e-06
3.8916393e-06
3.8916395e-06
3.8916394e-06
3.8916401e-06
3.891909e-06
3.8920536e-06
3.89196e-06
3.8919713e-06
3.892066e-06
3.8918433e-06
3.8919669e-06
3.7818602e-06
3.7781565e-06
3.789751e-06
3.7806477e-06
3.7559798e-06
3.7490819e-06
3.7696358e-06
3.8065081e-06
3.8426964e-06
3.8683863e-06
3.8825777e-06
3.8890239e-06
3.891037e-06
3.8914421e-06
3.8915345e-06
3.891583e-06
3.8916151e-06
3.8916305e-06
3.8916376e-06
3.8916393e-06
3.8916395e-06
3.8916394e-06
3.8916495e-06
3.8919809e-06
3.8920546e-06
3.8919492e-06
3.8919961e-06
3.8920753e-06
3.8918087e-06
3.8919777e-06
3.7982219e-06
3.7844759e-06
3.7807069e-06
3.7909944e-06
3.7820167e-06
3.7572461e-06
3.7501773e-06
3.7704367e-06
3.807027e-06
3.8429882e-06
3.8685298e-06
3.8826369e-06
3.8890432e-06
3.8910422e-06
3.8914442e-06
3.8915358e-06
3.8915837e-06
3.8916155e-06
3.8916307e-06
3.8916376e-06
3.8916393e-06
3.8916395e-06
3.8916394e-06
3.8916918e-06
3.8920241e-06
3.892039e-06
3.8919464e-06
3.8920162e-06
3.8920602e-06
3.8918131e-06
3.8919528e-06
3.8042547e-06
3.8012743e-06
3.8006227e-06
3.7862783e-06
3.7822428e-06
3.7924595e-06
3.7833795e-06
3.7585476e-06
3.7512892e-06
3.7712496e-06
3.8075538e-06
3.8432848e-06
3.8686764e-06
3.8826967e-06
3.8890629e-06
3.8910476e-06
3.8914463e-06
3.8915371e-06
3.8915845e-06
3.8916158e-06
3.8916308e-06
3.8916377e-06
3.8916393e-06
3.8916395e-06
3.8916395e-06
3.8917766e-06
3.8920434e-06
3.8920007e-06
3.8919467e-06
3.8920319e-06
3.8919938e-06
3.8918429e-06
3.8919237e-06
3.8181677e-06
3.8135687e-06
3.8053431e-06
3.8029391e-06
3.8021128e-06
3.7882584e-06
3.7840368e-06
3.7939272e-06
3.7847881e-06
3.7598755e-06
3.7524191e-06
3.7720755e-06
3.8080889e-06
3.8435875e-06
3.8688256e-06
3.8827569e-06
3.8890833e-06
3.891053e-06
3.8914484e-06
3.8915384e-06
3.8915853e-06
3.8916162e-06
3.891631e-06
3.8916377e-06
3.8916394e-06
3.8916394e-06
3.8916432e-06
3.8918775e-06
3.8920482e-06
3.8919675e-06
3.8919581e-06
3.8920457e-06
3.8919022e-06
3.8918857e-06
3.8326155e-06
3.8238459e-06
3.8186846e-06
3.8139931e-06
3.8055667e-06
3.8036141e-06
3.8035777e-06
3.7901669e-06
3.7858145e-06
3.7954514e-06
3.7862327e-06
3.76123e-06
3.7535671e-06
3.7729156e-06
3.8086335e-06
3.8438966e-06
3.8689767e-06
3.8828178e-06
3.8891042e-06
3.8910585e-06
3.8914506e-06
3.8915397e-06
3.8915861e-06
3.8916166e-06
3.8916311e-06
3.8916377e-06
3.8916393e-06
3.8916394e-06
3.8916685e-06
3.8919636e-06
3.8920462e-06
3.8919495e-06
3.8919818e-06
3.8920587e-06
3.8918344e-06
3.8919319e-06
3.9437059e-06
3.8897728e-06
3.8516478e-06
3.8328973e-06
3.8243579e-06
3.8188539e-06
3.8139985e-06
3.8057275e-06
3.8041639e-06
3.8048159e-06
3.7920291e-06
3.7876257e-06
3.7970199e-06
3.7877159e-06
3.7626104e-06
3.754734e-06
3.7737702e-06
3.8091882e-06
3.8442113e-06
3.8691297e-06
3.8828799e-06
3.8891257e-06
3.8910641e-06
3.8914527e-06
3.891541e-06
3.8915869e-06
3.8916169e-06
3.8916312e-06
3.8916378e-06
3.8916393e-06
3.8916394e-06
3.8917363e-06
3.8920206e-06
3.8920219e-06
3.8919427e-06
3.8920045e-06
3.892071e-06
3.8918092e-06
3.8919693e-06
4.0134113e-06
4.023264e-06
3.9953875e-06
3.9434858e-06
3.8897358e-06
3.8517575e-06
3.8329144e-06
3.8245202e-06
3.8191147e-06
3.8141031e-06
3.8058117e-06
3.8044887e-06
3.8058477e-06
3.7938033e-06
3.7894423e-06
3.7986326e-06
3.7892357e-06
3.7640182e-06
3.7559213e-06
3.7746399e-06
3.8097534e-06
3.8445308e-06
3.8692843e-06
3.8829434e-06
3.8891476e-06
3.8910696e-06
3.8914548e-06
3.8915423e-06
3.8915877e-06
3.8916173e-06
3.8916314e-06
3.8916378e-06
3.8916393e-06
3.8916405e-06
3.8918336e-06
3.8920489e-06
3.891987e-06
3.8919414e-06
3.8920224e-06
3.8920767e-06
3.8918197e-06
3.8919784e-06
3.9694233e-06
3.999877e-06
3.9886163e-06
3.9580828e-06
3.9717535e-06
4.0126843e-06
4.0226456e-06
3.9949605e-06
3.9431409e-06
3.8895778e-06
3.8516965e-06
3.8328863e-06
3.8246464e-06
3.8193599e-06
3.8142573e-06
3.8058931e-06
3.804659e-06
3.8066579e-06
3.7954629e-06
3.7912488e-06
3.8002842e-06
3.7907908e-06
3.7654554e-06
3.75713e-06
3.7755253e-06
3.8103279e-06
3.844855e-06
3.869441e-06
3.8830084e-06
3.8891696e-06
3.8910752e-06
3.891457e-06
3.8915436e-06
3.8915884e-06
3.8916176e-06
3.8916315e-06
3.8916378e-06
3.8916393e-06
3.8916533e-06
3.8919284e-06
3.8920579e-06
3.8919631e-06
3.8919454e-06
3.8920371e-06
3.8920498e-06
3.891852e-06
3.8919524e-06
3.9322482e-06
3.9377413e-06
3.9425476e-06
3.9442671e-06
3.9480484e-06
3.9589361e-06
3.9614624e-06
3.9534414e-06
3.9688696e-06
3.9992759e-06
3.9881919e-06
3.9577415e-06
3.9711891e-06
4.0117196e-06
4.0218149e-06
3.9943709e-06
3.9428328e-06
3.889421e-06
3.851613e-06
3.8327998e-06
3.8246703e-06
3.8195614e-06
3.8144712e-06
3.8060078e-06
3.8047172e-06
3.8072556e-06
3.7969815e-06
3.7930249e-06
3.8019653e-06
3.7923824e-06
3.7669235e-06
3.7583616e-06
3.7764269e-06
3.8109106e-06
3.8451843e-06
3.8696001e-06
3.8830743e-06
3.8891918e-06
3.8910808e-06
3.8914591e-06
3.8915449e-06
3.8915892e-06
3.891618e-06
3.8916317e-06
3.8916378e-06
3.8916393e-06
3.8917019e-06
3.8919991e-06
3.8920584e-06
3.8919518e-06
3.8919651e-06
3.8920505e-06
3.8919727e-06
3.8918945e-06
3.8919233e-06
0.0010036758
0.0007184733
0.0003422312
4.6056922e-05
5.1318655e-06
4.0521455e-06
4.0571325e-06
4.119389e-06
4.2044418e-06
4.2763872e-06
4.3017479e-06
4.2891059e-06
4.1855958e-06
3.9790451e-06
3.8253626e-06
3.8021888e-06
3.7770632e-06
3.7857687e-06
3.8754141e-06
3.955344e-06
3.9175935e-06
3.9237004e-06
4.0251748e-06
4.1741372e-06
4.2055534e-06
4.1647783e-06
4.082901e-06
3.9994508e-06
3.9453369e-06
3.9251117e-06
3.9251635e-06
3.9246298e-06
3.9277816e-06
3.9311166e-06
3.9319123e-06
3.9373452e-06
3.942158e-06
3.9438962e-06
3.9476269e-06
3.9584855e-06
3.9610553e-06
3.9530552e-06
3.968109e-06
3.9984251e-06
3.9875769e-06
3.9572747e-06
3.9704621e-06
4.0108551e-06
4.0211136e-06
3.993883e-06
3.9425336e-06
3.8892715e-06
3.8515286e-06
3.8327061e-06
3.8246386e-06
3.8196838e-06
3.814702e-06
3.806178e-06
3.8047189e-06
3.8076597e-06
3.7983395e-06
3.7947491e-06
3.8036648e-06
3.7940119e-06
3.7684238e-06
3.7596168e-06
3.7773441e-06
3.8115016e-06
3.8455189e-06
3.8697617e-06
3.8831411e-06
3.8892143e-06
3.8910865e-06
3.8914613e-06
3.8915462e-06
3.89159e-06
3.8916183e-06
3.8916318e-06
3.8916379e-06
3.8916395e-06
3.8917894e-06
3.8920402e-06
3.8920414e-06
3.8919484e-06
3.8919905e-06
3.8920634e-06
3.8918832e-06
3.8919387e-06
0.0017484695
0.0016260287
0.0014590416
0.0012535278
0.0010111132
0.00072525961
0.00034944357
4.7960215e-05
5.1927594e-06
4.0537947e-06
4.0561272e-06
4.1174268e-06
4.2027717e-06
4.2746079e-06
4.3000442e-06
4.2876684e-06
4.1852407e-06
3.9793078e-06
3.8254975e-06
3.8021999e-06
3.7770993e-06
3.785513e-06
3.87484e-06
3.9550004e-06
3.9174325e-06
3.9232061e-06
4.0239852e-06
4.1726719e-06
4.2044251e-06
4.1638619e-06
4.0822666e-06
3.9989624e-06
3.9449597e-06
3.9247858e-06
3.9248267e-06
3.9243196e-06
3.9274314e-06
3.9307697e-06
3.9313807e-06
3.9367502e-06
3.9415628e-06
3.9433294e-06
3.9470154e-06
3.9578021e-06
3.9604429e-06
3.95249e-06
3.9674214e-06
3.9976643e-06
3.9870533e-06
3.956882e-06
3.969829e-06
4.00998e-06
4.0203885e-06
3.9933854e-06
3.9422505e-06
3.8891405e-06
3.8514581e-06
3.8326317e-06
3.8245805e-06
3.8197235e-06
3.8149118e-06
3.8064036e-06
3.8047046e-06
3.8078961e-06
3.7995247e-06
3.7963997e-06
3.8053721e-06
3.7956788e-06
3.7699574e-06
3.7608964e-06
3.7782762e-06
3.8121021e-06
3.8458589e-06
3.8699259e-06
3.8832085e-06
3.8892371e-06
3.8910923e-06
3.8914635e-06
3.8915475e-06
3.8915908e-06
3.8916187e-06
3.891632e-06
3.8916379e-06
3.8916449e-06
3.8918883e-06
3.8920572e-06
3.8920029e-06
3.8919482e-06
3.8920118e-06
3.8920748e-06
3.891824e-06
3.891973e-06
0.0018178016
0.0018472287
0.0018284385
0.0017570004
0.0016346582
0.0014674952
0.0012616238
0.0010187798
0.000732389
0.00035711966
5.0030818e-05
5.2610584e-06
4.0537571e-06
4.0548674e-06
4.1158534e-06
4.2009115e-06
4.2726161e-06
4.2980932e-06
4.2858544e-06
4.1838155e-06
3.9788274e-06
3.8251409e-06
3.8019828e-06
3.7771131e-06
3.7853215e-06
3.8740501e-06
3.9543896e-06
3.9170292e-06
3.9224582e-06
4.0225597e-06
4.1709983e-06
4.2030499e-06
4.162653e-06
4.0813215e-06
3.9981863e-06
3.9443191e-06
3.9242375e-06
3.9242483e-06
3.9237902e-06
3.9268591e-06
3.9301933e-06
3.9309271e-06
3.9362337e-06
3.9410517e-06
3.9428445e-06
3.9464846e-06
3.9571876e-06
3.9599107e-06
3.9519975e-06
3.9667077e-06
3.9968675e-06
3.9864903e-06
3.9564637e-06
3.9691655e-06
4.0090977e-06
4.0196622e-06
3.9928894e-06
3.9419705e-06
3.8890218e-06
3.8514095e-06
3.832584e-06
3.82453e-06
3.8197047e-06
3.8150712e-06
3.8066711e-06
3.804698e-06
3.8079934e-06
3.8005326e-06
3.797956e-06
3.8070767e-06
3.7973804e-06
3.7715251e-06
3.7622007e-06
3.7792236e-06
3.8127128e-06
3.8462041e-06
3.8700921e-06
3.8832769e-06
3.8892603e-06
3.8910981e-06
3.8914656e-06
3.8915488e-06
3.8915916e-06
3.891619e-06
3.8916321e-06
3.8916379e-06
3.8916753e-06
3.8919711e-06
3.8920608e-06
3.8919697e-06
3.8919565e-06
3.8920286e-06
3.8920756e-06
3.8918063e-06
3.8919794e-06
0.0015471221
0.0016585848
0.0017548276
0.0018241243
0.0018545334
0.0018365157
0.0017655869
0.001643439
0.0014761743
0.0012699794
0.0010266757
0.00073973641
0.00036505489
5.2196817e-05
5.3353963e-06
4.0552686e-06
4.0536724e-06
4.1142927e-06
4.1990916e-06
4.2707026e-06
4.2962517e-06
4.2842074e-06
4.1828056e-06