/*--------------------------------*- C++ -*----------------------------------*\
| =========                 |                                                 |
| \\      /  F ield         | OpenFOAM: The Open Source CFD Toolbox           |
|  \\    /   O peration     | Version:  2506                                  |
|   \\  /    A nd           | Website:  www.openfoam.com                      |
|    \\/     M anipulation  |                                                 |
\*---------------------------------------------------------------------------*/
FoamFile
{
    version     2.0;
    format      ascii;
    arch        "LSB;label=32;scalar=64";
    class       volScalarField;
    location    "0.0065";
    object      nut;
}
// * * * * * * * * * * * * * * * * * * * * * * * * * * * * * * * * * * * * * //

dimensions      [0 2 -1 0 0 0 0];

internalField   nonuniform List<scalar> 
13763
(
3.8759303e-06
3.8734816e-06
3.8711206e-06
3.8688002e-06
3.8666129e-06
3.8648952e-06
3.8632967e-06
3.8611802e-06
3.8587794e-06
3.8563573e-06
3.8544107e-06
3.8529808e-06
3.8520027e-06
3.8514846e-06
3.8513636e-06
3.8513019e-06
3.8514144e-06
3.8516726e-06
3.8520581e-06
3.8526118e-06
3.8533384e-06
3.8542535e-06
3.8554797e-06
3.8574001e-06
3.8602542e-06
3.8638686e-06
3.8671161e-06
3.8688435e-06
3.869426e-06
3.8695608e-06
3.8695742e-06
3.8695472e-06
3.8695156e-06
3.8694793e-06
3.8694542e-06
3.8694531e-06
3.8694596e-06
3.8694831e-06
3.8695147e-06
3.8695246e-06
3.8695205e-06
3.8695132e-06
3.8695068e-06
3.8694999e-06
3.8694976e-06
3.8695203e-06
3.8695596e-06
3.8695759e-06
3.8759621e-06
3.8735093e-06
3.871146e-06
3.8688136e-06
3.8666396e-06
3.8649226e-06
3.8633616e-06
3.8612652e-06
3.858858e-06
3.856437e-06
3.8543959e-06
3.8529763e-06
3.8520069e-06
3.8515215e-06
3.8513743e-06
3.8513212e-06
3.8514301e-06
3.8516923e-06
3.8520767e-06
3.8526305e-06
3.8533546e-06
3.8542689e-06
3.8554944e-06
3.8574147e-06
3.8602684e-06
3.8638825e-06
3.8671308e-06
3.8688584e-06
3.8694418e-06
3.8695655e-06
3.8695794e-06
3.8695532e-06
3.8695223e-06
3.8694867e-06
3.869462e-06
3.8694621e-06
3.8694696e-06
3.869494e-06
3.8695265e-06
3.869537e-06
3.8695332e-06
3.8695256e-06
3.8695188e-06
3.869512e-06
3.8695048e-06
3.8694998e-06
3.8695097e-06
3.8695453e-06
3.8695721e-06
3.8695696e-06
3.8760077e-06
3.8735351e-06
3.8711742e-06
3.8688575e-06
3.8666683e-06
3.8649487e-06
3.8633954e-06
3.8612772e-06
3.8588886e-06
3.856462e-06
3.8544168e-06
3.8529944e-06
3.8520218e-06
3.8515052e-06
3.851384e-06
3.8513204e-06
3.8514308e-06
3.8516918e-06
3.8520764e-06
3.8526308e-06
3.8533564e-06
3.8542711e-06
3.8554968e-06
3.8574175e-06
3.8602721e-06
3.8638867e-06
3.8671351e-06
3.8688623e-06
3.8694463e-06
3.8695716e-06
3.8695859e-06
3.8695604e-06
3.8695303e-06
3.8694956e-06
3.8694715e-06
3.8694726e-06
3.8694809e-06
3.8695059e-06
3.8695388e-06
3.8695498e-06
3.8695463e-06
3.8695389e-06
3.8695318e-06
3.8695248e-06
3.8695185e-06
3.8695125e-06
3.8695042e-06
3.8695075e-06
3.8695399e-06
3.8695368e-06
3.8695687e-06
3.8760498e-06
3.8735623e-06
3.8712041e-06
3.8688928e-06
3.866694e-06
3.8649775e-06
3.8634216e-06
3.8612884e-06
3.8589147e-06
3.8564837e-06
3.8544395e-06
3.8530125e-06
3.8520331e-06
3.8515108e-06
3.8513961e-06
3.8513282e-06
3.8514381e-06
3.8516975e-06
3.8520817e-06
3.852636e-06
3.8533626e-06
3.8542768e-06
3.8555015e-06
3.8574222e-06
3.8602774e-06
3.8638924e-06
3.8671407e-06
3.8688671e-06
3.8694516e-06
3.8695786e-06
3.8695937e-06
3.8695692e-06
3.8695399e-06
3.869506e-06
3.8694822e-06
3.869484e-06
3.8694927e-06
3.869518e-06
3.8695512e-06
3.8695626e-06
3.8695596e-06
3.8695527e-06
3.8695462e-06
3.8695397e-06
3.8695336e-06
3.8695287e-06
3.869521e-06
3.8695121e-06
3.8695079e-06
3.8695075e-06
3.8695351e-06
3.8695657e-06
3.8695638e-06
3.8760902e-06
3.8735938e-06
3.871236e-06
3.8689221e-06
3.8667188e-06
3.8650032e-06
3.8634442e-06
3.8613071e-06
3.8589377e-06
3.8565054e-06
3.8544417e-06
3.853018e-06
3.8520367e-06
3.8515157e-06
3.8514021e-06
3.851335e-06
3.8514439e-06
3.8517018e-06
3.8520857e-06
3.8526393e-06
3.8533662e-06
3.8542799e-06
3.8555037e-06
3.8574246e-06
3.8602806e-06
3.8638963e-06
3.8671448e-06
3.8688702e-06
3.8694553e-06
3.869587e-06
3.869603e-06
3.8695794e-06
3.8695506e-06
3.8695173e-06
3.8694934e-06
3.8694953e-06
3.8695045e-06
3.8695302e-06
3.869564e-06
3.8695759e-06
3.8695736e-06
3.8695675e-06
3.8695619e-06
3.8695561e-06
3.8695506e-06
3.869546e-06
3.869539e-06
3.8695308e-06
3.8695177e-06
3.8695193e-06
3.8695128e-06
3.8695322e-06
3.869531e-06
3.8695633e-06
3.8695586e-06
3.8761287e-06
3.8736249e-06
3.8712657e-06
3.8689476e-06
3.8667442e-06
3.8650294e-06
3.8634671e-06
3.8613283e-06
3.8589563e-06
3.8565257e-06
3.8544371e-06
3.8530167e-06
3.8520365e-06
3.8515167e-06
3.8514034e-06
3.8513371e-06
3.8514451e-06
3.8517025e-06
3.852086e-06
3.852639e-06
3.8533664e-06
3.8542795e-06
3.8555031e-06
3.8574245e-06
3.8602822e-06
3.8638997e-06
3.8671491e-06
3.8688736e-06
3.8694598e-06
3.8695963e-06
3.869613e-06
3.8695898e-06
3.8695612e-06
3.8695282e-06
3.8695039e-06
3.8695062e-06
3.8695161e-06
3.8695425e-06
3.869577e-06
3.8695898e-06
3.8695884e-06
3.8695831e-06
3.8695783e-06
3.8695735e-06
3.8695688e-06
3.8695648e-06
3.8695583e-06
3.8695503e-06
3.8695383e-06
3.8695409e-06
3.8695296e-06
3.8695166e-06
3.8695185e-06
3.869532e-06
3.8695282e-06
3.8695591e-06
3.8695551e-06
3.8761658e-06
3.8736548e-06
3.871293e-06
3.8689716e-06
3.8667681e-06
3.8650551e-06
3.863491e-06
3.861348e-06
3.8589759e-06
3.856545e-06
3.854432e-06
3.8530152e-06
3.8520366e-06
3.8515173e-06
3.8514032e-06
3.8513375e-06
3.8514441e-06
3.8517007e-06
3.8520838e-06
3.8526361e-06
3.8533647e-06
3.8542779e-06
3.8555027e-06
3.8574254e-06
3.8602854e-06
3.8639055e-06
3.8671559e-06
3.8688791e-06
3.8694658e-06
3.869605e-06
3.869622e-06
3.8695991e-06
3.8695708e-06
3.8695383e-06
3.8695136e-06
3.8695164e-06
3.8695273e-06
3.8695547e-06
3.8695901e-06
3.8696038e-06
3.8696033e-06
3.869599e-06
3.8695952e-06
3.8695913e-06
3.8695876e-06
3.8695846e-06
3.869579e-06
3.8695714e-06
3.86956e-06
3.8695634e-06
3.8695537e-06
3.8695377e-06
3.8695412e-06
3.8695265e-06
3.8695261e-06
3.8695308e-06
3.8695275e-06
3.8695557e-06
3.8695538e-06
3.8695541e-06
3.8762041e-06
3.8736852e-06
3.8713208e-06
3.8689952e-06
3.8667911e-06
3.8650781e-06
3.8635061e-06
3.8613565e-06
3.8589861e-06
3.8565566e-06
3.8544282e-06
3.8530147e-06
3.852038e-06
3.8515186e-06
3.8514018e-06
3.8513373e-06
3.8514424e-06
3.8516976e-06
3.8520813e-06
3.8526338e-06
3.8533639e-06
3.8542784e-06
3.8555048e-06
3.8574287e-06
3.8602904e-06
3.8639133e-06
3.8671642e-06
3.8688849e-06
3.8694716e-06
3.8696118e-06
3.8696294e-06
3.8696069e-06
3.8695793e-06
3.8695476e-06
3.869522e-06
3.8695254e-06
3.8695375e-06
3.8695659e-06
3.8696025e-06
3.8696173e-06
3.8696179e-06
3.8696147e-06
3.8696121e-06
3.8696093e-06
3.8696068e-06
3.8696049e-06
3.8696006e-06
3.8695935e-06
3.8695832e-06
3.8695875e-06
3.8695791e-06
3.8695646e-06
3.8695691e-06
3.869553e-06
3.8695545e-06
3.8695348e-06
3.8695338e-06
3.8695314e-06
3.8695307e-06
3.8695331e-06
3.8695534e-06
3.8695496e-06
3.8762462e-06
3.8737196e-06
3.8713524e-06
3.8690207e-06
3.8668157e-06
3.8650952e-06
3.8635125e-06
3.8613607e-06
3.85899e-06
3.8565614e-06
3.8544284e-06
3.8530165e-06
3.8520415e-06
3.8515208e-06
3.8513991e-06
3.8513367e-06
3.8514414e-06
3.8516955e-06
3.8520808e-06
3.8526338e-06
3.8533649e-06
3.854281e-06
3.8555078e-06
3.8574321e-06
3.8602948e-06
3.8639207e-06
3.867172e-06
3.8688892e-06
3.8694755e-06
3.8696164e-06
3.8696346e-06
3.8696127e-06
3.869586e-06
3.8695554e-06
3.869528e-06
3.8695314e-06
3.8695447e-06
3.8695744e-06
3.8696122e-06
3.8696283e-06
3.8696302e-06
3.8696284e-06
3.8696271e-06
3.8696259e-06
3.8696248e-06
3.8696244e-06
3.8696217e-06
3.8696153e-06
3.8696068e-06
3.8696112e-06
3.8696051e-06
3.8695929e-06
3.8695978e-06
3.8695835e-06
3.8695862e-06
3.8695661e-06
3.8695662e-06
3.8695442e-06
3.8695461e-06
3.8695519e-06
3.8695369e-06
3.8695337e-06
3.876289e-06
3.8737528e-06
3.8713839e-06
3.8690459e-06
3.866838e-06
3.8651034e-06
3.8635171e-06
3.8613605e-06
3.8589888e-06
3.8565646e-06
3.8544326e-06
3.853021e-06
3.8520466e-06
3.8515231e-06
3.8513964e-06
3.8513364e-06
3.8514427e-06
3.8516959e-06
3.8520821e-06
3.8526346e-06
3.8533658e-06
3.8542832e-06
3.8555096e-06
3.8574337e-06
3.8602972e-06
3.8639267e-06
3.8671783e-06
3.8688911e-06
3.8694766e-06
3.869618e-06
3.8696369e-06
3.8696155e-06
3.8695895e-06
3.8695599e-06
3.8695296e-06
3.8695327e-06
3.8695468e-06
3.8695775e-06
3.8696164e-06
3.8696336e-06
3.8696368e-06
3.8696363e-06
3.8696364e-06
3.8696367e-06
3.8696372e-06
3.8696385e-06
3.8696377e-06
3.8696321e-06
3.8696268e-06
3.8696294e-06
3.869627e-06
3.8696196e-06
3.8696234e-06
3.8696131e-06
3.8696154e-06
3.8695993e-06
3.8695998e-06
3.8695801e-06
3.8695832e-06
3.8695899e-06
3.8695616e-06
3.8695593e-06
3.8763244e-06
3.8737745e-06
3.8714003e-06
3.8690567e-06
3.866847e-06
3.8651101e-06
3.8635112e-06
3.8613493e-06
3.8589743e-06
3.8565611e-06
3.8544417e-06
3.8530281e-06
3.8520529e-06
3.8515258e-06
3.8513962e-06
3.8513379e-06
3.8514462e-06
3.8516976e-06
3.8520831e-06
3.8526341e-06
3.8533646e-06
3.8542834e-06
3.8555091e-06
3.8574329e-06
3.8602971e-06
3.8639302e-06
3.8671821e-06
3.86889e-06
3.8694745e-06
3.8696163e-06
3.8696356e-06
3.8696143e-06
3.8695886e-06
3.8695595e-06
3.8695262e-06
3.8695285e-06
3.8695429e-06
3.869574e-06
3.8696134e-06
3.8696312e-06
3.869635e-06
3.8696352e-06
3.8696362e-06
3.8696374e-06
3.869639e-06
3.8696415e-06
3.8696421e-06
3.8696377e-06
3.8696364e-06
3.8696348e-06
3.8696369e-06
3.8696367e-06
3.8696367e-06
3.8696337e-06
3.8696329e-06
3.8696255e-06
3.8696243e-06
3.8696133e-06
3.8696155e-06
3.86962e-06
3.8696002e-06
3.8695977e-06
3.8763568e-06
3.8737892e-06
3.8714079e-06
3.8690581e-06
3.8668522e-06
3.865113e-06
3.8634917e-06
3.8613284e-06
3.858945e-06
3.8565485e-06
3.8544568e-06
3.853038e-06
3.85206e-06
3.8515299e-06
3.8513988e-06
3.8513405e-06
3.8514495e-06
3.8516983e-06
3.8520828e-06
3.852631e-06
3.8533606e-06
3.8542811e-06
3.8555064e-06
3.8574299e-06
3.8602942e-06
3.8639303e-06
3.8671822e-06
3.8688858e-06
3.8694692e-06
3.8696114e-06
3.8696306e-06
3.8696092e-06
3.8695833e-06
3.8695543e-06
3.8695187e-06
3.86952e-06
3.8695342e-06
3.8695652e-06
3.8696044e-06
3.8696222e-06
3.8696259e-06
3.8696262e-06
3.8696273e-06
3.8696285e-06
3.8696302e-06
3.8696329e-06
3.8696339e-06
3.8696302e-06
3.8696318e-06
3.8696262e-06
3.869631e-06
3.8696369e-06
3.8696324e-06
3.8696362e-06
3.869631e-06
3.8696335e-06
3.8696287e-06
3.8696299e-06
3.8696283e-06
3.869627e-06
3.8696233e-06
3.8696189e-06
3.8763832e-06
3.8738097e-06
3.8714188e-06
3.8690631e-06
3.8668569e-06
3.8651131e-06
3.8634712e-06
3.8613125e-06
3.858915e-06
3.8565323e-06
3.8544764e-06
3.8530489e-06
3.8520674e-06
3.8515345e-06
3.851401e-06
3.8513422e-06
3.8514514e-06
3.8516977e-06
3.8520808e-06
3.8526252e-06
3.8533536e-06
3.8542763e-06
3.8555017e-06
3.8574246e-06
3.8602888e-06
3.8639265e-06
3.8671784e-06
3.8688792e-06
3.8694619e-06
3.869604e-06
3.8696229e-06
3.8696012e-06
3.8695748e-06
3.8695455e-06
3.8695084e-06
3.869509e-06
3.8695228e-06
3.8695534e-06
3.8695921e-06
3.8696094e-06
3.8696127e-06
3.8696124e-06
3.869613e-06
3.8696138e-06
3.869615e-06
3.8696172e-06
3.8696177e-06
3.8696141e-06
3.8696164e-06
3.8696084e-06
3.8696136e-06
3.8696222e-06
3.8696146e-06
3.8696215e-06
3.8696129e-06
3.8696209e-06
3.8696129e-06
3.8696222e-06
3.869616e-06
3.8696085e-06
3.8696181e-06
3.8696108e-06
3.8764251e-06
3.8738399e-06
3.8714385e-06
3.8690718e-06
3.8668706e-06
3.8651279e-06
3.863477e-06
3.8613219e-06
3.8589071e-06
3.8565234e-06
3.8544941e-06
3.8530576e-06
3.8520731e-06
3.8515378e-06
3.8514018e-06
3.8513424e-06
3.8514517e-06
3.8516954e-06
3.8520769e-06
3.8526167e-06
3.8533444e-06
3.8542695e-06
3.8554951e-06
3.8574174e-06
3.8602815e-06
3.8639192e-06
3.8671716e-06
3.8688711e-06
3.8694534e-06
3.8695951e-06
3.8696134e-06
3.8695914e-06
3.8695645e-06
3.8695347e-06
3.8694969e-06
3.8694968e-06
3.86951e-06
3.8695401e-06
3.8695783e-06
3.8695949e-06
3.8695976e-06
3.8695966e-06
3.8695965e-06
3.8695965e-06
3.8695969e-06
3.8695983e-06
3.8695981e-06
3.869594e-06
3.8695956e-06
3.8695862e-06
3.8695906e-06
3.8695994e-06
3.8695897e-06
3.8695967e-06
3.869586e-06
3.8695951e-06
3.869585e-06
3.8695963e-06
3.8695868e-06
3.8695748e-06
3.8695896e-06
3.8695801e-06
3.8764774e-06
3.8738771e-06
3.8714671e-06
3.8690798e-06
3.8668924e-06
3.8651552e-06
3.8635058e-06
3.8613481e-06
3.8589232e-06
3.8565263e-06
3.854505e-06
3.8530624e-06
3.8520768e-06
3.8515398e-06
3.8514013e-06
3.8513414e-06
3.8514504e-06
3.8516913e-06
3.852071e-06
3.8526063e-06
3.8533342e-06
3.8542613e-06
3.8554871e-06
3.8574088e-06
3.8602732e-06
3.8639096e-06
3.8671629e-06
3.8688624e-06
3.8694445e-06
3.8695855e-06
3.869603e-06
3.8695806e-06
3.8695533e-06
3.8695229e-06
3.8694849e-06
3.8694843e-06
3.8694968e-06
3.8695263e-06
3.869564e-06
3.8695798e-06
3.8695818e-06
3.86958e-06
3.8695792e-06
3.8695783e-06
3.8695778e-06
3.8695783e-06
3.8695771e-06
3.8695719e-06
3.8695724e-06
3.8695619e-06
3.8695646e-06
3.8695725e-06
3.8695613e-06
3.8695668e-06
3.8695548e-06
3.8695626e-06
3.8695509e-06
3.8695611e-06
3.8695496e-06
3.8695344e-06
3.8695494e-06
3.8695387e-06
3.8765411e-06
3.8739203e-06
3.8715062e-06
3.8690957e-06
3.8669203e-06
3.8651843e-06
3.8635328e-06
3.8613714e-06
3.8589431e-06
3.8565359e-06
3.8545105e-06
3.853065e-06
3.8520795e-06
3.851541e-06
3.8513999e-06
3.8513391e-06
3.8514471e-06
3.8516853e-06
3.8520634e-06
3.8525957e-06
3.8533245e-06
3.8542523e-06
3.855478e-06
3.8573995e-06
3.8602646e-06
3.8638992e-06
3.8671536e-06
3.8688535e-06
3.8694355e-06
3.8695756e-06
3.8695923e-06
3.8695695e-06
3.8695416e-06
3.8695108e-06
3.8694727e-06
3.8694715e-06
3.8694832e-06
3.8695121e-06
3.8695492e-06
3.8695643e-06
3.8695655e-06
3.8695629e-06
3.8695611e-06
3.8695592e-06
3.8695577e-06
3.869557e-06
3.8695546e-06
3.8695481e-06
3.8695474e-06
3.8695358e-06
3.8695367e-06
3.8695432e-06
3.8695306e-06
3.8695342e-06
3.8695211e-06
3.8695268e-06
3.8695137e-06
3.8695217e-06
3.8695088e-06
3.8694916e-06
3.8695045e-06
3.8694931e-06
3.8766081e-06
3.8739722e-06
3.8715548e-06
3.8691222e-06
3.8669539e-06
3.8652143e-06
3.8635574e-06
3.8613929e-06
3.858961e-06
3.8565483e-06
3.8545159e-06
3.8530677e-06
3.8520819e-06
3.8515416e-06
3.8513976e-06
3.8513354e-06
3.8514414e-06
3.8516777e-06
3.8520549e-06
3.852586e-06
3.8533155e-06
3.8542424e-06
3.8554682e-06
3.8573898e-06
3.860256e-06
3.8638893e-06
3.8671445e-06
3.8688446e-06
3.8694262e-06
3.8695655e-06
3.8695812e-06
3.869558e-06
3.8695296e-06
3.8694983e-06
3.8694598e-06
3.869458e-06
3.869469e-06
3.8694971e-06
3.8695334e-06
3.8695477e-06
3.8695479e-06
3.8695443e-06
3.8695413e-06
3.8695383e-06
3.8695356e-06
3.8695337e-06
3.8695301e-06
3.8695226e-06
3.8695208e-06
3.8695082e-06
3.8695072e-06
3.8695118e-06
3.8694983e-06
3.8694999e-06
3.8694858e-06
3.8694892e-06
3.8694751e-06
3.8694806e-06
3.8694673e-06
3.86945e-06
3.8694597e-06
3.8694477e-06
3.8766813e-06
3.8740305e-06
3.8716072e-06
3.869155e-06
3.8669896e-06
3.8652431e-06
3.8635828e-06
3.8614169e-06
3.8589797e-06
3.8565643e-06
3.8545263e-06
3.853071e-06
3.8520843e-06
3.8515414e-06
3.851394e-06
3.8513297e-06
3.851433e-06
3.8516689e-06
3.8520461e-06
3.8525772e-06
3.8533062e-06
3.8542318e-06
3.855458e-06
3.8573798e-06
3.8602478e-06
3.8638805e-06
3.8671358e-06
3.8688354e-06
3.8694164e-06
3.8695548e-06
3.8695695e-06
3.8695461e-06
3.8695169e-06
3.8694852e-06
3.8694461e-06
3.8694434e-06
3.8694534e-06
3.8694807e-06
3.869516e-06
3.8695292e-06
3.8695282e-06
3.8695234e-06
3.8695193e-06
3.8695152e-06
3.8695114e-06
3.8695085e-06
3.8695038e-06
3.869496e-06
3.8694933e-06
3.86948e-06
3.869477e-06
3.8694795e-06
3.8694655e-06
3.869465e-06
3.8694506e-06
3.8694516e-06
3.8694378e-06
3.869441e-06
3.8694293e-06
3.8694164e-06
3.8694229e-06
3.869411e-06
3.8767563e-06
3.8740896e-06
3.8716589e-06
3.8691917e-06
3.8670219e-06
3.8652711e-06
3.8636117e-06
3.8614435e-06
3.8589998e-06
3.8565798e-06
3.8545372e-06
3.8530742e-06
3.8520854e-06
3.8515384e-06
3.8513863e-06
3.851321e-06
3.8514227e-06
3.8516594e-06
3.8520369e-06
3.852568e-06
3.8532959e-06
3.8542205e-06
3.8554475e-06
3.8573694e-06
3.8602399e-06
3.8638726e-06
3.8671272e-06
3.8688258e-06
3.8694058e-06
3.8695435e-06
3.8695571e-06
3.8695333e-06
3.8695034e-06
3.869471e-06
3.8694311e-06
3.8694272e-06
3.869436e-06
3.8694621e-06
3.8694964e-06
3.8695085e-06
3.8695065e-06
3.8695008e-06
3.8694959e-06
3.8694909e-06
3.8694863e-06
3.8694827e-06
3.8694768e-06
3.869469e-06
3.8694653e-06
3.8694511e-06
3.8694465e-06
3.8694474e-06
3.8694337e-06
3.8694316e-06
3.8694185e-06
3.8694182e-06
3.8694081e-06
3.8694106e-06
3.8694058e-06
3.8694071e-06
3.8694112e-06
3.8694043e-06
3.8768318e-06
3.8741478e-06
3.8717095e-06
3.869235e-06
3.8670493e-06
3.8652993e-06
3.8636435e-06
3.8614644e-06
3.8590175e-06
3.8565937e-06
3.8545467e-06
3.8530755e-06
3.8520829e-06
3.8515324e-06
3.8513754e-06
3.8513102e-06
3.8514118e-06
3.8516496e-06
3.8520267e-06
3.8525569e-06
3.8532839e-06
3.8542086e-06
3.8554365e-06
3.857358e-06
3.8602321e-06
3.863865e-06
3.8671183e-06
3.8688156e-06
3.8693942e-06
3.8695311e-06
3.8695437e-06
3.8695194e-06
3.8694884e-06
3.8694554e-06
3.8694142e-06
3.8694089e-06
3.8694166e-06
3.8694418e-06
3.8694753e-06
3.8694868e-06
3.8694841e-06
3.8694778e-06
3.8694723e-06
3.8694668e-06
3.8694615e-06
3.8694572e-06
3.8694499e-06
3.8694416e-06
3.8694367e-06
3.8694221e-06
3.8694171e-06
3.8694176e-06
3.8694064e-06
3.8694047e-06
3.8693979e-06
3.8693993e-06
3.8694016e-06
3.8694065e-06
3.869419e-06
3.8694491e-06
3.8694528e-06
3.8694614e-06
3.8769069e-06
3.8742065e-06
3.8717623e-06
3.8692843e-06
3.8670769e-06
3.8653255e-06
3.8636701e-06
3.861478e-06
3.8590324e-06
3.8566072e-06
3.8545546e-06
3.8530723e-06
3.8520757e-06
3.8515237e-06
3.8513632e-06
3.8512991e-06
3.8514019e-06
3.8516398e-06
3.852015e-06
3.8525434e-06
3.8532704e-06
3.854196e-06
3.8554249e-06
3.8573456e-06
3.8602234e-06
3.8638562e-06
3.8671085e-06
3.8688044e-06
3.8693814e-06
3.8695177e-06
3.869529e-06
3.8695037e-06
3.8694717e-06
3.8694378e-06
3.8693956e-06
3.8693892e-06
3.8693963e-06
3.869421e-06
3.8694541e-06
3.8694653e-06
3.8694623e-06
3.8694556e-06
3.8694494e-06
3.8694431e-06
3.8694368e-06
3.8694313e-06
3.869423e-06
3.8694137e-06
3.8694084e-06
3.8693958e-06
3.8693934e-06
3.869396e-06
3.8693936e-06
3.8693973e-06
3.8694072e-06
3.8694165e-06
3.869444e-06
3.8694559e-06
3.8694944e-06
3.8695547e-06
3.8695592e-06
3.8695838e-06
3.8769852e-06
3.874268e-06
3.8718194e-06
3.8693377e-06
3.8671095e-06
3.8653521e-06
3.863692e-06
3.8614919e-06
3.8590464e-06
3.8566197e-06
3.8545575e-06
3.8530661e-06
3.8520678e-06
3.8515142e-06
3.8513506e-06
3.8512889e-06
3.8513932e-06
3.8516295e-06
3.8520016e-06
3.8525275e-06
3.8532556e-06
3.8541827e-06
3.8554123e-06
3.8573322e-06
3.8602127e-06
3.8638449e-06
3.8670973e-06
3.8687922e-06
3.869367e-06
3.8695025e-06
3.8695126e-06
3.8694861e-06
3.8694533e-06
3.8694185e-06
3.8693762e-06
3.8693694e-06
3.8693766e-06
3.8694013e-06
3.869434e-06
3.8694447e-06
3.8694409e-06
3.8694333e-06
3.869426e-06
3.8694186e-06
3.8694113e-06
3.8694052e-06
3.8693974e-06
3.869389e-06
3.8693859e-06
3.8693819e-06
3.8693882e-06
3.8693976e-06
3.8694161e-06
3.8694333e-06
3.8694722e-06
3.8694946e-06
3.8695489e-06
3.8695668e-06
3.8696156e-06
3.8696659e-06
3.8696691e-06
3.8696843e-06
3.8770693e-06
3.8743334e-06
3.871882e-06
3.8693933e-06
3.8671469e-06
3.8653818e-06
3.8637148e-06
3.861508e-06
3.8590606e-06
3.8566275e-06
3.854557e-06
3.853059e-06
3.8520591e-06
3.8515039e-06
3.851338e-06
3.8512791e-06
3.8513834e-06
3.8516183e-06
3.8519868e-06
3.8525101e-06
3.8532401e-06
3.8541685e-06
3.8553987e-06
3.8573178e-06
3.8601994e-06
3.8638309e-06
3.8670843e-06
3.8687784e-06
3.8693505e-06
3.8694855e-06
3.8694947e-06
3.8694673e-06
3.8694342e-06
3.8693991e-06
3.8693577e-06
3.8693511e-06
3.8693581e-06
3.8693822e-06
3.8694139e-06
3.8694234e-06
3.8694183e-06
3.8694096e-06
3.8694015e-06
3.8693938e-06
3.8693872e-06
3.869383e-06
3.8693798e-06
3.8693783e-06
3.8693837e-06
3.8694008e-06
3.8694257e-06
3.869448e-06
3.8694978e-06
3.8695314e-06
3.8695906e-06
3.8696172e-06
3.8696633e-06
3.8696751e-06
3.8696965e-06
3.8697064e-06
3.8697071e-06
3.8697068e-06
3.8771627e-06
3.8744035e-06
3.8719483e-06
3.8694509e-06
3.8671892e-06
3.8654141e-06
3.8637401e-06
3.8615278e-06
3.8590755e-06
3.8566324e-06
3.8545544e-06
3.8530505e-06
3.8520497e-06
3.8514937e-06
3.8513265e-06
3.851268e-06
3.8513711e-06
3.851606e-06
3.8519707e-06
3.8524919e-06
3.8532243e-06
3.8541536e-06
3.8553837e-06
3.8573023e-06
3.8601838e-06
3.8638145e-06
3.8670694e-06
3.8687629e-06
3.8693326e-06
3.8694676e-06
3.8694763e-06
3.8694487e-06
3.869416e-06
3.8693808e-06
3.8693404e-06
3.8693328e-06
3.8693386e-06
3.8693613e-06
3.8693917e-06
3.8694002e-06
3.8693945e-06
3.8693858e-06
3.8693788e-06
3.8693738e-06
3.8693724e-06
3.8693767e-06
3.869387e-06
3.8694035e-06
3.8694267e-06
3.8694774e-06
3.8695247e-06
3.8695582e-06
3.8696203e-06
3.8696514e-06
3.8696875e-06
3.8696993e-06
3.8697093e-06
3.8697107e-06
3.8697082e-06
3.8697012e-06
3.8697008e-06
3.8696986e-06
3.8772661e-06
3.8744787e-06
3.8720183e-06
3.8695098e-06
3.8672361e-06
3.8654505e-06
3.86377e-06
3.861553e-06
3.8590901e-06
3.8566323e-06
3.8545497e-06
3.8530424e-06
3.8520403e-06
3.8514845e-06
3.8513162e-06
3.8512554e-06
3.851357e-06
3.8515921e-06
3.8519526e-06
3.8524731e-06
3.8532078e-06
3.8541377e-06
3.8553666e-06
3.8572855e-06
3.860167e-06
3.8637971e-06
3.867053e-06
3.8687464e-06
3.8693147e-06
3.8694502e-06
3.8694592e-06
3.8694318e-06
3.8693993e-06
3.8693634e-06
3.8693218e-06
3.8693121e-06
3.8693166e-06
3.8693384e-06
3.8693686e-06
3.8693774e-06
3.8693733e-06
3.8693679e-06
3.8693669e-06
3.8693717e-06
3.869385e-06
3.8694094e-06
3.8694449e-06
3.8694885e-06
3.8695313e-06
3.8696007e-06
3.8696462e-06
3.8696709e-06
3.8697003e-06
3.8697099e-06
3.8697122e-06
3.8697124e-06
3.8697064e-06
3.8697045e-06
3.8696974e-06
3.8696883e-06
3.8696868e-06
3.869685e-06
3.8773762e-06
3.8745583e-06
3.8720913e-06
3.8695712e-06
3.867288e-06
3.8654921e-06
3.8638055e-06
3.8615825e-06
3.8591051e-06
3.8566265e-06
3.8545455e-06
3.8530344e-06
3.8520322e-06
3.851477e-06
3.851306e-06
3.8512422e-06
3.8513422e-06
3.8515761e-06
3.8519319e-06
3.8524527e-06
3.8531901e-06
3.8541203e-06
3.8553472e-06
3.8572674e-06
3.8601501e-06
3.8637797e-06
3.8670365e-06
3.8687306e-06
3.869299e-06
3.8694347e-06
3.8694432e-06
3.8694151e-06
3.8693813e-06
3.8693438e-06
3.8693005e-06
3.8692896e-06
3.8692941e-06
3.8693166e-06
3.8693487e-06
3.8693614e-06
3.8693638e-06
3.869369e-06
3.8693839e-06
3.8694105e-06
3.8694504e-06
3.8695029e-06
3.8695613e-06
3.8696148e-06
3.8696521e-06
3.8696906e-06
3.8697066e-06
3.8697132e-06
3.8697128e-06
3.8697118e-06
3.8697051e-06
3.8697026e-06
3.8696945e-06
3.8696919e-06
3.8696837e-06
3.8696721e-06
3.8696673e-06
3.8696615e-06
3.877492e-06
3.8746411e-06
3.8721667e-06
3.8696352e-06
3.8673438e-06
3.8655389e-06
3.8638451e-06
3.8616137e-06
3.8591218e-06
3.8566224e-06
3.8545399e-06
3.8530275e-06
3.8520257e-06
3.8514706e-06
3.8512946e-06
3.8512287e-06
3.8513273e-06
3.8515579e-06
3.8519086e-06
3.8524303e-06
3.8531705e-06
3.8541008e-06
3.8553258e-06
3.8572486e-06
3.8601333e-06
3.8637633e-06
3.8670214e-06
3.8687171e-06
3.8692854e-06
3.8694191e-06
3.8694251e-06
3.8693955e-06
3.8693601e-06
3.8693217e-06
3.8692784e-06
3.8692689e-06
3.8692756e-06
3.8693023e-06
3.8693413e-06
3.8693652e-06
3.8693841e-06
3.869412e-06
3.8694546e-06
3.8695097e-06
3.8695712e-06
3.8696298e-06
3.8696744e-06
3.8696985e-06
3.8697081e-06
3.8697101e-06
3.86971e-06
3.8697104e-06
3.8697039e-06
3.8697013e-06
3.8696935e-06
3.8696901e-06
3.8696809e-06
3.8696768e-06
3.8696656e-06
3.8696467e-06
3.8696346e-06
3.8696179e-06
3.8776141e-06
3.8747279e-06
3.8722457e-06
3.8697038e-06
3.8674039e-06
3.8655894e-06
3.8638871e-06
3.8616453e-06
3.8591415e-06
3.8566169e-06
3.8545337e-06
3.8530224e-06
3.8520195e-06
3.8514642e-06
3.8512822e-06
3.8512147e-06
3.8513118e-06
3.8515375e-06
3.8518833e-06
3.8524063e-06
3.8531491e-06
3.8540791e-06
3.8553034e-06
3.8572297e-06
3.860117e-06
3.8637491e-06
3.8670089e-06
3.8687044e-06
3.8692698e-06
3.8693999e-06
3.8694038e-06
3.8693736e-06
3.869338e-06
3.8693002e-06
3.86926e-06
3.8692557e-06
3.8692699e-06
3.8693078e-06
3.8693637e-06
3.8694106e-06
3.8694579e-06
3.8695144e-06
3.8695775e-06
3.8696355e-06
3.8696789e-06
3.869705e-06
3.8697155e-06
3.8697137e-06
3.8697103e-06
3.8697032e-06
3.8697005e-06
3.8696999e-06
3.8696926e-06
3.8696891e-06
3.8696804e-06
3.8696754e-06
3.8696631e-06
3.8696544e-06
3.8696353e-06
3.8696062e-06
3.8695927e-06
3.8695782e-06
3.8777426e-06
3.874821e-06
3.8723303e-06
3.8697768e-06
3.867469e-06
3.8656438e-06
3.8639308e-06
3.8616771e-06
3.8591655e-06
3.8566155e-06
3.8545316e-06
3.8530179e-06
3.8520124e-06
3.851457e-06
3.8512688e-06
3.851199e-06
3.8512947e-06
3.8515155e-06
3.8518573e-06
3.8523819e-06
3.8531265e-06
3.8540563e-06
3.855282e-06
3.8572125e-06
3.8601018e-06
3.8637357e-06
3.8669955e-06
3.8686882e-06
3.8692505e-06
3.8693786e-06
3.8693821e-06
3.8693528e-06
3.8693191e-06
3.8692843e-06
3.869252e-06
3.8692613e-06
3.8692932e-06
3.8693542e-06
3.8694385e-06
3.8695145e-06
3.8695817e-06
3.8696392e-06
3.8696812e-06
3.8697044e-06
3.8697135e-06
3.8697156e-06
3.8697136e-06
3.8697065e-06
3.8697013e-06
3.8696932e-06
3.8696896e-06
3.8696881e-06
3.8696801e-06
3.8696751e-06
3.8696636e-06
3.8696541e-06
3.869634e-06
3.8696172e-06
3.8695931e-06
3.8695775e-06
3.8695794e-06
3.8695755e-06
3.8778769e-06
3.8749178e-06
3.8724153e-06
3.8698536e-06
3.8675391e-06
3.8657015e-06
3.8639762e-06
3.8617095e-06
3.8591932e-06
3.8566216e-06
3.8545324e-06
3.8530126e-06
3.8520036e-06
3.8514481e-06
3.8512543e-06
3.8511817e-06
3.8512759e-06
3.8514927e-06
3.8518325e-06
3.8523586e-06
3.8531044e-06
3.8540343e-06
3.8552635e-06
3.8571968e-06
3.8600851e-06
3.8637189e-06
3.8669779e-06
3.868669e-06
3.8692303e-06
3.8693587e-06
3.869364e-06
3.869338e-06
3.8693094e-06
3.8692825e-06
3.8692681e-06
3.8693052e-06
3.8693676e-06
3.8694578e-06
3.8695622e-06
3.8696385e-06
3.8696832e-06
3.8697044e-06
3.8697121e-06
3.8697123e-06
3.8697102e-06
3.8697081e-06
3.8697046e-06
3.869697e-06
3.8696911e-06
3.8696823e-06
3.8696775e-06
3.8696749e-06
3.8696647e-06
3.8696557e-06
3.869637e-06
3.8696188e-06
3.8695923e-06
3.8695803e-06
3.8695755e-06
3.869578e-06
3.8695868e-06
3.8695933e-06
3.8780187e-06
3.8750133e-06
3.872497e-06
3.8699341e-06
3.8676138e-06
3.8657628e-06
3.864023e-06
3.8617425e-06
3.8592228e-06
3.8566323e-06
3.8545337e-06
3.8530062e-06
3.8519929e-06
3.8514371e-06
3.8512384e-06
3.8511633e-06
3.8512555e-06
3.8514699e-06
3.8518107e-06
3.8523377e-06
3.8530842e-06
3.8540142e-06
3.8552457e-06
3.8571783e-06
3.8600645e-06
3.8636989e-06
3.866958e-06
3.8686502e-06
3.8692132e-06
3.8693449e-06
3.8693548e-06
3.8693365e-06
3.8693204e-06
3.8693116e-06
3.8693296e-06
3.8694045e-06
3.8694901e-06
3.8695816e-06
3.8696631e-06
3.8697023e-06
3.8697122e-06
3.8697112e-06
3.8697083e-06
3.8697049e-06
3.8697015e-06
3.8696988e-06
3.8696946e-06
3.8696866e-06
3.8696798e-06
3.86967e-06
3.869663e-06
3.8696573e-06
3.8696414e-06
3.8696237e-06
3.8695966e-06
3.86958e-06
3.8695725e-06
3.8695757e-06
3.8695807e-06
3.8695992e-06
3.8696221e-06
3.869644e-06
3.8781682e-06
3.8751132e-06
3.8725821e-06
3.8700208e-06
3.8676927e-06
3.8658268e-06
3.8640712e-06
3.8617769e-06
3.8592516e-06
3.8566474e-06
3.8545355e-06
3.8529985e-06
3.8519803e-06
3.8514246e-06
3.8512217e-06
3.8511448e-06
3.8512342e-06
3.8514484e-06
3.8517926e-06
3.8523192e-06
3.8530646e-06
3.8539926e-06
3.8552233e-06
3.8571556e-06
3.8600426e-06
3.8636795e-06
3.86694e-06
3.8686358e-06
3.8692037e-06
3.8693432e-06
3.8693645e-06
3.8693638e-06
3.8693728e-06
3.8693933e-06
3.8694444e-06
3.8695279e-06
3.8695914e-06
3.8696459e-06
3.8696921e-06
3.8697086e-06
3.8697085e-06
3.8697039e-06
3.8697e-06
3.8696959e-06
3.869692e-06
3.8696886e-06
3.8696837e-06
3.8696749e-06
3.8696667e-06
3.8696541e-06
3.8696419e-06
3.8696291e-06
3.8696039e-06
3.8695833e-06
3.869571e-06
3.8695722e-06
3.8695764e-06
3.8695891e-06
3.8696132e-06
3.8696448e-06
3.8696511e-06
3.869669e-06
3.8783264e-06
3.875219e-06
3.872673e-06
3.8701145e-06
3.8677773e-06
3.8658938e-06
3.8641213e-06
3.8618134e-06
3.8592787e-06
3.8566642e-06
3.8545369e-06
3.8529892e-06
3.8519667e-06
3.8514113e-06
3.8512052e-06
3.8511269e-06
3.8512133e-06
3.8514293e-06
3.8517752e-06
3.8522985e-06
3.8530406e-06
3.8539659e-06
3.8551966e-06
3.8571311e-06
3.8600226e-06
3.8636645e-06
3.8669279e-06
3.8686303e-06
3.8692093e-06
3.869367e-06
3.8694132e-06
3.8694423e-06
3.8694808e-06
3.8695184e-06
3.8695577e-06
3.8695972e-06
3.8696218e-06
3.8696529e-06
3.8696885e-06
3.8697016e-06
3.8697004e-06
3.8696952e-06
3.8696907e-06
3.8696861e-06
3.8696815e-06
3.8696774e-06
3.8696712e-06
3.8696603e-06
3.8696487e-06
3.8696294e-06
3.8696077e-06
3.8695889e-06
3.8695716e-06
3.8695698e-06
3.8695723e-06
3.8695824e-06
3.8696061e-06
3.8696351e-06
3.8696549e-06
3.8696537e-06
3.8696429e-06
3.8696554e-06
3.8784945e-06
3.8753313e-06
3.872773e-06
3.8702167e-06
3.867866e-06
3.8659634e-06
3.864174e-06
3.8618515e-06
3.8593037e-06
3.8566792e-06
3.8545373e-06
3.852979e-06
3.8519532e-06
3.8513984e-06
3.8511899e-06
3.8511106e-06
3.851194e-06
3.8514103e-06
3.8517527e-06
3.8522719e-06
3.8530122e-06
3.8539368e-06
3.8551689e-06
3.8571077e-06
3.8600076e-06
3.8636576e-06
3.8669271e-06
3.8686436e-06
3.8692476e-06
3.8694396e-06
3.869518e-06
3.8695659e-06
3.869601e-06
3.869612e-06
3.8696033e-06
3.8696074e-06
3.869619e-06
3.8696462e-06
3.8696807e-06
3.8696933e-06
3.8696915e-06
3.8696859e-06
3.8696808e-06
3.8696754e-06
3.8696697e-06
3.8696638e-06
3.8696548e-06
3.8696389e-06
3.8696195e-06
3.8695916e-06
3.8695717e-06
3.8695679e-06
3.8695694e-06
3.8695761e-06
3.8695953e-06
3.869626e-06
3.869656e-06
3.8696614e-06
3.8696543e-06
3.8696284e-06
3.869583e-06
3.8695709e-06
3.8786724e-06
3.8754537e-06
3.8728821e-06
3.8703302e-06
3.8679604e-06
3.8660356e-06
3.8642282e-06
3.8618905e-06
3.8593273e-06
3.8566923e-06
3.8545374e-06
3.8529689e-06
3.8519411e-06
3.851387e-06
3.8511762e-06
3.8510938e-06
3.8511733e-06
3.8513861e-06
3.8517245e-06
3.8522421e-06
3.8529836e-06
3.8539096e-06
3.8551442e-06
3.8570891e-06
3.860002e-06
3.8636665e-06
3.8669515e-06
3.8686975e-06
3.8693396e-06
3.8695613e-06
3.8696405e-06
3.8696628e-06
3.8696592e-06
3.8696363e-06
3.8696048e-06
3.8696014e-06
3.8696115e-06
3.8696381e-06
3.8696721e-06
3.8696842e-06
3.8696819e-06
3.8696756e-06
3.8696696e-06
3.8696628e-06
3.8696548e-06
3.8696449e-06