/*--------------------------------*- C++ -*----------------------------------*\
| =========                 |                                                 |
| \\      /  F ield         | OpenFOAM: The Open Source CFD Toolbox           |
|  \\    /   O peration     | Version:  2506                                  |
|   \\  /    A nd           | Website:  www.openfoam.com                      |
|    \\/     M anipulation  |                                                 |
\*---------------------------------------------------------------------------*/
FoamFile
{
    version     2.0;
    format      ascii;
    arch        "LSB;label=32;scalar=64";
    class       surfaceScalarField;
    location    "0.02";
    object      phi;
}
// * * * * * * * * * * * * * * * * * * * * * * * * * * * * * * * * * * * * * //

dimensions      [1 0 -1 0 0 0 0];

oriented        oriented;

internalField   nonuniform List<scalar> 
27183
(
-0.021717335
-26.057437
26.060037
-0.024970241
-28.260108
28.262785
-0.026143509
-30.662237
30.665213
-0.027407091
-33.297374
33.300799
-0.029465424
-36.107609
36.111351
-0.032982425
-39.211019
39.215183
-0.037007484
-42.51144
42.515934
-0.04181887
-46.14546
46.150424
-0.047004202
-50.026326
50.03168
-0.052778522
-54.30006
54.305684
-58.892866
58.899396
-0.019245805
-26.054664
-0.02265354
-28.257285
-0.023946903
-30.6591
-0.025362407
-33.293755
-0.027616666
-36.103645
-0.031387027
-39.206603
-0.035681062
-42.506658
-0.040780153
-46.140211
-0.046280307
-50.020696
-0.052402116
-54.294141
-58.885997
-0.017851524
-26.051779
-0.021350058
-28.254378
-0.022710255
-30.65587
-0.024215401
-33.290025
-0.026577515
-36.099561
-0.030490239
-39.202034
-0.034935951
-42.501722
-0.040190349
-46.134823
-0.04587198
-50.014862
-0.052195606
-54.287972
-58.878947
-0.0098297613
-24.02875
-0.016756902
-26.048805
-0.020319549
-28.251413
-0.02173222
-30.652565
-0.023307501
-33.28621
-0.025757617
-36.095378
-0.029781327
-39.197348
-0.034342118
-42.496683
-0.039725447
-46.129319
-0.045549016
-50.008777
-0.052027713
-54.281542
-58.87177
-0.0087643826
-24.025701
-0.015800876
-26.045751
-0.01942169
-28.248395
-0.020877854
-30.649198
-0.022516069
-33.282315
-0.025040677
-36.091111
-0.029160079
-39.192563
-0.033822487
-42.491541
-0.039322646
-46.123689
-0.04526952
-50.002533
-0.051881202
-54.27494
-58.864499
-0.0078095469
-24.022662
-0.014940502
-26.042632
-0.018610104
-28.245334
-0.02010585
-30.645773
-0.021798942
-33.27835
-0.024393132
-36.086767
-0.028600401
-39.187691
-0.033353756
-42.486299
-0.038957634
-46.117927
-0.045015613
-49.996218
-0.05174716
-54.268255
-58.857126
0.0021071025
-22.129089
-0.0069106718
-24.019611
-0.014134452
-26.039452
-0.01785202
-28.242229
-0.019383828
-30.642292
-0.021130069
-33.274316
-0.023787557
-36.082352
-0.028075917
-39.182744
-0.03291504
-42.480968
-0.038616746
-46.11204
-0.044777998
-49.989831
-0.051623434
-54.261471
-58.849646
0.0030139182
-22.126827
-0.0060623036
-24.016564
-0.013369356
-26.036215
-0.017130015
-28.239085
-0.018697126
-30.638757
-0.020492485
-33.270219
-0.023212456
-36.077868
-0.027579044
-39.177721
-0.032498962
-42.475554
-0.038291954
-46.106058
-0.044543196
-49.983373
-0.051491965
-54.254584
-58.842027
0.0038671292
-22.124536
-0.0052689097
-24.013504
-0.012659363
-26.032949
-0.016460665
-28.235903
-0.018058586
-30.635175
-0.019901028
-33.266064
-0.022677269
-36.073321
-0.027115699
-39.172628
-0.032111432
-42.47006
-0.03799054
-46.100019
-0.044331717
-49.976854
-0.051381359
-54.24764
-58.834263
0.0090359465
-20.380179
0.0046611767
-22.122213
-0.0045286203
-24.010424
-0.011992537
-26.029741
-0.015830958
-28.232688
-0.017458763
-30.631548
-0.019343607
-33.261855
-0.022174278
-36.068712
-0.026681371
-39.167474
-0.031747986
-42.464501
-0.03770684
-46.093946
-0.044134935
-49.970262
-0.051278766
-54.240703
-58.826379
0.0098645741
-20.377553
0.0054188539
-22.119862
-0.0038268698
-24.007328
-0.011366217
-26.026508
-0.015238988
-28.229432
-0.016892802
-30.627881
-0.018818902
-33.257593
-0.021699692
-36.064046
-0.026270748
-39.162258
-0.031404565
-42.45888
-0.037439779
-46.087837
-0.043950483
-49.963618
-0.051184693
-54.233635
-58.818375
0.010647008
-20.374878
0.0061315075
-22.117493
-0.0031624251
-24.004226
-0.010769293
-26.023145
-0.014674283
-28.226139
-0.016354086
-30.624174
-0.018318116
-33.25328
-0.021247909
-36.059327
-0.025880875
-39.156969
-0.03107817
-42.453188
-0.037185216
-46.081661
-0.043781798
-49.956899
-0.051101839
-54.226376
-58.810286
0.011428088
-20.372162
0.0068445008
-22.115104
-0.0024996262
-24.001109
-0.010179342
-26.019667
-0.014115998
-28.222814
-0.01582028
-30.620426
-0.017823438
-33.248916
-0.02080102
-36.054555
-0.025494329
-39.151614
-0.030755056
-42.447416
-0.036931667
-46.075358
-0.043604491
-49.950074
-0.051011067
-54.219061
-58.802098
0.01036151
-18.758553
0.012176982
-20.369403
0.0075261228
-22.112689
-0.0018589411
-23.997986
-0.0096061552
-26.016118
-0.01357373
-28.219464
-0.015302724
-30.616636
-0.017342905
-33.244505
-0.020367726
-36.049732
-0.025120658
-39.146204
-0.030441986
-42.441577
-0.03668532
-46.068919
-0.043431302
-49.943097
-0.050922339
-54.211726
-58.793741
0.011074104
-18.756866
0.012900284
-20.366611
0.0081838577
-22.110245
-0.0012435546
-23.994863
-0.009062428
-26.012519
-0.013057892
-28.216088
-0.014809155
-30.612809
-0.016885429
-33.240048
-0.019954607
-36.04486
-0.024763601
-39.140746
-0.030138494
-42.435681
-0.036448614
-46.062427
-0.04327276
-49.935996
-0.050837053
-54.204242
-58.785186
0.011753877
-18.755145
0.013584909
-20.363788
0.0088050663
-22.107773
-0.0006501517
-23.991745
-0.0085404798
-26.008918
-0.012563771
-28.212685
-0.014336235
-30.608944
-0.01644608
-33.235548
-0.019558493
-36.03994
-0.02442217
-39.13524
-0.029846482
-42.429739
-0.036218725
-46.055946
-0.043116282
-49.928877
-0.050751147
-54.196583
-58.776445
0.012278808
-17.295759
0.012409995
-18.753406
0.014250321
-20.360947
0.0094082871
-22.105267
-5.7117111e-05
-23.988633
-0.0080429799
-26.005345
-0.012090565
-28.209255
-0.013882989
-30.605045
-0.016025808
-33.231004
-0.019179118
-36.034974
-0.024094464
-39.129687
-0.029575093
-42.423757
-0.036008954
-46.049418
-0.042959225
-49.921709
-0.050661033
-54.188951
-58.767629
0.012913026
-17.293721
0.013037453
-18.75164
0.014882877
-20.358087
0.0099787013
-22.102733
0.00042379652
-23.985448
-0.0075638995
-26.00191
-0.011636079
-28.205792
-0.01344676
-30.601113
-0.015620438
-33.226421
-0.018813815
-36.029963
-0.02377977
-39.124088
-0.029313503
-42.417727
-0.035806226
-46.042825
-0.042820409
-49.914422
-0.050590705
-54.181397
-58.758761
0.013528698
-17.291672
0.013654217
-18.749854
0.01550742
-20.355215
0.010543692
-22.100169
0.0009021884
-23.982202
-0.0070987727
-25.998492
-0.01119234
-28.202299
-0.013021459
-30.597147
-0.015225936
-33.221796
-0.018457869
-36.024908
-0.023472517
-39.118444
-0.029057074
-42.411633
-0.035607091
-46.036197
-0.04268644
-49.907152
-0.050523611
-54.173788
-58.749843
0.017442148
-15.960046
0.01415555
-17.289613
0.01427535
-18.748039
0.016131502
-20.352327
0.011106067
-22.097565
0.0013928476
-23.978922
-0.006624249
-25.994965
-0.010741958
-28.198774
-0.01258928
-30.593149
-0.014824973
-33.217132
-0.018096906
-36.019808
-0.023161735
-39.112746
-0.028800567
-42.405487
-0.035409238
-46.029508
-0.042545734
-49.899913
-0.050449584
-54.166069
-58.740917
0.018064523
-15.958122
0.014757465
-17.287542
0.014878271
-18.746199
0.01674079
-20.349428
0.01165601
-22.094927
0.0018679447
-23.975618
-0.0061696291
-25.991321
-0.010307322
-28.195224
-0.012172986
-30.589117
-0.014439232
-33.212428
-0.017749311
-36.014667
-0.022861887
-39.106993
-0.028544821
-42.399303
-0.035207287
-46.022752
-0.042413771
-49.892539
-0.050383989
-54.158236
0.018660692
-15.956196
0.015336988
-17.285461
0.01545481
-18.744326
0.017319282
-20.346518
0.012174521
-22.092262
0.0023253118
-23.972297
-0.005731528
-25.98765
-0.0098913703
-28.191649
-0.011772702
-30.585055
-0.014067839
-33.207687
-0.017414883
-36.009486
-0.022574116
-39.101184
-0.028299017
-42.393067
-0.035012803
-46.015976
-0.042279282
-49.885066
-54.150152
0.021249803
-14.691443
0.019233626
-15.954263
0.015890883
-17.283368
0.016012126
-18.742433
0.017882838
-20.3436
0.012681047
-22.089569
0.0027634263
-23.968933
-0.0053147859
-25.984003
-0.0094909731
-28.188053
-0.011388621
-30.580962
-0.013711429
-33.202909
-0.01709388
-36.004266
-0.022297481
-39.095326
-0.028067998
-42.386781
-0.034833104
-46.009189
-0.042148329
-49.877658
-54.142061
0.021812065
-14.690035
0.019783534
-15.95233
0.016426557
-17.281266
0.016547351
-18.740505
0.018419069
-20.340665
0.013158767
-22.086839
0.0031865987
-23.965537
-0.0049108107
-25.980359
-0.0091070819
-28.184431
-0.011018044
-30.576839
-0.013367755
-33.198096
-0.016784406
-35.999009
-0.022031281
-39.089427
-0.02785002
-42.38044
-0.03465925
-46.00238
-0.042019151
-49.870226
-54.134071
0.022148609
-13.532004
0.022361203
-14.688612
0.020313266
-15.950396
0.016938113
-17.279155
0.017063956
-18.738552
0.018942064
-20.337713
0.01362644
-22.084081
0.0035906061
-23.962108
-0.0045271305
-25.976704
-0.0087369489
-28.18079
-0.010662263
-30.572687
-0.013037241
-33.193249
-0.01648693
-35.993715
-0.02177522
-39.083496
-0.02764289
-42.374055
-0.034501574
-45.99545
-0.041908678
-49.862611
-54.126016
0.022667973
-13.530935
0.022883265
-14.687167
0.020823526
-15.948465
0.017435492
-17.27704
0.017563503
-18.736569
0.019441544
-20.334745
0.014068612
-22.081294
0.0039825141
-23.958656
-0.0041534775
-25.973035
-0.0083807312
-28.177123
-0.010317568
-30.56851
-0.012717508
-33.188371
-0.016199058
-35.988388
-0.021527741
-39.077535
-0.027437125
-42.367648
-0.034340868
-45.988403
-0.041789513
-49.854743
0.023205538
-13.529867
0.023426068
-14.685703
0.021346032
-15.946526
0.017940779
-17.274917
0.018074234
-18.734562
0.019957561
-20.331773
0.014529767
-22.078479
0.0043828656
-23.955171
-0.0037734817
-25.969354
-0.0080141902
-28.173437
-0.0099651303
-30.564305
-0.012390475
-33.18346
-0.015905133
-35.983026
-0.021274898
-39.071545
-0.027219075
-42.361199
-0.034167734
-45.981347
-49.846802
0.025105808
-12.48386
0.023733721
-13.528786
0.02395761
-14.684219
0.021864446
-15.944585
0.018445119
-17.27279
0.018580555
-18.732527
0.020462066
-20.328797
0.014975244
-22.07563
0.0047789301
-23.95166
-0.0033946212
-25.965669
-0.0076519641
-28.169726
-0.0096155222
-30.560072
-0.012066879
-33.178515
-0.015614048
-35.977629
-0.021024785
-39.065522
-0.027005464
-42.354685
-0.034006621
-45.974289
-49.838976
0.025619813
-12.482717
0.024245772
-13.527703
0.024473756
-14.682716
0.022360436
-15.942637
0.018926022
-17.270654
0.019068718
-18.730473
0.020954142
-20.325829
0.015413792
-22.072754
0.0051606277
-23.948115
-0.0030324577
-25.961979
-0.007302696
-28.165998
-0.0092788137
-30.555811
-0.011754586
-33.173538
-0.015333568
-35.972197
-0.020783701
-39.059463
-0.02681096
-42.348128
-0.0338594
-45.967232
-49.831184
0.026123921
-12.481569
0.024736842
-13.526607
0.02496943
-14.681198
0.022843052
-15.940686
0.019394645
-17.268515
0.019541171
-18.728394
0.021424359
-20.322861
0.015826214
-22.069842
0.005526559
-23.944549
-0.0026821602
-25.958284
-0.0069659967
-28.162248
-0.0089533831
-30.551522
-0.011453219
-33.16853
-0.015062684
-35.966732
-0.020551021
-39.053362
-0.026622855
-42.341546
-0.033716961
-45.960051
-49.823272
0.02796449
-11.505454
0.026600279
-12.480419
0.025212665
-13.525512
0.025449037
-14.679667
0.023302974
-15.938726
0.019841008
-17.266369
0.019996547
-18.726295
0.021883787
-20.319898
0.016232919
-22.0669
0.0058797124
-23.940964
-0.0023465672
-25.954578
-0.0066414632
-28.15848
-0.0086395633
-30.547208
-0.011162021
-33.163492
-0.014801338
-35.961234
-0.020326728
-39.047217
-0.026435322
-42.334942
-0.033570845
-45.952664
0.02843741
-11.504624
0.027069202
-12.479261
0.025668264
-13.524406
0.025910737
-14.67813
0.023751923
-15.936754
0.020276858
-17.264222
0.020438765
-18.724171
0.022322471
-20.316928
0.0166154
-22.063924
0.0062188017
-23.937369
-0.0020216244
-25.950865
-0.0063281135
-28.154692
-0.0083360578
-30.542868
-0.010881029
-33.158426
-0.014548677
-35.955706
-0.020109914
-39.041029
-0.026251615
-42.328325
-45.945264
0.029346834
-10.601801
0.028884445
-11.503797
0.02751196
-12.478098
0.02611289
-13.523304
0.026357937
-14.676583
0.02417887
-15.934762
0.020691699
-17.26207
0.020864265
-18.722025
0.022752077
-20.31396
0.016992467
-22.060921
0.0065452717
-23.933762
-0.0017107368
-25.947145
-0.0060262724
-28.150885
-0.0080432474
-30.538507
-0.010609053
-33.153332
-0.014304967
-35.950147
-0.019900859
-39.034799
-0.026070583
-42.321674
-45.93792
0.029790274
-10.601278
0.02932628
-11.502967
0.027950106
-12.476927
0.026537347
-13.522189
0.026789202
-14.675038
0.024598809
-15.932756
0.021098719
-17.259919
0.021279203
-18.719851
0.023162953
-20.310986
0.017348602
-22.057893
0.0068604329
-23.930142
-0.0014079894
-25.943427
-0.0057335744
-28.147059
-0.007759117
-30.534123
-0.010346034
-33.14821
-0.014068427
-35.944562
-0.019698131
-39.028533
-0.025898474
-42.314935
-45.930614
0.030899878
-9.7744048
0.030233137
-10.600764
0.029773174
-11.502139
0.02839193
-12.475747
0.026982106
-13.521077
0.027236489
-14.673487
0.025023699
-15.930726
0.02151257
-17.257764
0.021704792
-18.717649
0.023590957
-20.308004
0.017722873
-22.054857
0.0071854406
-23.926494
-0.001097214
-25.939707
-0.0054315811
-28.143213
-0.0074661133
-30.529717
-0.0100744
-33.14306
-0.013825351
-35.938947
-0.019489656
-39.022236
-0.025730689
-42.308142
-45.923301
0.031368746
-9.7740238
0.030691086
-10.600239
0.03022948
-11.501309
0.028843462
-12.47456
0.027418397
-13.519946
0.027678427
-14.671939
0.025454325
-15.928684
0.021929125
-17.255608
0.022128806
-18.715418
0.024009848
-20.304992
0.018086699
-22.051824
0.0075090783
-23.922832
-0.00078537778
-25.935984
-0.0051303791
-28.139347
-0.0071747436
-30.525287
-0.0098052719
-33.137883
-0.013583605
-35.933307
-0.019282541
-39.015915
-0.025563028
-42.301343
-45.915743
0.031784965
-9.7736531
0.031115056
-10.599722
0.030657318
-11.500479
0.029267173
-12.473371
0.02784647
-13.518812
0.028108366
-14.670387
0.025861126
-15.926616
0.02232671
-17.253451
0.022539512
-18.713163
0.024421117
-20.301957
0.018443123
-22.048821
0.0078185381
-23.919149
-0.00048729752
-25.932255
-0.0048406964
-28.135463
-0.0068931257
-30.520836
-0.0095443669
-33.13268
-0.013350466
-35.927638
-0.019082726
-39.009575
-0.025395111
-42.294531
0.032629888
-9.0109307
0.032222558
-9.7732834
0.031542817
-10.599195
0.031083808
-11.499646
0.029687342
-12.472177
0.028251913
-13.517655
0.028520237
-14.668839
0.026262121
-15.924533
0.022713853
-17.251289
0.022935386
-18.710883
0.02481325
-20.298905
0.018781848
-22.045841
0.0081187209
-23.915452
-0.00019633014
-25.92852
-0.0045597691
-28.131557
-0.0066207882
-30.516361
-0.0092928222
-33.12745
-0.013124595
-35.921943
-0.018889541
-39.003214
-42.287695
0.03300985
-9.0107098
0.032609129
-9.772923
0.03193633
-10.598673
0.031481081
-11.498812
0.030082339
-12.470991
0.028652227
-13.516495
0.028922018
-14.667289
0.026640821
-15.922423
0.023084964
-17.24913
0.023321112
-18.708582
0.025197563
-20.295857
0.019111548
-22.042822
0.0084047984
-23.911723
8.0151228e-05
-25.924781
-0.0042898336
-28.127635
-0.0063574457
-30.511866
-0.0090487995
-33.122195
-0.012906735
-35.916221
-0.018703078
-38.996828
-42.280813
0.033596525
-8.3074502
0.033417644
-9.0104913
0.03301698
-9.7725616
0.032335359
-10.598142
0.031878529
-11.497973
0.030473343
-12.469805
0.029029533
-13.515314
0.029306117
-14.665743
0.027014231
-15.920299
0.023445288
-17.246967
0.023691433
-18.706259
0.025564457
-20.29283
0.019426035
-22.039717
0.0086824574
-23.907971
0.0003399289
-25.921031
-0.0040276914
-28.1237
-0.0061028951
-30.507348
-0.0088137413
-33.116914
-0.012695811
-35.910474
-0.018522749
-38.990415
-42.273883
0.03393997
-8.3073003
0.033769572
-9.0102836
0.033376005
-9.772208
0.032700608
-10.597619
0.032248599
-11.497136
0.030839976
-12.468629
0.029401823
-13.514129
0.029681091
-14.664198
0.027366189
-15.918151
0.023791378
-17.244809
0.024053799
-18.703921
0.025924975
-20.289827
0.019732233
-22.036539
0.0089471733
-23.904192
0.00059035783
-25.917269
-0.0037763343
-28.119757
-0.0058566595
-30.502811
-0.0085854828
-33.111611
-0.012492315
-35.904702
-0.018348627
-38.983973
-42.266915
0.034437885
-7.6632241
0.034318634
-8.307153
0.034149761
-9.0100807
0.033756483
-9.7718543
0.033073246
-10.597089
0.032619018
-11.496292
0.03120518
-12.467458
0.02975472
-13.512924
0.03003909
-14.662656
0.027713214
-15.915991
0.024126365
-17.242645
0.024400125
-18.701565
0.026267085
-20.286824
0.020023144
-22.033329
0.0092033345
-23.900391
0.0008331832
-25.913497
-0.0035317388
-28.115802
-0.0056187292
-30.498254
-0.0083658285
-33.106286
-0.012295287
-35.898907
-0.018180467
-38.977506
-42.259921
0.03460595
-7.066352
0.034762128
-7.6632911
0.03464818
-8.3070179
0.034487747
-9.0098887
0.034101149
-9.7715065
0.033424056
-10.596568
0.032974779
-11.495452
0.03155715
-12.4663
0.030112238
-13.511718
0.030399808
-14.661113
0.028051389
-15.913808
0.024460125
-17.240486
0.024749822
-18.69919
0.026614405
-20.283804
0.020315222
-22.030108
0.0094559471
-23.89655
0.0010742075
-25.90972
-0.0032902567
-28.111835
-0.0053816408
-30.49368
-0.0081462211
-33.100938
-0.012099707
-35.893088
-0.018013411
-38.971016
0.035005245
-7.0665764
0.035161653
-7.663357
0.035046076
-8.3068856
0.034886448
-9.0097028
0.034498876
-9.7711579
0.033813003
-10.596042
0.03336147
-11.494608
0.031937297
-12.465147
0.030480325
-13.510496
0.030772066
-14.659569
0.028410916
-15.91161
0.024806951
-17.238324
0.025108854
-18.696788
0.026968255
-20.280761
0.020617661
-22.02688
0.0097229135
-23.892669
0.0013277894
-25.905943
-0.0030349315
-28.107855
-0.0051342131
-30.489084
-0.0079185964
-33.095567
-0.011895906
-35.887245
-38.964503
0.034967179
-6.516116
0.035337434
-7.0668136
0.035495811
-7.6634293
0.035383217
-8.3067645
0.035231147
-9.0095265
0.034850622
-9.7708151
0.034170258
-10.595524
0.033722194
-11.49377
0.032294918
-12.464002
0.030842876
-13.509276
0.031137008
-14.658019
0.028753234
-15.909389
0.025145633
-17.236171
0.025462109
-18.694363
0.027317463
-20.277712
0.020909104
-22.023636
0.0099767188
-23.888787
0.0015725016
-25.902169
-0.0027902353
-28.103864
-0.0048943194
-30.484468
-0.0076967655
-33.090174
-0.011698555
-35.881375
-38.957964
0.035337269
-6.5164908
0.035707672
-7.0670477
0.03586571
-7.663502
0.035754007
-8.3066515
0.035604207
-9.0093564
0.035222699
-9.7704726
0.034534467
-10.594998
0.034084351
-11.492931
0.032648284
-12.462855
0.031185674
-13.508046
0.031484209
-14.656464
0.029087246
-15.907154
0.025468745
-17.234023
0.025799067
-18.691916
0.027649076
-20.274669
0.021191059
-22.020383
0.010224405
-23.884927
0.0018076724
-25.898394
-0.0025517971
-28.099861
-0.004662784
-30.479831
-0.0074839007
-33.08476
-0.01150817
-35.875483
-38.951396
0.035084101
-6.0071832
0.035633049
-6.5168672
0.036017247
-7.0672964
0.03617571
-7.6635779
0.03606426
-8.3065502
0.035920753
-9.0091955
0.03554589
-9.770135
0.034862347
-10.594477
0.034416428
-11.492096
0.032980407
-12.46171
0.031522958
-13.50682
0.03182396
-14.654902
0.029404411
-15.904894
0.025782267
-17.231888
0.026128788
-18.689453
0.027975098
-20.271635
0.021458516
-22.017107
0.010456435
-23.881084
0.0020334517
-25.894621
-0.0023247267
-28.095847
-0.0044393776
-30.475177
-0.0072772864
-33.079324
-0.011324613
-35.869567
-38.944799
0.034746712
-5.5362398
0.035416208
-6.0077119
0.035974748
-6.5172423
0.036359661
-7.0675437
0.036516585
-7.6636562
0.03640897
-8.3064707
0.036269177
-9.0090405
0.035893149
-9.7697967
0.035203288
-10.593946
0.0347547
-11.491259
0.033306817
-12.460554
0.031839962
-13.505586
0.032145597
-14.653338
0.029713048
-15.902615
0.026082503
-17.229764
0.026443796
-18.686967
0.02828371
-20.268617
0.021718161
-22.013816
0.010683997
-23.877229
0.0022502493
-25.890845
-0.0021031629
-28.091819
-0.0042237073
-30.470504
-0.0070792312
-33.073864
-0.011147651
-35.863631
0.034999288
-5.5369412
0.03567813
-6.008239
0.036246852
-6.5176203
0.036644984
-7.0678021
0.036801289
-7.6637374
0.036693192
-8.3064055
0.036558548
-9.0088947
0.036188894
-9.7694636
0.035503458
-10.593415
0.035060816
-11.490424
0.033615197
-12.459399
0.032153802
-13.504354
0.03246173
-14.651768
0.030006431
-15.900309
0.026372757
-17.227661
0.026751484
-18.68446
0.028587929
-20.265623
0.021964256
-22.0105
0.010896302
-23.873353
0.0024579786
-25.887069
-0.0018927052
-28.08778
-0.0040159566
-30.465815
-0.0068870677
-33.068381
-35.857676
0.034594975
-5.1018986
0.035291907
-5.5376385
0.035989406
-6.0087736
0.036564762
-6.5179952
0.03696658
-7.0680637
0.037116685
-7.6638201
0.037013233
-8.3063536
0.036882917
-9.0087531
0.036512691
-9.7691298
0.03582028
-10.592874
0.035373278
-11.489584
0.033915526
-12.458231
0.032446391
-13.503109
0.032759462
-14.650197
0.030290754
-15.897983
0.026650254
-17.225572
0.027045328
-18.68193
0.028875044
-20.262646
0.022202149
-22.007163
0.011103888
-23.869461
0.0026572948
-25.88329
-0.0016872167
-28.083729
-0.0038154529
-30.461106
-0.006703043
-33.062876
-35.851703
0.034069329
-4.6995522
0.034795464
-5.1027807
0.035514841
-5.5383496
0.036222579
-6.0093073
0.036810492
-6.5183769
0.037227333
-7.0683377
0.037374372
-7.6639051
0.037273086
-8.306311
0.037147981
-9.0086182
0.036783778
-9.7688018
0.03609723
-10.592337
0.035656954
-11.488747
0.034200747
-12.457067
0.032736762
-13.501861
0.033052037
-14.648619
0.030561441
-15.89563
0.026918621
-17.223501
0.027332282
-18.679382
0.029158727
-20.259677
0.022428024
-22.003795
0.011297867
-23.865559
0.0028475784
-25.879513
-0.0014924792
-28.079668
-0.0036225222
-30.45638
-0.0065246089
-33.05735
-35.845714
0.033538499
-4.3278591
0.03435099
-4.7005465
0.035080607
-5.1036587
0.035807557
-5.5390591
0.036530499
-6.009846
0.037121701
-6.5187538
0.037548118
-7.0686213
0.037682755
-7.6639868
0.037582908
-8.3062763
0.037460976
-9.0084869
0.037095633
-9.7684729
0.036401049
-10.59179
0.035957006
-11.487904
0.034489123
-12.455898
0.033019251
-13.500602
0.033339861
-14.647037
0.030834527
-15.893255
0.027185914
-17.221437
0.027615986
-18.676817
0.029434831
-20.256705
0.022654419
-22.000402
0.011495373
-23.861648
0.003038863
-25.875733
-0.0012940998
-28.075599
-0.00342891
-30.451632
-0.0063471623
-33.051803
-35.839709
0.032876864
-3.98449
0.033739064
-4.3289421
0.034554163
-4.7015397
0.035300906
-5.104542
0.036048355
-5.5397808
0.036784536
-6.010388
0.037389046
-6.5191371
0.037827638
-7.0689154
0.037958196
-7.6640673
0.037863862
-8.3062537
0.037747836
-9.0083605
0.037388552
-9.768151
0.036700039
-10.591253
0.036260617
-11.487063
0.034793581
-12.454737
0.033327029
-13.499341
0.033647655
-14.645446
0.031119836
-15.89085
0.027469178
-17.219382
0.027918005
-18.674241
0.029733191
-20.253733
0.022893295
-21.996982
0.011701726
-23.857722
0.0032413873
-25.871951
-0.0010867156
-28.071517
-0.003224956
-30.446865
-0.0061593968
-33.046234
-35.833685
0.032265696
-3.6675218
0.033138504
-3.9856674
0.0340126
-4.3300365
0.034849446
-4.7025509
0.035603154
-5.1054221
0.036361118
-5.5405049
0.037107322
-6.0109328
0.037714231
-6.5195163
0.038157524
-7.0692139
0.038279542
-7.6641461
0.038183969
-8.3062404
0.03806954
-9.0082383
0.03770681
-9.7678263
0.037009471
-10.59071
0.036567787
-11.486216
0.035087667
-12.453571
0.033616165
-13.498073
0.03394278
-14.643853
0.03139893
-15.888426
0.027742852
-17.217328
0.028207154
-18.671649
0.030013103
-20.250754
0.023121989
-21.993537
0.01190275
-23.853789
0.0034370965
-25.868164
-0.00088317097
-28.067428
-0.0030272473
-30.442075
-0.0059787593
-33.040644
0.031498423
-3.3756339
0.032405014
-3.6687834
0.033300987
-3.9868748
0.034188364
-4.3311409
0.03503051
-4.7035625
0.035800729
-5.1063064
0.036576235
-5.5412367
0.037337978
-6.0114839
0.037956799
-6.5199006
0.038406136
-7.069517
0.038528325
-7.6642274
0.038441079
-8.3062436
0.038333353
-9.0081215
0.037979353
-9.7675113
0.037287752
-10.590176
0.03684867
-11.485372
0.035371184
-12.452418
0.033902172
-13.496803
0.034228135
-14.642252
0.031662536
-15.885983
0.028005373
-17.215275
0.028489903
-18.669041
0.03029216
-20.247772
0.023341851
-21.990064
0.012091607
-23.849846
0.0036236504
-25.864378
-0.00068961051
-28.063327
-0.0028367597
-30.437266
-33.035037
0.030771157
-3.1068721
0.031731933
-3.3769268
0.032645391
-3.6700592
0.033542105
-3.9880841
0.034444127
-4.3322576
0.035304233
-4.7045873
0.036083649
-5.1071912
0.036871539
-5.5419729
0.037640772
-6.0120366
0.03826259
-6.5202831
0.038715195
-7.0698227
0.038829657
-7.6643086
0.038740615
-8.306256
0.038633876
-9.0080074
0.038273084
-9.7671877
0.037573259
-10.589637
0.037133483
-11.484522
0.035641078
-12.451255
0.034170337
-13.495532
0.034503543
-14.64065
0.031920835
-15.883527
0.028259336
-17.213216
0.028759482
-18.66641
0.030552716
-20.244787
0.023551608
-21.986568
0.012274877
-23.845893
0.0038033033
-25.860593
-0.00050001348
-28.059219
-0.0026529835
-30.43244
-33.029412
0.029804395
-2.8594203
0.030859078
-3.1081427
0.031830139
-3.3782372
0.032762778
-3.6713607
0.033681478
-3.9893187
0.034593099
-4.3333785
0.03546329
-4.7056137
0.03626022
-5.1080808
0.037062589
-5.5427128
0.037847971
-6.0125979
0.038481427
-6.5206722
0.038936804
-7.0701321
0.039051292
-7.6643947
0.038972485
-8.3062858
0.038873463
-9.0079008
0.038524338
-9.7668758
0.037830182
-10.589102
0.037392218
-11.483673
0.035904638
-12.450101
0.034435034
-13.494259
0.034765648
-14.639037
0.032162073
-15.881053
0.02850092
-17.211153
0.029023262
-18.663765
0.030811702
-20.241805
0.023751093
-21.983045
0.012445883
-23.841921
0.0039737462
-25.856815
-0.00031951675
-28.055103
-0.0024760873
-30.4276
-33.023771
0.028855303
-2.6316578
0.029993477
-2.8606582
0.031060792
-3.1094286
0.03204188
-3.3795633
0.032978341
-3.6726703
0.033901322
-3.9905579
0.03483366
-4.3345167
0.035715052
-4.7066461
0.036522009
-5.1089722
0.037341179
-5.5434606
0.03813091
-6.0131558
0.038766616
-6.5210586
0.039224051
-7.0704444
0.039330979
-7.6644809
0.039253034
-8.3063244
0.039153397
-9.0077926
0.038795201
-9.7665509
0.038094464
-10.58856
0.037656714
-11.48282
0.036151402
-12.448934
0.034681968
-13.492987
0.035022211
-14.637424
0.032399693
-15.878566
0.028735164
-17.209078
0.029273619
-18.6611
0.031053698
-20.238822
0.023943267
-21.979517
0.012612009
-23.837927
0.0041379826
-25.85304
-0.00014132731
-28.050989
-0.0023056754
-30.422738
-33.018114
0.026655062
-2.2268111
0.027767847
-2.4216854
0.028907424
-2.6328605
0.030051254
-2.861903
0.031127462
-3.1107287
0.03212009
-3.3809061
0.033077443
-3.6740063
0.034019533
-3.9918146
0.034957804
-4.335655
0.035857622
-4.7076865
0.036683837
-5.1098693
0.037510676
-5.5442065
0.038316354
-6.0137247
0.038963042
-6.5214513
0.039422562
-7.07076
0.039525501
-7.6645721
0.03946167
-8.3063836
0.039371083
-9.0076946
0.03902467
-9.7662353
0.038327773
-10.588016
0.037892251
-11.481967
0.03639446
-12.447779
0.034926042
-13.491714
0.035261225
-14.635798
0.032619876
-15.876081
0.028958081
-17.206993
0.029520009
-18.658421
0.031293291
-20.235829
0.024123657
-21.975979
0.012766207
-23.833914
0.0042929769
-25.84927
2.802014e-05
-28.046872
-0.0021418221
-30.417859
0.025665877
-2.0484871
0.026767033
-2.2279749
0.027900488
-2.422875
0.029065177
-2.6340856
0.030231028
-2.8631709
0.03131631
-3.1120435
0.032313912
-3.3822604
0.033270499
-3.6753435
0.034219605
-3.9930766
0.035183788
-4.3368149
0.036087434
-4.7087249
0.036921008
-5.1107638
0.037769186
-5.5449621
0.038579022
-6.014288
0.039229568
-6.5218426
0.039688681
-7.0710789
0.039772468
-7.6646459
0.039721117
-8.3064607
0.039629139
-9.0075929
0.039275115
-9.765906
0.038573488
-10.587465
0.038136525
-11.481108
0.036619556
-12.446608
0.035153089
-13.490441
0.035499718
-14.634177
0.032837239
-15.873602
0.029172548
-17.204896
0.02975172
-18.655715
0.031516928
-20.232828
0.024297763
-21.97245
0.012915567
-23.829894
0.0044424479
-25.845503
0.00017382585
-28.04274
-30.41298
0.023590054
-1.7320904
0.024591735
-1.8844037
0.025658791
-2.0496521
0.026776071
-2.2291606
0.027921575
-2.4240814
0.02909563
-2.6353235
0.030269362
-2.864453
0.031363477
-3.113376
0.032375444
-3.3836363
0.033358798
-3.6767131
0.034323829
-3.9943487
0.035288167
-4.3379693
0.036218515
-4.7097789
0.037073981
-5.1116676
0.037923967
-5.5457108
0.038749111
-6.0148647
0.039409363
-6.5222433
0.03986993
-7.0714032
0.039951124
-7.6647313
0.039914396
-8.3065606
0.039831213
-9.0075012
0.039486528
-9.7655816
0.038788117
-10.58691
0.038355197
-11.480252
0.036846401
-12.445452
0.035380642
-13.489164
0.035721682
-14.632542
0.033042022
-15.871127
0.029380797
-17.202793
0.029983356
-18.652979
0.031740063
-20.229841
0.024462968
-21.968915
0.013055844
-23.825878
0.0045845017
-25.841744
0.00031662768
-28.038589
-30.408105
0.020797539
-1.3465985
0.021772889
-1.4645407
0.022727889
-1.5933171
0.023686391
-1.7332338
0.024696665
-1.8855727
0.02577867
-2.0508412
0.026915622
-2.2303729
0.028083336
-2.4253154
0.029278477
-2.6365869
0.030464867
-2.8657563
0.031568047
-3.1147295
0.032588081
-3.3850302
0.033569494
-3.6780835
0.034547546
-3.9956329
0.035539876
-4.3391468
0.036463339
-4.710819
0.037323416
-5.1125637
0.038197829
-5.5464716
0.039025584
-6.015433
0.03969043
-6.522645
0.040147437
-7.071722
0.040220014
-7.6648139
0.040183858
-8.3066639
0.040099783
-9.0074073
0.039748184
-9.7652449
0.039044953
-10.586348
0.03861009
-11.479393
0.037080871
-12.44428
0.035617802
-13.487886
0.035970214
-14.630909
0.033266811
-15.868637
0.029602183
-17.200681
0.030222806
-18.650196
0.031969809
-20.226886
0.024642691
-21.965375
0.013211228
-23.821879
0.0047408831
-25.837988
0.0004743231
-28.034424
-30.403222
0.018777593
-1.1396222
0.019782551
-1.2391769
0.020758317
-1.3475542
0.021724218
-1.4655997
0.022682414
-1.5944533
0.023661834
-1.7344166
0.024700658
-1.886781
0.025803318
-2.0520614
0.026952205
-2.2316096
0.028127921
-2.4265677
0.029331236
-2.6378671
0.030524959
-2.8670785
0.031632412
-3.1161011
0.032668581
-3.3864507
0.033681043
-3.6794897
0.034673063
-3.9969239
0.035666242
-4.3403195
0.036621637
-4.7118801
0.037503076
-5.1134712
0.038375303
-5.5472201
0.039217524
-6.0160125
0.039894401
-6.5230603
0.040350882
-7.0720423
0.040424938
-7.6649087
0.040397397
-8.3067798
0.040320487
-9.0073222
0.039977845
-9.7649148