/*--------------------------------*- C++ -*----------------------------------*\
| =========                 |                                                 |
| \\      /  F ield         | OpenFOAM: The Open Source CFD Toolbox           |
|  \\    /   O peration     | Version:  2506                                  |
|   \\  /    A nd           | Website:  www.openfoam.com                      |
|    \\/     M anipulation  |                                                 |
\*---------------------------------------------------------------------------*/
FoamFile
{
    version     2.0;
    format      ascii;
    arch        "LSB;label=32;scalar=64";
    class       volScalarField;
    location    "0.014";
    object      Ma;
}
// * * * * * * * * * * * * * * * * * * * * * * * * * * * * * * * * * * * * * //

dimensions      [0 0 0 0 0 0 0];

internalField   nonuniform List<scalar> 
13761
(
0.001674673
0.0051594155
0.0089341913
0.013021158
0.017434262
0.022169795
0.027165804
0.032266703
0.037241915
0.041875037
0.046049472
0.049748057
0.053008767
0.055890704
0.058454926
0.060756392
0.062842169
0.064751419
0.066516028
0.068162627
0.069713873
0.071188313
0.072601363
0.073966302
0.075294326
0.076595242
0.077877786
0.079149857
0.080418949
0.081692316
0.082977211
0.084281202
0.085612371
0.086979798
0.08839414
0.089867984
0.091416728
0.093059825
0.09482251
0.096738649
0.098855475
0.10124147
0.0016294894
0.0050220051
0.0086985105
0.012680448
0.0169811
0.021596341
0.026465024
0.031434553
0.036279363
0.040788243
0.044847886
0.048442272
0.051609199
0.054406974
0.056895685
0.05912937
0.061154289
0.06300895
0.064724751
0.066327959
0.067840991
0.069282298
0.070667326
0.072009506
0.073320319
0.074609976
0.075887754
0.077162232
0.07844174
0.079734541
0.081049099
0.082394428
0.083780335
0.085217969
0.086720495
0.088303577
0.08998644
0.091793404
0.09375591
0.0015336453
0.0047308629
0.0082000303
0.011961684
0.01602851
0.020396498
0.025007324
0.029715618
0.034306609
0.038579314
0.042426048
0.045831797
0.048832793
0.051484771
0.05384514
0.055965539
0.057890211
0.059656044
0.061293186
0.062826951
0.064279049
0.065667489
0.067007504
0.068312506
0.069594156
0.070863027
0.072128939
0.073401201
0.074689068
0.076001952
0.077349717
0.078743076
0.080193894
0.081715764
0.083324769
0.085040099
0.0013728311
0.0042427992
0.0073653876
0.010760194
0.014439647
0.018400862
0.022591233
0.026878214
0.031065122
0.034967245
0.038485016
0.04160383
0.044356285
0.046793075
0.048966633
0.050924255
0.052706588
0.054347643
0.055875353
0.057313315
0.058681939
0.05999835
0.061277247
0.062531793
0.063773685
0.065013777
0.066262379
0.067529488
0.068825264
0.070160259
0.071545741
0.0011314608
0.0035115762
0.0061171077
0.0089668437
0.012073575
0.015436972
0.019013826
0.022691243
0.026299245
0.029676266
0.032733338
0.035455136
0.037867804
0.040013842
0.041937812
0.043680261
0.045276302
0.046755541
0.048142508
0.049458147
0.050720829
0.051946233
0.053148069
0.054338893
0.00078099537
0.0044505717
0.013715609
0.023755399
0.034615812
0.046262219
0.058463633
0.07067134
0.082202044
0.092613582
0.1018175
0.10993827
0.11715713
0.12364059
0.12952745
0.134929
0.13993253
0.14460664
0.149005
0.15316887
0.15713185
0.16092265
0.16456415
0.16807503
0.17147161
0.17476732
0.17797387
0.18110155
0.18415924
0.18715508
0.19009636
0.19298964
0.19584106
0.19865623
0.20144083
0.20420102
0.20694334
0.20967525
0.21240587
0.21514673
0.21791312
0.22072611
0.2236156
0.22662573
0.22982528
0.23332808
0.23733818
0.24225536
0.24911908
0.25950825
0.26694671
0.2686999
0.26889953
0.26888001
0.26883708
0.26878886
0.26873636
0.26867914
0.26861686
0.26854914
0.2684756
0.26839584
0.26830934
0.26821566
0.26811436
0.26800491
0.26788665
0.26775907
0.26762163
0.26747374
0.26731478
0.26714408
0.26696098
0.0044451105
0.013698923
0.023726724
0.034574454
0.046207918
0.058397353
0.070595825
0.082120806
0.092529247
0.10173139
0.10985083
0.11706844
0.12355056
0.12943595
0.1348359
0.13983769
0.14450995
0.14890635
0.15306819
0.15702908
0.16081775
0.1644571
0.16796585
0.17136031
0.17465394
0.17785848
0.18098422
0.18404007
0.18703418
0.18997385
0.19286565
0.19571574
0.19852974
0.20131333
0.20407269
0.20681437
0.20954582
0.21227616
0.21501692
0.21778333
0.22059642
0.22348598
0.22649598
0.22969488
0.23319591
0.23720202
0.24211127
0.24895972
0.25940929
0.26725251
0.26919386
0.26942958
0.26941467
0.26937251
0.26932473
0.26927277
0.2692161
0.26915443
0.26908738
0.26901454
0.26893553
0.26884985
0.26875703
0.26865665
0.26854818
0.26843098
0.2683045
0.26816824
0.2680216
0.26786395
0.26769463
0.26751298
0.26731838
0.26711023
0.2668879
0.2666508
0.2663984
0.26613023
0.26584591
0.26554515
0.2652278
0.26489388
0.0044395421
0.013681887
0.023697425
0.03453215
0.046152319
0.058329445
0.070518434
0.082037574
0.092442905
0.1016433
0.10976146
0.11697783
0.12345862
0.12934252
0.13474082
0.13974081
0.14441114
0.1488055
0.15296521
0.15692389
0.1607103
0.16434736
0.16785381
0.17124598
0.17453736
0.1777397
0.1808633
0.1839171
0.18690926
0.18984709
0.19273718
0.19558569
0.19839828
0.20118062
0.20393891
0.20667969
0.20941045
0.21214027
0.21488067
0.21764687
0.22045982
0.22334921
0.22635884
0.22955685
0.23305589
0.23705783
0.24195932
0.2487926
0.25929182
0.26753747
0.2696783
0.26995406
0.2699444
0.26990305
0.26985569
0.26980423
0.26974809
0.269687
0.26962056
0.26954838
0.26947008
0.26938516
0.26929316
0.26919366
0.26908613
0.26896992
0.2688445
0.26870936
0.26856391
0.26840753
0.26823953
0.26805928
0.26786616
0.26765954
0.2674388
0.26720335
0.26695264
0.2666862
0.26640363
0.26610463
0.26578901
0.26545676
0.2651081
0.26474346
0.26436358
0.26396954
0.26356288
0.26314563
0.0044339344
0.013664717
0.023667866
0.034489436
0.046096131
0.058260767
0.070440142
0.081953375
0.092355585
0.10155423
0.1096711
0.11688622
0.12336563
0.12924798
0.13464455
0.13964265
0.14431094
0.14870314
0.15286058
0.15681692
0.16060093
0.16423554
0.16773952
0.17112923
0.17441817
0.17761812
0.18073939
0.18379094
0.18678093
0.1897167
0.19260486
0.19545157
0.1982625
0.20104334
0.20380031
0.20653995
0.20926975
0.2119988
0.2147386
0.21750433
0.22031689
0.22320586
0.22621487
0.22941174
0.23290855
0.23690617
0.24179999
0.24861825
0.25915787
0.26780208
0.27015335
0.27047327
0.27046959
0.2704291
0.27038213
0.27033112
0.27027547
0.2702149
0.27014902
0.27007746
0.26999982
0.2699156
0.26982435
0.26972566
0.26961899
0.26950371
0.26937928
0.2692452
0.26910088
0.26894569
0.26877896
0.26860006
0.26840834
0.26820321
0.26798402
0.26775018
0.26750114
0.26723641
0.26695558
0.26665832
0.26634444
0.26601389
0.26566684
0.26530369
0.26492512
0.26453217
0.26412629
0.26370942
0.26328406
0.26285334
0.26242114
0.26199219
0.0044282721
0.013647364
0.02363797
0.034446205
0.046039229
0.058191184
0.070360847
0.081868204
0.092267407
0.10146445
0.10958016
0.11679412
0.1232722
0.12915302
0.13454786
0.13954405
0.14421025
0.14860021
0.15275529
0.15670917
0.16049064
0.16412266
0.16762402
0.17101111
0.17429744
0.17749481
0.18061356
0.18366264
0.18665026
0.18958375
0.19246975
0.19531442
0.19812345
0.20090256
0.20365795
0.20639619
0.20912477
0.21185277
0.21459169
0.21735668
0.22016857
0.22305685
0.22606495
0.2292604
0.23275471
0.2367478
0.241634
0.24843741
0.25900967
0.26804715
0.27061932
0.27098764
0.27099071
0.27095111
0.27090449
0.27085385
0.27079862
0.27073851
0.27067313
0.27060209
0.27052503
0.27044143
0.27035085
0.27025288
0.27014699
0.27003255
0.26990903
0.26977592
0.26963264
0.26947857
0.26931304
0.26913541
0.26894504
0.26874134
0.26852365
0.26829139
0.26804398
0.26778093
0.26750182
0.26720631
0.26689416
0.26656531
0.26621989
0.26585827
0.26548107
0.26508927
0.26468424
0.26426783
0.26384246
0.26341113
0.26297762
0.26254648
0.26212316
0.26171406
0.2613266
0.0044226739
0.013630202
0.02360839
0.034403397
0.04598284
0.058122193
0.070282223
0.081783811
0.092180118
0.10137565
0.10949025
0.11670307
0.12317981
0.12905907
0.13445211
0.13944628
0.14411029
0.14849789
0.15265048
0.15660175
0.16038053
0.1640098
0.16750836
0.17089264
0.17417616
0.17737075
0.18048676
0.18353317
0.18651819
0.18944917
0.19233276
0.19517515
0.19798203
0.20075912
0.20351267
0.20624923
0.20897631
0.21170299
0.21444074
0.21720469
0.22001562
0.2229029
0.22590981
0.22910355
0.23259509
0.23658346
0.24146211
0.24825103
0.25884976
0.26827387
0.2710765
0.27149751
0.27150813
0.27146948
0.27142315
0.2713728
0.2713179
0.27125816
0.27119316
0.27112256
0.27104596
0.27096287
0.27087285
0.27077549
0.27067027
0.27055657
0.27043385
0.27030161
0.27015928
0.27000624
0.26984183
0.26966539
0.26947632
0.26927398
0.26905775
0.26882701
0.2685812
0.26831982
0.26804241
0.26774862
0.26743821
0.26711108
0.26676731
0.26640725
0.26603146
0.26564085
0.26523674
0.26482089
0.26439561
0.26396381
0.26352913
0.26309598
0.26266965
0.26225637
0.26186337
0.26149895
0.2611724
0.00441751
0.013614266
0.023580759
0.034363177
0.04592959
0.05805682
0.070207657
0.081703913
0.092097775
0.10129221
0.10940607
0.11661803
0.12309366
0.12897149
0.13436282
0.13935502
0.14401682
0.14840201
0.15255201
0.15650055
0.16027648
0.16390281
0.16739837
0.17077961
0.17406008
0.17725163
0.18036462
0.18340805
0.18639016
0.18931831
0.19219916
0.19503891
0.19784327
0.20061798
0.20336929
0.20610377
0.20882892
0.21155384
0.21428999
0.21705244
0.21986193
0.22274774
0.22575295
0.22894446
0.23243272
0.23641591
0.24128673
0.24806117
0.25868097
0.26848387
0.27152615
0.27200415
0.27202302
0.27198515
0.27193887
0.27188857
0.27183377
0.27177418
0.27170938
0.27163901
0.27156271
0.27147997
0.27139036
0.27129348
0.2711888
0.27107571
0.27095369
0.27082223
0.27068077
0.27052868
0.27036531
0.27019001
0.27000217
0.26980115
0.26958633
0.26935709
0.26911285
0.2688531
0.26857738
0.26828532
0.26797664
0.26765123
0.26730914
0.26695066
0.26657631
0.26618695
0.26578382
0.26536862
0.26494353
0.26451139
0.26407568
0.2636407
0.26321156
0.26279434
0.26239607
0.26202486
0.26168981
0.26140106
0.26116978
0.0044115268
0.013595932
0.023549169
0.034317477
0.045869426
0.057983305
0.070124077
0.081614551
0.092005845
0.10119926
0.10931254
0.11652388
0.12299863
0.12887531
0.1342652
0.13925569
0.14391554
0.14829858
0.15244622
0.15639225
0.16016553
0.1637891
0.16728182
0.17066015
0.17393767
0.17712626
0.18023629
0.18327679
0.186256
0.18918131
0.19205938
0.19489644
0.1976982
0.20047043
0.20321939
0.20595165
0.20867474
0.21139773
0.21413208
0.21689283
0.21970066
0.22258473
0.22558796
0.22877692
0.23226152
0.2362391
0.2411017
0.24786109
0.25849563
0.26866923
0.27196391
0.27250514
0.27253351
0.27249653
0.27245027
0.2723999
0.27234512
0.27228559
0.27222089
0.27215069
0.27207459
0.27199213
0.27190286
0.27180638
0.27170219
0.27158966
0.27146828
0.27133756
0.27119691
0.27104574
0.27088338
0.27070919
0.27052255
0.27032283
0.27010939
0.26988163
0.26963894
0.26938082
0.26910679
0.26881644
0.26850951
0.26818583
0.26784543
0.26748856
0.26711569
0.26672763
0.26632554
0.26591105
0.26548626
0.26505388
0.26461729
0.26418063
0.26374889
0.26332795
0.26292468
0.26254698
0.26220378
0.26190501
0.26166164
0.26148569
0.26139001
0.0044039404
0.013572868
0.023509717
0.034260827
0.04579536
0.057893248
0.070021854
0.081505061
0.091892793
0.10108451
0.10919676
0.11640715
0.12288084
0.12875625
0.13414468
0.13913351
0.14379153
0.14817256
0.15231807
0.15626182
0.16003273
0.16365383
0.16714402
0.17051976
0.17379468
0.17698063
0.18008802
0.18312591
0.18610252
0.18902527
0.19190083
0.19473545
0.19753486
0.20030482
0.20305162
0.20578184
0.20850301
0.21122421
0.21395688
0.21671604
0.21952229
0.22240469
0.22540597
0.22859239
0.23207333
0.23604531
0.24089976
0.24764415
0.25828852
0.2688244
0.27238437
0.27299583
0.27303552
0.27299994
0.27295399
0.27290385
0.27284931
0.27279008
0.2727257
0.27265584
0.27258012
0.27249808
0.27240926
0.2723133
0.27220969
0.2720978
0.27197712
0.27184718
0.2717074
0.27155717
0.27139585
0.27122278
0.27103736
0.27083894
0.27062691
0.27040062
0.2701595
0.26990301
0.26963066
0.26934204
0.26903686
0.26871492
0.26837623
0.268021
0.26764965
0.26726292
0.26686194
0.26644823
0.26602382
0.26559131
0.26515397
0.2647158
0.26428164
0.2638572
0.26344919
0.2630653
0.26271427
0.26240585
0.26215082
0.26196101
0.2618492
0.26182903
0.0043960414
0.013548766
0.023468353
0.034201238
0.045717186
0.05779786
0.069913165
0.081388155
0.091771544
0.10096088
0.10907143
0.11628022
0.12275221
0.12862576
0.13401215
0.13899881
0.14365451
0.14803312
0.15217611
0.15611729
0.15988555
0.16350399
0.16699149
0.17036454
0.17363677
0.17682005
0.17992481
0.18296009
0.18593414
0.18885438
0.19172749
0.19455971
0.1973568
0.20012453
0.20286918
0.20559737
0.2083166
0.21103597
0.2137669
0.21652436
0.21932891
0.22220951
0.22520867
0.22839236
0.23186943
0.23583563
0.24068188
0.24741134
0.25806154
0.26895011
0.27278682
0.27347537
0.27352814
0.27349438
0.27344898
0.2733993
0.27334521
0.2732865
0.27322266
0.27315338
0.27307827
0.27299687
0.27290873
0.27281348
0.27271062
0.27259954
0.27247972
0.27235069
0.27221189
0.27206271
0.27190251
0.27173063
0.27154648
0.27134943
0.27113883
0.27091405
0.27067451
0.27041967
0.27014902
0.26986215
0.26955873
0.26923856
0.2689016
0.26854802
0.26817822
0.26779288
0.26739305
0.2669802
0.26655626
0.26612372
0.26568575
0.26524622
0.26480981
0.26438209
0.26396957
0.26357977
0.26322124
0.26290354
0.26263725
0.26243403
0.26230655
0.26226836
0.26233432
0.2625196
0.0043879532
0.013524019
0.023425785
0.034139778
0.045636386
0.057699065
0.069800404
0.081266728
0.091645489
0.10083221
0.10894083
0.11614776
0.12261773
0.12848907
0.13387304
0.13885711
0.14351008
0.14788584
0.1520259
0.15596409
0.15972933
0.16334474
0.16682921
0.17019927
0.17346855
0.17664893
0.17975085
0.18278336
0.18575471
0.18867232
0.19154288
0.19437263
0.19716732
0.19993275
0.20267518
0.20540125
0.20811846
0.21083589
0.21356495
0.21632059
0.21912327
0.22200186
0.2249987
0.22817942
0.23165239
0.23561262
0.24045059
0.24716521
0.25781803
0.26904888
0.27317254
0.27394494
0.27401255
0.2739809
0.27393613
0.27388699
0.27383341
0.27377532
0.27371213
0.27364354
0.27356916
0.27348853
0.2734012
0.27330681
0.27320486
0.27309472
0.2729759
0.27284792
0.27271023
0.27256221
0.27240323
0.27223265
0.27204986
0.27185422
0.27164511
0.2714219
0.27118398
0.27093082
0.2706619
0.2703768
0.27007517
0.26975677
0.26942157
0.26906968
0.26870146
0.26831754
0.26791892
0.26750698
0.26708358
0.26665112
0.26621264
0.26577189
0.26533341
0.2649026
0.26448582
0.26409039
0.26372467
0.26339804
0.26312088
0.26290469
0.262762
0.26270627
0.26275236
0.26291553
0.26321331
0.0043797652
0.013498944
0.023382613
0.034077361
0.045554205
0.057598439
0.069685423
0.081142828
0.091516811
0.10070081
0.10880736
0.11601226
0.12248
0.12834886
0.13373012
0.13871127
0.14336116
0.1477337
0.15187045
0.15580525
0.15956708
0.16317907
0.16666014
0.17002685
0.17329282
0.17646998
0.17956876
0.18259822
0.18556663
0.18848138
0.19134919
0.19417629
0.19696843
0.1997314
0.20247149
0.2051953
0.20791035
0.21062571
0.21335275
0.21610639
0.21890703
0.22178341
0.2247777
0.22795523
0.23142387
0.23537797
0.24020761
0.24690754
0.25756055
0.26912278
0.27354254
0.27440557
0.27448985
0.27446062
0.27441652
0.27436793
0.27431491
0.27425744
0.27419492
0.27412705
0.27405344
0.27397362
0.27388716
0.27379369
0.27369271
0.27358361
0.27346587
0.27333902
0.27320252
0.27305575
0.27289808
0.27272887
0.2725475
0.27235336
0.2721458
0.27192419
0.27168794
0.2714365
0.27116934
0.27088603
0.2705862
0.27026961
0.26993618
0.26958601
0.2692194
0.26883695
0.26843958
0.26802861
0.26760583
0.26717353
0.26673466
0.26629282
0.26585243
0.26541874
0.26499792
0.26459713
0.26422452
0.2638893
0.26360166
0.26337292
0.26321548
0.2631427
0.26316943
0.26331096
0.26358508
0.26400535
0.0043714226
0.013473372
0.02333855
0.034013605
0.045470196
0.057495514
0.06956779
0.081016087
0.091385242
0.10056653
0.10867105
0.11587391
0.12233938
0.12820568
0.13358411
0.13856218
0.14320879
0.14757789
0.15171106
0.15564221
0.15940032
0.16300858
0.16648593
0.16984895
0.1731113
0.17628491
0.17938024
0.18240636
0.18537152
0.18828316
0.19114796
0.19397217
0.19676154
0.19952185
0.20225939
0.20498077
0.20769348
0.21040658
0.21313143
0.21588288
0.21868128
0.22155526
0.22454678
0.22772089
0.23118499
0.23513282
0.23995409
0.24663952
0.25729094
0.26917337
0.2738974
0.27485789
0.2749608
0.27493431
0.27489093
0.27484289
0.27479044
0.27473356
0.27467172
0.27460458
0.27453174
0.27445276
0.27436718
0.27427465
0.27417466
0.2740666
0.27394998
0.2738243
0.27368903
0.27354355
0.27338724
0.27321944
0.27303954
0.27284693
0.27264097
0.27242101
0.27218645
0.27193675
0.27167138
0.27138988
0.27109188
0.27077712
0.27044549
0.27009705
0.26973208
0.26935113
0.26895506
0.26854513
0.26812303
0.26769099
0.26725182
0.26680903
0.26636689
0.2659305
0.26550586
0.26509996
0.26472076
0.26437729
0.26407955
0.26383868
0.26366693
0.26357758
0.26358543
0.26370583
0.26395676
0.26435211
0.26491147
0.0043630492
0.013447679
0.023294235
0.033949433
0.045385557
0.057391721
0.06944908
0.080888132
0.091252394
0.10043094
0.10853337
0.11573412
0.12219722
0.12806083
0.13343627
0.13841109
0.14305421
0.14741965
0.15154901
0.15547624
0.15923037
0.1628346
0.16630793
0.16966695
0.17292537
0.17609512
0.17918668
0.18220913
0.18517075
0.18807897
0.19094047
0.19376151
0.19654784
0.19930525
0.20204
0.20475871
0.20746886
0.21017949
0.21290193
0.21565099
0.21844694
0.22131828
0.22430681
0.22747728
0.23093666
0.23487807
0.23969097
0.24636214
0.25701079
0.2692021
0.2742376
0.27530236
0.27542597
0.27540257
0.27535995
0.27531246
0.27526057
0.27520428
0.27514311
0.27507668
0.27500462
0.27492645
0.27484175
0.27475014
0.27465114
0.27454414
0.27442862
0.27430411
0.27417008
0.2740259
0.27387095
0.27370458
0.27352617
0.27333511
0.27313075
0.27291245
0.27267962
0.27243168
0.27216811
0.27188844
0.27159228
0.27127936
0.27094954
0.27060286
0.27023956
0.26986013
0.2694654
0.26905655
0.26863521
0.2682035
0.26776415
0.26732053
0.26687679
0.26643787
0.26600964
0.26559887
0.26521337
0.26486197
0.2645545
0.26430191
0.2641163
0.26401085
0.26400031
0.26410007
0.26432829
0.26469916
0.26523265
0.26593206
0.0043545719
0.013421654
0.023249322
0.033884363
0.045299705
0.05728641
0.069328619
0.080758319
0.091117691
0.10029355
0.10839395
0.11559264
0.12205339
0.1279143
0.13328671
0.1382582
0.14289774
0.14725938
0.15138478
0.15530792
0.15905787
0.16265786
0.16612694
0.16948172
0.17273593
0.17590154
0.17898905
0.18200755
0.18496533
0.18786983
0.19072775
0.19354533
0.19632834
0.19908256
0.20181426
0.20453004
0.20723738
0.2099453
0.21266509
0.21541152
0.21820478
0.22107325
0.22405856
0.22722518
0.23067964
0.23461452
0.23941903
0.24607623
0.25672149
0.26921038
0.27456356
0.27573939
0.27588589
0.27586596
0.27582412
0.27577716
0.27572583
0.2756701
0.27560958
0.27554385
0.27547253
0.27539516
0.27531131
0.27522061
0.27512258
0.2750166
0.27490217
0.27477882
0.27464599
0.2745031
0.27434949
0.27418453
0.2740076
0.27381808
0.27361532
0.27339868
0.27316756
0.27292138
0.27265961
0.27238177
0.27208747
0.27177639
0.27144839
0.27110349
0.27074187
0.270364
0.26997065
0.26956293
0.26914241
0.26871111
0.26827166
0.26782733
0.26738213
0.26694087
0.26650923
0.26609385
0.26570233
0.26534331
0.26502647
0.26476256
0.26456353
0.26444245
0.264414
0.26449361
0.26469959
0.26504644
0.26555445
0.26622806
0.26705947
0.0043461229
0.013395697
0.023204501
0.033819374
0.045213893
0.057181064
0.06920804
0.080628338
0.090982799
0.10015595
0.1082543
0.11545087
0.1219092
0.12776732
0.1331366
0.13810463
0.14274045
0.14709814
0.15121941
0.15513827
0.15888384
0.16247938
0.16594397
0.16929427
0.17254402
0.17570524
0.17878842
0.18180269
0.18475634
0.18765682
0.19051085
0.19332468
0.19610407
0.1988548
0.20158315
0.20429572
0.20699997
0.2097049
0.21242177
0.21516531
0.21795562
0.22082098
0.22380283
0.22696536
0.23041471
0.23434295
0.23913908
0.2457827
0.25642444
0.26919973
0.27487579
0.27616939
0.27634105
0.27632502
0.276284
0.27623754
0.27618674
0.27613154
0.27607163
0.27600657
0.27593595
0.27585935
0.27577631
0.27568648
0.27558937
0.27548437
0.27537099
0.27524874
0.27511709
0.27497543
0.27482313
0.27465954
0.27448404
0.27429603
0.27409484
0.27387984
0.27365041
0.27340597
0.27314599
0.27286997
0.27257751
0.27226828
0.27194211
0.27159899
0.27123908
0.27086279
0.27047084
0.27006431
0.26964465
0.26921383
0.26877438
0.26832946
0.26788294
0.26743949
0.26700465
0.26658487
0.2661876
0.26582129
0.26549543
0.2652206
0.26500857
0.26487231
0.26482644
0.26488639
0.2650706
0.26539388
0.26587681
0.26652494
0.26733016
0.26831033
0.0043376399
0.013369618
0.023159455
0.033754041
0.045127596
0.057075092
0.069086726
0.080497584
0.090847165
0.10001767
0.10811404
0.11530856
0.1217645
0.12761985
0.13298597
0.13795053
0.14258257
0.14693624
0.15105328
0.15496774
0.1587088
0.16229974
0.16575968
0.1691053
0.1723504
0.17550699
0.17858561
0.1815954
0.18454466
0.18744086
0.19029072
0.1931005
0.19587597
0.19862292
0.20134763
0.20405668
0.20675754
0.20945918
0.21217285
0.21491321
0.2177003
0.22056228
0.2235404
0.22669862
0.23014267
0.23406416
0.23885192
0.24548242
0.25612101
0.26917176
0.27517488
0.27659281
0.27679199
0.27678028
0.27674011
0.27669414
0.27664383
0.27658911
0.27652976
0.27646531
0.27639536
0.27631946
0.27623717
0.27614814
0.2760519
0.27594782
0.27583541
0.2757142
0.27558365
0.27544317
0.27529211
0.27512983
0.27495572
0.27476915
0.27456948
0.27435607
0.27412829
0.27388556
0.27362734
0.27335313
0.27306249
0.2727551
0.27243076
0.27208942
0.27173123
0.27135654
0.27096603
0.2705607
0.27014197
0.26971171
0.26927234
0.26882692
0.26837921
0.26793373
0.26749588
0.26707194
0.26666918
0.26629587
0.26596134
0.26567597
0.26545138
0.2653004
0.26523758
0.26527835
0.26544127
0.26574142
0.26619966
0.26682265
0.26760194
0.26855683
0.26960066
0.004329258
0.013343848
0.023114921
0.033689406
0.045042152
0.056970081
0.068966436
0.080367891
0.09071262
0.099880499
0.10797488
0.11516733
0.12162084
0.12747336
0.13283627
0.13779726
0.14242543
0.14677497
0.15088765
0.1547976
0.15853398
0.16212016
0.16557528
0.16891605
0.17215628
0.17530804
0.17838187
0.18138693
0.18433155
0.1872232
0.19006861
0.19287406
0.19564531
0.19838817
0.20110892
0.20381414
0.20651129
0.20920933
0.21191947
0.21465635
0.21743991
0.2202982
0.22327233
0.22642597
0.22986451
0.23377914
0.23855857
0.24517648
0.25581273
0.26912834
0.27546161
0.27701016
0.27723928
0.27723236
0.27719305
0.27714751
0.27709763
0.27704334
0.27698448
0.27692057
0.2768512
0.27677592
0.27669431
0.276606
0.27651053
0.27640728
0.27629576
0.2761755
0.27604596
0.27590656
0.27575665
0.2755956
0.27542279
0.27523761
0.27503939
0.27482751
0.27460133
0.27436027
0.27410377
0.27383133
0.27354249
0.27323692
0.2729144
0.27257485
0.27221837
0.27184529
0.27145624
0.27105217
0.27063441
0.27020475
0.26976555
0.26931973
0.26887095
0.2684236
0.26798292
0.26755504
0.26714704
0.26676703
0.26642416
0.26612863
0.2658919
0.26572665
0.26564736
0.26566942
0.26581153
0.266089
0.26652295
0.26712112
0.26787477
0.2688045
0.26982436
0.27095761
0.004320987
0.013318393
0.023070897
0.033625476
0.044957606
0.056866137
0.068847343
0.080239488
0.090579448
0.099744777
0.10783724
0.11502765
0.12147877
0.12732846
0.13268814
0.13764554
0.14226979
0.14661514
0.15072339
0.15462872
0.15836034
0.16194163
0.16539178
0.16872753
0.17196274
0.17510947
0.17817831
0.18117842
0.18411816
0.18700501
0.1898457
0.19264653
0.19541328
0.19815175
0.20086822
0.20356928
0.20626239
0.20895651
0.2116628
0.21439585
0.21717555
0.22002985
0.22299967
0.22614847
0.2295813
0.23348894
0.2382601
0.24486611
0.25550134
0.26907173
0.27573698
0.277422
0.27768346
0.27768182
0.27764337
0.27759821
0.27754867
0.27749474
0.27743626
0.27737279
0.2773039
0.27722914
0.27714808
0.27706038
0.27696556
0.27686302
0.27675227
0.27663284
0.27650421
0.27636578
0.27621693
0.276057
0.27588541
0.27570151
0.27550468
0.27529425
0.27506961
0.27483016
0.27457534
0.27430463
0.27401758
0.27371381
0.27339309
0.27305531
0.27270056
0.27232911
0.27194154
0.27153874
0.271122
0.27069301
0.27025404
0.26980793
0.2693582
0.26890912
0.26846578
0.26803415
0.26762117
0.26723475
0.26688386
0.26657855
0.26633009
0.26615101
0.26605572
0.26605957
0.26618132
0.26643656
0.26684661
0.2674203
0.26814857
0.26905328
0.27004928
0.2711574
0.27237001
0.0043131634
0.013294265
0.023029089
0.033564639
0.04487698
0.056766826
0.068733418
0.080116617
0.090452024
0.099614927
0.10770553
0.11489393
0.12134262
0.12718945
0.13254583
0.13749955
0.14211978
0.1464608
0.1505645
0.15446505
0.15819173
0.16176795
0.16521294
0.16854347
0.17177342
0.1749149
0.17797849
0.18097339
0.18390796
0.18678969
0.18962536
0.19242123
0.19518312
0.19791682
0.20062864
0.20332516
0.20601384
0.20870361
0.21140563
0.21413445
0.21690989
0.21975978
0.22272492
0.22586852
0.22929533
0.23319581
0.23795873
0.24455359
0.25518961
0.26900522
0.27600276
0.27782942
0.27812548
0.27812952
0.27809187
0.27804694
0.2779976
0.27794384
0.27788558
0.27782239
0.27775381
0.2776794
0.27759874
0.27751148
0.27741717
0.2773152
0.27720507
0.27708634
0.27695848
0.27682091
0.27667299
0.2765141
0.27634362
0.27616094
0.2759654
0.27575636
0.2755332
0.27529531
0.27504213
0.27477311
0.2744878
0.27418581
0.27386688
0.27353087
0.27317784
0.27280802
0.27242195
0.27202046
0.27160477
0.27117651
0.27073784
0.27029152
0.26984095
0.26939027
0.26894444
0.26850928
0.26809155
0.267699
0.26734042
0.26702569
0.2667659
0.26657345
0.26646261
0.26644872
0.2665506
0.26678405
0.26717059
0.26772013
0.26842331
0.26930313
0.27027539
0.2713585
0.27254581
0.27392008
0.0043056637
0.013271063
0.02298879
0.03350586
0.044798904
0.056670494
0.068622843
0.079997435
0.09032864
0.099489479
0.10757857
0.11476529
0.12121187
0.1270561
0.13240942
0.13735964
0.14197601
0.14631284
0.15041205
0.15430788
0.15802963
0.16160077
0.16504055
0.16836577
0.17159035
0.17472641
0.17778458
0.18077406
0.18370322
0.18657959
0.18940993
0.19220053
0.19495721
0.19768579
0.20039256
0.20308412
0.20576792
0.20845289
0.21115018
0.21387427
0.21664494
0.21948993
0.22244986
0.22558775
0.22900805
0.23290092
0.23765524
0.24423906
0.25487649
0.26892719
0.2762583
0.27823283
0.27856607
0.27857615
0.27853908
0.2784941
0.27844466
0.27839082
0.27833253
0.27826938
0.27820089
0.27812663
0.27804618
0.2779592
0.27786522
0.27776367
0.27765403
0.27753588
0.27740869
0.27727187
0.2771248
0.27696684
0.2767974
0.27661586
0.27642156
0.27621386
0.27599213
0.27575575
0.27550416
0.27523681
0.27495322
0.27465298
0.27433582
0.27400158
0.27365026
0.27328208
0.27289752
0.27249737
0.27208276
0.27165527
0.27121697
0.27077053
0.27031922
0.26986709
0.26941893
0.26898043
0.26855818
0.26815977
0.26779381
0.26747001
0.26719931
0.26699391
0.26686799
0.26683683
0.2669193
0.2671314
0.26749484
0.26802055
0.26869892
0.26955399
0.27050263
0.27156084
0.27272299
0.27407137
0.0042968762
0.013244113
0.022942324
0.033438588
0.04471017
0.056561596
0.068498173
0.079863066
0.090189366
0.099347727
0.10743511
0.11462009
0.12106464
0.12690643
0.13225692
0.13720395
0.14181679
0.14614979
0.1502449
0.1541364
0.15785363
0.16142007
0.16485501
0.16817529
0.17139484
0.17452582
0.17757885
0.18056317
0.18348716
0.18635835
0.18918352
0.19196899
0.19472056
0.19744408
0.20014584
0.20283245
0.20551137
0.20819151
0.210884
0.21360329
0.2163691
0.21920906
0.22216366
0.22529569
0.22870932
0.23259439
0.23733986
0.24391244
0.25455028
0.26882493
0.2764946
0.27862665
0.27900118
0.27901831
0.27898201
0.27893704
0.27888757
0.27883368
0.27877535
0.27871223
0.27864382
0.27856969
0.27848942
0.27840268
0.27830902
0.27820785
0.27809867
0.27798106
0.27785449
0.27771839
0.27757213
0.27741509
0.27724665
0.27706621
0.27687312
0.27666672
0.27644639
0.2762115
0.27596147
0.27569577
0.27541387
0.27511538
0.27479997
0.27446748
0.27411788
0.27375135
0.27336831
0.27296951
0.27255602
0.27212935
0.27169148
0.27124498
0.27079305
0.27033957
0.26988924
0.26944758
0.26902104
0.26861703
0.268244
0.26791148
0.26763025
0.26741234
0.26727181
0.26722385
0.26728736
0.26747856
0.26781929
0.2683215
0.26897534
0.26980581
0.27073093
0.27176437
0.27290151
0.27422408
0.27562373
0.0042867244
0.013213119
0.022889095
0.033361821
0.044609269
0.056438031
0.068356648
0.079710051
0.090030022
0.099184766
0.10726952
0.11445204
0.12089396
0.12673288
0.13208023
0.13702386
0.14163307
0.14596222
0.15005331
0.15394062
0.15765352
0.16121552
0.16464592
0.16796158
0.17117646
0.1743027
0.17735097
0.1803305
0.18324968
0.18611605
0.1889364
0.19171704
0.1944638
0.19718252
0.19987952
0.2025614
0.20523561
0.20791108
0.21059891
0.21331352
0.21607456
0.21890957
0.22185891
0.22498516
0.2283922
0.2322696
0.23700643
0.24356822
0.25420648
0.26869523
0.27670739
0.2790062
0.2794264
0.27945193
0.27941693
0.27937234
0.27932317
0.27926956
0.27921153
0.27914868
0.27908061
0.27900685
0.27892698
0.27884067
0.27874748
0.27864683
0.27853823
0.27842126
0.2782954
0.27816008
0.27801468
0.27785858
0.27769118
0.27751187
0.27731999
0.2771149
0.27689596
0.27666255
0.27641409
0.27615001
0.2758698
0.27557304
0.27525938
0.27492864
0.27458076
0.27421587
0.27383436
0.27343693
0.27302459
0.27259878
0.2721614
0.27171492
0.27126245
0.27080775
0.27035539
0.26991075
0.26948014
0.26907079
0.26869098
0.26835008
0.26805871
0.26782871
0.26767401
0.26760972
0.26765474
0.26782548
0.26814389
0.26862291
0.26925252
0.27005855
0.27096026
0.27196903
0.27308131
0.27437817
0.27575749
0.27713604
0.0042765941
0.013182087
0.022835632
0.03328446
0.044507222
0.056312588
0.068212391
0.079553407
0.089866165
0.099016427
0.1070977
0.11427691
0.1207154
0.12655067
0.13189414
0.13683369
0.14143864
0.14576338
0.14984993
0.15373261
0.1574408
0.16099803
0.16442364
0.16773448
0.17094452
0.17406594
0.17710939
0.18008409
0.18299847
0.18586003
0.18867558
0.19145142
0.1941934
0.19690734
0.19959957
0.2022767
0.20494617
0.20761691
0.21029998
0.21300979
0.21576592
0.21859583
0.22153973
0.22466001
0.2280603
0.23192991
0.23665806
0.24320939
0.25384807
0.26854118
0.27689806
0.27937192
0.27984191
0.27987703
0.27984364
0.27979962
0.27975095
0.27969781
0.2796403
0.27957795
0.27951045
0.27943729
0.27935804
0.27927239
0.27917989
0.27907997
0.27897213
0.27885597
0.27873097
0.27859656
0.27845214
0.27829709
0.2781308
0.27795267
0.27776206
0.27755831
0.27734079
0.27710889
0.27686199
0.27659955
0.27632103
0.27602599
0.27571408
0.27538509
0.27503892
0.27467568