/*--------------------------------*- C++ -*----------------------------------*\
| =========                 |                                                 |
| \\      /  F ield         | OpenFOAM: The Open Source CFD Toolbox           |
|  \\    /   O peration     | Version:  2506                                  |
|   \\  /    A nd           | Website:  www.openfoam.com                      |
|    \\/     M anipulation  |                                                 |
\*---------------------------------------------------------------------------*/
FoamFile
{
    version     2.0;
    format      ascii;
    arch        "LSB;label=32;scalar=64";
    class       volScalarField;
    location    "0.0105";
    object      omega;
}
// * * * * * * * * * * * * * * * * * * * * * * * * * * * * * * * * * * * * * //

dimensions      [0 0 -1 0 0 0 0];

internalField   nonuniform List<scalar> 
13761
(
14515.359
14515.357
14515.356
14515.355
14515.352
14505.952
14515.351
14505.952
14515.35
14505.951
14515.349
14505.951
14515.347
14505.95
14515.347
14505.6
14505.948
14515.347
14505.599
14505.948
14515.345
14505.599
14505.948
14515.345
14505.598
14505.948
14515.344
14505.597
14505.948
14515.344
14505.595
14505.948
14515.343
14505.673
14505.592
14505.948
14515.343
14505.672
14505.592
14505.948
14515.343
14505.671
14505.592
14505.948
14515.342
14505.67
14505.592
14505.948
14515.342
14505.668
14505.592
14505.948
14515.341
14505.666
14505.592
14505.948
14515.341
14505.598
14505.661
14505.592
14505.948
14515.342
14505.596
14505.662
14505.592
14505.948
14515.341
14505.595
14505.662
14505.592
14505.948
14515.342
14505.592
14505.662
14505.592
14505.948
14515.341
14505.588
14505.662
14505.592
14505.948
14515.342
14505.608
14505.582
14505.662
14505.592
14505.948
14515.343
14505.607
14505.582
14505.662
14505.592
14505.948
14515.346
14505.605
14505.582
14505.662
14505.592
14505.948
14515.352
14505.603
14505.582
14505.662
14505.592
14505.948
14515.362
14505.6
14505.582
14505.662
14505.592
14505.948
14515.382
14505.595
14505.582
14505.662
14505.592
14505.948
14515.415
14505.602
14505.587
14505.582
14505.662
14505.592
14505.949
14515.47
14505.6
14505.587
14505.582
14505.662
14505.592
14505.949
14515.551
14505.597
14505.587
14505.582
14505.662
14505.592
14505.951
14515.664
14505.593
14505.587
14505.582
14505.662
14505.592
14505.955
14515.808
14505.586
14505.587
14505.582
14505.662
14505.592
14505.962
14515.978
14505.611
14505.576
14505.587
14505.582
14505.662
14505.592
14505.977
14516.175
14505.609
14505.576
14505.587
14505.582
14505.662
14505.592
14506.002
14516.4
14505.606
14505.576
14505.587
14505.582
14505.662
14505.592
14506.044
14516.681
14505.602
14505.576
14505.587
14505.582
14505.662
14505.593
14506.108
14517.067
14505.597
14505.576
14505.587
14505.582
14505.662
14505.594
14506.2
14517.658
14505.589
14505.576
14505.587
14505.582
14505.662
14505.596
14506.322
14518.603
14505.615
14505.576
14505.576
14505.587
14505.582
14505.662
14505.602
14506.471
14519.938
14505.612
14505.576
14505.576
14505.587
14505.582
14505.662
14505.612
14506.644
14505.607
14505.576
14505.576
14505.587
14505.582
14505.663
14505.631
14506.839
14505.6
14505.576
14505.576
14505.587
14505.582
14505.663
14505.662
14507.065
14505.59
14505.576
14505.576
14505.587
14505.582
14505.664
14505.713
14507.347
14505.627
14505.575
14505.576
14505.576
14505.587
14505.582
14505.666
14505.787
14507.741
14505.623
14505.575
14505.576
14505.576
14505.587
14505.582
14505.67
14505.889
14508.342
14505.619
14505.575
14505.576
14505.576
14505.587
14505.582
14505.677
14506.019
14509.293
14505.614
14505.575
14505.576
14505.576
14505.587
14505.582
14505.691
14506.173
14510.606
14505.606
14505.575
14505.576
14505.576
14505.587
14505.583
14505.714
14506.347
14505.593
14505.575
14505.576
14505.576
14505.587
14505.583
14505.753
14506.541
14505.633
14505.575
14505.575
14505.576
14505.576
14505.587
14505.583
14505.812
14506.765
14505.627
14505.575
14505.575
14505.576
14505.576
14505.587
14505.585
14505.895
14507.051
14505.621
14505.575
14505.575
14505.576
14505.576
14505.587
14505.587
14506.006
14507.452
14505.611
14505.575
14505.575
14505.576
14505.576
14505.587
14505.592
14506.142
14508.064
14505.597
14505.575
14505.575
14505.576
14505.576
14505.587
14505.602
14506.299
14509.019
14505.642
14505.575
14505.575
14505.575
14505.576
14505.576
14505.587
14505.619
14506.472
14510.308
14505.635
14505.575
14505.575
14505.575
14505.576
14505.576
14505.587
14505.648
14506.664
14505.627
14505.575
14505.575
14505.575
14505.576
14505.576
14505.588
14505.694
14506.889
14505.616
14505.575
14505.575
14505.575
14505.576
14505.576
14505.588
14505.761
14507.179
14505.599
14505.575
14505.575
14505.575
14505.576
14505.576
14505.59
14505.853
14507.587
14505.64
14505.574
14505.575
14505.575
14505.575
14505.576
14505.576
14505.594
14505.971
14508.209
14505.63
14505.574
14505.575
14505.575
14505.575
14505.576
14505.576
14505.6
14506.111
14509.167
14505.617
14505.574
14505.575
14505.575
14505.575
14505.576
14505.576
14505.613
14506.269
14510.432
14505.598
14505.574
14505.575
14505.575
14505.575
14505.576
14505.577
14505.634
14506.441
14505.633
14505.569
14505.574
14505.575
14505.575
14505.575
14505.576
14505.577
14505.669
14506.632
14505.624
14505.569
14505.574
14505.575
14505.575
14505.575
14505.576
14505.578
14505.721
14506.858
14505.614
14505.569
14505.574
14505.575
14505.575
14505.575
14505.576
14505.581
14505.796
14507.151
14505.599
14505.569
14505.574
14505.575
14505.575
14505.575
14505.576
14505.585
14505.896
14507.567
14505.576
14505.568
14505.574
14505.575
14505.575
14505.575
14505.576
14505.594
14506.019
14508.197
14505.533
14505.543
14505.568
14505.574
14505.575
14505.575
14505.575
14505.576
14505.61
14506.163
14509.157
14505.521
14505.543
14505.568
14505.574
14505.575
14505.575
14505.575
14505.577
14505.635
14506.321
14510.4
14505.504
14505.543
14505.569
14505.574
14505.575
14505.575
14505.575
14505.577
14505.676
14506.492
14505.479
14505.544
14505.569
14505.574
14505.575
14505.575
14505.575
14505.579
14505.735
14506.681
14505.205
14505.443
14505.544
14505.569
14505.574
14505.575
14505.575
14505.575
14505.582
14505.818
14506.908
14505.194
14505.444
14505.544
14505.569
14505.574
14505.575
14505.575
14505.575
14505.588
14505.924
14507.206
14505.177
14505.444
14505.544
14505.569
14505.574
14505.575
14505.575
14505.575
14505.599
14506.052
14507.63
14505.151
14505.445
14505.545
14505.569
14505.574
14505.575
14505.575
14505.575
14505.618
14506.197
14508.268
14504.386
14505.113
14505.446
14505.545
14505.569
14505.574
14505.575
14505.575
14505.576
14505.648
14506.355
14509.23
14504.377
14505.116
14505.447
14505.545
14505.569
14505.574
14505.575
14505.575
14505.577
14505.695
14506.524
14510.45
14504.363
14505.119
14505.448
14505.545
14505.569
14505.574
14505.575
14505.575
14505.579
14505.761
14506.712
14504.338
14505.122
14505.449
14505.546
14505.569
14505.574
14505.575
14505.575
14505.583
14505.851
14506.941
14502.875
14504.3
14505.125
14505.45
14505.546
14505.569
14505.574
14505.575
14505.575
14505.591
14505.963
14507.244
14502.871
14504.308
14505.129
14505.451
14505.546
14505.569
14505.574
14505.575
14505.575
14505.604
14506.094
14507.675
14502.861
14504.316
14505.132
14505.452
14505.546
14505.569
14505.574
14505.575
14505.575
14505.627
14506.24
14508.321
14502.84
14504.324
14505.136
14505.453
14505.547
14505.569
14505.574
14505.575
14505.576
14505.662
14506.396
14509.283
14500.754
14502.807
14504.331
14505.139
14505.455
14505.547
14505.569
14505.574
14505.575
14505.578
14505.714
14506.563
14510.482
14500.754
14502.821
14504.34
14505.143
14505.456
14505.547
14505.569
14505.574
14505.575
14505.58
14505.788
14506.752
14500.746
14502.836
14504.348
14505.146
14505.457
14505.547
14505.569
14505.574
14505.575
14505.586
14505.883
14506.983
14500.73
14502.85
14504.356
14505.15
14505.458
14505.548
14505.569
14505.574
14505.575
14505.595
14506
14507.291
14498.736
14500.701
14502.865
14504.365
14505.153
14505.459
14505.548
14505.57
14505.574
14505.575
14505.611
14506.134
14507.729
14498.723
14500.721
14502.88
14504.373
14505.157
14505.46
14505.548
14505.57
14505.574
14505.576
14505.638
14506.28
14508.382
14498.7
14500.741
14502.895
14504.381
14505.16
14505.461
14505.549
14505.57
14505.574
14505.576
14505.678
14506.434
14509.345
14498.281
14498.668
14500.762
14502.911
14504.39
14505.164
14505.462
14505.549
14505.57
14505.574
14505.578
14505.736
14506.599
14510.523
14498.239
14498.683
14500.783
14502.926
14504.398
14505.168
14505.463
14505.549
14505.57
14505.574
14505.582
14505.816
14506.788
14498.189
14498.699
14500.804
14502.942
14504.407
14505.171
14505.464
14505.549
14505.57
14505.574
14505.588
14505.917
14507.022
14500.849
14498.132
14498.716
14500.825
14502.957
14504.415
14505.175
14505.465
14505.55
14505.57
14505.575
14505.6
14506.037
14507.335
14500.744
14498.121
14498.732
14500.846
14502.973
14504.424
14505.178
14505.466
14505.55
14505.57
14505.575
14505.619
14506.173
14507.78
14500.634
14498.11
14498.749
14500.867
14502.988
14504.432
14505.182
14505.468
14505.55
14505.57
14505.576
14505.65
14506.318
14508.44
14506.24
14500.519
14498.101
14498.766
14500.889
14503.004
14504.441
14505.186
14505.469
14505.55
14505.57
14505.579
14505.695
14506.471
14509.403
14506.07
14500.45
14498.092
14498.784
14500.911
14503.02
14504.449
14505.189
14505.47
14505.551
14505.57
14505.583
14505.76
14506.635
14510.561
14505.897
14500.383
14498.083
14498.801
14500.932
14503.035
14504.458
14505.193
14505.471
14505.551
14505.57
14505.591
14505.845
14506.824
14512.698
14505.716
14500.317
14498.075
14498.819
14500.954
14503.051
14504.467
14505.196
14505.472
14505.551
14505.571
14505.605
14505.951
14507.061
14512.425
14505.587
14500.252
14498.068
14498.838
14500.976
14503.067
14504.475
14505.2
14505.473
14505.551
14505.571
14505.628
14506.075
14507.38
14512.148
14505.46
14500.188
14498.061
14498.856
14500.998
14503.083
14504.484
14505.204
14505.474
14505.552
14505.572
14505.663
14506.211
14507.831
14518.036
14511.861
14505.333
14500.125
14498.054
14498.875
14501.02
14503.099
14504.493
14505.207
14505.475
14505.552
14505.573
14505.713
14506.356
14508.497
14517.793
14511.636
14505.208
14500.063
14498.048
14498.893
14501.043
14503.115
14504.501
14505.211
14505.476
14505.552
14505.577
14505.783
14506.506
14509.46
14515.006
14517.531
14511.413
14505.084
14500.002
14498.043
14498.913
14501.065
14503.131
14504.51
14505.214
14505.477
14505.553
14505.582
14505.874
14506.67
14510.598
14515.115
14517.339
14511.192
14504.96
14499.943
14498.038
14498.932
14501.088
14503.147
14504.519
14505.218
14505.478
14505.553
14505.592
14505.984
14506.86
14497.603
14515.191
14517.142
14510.974
14504.837
14499.884
14498.033
14498.951
14501.11
14503.163
14504.528
14505.222
14505.48
14505.554
14505.608
14506.11
14507.101
14498.26
14515.343
14516.94
14510.758
14504.714
14499.826
14498.029
14498.971
14501.133
14503.18
14504.537
14505.225
14505.481
14505.555
14505.635
14506.246
14507.424
14498.905
14515.481
14516.734
14510.544
14504.592
14499.769
14498.026
14498.991
14501.156
14503.196
14504.545
14505.229
14505.482
14505.558
14505.674
14506.389
14507.881
14481.673
14499.527
14515.605
14516.522
14510.332
14504.471
14499.714
14498.023
14499.012
14501.179
14503.212
14504.554
14505.233
14505.483
14505.562
14505.73
14506.538
14508.553
14481.832
14500.247
14515.715
14516.306
14510.123
14504.35
14499.659
14498.02
14499.032
14501.202
14503.229
14504.563
14505.236
14505.484
14505.569
14505.806
14506.7
14509.514
14481.529
14481.981
14500.966
14515.812
14516.086
14509.917
14504.23
14499.605
14498.018
14499.053
14501.225
14503.245
14504.572
14505.24
14505.485
14505.581
14505.901
14506.892
14510.632
14481.376
14482.254
14501.68
14515.895
14515.861
14509.713
14504.11
14499.552
14498.016
14499.074
14501.248
14503.261
14504.581
14505.243
14505.487
14505.6
14506.015
14507.136
14489.468
14481.19
14482.553
14502.384
14515.964
14515.632
14509.513
14503.991
14499.5
14498.015
14499.095
14501.272
14503.278
14504.59
14505.247
14505.49
14505.63
14506.143
14507.466
14497.687
14489.36
14481.111
14482.881
14503.076
14516.02
14515.399
14509.315
14503.872
14499.449
14498.015
14499.117
14501.295
14503.294
14504.598
14505.251
14505.493
14505.674
14506.279
14507.93
14497.704
14489.358
14481.035
14483.239
14503.752
14516.061
14515.163
14509.12
14503.754
14499.4
14498.015
14499.138
14501.319
14503.311
14504.607
14505.255
14505.499
14505.736
14506.421
14508.609
14500.768
14497.677
14489.347
14480.964
14483.63
14504.411
14516.09
14514.923
14508.928
14503.637
14499.351
14498.015
14499.16
14501.342
14503.327
14504.616
14505.259
14505.508
14505.817
14506.568
14509.569
14500.537
14497.762
14489.326
14480.898
14484.054
14505.05
14516.105
14514.68
14508.739
14503.521
14499.303
14498.016
14499.182
14501.366
14503.344
14504.625
14505.263
14505.523
14505.918
14506.73
14510.67
14499.973
14500.277
14497.84
14489.295
14480.838
14484.515
14505.667
14516.107
14514.434
14508.553
14503.405
14499.256
14498.017
14499.205
14501.39
14503.361
14504.634
14505.268
14505.546
14506.035
14506.924
14496.355
14499.667
14500.157
14497.909
14489.251
14480.787
14485.013
14506.259
14516.095
14514.186
14508.37
14503.291
14499.21
14498.019
14499.227
14501.414
14503.377
14504.643
14505.275
14505.581
14506.163
14507.173
14495.977
14496.296
14499.498
14500.052
14497.969
14489.193
14480.745
14485.55
14506.825
14516.07
14513.936
14508.19
14503.178
14499.165
14498.022
14499.25
14501.438
14503.394
14504.652
14505.284
14505.631
14506.299
14507.507
14495.994
14496.37
14499.334
14499.96
14498.018
14489.121
14480.715
14486.126
14507.364
14516.032
14513.684
14508.012
14503.065
14499.121
14498.025
14499.273
14501.462
14503.41
14504.661
14505.298
14505.699
14506.439
14507.977
14496.824
14495.957
14496.439
14499.173
14499.883
14498.055
14489.032
14480.697
14486.741
14507.876
14515.98
14513.43
14507.838
14502.954
14499.078
14498.028
14499.297
14501.486
14503.427
14504.67
14505.317
14505.786
14506.585
14508.66
14495.25
14496.731
14496.054
14496.502
14499.017
14499.82
14498.079
14488.927
14480.692
14487.394
14508.362
14515.915
14513.175
14507.666
14502.845
14499.036
14498.032
14499.32
14501.51
14503.444
14504.68
14505.346
14505.892
14506.748
14509.618
14494.099
14495.014
14496.808
14496.145
14496.558
14498.866
14499.772
14498.091
14488.806
14480.7
14488.083
14508.821
14515.837
14512.919
14507.497
14502.737
14498.994
14498.036
14499.344
14501.534
14503.461
14504.691
14505.388
14506.012
14506.944
14510.699
14495.037
14493.724
14494.957
14496.901
14496.226
14496.607
14498.722
14499.74
14498.089
14488.672
14480.72
14488.806
14509.257
14515.745
14512.662
14507.331
14502.63
14498.954
14498.041
14499.368
14501.559
14503.478
14504.704
14505.445
14506.142
14507.197
14496.222
14494.434
14493.546
14494.927
14497.003
14496.299
14496.647
14498.584
14499.723
14498.073
14488.524
14480.751
14489.559
14509.669
14515.64
14512.405
14507.167
14502.524
14498.915
14498.046
14499.392
14501.583
14503.495
14504.72
14505.52
14506.278
14507.537
14498.446
14495.168
14494.079
14493.406
14494.924
14497.105
14496.363
14496.678
14498.454
14499.72
14498.043
14488.365
14480.795
14490.341
14510.06
14515.522
14512.148
14507.006
14502.421
14498.877
14498.052
14499.416
14501.608
14503.512
14504.741
14505.614
14506.417
14508.013
14511.578
14502.443
14496.734
14494.437
14493.797
14493.301
14494.951
14497.201
14496.417
14496.701
14498.334
14499.731
14497.999
14488.195
14480.849
14491.15
14510.429
14515.391
14511.891
14506.847
14502.318
14498.84
14498.058
14499.441
14501.632
14503.53
14504.768
14505.724
14506.563
14508.701
14518.797
14508.152
14500.124
14495.422
14493.852
14493.571
14493.228
14495.008
14497.288
14496.461
14496.716
14498.225
14499.755
14497.941
14488.015
14480.915
14491.982
14510.778
14515.248
14511.634
14506.691
14502.218
14498.804
14498.065
14499.466
14501.657
14503.55
14504.806
14505.848
14506.727
14509.657
14538.399
14526.745
14515.125
14505.123
14498.091
14494.325
14493.394
14493.389
14493.185
14495.094
14497.362
14496.494
14496.723
14498.127
14499.791
14497.87
14487.827
14480.993
14492.836
14511.106
14515.092
14511.378
14506.538
14502.119
14498.768
14498.072
14499.491
14501.682
14503.571
14504.857
14505.981
14506.927
14510.72
14552.464
14545.965
14535.535
14523.375
14511.676
14502.372
14496.335
14493.424
14493.043
14493.242
14493.171
14495.208
14497.422
14496.518
14496.723
14498.039
14499.837
14497.786
14487.63
14481.085
14493.709
14511.414
14514.925
14511.123
14506.387
14502.022
14498.734
14498.08
14499.516
14501.707
14503.596
14504.925
14506.117
14507.184
14544.934
14550.892
14550.531
14543.601
14532.475
14519.85
14508.385
14499.923
14494.838
14492.701
14492.783
14493.123
14493.181
14495.345
14497.467
14496.533
14496.715
14497.962
14499.894
14497.691
14487.427
14481.193
14494.596
14511.702
14514.746
14510.869
14506.239
14501.926
14498.701
14498.088
14499.541
14501.733
14503.627
14505.01
14506.256
14507.528
14506.739
14523.614
14534.79
14543.566
14549.282
14548.399
14540.835
14529.114
14516.303
14505.336
14497.781
14493.582
14492.137
14492.594
14493.028
14493.216
14495.503
14497.498
14496.541
14496.702
14497.894
14499.959
14497.585
14487.216
14481.319
14495.495
14511.97
14514.556
14510.616
14506.093
14501.832
14498.668
14498.097
14499.567
14501.76
14503.665
14505.114
14506.403
14508.009
14435.908
14462.296
14484.66
14506.026
14522.805
14533.673
14542.064
14547.308
14545.86
14537.696
14525.564
14512.863
14502.585
14495.939
14492.547
14491.713
14492.461
14492.954
14493.272
14495.675
14497.513
14496.544
14496.682
14497.836
14500.033
14497.469
14487
14481.468
14496.4
14512.217
14514.356
14510.365
14505.95
14501.74
14498.637
14498.106
14499.593
14501.788
14503.715
14505.234
14506.571
14508.701
14195.869
14222.17
14280.554
14351.173
14401.931
14435.669
14462.006
14484.138
14505.233
14521.719
14532.243
14540.203
14544.931
14542.917
14534.26
14521.962
14509.636
14500.157
14494.379
14491.711
14491.406
14492.368
14492.9
14493.351
14495.853
14497.513
14496.542
14496.656
14497.787
14500.113
14497.342
14486.78
14481.644
14497.307
14512.444
14514.146
14510.116
14505.809
14501.65
14498.606
14498.115
14499.62
14501.819
14503.778
14505.365
14506.777
14509.655
14454.897
14367.314
14315.06
14274.809
14170.232
14058.516
14063.804
14147.273
14196.564
14222.851
14280.918
14351.28
14401.84
14435.358
14461.466
14483.35
14504.155
14520.316
14530.456
14537.943
14542.139
14539.616
14530.646
14518.446
14506.697
14498.056
14493.079
14491.053
14491.194
14492.304
14492.867
14493.456
14496.027
14497.502
14496.539
14496.625
14497.745
14500.198
14497.205
14486.557
14481.852
14498.211
14512.65
14513.926
14509.87
14505.671
14501.561
14498.577
14498.125
14499.647
14501.854
14503.858
14505.502
14507.042
14510.699
39822.595
64837.305
91068.608
84671.728
57094.127
33489.528
20807.908
16102.637
14740.674
14398.467
14329.728
14328.829
14375.126
14450.082
14450.78
14396.558
14419.443
14486.229
14439.045
14264.078
14096.217
14038.048
14079.831
14152.969
14243.329
14363.793
14468.22
14513.105
14512.274
14485.161
14425.083
14368.312
14405.148
14480.494
14455.397
14368.091
14315.808
14275.702
14171.434
14059.739
14064.661
14147.903
14197.177
14223.291
14281.039
14351.14
14401.499
14434.791
14460.656
14482.271
14502.754
14518.552
14528.268
14535.263
14538.958
14536.053
14526.995
14515.133
14504.087
14496.267
14492.016
14490.554
14491.056
14492.259
14492.857
14493.587
14496.189
14497.48
14496.534
14496.588
14497.712
14500.287
14497.056
14486.334
14482.097
14499.105
14512.835
14513.698
14509.626
14505.535
14501.474
14498.548
14498.135
14499.676
14501.895
14503.957
14505.642
14507.395
23273.907
23643.196
25258.498
29402.656
39593.585
64391.984
90776.178
84876.102
57483.014
33761.241
20948.266
16174.406
14772.84
14410.374
14333.768
14330.45
14375.973
14450.784
14451.722
14397.327
14419.943
14486.933
14440.253
14265.625
14097.741
14039.476
14081.11
14154.116
14244.229
14364.408
14468.672
14513.519
14512.695
14485.641
14425.799
14368.906
14405.353
14480.612
14455.789
14368.616
14316.303
14276.343
14172.391
14060.724
14065.28
14148.29
14197.551
14223.492
14280.915
14350.747
14400.894
14433.943
14459.54
14480.856
14500.982
14516.382
14525.656
14532.177
14535.463
14532.358
14523.447
14512.109
14501.819
14494.77
14491.166
14490.193
14490.969
14492.226
14492.871
14493.745
14496.331
14497.449
14496.531
14496.547
14497.688
14500.378
14496.895
14486.112
14482.382
14499.987
14512.997
14513.462
14509.384
14505.401
14501.388
14498.521
14498.146
14499.706
14501.945
14504.072
14505.785
14507.885
25649.988
24455.731
23618.653
23259.513
23616.219
25206.51
29297.504
39364.991
63940.024
90478.666
85078.392
57853.13
34016.282
21085.958
16249.062
14807.478
14423.39
14338.069
14331.994
14376.633
14451.254
14452.427
14397.885
14420.213
14487.391
14441.221
14266.957
14099.057
14040.684
14082.155
14155.023
14244.885
14364.77
14468.866
14513.677
14512.862
14485.867
14426.264
14369.255
14405.305
14480.469
14455.925
14368.893
14316.551
14276.736
14173.105
14061.475
14065.664
14148.435
14197.678
14223.443
14280.528
14350.076
14399.991
14432.772
14458.074
14479.058
14498.797
14513.782
14522.628
14528.748
14531.772
14528.679
14520.122
14509.423
14499.885
14493.535
14490.504
14489.95
14490.916
14492.202
14492.909
14493.928
14496.451
14497.41
14496.528
14496.501
14497.672
14500.469
14496.721
14485.895
14482.711
14500.852
14513.138
14513.218
14509.146
14505.269
14501.305
14498.494
14498.158
14499.74
14502.007
14504.202
14505.938
14508.586
30844.184
28880.647
27143.467
25656.317
24458.097
23614.961
23246.657
23588.645
25152.561
29189.242
39131.392
63476.694
90177.918
85283.552
58207.366
34257.004
21222.576
16327.366
14844.953
14437.695
14342.713
14333.495
14377.119
14451.509
14452.903
14398.254
14420.261
14487.608
14441.966
14268.095
14100.183
14041.684
14082.971
14155.693
14245.299
14364.878
14468.802
14513.581
14512.778
14485.84
14426.482
14369.36
14405.004
14480.062
14455.804
14368.922
14316.55
14276.877
14173.573
14061.984
14065.8
14148.32
14197.539
14223.116
14279.847
14349.087
14398.745
14431.231
14456.207
14476.835
14496.175
14510.76
14519.242
14525.086
14528.033
14525.154
14517.103
14507.09
14498.263
14492.537
14490.007
14489.802
14490.885
14492.184
14492.968
14494.131
14496.548
14497.366
14496.527
14496.451
14497.667
14500.559
14496.533
14485.682
14483.086
14501.696
14513.257
14512.967
14508.912
14505.14
14501.223
14498.468
14498.17
14499.778
14502.084
14504.342
14506.112
14509.54
43776.557
40773.952
37989.401
35411.286
33034.644
30860.612
28896.518
27156.816
25665.52
24461.635
23611.03
23232.425
23558.635
25094.73
29074.533
38886.954
62997.615
89877.985
85494.949
58547.108
34485.32
21359.57
16410.023
14885.596
14453.443
14347.757
14334.958
14377.419
14451.555
14453.163
14398.415
14420.077
14487.575
14442.489
14269.045
14101.129
14042.474
14083.553
14156.118
14245.463
14364.723
14468.472
14513.225
14512.437
14485.56
14426.448
14369.219
14404.444
14479.383
14455.419
14368.695
14316.29
14276.752
14173.777
14062.231
14065.663
14147.914
14197.095
14222.47
14278.824
14347.73
14397.104
14429.272
14453.904
14474.171
14493.131
14507.375
14515.603
14521.332
14524.391
14521.892
14514.434
14505.105
14496.926
14491.749
14489.654
14489.726
14490.867
14492.175
14493.049
14494.349
14496.621
14497.318
14496.526
14496.399
14497.673
14500.643
14496.332
14485.477
14483.511
14502.516
14513.353
14512.71
14508.68
14505.012
14501.142
14498.444
14498.184
14499.824
14502.178
14504.486
14506.325
14510.571
73602.825
67949.579
62916.841
58386.75
54269.447
50496.826
47018
43795.639
40803.562
38024.233
35447.162
33068.496
30890.34
28920.761
27174.75
25676.602
24465.243
23605.952
23216.015
23525.069
25030.831
28948.624
38621.882
62500.083
89585.041
85710.959
58871.531
34702.257
21498.063
16497.599
14929.681
14470.754
14353.239
14336.369
14377.505
14451.393
14453.22
14398.336
14419.644
14487.278
14442.788
14269.814
14101.891
14043.047
14083.89
14156.283
14245.359
14364.29
14467.859
14512.595
14511.828
14485.012
14426.151
14368.814
14403.607
14478.412
14454.747
14368.188
14315.744
14276.333
14173.684
14062.179
14065.212
14147.17
14196.298
14221.455
14277.408
14345.955
14395.027
14426.866
14451.159
14471.091
14489.731
14503.736
14511.854
14517.64
14520.973
14518.963
14512.129
14503.445
14495.844
14491.146
14489.423
14489.699
14490.857
14492.177
14493.152
14494.573
14496.67
14497.268
14496.525
14496.348
14497.691
14500.721
14496.118
14485.28
14483.986
14503.309
14513.426
14512.448
14508.453
14504.886
14501.064
14498.42
14498.199
14499.879
14502.29
14504.633
14506.599
50093457
15902087
6994062.7
3720958.9
2251268.4
1501357.2
1078460.8
815911.49
637758.18
508704.32
411687.48
337433.63
280041.14
235343.66
200266.93
172505.76
150328.24
132434.42
117837.91
105786.99
95713.814
87185.406
79868.559
73508.197
67907.539
62915.115
58414.908
54318.22
50558.214
47085.331
43863.603
40868.123
38082.601
35497.669
33110.397
30923.556
28945.619
27191.702
25685.955
24466.843
23598.756
23197.294
23488.684
24962.932
28816.235
38346.258
62001.492
89305.694
85910.572
59159.951
34900.517
21636.268
16589.739
14977.212
14489.672
14359.173
14337.725
14377.369
14451.013
14453.052
14397.983
14418.943
14486.709
14442.834
14270.353
14102.42
14043.372
14083.965
14156.177
14244.977
14363.568
14466.95
14511.672
14510.923
14484.17
14425.558
14368.113
14402.464
14477.121
14453.752
14367.358
14314.867
14275.575
14173.246
14061.779
14064.396
14146.04
14195.098
14220.023
14275.558
14343.733
14392.501
14424.025
14448.011
14467.673
14486.088
14499.986
14508.149
14514.145
14517.868
14516.402
14510.176
14502.079
14494.987
14490.704
14489.291
14489.701
14490.851
14492.194
14493.277
14494.794
14496.696
14497.218
14496.523
14496.299
14497.719
14500.789
14495.889
14485.093
14484.514
14504.072
14513.478
14512.181
14508.23
14504.762
14500.987
14498.397
14498.217
14499.947
14502.418
14504.783
14506.961
3.0031978e+08
50141989
15917521
7000721.3
3724287.9
2253048.8
1502327.7
1078973.7
816152.23
637835.83
508687.91
411623.85
337355.04
279968.89
235290.7
200239.94
172507.03
150357.2
132488.83
117914.6
105882.39
95824.178
87307.013
79997.76
73641.49
68041.514
63046.607
58541.06
54436.607
50666.881
47182.871
43949.16
40941.4
38143.791
35547.376
33149.509
30953.114
28966.656
27205.09
25692.221
24465.949
23589.731
23177.533
23452.373
24897.169
28690.826
38090.338
61543.014
89042.825
86062.697
59381.402
35062.893
21768.878
16685.282
15027.993
14510.207
14365.578
14339.047
14377.041
14450.387
14452.595
14397.325
14417.957
14485.869
14442.574
14270.554
14102.613
14043.392
14083.759
14155.789
14244.306
14362.555
14465.736
14510.428
14509.684
14482.988
14424.617
14367.061
14400.975
14475.478
14452.385
14366.145
14313.606
14274.424
14172.403
14060.971
14063.17
14144.484
14193.46
14218.149
14273.265
14341.074
14389.559
14420.81
14444.557
14464.042
14482.354
14496.282
14504.629
14510.948
14515.126
14514.208
14508.551
14500.976
14494.328
14490.402
14489.235
14489.716
14490.848
14492.23
14493.429
14494.999
14496.702
14497.169
14496.52
14496.256
14497.759
14500.845
14495.647
14484.917
14485.096
14504.803
14513.506
14511.909
14508.01
14504.64
14500.912
14498.376
14498.239
14500.03
14502.559
14504.943
14507.46
3.0057944e+08
50188174
15932505
7007286.1
3727589
2254819.9
1503298.9
1079493.1
816403.25
637924.15
508681.65
411569.87
337286.03
279906.42
235247.63
200222.7
172517.68
150394.96
132551.24
117998.3
105983.64
95939.081
87431.714
80128.5
73774.685
68173.808
63174.946
58662.772
54549.471
50769.193
47273.489
44027.511
41007.451
38197.982
35590.517
33182.65
30977.403
28983.187
27214.754
25695.538
24462.861
23579.268
23157.169
23416.586
24833.93
28572.524
37853.344
61122.375
88797.414
86172.309
59541.186
35193.595
21897.508
16784.61
15082.188
14532.447
14372.477
14340.319
14376.487
14449.474
14451.806
14396.324
14416.642
14484.714
14441.965
14270.374
14102.43
14043.064
14083.226
14155.072
14243.3
14361.202
14464.169
14508.815
14508.064
14481.419
14423.28
14365.61
14399.092
14473.432
14450.598
14364.503
14311.915
14272.838
14171.118
14059.726
14061.506
14142.485
14191.38
14215.844
14270.562
14338.034
14386.286
14417.334
14440.934
14460.353
14478.686
14492.768
14501.401
14508.11
14512.76
14512.364
14507.219
14500.104
14493.841
14490.216
14489.232
14489.735
14490.848
14492.288
14493.608
14495.182
14496.689
14497.12
14496.515
14496.221
14497.812
14500.886
14495.392
14484.755
14485.731
14505.5
14513.512
14511.634
14507.795
14504.519
14500.838
14498.356
14498.266
14500.131
14502.708
14505.127
14508.17
3.0083044e+08
50234185
15947411
7013829.3
3730904.9
2256621
1504303.9
1080045
816683.31
638037.82
508697.07
411534.42
337233.1
279858.04
235216.89
200216.15
172537.39
150440.12
132619.38
118086.05
106087.25
96054.679
87555.468
80256.71
73903.858
68300.724
63296.726
58776.956
54654.088
50862.813
47355.25
44097.113
41065.114
38244.357
35626.575
33209.551
30996.347
28995.273
27220.834
25696.071
24457.714
23567.411
23136.066
23380.85
24772.066
28458.663
37629.031
60728.91
88565.439
86246.238
59647.364
35298.126
22024.635
16888.619
15140.122
14556.473
14379.861
14341.502
14375.66
14448.221
14450.638
14394.934
14414.952
14483.194
14440.959
14269.769
14101.827
14042.344
14082.319
14153.979
14241.909
14359.458
14462.2
14506.787
14506.019
14479.419
14421.506
14363.721
14396.775
14470.946
14448.358
14362.404
14309.769
14270.8
14169.384
14058.044
14059.416
14140.07
14188.901
14213.174
14267.534
14334.724
14382.813
14413.747
14437.301
14456.763
14475.224
14489.55
14498.531
14505.651
14510.758
14510.839
14506.148
14499.434
14493.503
14490.125
14489.261
14489.755
14490.854
14492.368
14493.811
14495.337
14496.66
14497.073
14496.508
14496.197
14497.877
14500.909
14495.122
14484.609
14486.419
14506.162
14513.496
14511.357
14507.585
14504.4
14500.766
14498.339
14498.302
14500.249
14502.861
14505.352
14509.126
3.0107049e+08
50278980
15962089
7020343.7
3734236.2
2258450.6
1505340.3
1080626.7
816989.13
638173.14
508731
411515.39
337194.7
279822.47
235197.37
200219.22
172565.07
150491.59
132692.17
118176.79
106192.17
96169.936
87677.268
80381.431
74028.116
68421.451
63411.24
58883.031
54750.015