/*--------------------------------*- C++ -*----------------------------------*\
| =========                 |                                                 |
| \\      /  F ield         | OpenFOAM: The Open Source CFD Toolbox           |
|  \\    /   O peration     | Version:  2506                                  |
|   \\  /    A nd           | Website:  www.openfoam.com                      |
|    \\/     M anipulation  |                                                 |
\*---------------------------------------------------------------------------*/
FoamFile
{
    version     2.0;
    format      ascii;
    arch        "LSB;label=32;scalar=64";
    class       volScalarField;
    location    "0.0075";
    object      Co;
}
// * * * * * * * * * * * * * * * * * * * * * * * * * * * * * * * * * * * * * //

dimensions      [0 0 0 0 0 0 0];

internalField   nonuniform List<scalar> 
13761
(
0.0011159223
0.0011351579
0.001153955
0.0011723564
0.0011904028
0.001208143
0.0012256194
0.0012428931
0.0012600477
0.0012771761
0.0012944077
0.0013119091
0.0013299021
0.0013486908
0.0013687253
0.0013906978
0.0014158103
0.0014464627
0.0014883583
0.0015584133
0.0017080703
0.0019925369
0.0022852336
0.0024954736
2.1870428e-05
6.7711581e-05
0.00011785133
0.00017261437
0.00023218578
0.0002963946
0.00036408486
0.00043272034
0.00049903465
0.00056047169
0.0006160169
0.00066585452
0.00071066095
0.00075120018
0.00078819126
0.000822238
0.00085382137
0.00088334407
0.0009111317
0.00093741947
0.0009624153
0.00098631179
0.0010092427
0.0010313252
0.0010526684
0.0010733451
0.001093434
0.0011129892
0.0011320637
0.0011507011
0.0011689454
0.0011868378
0.0012044241
0.0012217507
0.0012388799
0.0012558945
0.0012728887
0.0012899936
0.0013073738
0.0013252508
0.0013439303
0.0013638609
0.0013857388
0.0014107739
0.0014413817
0.001483306
0.0015536192
0.0017041847
0.0019888545
0.0022805482
2.1951595e-05
6.794371e-05
0.00011822059
0.00017310786
0.00023278434
0.0002970707
0.00036479547
0.00043338795
0.00049957231
0.00056081622
0.00061613634
0.00066573704
0.00071030041
0.00075060524
0.00078737151
0.00082119476
0.00085256776
0.00088188434
0.0009094624
0.00093554792
0.0009603483
0.00098405213
0.0010067954
0.001028691
0.0010498496
0.0010703461
0.0010902559
0.0011096359
0.0011285349
0.0011470025
0.001165082
0.0011828132
0.0012002481
0.0012174311
0.0012344227
0.0012513065
0.0012681773
0.001285164
0.0013024333
0.0013202076
0.0013387917
0.0013586362
0.0013804397
0.0014054197
0.0014360071
0.0014779854
0.0015485745
0.0017000084
2.2015959e-05
6.8120265e-05
0.00011848753
0.00017344098
0.00023316121
0.00029746069
0.00036514704
0.0004336325
0.00049962755
0.00056061566
0.00061565174
0.00066496545
0.00070925048
0.00074928726
0.00078579351
0.00081936952
0.00085050664
0.00087960135
0.00090697167
0.00093285529
0.00095746181
0.00098097595
0.0010035323
0.0010252532
0.0010462418
0.0010665703
0.0010863181
0.0011055395
0.0011242878
0.0011426093
0.0011605471
0.0011781448
0.0011954496
0.0012125073
0.0012293824
0.0012461583
0.001262931
0.0012798273
0.001297012
0.0013147095
0.001333225
0.00135301
0.0013747675
0.0013997184
0.0014303086
0.0014723585
2.2015604e-05
6.8123451e-05
0.00011849114
0.00017344569
0.00023316361
0.00029745033
0.0003650905
0.00043346135
0.00049927384
0.00056003244
0.00061482252
0.00066388751
0.00070793563
0.00074775149
0.00078405253
0.00081744102
0.00084840463
0.0008773347
0.00090454727
0.00093028181
0.00095474691
0.00097812909
0.0010005573
0.0010221492
0.0010430127
0.0010632196
0.0010828451
0.0011019466
0.0011205751
0.0011387784
0.0011566013
0.0011740833
0.0011912785
0.0012082335
0.0012250098
0.0012416916
0.0012583746
0.0012751906
0.0012923024
0.0013099317
0.0013283861
0.0013481183
0.0013698305
2.2088e-05
6.8331029e-05
0.00011882735
0.00017390362
0.0002337337
0.00029811486
0.00036581556
0.00043418965
0.0004999367
0.00056058337
0.00061523456
0.00066415466
0.0007080638
0.00074775334
0.00078393975
0.0008172188
0.00084807589
0.00087690878
0.00090402623
0.00092966429
0.00095403427
0.00097731511
0.00099964164
0.0010211305
0.0010418837
0.0010619765
0.0010814876
0.0011004698
0.0011189778
0.0011370579
0.0011547547
0.0011721176
0.0011891922
0.0012060288
0.0012226933
0.0012392684
0.0012558522
0.0012725734
0.0012896008
2.2102047e-05
6.8388753e-05
0.00011895317
0.00017411918
0.00023405983
0.00029855796
0.00036635431
0.00043477493
0.00050050627
0.00056108893
0.00061565302
0.00066448315
0.00070830457
0.00074790589
0.00078401257
0.00081721771
0.00084800244
0.00087675777
0.00090379679
0.00092935776
0.00095364195
0.0009768349
0.0009990693
0.0010204575
0.0010411048
0.0010610837
0.0010804705
0.0010993249
0.0011177002
0.001135647
0.001153212
0.0011704385
0.0011873824
0.0012040929
0.0012206361
2.21836e-05
6.8623737e-05
0.00011933407
0.00017464056
0.00023471096
0.00029932307
0.00036720059
0.0004356439
0.0005013278
0.00056180661
0.00061624473
0.00066494246
0.00070863499
0.00074811519
0.00078410039
0.00081718923
0.00084785977
0.00087650424
0.00090343381
0.00092888091
0.00095305012
0.00097612322
0.00099822965
0.001019486
0.0010399994
0.0010598426
3.6582883e-05
0.00011283075
0.00019555653
0.00028514985
0.00038133329
0.00048218153
0.0005830755
0.00067821975
0.00076388835
0.00083941082
0.00090592506
0.00096501829
0.0010181149
0.0010663765
0.001110717
0.0011518425
0.0011903017
0.0012265222
0.0012608331
0.0012934979
0.0013247428
0.0013547539
0.0013836792
0.0014116494
0.0014387756
0.0014651494
0.0014908561
0.0015159649
0.0015405403
0.0015646399
0.001588314
0.0016116084
0.0016345672
0.0016572317
0.0016796506
0.0017018806
0.0017239876
0.0017460586
0.0017682074
0.0017905893
0.0018134192
0.001837007
0.0018618127
0.0018885738
0.0019185947
0.0019545183
0.0020026799
0.0020832298
0.0022541885
3.6545424e-05
0.00011271314
0.00019534865
0.00028484074
0.00038091087
0.00048162859
0.00058236834
0.00067733866
0.00076282482
0.00083816787
0.00090451252
0.00096344888
0.0010164031
0.0010645352
0.0011087575
0.0011497758
0.0011881382
0.0012242715
0.0012585055
0.0012911021
0.0013222875
0.0013522476
0.0013811296
0.0014090638
0.001436161
0.0014625127
0.0014882026
0.0015133009
0.0015378714
0.0015619703
0.0015856476
0.0016089487
0.0016319175
0.0016545947
0.0016770282
0.0016992745
0.0017213994
0.0017434896
0.0017656589
0.001788063
0.0018109173
0.0018345325
0.0018593701
0.0018861707
0.0019162438
0.0019522445
0.0020005378
0.0020813881
0.0022531482
0.0025046735
0.002676283
0.002749571
0.0027719822
0.0027779268
0.0027796195
0.002779875
0.0027794469
0.0027786448
0.0027777854
0.0027772416
0.0027772466
0.0027776973
0.0027782921
0.0027790745
0.0027797444
0.0027792104
0.0027769389
0.0027740203
0.0027715672
0.0027701135
0.0027692286
0.0027680302
0.0027662188
0.0027647285
0.0027637985
0.0027630535
0.0027615485
0.0027595414
0.0027575692
0.0027566022
0.0027554766
0.0027531856
0.0027498755
0.0027470159
0.0027437196
0.0027391442
0.0027333158
0.0027273776
0.002721722
0.0027162084
3.6504345e-05
0.00011258666
0.00019512768
0.00028451576
0.00038046962
0.00048105307
0.00058163537
0.00067642693
0.00076172552
0.00083688596
0.00090305985
0.00096183969
0.0010146505
0.0010626501
0.0011067521
0.0011476617
0.001185926
0.0012219709
0.0012561245
0.0012886494
0.0013197712
0.0013496757
0.00137851
0.0014064037
0.0014334674
0.0014597917
0.0014854613
0.0015105447
0.0015351052
0.0015591987
0.0015828751
0.0016061797
0.0016291554
0.0016518424
0.0016742887
0.0016965504
0.0017186929
0.001740803
0.0017629945
0.0017854229
0.0018083042
0.0018319498
0.001856823
0.001883667
0.001913797
0.0019498802
0.0019983122
0.0020794683
0.0022520184
0.002504081
0.002675584
0.0027486895
0.0027715308
0.0027779123
0.002779597
0.0027798528
0.0027794274
0.0027786215
0.0027777453
0.002777169
0.0027771356
0.0027775501
0.0027781142
0.0027788793
0.0027795748
0.0027791056
0.0027768863
0.0027739725
0.0027714864
0.0027700003
0.0027691091
0.0027679206
0.0027660965
0.0027645787
0.0027636294
0.0027628949
0.0027614069
0.0027593949
0.0027573793
0.0027563841
0.0027552841
0.0027530344
0.0027497198
0.002746865
0.0027436081
0.0027390975
0.0027332899
0.0027273551
0.0027216874
0.0027161878
0.0027102856
0.0027040065
0.0026971078
0.0026897762
0.0026817552
0.0026731753
0.0026637908
0.0026538086
0.0026430118
3.6473742e-05
0.00011248902
0.00019495151
0.00028424866
0.00038009649
0.00048055357
0.00058098331
0.00067559835
0.00076071045
0.00083568644
0.00090168615
0.00096030395
0.0010129648
0.0010608285
0.0011048053
0.0011455998
0.0011837586
0.0012197076
0.0012537738
0.0012862199
0.0013172722
0.0013471143
0.0013758933
0.0014037396
0.0014307627
0.0014570533
0.0014826947
0.0015077563
0.0015323005
0.0015563832
0.0015800537
0.0016033564
0.001626334
0.0016490271
0.0016714831
0.0016937575
0.0017159159
0.0017380447
0.0017602576
0.0017827104
0.0018056194
0.0018292971
0.001854208
0.0018810981
0.0019112884
0.0019474589
0.0019960368
0.0020775054
0.0022508395
0.0025034291
0.0026748202
0.0027481844
0.0027716004
0.002778173
0.0027798418
0.0027800904
0.0027796609
0.0027788455
0.0027779476
0.0027773346
0.0027772588
0.0027776332
0.0027781626
0.0027789042
0.0027796176
0.0027792057
0.0027770333
0.002774121
0.0027715988
0.0027700756
0.0027691732
0.0027679901
0.0027661498
0.0027646001
0.0027636271
0.0027628972
0.0027614223
0.0027594021
0.0027573416
0.002756312
0.002755232
0.0027530192
0.0027496977
0.0027468419
0.0027436193
0.0027391687
0.0027333802
0.0027274464
0.0027217641
0.002716275
0.0027103777
0.0027041199
0.002697233
0.0026899274
0.0026819226
0.0026733698
0.0026640019
0.0026540463
0.0026432651
0.0026319671
0.0026199228
0.0026073638
0.0025939914
0.0025798338
3.6445569e-05
0.00011239928
0.00019478847
0.00028399999
0.00037974759
0.00048008379
0.0005803642
0.00067480459
0.00075972885
0.00083451815
0.00090034181
0.00095879606
0.0010113046
0.0010590277
0.0011028765
0.001143553
0.0011816034
0.0012174529
0.0012514282
0.0012837916
0.0013147687
0.0013445436
0.0013732635
0.0014010575
0.0014280347
0.0014542863
0.0014798953
0.0015049299
0.0015294529
0.00155352
0.0015771796
0.0016004764
0.0016234524
0.0016461478
0.0016686103
0.0016908949
0.0017130668
0.0017352127
0.0017574461
0.0017799229
0.0018028602
0.0018265709
0.0018515213
0.0018784606
0.0019087154
0.0019449791
0.0019937108
0.0020755027
0.0022496238
0.0025027313
0.0026739899
0.0027480506
0.0027722129
0.0027787351
0.0027803787
0.0027806116
0.0027801699
0.0027793377
0.002778412
0.0027777571
0.0027776338
0.0027779629
0.0027784519
0.0027791628
0.0027798848
0.0027795205
0.0027773887
0.0027744738
0.0027719117
0.002770346
0.0027694262
0.0027682428
0.0027663824
0.0027647963
0.0027637944
0.0027630627
0.0027615964
0.0027595648
0.0027574573
0.0027563871
0.0027553214
0.0027531406
0.00274981
0.0027469475
0.0027437541
0.0027393585
0.0027335872
0.0027276523
0.0027219527
0.0027164707
0.0027105752
0.002704336
0.0026974581
0.0026901754
0.0026821842
0.002673656
0.0026643021
0.0026543706
0.0026436026
0.0026323269
0.0026202935
0.0026077585
0.0025944095
0.0025803029
0.0025649466
0.0025484659
0.0025306106
3.6423322e-05
0.00011232658
0.00019465329
0.00028378896
0.00037944525
0.00047966778
0.00057980433
0.00067407174
0.00075880881
0.0008334125
0.00089905866
0.00095734628
0.0010097011
0.0010572817
0.0011009983
0.0011415531
0.0011794915
0.0012152377
0.0012491182
0.0012813954
0.0013122937
0.0013419976
0.0013706537
0.0013983906
0.0014253178
0.0014515261
0.0014770976
0.0015021011
0.0015265989
0.001550646
0.0015742907
0.0015975775
0.0016205482
0.0016432429
0.0016657087
0.0016880009
0.0017101844
0.0017323455
0.0017545983
0.0017770985
0.0018000639
0.0018238081
0.001848799
0.0018757887
0.0019061101
0.0019424696
0.001991359
0.0020734803
0.0022483927
0.0025019989
0.002673859
0.0027487688
0.0027731959
0.0027796558
0.0027812613
0.0027814658
0.0027810003
0.0027801409
0.002779178
0.0027784726
0.0027782936
0.002778569
0.0027790091
0.0027796794
0.0027803984
0.0027800696
0.0027779697
0.0027750457
0.0027724382
0.002770823
0.0027698782
0.0027686871
0.002766801
0.0027651731
0.0027641361
0.0027633953
0.0027619321
0.0027598853
0.0027577284
0.0027566114
0.0027555536
0.0027533998
0.0027500577
0.0027471832
0.0027440134
0.0027396678
0.0027339116
0.0027279733
0.0027222541
0.0027167758
0.0027108794
0.0027046555
0.0026977842
0.0026905217
0.0026825413
0.0026740351
0.002664693
0.0026547832
0.0026440261
0.0026327701
0.0026207442
0.0026082285
0.0025948968
0.0025808343
0.0025655283
0.0025491194
0.0025313341
0.0025126373
0.0024924664
0.0024714792
3.6407162e-05
0.00011226975
0.00019453916
0.00028361029
0.0003792634
0.00047953601
0.00057967991
0.00067385842
0.00075837884
0.00083263516
0.00089783595
0.00095579857
0.0010079783
0.0010553956
0.0010989602
0.0011393739
0.0011771817
0.0012128071
0.0012465755
0.0012787498
0.0013095556
0.0013391738
0.0013677521
0.0013954207
0.0014222868
0.0014484413
0.0014739662
0.0014989305
0.0015233953
0.0015474158
0.0015710405
0.001594313
0.0016172745
0.0016399656
0.0016624333
0.0016847323
0.0017069278
0.0017291059
0.0017513806
0.0017739082
0.0017969067
0.0018206907
0.0018457301
0.0018727803
0.0019031803
0.0019396516
0.0019887206
0.0020712049
0.0022469568
0.0025014427
0.0026746851
0.0027504643
0.0027746952
0.0027810628
0.0027826025
0.002782754
0.0027822423
0.0027813357
0.0027803178
0.0027795458
0.0027792958
0.0027795029
0.0027798798
0.0027804943
0.0027811937
0.002780884
0.0027788033
0.0027758601
0.0027731983
0.0027715234
0.002770543
0.0027693345
0.0027674156
0.0027657385
0.0027646588
0.0027639004
0.0027624339
0.0027603674
0.0027581576
0.0027569875
0.0027559309
0.0027537987
0.0027504426
0.0027475505
0.0027443989
0.0027400981
0.002734355
0.0027284113
0.0027226699
0.0027171921
0.002711292
0.0027050806
0.0026982131
0.0026909678
0.0026829958
0.0026745091
0.0026651765
0.0026552863
0.0026445381
0.0026332992
0.0026212778
0.0026087772
0.0025954572
0.002581432
0.002566169
0.0025498249
0.0025321032
0.0025134919
0.0024934074
0.0024725291
0.0024493622
0.0024252308
0.0023997025
3.640012e-05
0.00011224191
0.00019449111
0.00028361611
0.0003793374
0.00047962751
0.00057976652
0.00067391508
0.00075839207
0.00083260374
0.00089774698
0.00095544166
0.0010071308
0.0010540365
0.0010972939
0.0011375771
0.0011752624
0.0012107734
0.001244434
0.0012765068
0.0013072178
0.001336749
0.0013652475
0.0013928421
0.00141964
0.0014457338
0.0014712041
0.0014961193
0.0015205417
0.0015445252
0.001568118
0.0015913644
0.0016143049
0.00163698
0.0016594368
0.0016817295
0.0017039236
0.0017261049
0.0017483875
0.0017709277
0.0017939445
0.0018177528
0.0018428241
0.0018699165
0.0019003749
0.0019369348
0.0019861572
0.0020689827
0.0022455932
0.0025026487
0.0026771771
0.002752498
0.0027765713
0.0027828658
0.0027843501
0.0027844513
0.0027838897
0.0027829283
0.0027818455
0.0027809958
0.0027806623
0.002780787
0.0027810857
0.002781628
0.0027822877
0.0027819747
0.0027798938
0.0027769167
0.0027741891
0.0027724435
0.0027714156
0.0027701782
0.0027682178
0.0027664843
0.0027653547
0.00276457
0.002763093
0.0027610022
0.002758737
0.0027575086
0.0027564464
0.0027543301
0.0027509582
0.0027480443
0.0027449053
0.0027406442
0.0027349125
0.002728962
0.0027231967
0.0027177164
0.0027118102
0.0027056085
0.0026987428
0.0026915121
0.0026835461
0.0026750768
0.0026657518
0.0026558794
0.0026451382
0.0026339144
0.002621895
0.0026094059
0.0025960925
0.0025820984
0.0025668715
0.0025505847
0.0025329196
0.0025143877
0.0024943865
0.0024736195
0.0024505228
0.0024264285
0.0024009334
0.0023725898
0.0023465126
3.6400986e-05
0.00011225037
0.00019450485
0.0002835705
0.00037920825
0.00047942631
0.00057946306
0.0006734792
0.00075780708
0.00083187018
0.00089687387
0.00095450732
0.0010063689
0.0010535892
0.0010969684
0.0011372069
0.0011748486
0.0012103162
0.0012439341
0.0012759656
0.0013066356
0.0013361261
0.001364584
0.0013921389
0.001418899
0.0014449553
0.0014703896
0.0014952708
0.0015196603
0.0015436134
0.0015671779
0.0015903977
0.0016133144
0.0016359684
0.0016584067
0.001680684
0.001702866
0.0017250389
0.0017473174
0.0017698585
0.0017928817
0.0018167039
0.0018417989
0.0018689296
0.0018994496
0.0019361128
0.0019855246
0.002068768
0.0022463872
0.0025037835
0.0026775325
0.002752473
0.0027764533
0.0027827436
0.0027842493
0.0027843823
0.0027838576
0.0027829311
0.0027818746
0.0027810387
0.0027807115
0.0027808413
0.0027811467
0.0027816978
0.0027823929
0.0027821487
0.0027801399
0.0027771992
0.0027744722
0.0027727162
0.0027716957
0.0027704814
0.00276853
0.002766787
0.0027656496
0.0027648769
0.0027634261
0.0027613471
0.0027590605
0.0027578023
0.0027567596
0.0027546842
0.002751322
0.0027484065
0.0027452984
0.0027410944
0.0027353923
0.0027294512
0.0027236764
0.002718206
0.0027123053
0.0027061237
0.0026992696
0.0026920617
0.0026841096
0.0026756648
0.0026663542
0.0026565054
0.0026457769
0.0026345729
0.0026225592
0.0026100839
0.0025967775
0.0025828131
0.0025676196
0.0025513867
0.002533774
0.0025153174
0.0024953979
0.0024747459
0.0024517282
0.0024276814
0.0024022264
0.0023738622
0.0023476948
0.0023175239
0.0022842602
3.6395827e-05
0.00011224387
0.00019451263
0.0002835815
0.00037914611
0.0004792143
0.00057908462
0.00067296702
0.00075724861
0.00083138149
0.00089657434
0.0009544381
0.0010064013
0.00105362
0.0010969995
0.0011372408
0.0011748868
0.0012103587
0.0012439816
0.0012760167
0.0013066885
0.00133618
0.0013646383
0.0013921921
0.0014189489
0.0014450007
0.001470429
0.0014953021
0.0015196825
0.0015436248
0.0015671779
0.0015903859
0.00161329
0.0016359309
0.0016583566
0.0016806221
0.001702793
0.0017249562
0.0017472272
0.0017697636
0.0017927861
0.001816613
0.0018417205
0.0018688755
0.0018994396
0.0019361834
0.0019857525
0.0020693764
0.0022479827
0.0025047941
0.0026771699
0.0027518354
0.0027757712
0.0027820894
0.0027836424
0.0027838295
0.0027833617
0.0027824887
0.0027814768
0.0027806727
0.0027803693
0.0027805217
0.0027808515
0.0027814286
0.0027821751
0.0027820168
0.0027801001
0.0027772184
0.0027745149
0.0027727695
0.0027717758
0.0027706039
0.0027686817
0.0027669481
0.0027658202
0.002765075
0.0027636659
0.0027616147
0.0027593224
0.0027580468
0.0027570342
0.0027550104
0.0027516699
0.0027487616
0.0027456919
0.0027415518
0.0027358874
0.0027299635
0.0027241862
0.0027187306
0.0027128408
0.0027066834
0.0026998451
0.0026926631
0.0026847282
0.0026763105
0.002667017
0.0026571944
0.0026464808
0.0026352981
0.0026232916
0.00261083
0.0025975292
0.0025835912
0.002568427
0.0025522426
0.0025346765
0.0025162887
0.0024964467
0.0024759109
0.0024529794
0.0024289893
0.0024035808
0.0023752009
0.0023489429
0.0023187665
0.0022854068
0.0022582816
3.6383025e-05
0.00011220767
0.00019445606
0.00028350809
0.00037905621
0.00047909936
0.00057892568
0.00067274117
0.00075694296
0.0008309967
0.00089611864
0.00095392235
0.0010058349
0.0010530125
0.0010963606
0.0011365772
0.0011742037
0.0012096628
0.0012432775
0.0012753086
0.0013059808
0.0013354749
0.0013639377
0.0013914979
0.001418263
0.0014443235
0.0014697614
0.0014946447
0.0015190352
0.0015429877
0.0015665501
0.0015897667
0.0016126796
0.0016353291
0.0016577628
0.0016800362
0.0017022154
0.0017243882
0.0017466701
0.0017692195
0.0017922582
0.0018161059
0.0018412409
0.0018684338
0.0018990534
0.0019358848
0.0019856097
0.0020695979
0.0022491529
0.0025057874
0.0026773443
0.0027517838
0.0027756773
0.0027820141
0.0027836003
0.0027838247
0.0027833947
0.0027825547
0.0027815659
0.0027807711
0.0027804686
0.00278062
0.0027809501
0.0027815287
0.002782301
0.0027822032
0.0027803558
0.0027775137
0.002774817
0.0027730664
0.0027720843
0.002770941
0.0027690364
0.0027673024
0.0027661748
0.0027654476
0.0027640721
0.0027620427
0.0027597406
0.0027584423
0.0027574532
0.0027554753
0.0027521535
0.0027492481
0.0027462124
0.002742131
0.0027365019
0.0027305929
0.0027248112
0.0027193676
0.0027134863
0.0027073506
0.002700526
0.0026933673
0.0026854473
0.0026770544
0.0026677763
0.0026579779
0.002647278
0.0026361149
0.0026241138
0.0026116634
0.0025983645
0.0025844476
0.0025693065
0.0025531635
0.002535636
0.0025173085
0.0024975373
0.0024771161
0.002454276
0.0024303506
0.0024049946
0.0023766029
0.0023502539
0.0023200707
0.0022866238
0.0022593618
0.0022245403
0.002185466
3.6369915e-05
0.0001121679
0.00019438736
0.00028340742
0.00037891855
0.00047891212
0.00057866466
0.00067238176
0.00075647114
0.00083041075
0.00089542486
0.00095313077
0.0010049565
0.0010520576
0.0010953391
0.0011354985
0.0011730773
0.0012084956
0.001242077
0.0012740814
0.0013047324
0.0013342123
0.0013626659
0.0013902215
0.0014169866
0.001443051
0.0014684958
0.0014933891
0.0015177919
0.0015417583
0.0015653368
0.0015885709
0.0016115018
0.00163417
0.0016566235
0.0016789174
0.0017011185
0.0017233141
0.0017456206
0.0017681973
0.0017912666
0.0018151498
0.001840328
0.0018675753
0.0018982676
0.0019352053
0.0019851063
0.0020694771
0.0022499792
0.0025068308
0.0026779572
0.0027521707
0.0027760012
0.0027823345
0.0027839339
0.0027841784
0.0027837715
0.002782952
0.0027819754
0.0027811809
0.0027808706
0.002781013
0.002781335
0.002781906
0.0027826933
0.0027826443
0.0027808554
0.0027780443
0.002775346
0.0027735814
0.0027726016
0.0027714776
0.0027695831
0.0027678415
0.002766707
0.0027659901
0.0027646417
0.0027626292
0.0027603137
0.0027589875
0.002758016
0.0027560789
0.0027527732
0.0027498664
0.0027468599
0.0027428323
0.0027372361
0.0027313401
0.002725552
0.0027201175
0.0027142427
0.0027081257
0.0027013129
0.0026941747
0.0026862676
0.0026778972
0.0026686328
0.0026588569
0.0026481692
0.0026370243
0.0026250271
0.0026125856
0.0025992852
0.0025853846
0.0025702607
0.0025541525
0.0025366558
0.0025183798
0.0024986714
0.0024783617
0.0024556175
0.0024317645
0.002406467
0.0023780676
0.0023516282
0.0023214369
0.0022879106
0.0022605002
0.0022257291
0.0021865768
0.0021557235
3.6359772e-05
0.00011213566
0.00019432946
0.00028331997
0.00037879463
0.00047876789
0.00057848376
0.00067207276
0.00075600487
0.0008298172
0.00089471521
0.00095231392
0.0010040415
0.0010510534
0.001094255
0.0011343426
0.0011718571
0.0012072192
0.0012407514
0.0012727141
0.0013033302
0.0013327807
0.0013612116
0.0013887503
0.0014155036
0.0014415614
0.0014670045
0.0014919
0.001516309
0.0015402851
0.0015638759
0.0015871249
0.0016100731
0.0016327609
0.0016552354
0.0016775522
0.0016997776
0.0017219996
0.0017443345
0.0017669423
0.0017900467
0.0018139702
0.0018391959
0.001866502
0.0018972714
0.0019343192
0.0019843993
0.0020691501
0.00225058
0.00250798
0.0026789463
0.0027529301
0.0027766833
0.0027829972
0.002784594
0.0027848433
0.0027844453
0.0027836338
0.0027826586
0.0027818548
0.0027815287
0.0027816545
0.0027819616
0.0027825183
0.0027833125
0.0027833041
0.0027815667
0.0027787816
0.0027760777
0.0027742941
0.0027733108
0.0027722003
0.0027703109
0.0027685571
0.0027674105
0.0027666981
0.0027653711
0.0027633714
0.0027610395
0.0027596814
0.002758722
0.0027568208
0.0027535287
0.0027506164
0.002747635
0.0027436564
0.0027380906
0.0027322053
0.0027264093
0.002720981
0.0027151106
0.0027090099
0.0027022069
0.0026950866
0.0026871902
0.00267884
0.0026695876
0.0026598326
0.0026491557
0.0026380272
0.0026260327
0.0026135981
0.0026002932
0.0025864044
0.0025712925
0.0025552125
0.0025377392
0.0025195057
0.0024998516
0.002479649
0.0024570037
0.00243323
0.0024079977
0.0023795945
0.0023530662
0.0023228661
0.0022892668
0.0022616975
0.0022269681
0.0021877606
0.0021566022
0.0021211118
3.635278e-05
0.000112113
0.00019428713
0.00028325666
0.00037875566
0.00047875949
0.00057845229
0.00067198672
0.00075575214
0.00082931166
0.0008940316
0.00095151903
0.001003144
0.0010500618
0.0010931772
0.0011331869
0.001170631
0.0012059295
0.0012394048
0.0012713169
0.0013018892
0.0013313023
0.0013597013
0.0013872139
0.0014139469
0.0014399901
0.0014654235
0.0014903144
0.0015147228
0.0015387028
0.0015623017
0.0015855619
0.0016085245
0.0016312292
0.0016537236
0.0016760628
0.0016983126
0.0017205616
0.0017429266
0.0017655678
0.0017887093
0.0018126754
0.0018379513
0.0018653189
0.0018961678
0.0019333274
0.0019835871
0.0020687138
0.0022510542
0.0025092716
0.0026802556
0.0027540034
0.0027776697
0.0027839545
0.002785539
0.0027857839
0.002785386
0.0027845741
0.0027835928
0.0027827731
0.0027824246
0.002782528
0.0027828143
0.0027833504
0.0027841443
0.0027841688
0.0027824762
0.0027797127
0.0027769997
0.0027751935
0.0027742019
0.0027731001
0.002771212
0.0027694426
0.0027682801
0.002767567
0.0027662568
0.0027642664
0.0027619159
0.0027605221
0.0027595698
0.0027576999
0.002754419
0.0027514976
0.0027485369
0.0027446027
0.0027390649
0.0027331885
0.0027273828
0.0027219578
0.00271609
0.0027100029
0.0027032079
0.0026961027
0.0026882151
0.0026798827
0.0026706408
0.0026609047
0.0026502375
0.0026391238
0.0026271308
0.0026147013
0.0026013894
0.002587508
0.0025724031
0.0025563456
0.0025388886
0.0025206888
0.0025010799
0.0024809783
0.0024584339
0.0024347457
0.002409585
0.0023811824
0.0023545674
0.0023243583
0.0022906914
0.0022629536
0.0022282573
0.002189017
0.0021575403
0.0021220251
0.0020789588
0.0020377271
3.6349216e-05
0.00011210023
0.00019426071
0.00028326188
0.00037880313
0.00047881208
0.0005784879
0.00067197827
0.00075568463
0.0008291103
0.00089352473
0.00095076255
0.0010022831
0.0010491053
0.0010921329
0.0011320618
0.001169432
0.0012046635
0.0012380775
0.0012699343
0.0013004578
0.0013298276
0.0013581892
0.0013856705
0.0014123775
0.0014383999
0.0014638177
0.0014886977
0.0015131006
0.0015370793
0.0015606807
0.0015839478
0.0016069209
0.0016296397
0.0016521514
0.0016745107
0.0016967844
0.0017190601
0.0017414549
0.0017641294
0.0017873091
0.0018113189
0.0018366461
0.0018640763
0.0018950055
0.0019322779
0.0019827183
0.0020682192
0.0022514609
0.002510733
0.0026818696
0.00275537
0.0027789396
0.0027851865
0.002786751
0.0027869839
0.0027865791
0.0027857603
0.0027847671
0.0027839264
0.0027835508
0.0027836268
0.0027838875
0.0027843983
0.0027851853
0.0027852354
0.0027835815
0.0027808352
0.0027781098
0.0027762773
0.0027752728
0.002774175
0.0027722847
0.0027704964
0.0027693142
0.0027685959
0.002767298
0.0027653136
0.0027629425
0.0027615098
0.0027605595
0.0027587163
0.0027554445
0.0027525106
0.0027495665
0.0027456721
0.0027401602
0.0027342902
0.0027284735
0.002723049
0.0027171818
0.0027111057
0.0027043169
0.0026972244
0.0026893436
0.0026810267
0.0026717936
0.0026620747
0.0026514157
0.0026403154
0.0026283228
0.0026158967
0.0026025754
0.0025886976
0.002573595
0.0025575544
0.0025401073
0.0025219329
0.0025023597
0.0024823516
0.0024599086
0.002436311
0.0024112289
0.0023828312
0.0023561323
0.0023259145
0.0022921838
0.0022642691
0.0022295977
0.0021903463
0.0021585382
0.0021229854
0.0020802026
0.0020390583
0.0019918613
3.6349575e-05
0.00011209937
0.00019428404
0.0002833267
0.00037889814
0.0004789253
0.00057859709
0.0006720576
0.00075571797
0.00082909251
0.00089344151
0.00095040921
0.0010015615
0.0010481929
0.0010911299
0.0011309757
0.00116827
0.0012034313
0.0012367817
0.0012685807
0.0012990519
0.0013283751
0.0013566955
0.0013841413
0.001410818
0.001436815
0.0014622126
0.0014870775
0.00151147
0.0015354433
0.0015590435
0.0015823134
0.0016052933
0.0016280229
0.0016505489
0.0016729262
0.0016952211
0.0017175217
0.001739945
0.0017626522
0.0017858695
0.0018099229
0.0018353018
0.001862795
0.0018938054
0.0019311918
0.001981815
0.0020676918
0.0022518342
0.0025123568
0.0026838025
0.0027570393
0.0027805007
0.0027866999
0.0027882357
0.0027884484
0.002788029
0.0027871964
0.002786185
0.0027853177
0.00278491
0.0027849539
0.0027851843
0.0027856645
0.0027864383
0.002786507
0.0027848854
0.0027821518
0.0027794102
0.0027775475
0.0027765254
0.0027754267
0.00277353
0.0027717192
0.0027705135
0.0027697852
0.002768495
0.0027665131
0.0027641191
0.0027626444
0.0027616916
0.0027598706
0.0027566056
0.0027536556
0.0027507244
0.0027468651
0.0027413767
0.0027355112
0.002729682
0.0027242553
0.002718387
0.0027123193
0.0027055348
0.0026984525
0.0026905766
0.0026822729
0.002673047
0.0026633434
0.0026526914
0.0026416028
0.0026296096
0.0026171852
0.0026038523
0.0025899745
0.0025748699
0.0025588413
0.0025413981
0.0025232414
0.0025036943
0.0024837709
0.0024614285
0.0024379252
0.0024129284
0.0023845404
0.0023577612
0.0023275358
0.0022937437
0.0022656448
0.0022309904
0.0021917483
0.0021595961
0.0021239942
0.0020814873
0.0020404386
0.0019930957
0.0019386031
3.6354081e-05
0.0001121172
0.00019434256
0.00028343696
0.00037905112
0.00047911301
0.00057879721
0.0006722438
0.00075587162
0.00082920812
0.00089352053
0.00095045679
0.0010014658
0.0010477163
0.0010902571
0.0011299159
0.0011671308
0.0012022192
0.0012355021
0.0012672401
0.0012976558
0.001326929
0.0013552052
0.0013826112
0.0014092533
0.0014352219
0.0014605957
0.0014854417
0.0015098202
0.0015337835
0.0015573788
0.0015806484
0.0016036316
0.0016263685
0.0016489062
0.001671299
0.0016936133
0.0017159372
0.0017383881
0.0017611273
0.0017843813
0.0018084779
0.0018339083
0.0018614649
0.0018925572
0.0019300588
0.0019808678
0.0020671289
0.0022529439
0.0025147926
0.0026860931
0.0027590452
0.002782383
0.0027885224
0.0027900188
0.0027902015
0.0027897578
0.0027889025
0.002787865
0.0027869642
0.0027865177
0.0027865232
0.0027867171
0.0027871605
0.0027879138
0.0027879928
0.0027863961
0.0027836696
0.0027809073
0.0027790096
0.0027779644
0.0027768589
0.0027749512
0.0027731138
0.0027718802
0.0027711366
0.0027698491
0.0027678659
0.0027654465
0.0027639264
0.0027629661
0.0027611628
0.0027579023
0.0027549328
0.0027520108
0.002748182
0.0027427149
0.0027368515
0.0027310086
0.0027255768
0.0027197058
0.0027136441
0.0027068623
0.0026997876
0.0026919148
0.002683622
0.0026744017
0.0026647115
0.002654065
0.0026429865
0.0026309915
0.0026185675
0.0026052211
0.0025913397
0.0025762291
0.0025602078
0.0025427634
0.0025246176
0.0025050872
0.0024852386
0.0024629941
0.0024395875
0.0024146825
0.0023863094
0.0023594538
0.0023292225
0.0022953704
0.0022670809
0.0022324364
0.002193222
0.0021607145
0.0021250524
0.0020828128
0.0020418679
0.0019943835
0.0019397167
0.0018887428
3.63637e-05
0.00011216517
0.0001944444
0.00028359544
0.00037927029
0.00047938658
0.00057910368
0.00067255324
0.00075616457
0.00082947902
0.00089377089
0.0009506892
0.0010016838
0.0010479255
0.0010903316
0.0011296096
0.0011663115
0.0012010655
0.0012342376
0.0012659113
0.0012962686
0.0013254883
0.0013537165
0.0013810809
0.0014076863
0.0014336226
0.0014589693
0.0014837934
0.0015081545
0.0015321054
0.0015556924
0.001578958