/*--------------------------------*- C++ -*----------------------------------*\
| =========                 |                                                 |
| \\      /  F ield         | OpenFOAM: The Open Source CFD Toolbox           |
|  \\    /   O peration     | Version:  2506                                  |
|   \\  /    A nd           | Website:  www.openfoam.com                      |
|    \\/     M anipulation  |                                                 |
\*---------------------------------------------------------------------------*/
FoamFile
{
    version     2.0;
    format      ascii;
    arch        "LSB;label=32;scalar=64";
    class       volScalarField;
    location    "1.2";
    object      rho;
}
// * * * * * * * * * * * * * * * * * * * * * * * * * * * * * * * * * * * * * //

dimensions      [1 -3 0 0 0 0 0];

internalField   nonuniform List<scalar> 
1376
(
0.66540856
0.66541748
0.66542873
0.66543808
0.66544723
0.66545596
0.66546333
0.66546917
0.6654763
0.66548749
0.66549785
0.66528778
0.66531064
0.66533023
0.66534913
0.66536688
0.66538205
0.66539446
0.66540806
0.66542479
0.66544471
0.66523345
0.66524803
0.66526407
0.66528233
0.66530043
0.66531636
0.66532965
0.66534484
0.66536269
0.66538274
0.66536148
0.6653492
0.66534352
0.66534448
0.66534763
0.66535017
0.66535151
0.66535595
0.66536528
0.66537148
0.66554195
0.66551468
0.66549498
0.66548274
0.66547163
0.6654599
0.66544776
0.66543932
0.6654367
0.66542363
0.66567442
0.66564621
0.66562414
0.66560803
0.66559258
0.66557548
0.66555804
0.66554227
0.6655325
0.66550939
0.6657511
0.66572674
0.66570767
0.66569331
0.6656785
0.66566218
0.66564504
0.66562934
0.66561824
0.66559313
0.6657914
0.66577093
0.66575508
0.66574341
0.66573108
0.66571701
0.66570264
0.66568981
0.66568048
0.66565891
0.66581031
0.66579305
0.66577932
0.66576965
0.66576005
0.66574844
0.66573651
0.66572673
0.66572014
0.66570401
0.66581743
0.66580235
0.66579021
0.66578178
0.66577366
0.66576392
0.66575476
0.66574684
0.66574315
0.66573148
0.66581816
0.66580464
0.66579357
0.66578579
0.66577841
0.66577009
0.66576245
0.66575614
0.66575468
0.66574634
0.66582887
0.66581571
0.66580328
0.66579292
0.66578543
0.66577841
0.66577078
0.66576448
0.66575912
0.66575864
0.66575347
0.66582449
0.66581204
0.66580028
0.66579037
0.66578298
0.66577608
0.66576879
0.66576363
0.66575919
0.66575888
0.66575594
0.6658202
0.66580833
0.66579697
0.66578728
0.66577986
0.66577293
0.66576581
0.66576133
0.66575812
0.66575753
0.66575609
0.66581656
0.6658053
0.66579413
0.66578449
0.66577694
0.66576993
0.66576285
0.66575877
0.66575627
0.66575609
0.66575541
0.665814
0.66580318
0.66579196
0.66578232
0.66577478
0.66576774
0.66576058
0.66575667
0.66575463
0.66575488
0.66575457
0.66581272
0.66580198
0.6657904
0.66578084
0.66577363
0.6657667
0.66575939
0.66575529
0.66575361
0.66575426
0.665754
0.66581256
0.66580163
0.66578952
0.66578009
0.66577348
0.66576678
0.66575936
0.66575497
0.66575354
0.66575418
0.66575384
0.66581299
0.66580163
0.66578945
0.66578035
0.66577433
0.66576779
0.66576033
0.66575572
0.66575436
0.66575471
0.66575422
0.66581326
0.66580151
0.66578997
0.66578149
0.66577595
0.6657693
0.66576189
0.66575729
0.66575574
0.66575574
0.66575507
0.66581219
0.66580128
0.66579113
0.66578314
0.66577765
0.66577058
0.66576335
0.6657591
0.66575731
0.66575686
0.66575614
0.66580936
0.66579993
0.6657915
0.66578435
0.66577894
0.66577145
0.66576426
0.66576023
0.6657583
0.66575768
0.6657573
0.665805
0.66579772
0.6657913
0.66578512
0.66577945
0.66577164
0.66576459
0.66576064
0.66575858
0.66575808
0.66575815
0.66580091
0.66579577
0.66579028
0.66578457
0.66577877
0.66577116
0.66576462
0.66576063
0.66575844
0.66575807
0.66575841
0.66579653
0.66579299
0.66578833
0.66578375
0.66577804
0.66577065
0.66576468
0.66576042
0.66575806
0.66575776
0.66575813
0.66579832
0.66579259
0.66579077
0.66578645
0.66578229
0.66577662
0.66576983
0.66576459
0.66576013
0.66575767
0.66575749
0.66575791
0.66579161
0.66578987
0.66578803
0.66578353
0.66578024
0.66577515
0.66576956
0.66576443
0.66575956
0.66575744
0.66575747
0.66575757
0.66578882
0.66578904
0.66578472
0.66578072
0.66577797
0.66577288
0.66576844
0.66576397
0.66575934
0.66575805
0.66575788
0.66575747
0.66578888
0.66578561
0.66578068
0.66577932
0.66577612
0.66577141
0.66576717
0.66576251
0.66575894
0.66575908
0.66575843
0.66575776
0.6657842
0.66577977
0.66577853
0.66577806
0.66577302
0.66576988
0.66576669
0.66576166
0.66575958
0.66576063
0.66575887
0.66575841
0.66577875
0.66577736
0.66577801
0.66577338
0.66576906
0.66576865
0.66576538
0.6657612
0.6657619
0.66576258
0.66575893
0.66576044
0.66577535
0.66577536
0.66577393
0.66577184
0.66576868
0.66576874
0.66576715
0.66576315
0.66576398
0.66576486
0.66576279
0.66576139
0.66576457
0.66577171
0.66577126
0.66576957
0.66576699
0.6657677
0.66576668
0.66576419
0.66576527
0.66576688
0.66576453
0.66576427
0.66576739
0.66576626
0.66576816
0.66576623
0.66576526
0.66576483
0.6657647
0.66576384
0.66576611
0.66576773
0.66576545
0.66576736
0.66576879
0.66576792
0.66576742
0.66576408
0.66576247
0.66576266
0.66576161
0.66576272
0.66576392
0.66576509
0.66576677
0.66576595
0.66576739
0.66577094
0.66576862
0.66576653
0.66577208
0.66576132
0.66575773
0.66575853
0.66576029
0.66576163
0.6657635
0.66576617
0.66576654
0.66576803
0.66576925
0.66576935
0.66577086
0.66576978
0.66577414
0.66575704
0.6657593
0.66575808
0.66575899
0.66576116
0.66576337
0.66576488
0.66576637
0.66576915
0.66576862
0.66576635
0.66577105
0.66577415
0.6657756
0.66575441
0.66575365
0.66575742
0.66576023
0.66576116
0.66576117
0.66576225
0.66576341
0.66576524
0.66576697
0.6657687
0.66576949
0.66577111
0.66577596
0.66577696
0.66575356
0.66575534
0.66575727
0.66575837
0.66575912
0.66575953
0.66576015
0.66576163
0.66576323
0.66576646
0.66576939
0.66577153
0.6657734
0.66577641
0.66577757
0.66575732
0.66575419
0.66575463
0.66575819
0.66575858
0.66575821
0.66575958
0.66576137
0.6657624
0.66576398
0.66576744
0.66577119
0.66577477
0.66577602
0.66577849
0.66577953
0.66575265
0.66575652
0.66575634
0.66575586
0.66575686
0.6657577
0.66575863
0.66575985
0.66576283
0.66576528
0.66576671
0.66576954
0.66577329
0.66577603
0.66577611
0.66577859
0.66578146
0.66576107
0.66576156
0.66576185
0.66576203
0.66576236
0.66576336
0.66576464
0.66576507
0.66576649
0.66576928
0.66577123
0.66577243
0.66577436
0.66577581
0.66577753
0.66577896
0.66578172
0.66576579
0.66576581
0.66576563
0.66576567
0.66576549
0.66576482
0.66576444
0.665765
0.66576621
0.66576741
0.66576836
0.66576951
0.66577106
0.66577276
0.66577462
0.66577677
0.6657789
0.66578218
0.66577492
0.66577434
0.66577368
0.6657731
0.66577257
0.66577183
0.6657711
0.66577051
0.66577025
0.66577012
0.66577024
0.66577142
0.66577286
0.66577426
0.66577643
0.66577872
0.66578083
0.66578422
0.66578755
0.6657774
0.66577619
0.66577502
0.66577372
0.66577256
0.66577154
0.66577071
0.66576999
0.66576922
0.66576886
0.66576889
0.66576922
0.66577025
0.66577203
0.66577386
0.66577658
0.66577978
0.66578263
0.66578534
0.66578899
0.6657864
0.66578527
0.66578437
0.66578344
0.66578256
0.66578181
0.66578103
0.66578033
0.66577975
0.66577926
0.6657788
0.66577858
0.66577897
0.66577974
0.66578093
0.66578262
0.66578404
0.66578542
0.66578681
0.6657874
0.66578766
0.66578876
0.66577512
0.66577516
0.66577461
0.66577507
0.66577598
0.6657764
0.66577656
0.66577633
0.66577563
0.66577431
0.66577279
0.66577174
0.66577121
0.66577113
0.66577145
0.66577194
0.66577258
0.66577379
0.66577517
0.66577709
0.66577871
0.66577982
0.66577952
0.66579524
0.66579821
0.66580154
0.66580364
0.66580414
0.6658035
0.66580161
0.66579918
0.66579646
0.66579401
0.66579216
0.6657918
0.6657939
0.6657988
0.66580338
0.66580333
0.66580143
0.66579914
0.66579514
0.6657917
0.66578861
0.66578702
0.66578556
0.66578215
0.66578107
0.66579064
0.66578993
0.66579259
0.66579631
0.66580161
0.66580703
0.66580948
0.66581014
0.66581003
0.66580942
0.66580786
0.66580581
0.66580365
0.66580309
0.66580477
0.66580743
0.66581005
0.66581224
0.66581332
0.66581479
0.66581605
0.66581594
0.66581611
0.66581677
0.66581832
0.66581825
0.66581886
0.66551882
0.66546763
0.66540919
0.66539738
0.66544689
0.6655279
0.66560651
0.66566786
0.66570966
0.66573513
0.66574902
0.66575552
0.66575755
0.6657575
0.66575657
0.66575566
0.6657551
0.66575513
0.6657558
0.66575694
0.66575834
0.66575977
0.66576074
0.66576112
0.66576127
0.66576122
0.66576063
0.66576022
0.6657607
0.66576214
0.66576403
0.66576539
0.66576679
0.66577063
0.66577442
0.66577551
0.6657779
0.66577972
0.6657805
0.66578165
0.66578239
0.66578309
0.66578555
0.66579107
0.66579287
0.66579034
0.66577867
0.66578141
0.66582085
0.66553419
0.66548383
0.66542867
0.66541808
0.66546695
0.66554404
0.66561828
0.66567605
0.66571553
0.66573997
0.66575349
0.6657596
0.66576151
0.66576147
0.66576046
0.66575957
0.66575909
0.6657593
0.66576033
0.66576194
0.6657638
0.66576548
0.66576648
0.66576666
0.66576623
0.66576579
0.66576565
0.66576566
0.66576594
0.66576684
0.66576815
0.66576902
0.66577
0.66577245
0.6657761
0.66577729
0.66577946
0.66578264
0.66578428
0.66578486
0.66578394
0.66578456
0.66578875
0.66579493
0.6657954
0.66579207
0.66577853
0.66578136
0.66582183
0.66554705
0.66549691
0.66544553
0.66543792
0.66548742
0.66556136
0.66563151
0.6656858
0.66572289
0.66574582
0.66575845
0.66576419
0.66576619
0.66576644
0.66576567
0.66576516
0.66576508
0.66576567
0.66576705
0.66576888
0.66577079
0.66577232
0.66577322
0.66577352
0.66577332
0.6657728
0.66577251
0.66577261
0.66577273
0.66577259
0.66577248
0.66577349
0.66577537
0.66577553
0.66577693
0.66578002
0.66578191
0.66578415
0.66578516
0.66578638
0.66578623
0.66578791
0.66579273
0.66579842
0.66579786
0.66579414
0.66577889
0.66578225
0.66582166
0.66555747
0.66550694
0.66545941
0.66545556
0.66550639
0.66557793
0.66564451
0.66569562
0.66573039
0.66575183
0.66576362
0.66576914
0.66577108
0.66577144
0.6657711
0.66577104
0.66577132
0.66577213
0.66577367
0.66577566
0.66577767
0.66577923
0.6657802
0.66578049
0.66578037
0.66578017
0.66578003
0.66577975
0.66577939
0.66577896
0.66577806
0.66577726
0.66577801
0.66577904
0.66577946
0.66578185
0.66578367
0.66578517
0.66578678
0.66578831
0.66578879
0.66579194
0.66579666
0.66580103
0.6658
0.66579644
0.66578062
0.66578246
0.66582176
0.66556662
0.66551548
0.66547113
0.6654706
0.66552272
0.66559224
0.66565564
0.66570378
0.66573647
0.66575695
0.66576853
0.66577439
0.66577675
0.66577731
0.66577705
0.66577721
0.66577775
0.6657788
0.66578028
0.66578208
0.66578381
0.66578521
0.6657862
0.66578666
0.66578647
0.66578613
0.66578586
0.66578532
0.66578465
0.66578382
0.66578268
0.66578146
0.66578125
0.66578103
0.66578088
0.66578257
0.66578432
0.66578634
0.66578829
0.66579058
0.66579212
0.66579599
0.66580029
0.66580321
0.66580146
0.66579871
0.66578338
0.66578568
0.66582329
0.66557861
0.66552703
0.66548462
0.66548677
0.66553978
0.66560783
0.66566888
0.66571488
0.66574583
0.66576428
0.66577356
0.66577808
0.66578038
0.66578142
0.66578187
0.66578227
0.66578296
0.66578442
0.66578631
0.66578831
0.66579017
0.66579153
0.66579228
0.66579242
0.66579194
0.66579132
0.66579069
0.66578974
0.66578862
0.66578721
0.66578537
0.66578391
0.66578197
0.66578036
0.66578151
0.66578323
0.66578475
0.66578732
0.66578981
0.66579306
0.66579596
0.66580086
0.66580289
0.66580419
0.66580336
0.66580118
0.66578581
0.66578876
0.66582652
0.66559032
0.66553865
0.66549721
0.66550101
0.66555421
0.66562081
0.66567974
0.66572371
0.6657527
0.66577004
0.66577985
0.6657845
0.6657861
0.66578658
0.66578698
0.66578762
0.66578846
0.66578982
0.66579157
0.66579335
0.66579484
0.6657958
0.66579623
0.66579618
0.66579572
0.66579493
0.66579391
0.66579263
0.66579101
0.66578876
0.66578583
0.66578318
0.66578128
0.66578159
0.66578348
0.66578509
0.6657864
0.6657886
0.66579152
0.6657959
0.66579939
0.66580327
0.66580349
0.66580485
0.66580579
0.66580426
0.66578803
0.66578829
0.66582999
0.66560177
0.66555006
0.66550882
0.66551346
0.66556621
0.66563118
0.66568814
0.66573027
0.66575794
0.66577447
0.66578329
0.66578744
0.66578914
0.6657899
0.66579047
0.6657912
0.66579232
0.66579389
0.66579561
0.66579712
0.66579822
0.66579881
0.66579891
0.66579848
0.66579763
0.66579649
0.66579506
0.66579333
0.66579137
0.6657896
0.66578769
0.66578612
0.66578542
0.66578539
0.6657855
0.66578597
0.66578729
0.66578976
0.66579335
0.6657982
0.66580166
0.66580394
0.66580385
0.66580508
0.66580758
0.6658075
0.66579121
0.66578896
0.6658324
0.66560997
0.66555895
0.66551887
0.66552457
0.66557654
0.66563959
0.66569444
0.66573447
0.665761
0.66577685
0.66578532
0.66578933
0.66579104
0.66579177
0.66579225
0.66579302
0.66579437
0.66579621
0.66579815
0.66579985
0.66580102
0.66580146
0.66580134
0.66580098
0.66580013
0.66579892
0.66579761
0.66579604
0.66579412
0.66579237
0.66579069
0.66578855
0.6657873
0.66578632
0.6657854
0.66578583
0.66578799
0.66579152
0.66579585
0.66580003
0.66580274
0.66580464
0.66580363
0.66580477
0.6658083
0.66580991
0.66579564
0.66579201
0.66583302
0.66561562
0.6655654
0.6655279
0.66553572
0.66558716
0.66564826
0.66570075
0.6657394
0.6657647
0.66577961
0.6657875
0.66579126
0.66579306
0.66579403
0.66579465
0.66579539
0.66579675
0.6657986
0.66580051
0.6658023
0.66580349
0.66580384
0.66580374
0.66580333
0.6658026
0.66580121
0.66579927
0.66579738
0.66579542
0.66579337
0.66579197
0.66578957
0.6657869
0.66578628
0.66578618
0.66578756
0.66578981
0.66579349
0.66579764
0.66580147
0.66580372
0.66580456
0.66580322
0.6658044
0.66580802
0.66580981
0.66580062
0.66579757
0.66583174
0.66561899
0.66556881
0.66553355
0.66554437
0.66559557
0.66565501
0.6657056
0.66574294
0.66576763
0.66578249
0.66579045
0.66579428
0.66579582
0.66579612
0.66579624
0.66579659
0.66579748
0.66579889
0.66580062
0.66580225
0.66580345
0.66580439
0.66580472
0.66580373
0.66580212
0.66580074
0.66579941
0.66579781
0.66579587
0.66579356
0.6657923
0.66579169
0.66579021
0.66578887
0.66578855
0.66578902
0.66579084
0.665794
0.66579779
0.6658018
0.66580399
0.66580384
0.66580309
0.66580441
0.66580617
0.66580824
0.66580331
0.66580469
0.66583024
0.66562087
0.66557012
0.6655373
0.66555095
0.66560164
0.6656591
0.66570801
0.66574365
0.66576687
0.66578037
0.66578754
0.66579086
0.66579235
0.66579332
0.66579396
0.66579485
0.6657963
0.66579816
0.66580018
0.66580193
0.66580342
0.66580445
0.66580435
0.66580378
0.6658031
0.66580167
0.66579987
0.66579816
0.66579664
0.66579485
0.66579229
0.6657913
0.66579157
0.66579041
0.66578918
0.66578893
0.66579063
0.66579353
0.66579684
0.66580007
0.66580223
0.66580318
0.66580311
0.66580367
0.66580387
0.66580536
0.66580255
0.66581041
0.66582988
0.66574365
0.66576544
0.66577855
0.66578565
0.66578909
0.66579076
0.66579178
0.66579273
0.66579374
0.66579491
0.66579641
0.66579783
0.66579919
0.66580037
0.6658006
0.66580065
0.66580051
0.66580009
0.66579979
0.66579927
0.66579819
0.66579673
0.66579537
0.66579364
0.66579164
0.66579012
0.66578916
0.66578857
0.66578794
0.66578879
0.66579113
0.66579447
0.66579745
0.66580032
0.66580263
0.66580338
0.66580458
0.66580212
0.66580102
0.66579809
0.66581162
0.66583029
0.6657947
0.66579493
0.66579513
0.66579548
0.66579581
0.66579566
0.66579523
0.66579487
0.6657942
0.6657934
0.66579264
0.66579208
0.66579103
0.66578955
0.66578807
0.66578673
0.66578593
0.66578617
0.66578828
0.6657914
0.6657952
0.66579878
0.66580149
0.66580343
0.66580434
0.66580088
0.66579729
0.66579128
0.66580852
0.66583111
0.66578958
0.66578899
0.66578825
0.66578744
0.66578697
0.66578653
0.66578521
0.66578395
0.66578355
0.66578378
0.66578557
0.66578846
0.66579264
0.66579628
0.66579968
0.66580236
0.665803
0.6657995
0.66579364
0.66578466
0.66580284
0.6658312
0.66578092
0.66578072
0.66578128
0.66578282
0.66578522
0.66578918
0.66579332
0.66579759
0.6657998
0.66580089
0.66579711
0.66578939
0.66577954
0.66579714
0.66582966
0.66578193
0.66578575
0.66579016
0.66579423
0.66579649
0.66579853
0.66579344
0.66578526
0.66577564
0.66579271
0.66582696
0.66579255
0.66579459
0.66578947
0.66578158
0.6657718
0.66578896
0.66582399
0.66578579
0.66577766
0.66576787
0.66578538
0.66582099
0.66576467
0.66578144
0.66581827
0.66581399
)
;

boundaryField
{
    Side
    {
        type            empty;
    }
    Inlet
    {
        type            calculated;
        value           nonuniform List<scalar> 
48
(
0.66577927
0.665778
0.6657772
0.66577685
0.66577716
0.66577765
0.66577788
0.66577779
0.66577768
0.66577748
0.66577714
0.66577661
0.66577593
0.66577523
0.66577446
0.66577363
0.66577336
0.66577325
0.66577325
0.66577324
0.66577304
0.66577269
0.66577283
0.66577331
0.6657733
0.66577276
0.6657728
0.66577317
0.66577302
0.66577256
0.66577208
0.66577193
0.66577169
0.66577105
0.66577042
0.66577019
0.66577038
0.66577075
0.6657709
0.66577086
0.66577085
0.66577089
0.66577078
0.6657707
0.66577063
0.66577065
0.66577076
0.66577131
)
;
    }
    Airfoil
    {
        type            calculated;
        value           nonuniform List<scalar> 0();
    }
    Outlet
    {
        type            calculated;
        value           nonuniform List<scalar> 0();
    }
    procBoundary10to2
    {
        type            processor;
        value           uniform 0.66540067;
    }
    procBoundary10to3
    {
        type            processor;
        value           nonuniform List<scalar> 
23
(
0.66549685
0.66548912
0.6654789
0.66547095
0.66546313
0.66545417
0.66544392
0.66543274
0.66542096
0.66542096
0.66527478
0.66551487
0.66552905
0.66554239
0.6655542
0.66556451
0.66557663
0.66558761
0.66559696
0.66560486
0.66561098
0.66561517
0.66561883
)
;
    }
    procBoundary10to9
    {
        type            processor;
        value           nonuniform List<scalar> 
66
(
0.66540833
0.66526456
0.66522246
0.66537909
0.665573
0.66570476
0.6657773
0.66581306
0.66582887
0.66583343
0.66583242
0.66583242
0.66584198
0.66583717
0.66583245
0.66582831
0.6658252
0.66582316
0.66582151
0.66582052
0.66582039
0.66582046
0.66582041
0.66581772
0.66581186
0.66580482
0.66580482
0.66581271
0.66580427
0.66579471
0.66578868
0.66578658
0.66578156
0.66578156
0.66577518
0.66577149
0.66576825
0.66576825
0.66576261
0.66575883
0.6657551
0.6657551
0.66575594
0.66575308
0.66575308
0.66575522
0.66575522
0.66575386
0.66575933
0.66575933
0.66576623
0.66576623
0.66577568
0.66577568
0.66577957
0.66577862
0.66577862
0.66578832
0.66578832
0.66577707
0.66577555
0.66577555
0.66579254
0.66579362
0.66579362
0.66579326
)
;
    }
    procBoundary10to11
    {
        type            processor;
        value           nonuniform List<scalar> 
58
(
0.66562332
0.66557212
0.66554148
0.66555699
0.66560731
0.66566312
0.66571
0.66571
0.6657449
0.66576571
0.66577776
0.66578411
0.66578714
0.66578845
0.66578892
0.66578905
0.66578957
0.66579071
0.66579212
0.66579366
0.66579366
0.66578972
0.66579021
0.66579043
0.66579053
0.66579061
0.66579069
0.66579057
0.66579008
0.66579008
0.66578459
0.66578411
0.66578347
0.66578276
0.6657819
0.66578138
0.66578123
0.66578123
0.66577687
0.66577727
0.66577836
0.66577992
0.66577992
0.66577848
0.66578203
0.66578631
0.66578987
0.66578987
0.66578733
0.66578945
0.66578945
0.66578198
0.66577397
0.66577397
0.66576266
0.66577808
0.66577808
0.66581042
)
;
    }
}


// ************************************************************************* //
