/*--------------------------------*- C++ -*----------------------------------*\
| =========                 |                                                 |
| \\      /  F ield         | OpenFOAM: The Open Source CFD Toolbox           |
|  \\    /   O peration     | Version:  2506                                  |
|   \\  /    A nd           | Website:  www.openfoam.com                      |
|    \\/     M anipulation  |                                                 |
\*---------------------------------------------------------------------------*/
FoamFile
{
    version     2.0;
    format      ascii;
    arch        "LSB;label=32;scalar=64";
    class       volScalarField;
    location    "1.45";
    object      alphat;
}
// * * * * * * * * * * * * * * * * * * * * * * * * * * * * * * * * * * * * * //

dimensions      [1 -1 -1 0 0 0 0];

internalField   nonuniform List<scalar> 
1376
(
0.063998545
0.081215321
0.095707109
0.10623553
0.049411966
0.064391755
0.081757669
0.096282386
0.10673427
0.11332749
0.11694981
0.11866653
0.11934882
0.11940764
0.1193429
0.049581444
0.06470643
0.082187399
0.096722821
0.10709664
0.11356681
0.11706597
0.11869417
0.11930865
0.11933926
0.11926536
0.1192005
0.11907889
0.11899935
0.11898154
0.11897262
0.049720674
0.064999388
0.082564943
0.097083301
0.10736781
0.11372172
0.11711686
0.11867537
0.11924245
0.11925913
0.11918242
0.11911947
0.11899232
0.11892375
0.11890823
0.11890073
0.11890217
0.11890997
0.11892197
0.118937
0.049872114
0.065328603
0.082956584
0.097429479
0.10760559
0.11383776
0.11713409
0.11863087
0.11916199
0.11917209
0.11909708
0.11903647
0.1189063
0.11884876
0.11883491
0.11882865
0.11883108
0.11883948
0.1188518
0.11886693
0.11888427
0.11890348
0.1189244
0.11894692
0.11897103
0.050071121
0.065733029
0.083411309
0.097815079
0.10786056
0.11395632
0.11714752
0.1185816
0.11907834
0.11908377
0.11901216
0.11895296
0.11882167
0.11877457
0.1187618
0.11875653
0.11875971
0.11876853
0.11878105
0.11879624
0.11881355
0.1188327
0.11885346
0.1188758
0.11889974
0.11892529
0.11895249
0.11898148
0.11901249
0.050332308
0.066214878
0.083939635
0.09825987
0.10815653
0.11409958
0.11717451
0.11854045
0.11899786
0.11899752
0.11892944
0.1188691
0.11873947
0.11870172
0.11868981
0.11868543
0.11868915
0.11869809
0.11871045
0.11872532
0.1187423
0.11876116
0.11878177
0.11880402
0.11882781
0.1188532
0.11888014
0.11890877
0.11893942
0.11897241
0.11900779
0.11904584
0.11908669
0.050647191
0.06674533
0.084517985
0.098750845
0.10848966
0.11426899
0.11721843
0.11851069
0.11892228
0.11891409
0.11884858
0.11878418
0.11865882
0.11862903
0.11861793
0.11861454
0.11861892
0.11862821
0.11864071
0.11865556
0.11867228
0.11869064
0.11871056
0.11873209
0.11875527
0.1187801
0.11880683
0.11883554
0.11886627
0.11889914
0.1189344
0.11897211
0.11901258
0.119056
0.11910254
0.11915211
0.050995106
0.067287376
0.085110327
0.099259531
0.10884078
0.11445347
0.11727368
0.1184894
0.11885109
0.11883354
0.11876946
0.11869856
0.11857976
0.11855632
0.11854584
0.11854323
0.11854802
0.11855747
0.11857006
0.11858498
0.11860178
0.11862027
0.11864037
0.11866194
0.11868483
0.11870918
0.11873505
0.11876246
0.11879181
0.11882359
0.11885805
0.1188957
0.11893659
0.11898049
0.11902735
0.11907719
0.11912988
0.11918576
0.1192455
0.051352469
0.06780825
0.085681722
0.099754235
0.1091849
0.1146359
0.11732975
0.11847012
0.11878225
0.11875528
0.11869203
0.11861332
0.11850316
0.11848453
0.1184744
0.11847222
0.11847707
0.11848639
0.11849885
0.11851368
0.11853049
0.11854922
0.11856965
0.1185912
0.11861365
0.11863737
0.11866247
0.11868931
0.11871839
0.11874972
0.11878365
0.11882018
0.11885938
0.11890209
0.1189483
0.11899841
0.11905212
0.11910912
0.11916993
0.11923594
0.11931024
0.11939841
0.051695819
0.068279904
0.086201839
0.10020599
0.10949771
0.11479843
0.11737478
0.11844495
0.11871205
0.11867689
0.1186144
0.11852784
0.11842806
0.11841322
0.11840386
0.11840259
0.11840799
0.11841758
0.11843006
0.11844465
0.1184609
0.11847856
0.11849739
0.11851739
0.11853953
0.1185642
0.11859016
0.11861728
0.1186458
0.1186765
0.1187097
0.11874552
0.11878419
0.11882624
0.11887162
0.11892038
0.1189731
0.11902979
0.11909103
0.11915839
0.1192348
0.11932492
0.11943393
0.11956021
0.11967945
0.052009475
0.0686906
0.086658973
0.10060301
0.10976849
0.11493259
0.11740285
0.11840995
0.11863876
0.11859721
0.11853554
0.11844186
0.11835331
0.1183412
0.11833267
0.11833232
0.1183383
0.11834825
0.11836094
0.11837569
0.11839204
0.11840976
0.11842884
0.11844914
0.11847029
0.11849223
0.11851594
0.11854199
0.11857014
0.11860076
0.11863428
0.11867116
0.11870999
0.11875137
0.11879623
0.11884415
0.11889583
0.11895191
0.11901287
0.11908022
0.11915705
0.11924835
0.11935871
0.11948503
0.11959773
0.11957407
0.11873617
0.052290683
0.069053595
0.087066992
0.10095581
0.11000378
0.11504195
0.11741586
0.11836654
0.11856348
0.11851723
0.11845658
0.11835686
0.11827965
0.11826927
0.11826144
0.1182618
0.11826815
0.11827833
0.11829116
0.11830597
0.11832229
0.11833976
0.11835834
0.11837824
0.11839937
0.11842174
0.11844566
0.11847136
0.11849913
0.11852875
0.11855994
0.11859354
0.11863116
0.11867276
0.11871755
0.11876558
0.11881727
0.11887325
0.11893435
0.1190022
0.11908004
0.11917238
0.11928318
0.1194081
0.11951399
0.11946293
0.11849981
0.11224114
0.10130861
0.052543821
0.069394965
0.087452688
0.1012855
0.11021775
0.11513481
0.11741817
0.11831728
0.11848722
0.11843765
0.11837849
0.11827425
0.11820835
0.11819926
0.11819216
0.11819296
0.1181992
0.11820895
0.11822121
0.11823545
0.11825143
0.11826888
0.11828754
0.11830742
0.11832861
0.118351
0.11837478
0.11840012
0.1184273
0.1184563
0.11848752
0.11852102
0.11855699
0.1185958
0.11863799
0.11868441
0.11873533
0.11879114
0.11885263
0.1189217
0.11900155
0.11909615
0.11920805
0.1193311
0.11942873
0.1193466
0.11824211
0.11150111
0.10017611
0.052773412
0.069736518
0.087839328
0.10161102
0.11042346
0.11521889
0.11741379
0.11826386
0.11840941
0.11835708
0.1182995
0.11819201
0.11813693
0.1181291
0.11812322
0.11812499
0.11813179
0.1181418
0.11815402
0.11816787
0.11818303
0.11819934
0.11821678
0.11823554
0.11825593
0.11827797
0.11830165
0.11832716
0.11835435
0.11838322
0.11841421
0.11844735
0.11848268
0.11852046
0.11856145
0.11860641
0.11865555
0.11870967
0.11877017
0.11883946
0.11892063
0.11901731
0.11913105
0.11925343
0.1193424
0.11922468
0.11795242
0.11061781
0.09950529
0.052987541
0.070099647
0.088248876
0.10195074
0.11063444
0.11530311
0.11740819
0.11820993
0.11833173
0.11827649
0.11822032
0.11811036
0.11806503
0.11805807
0.1180533
0.11805592
0.11806322
0.11807351
0.11808592
0.11809995
0.11811534
0.11813182
0.11814922
0.11816756
0.11818699
0.11820772
0.11822985
0.11825377
0.11827954
0.11830738
0.11833747
0.11836992
0.11840512
0.11844326
0.1184845
0.11852908
0.11857723
0.11863004
0.11868951
0.11875835
0.11884015
0.11893845
0.11905384
0.1191751
0.11925467
0.11909747
0.11763085
0.10976665
0.099945155
0.053204745
0.0705109
0.088703786
0.10232138
0.1108621
0.11539476
0.11740596
0.11815885
0.11825655
0.11819816
0.11814335
0.11803154
0.1179949
0.11798825
0.11798405
0.11798688
0.11799404
0.11800414
0.11801651
0.11803077
0.11804657
0.11806344
0.11808107
0.11809928
0.11811814
0.1181381
0.1181595
0.11818246
0.11820726
0.1182342
0.11826324
0.1182945
0.11832834
0.11836513
0.1184052
0.11844876
0.11849633
0.11854903
0.11860878
0.11867828
0.1187611
0.11886053
0.11897593
0.11909431
0.11916281
0.11896055
0.11728228
0.10896111
0.10020613
0.053450615
0.070983525
0.089210994
0.10272613
0.11110724
0.11549341
0.11740604
0.11810912
0.11818224
0.11812059
0.1180675
0.11795477
0.11792648
0.11792051
0.11791737
0.1179209
0.11792827
0.11793802
0.11794936
0.11796197
0.11797604
0.11799188
0.11800937
0.11802807
0.11804752
0.11806771
0.11808915
0.11811186
0.1181362
0.11816236
0.11819042
0.11822072
0.11825352
0.1182891
0.11832788
0.11837019
0.1184166
0.11846836
0.11852755
0.11859706
0.11868044
0.11878059
0.11889578
0.11901057
0.11906471
0.11880753
0.1168952
0.1080972
0.1001992
0.053744897
0.071503317
0.089753759
0.10315176
0.11136105
0.11559383
0.11740519
0.11805864
0.11810702
0.11804211
0.11799037
0.11787723
0.11785639
0.11785088
0.11784866
0.11785284
0.1178607
0.11787093
0.11788282
0.11789597
0.11791005
0.11792493
0.11794068
0.11795759
0.11797581
0.11799527
0.11801617
0.11803849
0.11806265
0.1180886
0.11811641
0.1181465
0.11817896
0.11821396
0.11825186
0.11829305
0.11833827
0.118389
0.11844726
0.11851601
0.11859916
0.11869932
0.11881417
0.11892471
0.11896212
0.11864238
0.11645955
0.10714086
0.10040185
0.054101312
0.072055909
0.090316561
0.10358681
0.11161686
0.11569287
0.1174033
0.11800767
0.11803208
0.11796457
0.11791292
0.11780049
0.11778596
0.11778063
0.1177791
0.1177837
0.11779178
0.1178021
0.11781392
0.11782686
0.11784077
0.11785563
0.11787147
0.11788823
0.11790601
0.11792493
0.11794505
0.1179665
0.11798967
0.11801461
0.11804153
0.11807074
0.11810231
0.11813652
0.11817363
0.11821383
0.11825808
0.11830783
0.11836523
0.11843361
0.11851697
0.1186177
0.11873184
0.1188367
0.11885457
0.11846185
0.11596909
0.10610485
0.10035526
0.054519519
0.072634015
0.090892141
0.10402584
0.11187143
0.11578892
0.11740246
0.11795585
0.11795907
0.11789005
0.11783729
0.11772715
0.11771788
0.11771237
0.11771102
0.11771539
0.11772298
0.11773275
0.11774408
0.1177566
0.1177702
0.11778487
0.11780059
0.11781728
0.11783497
0.1178537
0.11787343
0.11789447
0.11791705
0.11794136
0.11796773
0.11799626
0.11802698
0.11806022
0.1180962
0.11813529
0.11817843
0.11822706
0.11828365
0.11835179
0.1184351
0.1185355
0.11864701
0.1187436
0.11873711
0.11825472
0.11541066
0.10496818
0.10045135
0.054971114
0.073220399
0.091467843
0.10446006
0.11211882
0.1158786
0.11740009
0.11790058
0.11788581
0.11781595
0.11776115
0.11765508
0.11765043
0.11764511
0.11764444
0.1176491
0.11765665
0.11766612
0.11767693
0.11768877
0.11770158
0.11771546
0.11773047
0.11774665
0.11776404
0.11778258
0.11780211
0.11782303
0.11784536
0.11786922
0.11789496
0.11792258
0.11795225
0.11798429
0.1180191
0.11805731
0.11809968
0.11814765
0.11820397
0.11827202
0.11835547
0.1184555
0.11856438
0.11865216
0.11861592
0.11802882
0.11475029
0.10373947
0.10105218
0.055419167
0.073789125
0.092024063
0.10487684
0.11235213
0.11595909
0.11739431
0.11784123
0.11781154
0.11774097
0.11768323
0.11758233
0.1175811
0.11757589
0.11757579
0.11758074
0.11758842
0.1175979
0.11760869
0.11762049
0.11763319
0.11764683
0.11766151
0.11767728
0.1176942
0.1177123
0.1177314
0.11775186
0.11777384
0.11779743
0.11782278
0.11784977
0.11787867
0.11790959
0.11794286
0.11797929
0.11802
0.11806699
0.118123
0.11819127
0.11827532
0.11837488
0.11848114
0.11856038
0.11849092
0.11778222
0.11403672
0.10284636
0.10197693
0.055842809
0.074327395
0.092552284
0.10527138
0.11256981
0.116031
0.11738574
0.11778023
0.11773836
0.1176672
0.11760607
0.11751093
0.11751199
0.11750655
0.11750656
0.11751136
0.11751876
0.11752796
0.1175385
0.11755013
0.11756269
0.11757616
0.11759059
0.11760607
0.11762267
0.11764052
0.11765953
0.11767983
0.11770158
0.11772486
0.11774972
0.11777619
0.11780455
0.11783483
0.11786742
0.1179031
0.11794287
0.11798898
0.11804409
0.1181116
0.11819442
0.11829147
0.11839254
0.11845877
0.11835194
0.11749463
0.11322462
0.10178439
0.10262811
0.056231354
0.074832739
0.09305255
0.10564357
0.11277175
0.11609448
0.11737384
0.11771863
0.11766706
0.11759568
0.11753139
0.11744267
0.11744541
0.11743965
0.11743953
0.11744383
0.11745055
0.11745904
0.11746889
0.11747991
0.11749198
0.11750503
0.11751907
0.11753412
0.11755025
0.11756762
0.11758629
0.11760629
0.11762769
0.11765055
0.11767501
0.11770116
0.11772917
0.11775897
0.11779096
0.11782597
0.11786508
0.11791064
0.11796551
0.11803333
0.11811599
0.11821143
0.11830702
0.11835795
0.11820287
0.11717135
0.11233322
0.10039311
0.10304918
0.05657428
0.075298465
0.093520072
0.10598922
0.11295434
0.1161465
0.11735549
0.11765419
0.11759495
0.11752358
0.1174564
0.11737464
0.11737859
0.11737268
0.11737264
0.11737668
0.11738302
0.11739106
0.11740046
0.11741105
0.11742269
0.11743534
0.11744896
0.11746349
0.11747897
0.1174956
0.11751354
0.11753288
0.11755363
0.11757576
0.11759928
0.1176244
0.11765132
0.11768004
0.11771108
0.11774546
0.11778448
0.11783018
0.11788565
0.11795417
0.11803711
0.11813125
0.11822121
0.118256
0.11804314
0.11681264
0.11140659
0.099045038
0.10302329
0.056863195
0.075716179
0.093947582
0.10630279
0.1131142
0.11618498
0.11732926
0.11758663
0.11752148
0.11745013
0.11738038
0.11730561
0.11730995
0.11730381
0.11730372
0.11730741
0.1173133
0.11732085
0.11732981
0.11734007
0.11735146
0.1173639
0.11737735
0.11739161
0.11740665
0.11742277
0.11744019
0.11745898
0.11747923
0.11750098
0.11752412
0.11754876
0.11757494
0.11760285
0.11763303
0.11766646
0.11770489
0.11775008
0.11780533
0.11787343
0.11795566
0.11804732
0.11812986
0.11814375
0.11786254
0.11639002
0.11036249
0.097992557
0.1034103
0.057101663
0.076089631
0.094337123
0.10658551
0.11325264
0.11621125
0.11729651
0.117518
0.11744856
0.11737748
0.11730597
0.11723792
0.11724212
0.11723568
0.11723536
0.11723858
0.11724392
0.1172508
0.11725899
0.11726849
0.11727923
0.11729111
0.11730412
0.11731807
0.11733271
0.11734831
0.1173652
0.11738343
0.11740314
0.11742444
0.11744731
0.11747171
0.1174974
0.1175248
0.11755474
0.117588
0.1176266
0.11767247
0.11772854
0.11779724
0.11787893
0.11796667
0.11803897
0.11802513
0.11765458
0.11587945
0.10917428
0.097031188
0.10408436
0.057305608
0.076443649
0.094708278
0.10685019
0.11337682
0.11622889
0.11725903
0.11744891
0.11737663
0.11730631
0.11723399
0.11717269
0.11717663
0.11717002
0.11716959
0.11717241
0.11717718
0.11718337
0.11719063
0.11719893
0.1172084
0.11721914
0.11723116
0.11724436
0.1172584
0.11727321
0.11728923
0.11730663
0.11732551
0.11734602
0.11736812
0.11739188
0.11741704
0.11744385
0.11747345
0.11750671
0.11754567
0.11759267
0.11764993
0.11771974
0.1178013
0.11788535
0.11794626
0.11790277
0.11742019
0.11530893
0.10781455
0.09609604
0.10524787
0.05749803
0.07679271
0.095070133
0.10710266
0.11349008
0.11623946
0.11721752
0.11737856
0.1173042
0.11723483
0.11716215
0.11710739
0.11711083
0.11710403
0.11710348
0.11710595
0.11711024
0.11711587
0.11712254
0.11713013
0.1171387
0.11714846
0.11715945
0.11717158
0.1171849
0.11719915
0.11721429
0.11723085
0.11724891
0.11726836
0.11728944
0.11731206
0.1173363
0.11736248
0.1173914
0.11742418
0.11746279
0.11751036
0.11756863
0.11763965
0.11772061
0.11780003
0.1178468
0.11776555
0.11715047
0.11457626
0.10630424
0.095057578
0.10618808
0.057673272
0.077159713
0.095448475
0.10736195
0.113603
0.11624689
0.11717286
0.11730587
0.11722946
0.11716055
0.117088
0.11703932
0.11704187
0.11703484
0.11703387
0.11703572
0.11703941
0.11704442
0.11705039
0.11705714
0.11706502
0.11707414
0.11708441
0.11709593
0.11710851
0.11712213
0.11713677
0.11715264
0.11716999
0.11718852
0.11720855
0.11723011
0.11725327
0.11727873
0.11730717
0.1173399
0.11737886
0.11742724
0.11748675
0.11755849
0.11763711
0.11770889
0.11773675
0.11760139
0.11679549
0.11373592
0.10446516
0.094301897
0.10804738
0.057861803
0.077483869
0.095772605
0.10757984
0.11369395
0.11624837
0.11713059
0.11724083
0.11716299
0.11709483
0.11702244
0.11697841
0.11698002
0.11697267
0.11697128
0.1169725
0.11697557
0.11697989
0.11698505
0.1169912
0.11699836
0.11700664
0.11701616
0.11702694
0.11703901
0.11705201
0.11706589
0.11708102
0.11709755
0.11711524
0.11713433
0.11715508
0.11717746
0.11720238
0.11723061
0.11726369
0.11730367
0.11735324
0.11741463
0.11748732
0.11756444
0.11762908
0.11763985
0.11746096
0.11647261
0.11264702
0.10269478
0.09360315
0.10926863
0.058102788
0.078079005
0.096379092
0.10798431
0.11386459
0.11625724
0.11706367
0.11713524
0.11705479
0.11698664
0.11691688
0.11688015
0.11688021
0.1168726
0.11687075
0.1168712
0.11687335
0.11687663
0.1168808
0.11688584
0.11689182
0.11689905
0.11690739
0.11691669
0.11692741
0.11693934
0.11695208
0.11696592
0.11698099
0.11699727
0.11701464
0.11703359
0.1170546
0.11707831
0.11710594
0.11713928
0.11718088
0.11723305
0.11729726
0.11737017
0.1174435
0.11749353
0.1174533
0.11712922
0.11549642
0.11051818
0.099351652
0.094193529
0.11311656
)
;

boundaryField
{
    Side
    {
        type            empty;
    }
    Inlet
    {
        type            calculated;
        value           nonuniform List<scalar> 
21
(
0.13298451
0.1329958
0.1330057
0.13301464
0.13302194
0.13302984
0.13303792
0.13304745
0.13306517
0.13307145
0.13307083
0.13308809
0.13313296
0.13318861
0.13325935
0.13334245
0.13341514
0.13351115
0.13361831
0.13374362
0.13376463
)
;
    }
    Airfoil
    {
        type            compressible::alphatWallFunction;
        value           nonuniform List<scalar> 0();
    }
    Outlet
    {
        type            calculated;
        value           nonuniform List<scalar> 
49
(
0.058100907
0.078076268
0.096375794
0.10798041
0.11386037
0.11625273
0.11705893
0.11713034
0.11704978
0.11698167
0.11691208
0.11687557
0.11687585
0.11686839
0.11686663
0.11686707
0.11686913
0.11687242
0.1168767
0.11688184
0.11688787
0.11689495
0.1169031
0.11691224
0.11692264
0.11693423
0.11694658
0.11695992
0.11697445
0.11699001
0.11700657
0.11702465
0.11704459
0.11706717
0.11709353
0.11712555
0.11716574
0.11721593
0.11727785
0.11734826
0.11741847
0.11746513
0.11742125
0.11708526
0.11545865
0.1104439
0.099331338
0.09406326
0.11310879
)
;
    }
    procBoundary13to6
    {
        type            processor;
        value           nonuniform List<scalar> 
34
(
0.04917596
0.04917596
0.049638728
0.049925461
0.050111405
0.050218209
0.050285737
0.050364028
0.050502728
0.05073288
0.051054198
0.0514442
0.051871331
0.052298008
0.052691131
0.053030328
0.05330401
0.053506044
0.053647739
0.053769333
0.053929102
0.054175934
0.054526225
0.054956657
0.055421902
0.055884182
0.056319324
0.056710241
0.057044045
0.057309344
0.057516537
0.057671784
0.057817188
0.057994545
)
;
    }
    procBoundary13to12
    {
        type            processor;
        value           nonuniform List<scalar> 
60
(
0.063488138
0.080525924
0.094972196
0.10558479
0.11296966
0.11296966
0.1167457
0.1185802
0.11935402
0.11946131
0.11941412
0.11927892
0.11927892
0.11916613
0.11907643
0.11905577
0.1190454
0.11897299
0.11897299
0.11898025
0.11899213
0.1190073
0.11895438
0.11895438
0.11897377
0.11899501
0.11901801
0.11904272
0.1189968
0.1189968
0.11902439
0.11905397
0.11908562
0.1190457
0.1190457
0.11908139
0.11911979
0.11916092
0.11913039
0.11913039
0.11917691
0.11922633
0.11920463
0.11920463
0.11926016
0.11931948
0.11931063
0.11931063
0.11938433
0.11947177
0.11950619
0.11950619
0.11963418
0.11976109
0.11968022
0.11968022
0.11895487
0.11286759
0.11286759
0.10022409
)
;
    }
}


// ************************************************************************* //
