/*--------------------------------*- C++ -*----------------------------------*\
| =========                 |                                                 |
| \\      /  F ield         | OpenFOAM: The Open Source CFD Toolbox           |
|  \\    /   O peration     | Version:  2506                                  |
|   \\  /    A nd           | Website:  www.openfoam.com                      |
|    \\/     M anipulation  |                                                 |
\*---------------------------------------------------------------------------*/
FoamFile
{
    version     2.0;
    format      ascii;
    arch        "LSB;label=32;scalar=64";
    class       volScalarField;
    location    "2.15";
    object      T;
}
// * * * * * * * * * * * * * * * * * * * * * * * * * * * * * * * * * * * * * //

dimensions      [0 0 0 1 0 0 0];

internalField   nonuniform List<scalar> 
1375
(
244.09181
243.77866
244.13544
244.41158
244.11183
243.76277
244.09082
244.38274
244.38251
244.67073
244.66286
244.81206
244.88649
244.98876
245.059
245.12968
244.10032
243.80112
244.09036
244.27531
244.34032
244.59013
244.60038
244.81351
244.82581
244.90389
244.99121
245.07428
245.14177
245.19586
245.24303
245.28133
245.31413
245.33742
245.3642
245.38967
245.40818
245.42559
244.15712
243.70558
244.11681
244.27184
244.34679
244.53407
244.50545
244.76291
244.77824
244.87119
244.90969
245.03241
245.10036
245.16161
245.20895
245.24657
245.28406
245.3185
245.34742
245.38032
245.40115
245.42106
245.43638
245.46009
245.47848
245.48909
245.4987
245.50843
245.51994
245.52847
245.53715
245.54422
245.5496
245.55428
244.27095
243.72921
244.14775
244.19637
244.33644
244.55896
244.50169
244.71384
244.70018
244.89611
244.92204
245.01084
245.07958
245.13887
245.18941
245.23419
245.26929
245.30178
245.32897
245.36166
245.39158
245.41525
245.43358
245.45389
245.47376
245.48642
245.49597
245.50258
245.51429
245.52634
245.53554
245.54258
245.54851
245.55348
245.5577
245.56097
245.56487
245.56917
245.57131
245.5723
245.57392
245.57496
245.57648
245.57738
245.57838
245.57937
245.57987
245.57815
245.57252
244.25857
243.80365
244.16401
244.13288
244.32708
244.51202
244.53197
244.70277
244.65803
244.85405
244.9204
244.97703
245.04206
245.1068
245.16378
245.21185
245.25739
245.29411
245.32432
245.35678
245.38085
245.40105
245.42577
245.44921
245.46966
245.48354
245.49599
245.50454
245.51421
245.52376
245.53275
245.54142
245.54825
245.55284
245.55691
245.56108
245.56483
245.56879
245.57112
245.57235
245.57373
245.57514
245.57655
245.57687
245.57816
245.57933
245.57983
245.5783
245.57272
244.34228
243.7589
244.20878
244.16138
244.33625
244.43821
244.50199
244.66175
244.69725
244.85208
244.83688
244.93758
245.01589
245.08372
245.14265
245.18442
245.22745
245.27577
245.31014
245.3495
245.37699
245.40163
245.41721
245.43997
245.46552
245.47984
245.49334
245.50452
245.51458
245.52413
245.5328
245.54044
245.54726
245.55288
245.55665
245.56119
245.56424
245.56837
245.5708
245.57225
245.57372
245.57537
245.57657
245.57692
245.57781
245.57934
245.57987
245.57871
245.57261
244.51544
243.83117
244.18952
244.09589
244.33391
244.41768
244.47488
244.63274
244.72283
244.84192
244.80756
244.91977
245.00061
245.07212
245.1352
245.19186
245.22815
245.26578
245.29562
245.33144
245.36806
245.39673
245.42022
245.43996
245.46047
245.47441
245.4886
245.50315
245.51386
245.52335
245.53217
245.53971
245.54625
245.55285
245.55694
245.56116
245.56428
245.56823
245.57075
245.57237
245.57386
245.57527
245.57656
245.57718
245.57762
245.57935
245.57995
245.57878
245.57258
244.46422
243.82411
244.16263
244.19314
244.34475
244.37224
244.50848
244.60645
244.67992
244.80406
244.83183
244.93658
244.99241
245.06866
245.12591
245.17685
245.2241
245.26552
245.29705
245.32921
245.36573
245.39113
245.41771
245.44033
245.46033
245.47498
245.48858
245.50249
245.51285
245.52209
245.53072
245.53857
245.54542
245.55219
245.55721
245.56152
245.56432
245.56804
245.57066
245.57223
245.57384
245.5755
245.57653
245.57747
245.5777
245.57932
245.57994
245.57885
245.57257
244.5581
243.6956
244.17758
244.15375
244.36398
244.39468
244.54109
244.61016
244.64858
244.76148
244.8404
244.9336
244.98241
245.05252
245.10735
245.15923
245.21306
245.25404
245.29477
245.33007
245.36438
245.39181
245.41627
245.43936
245.4594
245.47576
245.48829
245.50171
245.51332
245.52296
245.53141
245.5383
245.54504
245.55197
245.55704
245.56141
245.56451
245.56789
245.57064
245.57244
245.57381
245.57559
245.5765
245.57757
245.57772
245.57908
245.57973
245.57888
245.57254
244.57085
243.92392
244.23659
244.07828
244.35734
244.38349
244.53534
244.60016
244.68871
244.78003
244.85113
244.91787
244.97921
245.05366
245.10828
245.16517
245.21219
245.24612
245.28837
245.32289
245.35906
245.39347
245.41667
245.43929
245.4571
245.47551
245.48854
245.50169
245.51352
245.52309
245.53161
245.53871
245.54514
245.55158
245.55722
245.56156
245.56468
245.56787
245.57038
245.57249
245.57389
245.5758
245.57666
245.57768
245.57795
245.57893
245.5794
245.57883
245.57246
244.61355
244.09632
244.20579
244.24141
244.39305
244.37606
244.55391
244.61021
244.7166
244.78297
244.8445
244.92363
244.9838
245.04643
245.10403
245.17024
245.21361
245.25351
245.29325
245.32574
245.35489
245.39073
245.41846
245.44009
245.45688
245.47485
245.48917
245.50262
245.51393
245.52335
245.53232
245.53945
245.54521
245.55135
245.55784
245.56172
245.56465
245.56811
245.57048
245.57245
245.57386
245.57589
245.5769
245.57782
245.57815
245.57884
245.57937
245.5787
245.57232
244.57634
244.17639
244.29066
244.23935
244.38286
244.42771
244.60439
244.63305
244.72264
244.77156
244.84715
244.92149
244.98509
245.05716
245.11706
245.17103
245.21382
245.25577
245.29265
245.32481
245.35714
245.39177
245.41839
245.43973
245.45837
245.47528
245.49059
245.50387
245.51486
245.52428
245.53332
245.54044
245.54543
245.55141
245.55796
245.56202
245.56475
245.56825
245.57058
245.57251
245.57393
245.5761
245.57715
245.57794
245.57813
245.57865
245.57948
245.57851
245.57214
244.78818
243.94708
244.35717
244.31252
244.48658
244.45204
244.60154
244.62177
244.75095
244.79474
244.85733
244.91971
245.00545
245.06976
245.12132
245.17332
245.21834
245.25673
245.29352
245.33005
245.36208
245.39102
245.41841
245.44163
245.45997
245.4759
245.49149
245.50524
245.51591
245.52515
245.53403
245.54127
245.54601
245.55154
245.55803
245.56243
245.56517
245.56818
245.57048
245.57257
245.57409
245.57636
245.57731
245.57793
245.57825
245.57844
245.57942
244.774
244.3302
244.41821
244.37767
244.52647
244.47227
244.64595
244.66016
244.79208
244.80904
244.8783
244.94392
245.01417
245.07131
245.12786
245.18176
245.2244
245.26552
245.30256
245.33591
245.36437
245.39242
245.42207
245.44378
245.46166
245.47715
245.49293
245.50692
245.5171
245.526
245.5349
245.54198
245.54665
245.55164
245.55825
245.56286
245.56556
245.56828
245.57054
245.57263
245.57439
245.57642
245.57738
245.57796
245.57834
245.5784
244.77882
244.28145
244.48314
244.39003
244.55681
244.53163
244.7068
244.71208
244.77768
244.80387
244.91901
244.98019
245.02147
245.08315
245.14204
245.18893
245.23646
245.27909
245.30934
245.33908
245.36869
245.39926
245.42523
245.44556
245.46471
245.48004
245.49492
245.50853
245.51859
245.52709
245.53606
245.54261
245.54731
245.55219
245.55853
245.56317
245.56578
245.5683
245.57073
245.57284
245.57468
245.57655
245.5774
245.578
245.57831
245.13872
244.3091
244.5433
244.42464
244.6126
244.60381
244.71898
244.71697
244.80062
244.85998
244.93765
244.98157
245.04909
245.1083
245.15328
245.20696
245.25021
245.28374
245.31708
245.34789
245.37607
245.4042
245.4276
245.44945
245.46915
245.48297
245.49676
245.51046
245.52028
245.52827
245.53713
245.54333
245.54835
245.55305
245.5587
245.56351
245.56601
245.5683
245.57083
245.573
245.5749
245.57673
245.57746
245.57802
245.25866
244.36863
244.6228
244.48851
244.66226
244.63503
244.74167
244.77966
244.87288
244.89995
244.95679
245.00321
245.07173
245.12927
245.17561
245.21845
245.25524
245.29508
245.33267
245.35962
245.38175
245.40807
245.43227
245.45472
245.47262
245.48582
245.49927
245.5127
245.52192
245.52966
245.53822
245.54418
245.54965
245.55384
245.55897
245.56398
245.56647
245.56842
245.57102
245.57318
245.57512
245.5769
245.57759
245.22704
244.49817
244.652
244.58602
244.72027
244.70242
244.79821
244.84688
244.90058
244.91573
244.9938
245.05126
245.10386
245.14735
245.19009
245.23242
245.27541
245.31989
245.3452
245.36345
245.39051
245.41576
245.43875
245.45906
245.47567
245.48961
245.50244
245.51482
245.52393
245.53144
245.53949
245.54525
245.5507
245.55459
245.55947
245.56441
245.56701
245.56867
245.57132
245.57347
245.5753
245.57703
245.15828
244.5508
244.73599
244.68669
244.75663
244.77595
244.83777
244.85516
244.92622
244.96836
245.05203
245.08292
245.12711
245.16535
245.21596
245.26492
245.30969
245.32853
245.34872
245.37659
245.4029
245.42507
245.44552
245.46392
245.47956
245.49374
245.50562
245.51723
245.52646
245.53346
245.54094
245.54654
245.55155
245.55538
245.56005
245.56473
245.56748
245.569
245.57166
245.57372
245.5754
245.1249
244.78382
244.63435
244.7366
244.80331
244.83089
244.88581
244.90479
244.98819
245.02663
245.07741
245.10268
245.15506
245.20368
245.25859
245.29425
245.31412
245.33662
245.36959
245.39278
245.41209
245.4341
245.45329
245.47029
245.48435
245.49743
245.509
245.52036
245.52888
245.53562
245.54271
245.54788
245.55244
245.55614
245.56061
245.56507
245.56793
245.56943
245.57218
245.57391
245.53891
244.78874
244.82523
244.81189
244.86404
244.8934
244.95395
244.98291
245.03904
245.05245
245.10012
245.13907
245.20079
245.24894
245.28005
245.30123
245.32982
245.36424
245.38854
245.40041
245.42184
245.4445
245.46158
245.47716
245.48955
245.50126
245.51304
245.52362
245.53112
245.5381
245.54472
245.54927
245.55351
245.55679
245.56118
245.56543
245.56843
245.56997
245.57264
245.44884
244.97602
244.85788
244.90343
244.92977
244.96081
245.01332
245.03221
245.07688
245.10134
245.15544
245.19544
245.24402
245.27132
245.29659
245.32803
245.36281
245.38487
245.39368
245.41163
245.43611
245.45504
245.46968
245.48409
245.4951
245.50578
245.51709
245.52657
245.5336
245.54074
245.54675
245.5508
245.5546
245.55745
245.56176
245.56581
245.56896
245.57057
245.66778
244.97948
244.98993
244.97038
245.01413
245.02938
245.07189
245.09053
245.13895
245.17565
245.2167
245.24065
245.27616
245.29983
245.33363
245.36492
245.38348
245.39438
245.40635
245.42973
245.45026
245.46443
245.47806
245.49086
245.50106
245.51076
245.52067
245.52953
245.53637
245.54307
245.54876
245.55249
245.55564
245.55827
245.56232
245.56619
245.56952
245.6645
245.10583
245.07744
245.04281
245.09196
245.10263
245.14961
245.176
245.21741
245.23594
245.26522
245.28733
245.32244
245.348
245.37585
245.38641
245.39868
245.41234
245.42933
245.44928
245.46274
245.47529
245.48696
245.49784
245.50755
245.51552
245.52433
245.53279
245.53879
245.54517
245.55075
245.5542
245.55673
245.55922
245.5629
245.56658
245.82357
245.18473
245.15056
245.12911
245.17057
245.18574
245.22347
245.25096
245.28055
245.28833
245.31666
245.34173
245.37181
245.39063
245.40492
245.40891
245.42445
245.43872
245.45245
245.46534
245.47643
245.48744
245.496
245.50581
245.51417
245.5203
245.52842
245.5358
245.54097
245.54734
245.55258
245.55582
245.55793
245.56013
245.56356
245.56706
245.87457
245.3297
245.21934
245.23197
245.26052
245.27877
245.30527
245.32271
245.34742
245.35695
245.38402
245.4038
245.42448
245.43324
245.43628
245.4436
245.45706
245.46445
245.47246
245.48242
245.49192
245.49843
245.50548
245.51455
245.52059
245.52582
245.53278
245.53854
245.54337
245.54962
245.55428
245.55755
245.55922
245.56101
245.56428
246.06634
245.45806
245.35922
245.3319
245.35895
245.36512
245.38629
245.39657
245.41678
245.42795
245.4445
245.45648
245.46406
245.46997
245.47558
245.4813
245.48709
245.49036
245.49578
245.50328
245.50867
245.51097
245.51682
245.52334
245.52715
245.53203
245.53714
245.54184
245.54623
245.55172
245.55606
245.55935
245.56038
245.56187
246.14304
245.59988
245.4684
245.45022
245.45781
245.46402
245.48458
245.48651
245.50051
245.5062
245.51022
245.51361
245.51501
245.51359
245.51391
245.51361
245.51477
245.51442
245.51629
245.52028
245.52185
245.52338
245.52839
245.53185
245.53423
245.53804
245.54181
245.54549
245.54904
245.55385
245.55807
245.56114
245.56152
246.35427
245.78395
245.65278
245.57758
245.5822
245.56891
245.57724
245.57466
245.57902
245.57898
245.5753
245.56819
245.56144
245.55852
245.55525
245.55087
245.54717
245.5433
245.54016
245.53788
245.53546
245.53561
245.53816
245.53995
245.54127
245.54434
245.54741
245.54959
245.55178
245.55615
245.56024
246.50264
245.94843
245.76626
245.75239
245.71602
245.70363
245.69103
245.67709
245.66692
245.65386
245.63915
245.62471
245.60801
245.59314
245.58678
245.57772
245.5717
245.56724
245.56189
245.55682
245.55257
245.55066
245.54881
245.54809
245.548
245.55064
245.55294
245.55361
245.55506
245.55867
246.79767
246.2013
245.98041
245.87618
245.84981
245.82235
245.79425
245.77158
245.75168
245.72884
245.7048
245.67432
245.65764
245.64047
245.61843
245.60727
245.59381
245.58342
245.57508
245.56716
245.5621
245.56051
245.5584
245.55534
245.55488
245.55652
245.55811
245.55713
245.55818
247.17005
246.65114
246.29395
246.13352
246.02299
245.95586
245.89681
245.84998
245.81385
245.78033
245.7535
245.73163
245.69338
245.66649
245.65334
245.63603
245.62308
245.61457
245.60303
245.58762
245.57764
245.57022
245.56602
245.56213
245.56196
245.56274
245.56291
246.32852
246.42855
246.54359
246.22704
246.27312
246.35268
246.45042
246.55743
246.63785
245.89098
245.92594
246.00292
246.10083
246.20942
246.28504
245.79193
245.82469
245.8874
245.9861
246.09511
246.16838
245.76349
245.80648
245.85897
245.94148
246.02652
246.08264
245.75128
245.79369
245.83851
245.909
245.97706
246.02091
245.74331
245.78191
245.82067
245.87872
245.9288
245.96175
245.73624
245.76878
245.80269
245.84909
245.88595
245.90933
245.75608
245.78312
245.81945
245.84623
245.86277
245.74359
245.76503
245.79207
245.80985
245.82181
245.73096
245.74898
245.76767
245.78027
245.78864
245.71778
245.73162
245.74248
245.75256
245.75648
245.70532
245.71411
245.72334
245.72885
245.72608
245.69771
245.69878
245.70344
245.71099
245.69249
245.68506
245.68524
245.68479
245.68958
245.66925
245.67396
245.67396
245.66569
245.65015
245.65774
245.65888
245.64274
245.63618
245.64049
245.64137
245.62825
245.61641
245.62338
245.61577
245.60702
245.60853
245.60477
245.60097
245.59753
245.59549
245.59527
245.58893
245.58447
245.58248
245.57357
245.57576
245.56824
245.56763
245.56755
)
;

boundaryField
{
    Side
    {
        type            empty;
    }
    Inlet
    {
        type            totalTemperature;
        gamma           1.4;
        T0              uniform 250;
        value           nonuniform List<scalar> 9(245.58032 245.57999 245.57987 245.57982 245.57978 245.57979 245.57981 245.57985 245.57987);
    }
    Airfoil
    {
        type            zeroGradient;
    }
    Outlet
    {
        type            inletOutlet;
        inletValue      nonuniform List<scalar> 0();
        value           nonuniform List<scalar> 0();
    }
    procBoundary1to0
    {
        type            processor;
        value           nonuniform List<scalar> 
53
(
244.15269
243.7907
244.15248
244.36747
244.34866
244.34866
244.69776
244.69659
244.88675
244.94975
245.03609
245.11633
245.17189
245.18684
245.18684
245.23146
245.27136
245.30069
245.32736
245.35121
245.37686
245.40191
245.42089
245.43658
245.44432
245.44432
245.4668
245.48279
245.49188
245.50143
245.51246
245.52185
245.52855
245.53765
245.54571
245.55135
245.55449
245.55731
245.55731
245.56087
245.56506
245.56943
245.5712
245.57236
245.57395
245.57503
245.57666
245.57759
245.57873
245.57959
245.57951
245.57802
245.57248
)
;
    }
    procBoundary1to2
    {
        type            processor;
        value           nonuniform List<scalar> 
75
(
245.57843
245.57192
245.57843
245.57941
245.57941
245.57834
245.57834
245.57826
245.57826
245.57807
245.57807
245.57772
245.57772
245.57715
245.57715
245.57557
245.57557
245.57413
245.57413
245.57294
245.57294
245.57118
245.57118
245.57013
245.57013
245.57076
245.56763
245.56763
245.56506
245.56506
245.56281
245.56264
245.56281
245.56266
245.56264
245.56244
245.56244
245.56131
245.5615
245.56131
245.56174
245.5615
245.5669
246.2677
246.21153
245.88568
245.78459
245.75113
245.73933
245.72899
245.72247
245.73018
245.73018
245.72356
245.71667
245.7094
245.69978
245.68841
245.67421
245.66916
245.66916
245.65612
245.6426
245.62801
245.62801
245.61971
245.60834
245.59026
245.59026
245.58592
245.5839
245.57196
245.57196
245.57056
245.5669
)
;
    }
    procBoundary1to8
    {
        type            processor;
        value           nonuniform List<scalar> 8(247.06101 246.35102 246.43428 246.70154 246.54548 246.70154 246.90156 247.06101);
    }
}


// ************************************************************************* //
