/*--------------------------------*- C++ -*----------------------------------*\
| =========                 |                                                 |
| \\      /  F ield         | OpenFOAM: The Open Source CFD Toolbox           |
|  \\    /   O peration     | Version:  2506                                  |
|   \\  /    A nd           | Website:  www.openfoam.com                      |
|    \\/     M anipulation  |                                                 |
\*---------------------------------------------------------------------------*/
FoamFile
{
    version     2.0;
    format      ascii;
    arch        "LSB;label=32;scalar=64";
    class       volScalarField;
    location    "2.25";
    object      T;
}
// * * * * * * * * * * * * * * * * * * * * * * * * * * * * * * * * * * * * * //

dimensions      [0 0 0 1 0 0 0];

internalField   nonuniform List<scalar> 
1376
(
245.61862
245.63443
245.63771
245.6264
245.61808
245.63363
245.63664
245.62518
245.61041
245.59825
245.59011
245.58539
245.58294
245.58175
245.61773
245.63301
245.63573
245.62407
245.60933
245.59733
245.58938
245.58482
245.58248
245.58137
245.58081
245.58042
245.58004
245.57964
245.57927
245.61765
245.6327
245.63521
245.62343
245.60871
245.5968
245.58895
245.58446
245.58214
245.581
245.58038
245.57995
245.57959
245.57925
245.57895
245.57872
245.57858
245.57855
245.5785
245.61745
245.63246
245.63482
245.62298
245.60835
245.59659
245.58889
245.58448
245.58219
245.58102
245.58035
245.57984
245.57935
245.57891
245.57856
245.57835
245.57826
245.57826
245.5783
245.57828
245.57821
245.57814
245.57812
245.61715
245.63215
245.6344
245.6225
245.60794
245.59632
245.58876
245.58448
245.58227
245.58113
245.58044
245.5799
245.57939
245.57893
245.57857
245.5783
245.57811
245.57802
245.57801
245.57801
245.57803
245.57804
245.57801
245.578
245.57801
245.57807
245.57816
245.61682
245.63182
245.63399
245.6221
245.60764
245.59611
245.58863
245.58442
245.58227
245.58117
245.5805
245.57997
245.5795
245.57909
245.57872
245.57842
245.57821
245.57807
245.57796
245.57791
245.57792
245.57796
245.578
245.57802
245.57802
245.57806
245.57811
245.57815
245.57822
245.57828
245.61634
245.6313
245.63341
245.62161
245.6074
245.59616
245.58887
245.58472
245.58247
245.58122
245.58044
245.5799
245.57946
245.57908
245.5788
245.57861
245.57843
245.5783
245.57819
245.57805
245.57796
245.57794
245.57794
245.57796
245.57797
245.57799
245.57802
245.57807
245.57814
245.57821
245.57821
245.5781
245.57805
245.61583
245.63065
245.63261
245.62078
245.60671
245.59569
245.58866
245.58471
245.5827
245.58164
245.58096
245.58036
245.57976
245.57922
245.57882
245.57851
245.57834
245.57822
245.57813
245.5781
245.57808
245.57802
245.57794
245.57787
245.57784
245.57783
245.57782
245.57789
245.57799
245.57803
245.57804
245.57804
245.57788
245.57769
245.57763
245.6152
245.62982
245.63157
245.61968
245.60581
245.59508
245.58828
245.58449
245.58251
245.58147
245.58084
245.58035
245.57992
245.57955
245.57927
245.579
245.57868
245.57832
245.57809
245.57796
245.57788
245.57785
245.57786
245.57786
245.57782
245.57779
245.57776
245.57773
245.57772
245.57774
245.57778
245.57776
245.57765
245.57756
245.57741
245.57738
245.57741
245.57742
245.61431
245.62875
245.63025
245.6183
245.60464
245.5942
245.58769
245.58414
245.58233
245.58135
245.58067
245.5801
245.57963
245.57931
245.57911
245.57895
245.57878
245.5787
245.57864
245.57849
245.57826
245.57801
245.5778
245.57768
245.57765
245.57763
245.57757
245.57755
245.57752
245.57749
245.57746
245.57741
245.57736
245.57732
245.5773
245.57718
245.57708
245.57723
245.5772
245.57708
245.61339
245.62755
245.62873
245.61665
245.60317
245.59302
245.58678
245.58345
245.58181
245.58095
245.58038
245.57991
245.5795
245.57915
245.57887
245.5787
245.57862
245.57856
245.57846
245.57837
245.57826
245.5782
245.57816
245.57805
245.57791
245.57777
245.5776
245.57743
245.57726
245.57712
245.57704
245.57705
245.57707
245.577
245.57699
245.57705
245.577
245.57684
245.57691
245.57687
245.5769
245.57694
245.6125
245.62642
245.62727
245.615
245.60163
245.59171
245.5857
245.58254
245.58103
245.58029
245.57984
245.57948
245.57916
245.5789
245.5787
245.57857
245.57852
245.57847
245.57837
245.57828
245.5782
245.57812
245.57807
245.57802
245.57794
245.57787
245.57779
245.57765
245.57747
245.57719
245.57692
245.57669
245.57657
245.57651
245.57656
245.5767
245.57679
245.57686
245.57674
245.57667
245.57683
245.5769
245.57714
245.61166
245.62539
245.62596
245.61348
245.60017
245.59043
245.58461
245.5816
245.58019
245.5795
245.57911
245.5788
245.57857
245.57843
245.57838
245.57838
245.5784
245.5784
245.57836
245.57827
245.57817
245.57805
245.57792
245.57788
245.57786
245.5778
245.57771
245.57758
245.57744
245.57728
245.57705
245.57678
245.57654
245.57632
245.57617
245.57612
245.57638
245.5766
245.57662
245.57656
245.57649
245.57673
245.57702
245.57757
245.57836
245.61088
245.62451
245.62488
245.61224
245.59892
245.58927
245.58358
245.58067
245.57932
245.57868
245.57831
245.57804
245.57785
245.57775
245.57775
245.57781
245.57791
245.57803
245.57812
245.57817
245.57815
245.57807
245.57793
245.5778
245.57776
245.57777
245.57771
245.57754
245.57726
245.57708
245.57695
245.57674
245.57648
245.57634
245.57616
245.57602
245.57594
245.57597
245.57621
245.57629
245.57629
245.57641
245.57677
245.57742
245.57826
245.57868
245.61005
245.62367
245.62395
245.61129
245.59805
245.58851
245.58287
245.57997
245.57859
245.5779
245.57748
245.57719
245.57701
245.57694
245.57698
245.57708
245.57724
245.57742
245.57759
245.57771
245.5778
245.57783
245.57783
245.57779
245.57774
245.57773
245.5777
245.57761
245.57753
245.57732
245.57696
245.57676
245.57659
245.57637
245.57615
245.57596
245.57577
245.57564
245.57556
245.57572
245.57587
245.57612
245.57653
245.57713
245.57803
245.5786
245.57828
245.57457
245.60918
245.62269
245.62289
245.61021
245.59713
245.58778
245.58231
245.5795
245.57813
245.57739
245.5769
245.57654
245.57631
245.57622
245.57622
245.57632
245.5765
245.57671
245.57692
245.57712
245.57727
245.57738
245.57748
245.57755
245.5776
245.57765
245.57768
245.57772
245.57756
245.57746
245.57736
245.57703
245.57661
245.5763
245.5761
245.57583
245.57562
245.5754
245.57517
245.57505
245.57525
245.57573
245.57635
245.57691
245.57776
245.57844
245.57827
245.57467
245.57312
245.60832
245.62164
245.62169
245.60895
245.59597
245.5868
245.58151
245.57884
245.57756
245.57687
245.5764
245.57604
245.57578
245.57565
245.57562
245.57569
245.57583
245.57603
245.57624
245.57645
245.57665
245.57682
245.57697
245.5771
245.57723
245.57735
245.57745
245.57752
245.57748
245.57739
245.57723
245.57714
245.57706
245.5767
245.57624
245.57582
245.57533
245.5751
245.57494
245.5748
245.57481
245.57516
245.5759
245.57666
245.5776
245.5783
245.57791
245.57464
245.57337
245.60743
245.62056
245.62046
245.60769
245.59482
245.5858
245.58063
245.57805
245.57682
245.57617
245.57574
245.57542
245.57519
245.57505
245.575
245.57504
245.57515
245.57533
245.57553
245.57576
245.57599
245.57621
245.57642
245.57664
245.57685
245.57703
245.57716
245.57722
245.57732
245.57738
245.57734
245.57727
245.57722
245.57705
245.57674
245.5762
245.57551
245.5748
245.57456
245.57464
245.57463
245.57495
245.57543
245.5762
245.57733
245.57817
245.5777
245.57452
245.57356
245.60641
245.61936
245.6191
245.60635
245.59364
245.58482
245.57981
245.57731
245.57613
245.57549
245.57507
245.57475
245.57454
245.5744
245.57433
245.57435
245.57444
245.57457
245.57475
245.57496
245.5752
245.57546
245.57574
245.57603
245.57633
245.57662
245.57689
245.57714
245.57732
245.57737
245.57736
245.57731
245.57726
245.57718
245.57696
245.57659
245.57608
245.57531
245.57461
245.57433
245.57445
245.57469
245.57516
245.57595
245.57694
245.57779
245.57742
245.5746
245.57331
245.60517
245.61794
245.61753
245.60479
245.59228
245.58367
245.57884
245.57646
245.57534
245.57476
245.57437
245.57407
245.57388
245.57375
245.57368
245.57369
245.57375
245.57386
245.57401
245.57418
245.57438
245.57461
245.57487
245.57517
245.57551
245.57591
245.57634
245.57671
245.57702
245.57726
245.57746
245.5775
245.57743
245.5772
245.57692
245.57663
245.57617
245.57571
245.57517
245.57463
245.57413
245.57414
245.57478
245.5757
245.57669
245.57738
245.57701
245.57442
245.57312
245.60384
245.61641
245.6158
245.60306
245.59073
245.58235
245.5777
245.57544
245.5744
245.57386
245.57351
245.57325
245.57309
245.573
245.57296
245.57297
245.57302
245.57311
245.57323
245.5734
245.57362
245.57388
245.57417
245.57447
245.57471
245.5749
245.57518
245.57571
245.5763
245.57676
245.57707
245.57726
245.57738
245.57741
245.57718
245.57669
245.57629
245.57594
245.57544
245.57496
245.57454
245.57426
245.57432
245.57512
245.57621
245.57702
245.57665
245.57394
245.57329
245.60254
245.61495
245.6141
245.60132
245.58913
245.58095
245.57648
245.57434
245.57336
245.57286
245.57254
245.57233
245.57221
245.57216
245.57218
245.57223
245.57228
245.57234
245.57242
245.57254
245.57272
245.57296
245.57325
245.57361
245.57401
245.57436
245.57452
245.57454
245.57475
245.57527
245.57598
245.5766
245.57695
245.5771
245.57711
245.5771
245.57685
245.57626
245.57558
245.57498
245.57467
245.5745
245.57452
245.57483
245.57549
245.57632
245.57631
245.57371
245.57319
245.60129
245.61357
245.61245
245.59955
245.58743
245.57942
245.57511
245.5731
245.57221
245.57177
245.5715
245.57134
245.57129
245.57133
245.57142
245.57152
245.57157
245.5716
245.57163
245.5717
245.57181
245.572
245.57227
245.57258
245.57292
245.57331
245.57372
245.57406
245.57431
245.57452
245.57478
245.57521
245.57584
245.57645
245.5768
245.57693
245.57689
245.57671
245.57631
245.57547
245.57474
245.57442
245.57453
245.57485
245.57524
245.57573
245.57582
245.57343
245.57266
245.60008
245.61231
245.6109
245.59781
245.58567
245.57775
245.57355
245.57164
245.57082
245.57045
245.57025
245.57015
245.57017
245.57028
245.57044
245.57062
245.57076
245.57089
245.571
245.5711
245.57119
245.57128
245.57139
245.57157
245.57182
245.57215
245.57256
245.57302
245.57346
245.57389
245.57436
245.57483
245.57528
245.57565
245.57603
245.57641
245.57672
245.57687
245.57661
245.57604
245.57527
245.57468
245.57458
245.57482
245.57516
245.57537
245.57525
245.57308
245.57259
245.59883
245.61106
245.60942
245.59619
245.58407
245.57623
245.5721
245.57022
245.56943
245.56906
245.56886
245.56879
245.56882
245.56894
245.56914
245.56937
245.56962
245.56986
245.57009
245.57031
245.57053
245.57076
245.571
245.57122
245.57133
245.57133
245.5714
245.57167
245.57209
245.57263
245.57328
245.57397
245.57464
245.57532
245.57591
245.57618
245.57624
245.57634
245.57647
245.57631
245.57579
245.57518
245.57489
245.57509
245.57515
245.57512
245.5746
245.57269
245.57272
245.59752
245.6097
245.60783
245.59451
245.58252
245.57485
245.57085
245.56903
245.56826
245.56792
245.56774
245.56766
245.56765
245.56771
245.56783
245.56802
245.56825
245.56853
245.56885
245.56919
245.56955
245.56992
245.57028
245.57062
245.57095
245.57128
245.57151
245.57157
245.57154
245.57158
245.57187
245.57248
245.57332
245.57435
245.57521
245.57578
245.57607
245.57631
245.57633
245.57602
245.57563
245.57546
245.57527
245.57532
245.57538
245.57522
245.57439
245.57227
245.57256
245.5963
245.60829
245.60613
245.59275
245.5809
245.57343
245.56957
245.56783
245.56708
245.56675
245.56662
245.56658
245.56661
245.56672
245.56688
245.56708
245.5673
245.56751
245.56771
245.56791
245.56814
245.56849
245.56901
245.56963
245.57023
245.57075
245.57105
245.57127
245.5715
245.57176
245.57196
245.57213
245.57234
245.57279
245.57353
245.57455
245.57548
245.57596
245.57612
245.57606
245.57598
245.57552
245.57541
245.5755
245.5755
245.57541
245.57443
245.57212
245.57207
245.59518
245.60693
245.60444
245.59104
245.57939
245.57215
245.56844
245.56676
245.56601
245.56564
245.56547
245.56541
245.56542
245.56553
245.5657
245.56595
245.56627
245.56665
245.56703
245.56735
245.56756
245.56773
245.56786
245.568
245.56835
245.56905
245.56991
245.57049
245.57088
245.57127
245.57158
245.57186
245.57228
245.57274
245.57311
245.57346
245.57392
245.57455
245.57519
245.57572
245.57579
245.57587
245.57598
245.57597
245.5759
245.57564
245.57424
245.57215
245.57189
245.57105
245.56755
245.56597
245.56525
245.56488
245.56468
245.56456
245.56452
245.56454
245.56464
245.56483
245.56511
245.56548
245.56587
245.56623
245.56659
245.56711
245.56764
245.56801
245.56838
245.56843
245.56835
245.56874
245.56929
245.56988
245.57056
245.57119
245.57173
245.57219
245.57268
245.57325
245.57371
245.57397
245.57414
245.57443
245.57496
245.57567
245.57616
245.57642
245.57654
245.57602
245.57425
245.57204
245.57174
245.56403
245.56404
245.56409
245.56415
245.56424
245.56435
245.56449
245.56474
245.56512
245.56558
245.56601
245.56653
245.56714
245.56768
245.5683
245.56856
245.56887
245.5692
245.56924
245.56922
245.5695
245.56998
245.57068
245.57149
245.5723
245.57293
245.57341
245.57384
245.57421
245.57455
245.57494
245.57539
245.57599
245.57651
245.57666
245.57471
245.57231
245.57151
245.56406
245.56425
245.56441
245.56456
245.56471
245.56484
245.56502
245.56544
245.56602
245.5667
245.56762
245.56822
245.56858
245.56903
245.56948
245.56975
245.5698
245.56976
245.56982
245.5703
245.57115
245.57207
245.57286
245.57353
245.57409
245.57472
245.57535
245.57588
245.57633
245.57648
245.57503
245.57305
245.57134
245.56442
245.56463
245.56473
245.56478
245.5649
245.5651
245.56561
245.5662
245.56689
245.56762
245.5683
245.56881
245.56921
245.56954
245.56984
245.57009
245.5704
245.5708
245.57129
245.57203
245.57281
245.57371
245.57472
245.57568
245.57657
245.57614
245.57471
245.57289
245.57147
245.56493
245.5652
245.56545
245.56565
245.56584
245.56614
245.56663
245.56726
245.56795
245.56864
245.56917
245.56966
245.57014
245.57053
245.57099
245.57175
245.57252
245.57359
245.57478
245.57569
245.57559
245.57443
245.57241
245.57135
245.56531
245.56556
245.56578
245.566
245.56622
245.5666
245.56716
245.56777
245.56851
245.56929
245.56997
245.57082
245.57176
245.57259
245.57361
245.5747
245.57479
245.57401
245.57207
245.57096
245.5655
245.56587
245.56632
245.56678
245.56713
245.56751
245.5683
245.56918
245.57034
245.57171
245.57293
245.57375
245.57385
245.57353
245.57142
245.57077
245.56599
245.56654
245.56689
245.56707
245.5679
245.56911
245.57038
245.57204
245.57332
245.57314
245.57217
245.57088
245.57055
245.56657
245.56681
245.56775
245.5694
245.5709
245.57195
245.57242
245.57132
245.5706
245.57011
245.5681
245.56917
245.57077
245.5716
245.5708
245.57033
245.56971
245.56956
245.57002
245.56991
245.56942
245.56911
245.56892
245.61877
)
;

boundaryField
{
    Side
    {
        type            empty;
    }
    Inlet
    {
        type            totalTemperature;
        gamma           1.4;
        T0              uniform 250;
        value           nonuniform List<scalar> 
25
(
245.57986
245.57984
245.57982
245.57979
245.57978
245.57976
245.57975
245.57976
245.5797
245.57958
245.57949
245.57944
245.57937
245.5793
245.57924
245.57913
245.57901
245.57892
245.57882
245.57867
245.57849
245.57825
245.57795
245.57765
245.5774
)
;
    }
    Airfoil
    {
        type            zeroGradient;
    }
    Outlet
    {
        type            inletOutlet;
        inletValue      nonuniform List<scalar> 0();
        value           nonuniform List<scalar> 0();
    }
    procBoundary12to4
    {
        type            processor;
        value           uniform 245.61914;
    }
    procBoundary12to5
    {
        type            processor;
        value           nonuniform List<scalar> 
30
(
245.61836
245.61808
245.61806
245.61785
245.61747
245.61707
245.61656
245.61596
245.61524
245.61436
245.61351
245.61268
245.61187
245.61114
245.61041
245.6096
245.6087
245.60774
245.60667
245.60536
245.60398
245.60269
245.60142
245.60016
245.59885
245.59753
245.59634
245.59527
245.63457
245.61836
)
;
    }
    procBoundary12to6
    {
        type            processor;
        value           uniform 245.59417;
    }
    procBoundary12to11
    {
        type            processor;
        value           nonuniform List<scalar> 
65
(
245.61917
245.63528
245.63884
245.62763
245.61149
245.61149
245.59909
245.59072
245.58584
245.58329
245.58205
245.58115
245.58115
245.58075
245.58037
245.57998
245.57965
245.57901
245.57901
245.57889
245.57884
245.57874
245.57845
245.57845
245.57841
245.57835
245.57832
245.57813
245.57813
245.57813
245.57815
245.57824
245.57826
245.57826
245.57833
245.5784
245.57831
245.57831
245.57829
245.57826
245.57803
245.57803
245.57791
245.57764
245.57764
245.57761
245.57738
245.57725
245.57725
245.57699
245.57687
245.57687
245.57707
245.57727
245.57727
245.57766
245.57766
245.57842
245.57871
245.57871
245.5782
245.5782
245.57432
245.57305
245.57305
)
;
    }
    procBoundary12to13
    {
        type            processor;
        value           nonuniform List<scalar> 
60
(
245.60566
245.60285
245.58946
245.57803
245.57803
245.5699
245.56658
245.56514
245.56452
245.56422
245.56407
245.56407
245.56321
245.56331
245.56347
245.56365
245.56385
245.56385
245.56314
245.56348
245.56382
245.56413
245.56413
245.56322
245.56368
245.56404
245.56434
245.56463
245.56463
245.56382
245.56427
245.56466
245.56501
245.56501
245.56405
245.56442
245.56478
245.56517
245.56517
245.56425
245.5648
245.56537
245.56537
245.56439
245.56516
245.56601
245.56601
245.56539
245.56611
245.56725
245.56725
245.56738
245.56857
245.56958
245.56958
245.56937
245.5689
245.5689
245.56912
245.56835
)
;
    }
}


// ************************************************************************* //
