/*--------------------------------*- C++ -*----------------------------------*\
| =========                 |                                                 |
| \\      /  F ield         | OpenFOAM: The Open Source CFD Toolbox           |
|  \\    /   O peration     | Version:  2506                                  |
|   \\  /    A nd           | Website:  www.openfoam.com                      |
|    \\/     M anipulation  |                                                 |
\*---------------------------------------------------------------------------*/
FoamFile
{
    version     2.0;
    format      ascii;
    arch        "LSB;label=32;scalar=64";
    class       volScalarField;
    location    "0.0005";
    object      T;
}
// * * * * * * * * * * * * * * * * * * * * * * * * * * * * * * * * * * * * * //

dimensions      [0 0 0 1 0 0 0];

internalField   nonuniform List<scalar> 
13761
(
245.8963
245.88108
245.84745
245.79378
245.7209
245.63678
245.55018
245.46729
245.39229
245.32422
245.26933
245.22557
245.19644
245.3625
245.34168
245.29805
245.22996
245.14176
245.04153
244.94141
244.8473
244.76097
244.6853
244.61495
244.55388
244.49901
244.45365
244.41897
244.39637
244.38642
244.3904
244.40967
244.44602
244.50168
244.57952
244.68257
244.81623
244.98553
245.19869
244.7719
244.75019
244.70412
244.63264
244.53911
244.43368
244.32805
244.22926
244.14012
244.0615
243.99374
243.93698
243.89164
243.85822
243.83749
243.8304
243.83824
243.86247
243.90494
243.96755
244.05278
244.1628
244.30167
244.47051
244.67337
244.91199
245.18943
245.50898
245.87173
246.27483
246.71685
247.20214
244.08732
244.06444
244.01629
243.94235
243.84709
243.74172
243.63872
243.54527
243.46411
243.39602
243.34125
243.3
243.27272
243.25999
243.26271
243.28189
243.31895
243.3755
243.45334
243.5546
243.68125
243.83613
244.01991
244.23567
244.4847
244.7684
245.08745
245.44222
245.83089
246.25215
246.70293
247.18628
247.70095
248.24495
248.78902
249.22039
246.49075
246.48952
246.48735
246.48537
246.48508
246.48808
246.49508
246.506
246.52054
246.53848
246.55965
246.58393
246.61104
246.6409
246.67501
246.71391
246.7581
246.80815
246.8645
246.92767
246.99815
247.07644
247.16281
247.25768
247.36164
247.47546
247.59979
247.73533
247.88274
248.04279
248.21644
248.40524
248.612
248.8427
249.10054
249.35189
249.54172
249.68404
249.79846
249.8974
249.98268
250.06041
250.13068
250.19148
250.23088
250.23394
250.18335
250.08269
249.9411
249.81191
249.68932
249.58765
246.62143
246.61739
246.60992
246.59992
246.59004
246.58209
246.57793
246.57772
246.58137
246.58875
246.5997
246.61437
246.63278
246.65509
246.68119
246.71103
246.74492
246.78353
246.82744
246.87744
246.93454
246.99953
247.07354
247.15748
247.25218
247.3587
247.47811
247.61139
247.75932
247.92282
248.10302
248.30186
248.5226
248.77138
249.0501
249.31771
249.51581
249.66238
249.77973
249.88034
249.96631
250.0436
250.11194
250.16933
250.20568
250.2067
250.15638
250.0596
249.92012
249.7881
249.65718
249.5506
249.41808
249.25072
249.03672
248.75649
248.49643
248.32904
248.23748
248.20006
248.14001
247.99711
246.68818
246.68707
246.6845
246.68084
246.67662
246.67249
246.66952
246.66802
246.66829
246.67053
246.67503
246.68214
246.69213
246.70549
246.72256
246.74394
246.76987
246.8008
246.83699
246.87865
246.92597
246.97995
247.04149
247.11168
247.19178
247.28316
247.38772
247.50763
247.64545
247.80333
247.98304
248.18642
248.41649
248.67974
248.97808
249.26488
249.47525
249.62953
249.75254
249.85735
249.94621
250.02585
250.09471
250.15424
250.19109
250.19208
250.14232
250.04761
249.9096
249.77536
249.6366
249.52306
249.39285
249.23961
249.02686
248.75516
248.50003
248.33378
248.24412
248.2075
248.14812
248.00867
247.83592
247.66696
247.51505
247.32406
247.15068
246.82533
246.82539
246.82543
246.82504
246.82359
246.82118
246.81799
246.81457
246.8113
246.80871
246.80723
246.80735
246.80949
246.81414
246.82175
246.8329
246.8481
246.86803
246.89327
246.92472
246.96295
247.00871
247.06269
247.12574
247.19861
247.28198
247.37681
247.48468
247.60754
247.74822
247.91115
248.10201
248.32641
248.59125
248.89798
249.19761
249.42001
249.58455
249.71667
249.82983
249.92601
250.01121
250.08794
250.15219
250.19082
250.19264
250.14349
250.04995
249.91311
249.7783
249.63661
249.52105
249.38993
249.23972
249.02759
248.76212
248.51085
248.34636
248.25696
248.22073
248.15972
248.02114
247.85284
247.69098
247.54434
247.36064
247.19407
247.05649
246.98306
247.00964
247.13747
246.97647
246.97799
246.97979
246.98136
246.98138
246.97985
246.97711
246.97345
246.96951
246.96547
246.962
246.95927
246.95795
246.95827
246.96086
246.96607
246.97453
246.98677
247.00345
247.0253
247.05313
247.08783
247.13034
247.18173
247.24332
247.3165
247.40251
247.50267
247.61835
247.75084
247.90241
248.07698
248.28174
248.52836
248.82748
249.13347
249.36745
249.54294
249.6854
249.80892
249.9145
250.01106
250.09287
250.16175
250.20379
250.20796
250.15998
250.06789
249.93251
249.79775
249.65347
249.53581
249.40216
249.25135
249.0396
248.7758
248.52556
248.36296
248.27322
248.23944
248.17912
248.04364
247.87785
247.72367
247.58212
247.40548
247.24326
247.11479
247.04794
247.08026
247.21133
247.43402
247.71168
248.08115
247.34387
247.33901
247.32811
247.31109
247.28879
247.26422
247.24054
247.21905
247.20036
247.18412
247.17049
247.15913
247.1503
247.14386
247.14016
247.13927
247.14158
247.14742
247.15729
247.17171
247.19135
247.21699
247.24954
247.29005
247.33977
247.40012
247.47272
247.5593
247.66206
247.7836
247.92635
248.09359
248.29076
248.52636
248.80781
249.10091
249.33389
249.51452
249.6649
249.79809
249.91413
250.01583
250.10341
250.17922
250.22671
250.23471
250.18898
250.09827
249.9646
249.83155
249.69036
249.57297
249.4376
249.28183
249.06748
248.80111
248.55155
248.3917
248.30285
248.27191
248.21341
248.08192
247.919
247.7718
247.63356
247.46157
247.29954
247.17676
247.11638
247.15324
247.28799
247.50067
247.76464
248.13375
248.6317
249.1879
249.81725
247.70493
247.6948
247.67292
247.63865
247.5948
247.5465
247.50017
247.45831
247.42276
247.39334
247.36974
247.35104
247.3369
247.32667
247.32016
247.31704
247.31735
247.32104
247.32841
247.33969
247.35542
247.37613
247.40266
247.43591
247.47707
247.52751
247.58888
247.66314
247.75269
247.86037
247.98951
248.14403
248.32955
248.55595
248.83029
249.11745
249.34707
249.5265
249.67701
249.81115
249.92854
250.03428
250.12747
250.20885
250.26275
250.27667
250.235
250.14616
250.01471
249.88383
249.75118
249.63798
249.50366
249.33902
249.11874
248.84788
248.59942
248.44258
248.35589
248.32756
248.27045
248.14123
247.98119
247.83805
247.70093
247.53048
247.36609
247.24479
247.18893
247.23002
247.36591
247.56944
247.82657
248.20361
248.69249
249.21791
249.83299
250.54011
250.93777
247.42927
247.43673
247.44943
247.46523
247.4793
247.48911
247.49344
247.49329
247.49032
247.48565
247.4806
247.4757
247.47177
247.469
247.46793
247.4687
247.47169
247.47711
247.48531
247.49666
247.5116
247.53072
247.55474
247.58451
247.62115
247.6659
247.72046
247.78664
247.86694
247.96412
248.08186
248.2246
248.39839
248.61293
248.87646
249.15591
249.38146
249.55845
249.70789
249.84223
249.96101
250.06947
250.16637
250.25198
250.31253
250.33325
250.29713
250.21118
250.08279
249.95352
249.83372
249.72595
249.59519
249.41952
249.19254
248.91729
248.66973
248.5156
248.43195
248.40543
248.34951
248.22153
248.06405
247.9217
247.78364
247.61085
247.44295
247.32093
247.26958
247.31574
247.44872
247.6435
247.89884
248.28877
248.77721
249.27227
249.85624
250.54968
250.99497
251.15964
250.95414
248.13194
248.11561
248.08296
248.03472
247.97711
247.91693
247.86285
247.81756
247.7808
247.75079
247.72652
247.70697
247.6916
247.6799
247.67159
247.66645
247.66443
247.6655
247.66978
247.67746
247.68886
247.70439
247.72463
247.75031
247.78235
247.82194
247.87052
247.92991
248.00234
248.09064
248.19837
248.33027
248.49276
248.69575
248.94861
249.22078
249.44198
249.61579
249.76316
249.89674
250.01619
250.12638
250.22578
250.3143
250.37988
250.40483
250.37329
250.2902
250.16657
250.03716
249.92737
249.82068
249.69348
249.51141
249.28026
249.00187
248.75358
248.60128
248.52018
248.49529
248.44109
248.31542
248.16008
248.01747
247.87778
247.70008
247.53056
247.40893
247.3637
247.41552
247.54394
247.72706
247.98062
248.37924
248.87175
249.347
249.88696
250.54399
251.00534
251.21482
250.98344
250.55745
247.91367
247.92154
247.93375
247.94731
247.95589
247.95785
247.95297
247.94344
247.93115
247.91729
247.90341
247.88976
247.87743
247.86638
247.85737
247.85033
247.84577
247.84376
247.84469
247.84884
247.85658
247.86841
247.88487
247.90668
247.93475
247.9701
248.01418
248.06853
248.13542
248.21732
248.31778
248.44128
248.59438
248.7876
249.03119
249.29691
249.51428
249.68596
249.83209
249.96518
250.085
250.19625
250.29694
250.38602
250.45245
250.47755
250.44913
250.36954
250.25313
250.12311
250.01581
249.90474
249.78062
249.60091
249.37202
249.09379
248.84313
248.69189
248.61207
248.58931
248.53785
248.41672
248.26306
248.12031
247.98043
247.79995
247.63203
247.51259
247.4736
247.53052
247.65477
247.8245
248.07035
248.46177
248.95083
249.42645
249.92846
250.53169
250.99442
251.26737
251.03344
250.56515
251.19517
251.64841
248.57696
248.55919
248.52497
248.47495
248.41747
248.35853
248.30574
248.25929
248.21991
248.18589
248.15672
248.13134
248.10944
248.09053
248.07445
248.06105
248.05038
248.04251
248.03764
248.03605
248.03809
248.04425
248.05507
248.07133
248.09382
248.12369
248.16218
248.21099
248.2721
248.3481
248.44228
248.55918
248.70517
248.89072
249.1267
249.38686
249.60137
249.77114
249.91571
250.04751
250.16624
250.27649
250.37576
250.46206
250.52431
250.54413
250.51639
250.44003
250.33131
250.20096
250.08971
249.97041
249.85022
249.68114
249.46129
249.18728
248.9339
248.78342
248.70404
248.68388
248.63627
248.52222
248.37176
248.23062
248.09306
247.91233
247.74576
247.6284
247.59192
247.6506
247.77297
247.93291
248.16412
248.53023
249.00009
249.48869
249.98208
250.53163
250.97363
251.29627
251.09951
250.5786
251.20593
251.69712
250.38829
248.55263
248.55331
248.55047
248.54241
248.52475
248.50009
248.47076
248.4406
248.41098
248.38292
248.3568
248.33268
248.3107
248.29068
248.27277
248.25685
248.24313
248.23165
248.22271
248.21657
248.21366
248.21445
248.21955
248.22974
248.24594
248.26927
248.30111
248.34317
248.39754
248.46691
248.55465
248.66542
248.80563
248.98579
249.21669
249.47294
249.68541
249.85411
249.99778
250.12858
250.24593
250.35407
250.45001
250.53113
250.587
250.59996
250.57145
250.49746
250.39441
250.26396
250.14738
250.01964
249.90535
249.74996
249.54332
249.27707
249.02293
248.87403
248.79482
248.77795
248.73512
248.62918
248.48211
248.34417
248.21032
248.03214
247.86584
247.7474
247.70658
247.75953
247.87872
248.03823
248.2569
248.5884
249.02694
249.52237
250.04032
250.55298
250.96354
251.30899
251.16562
250.6018
251.20681
251.73396
250.46233
249.00904
248.75946
248.74992
248.73244
248.70706
248.67822
248.64754
248.61864
248.59171
248.56712
248.54438
248.52314
248.5032
248.48431
248.4665
248.44969
248.43401
248.41956
248.40653
248.39524
248.38595
248.37917
248.37532
248.37516
248.37934
248.38891
248.40503
248.42913
248.46308
248.50902
248.56991
248.64931
248.75224
248.88548
249.05995
249.28688
249.54076
249.75193
249.91956
250.06228
250.19186
250.30757
250.41312
250.50525
250.58086
250.63049
250.63855
250.60992
250.53842
250.4405
250.31085
250.19008
250.05716
249.94854
249.80822
249.6163
249.36003
249.10806
248.96045
248.88092
248.86628
248.8276
248.72774
248.58418
248.44977
248.31994
248.1486
247.98432
247.86191
247.81003
247.84775
247.95878
248.12446
248.3433
248.64576
249.04757
249.5368
250.08889
250.59753
250.97093
251.31877
251.2206
250.63565
251.20466
251.75964
250.53289
249.05205
251.04577
253.98762
249.01914
249.00826
248.98431
248.94918
248.90523
248.85947
248.81607
248.7783
248.74502
248.71632
248.69036
248.66776
248.6473
248.62923
248.6126
248.59763
248.58376
248.57122
248.55986
248.54994
248.54166
248.53545
248.53183
248.53152
248.53535
248.54462
248.56062
248.58545
248.62122
248.67128
248.73931
248.83091
248.9533
249.11821
249.33795
249.58777
249.79706
249.96342
250.105
250.23326
250.34751
250.45115
250.54086
250.61331
250.65945
250.66531
250.63755
250.56856
250.47455
250.34581
250.22314
250.08778
249.98454
249.85756
249.67811
249.4323
249.18499
249.03762
248.9582
248.94309
248.90672
248.8092
248.66855
248.53652
248.41064
248.24997
248.09162
247.96622
247.90086
247.91768
248.01514
248.18552
248.41759
248.70985
249.07786
249.55094
250.12177
250.64643
250.99932
251.33285
251.26215
250.67524
251.20814
251.77719
250.59662
249.09912
251.04411
253.95497
256.04275
248.68372
248.68632
248.69077
248.6975
248.70471
248.71172
248.71655
248.71989
248.72106
248.72126
248.72015
248.71854
248.71585
248.71272
248.70879
248.70455
248.69982
248.69494
248.68997
248.68513
248.68077
248.67711
248.67479
248.67425
248.67644
248.68232
248.69332
248.71124
248.73836
248.77784
248.83366
248.91151
249.01926
249.16938
249.37621
249.61838
249.8252
249.99064
250.13158
250.25915
250.37287
250.47615
250.56578
250.63857
250.68568
250.69331
250.66759
250.60019
250.50759
250.37925
250.25813
250.12401
250.02326
249.90216
249.72828
249.49097
249.25069
249.10486
249.02589
249.00905
248.97361
248.87482
248.73562
248.60293
248.47886
248.32916
248.1803
248.05737
247.98362
247.98037
248.06035
248.22867
248.47709
248.77998
249.12916
249.57923
250.1468
250.68484
251.03883
251.3525
251.29318
250.71629
251.21701
251.79115
250.64995
249.1482
251.04787
253.9256
256.01947
255.0841
248.75076
248.7483
248.744
248.73921
248.73579
248.73487
248.73645
248.74019
248.74509
248.75107
248.75731
248.76369
248.76949
248.77516
248.78034
248.78522
248.7895
248.79333
248.79662
248.79949
248.80209
248.80457
248.80734
248.81072
248.81547
248.82229
248.83244
248.84738
248.86925
248.90083
248.94606
249.01041
249.10195
249.23353
249.42143
249.64998
249.85146
250.01557
250.15625
250.2838
250.39798
250.50228
250.59378
250.66962
250.72135
250.73371
250.70983
250.64109
250.54587
250.4175
250.30195
250.17566
250.07355
249.94878
249.7713
249.53899
249.30568
249.16479
249.087
249.06893
249.03269
248.93021
248.79189
248.6562
248.53129
248.39
248.25153
248.13706
248.06425
248.04899
248.1104
248.26857
248.52614
248.84713
249.19737
249.62664
250.17146
250.7087
251.0707
251.37259
251.31858
250.75884
251.23458
251.8069
250.69523
249.19687
251.05532
253.89682
255.9908
255.09047
252.72232
248.41091
248.42242
248.44531
248.4799
248.52213
248.56784
248.61111
248.65018
248.68411
248.71379
248.73963
248.76255
248.78292
248.80137
248.81811
248.83361
248.84794
248.86136
248.87394
248.88585
248.89725
248.90823
248.91912
248.93007
248.94164
248.95424
248.96883
248.98641
249.00877
249.03811
249.07791
249.13308
249.21121
249.32489
249.4913
249.70162
249.89432
250.05567
250.19566
250.32327
250.43821
250.54396
250.63775
250.71682
250.77301
250.78885
250.76479
250.69194
250.59148
250.46356
250.35448
250.23974
250.13267
249.99701
249.80896
249.57845
249.35217
249.21888
249.14437
249.12732
249.08996
248.98459
248.84668
248.70696
248.57853
248.44107
248.31078
248.20667
248.14376
248.1288
248.17669
248.31929
248.57383
248.90489
249.26668
249.6847
250.20026
250.7223
251.08745
251.39013
251.34351
250.80381
251.26389
251.82817
250.73843
249.24196
251.06354
253.86519
255.95494
255.09391
252.75621
248.76177
248.75729
248.75023
248.74211
248.73735
248.73732
248.74331
248.75351
248.76707
248.78265
248.79972
248.81767
248.83624
248.85491
248.87339
248.89149
248.90949
248.92736
248.94522
248.96305
248.98095
248.99894
249.01714
249.03563
249.05467
249.07452
249.09574
249.119
249.14558
249.17711
249.21641
249.26752
249.33714
249.43662
249.5827
249.7728
249.95466
250.11205
250.25075
250.37811
250.49347
250.59987
250.69437
250.77376
250.83
250.84418
250.81754
250.74098
250.63676
250.51122
250.40593
250.30147
250.18943
250.04358
249.84457
249.61344
249.39286
249.26738
249.19807
249.18399
249.14749
249.04293
248.90558
248.76364
248.63039
248.49187
248.36422
248.26828
248.2176
248.21219
248.25858
248.38716
248.62805
248.95731
249.32643
249.74054
250.23359
250.73496
251.09661
251.40596
251.37185
250.85231
251.3002
251.85337
250.78132
249.28321
251.07285
253.83376
255.91459
255.09326
252.78909
252.26088
248.60194
248.60508
248.61176
248.6224
248.6381
248.65749
248.68002
248.70366
248.72826
248.75288
248.77782
248.80263
248.82758
248.85242
248.87744
248.9027
248.92823
248.9538
248.97935
249.00472
249.03008
249.05577
249.08189
249.10856
249.13592
249.16417
249.19367
249.22486
249.25858
249.29596
249.33906
249.39103
249.45733
249.54787
249.67833
249.85102
250.02206
250.17406
250.31008
250.43608
250.55073
250.65621
250.74915
250.82554
250.87751
250.88604
250.85608
250.77847
250.67409
250.55231
250.44651
250.34817
250.23414
250.08548
249.8827
249.65227
249.43648
249.31716
249.25286
249.24269
249.20887
249.1076
248.9722
248.83065
248.69381
248.55036
248.41997
248.3274
248.28306
248.28887
248.34272
248.46552
248.69101
249.00968
249.37579
249.78666
250.26958
250.7542
251.10607
251.42196
251.40385
250.90137
251.33159
251.87512
250.82324
249.32209
251.08305
253.80944
255.87531
255.09111
252.81806
252.25208
253.94785
248.36915
248.37634
248.39286
248.41923
248.45575
248.49881
248.54451
248.58924
248.63217
248.67264
248.7112
248.74781
248.78311
248.81712
248.85037
248.88283
248.91486
248.94667
248.97859
249.01093
249.04401
249.0777
249.11184
249.14655
249.18229
249.2192
249.25757
249.29764
249.34005
249.38553
249.43558
249.49258
249.56082
249.64864
249.76953
249.92871
250.08906
250.23431
250.36642
250.48991
250.60266
250.70586
250.7958
250.86765
250.91372
250.91554
250.88251
250.80551
250.70317
250.58507
250.47658
250.38127
250.26857
250.12445
249.92602
249.69958
249.48758
249.37142
249.31031
249.30326
249.27256
249.17627
249.04418
248.90499
248.76881
248.61931
248.48355
248.38937
248.34468
248.35638
248.41641
248.54155
248.75691
249.06365
249.41924
249.82325
250.30564
250.78341
251.12233
251.43944
251.43601
250.94532
251.35155
251.89084
250.8638
249.36439
251.09453
253.794
255.84056
255.08811
252.83571
252.24105
253.88517
254.15404
248.28988
248.29893
248.31878
248.34988
248.39222
248.44062
248.49129
248.53982
248.58612
248.62919
248.67025
248.70909
248.74677
248.7832
248.81916
248.85468
248.89028
248.92609
248.96238
248.99933
249.03689
249.07547
249.11528
249.15687
249.20011
249.24484
249.29158
249.34058
249.3923
249.44722
249.50649
249.57196
249.64696
249.73844
249.85775
250.00901
250.15993
250.29803
250.42522
250.54496
250.65455
250.75454
250.84103
250.90851
250.9489
250.94519
250.90822
250.83074
250.72939
250.61321
250.50197
250.40875
250.29915
250.16245
249.97277
249.75368
249.54594
249.43042
249.37082
249.36496
249.33672
249.24477
249.11568
248.97963
248.84758
248.69359
248.55426
248.45603
248.40844
248.41893
248.48008
248.60727
248.81821
249.11901
249.46145
249.85511
250.34045
250.821
251.149
251.45876
251.46369
250.98074
251.3645
251.90344
250.90714
249.41678
251.10715
253.78187
255.80952
255.08117
252.838
252.22195
253.81432
254.08852
251.48623
248.1583
248.17154
248.20046
248.2442
248.30075
248.36323
248.42563
248.48332
248.53628
248.58409
248.62846
248.66953
248.70885
248.74651
248.78367
248.82045
248.85759
248.8953
248.93396
248.97384
249.01514
249.05818
249.10309
249.14999
249.19909
249.2508
249.30544
249.36255
249.4227
249.48659
249.55521
249.63
249.71395
249.81322
249.93794
250.08897
250.23578
250.36908
250.49205
250.608
250.71402
250.81069
250.8943
250.95886
250.99523
250.98691
250.94431
250.86323
250.75987
250.64328
250.53075
250.43971
250.33336
250.20262
250.0202
249.80849
249.60661
249.49089
249.43191
249.42627
249.39969
249.31022
249.18328
249.04945
248.92207
248.76663
248.62623
248.52578
248.47574
248.48256
248.54151
248.66495
248.87424
249.17357
249.50581
249.88785
250.37374
250.86207
251.18387
251.48002
251.48438
251.0137
251.37747
251.91611
250.95631
249.47765
251.11469
253.76448
255.7794
255.07286
252.82939
252.19324
253.7398
254.02423
251.45533
248.03966
248.05841
248.09732
248.15462
248.22584
248.30168
248.37491
248.44028
248.49863
248.54964
248.59601
248.63791
248.67757
248.71509
248.75207
248.78865
248.82585
248.864
248.90348
248.94476
248.98797
249.03352
249.08143
249.132
249.18539
249.24172
249.30134
249.36459
249.43239
249.50449
249.58215
249.66678
249.76132
249.87137
250.0061
250.16343
250.31141
250.44275
250.56297
250.67605
250.77938
250.87391
250.95618
251.01992
251.05504
251.04447
250.99709
250.90934
250.80124
250.68268
250.57084
250.48255
250.37785
250.24957
250.06957
249.86217
249.66649
249.55138
249.49327
249.48761
249.46222
249.37405
249.24876
249.11603
248.99277
248.83758
248.69877
248.59878
248.54743
248.55282
248.60791
248.72357
248.9294
249.22737
249.55429
249.92393
250.40507
250.89973
251.219
251.50127
251.50324
251.04584
251.39499
251.93277
251.00479
249.53167
251.1106
253.7332
255.74539
255.06373
252.8177
252.15912
253.66665
253.9646
251.43081
248.40305
248.22021
248.23656
248.26911
248.31527
248.36993
248.42625
248.47937
248.52597
248.56764
248.6041
248.63808
248.66939
248.70023
248.73029
248.76112
248.79244
248.82515
248.85922
248.89536
248.93393
248.97519
249.01964
249.06741
249.11872
249.17389
249.23292
249.2963
249.36399
249.43684
249.51537
249.60053
249.6935
249.79727
249.91708
250.06141
250.22621
250.3771
250.50818
250.62699
250.73859
250.84055
250.93428
251.01612
251.07979
251.11486
251.10419
251.05603
250.9664
250.85665
250.73887
250.62988
250.54317
250.43746
250.30548
250.12312
249.9162
249.72487
249.61151
249.55469
249.54937
249.52552
249.4396
249.31529
249.18407
249.06347
248.90981
248.7739
248.67542
248.62531
248.63219
248.68371
248.7909
248.98878
249.28163
249.60535
249.9625
250.43247
250.92732
251.24652
251.52079
251.51732
251.07055
251.41437
251.94918
251.04183
249.56962
251.09484
253.6882
255.7043
255.05666
252.81338
252.12516
253.59677
253.90779
251.4066
248.40587
246.49059
248.26135
248.27792
248.31106
248.35781
248.41247
248.46894
248.52154
248.56752
248.60791
248.64281
248.67466
248.70344
248.7313
248.75805
248.78532
248.813
248.84221
248.873
248.90594
248.94128
248.97927
249.02037
249.06484
249.11346
249.16669
249.22478
249.28838
249.35747
249.433
249.51503
249.60517
249.70468
249.81642
249.94588
250.10095
250.27474
250.42967
250.56153
250.67997
250.79122
250.89288
250.98651
251.06813
251.1314
251.16628
251.15625
251.11071
251.02556
250.92111
250.80604
250.69732
250.60862
250.50271
250.36972
250.18307
249.97341
249.78313
249.67045
249.61437
249.60959
249.58768
249.50573
249.38324
249.25531
249.13566
248.98396
248.84808
248.75125
248.70442
248.71441
248.76512
248.86663
249.05413
249.33654
249.6555
250.00123
250.45296
250.94019
251.25738
251.52845
251.52463
251.08525
251.42704
251.95923
251.06873
249.59866
251.0829
253.6427
255.65625
255.05119
252.81481
252.0932
253.52838
253.84958
251.37947
248.40859
246.49371
248.76186
248.76702
248.77456
248.78313
248.7905
248.79592
248.80096
248.8052
248.81073
248.81661
248.82461
248.83375
248.84533
248.85852
248.87426
248.89204
248.91248
248.93543
248.96124
248.99005
249.02214
249.05791
249.09749
249.14139
249.18997
249.24376
249.30347
249.36968
249.44341
249.5253
249.61668
249.71941
249.83648
249.97336
250.13775
250.32034
250.47977
250.61308
250.73176
250.84318
250.94493
251.03869
251.12011
251.18304
251.21798
251.209
251.16703
251.08747
250.98783
250.87257
250.76034
250.66713
250.56327
250.43498
250.24957
250.03586
249.84286
249.72833
249.6719
249.66738
249.64626
249.56705
249.44858
249.32598
249.20568
249.05556
248.91568
248.81971
248.77584
248.7888
248.84198
248.94352
249.12254
249.39178
249.70423
250.03895
250.46792
250.93855
251.25267
251.52728
251.52835
251.09759
251.4354
251.9675
251.09263
249.6302
251.08449
253.61086
255.60557
255.04179
252.81678
252.06158
253.45879
253.78742
251.34889
248.40734
246.49644
245.73613
248.88149
248.88063
248.88008
248.87908
248.87845
248.87952
248.88249
248.88735
248.89381
248.90154
248.91067
248.92085
248.93247
248.94532
248.95983
248.97588
248.99388
249.01389
249.03622
249.06111
249.08883
249.11982
249.15432
249.1929
249.23595
249.28417
249.33823
249.39899
249.46751
249.54499
249.63323
249.7346
249.85266
249.99352
250.16493
250.35527
250.51941
250.65472
250.77426
250.88637
250.98875
251.08319
251.16499
251.22832
251.26443
251.25749
251.21909
251.14323
251.04359
250.92445
250.80749
250.71022
250.6098
250.48882
250.30872
250.0956
249.90056
249.78439
249.72594
249.72132
249.69937
249.62049
249.50686
249.38929
249.26713
249.1188
248.9731
248.8774
248.8343
248.84915
248.90657
249.01266
249.18826
249.44739
249.75354
250.07821
250.48488
250.93443
251.24008
251.51884
251.5312
251.11155
251.44658
251.98223
251.12339
249.67324
251.09948
253.59242
255.55733
255.02345
252.81361
252.02781
253.38646
253.72122
251.31584
248.40451
246.49877
245.73763
245.51977
249.2041
249.19806
249.1838
249.16241
249.13667
249.11001
249.08747
249.06979
249.05796
249.05075
249.04813
249.04904
249.05336
249.06034
249.06993
249.08175
249.09581
249.11203
249.13053
249.15145
249.17502
249.20158
249.23147
249.2652
249.30326
249.34638
249.39522
249.4508
249.51416
249.5868
249.67054
249.76802
249.88308
250.02245
250.19491
250.38872
250.55563
250.69235
250.81245
250.92458
251.02666
251.12046
251.20144
251.26458
251.30217
251.29792
251.26211
251.18731
251.08575
250.96335
250.84534
250.74781
250.65079
250.53505
250.35989
250.15004
249.95458
249.83888
249.77849
249.77345
249.74984
249.66909
249.55875
249.44303
249.31966
249.17315
249.02347
248.927
248.88173
248.8969
248.9578
249.06863
249.24517
249.50073
249.80336
250.12247
250.51518
250.94103
251.23556
251.51155
251.53476
251.13101
251.46681
252.01093
251.16887
249.73064
251.12478
253.57916
255.51245
254.99409
252.80275
251.99088
253.31134
253.65222
251.28119
248.40028
246.501
245.7394
245.52032
249.19592
249.18665
249.17045
249.14903
249.12744
249.10949
249.0976
249.09216
249.09167
249.09554
249.1023
249.11176
249.12297
249.13597
249.1502
249.16577
249.18246
249.2004
249.21964
249.24036
249.26287
249.28744
249.31457
249.34477
249.37868
249.41713
249.46095
249.51136
249.56953
249.63719
249.71621
249.8094
249.92077
250.05738
250.2285
250.42257
250.58986
250.72671
250.84677
250.95851
251.05998
251.1529
251.23297
251.29574
251.3341
251.3316
251.2972
251.22266
251.12048
250.99778
250.88116
250.78479
250.68903
250.57504
250.40301
250.1983
250.0049
249.89252
249.83213
249.82678
249.80236
249.71946
249.6109
249.49449
249.37192
249.22769
249.07883
248.97924
248.92939
248.94208
249.00343
249.11461
249.29195
249.54841
249.84942
250.16873
250.56104
250.96913
251.25131
251.51954
251.5458
251.15711
251.49771
252.05172
251.2263
249.79697
251.14986
253.56379
255.46745
254.95507
252.78436
251.95101
253.23384
253.58143
251.24541
248.39502
246.50309
245.7412
245.52091
245.48311
249.22824
249.22203
249.20911
249.19189
249.17386
249.15846
249.14857
249.14471
249.146
249.15181
249.16093
249.17309
249.18731
249.20355
249.22111
249.24006
249.26001
249.28103
249.30304
249.32609
249.3504
249.37608
249.40358
249.4332
249.46559
249.50146
249.54164
249.58738
249.63997
249.70137
249.7738
249.86045
249.96582
250.09721
250.26419
250.45566
250.62218
250.75867
250.87819
250.98904
251.0894
251.18088
251.2596
251.32177
251.36104
251.36077
251.32789
251.25412
251.15397
251.03638
250.92672
250.83391
250.73494
250.61539
250.44047
250.23993
250.0511
249.94464
249.88705
249.88205
249.85837
249.77486
249.6675
249.55
249.43128
249.29178
249.14889
249.04558
248.98996
248.9976
249.05536
249.16062
249.33511
249.59232
249.88917
250.21081
250.61265
251.01846
251.29487
251.55176
251.57045
251.18803
251.53162
252.0895
251.27847
249.8615
251.16957
253.54404
255.41928
254.9089
252.76097
251.90834
253.15417
253.50925
251.20881
248.38911
246.50499
245.74297
245.5215
245.48319
249.20927
249.20332
249.19263
249.17956
249.16765
249.16011
249.15796
249.16156
249.16921
249.1809
249.19507
249.21201
249.23059
249.25116
249.27295
249.29624
249.3206
249.34615
249.37277
249.40047
249.42938
249.45946
249.49106
249.52431
249.55966
249.59759
249.63876
249.6842
249.73502
249.79308
249.86056
249.9408
250.03856
250.1617
250.32067
250.50644
250.67037
250.80551
250.92375
251.03315
251.13209
251.22217
251.30006
251.36276
251.4046
251.40837
251.37709
251.30402
251.20778
251.10175
251.00714
250.92118
250.81189
250.67238
250.48332
250.28256
250.09975
250.00038
249.94775
249.94294
249.92057
249.83712
249.72969
249.6104
249.49756
249.36424
249.23042
249.12587
249.06639
249.06906
249.12058
249.21594
249.38364
249.63757
249.92553
250.24781
250.659
251.07122
251.35258
251.60148
251.60548
251.22323
251.5629
252.11327
251.31398
249.91266
251.18323
253.52069
255.36731
254.85898
252.73383
251.86252
253.07244
253.43571
251.1715
248.38267
246.50669
245.74468
245.52207
245.48327
245.48012
249.1747
249.17204
249.16697
249.16179
249.15839
249.15888
249.16329
249.17193
249.18332
249.19778
249.21409
249.2328
249.25298
249.27517
249.29875
249.32413
249.35099
249.37957
249.40979
249.44171
249.47549
249.51105
249.54869
249.58841
249.63054
249.67533
249.72318
249.77479
249.83092
249.893
249.96278
250.04325
250.13884
250.25739
250.40973
250.5886
250.74706
250.87814
250.99315
251.09998
251.19746
251.2873
251.36669
251.43269
251.47929
251.48731
251.45598
251.38008
251.28353
251.18819
251.11049
251.03312
250.91162
250.74469
250.53467
250.33036
250.15411
250.0619
250.01513
250.01105
249.98997
249.90669
249.7974
249.67562
249.56696
249.43829
249.31217
249.20929
249.14989
249.14985
249.19561
249.28135
249.44093
249.68637
249.96281
250.28283
250.69575
251.11263
251.39951
251.64996
251.64648
251.26542
251.59469
252.12459
251.3346
249.94734
251.19003
253.49236
255.31006
254.80744
252.70264
251.81296
252.9889
253.3609
251.13347
248.37554
246.50814
245.74633
245.52264
245.48335
245.48012
249.27353
249.27198
249.26867
249.26519
249.26204
249.26124
249.26235
249.26648
249.27228
249.28062
249.29041
249.3025
249.31607
249.33196
249.34978
249.37012
249.3927
249.41787
249.44556
249.47591
249.50911
249.54517
249.58441
249.62685
249.67284
249.72257
249.77636
249.83471
249.89809
249.96754
250.04427