/*--------------------------------*- C++ -*----------------------------------*\
| =========                 |                                                 |
| \\      /  F ield         | OpenFOAM: The Open Source CFD Toolbox           |
|  \\    /   O peration     | Version:  2506                                  |
|   \\  /    A nd           | Website:  www.openfoam.com                      |
|    \\/     M anipulation  |                                                 |
\*---------------------------------------------------------------------------*/
FoamFile
{
    version     2.0;
    format      ascii;
    arch        "LSB;label=32;scalar=64";
    class       volScalarField;
    location    "0.0305";
    object      T;
}
// * * * * * * * * * * * * * * * * * * * * * * * * * * * * * * * * * * * * * //

dimensions      [0 0 0 1 0 0 0];

internalField   nonuniform List<scalar> 
13763
(
244.70004
244.68031
244.68416
244.69285
244.68682
244.65598
244.60314
244.54165
244.48712
244.45552
244.46106
244.51333
244.60788
244.7187
244.802
244.81363
244.73332
244.57398
244.37055
244.15822
243.95639
243.76755
243.58853
243.42387
243.28782
243.19498
243.14901
243.13608
243.13246
243.12087
243.09266
243.06763
243.02179
243.0657
242.9296
243.30681
242.66561
243.98694
242.36318
245.20512
243.60278
245.95565
244.92942
246.88185
246.25988
247.34931
246.91955
247.21756
244.69958
244.6799
244.68385
244.69262
244.68663
244.65578
244.60287
244.54132
244.48674
244.45511
244.46068
244.51304
244.60775
244.71874
244.80217
244.81384
244.73342
244.57392
244.37031
244.15784
243.95593
243.76702
243.58792
243.42317
243.28707
243.1942
243.14826
243.13539
243.13181
243.12024
243.09202
243.06696
243.02107
243.06498
242.92878
243.3061
242.66462
243.98636
242.36199
245.20497
243.60174
245.95573
244.92938
246.88217
246.26049
247.34978
246.92022
247.21789
246.88598
246.74726
244.6991
244.67947
244.68352
244.69238
244.68643
244.65556
244.6026
244.54097
244.48633
244.45468
244.46028
244.51274
244.6076
244.71879
244.80236
244.81405
244.73354
244.57385
244.37006
244.15745
243.95544
243.76646
243.58728
243.42245
243.28627
243.19338
243.14747
243.13466
243.13113
243.11958
243.09134
243.06626
243.02032
243.06424
242.92793
243.30535
242.6636
243.98574
242.36075
245.20479
243.60065
245.9558
244.92933
246.8825
246.26112
247.35028
246.92092
247.21824
246.8864
246.74737
246.51373
244.69858
244.67902
244.68317
244.69213
244.68622
244.65533
244.60231
244.5406
244.4859
244.45423
244.45985
244.51241
244.60745
244.71884
244.80255
244.81427
244.73366
244.57379
244.36979
244.15703
243.95492
243.76587
243.58661
243.42169
243.28544
243.19252
243.14664
243.13389
243.13042
243.11889
243.09063
243.06552
243.01954
243.06345
242.92703
243.30456
242.66252
243.98509
242.35946
245.20458
243.59952
245.95588
244.92928
246.88286
246.26177
247.35081
246.92165
247.21861
246.88684
246.7475
246.51385
246.30236
246.13339
244.69804
244.67854
244.6828
244.69186
244.686
244.65509
244.602
244.54022
244.48546
244.45376
244.45941
244.51208
244.6073
244.71888
244.80275
244.81451
244.73378
244.57372
244.36951
244.1566
243.95438
243.76525
243.58591
243.42089
243.28456
243.19161
243.14577
243.13309
243.12967
243.11816
243.08988
243.06474
243.01871
243.06262
242.92609
243.30373
242.6614
243.98439
242.35811
245.20436
243.59834
245.95597
244.92923
246.88324
246.26245
247.35137
246.9224
247.219
246.8873
246.74763
246.51398
246.30233
246.13333
245.9938
245.88621
244.69747
244.67803
244.68241
244.69157
244.68577
244.65484
244.60167
244.53981
244.48498
244.45325
244.45894
244.51172
244.60713
244.71894
244.80297
244.81476
244.73392
244.57364
244.36922
244.15613
243.95381
243.7646
243.58517
243.42004
243.28363
243.19066
243.14485
243.13224
243.12888
243.11739
243.08909
243.06393
243.01784
243.06175
242.92509
243.30286
242.66022
243.98365
242.3567
245.20412
243.5971
245.95606
244.92917
246.88365
246.26317
247.35197
246.9232
247.21941
246.88778
246.74776
246.51411
246.3023
246.13327
245.99371
245.8861
245.80375
245.7398
244.69686
244.67749
244.682
244.69127
244.68552
244.65457
244.60133
244.53938
244.48448
244.45272
244.45844
244.51134
244.60695
244.71899
244.8032
244.81502
244.73406
244.57356
244.36891
244.15565
243.95321
243.76391
243.58438
243.41915
243.28265
243.18966
243.14389
243.13135
243.12805
243.11658
243.08826
243.06307
243.01692
243.06083
242.92405
243.30193
242.65898
243.98286
242.35523
245.20386
243.59581
245.95616
244.9291
246.88408
246.26391
247.35259
246.92404
247.21985
246.88828
246.74791
246.51424
246.30227
246.13321
245.9936
245.88599
245.80364
245.7397
245.69491
245.6579
245.63661
244.69622
244.67693
244.68156
244.69096
244.68526
244.65428
244.60097
244.53893
244.48395
244.45216
244.45791
244.51094
244.60677
244.71905
244.80344
244.81529
244.73421
244.57348
244.36859
244.15514
243.95258
243.76319
243.58356
243.41822
243.28163
243.1886
243.14287
243.13041
243.12717
243.11573
243.08739
243.06217
243.01596
243.05986
242.92296
243.30095
242.65769
243.98203
242.35369
245.20358
243.59445
245.95626
244.92903
246.88454
246.2647
247.35325
246.92491
247.22031
246.88881
246.74806
246.51438
246.30224
246.13314
245.9935
245.88587
245.80353
245.73959
245.69481
245.65781
245.63653
245.61401
245.60759
244.69554
244.67632
244.68109
244.69062
244.68498
244.65398
244.60058
244.53845
244.48339
244.45157
244.45736
244.51052
244.60657
244.7191
244.80369
244.81558
244.73437
244.57339
244.36824
244.1546
243.95192
243.76243
243.58269
243.41723
243.28055
243.18749
243.1418
243.12942
243.12625
243.11483
243.08647
243.06122
243.01494
243.05884
242.9218
243.29992
242.65633
243.98115
242.35208
245.20328
243.59303
245.95637
244.92896
246.88502
246.26551
247.35395
246.92583
247.2208
246.88936
246.74822
246.51453
246.3022
246.13307
245.99338
245.88575
245.8034
245.73947
245.69471
245.65772
245.63645
245.61394
245.60752
244.69482
244.67568
244.6806
244.69026
244.68469
244.65367
244.60018
244.53794
244.4828
244.45094
244.45677
244.51008
244.60636
244.71917
244.80395
244.81589
244.73453
244.5733
244.36788
244.15403
243.95122
243.76163
243.58178
243.41619
243.27941
243.18631
243.14067
243.12838
243.12528
243.11389
243.08551
243.06022
243.01388
243.05777
242.92059
243.29883
242.6549
243.98021
242.35039
245.20295
243.59154
245.95649
244.92888
246.88554
246.26637
247.35469
246.92679
247.22131
246.88994
246.74839
246.51468
246.30217
246.13299
245.99327
245.88562
245.80328
245.73935
245.6946
245.65762
245.63636
245.61387
245.60745
244.69406
244.675
244.68008
244.68989
244.68438
244.65333
244.59975
244.53741
244.48218
244.45028
244.45615
244.5096
244.60614
244.71923
244.80423
244.81622
244.73471
244.5732
244.36749
244.15343
243.95048
243.76078
243.58082
243.4151
243.27821
243.18508
243.13948
243.12728
243.12426
243.1129
243.08449
243.05916
243.01276
243.05664
242.91932
243.29769
242.65341
243.97921
242.34864
245.20259
243.58998
245.95661
244.92879
246.88609
246.26726
247.35547
246.92779
247.22185
246.89054
246.74858
246.51484
246.30213
246.13291
245.99314
245.88549
245.80314
245.73923
245.69448
245.65752
245.63627
245.61379
245.60738
244.69325
244.67428
244.67952
244.68949
244.68405
244.65297
244.5993
244.53684
244.48152
244.44958
244.4555
244.50911
244.6059
244.7193
244.80453
244.81656
244.73489
244.5731
244.36709
244.15279
243.9497
243.7599
243.57981
243.41395
243.27694
243.18378
243.13823
243.12613
243.12319
243.11186
243.08342
243.05805
243.01158
243.05545
242.91799
243.29647
242.65184
243.97815
242.3468
245.20221
243.58835
245.95675
244.9287
246.88668
246.26819
247.35629
246.92884
247.22243
246.89117
246.74877
246.51501
246.3021
246.13283
245.99301
245.88534
245.803
245.7391
245.69436
245.65741
245.63617
245.61371
245.6073
244.69239
244.67352
244.67894
244.68906
244.68371
244.6526
244.59882
244.53624
244.48082
244.44884
244.4548
244.50858
244.60565
244.71937
244.80484
244.81692
244.73509
244.57299
244.36666
244.15213
243.94888
243.75896
243.57874
243.41273
243.27561
243.18241
243.13691
243.12491
243.12206
243.11076
243.0823
243.05689
243.01033
243.0542
242.91658
243.29519
242.6502
243.97702
242.34488
245.20179
243.58664
245.95689
244.92859
246.8873
246.26917
247.35717
246.92995
247.22303
246.89184
246.74898
246.51518
246.30206
246.13274
245.99287
245.88519
245.80285
245.73896
245.69423
245.6573
245.63607
245.61363
245.60722
244.69148
244.6727
244.67831
244.68861
244.68334
244.6522
244.59831
244.53561
244.48008
244.44806
244.45407
244.50802
244.60539
244.71945
244.80517
244.8173
244.73529
244.57287
244.36621
244.15142
243.94801
243.75797
243.57761
243.41145
243.27421
243.18096
243.13553
243.12363
243.12087
243.1096
243.08111
243.05566
243.00903
243.05288
242.91511
243.29384
242.64848
243.97582
242.34287
245.20133
243.58485
245.95705
244.92848
246.88797
246.27019
247.35809
246.9311
247.22367
246.89253
246.74919
246.51536
246.30202
246.13264
245.99273
245.88503
245.80269
245.73881
245.6941
245.65718
245.63596
245.61354
245.60714
244.69051
244.67184
244.67765
244.68813
244.68295
244.65178
244.59778
244.53494
244.4793
244.44723
244.45329
244.50743
244.60511
244.71953
244.80552
244.8177
244.73551
244.57275
244.36574
244.15068
243.9471
243.75693
243.57643
243.41011
243.27273
243.17944
243.13406
243.12228
243.11961
243.10838
243.07986
243.05436
243.00765
243.05149
242.91356
243.2924
242.64668
243.97455
242.34077
245.20084
243.58298
245.95721
244.92836
246.88867
246.27125
247.35906
246.93231
247.22435
246.89325
246.74942
246.51554
246.30198
246.13254
245.99258
245.88487
245.80253
245.73866
245.69396
245.65706
245.63585
245.61344
245.60705
244.68948
244.67092
244.67694
244.68762
244.68253
244.65133
244.59721
244.53423
244.47848
244.44635
244.45247
244.50681
244.60482
244.71961
244.80588
244.81813
244.73573
244.57262
244.36524
244.1499
243.94613
243.75583
243.57518
243.40869
243.27117
243.17784
243.13252
243.12086
243.11829
243.1071
243.07855
243.053
243.0062
243.05002
242.91193
243.29089
242.64479
243.97319
242.33859
245.20031
243.58101
245.95739
244.92823
246.88942
246.27236
247.36009
246.93358
247.22507
246.89401
246.74967
246.51574
246.30193
246.13244
245.99242
245.88469
245.80235
245.7385
245.69381
245.65693
245.63573
245.61334
245.60696
244.68838
244.66995
244.67619
244.68708
244.68209
244.65086
244.59661
244.53348
244.4776
244.44543
244.4516
244.50614
244.6045
244.71969
244.80627
244.81858
244.73598
244.57248
244.36471
244.14907
243.94512
243.75467
243.57386
243.40719
243.26953
243.17614
243.1309
243.11937
243.1169
243.10575
243.07716
243.05157
243.00468
243.04847
242.91022
243.28929
242.64281
243.97175
242.3363
245.19973
243.57896
245.95758
244.92809
246.89022
246.27353
247.36118
246.9349
247.22583
246.8948
246.74993
246.51594
246.30189
246.13232
245.99225
245.88451
245.80217
245.73833
245.69366
245.65679
245.63561
245.61324
245.60686
244.68722
244.66891
244.6754
244.68651
244.68162
244.65035
244.59597
244.53268
244.47668
244.44444
244.45068
244.50544
244.60417
244.71979
244.80668
244.81905
244.73623
244.57233
244.36414
244.14819
243.94405
243.75345
243.57247
243.40561
243.2678
243.17436
243.12919
243.11779
243.11544
243.10433
243.07571
243.05005
243.00307
243.04684
242.90842
243.2876
242.64074
243.97022
242.33392
245.19911
243.5768
245.95778
244.92793
246.89107
246.27474
247.36234
246.93629
247.22663
246.89562
246.7502
246.51614
246.30184
246.1322
245.99208
245.88431
245.80198
245.73815
245.6935
245.65665
245.63548
245.61313
245.60676
244.68598
244.6678
244.67454
244.6859
244.68112
244.64982
244.5953
244.53184
244.4757
244.4434
244.4497
244.5047
244.60382
244.71988
244.80711
244.81955
244.7365
244.57218
244.36355
244.14727
243.94292
243.75217
243.57101
243.40394
243.26597
243.17248
243.12738
243.11613
243.1139
243.10283
243.07417
243.04846
243.00138
243.04512
242.90652
243.28581
242.63857
243.96858
242.33143
245.19843
243.57454
245.95801
244.92777
246.89198
246.27601
247.36356
246.93774
247.22748
246.89648
246.7505
246.51636
246.3018
246.13208
245.99189
245.88411
245.80178
245.73796
245.69332
245.65649
245.63534
245.61301
245.60665
244.68467
244.66663
244.67364
244.68524
244.6806
244.64925
244.59458
244.53094
244.47466
244.4423
244.44867
244.50391
244.60344
244.71998
244.80757
244.82008
244.73678
244.57201
244.36292
244.1463
243.94172
243.75081
243.56946
243.40218
243.26404
243.1705
243.12548
243.11437
243.11227
243.10125
243.07255
243.04678
242.9996
243.04331
242.90453
243.28392
242.63629
243.96684
242.32883
245.1977
243.57217
245.95824
244.92758
246.89295
246.27733
247.36485
246.93926
247.22838
246.89739
246.75081
246.51658
246.30175
246.13195
245.99169
245.8839
245.80157
245.73776
245.69315
245.65634
245.6352
245.61289
245.60653
244.68327
244.66537
244.67267
244.68455
244.68003
244.64865
244.59382
244.52999
244.47356
244.44113
244.44757
244.50308
244.60305
244.72009
244.80805
244.82064
244.73708
244.57184
244.36226
244.14527
243.94046
243.74937
243.56783
243.40033
243.262
243.16841
243.12347
243.11253
243.11055
243.09958
243.07085
243.04501
242.99772
243.0414
242.90244
243.28191
242.63391
243.96499
242.32612
245.1969
243.56968
245.9585
244.92738
246.89397
246.27872
247.36622
246.94085
247.22933
246.89833
246.75114
246.51682
246.3017
246.13181
245.99149
245.88367
245.80135
245.73756
245.69296
245.65617
245.63505
245.61277
245.60641
244.68177
244.66403
244.67164
244.68381
244.67943
244.64801
244.59301
244.52898
244.47239
244.43989
244.44641
244.50219
244.60262
244.7202
244.80856
244.82123
244.73739
244.57165
244.36156
244.14418
243.93913
243.74786
243.56611
243.39837
243.25986
243.1662
243.12135
243.11058
243.10875
243.09783
243.06905
243.04314
242.99575
243.03938
242.90024
243.27979
242.63142
243.96302
242.32329
245.19604
243.56707
245.95878
244.92717
246.89507
246.28016
247.36767
246.94252
247.23034
246.89931
246.75149
246.51706
246.30164
246.13166
245.99127
245.88343
245.80111
245.73734
245.69276
245.65599
245.63489
245.61263
245.60629
244.68018
244.6626
244.67054
244.68301
244.67879
244.64733
244.59215
244.52791
244.47115
244.43858
244.44518
244.50125
244.60218
244.72031
244.8091
244.82185
244.73773
244.57145
244.36081
244.14302
243.93772
243.74626
243.56429
243.3963
243.25759
243.16387
243.11912
243.10853
243.10684
243.09598
243.06715
243.04118
242.99367
243.03726
242.89793
243.27754
242.6288
243.96092
242.32034
245.1951
243.56434
245.95908
244.92693
246.89624
246.28167
247.3692
246.94426
247.23141
246.90034
246.75186
246.5173
246.30159
246.1315
245.99104
245.88319
245.80087
245.73711
245.69255
245.65581
245.63473
245.6125
245.60616
244.67848
244.66107
244.66936
244.68217
244.67811
244.6466
244.59124
244.52678
244.46983
244.43718
244.44387
244.50025
244.6017
244.72043
244.80967
244.82251
244.73808
244.57124
244.36002
244.1418
243.93623
243.74457
243.56237
243.39412
243.2552
243.16141
243.11676
243.10636
243.10483
243.09403
243.06516
243.0391
242.99147
243.03501
242.8955
243.27517
242.62607
243.95867
242.31727
245.19409
243.56146
245.95941
244.92667
246.89748
246.28325
247.37082
246.94609
247.23254
246.90142
246.75226
246.51756
246.30153
246.13134
245.9908
245.88292
245.80061
245.73687
245.69233
245.65562
245.63455
245.61235
245.60602
244.67667
244.65943
244.6681
244.68126
244.67738
244.64583
244.59027
244.52557
244.46843
244.4357
244.44248
244.49919
244.60119
244.72056
244.81028
244.82321
244.73845
244.57102
244.35919
244.14051
243.93466
243.74279
243.56035
243.39182
243.25267
243.15881
243.11427
243.10407
243.10272
243.09197
243.06305
243.03691
242.98916
243.03264
242.89295
243.27265
242.6232
243.95629
242.31406
245.19299
243.55844
245.95977
244.92639
246.89881
246.28489
247.37254
246.948
247.23374
246.90254
246.75268
246.51783
246.30147
246.13116
245.99055
245.88265
245.80033
245.73662
245.6921
245.65541
245.63437
245.6122
245.60587
244.67473
244.65768
244.66674
244.68029
244.6766
244.645
244.58923
244.52429
244.46695
244.43412
244.441
244.49806
244.60065
244.72069
244.81092
244.82395
244.73884
244.57078
244.3583
244.13915
243.933
243.74091
243.55821
243.38939
243.25
243.15607
243.11164
243.10166
243.10048
243.0898
243.06083
243.0346
242.98672
243.03014
242.89026
243.26998
242.6202
243.95374
242.31072
245.1918
243.55527
245.96015
244.92609
246.90022
246.2866
247.37436
246.94999
247.23501
246.90371
246.75313
246.5181
246.30141
246.13097
245.99029
245.88236
245.80005
245.73636
245.69186
245.6552
245.63418
245.61203
245.60572
244.67266
244.6558
244.66529
244.67925
244.67576
244.64412
244.58813
244.52292
244.46537
244.43244
244.43943
244.49685
244.60007
244.72083
244.81159
244.82474
244.73925
244.57052
244.35736
244.1377
243.93124
243.73892
243.55595
243.38682
243.24718
243.15317
243.10887
243.09911
243.09812
243.08751
243.05849
243.03217
242.98416
243.0275
242.88743
243.26714
242.61705
243.95102
242.30724
245.19052
243.55193
245.96057
244.92576
246.90172
246.2884
247.37629
246.95208
247.23636
246.90493
246.75361
246.51839
246.30135
246.13078
245.99001
245.88205
245.79975
245.73608
245.69161
245.65498
245.63397
245.61187
245.60556
244.67045
244.65379
244.66374
244.67813
244.67487
244.64318
244.58696
244.52147
244.46368
244.43066
244.43776
244.49558
244.59946
244.72098
244.81231
244.82557
244.73968
244.57025
244.35637
244.13617
243.92938
243.73681
243.55356
243.3841
243.2442
243.15011
243.10594
243.09642
243.09564
243.0851
243.05601
243.0296
242.98145
243.0247
242.88446
243.26414
242.61376
243.94813
242.30361
245.18912
243.54842
245.96103
244.92539
246.90333
246.29026
247.37833
246.95427
247.23778
246.9062
246.75411
246.51868
246.30128
246.13057
245.98971
245.88173
245.79943
245.73579
245.69134
245.65474
245.63376
245.61169
245.60539
244.66809
244.65163
244.66206
244.67693
244.67391
244.64217
244.5857
244.51992
244.46189
244.42876
244.43598
244.49421
244.5988
244.72113
244.81307
244.82645
244.74014
244.56996
244.35531
244.13455
243.92741
243.73459
243.55104
243.38123
243.24105
243.14688
243.10284
243.09359
243.09301
243.08255
243.05341
243.02688
242.97859
243.02176
242.88133
243.26096
242.61032
243.94504
242.29983
245.18761
243.54473
245.96152
244.925
246.90504
246.29221
247.38049
246.95656
247.23929
246.90753
246.75465
246.51898
246.30121
246.13035
245.9894
245.88139
245.7991
245.73548
245.69106
245.65449
245.63354
245.6115
245.60522
244.66557
244.64931
244.66026
244.67563
244.67287
244.64109
244.58437
244.51826
244.45999
244.42674
244.43408
244.49276
244.5981
244.72129
244.81387
244.82738
244.74063
244.56964
244.35418
244.13282
243.92533
243.73223
243.54837
243.37819
243.23772
243.14346
243.09957
243.09059
243.09024
243.07986
243.05065
243.02402
242.97558
243.01864
242.87804
243.25759
242.60671
243.94174
242.29589
245.18597
243.54083
245.96206
244.92458
246.90686
246.29425
247.38278
246.95895
247.24089
246.90892
246.75522
246.51929
246.30114
246.13012
245.98907
245.88103
245.79875
245.73515
245.69077
245.65423
245.63331
245.61131
245.60503
244.66287
244.64682
244.65831
244.67423
244.67176
244.63993
244.58293
244.5165
244.45795
244.42459
244.43207
244.49122
244.59736
244.72146
244.81472
244.82836
244.74114
244.56931
244.35298
244.131
243.92312
243.72974
243.54554
243.37498
243.23419
243.13984
243.09611
243.08742
243.08731
243.07702
243.04774
243.02099
242.9724
243.01534
242.87458
243.25401
242.60294
243.93822
242.29178
245.1842
243.53673
245.96265
244.92411
246.9088
246.29637
247.38521
246.96146
247.24259
246.91037
246.75583
246.51961
246.30107
246.12987
245.98873
245.88066
245.79838
245.73481
245.69046
245.65396
245.63306
245.6111
245.60484
244.65999
244.64414
244.65621
244.67272
244.67055
244.63869
244.5814
244.51462
244.45578
244.42229
244.42991
244.48957
244.59656
244.72164
244.81563
244.82941
244.74168
244.56895
244.35171
244.12906
243.92078
243.72711
243.54256
243.37158
243.23047
243.13601
243.09246
243.08407
243.08422
243.07402
243.04467
243.0178
242.96904
243.01186
242.87093
243.25021
242.59898
243.93447
242.28751
245.18228
243.53241
245.96329
244.92361
246.91087
246.29859
247.38779
246.96408
247.24439
246.91188
246.75647
246.51994
246.30099
246.12961
245.98836
245.88026
245.79799
245.73446
245.69014
245.65367
245.6328
245.61089
245.60463
244.65692
244.64126
244.65395
244.67107
244.66925
244.63734
244.57975
244.5126
244.45347
244.41984
244.42762
244.48781
244.59571
244.72182
244.81659
244.83051
244.74225
244.56856
244.35035
244.12699
243.9183
243.72432
243.53939
243.36798
243.22652
243.13196
243.08859
243.08054
243.08095
243.07085
243.04143
243.01442
242.9655
243.00817
242.8671
243.24618
242.59484
243.93046
242.28305
245.18021
243.52785
245.96398
244.92307
246.91307
246.3009
247.39051
246.96682
247.2463
246.91346
246.75716
246.52028
246.30091
246.12933
245.98798
245.87985
245.79758
245.73408
245.6898
245.65337
245.63253
245.61066
245.60442
244.65366
244.63815
244.65149
244.66929
244.66783
244.63589
244.57799
244.51044
244.45099
244.41723
244.42516
244.48592
244.59479
244.72201
244.8176
244.83169
244.74285
244.56814
244.3489
244.1248
243.91567
243.72136
243.53604
243.36417
243.22234
243.12768
243.0845
243.0768
243.0775
243.0675
243.038
243.01084
242.96176
243.00428
242.86306
243.2419
242.59051
243.92618
242.27841
245.17796
243.52304
245.96474
244.92248
246.91542
246.30331
247.39341
246.96969
247.24833
246.91511
246.75789
246.52063
246.30082
246.12904
245.98757
245.87941
245.79715
245.73368
245.68944
245.65305
245.63225
245.61042
245.60419
244.65019
244.63481
244.64882
244.66735
244.66629
244.63432
244.57609
244.50813
244.44834
244.41443
244.42254
244.48391
244.59381
244.72221
244.81868
244.83294
244.74348
244.56769
244.34735
244.12247
243.91287
243.71823
243.5325
243.36014
243.21791
243.12314
243.08017
243.07284
243.07385
243.06396
243.03438
243.00707
242.95781
243.00015
242.85881
243.23736
242.58597
243.92162
242.27358
245.17553
243.51796
245.96556
244.92184
246.91793
246.30582
247.39647
246.97269
247.25047
246.91682
246.75866
246.52099
246.30073
246.12872
245.98714
245.87894
245.7967
245.73327
245.68906
245.65272
245.63195
245.61017
245.60395
244.64654
244.63123
244.64593
244.66523
244.66461
244.63262
244.57404
244.50564
244.4455
244.41143
244.41974
244.48176
244.59276
244.72242
244.81982
244.83426
244.74415
244.5672
244.34571
244.12
243.90991
243.7149
243.52874
243.35586
243.21322
243.11833
243.07558
243.06865
243.06999
243.06021
243.03055
243.00307
242.95363
242.99578
242.85434
243.23253
242.58122
243.91674
242.26854
245.1729
243.51259
245.96645
244.92114
246.9206
246.30845
247.39972
246.97583
247.25275
246.91861
246.75948
246.52136
246.30063
246.12839
245.98669
245.87846
245.79623
245.73283
245.68866
245.65237
245.63164
245.60991
245.6037
244.64271
244.62738
244.64279
244.66291
244.66276
244.63076
244.57182
244.50297
244.44246
244.40823
244.41674
244.47945
244.59163
244.72263
244.82104
244.83566
244.74485
244.56667
244.34394
244.11736
243.90676
243.71138
243.52475
243.35133
243.20824
243.11323
243.07072
243.06422
243.0659
243.05625
243.0265
242.99884
242.94922
242.99115
242.84962
243.2274
242.57624
243.91154
242.2633
245.17005
243.50692
245.96742
244.9204
246.92345
246.31119
247.40316
246.97911
247.25516
246.92048
246.76035
246.52174
246.30052
246.12805
245.98622
245.87794
245.79572
245.73237
245.68825
245.652
245.63131
245.60963
245.60344
244.63875
244.62327
244.63938
244.66036
244.66073
244.62874
244.56942
244.50009
244.43918
244.40479
244.41352
244.47698
244.59042
244.72285
244.82233
244.83715
244.74559
244.56609
244.34206
244.11454
243.90341
243.70764
243.52053
243.34652
243.20296
243.10782
243.06557
243.05953
243.06158
243.05206
243.02221
242.99437
242.94456
242.98625
242.84465
243.22195
242.57104
243.90599
242.25783
245.16697
243.50091
245.96847
244.91959
246.92648
246.31405
247.40682
246.98255
247.25772
246.92243
246.76128
246.52213
246.30041
246.12768
245.98571
245.8774
245.7952
245.73188
245.68781
245.65161
245.63096
245.60934
245.60316
244.63474
244.61892
244.63568
244.65756
244.65849
244.62651
244.56681
244.49698
244.43567
244.4011
244.41007
244.47432
244.58911
244.72308
244.8237
244.83873
244.74637
244.56547
244.34004
244.11154
243.89985
243.70367
243.51604
243.34141
243.19736
243.10209
243.06012
243.05456
243.05701
243.04763
243.01767
242.98963
242.93962
242.98105
242.83942
243.21616
242.56558
243.90006
242.25214
245.16365
243.49456
245.9696
244.91872
246.92972
246.31703
247.41069
246.98614
247.26043
246.92447
246.76226
246.52253
246.30029
246.12728
245.98518
245.87683
245.79464
245.73137
245.68735
245.6512
245.6306
245.60904
245.60286
244.6308
244.61437
244.63169
244.65448
244.656
244.62405
244.56396
244.49362
244.43187
244.39712
244.40635
244.47147
244.5877
244.72332
244.82516
244.84041
244.74719
244.56479
244.33787
244.10834
243.89606
243.69945
243.51128
243.33599
243.19142
243.096
243.05433
243.04929
243.05216
243.04293
243.01286
242.9846
242.93439
242.97554
242.8339
243.21001
242.55987
243.89373
242.24621
245.16006
243.48783
245.97083
244.91779
246.93317
246.32015
247.4148
246.9899
247.26331
246.92659
246.7633
246.52294
246.30017
246.12687
245.98462
245.87623
245.79405
245.73083
245.68687
245.65078
245.63022
245.60872
245.60256
244.62716
244.60971
244.62741
244.65109
244.65323
244.62132
244.56083
244.48996
244.42777
244.39285
244.40236
244.46839
244.58618
244.72356
244.8267
244.84219
244.74805
244.56404
244.33555
244.10492
243.89202
243.69497
243.50623
243.33024
243.1851
243.08954
243.04819
243.04371
243.04703
243.03796
243.00777
242.97928
242.92886
242.9697
242.82808
243.20346
242.55388
243.88697
242.24003
245.15618
243.48071
245.97216
244.91678
246.93685
246.3234
247.41915
246.99384
247.26635
246.9288
246.7644
246.52336
246.30003
246.12642
245.98403
245.8756
245.79344
245.73027
245.68636
245.65033
245.62982
245.60839
245.60223
244.62416
244.6051
244.6229
244.64737
244.65012
244.61828
244.55739
244.48597
244.42333
244.38823
244.39806
244.46508
244.58453
244.72381
244.82834
244.84408
244.74895
244.56323
244.33306
244.10126
243.88772
243.6902
243.50085
243.32412
243.17839
243.08267
243.04167
243.03779
243.04159
243.03268
243.00238
242.97363
242.92301
242.9635
242.82193
243.1965
242.5476
243.87976
242.23359
245.15199
243.47316
245.97358
244.9157
246.94078
246.3268
247.42377
246.99797
247.26958
246.93111
246.76556
246.52379
246.29988
246.12596
245.9834
245.87493
245.79278
245.72967
245.68582
245.64985
245.62941
245.60804
245.60189
244.62239
244.60086
244.61826
244.64333
244.64665
244.61486
244.55356
244.48159
244.41851
244.38323
244.39341
244.4615
244.58275
244.72405
244.83009
244.84609
244.74989
244.56234
244.33037
244.09735
243.88314
243.68513
243.49514
243.31761
243.17125
243.07537
243.03474
243.03151
243.03582
243.02709
242.99665
242.96764
242.9168
242.95691
242.81545
243.18909
242.54103
243.87206
242.22688
245.14748
243.46516
245.97512
244.91455
246.94497
246.33035
247.42866
247.00229
247.27301
246.93352
246.7668
246.52423
246.29972
246.12546
245.98274
245.87422
245.7921
245.72905
245.68526
245.64935
245.62897
245.60767
245.60153
244.62277
244.59752
244.61374
244.63901
244.64276
244.611
244.54929
244.47677
244.41324
244.37781
244.38838
244.45763
244.58081
244.7243
244.83194
244.84822
244.75088
244.56135
244.32747
244.09315
243.87824
243.67972
243.48906
243.31069
243.16365
243.0676
243.02738
243.02483
243.0297
243.02116
242.99058
242.96129
242.91022
242.94991
242.80859
243.18121
242.53413
243.86384
242.21989
245.14261
243.45667
245.97676
244.91331
246.94944
246.33407
247.43385
247.00681
247.27664
246.93604
246.7681
246.52469
246.29955
246.12493
245.98203
245.87347
245.79138
245.72839
245.68466
245.64883
245.62851
245.60728
245.60115
244.62679
244.596
244.60975
244.63455
244.63844
244.60661
244.54447
244.47141
244.40746
244.3719
244.38292
244.45343
244.5787
244.72454
244.83391
244.85049
244.7519
244.56027
244.32435
244.08865
243.87301
243.67396
243.48258
243.30332
243.15556
243.05934
243.01955
243.01775
243.0232
243.01486
242.98414
242.95453
242.90323
242.94247
242.80135
243.17281
242.5269
243.85507
242.2126
245.13736
243.44767
245.97853
244.91199
246.9542
246.33796
247.43935
247.01155
247.28048
246.93866
246.76948
246.52515
246.29936
246.12437
245.98129
245.87268
245.79061
245.72769
245.68404
245.64828
245.62803
245.60687
245.60075
244.63692
244.59787
244.60714
244.63025
244.63372
244.6016
244.53898
244.46541
244.40108
244.36544
244.37697
244.44886
244.57639
244.72477
244.836
244.85289
244.75297
244.55907
244.32097
244.08382
243.86741
243.66782
243.47569
243.29546
243.14693
243.05053
243.01122
243.01021
243.0163
243.00818
242.97729
242.94735
242.89582
242.93456
242.7937
243.16387
242.51931
243.84571
242.20499
245.13171
243.43812
245.98041
244.91057
246.95929
246.34203
247.44519
247.01651
247.28456
246.94141
246.77094
246.52563
246.29915
246.12377
245.98051
245.87185
245.78981
245.72696
245.68338
245.6477
245.62752
245.60644
245.60032
244.65751
244.60596
244.6074
244.62676
244.62873
244.59589
244.53268
244.45862
244.39397
244.35832
244.37047
244.44387
244.57386
244.72498
244.83821
244.85544
244.75408
244.55775
244.31732
244.07863
243.86142
243.66127
243.46833
243.28708
243.13773
243.04114
243.00235
243.0022
243.00897
243.00107
242.97002
242.93972
242.88795
242.92615
242.7856
243.15435
242.51134
243.83572
242.19707
245.12562
243.428
245.98241
244.90906
246.96471
246.3463
247.45138
247.02171
247.28887
246.94427
246.77247
246.52612
246.29893
246.12314
245.97967
245.87097
245.78896
245.72619
245.68269
245.64709
245.62699
245.60598
245.59988
244.69715
244.62569
244.61349
244.62537
244.62386
244.58944
244.52537
244.45082
244.38595
244.35042
244.36332
244.43841
244.57107
244.72516
244.84056
244.85814
244.75522
244.55627
244.31335
244.07303
243.855
243.65427
243.46048
243.27814
243.12792
243.03113
242.99289
242.99367
243.00117
242.99351
242.96228
242.9316
242.87959
242.91719
242.77702
243.14419
242.50297
243.82506
242.1888
245.11907
243.41726
245.98454
244.90744
246.97049
246.35079
247.45795
247.02717
247.29344
246.94727
246.77409
246.52662
246.29869
246.12246
245.97879
245.87004
245.78807
245.72538
245.68196
245.64645
245.62644
245.60551
245.59941
244.77232
244.66745
244.63113
244.62878
244.62008
244.58236
244.51684
244.44174
244.37679
244.34156
244.35539
244.43238
244.56798
244.72529
244.84304
244.861
244.7564
244.55463
244.30904
244.067
243.84812
243.64678
243.4521
243.26859
243.11743
243.02043