/*--------------------------------*- C++ -*----------------------------------*\
| =========                 |                                                 |
| \\      /  F ield         | OpenFOAM: The Open Source CFD Toolbox           |
|  \\    /   O peration     | Version:  2506                                  |
|   \\  /    A nd           | Website:  www.openfoam.com                      |
|    \\/     M anipulation  |                                                 |
\*---------------------------------------------------------------------------*/
FoamFile
{
    version     2.0;
    format      ascii;
    arch        "LSB;label=32;scalar=64";
    class       volScalarField;
    location    "0.45";
    object      omega;
}
// * * * * * * * * * * * * * * * * * * * * * * * * * * * * * * * * * * * * * //

dimensions      [0 0 -1 0 0 0 0];

internalField   nonuniform List<scalar> 
1375
(
74.772546
66.637809
57.571639
49.718249
43.687209
39.236683
76.386893
71.957625
64.007347
55.335623
47.920403
42.257807
38.084995
34.9984
32.677777
30.908799
29.553541
28.520266
27.741941
27.164427
26.743369
26.44232
26.231627
26.088248
25.99496
73.789716
69.382148
61.614587
53.304619
46.285472
40.955496
37.033987
34.133755
31.954251
30.295358
29.027922
28.06532
27.343539
26.810925
26.425262
26.151863
25.9626
25.83571
25.755197
25.709984
25.691351
25.687978
25.694123
25.711696
25.73731
25.769333
25.807024
71.406263
67.031053
59.433321
51.44904
44.785426
39.755106
36.06113
33.330195
31.278984
29.720124
28.532468
27.6341
26.963835
26.472272
26.119082
25.871118
25.701607
25.589995
25.52149
25.485891
25.473947
25.473242
25.483687
25.504664
25.532968
25.567298
25.60707
25.652052
25.702204
25.757753
25.819078
25.886697
25.96139
26.044198
69.218633
64.876911
57.435553
49.744747
43.400638
38.640564
35.152955
32.576381
30.642637
29.175686
28.061564
27.222575
26.600085
26.146694
25.823719
25.59938
25.448174
25.350795
25.293652
25.266942
25.259908
25.262311
25.276945
25.300952
25.331715
25.368187
25.40989
25.456653
25.508504
25.565692
25.628604
25.697796
25.774093
25.858571
25.952529
26.057535
26.175617
26.30941
67.190948
62.881435
55.591415
48.172077
42.118466
37.603054
34.302708
31.866938
30.041018
28.658954
27.613091
26.829415
26.251523
25.833757
25.538886
25.336401
25.202075
25.117908
25.071353
25.052418
25.048925
25.055146
25.073555
25.100294
25.133323
25.17178
25.215262
25.263661
25.317072
25.375779
25.440179
25.510851
25.58865
25.674682
25.77027
25.876983
25.996825
26.132382
26.286772
26.463839
26.668764
65.283216
61.003972
53.869986
46.71176
40.927705
36.635737
33.505731
31.198405
29.471467
28.167909
27.185586
26.453616
25.917473
25.532986
25.26422
25.081899
24.963098
24.891118
24.854222
24.841887
24.840958
24.851497
24.873223
24.902436
24.937568
24.97788
25.023014
25.072921
25.127773
25.187893
25.253696
25.325768
25.404972
25.492449
25.589566
25.697901
25.819415
25.95663
26.112597
26.291098
26.497257
26.738282
27.023811
27.367612
63.464921
59.213925
52.246798
45.347674
39.818755
35.732956
32.758463
30.568294
28.932072
27.700978
26.777717
26.094058
25.597011
25.24363
24.999119
24.835399
24.730896
24.670206
24.642006
24.634442
24.636386
24.651126
24.675753
24.707233
24.744304
24.786327
24.832993
24.884306
24.940497
25.001936
25.069059
25.142456
25.222986
25.31181
25.41034
25.520188
25.643257
25.781966
25.939303
26.119033
26.326216
26.567981
26.853915
27.197559
27.616291
28.133484
61.719601
57.495445
50.705208
44.065237
38.780889
34.887664
32.056533
29.973899
28.421049
27.256831
26.388346
25.749677
25.289126
24.964763
24.742796
24.596309
24.505087
24.454826
24.434108
24.429913
24.435386
24.453834
24.48101
24.514543
24.553399
24.597016
24.645119
24.69775
24.755196
24.817867
24.886226
24.960866
25.042645
25.132734
25.232572
25.343788
25.468247
25.608268
25.766767
25.947498
26.155489
26.397792
26.683955
27.027355
27.444954
27.959408
28.605073
29.593802
60.041645
55.847843
49.240329
42.855984
37.805508
34.093008
31.395118
29.412066
27.936401
26.834166
26.016515
25.419641
24.99301
24.695599
24.494539
24.364052
24.285196
24.24447
24.230112
24.228419
24.2379
24.259546
24.288988
24.324383
24.364869
24.40993
24.459353
24.513222
24.571851
24.635677
24.705189
24.780996
24.863952
24.955225
25.056261
25.168686
25.294351
25.435496
25.594965
25.776486
25.985055
26.227683
26.513894
26.856955
27.273412
27.785075
28.426004
29.411477
33.08338
58.42762
54.271116
47.846966
41.710375
36.882514
33.340496
30.767864
28.878357
27.475181
26.431081
25.660984
25.103073
24.707956
24.435515
24.253814
24.138197
24.070877
24.038835
24.029501
24.030137
24.04381
24.068212
24.099681
24.136754
24.178689
24.225052
24.275688
24.330715
24.390462
24.455379
24.525972
24.602866
24.686924
24.7793
24.881425
24.994916
25.121614
25.26371
25.42398
25.606107
25.815044
26.057783
26.34386
26.686456
27.101693
27.610472
28.24683
29.229521
32.961521
56.873761
52.763219
46.520292
40.620804
36.003583
32.622546
30.168535
28.36799
27.033916
26.045178
25.320155
24.798917
24.43323
24.183951
24.020164
23.918374
23.861786
23.837416
23.831699
23.835438
23.852914
23.879742
23.913047
23.951637
23.994874
24.042406
24.094142
24.150239
24.21104
24.276991
24.348601
24.426513
24.511594
24.604988
24.708101
24.822538
24.950128
25.093033
25.253963
25.436538
25.645659
25.888312
26.174082
26.516069
26.929952
27.435711
28.067448
29.047724
32.844312
55.376688
51.316983
45.252178
39.579668
35.162251
31.93383
29.592802
27.87751
26.60994
25.674487
24.992651
24.506242
24.168194
23.940457
23.793258
23.704295
23.657528
23.6397
23.636709
23.644214
23.665008
23.694011
23.729002
23.768983
23.8134
23.861986
23.914721
23.971807
24.033594
24.100517
24.173086
24.251953
24.337989
24.43233
24.536355
24.651645
24.780008
24.923591
25.085051
25.267924
25.477078
25.71952
26.004872
26.346112
26.758438
27.260955
27.887885
28.865882
32.729765
53.938548
49.930388
44.040858
38.586584
34.359087
31.275184
29.041333
27.407262
26.203279
25.31881
24.678163
24.224703
23.912527
23.704758
23.57286
23.495675
23.457718
23.445475
23.444592
23.456245
23.479894
23.510861
23.547404
23.588666
23.634173
23.683734
23.7374
23.79541
23.85812
23.925956
23.999427
24.079195
24.166128
24.261352
24.366221
24.48228
24.61131
24.755452
24.917309
25.100355
25.309452
25.551639
25.836554
26.176932
26.58746
27.086419
27.708148
28.683937
32.618165
52.567472
48.608539
42.890545
37.646357
33.59958
30.652188
28.519084
26.96115
25.816673
24.979821
24.377528
23.95458
23.666199
23.476698
23.358775
23.292334
23.26221
23.254087
23.255633
23.271306
23.297412
23.330154
23.368121
23.410571
23.457102
23.507589
23.562138
23.621019
23.684595
23.753285
23.827603
23.908218
23.995997
24.092044
24.197683
24.314437
24.444052
24.588632
24.750768
24.933891
25.142896
25.384858
25.669364
26.008802
26.417286
26.91231
27.52838
28.501782
32.508813
51.274245
47.363843
41.811548
36.767508
32.891291
30.071637
28.031898
26.543801
25.453412
24.659561
24.091755
23.696165
23.429109
23.256021
23.15073
23.093981
23.070539
23.065356
23.070004
23.089206
23.117454
23.151793
23.191057
23.234608
23.282111
23.333491
23.388893
23.448607
23.512997
23.582483
23.657585
23.738985
23.827552
23.924361
24.030697
24.148058
24.278172
24.423092
24.585405
24.768556
24.97748
25.219274
25.503406
25.841834
26.248047
26.738774
27.348806
28.319646
32.403005
50.064216
46.204376
40.808545
35.951976
32.235242
29.534532
27.580895
26.156267
25.114259
24.358376
23.820777
23.449108
23.200783
23.042264
22.948318
22.900181
22.882305
22.879376
22.88762
22.90983
22.939964
22.975734
23.016166
23.060718
23.109131
23.161369
23.217596
23.278104
23.343257
23.413483
23.489316
23.571447
23.66074
23.758243
23.865205
23.983094
24.113615
24.25879
24.421203
24.604347
24.813212
25.054857
25.338592
25.675928
26.079693
26.565812
27.169525
28.137842
32.30006
48.932082
45.125491
39.873925
35.190218
31.621702
29.032149
27.158877
25.792949
24.795034
24.073215
23.562392
23.211829
22.980108
22.834655
22.750953
22.71044
22.697299
22.696215
22.708312
22.733072
22.764885
22.801957
22.843456
22.888934
22.938196
22.99124
23.048242
23.109493
23.175353
23.246261
23.322761
23.405556
23.495501
23.593625
23.701142
23.819485
23.95033
24.095682
24.258124
24.441224
24.650007
24.891457
25.1747
25.510836
25.912021
26.393314
26.990516
27.956459
32.199292
47.862591
44.108085
38.986746
34.46159
31.031553
28.547617
26.75168
25.442571
24.487245
23.798034
23.312528
22.981721
22.765479
22.632223
22.558051
22.524459
22.515081
22.516001
22.53194
22.558881
22.592213
22.630473
22.672947
22.719269
22.769309
22.823105
22.880832
22.942769
23.009277
23.080797
23.157892
23.241268
23.331779
23.430438
23.53843
23.657151
23.788243
23.933689
24.096085
24.279076
24.487724
24.728907
25.011517
25.346285
25.744749
26.221077
26.811722
27.775439
32.101643
46.836793
43.126331
38.121369
33.74269
30.443709
28.062274
26.343409
25.092296
24.181148
23.525928
23.066643
22.756003
22.555303
22.434094
22.369122
22.341835
22.335325
22.338981
22.358373
22.387204
22.421902
22.461249
22.50462
22.551718
22.602464
22.656927
22.715287
22.77783
22.844914
22.916984
22.994613
23.078503
23.169501
23.268598
23.376967
23.495973
23.627223
23.772686
23.934988
24.117837
24.326295
24.567103
24.848903
25.18206
25.577593
26.048851
26.632941
27.594951
32.010399
45.840251
42.159642
37.258612
33.016909
29.843406
27.562842
25.92247
24.732557
23.869392
23.251684
22.821349
22.532662
22.348484
22.239701
22.183808
22.162262
22.158095
22.165172
22.187524
22.218
22.253919
22.294248
22.338438
22.386239
22.43761
22.492648
22.551552
22.614609
22.682188
22.754738
22.83283
22.917159
23.008559
23.108011
23.216665
23.33586
23.467186
23.612625
23.77483
23.957522
24.165724
24.406005
24.686759
25.018019
25.410362
25.876446
26.45402
27.41491
31.920729
44.868551
41.201959
36.394999
32.282542
29.229227
27.047532
25.486724
24.36119
23.550109
22.973907
22.575736
22.311188
22.144766
22.048874
22.001895
21.985609
21.98353
21.994471
22.019293
22.051202
22.0882
22.129399
22.174317
22.222738
22.274646
22.330166
22.38952
22.453005
22.520997
22.593959
22.672457
22.757162
22.848894
22.948619
23.057469
23.176779
23.30814
23.453546
23.615673
23.798197
24.006048
24.245605
24.52503
24.854098
25.24301
25.703843
26.274981
27.235156
31.83376
43.927244
40.264171
35.545028
31.554867
28.615352
26.528373
25.045653
23.985202
23.228179
22.6958
22.331785
22.092725
21.944739
21.861815
21.823397
21.811877
21.811654
21.826681
21.853532
21.886693
21.924635
21.966592
22.012144
22.061107
22.11348
22.169401
22.229117
22.292953
22.361295
22.434615
22.513464
22.598503
22.69051
22.790443
22.899427
23.0188
23.150174
23.295561
23.457618
23.639938
23.847302
24.085897
24.363709
24.690351
25.075665
25.531198
26.095941
27.055549
31.753044
43.026042
39.365857
34.732622
30.858597
28.025347
26.026424
24.616813
23.618206
22.913388
22.42385
22.093435
21.87945
21.74946
21.678969
21.648438
21.640567
21.642939
21.661607
21.690133
21.724388
21.763151
21.805763
21.851863
21.901297
21.954076
22.010348
22.070373
22.134495
22.203123
22.276732
22.355875
22.441185
22.533429
22.633529
22.742606
22.862007
22.99337
23.138715
23.300662
23.482704
23.689439
23.926892
24.20289
24.526935
24.908528
25.358717
25.917094
26.876533
31.678002
42.171755
38.524864
33.979317
30.216017
27.481079
25.561916
24.217656
23.274088
22.615856
22.164796
21.86476
21.673582
21.560007
21.500743
21.47698
21.471833
21.477482
21.499131
21.529066
21.564282
21.603763
21.646939
21.693502
21.743333
21.796458
21.853033
21.913321
21.977676
22.046523
22.12035
22.199714
22.285239
22.377671
22.477908
22.587056
22.706464
22.837777
22.983025
23.144783
23.326435
23.532421
23.768615
24.042689
24.364031
24.741788
25.186571
25.738657
26.698385
31.605929
26.991504
25.144217
23.857095
22.960476
22.341426
21.922619
21.648137
21.476348
21.376881
21.327215
21.308994
21.30598
21.315216
21.339216
21.370342
21.406398
21.446503
21.49016
21.537107
21.587259
21.640663
21.697484
21.757985
21.822523
21.89153
21.965509
22.04502
22.130695
22.223266
22.323599
22.43278
22.552161
22.683382
22.828462
22.98993
23.17107
23.376203
23.611072
23.883195
24.201777
24.575589
25.014906
25.560765
26.520967
31.539347
21.697238
21.443527
21.287641
21.19986
21.158095
21.14437
21.143125
21.155959
21.181829
21.213984
21.25077
21.291409
21.335459
21.382708
21.433103
21.486717
21.543727
21.604392
21.669064
21.738182
21.812253
21.891849
21.977601
22.070232
22.170606
22.279783
22.399085
22.530153
22.674992
22.836066
23.016578
23.220748
23.454232
23.724402
24.040201
24.409997
24.84378
25.383399
26.344459
31.477232
20.983253
20.999503
21.026866
21.059914
21.09735
21.138458
21.182843
21.23033
21.280902
21.334666
21.391803
21.452576
21.517333
21.586508
21.660616
21.74023
21.82599
21.918611
22.018938
22.128035
22.247204
22.378055
22.522567
22.683152
22.86293
23.066031
23.29804
23.566198
23.879182
24.24495
24.67315
25.206561
26.16892
31.416539
20.946052
20.98755
21.032219
21.079916
21.130646
21.184516
21.241729
21.302559
21.367349
21.436531
21.510613
21.590175
21.675863
21.768385
21.868591
21.97753
22.096482
22.227033
22.371118
22.531109
22.710051
22.911983
23.14241
23.408451
23.718551
24.080313
24.502953
25.03026
25.994267
31.36658
20.982242
21.036192
21.093459
21.154317
21.219106
21.288242
21.362238
21.441674
21.527196
21.61953
21.719517
21.828202
21.94685
22.077007
22.220558
22.379835
22.557826
22.758493
22.987235
23.251045
23.558156
23.915871
24.332976
24.85419
25.820408
31.319766
21.0725
21.141558
21.215424
21.294676
21.379955
21.472005
21.57168
21.680023
21.798273
21.927936
22.070844
22.229291
22.40622
22.605528
22.832504
23.094007
23.398028
23.75153
24.163039
24.678395
25.647595
31.278347
21.149081
21.234074
21.325785
21.425083
21.532994
21.650748
21.779817
21.921992
22.079528
22.255327
22.453231
22.678399
22.937509
23.238243
23.587282
23.993047
24.502571
25.475566
31.242038
21.279718
21.387142
21.504335
21.632753
21.774161
21.930767
22.105402
22.301798
22.525054
22.781639
23.07897
23.423437
23.823373
24.327313
25.305114
31.209613
21.359192
21.486961
21.627548
21.78313
21.956472
22.151276
22.372475
22.626442
22.92043
23.260356
23.654342
24.152773
25.136707
31.188453
21.636571
21.808533
22.001637
22.220749
22.472179
22.76279
23.097927
23.485854
23.978764
24.969275
31.177181
21.852816
22.069825
22.318686
22.605757
22.93593
23.31747
23.804477
24.802231
31.166318
22.165818
22.44925
22.77427
23.149136
23.630246
24.63588
31.151996
22.29331
22.613071
22.981317
23.457043
24.472172
31.172463
22.814307
23.284432
24.309854
31.174002
23.112198
24.149182
31.13404
23.990997
31.141052
)
;

boundaryField
{
    Side
    {
        type            empty;
    }
    Inlet
    {
        type            fixedValue;
        value           uniform 60.24606;
    }
    Airfoil
    {
        type            omegaWallFunction;
        blending        binomial;
        n               2;
        value           nonuniform List<scalar> 0();
    }
    Outlet
    {
        type            inletOutlet;
        inletValue      nonuniform List<scalar> 0();
        value           nonuniform List<scalar> 0();
    }
    procBoundary4to3
    {
        type            processor;
        value           nonuniform List<scalar> 
57
(
77.828595
69.524052
60.040939
51.710127
45.274136
40.517977
35.944317
35.944317
33.467342
31.575643
30.12178
29.00861
28.166062
27.53752
27.076382
26.744259
26.509717
26.348211
26.241149
25.939535
25.939535
25.913183
25.90615
25.908498
25.922246
25.944897
25.974432
26.009893
25.850075
25.850075
25.898372
25.95213
26.011731
26.07765
26.150615
26.231633
26.136418
26.136418
26.23965
26.355936
26.487901
26.462054
26.462054
26.63749
26.840999
26.908846
26.908846
27.19379
27.537665
27.787487
27.787487
28.307377
28.78412
28.78412
29.776545
33.20504
33.20504
)
;
    }
    procBoundary4to5
    {
        type            processor;
        value           nonuniform List<scalar> 
64
(
37.745395
33.291749
29.635093
29.635093
26.550731
24.769321
23.532813
22.676304
22.089751
22.089751
21.485586
21.249096
21.106392
21.028321
20.993082
20.982902
20.982902
20.826547
20.845721
20.874284
20.908087
20.908087
20.79688
20.838687
20.88357
20.931415
20.931415
20.835702
20.889669
20.946928
21.007761
21.007761
20.927455
20.996373
21.070065
21.070065
21.004833
21.089514
21.180856
21.180856
21.13565
21.242567
21.242567
21.215479
21.342468
21.482114
21.482114
21.491127
21.661556
21.661556
21.704658
21.919581
21.919581
22.013666
22.013666
22.138286
22.452739
22.452739
22.647436
22.647436
22.941016
22.941016
23.835154
31.299332
)
;
    }
    procBoundary4to11
    {
        type            processor;
        value           nonuniform List<scalar> 
26
(
76.609198
73.935564
71.468309
69.212445
67.143504
65.224084
63.419734
61.704189
60.057935
58.468205
56.929604
55.445897
54.02636
52.679766
51.408241
50.205826
49.061751
47.965638
46.912284
45.90173
44.937083
44.019956
43.14824
42.314594
79.194556
79.194556
)
;
    }
    procBoundary4to12
    {
        type            processor;
        value           uniform 41.36238;
    }
}


// ************************************************************************* //
