/*--------------------------------*- C++ -*----------------------------------*\
| =========                 |                                                 |
| \\      /  F ield         | OpenFOAM: The Open Source CFD Toolbox           |
|  \\    /   O peration     | Version:  2506                                  |
|   \\  /    A nd           | Website:  www.openfoam.com                      |
|    \\/     M anipulation  |                                                 |
\*---------------------------------------------------------------------------*/
FoamFile
{
    version     2.0;
    format      ascii;
    arch        "LSB;label=32;scalar=64";
    class       volScalarField;
    location    "2.45";
    object      k;
}
// * * * * * * * * * * * * * * * * * * * * * * * * * * * * * * * * * * * * * //

dimensions      [0 2 -2 0 0 0 0];

internalField   nonuniform List<scalar> 
1375
(
2.7512286
3.1025947
3.3798457
2.3778504
2.7298129
3.0798193
3.3555932
3.5676436
3.7224773
3.8257791
3.8860372
3.9139349
2.357724
2.711139
3.0595613
3.3335492
3.5432575
3.6951937
3.7955003
3.8531613
3.8792626
3.8860765
3.8815915
3.8683943
3.8557653
3.8460963
3.840367
2.3385273
2.6939821
3.0410387
3.3132799
3.5205381
3.6693724
3.7664613
3.8213429
3.8455279
3.8514624
3.8461418
3.8333642
3.8215162
3.8128018
3.8079359
3.8062353
3.8061149
3.8084559
3.8132647
2.3189793
2.6765826
3.0229959
3.2938968
3.4988444
3.6445915
3.7384265
3.7904829
3.8127058
3.8177173
3.8114898
3.7991088
3.7880079
3.7801903
3.7761097
3.774866
3.7750368
3.7779885
3.7831124
3.7895388
3.7969834
3.8052835
3.8143455
2.2983619
2.6578063
3.0045004
3.2746065
3.4775211
3.6203614
3.7110717
3.7603953
3.7807037
3.7847976
3.7776725
3.7656573
3.7552551
3.7482616
3.7448656
3.7439569
3.7445132
3.7479979
3.7533877
3.7599904
3.7675646
3.7759606
3.7850895
3.7949096
3.8054126
3.8166194
3.8285737
2.2769039
2.6377318
2.9853983
3.2550438
3.4561279
3.5962683
3.6840615
3.7308345
3.7493512
3.7525845
3.7446554
3.7329931
3.7232483
3.7169998
3.7141805
3.7135261
3.7145351
3.718465
3.7240786
3.7308328
3.7385156
3.7469895
3.7561726
3.766027
3.7765479
3.7877587
3.7997054
3.8124488
3.826062
3.840631
2.2552917
2.6171268
2.9660789
3.2353421
3.4346421
3.5721938
3.6572289
3.7016193
3.7184773
3.7209306
3.7123402
3.701045
3.6919339
3.6863578
3.6840219
3.6835762
3.685069
3.6893635
3.6951661
3.7020502
3.7098247
3.7183616
3.7275851
3.7374622
3.7479927
3.7592016
3.7711346
3.7838548
3.797437
3.8119688
3.8275518
3.8443076
3.8623838
2.2340055
2.5965123
2.9467397
3.2155794
3.413089
3.5481069
3.6304868
3.6726189
3.6879301
3.6896838
3.6805865
3.6696982
3.6612218
3.6562684
3.6543555
3.6541009
3.6560864
3.6606716
3.6666291
3.6736203
3.68147
3.6900585
3.699316
3.7092112
3.7197452
3.7309457
3.7428591
3.7555487
3.7690926
3.783581
3.7991142
3.8158107
3.8338149
3.8533019
3.8744825
2.2132575
2.5760324
2.9272393
3.1955703
3.3913203
3.523886
3.6037231
3.6437217
3.6575996
3.6587365
3.6492827
3.6388473
3.6310109
3.6266461
3.6251322
3.6250582
3.6275539
3.632379
3.6384669
3.6455431
3.6534468
3.6620693
3.6713473
3.6812538
3.6917888
3.7029788
3.7148709
3.7275286
3.7410301
3.7554668
3.7709425
3.7875747
3.8055028
3.824897
3.8459638
3.8689504
3.8941536
3.9219296
2.1933851
2.5560221
2.9075825
3.1751929
3.3691976
3.499404
3.576826
3.6148297
3.6273998
3.6280085
3.6183468
3.608415
3.6012348
3.5974474
3.5962726
3.5964386
3.5994331
3.6044584
3.6106586
3.6178065
3.6257544
3.6344006
3.64369
3.653597
3.6641223
3.6752946
3.6871605
3.6997831
3.7132402
3.7276225
3.7430339
3.7595927
3.7774367
3.7967315
3.8176782
3.8405199
3.8655486
3.8931166
3.9236538
3.9576961
2.1748134
2.5369068
2.8879835
3.154536
3.3467409
3.4746441
3.5497618
3.5859042
3.5972932
3.5974641
3.5877337
3.5783528
3.5718441
3.568613
3.5677152
3.5682332
3.5716894
3.5768961
3.5832028
3.5904139
3.5983918
3.6070479
3.6163336
3.6262314
3.6367452
3.6478979
3.659733
3.6723124
3.6857151
3.7000342
3.7153746
3.7318529
3.7496046
3.7687918
3.7896103
3.8122998
3.8371468
3.864498
3.8947763
3.9285109
3.9663794
4.009268
2.1577326
2.5186493
2.8684422
3.1336147
3.3239617
3.4496243
3.5225579
3.5569734
3.5673277
3.5671202
3.5574487
3.5486523
3.542815
3.5401055
3.5394465
3.5404251
3.5442931
3.54967
3.5560782
3.563346
3.5713514
3.5800157
3.589294
3.599172
3.6096565
3.6207747
3.6325711
3.6451059
3.6584541
3.6727049
3.6879644
3.7043487
3.7219949
3.7410639
3.7617475
3.7842763
3.8089337
3.836059
3.8660694
3.899485
3.9369755
3.979408
4.0278676
2.1424004
2.5012354
2.8490081
3.1124821
3.300904
3.4244022
3.4952923
3.5281299
3.5376358
3.5370633
3.5275702
3.5193681
3.5141721
3.511931
3.5114855
3.5129922
3.5172165
3.5227624
3.5292787
3.5366075
3.5446377
3.5533008
3.5625597
3.572406
3.5828529
3.5939303
3.6056809
3.6181619
3.6314463
3.6456216
3.6607924
3.6770761
3.6946064
3.7135446
3.7340812
3.7564421
3.7809019
3.8077912
3.8375241
3.8706128
3.907716
3.9496862
3.9975739
4.052514
4.1155099
2.1295298
2.4855841
2.830614
3.091888
3.2780975
3.3993374
3.4682162
3.4995699
3.5083564
3.5074312
3.4981932
3.4905699
3.4859605
3.4841342
3.4838917
3.4859498
3.4904741
3.4961773
3.5027936
3.5101778
3.5182294
3.5268891
3.5361282
3.5459421
3.5563449
3.5673671
3.5790557
3.5914701
3.6046818
3.6187754
3.6338515
3.6500254
3.6674317
3.6862305
3.7066093
3.7287895
3.753042
3.7796922
3.80914
3.8418916
3.8785979
3.9200967
3.967399
4.0215753
4.0835399
4.154736
2.1194036
2.4726584
2.8144756
3.0729502
3.2564101
3.375036
3.4417234
3.4715471
3.4796505
3.4783483
3.4693993
3.4623194
3.4582305
3.4567731
3.4567123
3.4593009
3.4640689
3.469916
3.4766279
3.4840662
3.492138
3.5007897
3.5099982
3.5197658
3.5301126
3.5410733
3.5526955
3.5650367
3.5781658
3.5921665
3.607137
3.6231933
3.6404675
3.6591181
3.6793301
3.7013217
3.725357
3.7517548
3.7809093
3.8133199
3.8496258
3.8906412
3.937342
3.9907348
4.0516508
4.1215009
4.2086359
2.1111865
2.4623117
2.8009667
3.0562455
3.2364147
3.3519615
3.4161383
3.4442722
3.4516559
3.4498772
3.4412235
3.4346454
3.431023
3.4298583
3.4300119
3.4330683
3.438026
3.4439915
3.4507799
3.4582585
3.4663412
3.474981
3.4841588
3.4938787
3.5041638
3.5150521
3.526594
3.5388484
3.5518852
3.5657871
3.5806492
3.5965805
3.6137147
3.6322073
3.6522447
3.6740402
3.6978506
3.7239883
3.7528419
3.7848991
3.8207927
3.861315
3.9074011
3.9599896
4.0198378
4.0883444
4.174145
4.3370214
5.2583278
2.1036525
2.4536994
2.7896388
3.0416253
3.2181469
3.3302192
3.3915666
3.4178298
3.4244296
3.4220253
3.4136618
3.4075412
3.4043316
3.4033871
3.4038118
3.4072581
3.4123616
3.4184181
3.4252598
3.4327595
3.4408375
3.4494528
3.4585909
3.4682579
3.4784783
3.4892917
3.5007488
3.5129101
3.5258456
3.5396374
3.5543795
3.5701799
3.5871699
3.6055003
3.6253557
3.6469467
3.6705255
3.696398
3.7249412
3.7566376
3.7921061
3.8321182
3.877571
3.9293377
3.9881023
4.0552789
4.1398127
4.3030355
5.2433967
2.0957182
2.4458252
2.7796658
3.0284919
3.2012316
3.3095918
3.3678879
3.39215
3.3979085
3.3947494
3.3866702
3.3809687
3.3781209
3.3773496
3.3780918
3.3818551
3.3870696
3.3931919
3.4000647
3.4075667
3.4156246
3.4242024
3.4332906
3.4428975
3.4530489
3.4637836
3.4751513
3.4872134
3.5000426
3.5137196
3.5283369
3.5440027
3.5608415
3.5790023
3.5986677
3.6200437
3.6433831
3.6689782
3.6972067
3.7285364
3.7635711
3.8030622
3.8478633
3.8987857
3.9564532
4.0223173
4.105652
4.2694213
5.2299952
2.0864213
2.4375698
2.7699841
3.0159559
3.1850057
3.2896247
3.3448097
3.3670383
3.3719319
3.367968
3.3601741
3.3548647
3.3523391
3.3517163
3.3528109
3.356829
3.3621274
3.3682936
3.3751783
3.3826666
3.3906915
3.3992224
3.4082528
3.4177931
3.42787
3.4385228
3.4498008
3.4617634
3.4744822
3.4880384
3.5025243
3.5180468
3.5347308
3.5527221
3.5721892
3.5933413
3.6164284
3.6417452
3.6696541
3.7006025
3.7351915
3.7741509
3.8182878
3.8683538
3.9249144
3.9894723
4.0716529
4.2361502
5.2180128
2.0750097
2.4278758
2.7595188
3.0030646
3.1687132
3.2697733
3.3219694
3.3422491
3.3463065
3.3415889
3.3340907
3.3291588
3.3269282
3.326445
3.3279198
3.3321432
3.3375074
3.3437014
3.3505817
3.3580417
3.3660216
3.3744956
3.3834618
3.3929331
3.4029356
3.4135058
3.4246913
3.4365526
3.44916
3.4625931
3.4769439
3.4923191
3.5088401
3.5266499
3.5459177
3.5668478
3.58968
3.6146989
3.6422663
3.6728327
3.7069697
3.7453833
3.7888481
3.8380517
3.8935027
3.9567582
4.0378038
4.2031443
5.2070096
2.0611202
2.4160029
2.7474243
2.9890353
3.1517098
3.2495597
3.2990421
3.3175621
3.320868
3.3155363
3.3083563
3.3037966
3.3018457
3.3015024
3.3033767
3.3077637
3.3131807
3.3193921
3.3262594
3.3336842
3.3416136
3.3500261
3.3589213
3.3683144
3.3782338
3.3887168
3.3998103
3.411571
3.4240662
3.4373752
3.4515877
3.4668104
3.4831638
3.5007902
3.519852
3.5405469
3.5631136
3.5878329
3.6150578
3.6452293
3.6789099
3.7167746
3.7595522
3.8078782
3.8622197
3.9241754
4.0040819
4.1703077
5.1966971
2.0448593
2.4016447
2.7332285
2.9734031
3.1336053
3.2286919
3.2758271
3.2928408
3.2955183
3.2897623
3.2829299
3.2787415
3.2770633
3.2768667
3.2791494
3.2836676
3.2891302
3.295354
3.3022037
3.3095873
3.3174585
3.3258011
3.3346201
3.3439341
3.3537691
3.3641598
3.3751524
3.3868038
3.3991814
3.4123627
3.4264381
3.4415109
3.457697
3.4751329
3.4939812
3.5144357
3.5367317
3.5611432
3.5880171
3.6177899
3.6510054
3.6883107
3.7303964
3.7778402
3.8310645
3.8917127
3.9704655
4.1375865
5.187809
2.026908
2.3850797
2.7169642
2.9561098
3.1143254
3.2071095
3.2522823
3.2680579
3.2702423
3.2642569
3.257799
3.2539813
3.2525786
3.252527
3.2552164
3.2598363
3.2653362
3.2715661
3.2783947
3.2857364
3.2935504
3.3018245
3.310564
3.3197883
3.329527
3.3398192
3.3507106
3.3622532
3.3745109
3.3875595
3.4014888
3.4164008
3.432413
3.4496577
3.4682932
3.4885077
3.5105228
3.5346175
3.5611362
3.5905017
3.62324
3.6599778
3.701364
3.7479178
3.8000201
3.859363
3.9369643
4.1050553
5.1807933
2.0085675
2.3673127
2.6992884
2.9375764
3.0941386
3.1849841
3.2285166
3.2432849
3.2450953
3.2390422
3.2329771
3.2295295
3.2283744
3.2285061
3.2315708
3.2362689
3.2417973
3.2480257
3.2548275
3.2621231
3.2698758
3.278077
3.2867355
3.2958717
3.3055151
3.3157035
3.3264831
3.3379075
3.3500392
3.362952
3.3767346
3.3914854
3.4073167
3.4243594
3.4427702
3.462734
3.48447
3.5082502
3.5344063
3.5633556
3.5956123
3.6317734
3.6724443
3.7180927
3.7690654
3.8271124
3.9035953
4.0728275
5.1752789
1.9914452
2.3497565
2.6812656
2.9185539
3.0735459
3.162639
3.2047341
3.2186553
3.220177
3.2141642
3.2084972
3.2054062
3.2044512
3.2048309
3.2082146
3.2129724
3.2185201
3.2247375
3.2315048
3.2387488
3.2464369
3.2545629
3.2631369
3.2721797
3.2817207
3.2917989
3.3024624
3.3137659
3.3257697
3.3385439
3.3521725
3.366753
3.382397
3.3992342
3.4174164
3.4371216
3.4585679
3.4820198
3.5078078
3.5363404
3.5681117
3.6036882
3.6436357
3.6883644
3.7381944
3.794951
3.8703642
4.0409433
5.1706243
1.9769782
2.333842
2.6641014
2.8999433
3.0531617
3.140467
3.1811763
3.1943185
3.1955942
3.1896714
3.1843909
3.1816267
3.1808325
3.1815111
3.185149
3.1899512
3.1955086
3.2017065
3.2084318
3.2156184
3.2232369
3.231283
3.2397679
3.248714
3.2581515
3.2681186
3.2786624
3.2898384
3.3017061
3.3143329
3.3278015
3.3422082
3.3576581
3.3742805
3.3922244
3.4116653
3.4328182
3.4559402
3.481351
3.5094505
3.540722
3.5757094
3.6149276
3.6587262
3.7074057
3.7628834
3.8372806
4.0094033
5.1668846
1.9659175
2.3206484
2.6488447
2.882584
3.0335755
3.1188434
3.1580659
3.1704029
3.1714317
3.1655949
3.1606741
3.1581986
3.1575398
3.1585448
3.1623758
3.1672088
3.1727651
3.1789327
3.1856065
3.1927274
3.200271
3.2082346
3.2166299
3.2254786
3.2348103
3.2446639
3.255086
3.2661311
3.2778587
3.290337
3.3036414
3.3178625
3.3331062
3.3495027
3.3671987
3.3863687
3.4072192
3.4300016
3.4550296
3.4826949
3.5134622
3.5478469
3.5863172
3.6291734
3.6766996
3.730911
3.8043438
3.9782433
5.1651994
1.9577755
2.310388
2.6359757
2.8669579
3.0151627
3.0980229
3.135554
3.1469909
3.1477388
3.1419477
3.1373489
3.1351234
3.134584
3.1359209
3.1398916
3.1447429
3.1502883
3.1564176
3.1630336
3.1700841
3.1775472
3.1854215
3.1937198
3.2024647
3.2116878
3.2214289
3.2317324
3.2426481
3.2542326
3.2665532
3.2796852
3.2937173
3.3087538
3.32492
3.3423586
3.3612423
3.3817754
3.4042092
3.4288503
3.456075
3.4863313
3.5201066
3.5578221
3.5997274
3.6460893
3.6990376
3.7715463
3.9474814
5.1650266
3.0780726
3.113682
3.1240968
3.1245205
3.1187195
3.1144023
3.1123925
3.1119629
3.1136219
3.1176901
3.1225498
3.1280766
3.1341605
3.140712
3.147685
3.1550619
3.1628443
3.1710452
3.1796862
3.1887976
3.198418
3.2085925
3.2193706
3.2308091
3.2429725
3.2559317
3.2697732
3.2845976
3.3005265
3.3177027
3.336299
3.3565142
3.378591
3.402828
3.429597
3.4593323
3.4924897
3.5294434
3.570388
3.6155884
3.6672902
3.7389181
3.9171162
5.1582678
3.091807
3.0899887
3.0896642
3.0916276
3.0957593
3.1006175
3.1061177
3.1121509
3.1186348
3.1255282
3.1328165
3.1405022
3.1485991
3.1571298
3.1661254
3.1756255
3.1856727
3.1963132
3.2076007
3.2195975
3.2323736
3.2460161
3.2606255
3.2763188
3.2932348
3.3115402
3.3314296
3.3531433
3.3769751
3.4032884
3.4324908
3.4650079
3.5011765
3.5411479
3.5851955
3.635678
3.7064934
3.8872954
5.1693729
3.0789377
3.0844042
3.0903808
3.0967918
3.1036004
3.1107947
3.1183792
3.1263698
3.1347902
3.1436708
3.153046
3.1629567
3.1734511
3.1845829
3.1964129
3.2090104
3.2224589
3.2368525
3.2523037
3.2689488
3.2869531
3.3065149
3.3278659
3.3512922
3.3771419
3.4058062
3.4376754
3.4730523
3.5120374
3.5549215
3.6042078
3.6742958
3.8580793
5.180309
3.0889914
3.0964749
3.1043574
3.1126614
3.121417
3.1306588
3.1404292
3.1507752
3.1617496
3.1734118
3.1858263
3.1990742
3.2132505
3.2284648
3.244847
3.2625572
3.281787
3.3027632
3.3257735
3.3511509
3.3792702
3.4104865
3.4450539
3.4830454
3.5247753
3.5729054
3.6423681
3.8293867
5.1801099
3.1084729
3.1180998
3.1282877
3.1390944
3.1505768
3.1628014
3.1758495
3.1898088
3.2047857
3.2209054
3.2383227
3.2572255
3.2778358
3.300433
3.3253287
3.3528872
3.3834338
3.4171687
3.4541622
3.4947493
3.5417619
3.6107334
3.8011627
5.1691713
3.1279235
3.1399596
3.1527976
3.1665285
3.1812565
3.1971054
3.2142299
3.2328071
3.253055
3.2752396
3.2996564
3.3266512
3.3565217
3.3894175
3.4254023
3.4648345
3.5107561
3.5793412
3.7737507
5.1623946
3.1578952
3.1734762
3.1903003
3.208539
3.228411
3.2501694
3.274107
3.3005395
3.329728
3.3617878
3.3967583
3.4350498
3.4799093
3.548167
3.7477626
5.2173959
3.1844247
3.2039239
3.2252566
3.24871
3.274563
3.303048
3.3342635
3.3682183
3.4053858
3.4492116
3.5172567
3.7230496
5.2741996
3.223451
3.2487307
3.2765162
3.3068808
3.3398048
3.3758433
3.4186759
3.4866516
3.6988025
5.2788275
3.2796148
3.3115223
3.3464653
3.3883586
3.4564295
3.6746369
5.2621069
3.3172238
3.3582402
3.42658
3.6514462
5.2684598
3.6305595
5.3618511
)
;

boundaryField
{
    Side
    {
        type            empty;
    }
    Inlet
    {
        type            turbulentIntensityKineticEnergyInlet;
        intensity       0.03;
        value           nonuniform List<scalar> 
25
(
12.016101
12.016085
12.016119
12.016135
12.016132
12.016194
12.016302
12.01644
12.016602
12.016777
12.016904
12.016987
12.017097
12.017275
12.017636
12.01817
12.018584
12.019025
12.019564
12.020092
12.020666
12.021216
12.021794
12.022593
12.023422
)
;
    }
    Airfoil
    {
        type            kqRWallFunction;
        value           nonuniform List<scalar> 0();
    }
    Outlet
    {
        type            inletOutlet;
        inletValue      nonuniform List<scalar> 0();
        value           nonuniform List<scalar> 0();
    }
    procBoundary5to4
    {
        type            processor;
        value           nonuniform List<scalar> 
64
(
2.7761332
3.1283966
3.4065671
3.5939313
3.5939313
3.7513346
3.8573259
3.9199412
3.9494897
3.9215596
3.9215596
3.9177922
3.9041691
3.890741
3.880079
3.8734122
3.8380887
3.8380887
3.8377246
3.8394312
3.8438669
3.8194909
3.8194909
3.8267878
3.8349789
3.8439615
3.8241228
3.8241228
3.8346005
3.8457957
3.8577502
3.8413339
3.8413339
3.8549707
3.8695701
3.8562588
3.8562588
3.8730695
3.8912128
3.8819589
3.8819589
3.9032466
3.8976073
3.8976073
3.9229764
3.9509483
3.952713
3.952713
3.9870485
3.9959333
3.9959333
4.0392684
4.0582902
4.0582902
4.083556
4.083556
4.1475668
4.1880417
4.1880417
4.2432585
4.2432585
4.371368
4.371368
5.2742989
)
;
    }
    procBoundary5to6
    {
        type            processor;
        value           nonuniform List<scalar> 
61
(
1.951318
2.3024025
2.6252863
2.8530727
2.9980015
2.9980015
3.0589318
3.0924139
3.1016774
3.1017509
3.0958811
3.0958811
3.0695334
3.0678916
3.0676702
3.0699204
3.0740897
3.0740897
3.0575054
3.0629296
3.0688419
3.0751731
3.0818924
3.0818924
3.0674007
3.0747744
3.0825427
3.0907289
3.0993614
3.0993614
3.086467
3.0959441
3.105977
3.1166185
3.1166185
3.1054384
3.1172753
3.1299017
3.1434094
3.1434094
3.1346824
3.1499934
3.1665196
3.1665196
3.1604483
3.1795751
3.2004846
3.2004846
3.1983136
3.223018
3.2501012
3.2501012
3.2524501
3.2833541
3.2833541
3.2881213
3.3283144
3.3970252
3.3970252
3.6118848
5.4546709
)
;
    }
    procBoundary5to12
    {
        type            processor;
        value           nonuniform List<scalar> 
30
(
2.3668263
2.3415487
2.3162702
2.2922916
2.2707334
2.2517767
2.2348003
2.2190654
2.203901
2.188614
2.1729108
2.1574246
2.1432382
2.1308943
2.1203023
2.1109784
2.1020134
2.0924067
2.0814582
2.0688039
2.0543579
2.0384682
2.0219156
2.005719
1.9910126
1.9787045
1.9689434
1.9610668
2.3998713
2.3998713
)
;
    }
}


// ************************************************************************* //
