/*--------------------------------*- C++ -*----------------------------------*\
| =========                 |                                                 |
| \\      /  F ield         | OpenFOAM: The Open Source CFD Toolbox           |
|  \\    /   O peration     | Version:  2506                                  |
|   \\  /    A nd           | Website:  www.openfoam.com                      |
|    \\/     M anipulation  |                                                 |
\*---------------------------------------------------------------------------*/
FoamFile
{
    version     2.0;
    format      ascii;
    arch        "LSB;label=32;scalar=64";
    class       volScalarField;
    location    "0.9";
    object      Cp;
}
// * * * * * * * * * * * * * * * * * * * * * * * * * * * * * * * * * * * * * //

dimensions      [0 0 0 0 0 0 0];

internalField   nonuniform List<scalar> 
1375
(
0.022824095
0.022810322
0.022797807
0.022786056
0.022776042
0.02276742
0.02305876
0.023047435
0.023039762
0.023031733
0.023023008
0.023014205
0.023007316
0.023000448
0.022995609
0.022995408
0.022996504
0.022997842
0.023000926
0.023004779
0.023007338
0.023011296
0.02301668
0.023020956
0.023025832
0.023208988
0.023207051
0.023208959
0.023210697
0.02321183
0.02321166
0.023210177
0.023209632
0.023211137
0.023212048
0.023213901
0.023219115
0.023225631
0.023233348
0.023244018
0.023255051
0.023266444
0.023278187
0.023289819
0.023301735
0.02331315
0.023324823
0.023335708
0.023344504
0.023355001
0.023367026
0.02337191
0.023262252
0.023267965
0.023278164
0.023289046
0.023299863
0.023310338
0.023319703
0.02332927
0.02333903
0.023348178
0.023359548
0.02337355
0.02338981
0.023408218
0.023428467
0.023452076
0.023477671
0.02350263
0.023522911
0.02354079
0.023558147
0.023571886
0.023582253
0.023590951
0.023594461
0.023594149
0.023588732
0.023571904
0.023537608
0.023492482
0.023442784
0.023373672
0.023277529
0.023172683
0.023238773
0.023249673
0.023264894
0.023281369
0.023298599
0.023316396
0.023335633
0.023355606
0.023371527
0.023385797
0.023403127
0.023430158
0.023464984
0.023494098
0.023520244
0.023552177
0.023583235
0.023617198
0.023665772
0.023710327
0.023747466
0.023783038
0.023813667
0.023831297
0.023836632
0.023834087
0.023824291
0.023801396
0.023761397
0.023699342
0.023620767
0.023529474
0.023439976
0.023335274
0.0232114
0.023075497
0.022947718
0.022846732
0.023168456
0.02318053
0.023195521
0.023211394
0.023228417
0.023246963
0.023267123
0.023289302
0.023318233
0.023354196
0.023390435
0.02341982
0.023445335
0.023482295
0.023526941
0.023573714
0.023628963
0.023694522
0.023753653
0.023810481
0.02386532
0.023913716
0.023960009
0.024008838
0.024044745
0.02405168
0.024035897
0.024008627
0.023967721
0.02389945
0.023802739
0.023700311
0.023595417
0.023476933
0.023345925
0.023223571
0.023111495
0.023013925
0.022925471
0.022850824
0.022699717
0.023069821
0.023088728
0.023110169
0.023131754
0.023153604
0.023175792
0.023198523
0.023221987
0.023248022
0.023277059
0.023308494
0.023343187
0.023382249
0.023427981
0.023481286
0.023536083
0.023598997
0.023663984
0.02373114
0.023809251
0.023889361
0.02397198
0.024043866
0.024098307
0.024143541
0.024182583
0.024202389
0.024184247
0.02412327
0.024041493
0.02394209
0.023825304
0.023703177
0.02357516
0.023465781
0.023352532
0.023244127
0.023157818
0.023068235
0.022973496
0.022806897
0.022634669
0.022381931
0.022143235
0.022946916
0.02297416
0.023003163
0.02303195
0.023060557
0.023089228
0.023117752
0.023145954
0.023174287
0.023203946
0.023236301
0.023272101
0.023311407
0.023354769
0.02340387
0.023461831
0.023521946
0.023586748
0.023663936
0.023751081
0.023844998
0.023938695
0.024030873
0.02411679
0.024179647
0.024219262
0.024242357
0.024245797
0.024217075
0.024138743
0.024025065
0.02389533
0.023763793
0.023640466
0.023530368
0.023422691
0.023310604
0.023235559
0.023179504
0.023067336
0.022882573
0.022683503
0.022385845
0.022140799
0.02196812
0.021846521
0.022836174
0.022870402
0.022906596
0.02294282
0.022979124
0.023015582
0.023051979
0.023088465
0.023124622
0.023160079
0.023195514
0.02323217
0.023271085
0.02331172
0.023354752
0.023401777
0.02345558
0.023516265
0.023579534
0.023648918
0.023728179
0.023819356
0.023912486
0.024003816
0.024094658
0.024166114
0.024209586
0.024215504
0.024195672
0.024138737
0.024036342
0.023906807
0.023762274
0.023630291
0.023518169
0.023418387
0.023317092
0.023251286
0.02321387
0.023138221
0.022956172
0.022735153
0.022415684
0.022158345
0.022019715
0.021964657
0.021708945
0.0214809
0.02275744
0.02279367
0.022832464
0.022872255
0.022913286
0.022955666
0.022999812
0.023043539
0.023085571
0.023127456
0.023170249
0.023212482
0.023252291
0.02329087
0.023329073
0.023366196
0.023402583
0.023440834
0.023485756
0.023540918
0.023605694
0.023676951
0.023750778
0.023827631
0.023912065
0.023991237
0.024048816
0.024086851
0.02408878
0.024057386
0.024012488
0.023901704
0.023755329
0.023609484
0.023492668
0.023402397
0.023332434
0.02327536
0.023218544
0.02316387
0.023013362
0.022778882
0.022491526
0.02223923
0.022095999
0.022036186
0.021867009
0.021609086
0.021550028
0.022694508
0.02272805
0.022765148
0.022804563
0.02284567
0.022888151
0.022930994
0.022976576
0.023027806
0.023080078
0.0231321
0.023181757
0.023224927
0.023264581
0.023301989
0.023335175
0.023367294
0.023397043
0.023427767
0.023461497
0.023501401
0.023549812
0.023609016
0.023668095
0.023726718
0.02379086
0.02384938
0.023893056
0.023925087
0.023941384
0.023890466
0.023825964
0.023737899
0.023586702
0.023458614
0.023354639
0.023313783
0.023256174
0.023207471
0.023151397
0.023019385
0.02285863
0.022655272
0.022394953
0.022220034
0.022131165
0.022004459
0.021691532
0.021551287
0.022656066
0.022678949
0.02270621
0.022737537
0.02277255
0.022810769
0.022854752
0.022902648
0.022948727
0.022994793
0.023041052
0.023088426
0.023142
0.023197885
0.023252333
0.023304693
0.023346607
0.023379581
0.023405883
0.023427361
0.023448776
0.023471253
0.023504154
0.023539563
0.023565095
0.023590912
0.023620995
0.023650628
0.023668596
0.023677586
0.023698406
0.023689539
0.023628514
0.023536588
0.02340669
0.02333344
0.02324314
0.023209606
0.023226118
0.023161454
0.023080059
0.023015955
0.022803713
0.022562219
0.022338264
0.022219011
0.022028273
0.021784787
0.021572226
0.022615166
0.022620788
0.022633478
0.022652752
0.022678591
0.02271049
0.022747814
0.02278879
0.022834378
0.022884306
0.022936591
0.022989556
0.023042567
0.023095116
0.023147294
0.023198837
0.02325281
0.023305179
0.023353651
0.023394012
0.023421029
0.023435218
0.023438695
0.023431573
0.023425431
0.02342114
0.023416434
0.023417881
0.023423049
0.023416962
0.023403924
0.02342266
0.023429853
0.023405231
0.023373339
0.023296395
0.023235127
0.023239694
0.023225918
0.023192351
0.023167309
0.023091805
0.022899374
0.022654819
0.022458023
0.022309758
0.022061177
0.021784383
0.021592167
0.02258694
0.022574386
0.022569011
0.022570687
0.022580174
0.022597408
0.022620272
0.022649493
0.022686403
0.022729232
0.022778791
0.022833808
0.022892336
0.022953649
0.023016184
0.023076505
0.023133432
0.023188793
0.02323849
0.023281199
0.023317147
0.023344868
0.023353708
0.023350182
0.02332698
0.023288805
0.023247433
0.023199583
0.023159374
0.023129556
0.023128777
0.023124157
0.023163311
0.023237292
0.023270755
0.023282462
0.02330199
0.023256151
0.023223623
0.023226457
0.023204405
0.023128274
0.022958132
0.022751006
0.022621431
0.022405325
0.022137964
0.021850975
0.021612061
0.022586534
0.022555628
0.022530524
0.022509614
0.022495331
0.022490303
0.022492475
0.022503191
0.02252521
0.022555029
0.02259251
0.022640249
0.02269404
0.02275207
0.022812978
0.02287651
0.022941072
0.023004043
0.023063307
0.023116734
0.023158586
0.023184501
0.023203133
0.02321038
0.023203371
0.023177948
0.023127217
0.023061755
0.022988931
0.022929299
0.022877763
0.022852582
0.022879291
0.02295379
0.023089124
0.023231638
0.023309303
0.02331335
0.023273173
0.023260231
0.023251116
0.023230848
0.023136026
0.022962616
0.02270871
0.022494823
0.022222627
0.021855783
0.021494032
0.022582941
0.022544521
0.022509724
0.022477399
0.022446777
0.02241846
0.022396622
0.022380649
0.022371028
0.022373553
0.022387668
0.022411262
0.02244603
0.022491057
0.022545887
0.022609325
0.022677108
0.022745582
0.022812613
0.022875395
0.022931371
0.02297447
0.023002916
0.023019181
0.023021095
0.02300642
0.022979393
0.022931369
0.022857915
0.02277263
0.022700196
0.022654981
0.022645211
0.022710885
0.022856578
0.023071279
0.023273153
0.023398773
0.023427472
0.023396975
0.023374786
0.02337632
0.023313615
0.023125874
0.022805285
0.022628938
0.022315749
0.021915981
0.021582843
0.022530046
0.022493717
0.022455462
0.022415647
0.022375903
0.022337613
0.022302571
0.022272954
0.022249864
0.022234017
0.022227263
0.022229675
0.022242865
0.022267005
0.022300412
0.0223425
0.022393665
0.022452094
0.022513556
0.022574366
0.022634222
0.02269062
0.022740209
0.022777242
0.022795063
0.022796113
0.0227827
0.022760407
0.022724715
0.022672052
0.022610874
0.022552704
0.022518071
0.022548701
0.022680517
0.02291677
0.023204198
0.023457875
0.023597616
0.023621439
0.023554036
0.023453653
0.023409428
0.023299575
0.023060056
0.022820388
0.022447957
0.022091932
0.021743806
0.022410633
0.022392888
0.022367723
0.022336459
0.022300893
0.022262641
0.022223418
0.022185041
0.022149055
0.022117111
0.022091348
0.022073381
0.022064351
0.022066046
0.022079171
0.022103458
0.022138364
0.022182606
0.022234312
0.022290209
0.02234713
0.022402791
0.022455055
0.022500224
0.022535698
0.022558606
0.022572223
0.022578787
0.022581794
0.022574373
0.02256523
0.02255394
0.022543239
0.022566705
0.022661315
0.022856192
0.023147057
0.023466344
0.023732644
0.023836451
0.023754533
0.023567029
0.023491671
0.023524453
0.023300284
0.022948187
0.022532491
0.022221354
0.021762851
0.022228504
0.022235909
0.022232924
0.022221387
0.022202025
0.022175864
0.022144288
0.022108625
0.022070619
0.0220319
0.021994514
0.021960794
0.021932212
0.021910903
0.021899219
0.021898982
0.021911233
0.021936463
0.021974569
0.02202204
0.022075134
0.022130837
0.022186155
0.022244129
0.022297409
0.022344787
0.022380736
0.02242616
0.0224835
0.022535868
0.02258109
0.022621023
0.022676084
0.022734046
0.022805059
0.022933082
0.023143454
0.023430023
0.02371409
0.023887628
0.023881478
0.023698117
0.023529181
0.023542403
0.023335213
0.023012382
0.022565578
0.022240542
0.021746153
0.02202078
0.022046638
0.02206201
0.022069645
0.022069554
0.022061487
0.022045032
0.022020792
0.021989918
0.021953792
0.021914683
0.021875214
0.021837578
0.021803831
0.021777057
0.021760017
0.021754095
0.021760551
0.021780795
0.021814789
0.021861461
0.021918697
0.021984273
0.022052134
0.022122973
0.022198081
0.022275926
0.022349487
0.02242284
0.022509236
0.022604681
0.022722577
0.022827134
0.022915754
0.023001412
0.023078432
0.023174486
0.023331899
0.023532425
0.02370097
0.023779175
0.023682472
0.023449157
0.023349251
0.023239374
0.023034383
0.022612505
0.022280452
0.021755097
0.021827892
0.021860588
0.021884981
0.021904191
0.021917378
0.021923728
0.021922683
0.021913575
0.021896685
0.021872962
0.021843571
0.021810397
0.021776439
0.021743513
0.021713712
0.02168972
0.021674014
0.021668457
0.021675537
0.021697027
0.021734336
0.021787017
0.021855457
0.021937681
0.022027471
0.022111884
0.022198611
0.022282451
0.022377863
0.022496576
0.022614282
0.022729981
0.022861121
0.022985452
0.023075586
0.023131216
0.023157877
0.023187098
0.023247625
0.023353956
0.02346566
0.02346954
0.023312328
0.023165287
0.023141123
0.023013283
0.0226577
0.022288139
0.021742516
0.021677026
0.021705914
0.021728625
0.02174915
0.021767604
0.021782028
0.021791145
0.021794303
0.02179103
0.021781709
0.021767508
0.021750847
0.021731484
0.021709921
0.021688175
0.021669413
0.021656726
0.021651916
0.021655684
0.021670887
0.021699123
0.021740848
0.021794575
0.021863101
0.02195075
0.022050333
0.02213855
0.022220121
0.022316213
0.022421361
0.022540302
0.022660094
0.022773401
0.02288056
0.022960864
0.02301144
0.023041856
0.023040837
0.023017048
0.023033289
0.023110651
0.023181162
0.023183627
0.023112783
0.023088326
0.022961453
0.022680246
0.022303415
0.021730854
0.021562003
0.021581735
0.021597326
0.021614243
0.021631899
0.021649135
0.021665104
0.021678505
0.021687957
0.021692961
0.021693519
0.021689806
0.02168389
0.021677908
0.021673454
0.021670522
0.021668935
0.021669992
0.02167601
0.02168978
0.021712494
0.021746421
0.021789458
0.021840237
0.021900571
0.021973611
0.022050381
0.022122027
0.022191363
0.022268564
0.0223597
0.022448326
0.022527893
0.022602732
0.022676388
0.022775351
0.022865105
0.022917278
0.022942943
0.022938086
0.02292549
0.022977091
0.023092642
0.023119424
0.023059631
0.022921352
0.022669569
0.022377141
0.02170949
0.021440492
0.021454498
0.021463994
0.021475774
0.021491124
0.021509734
0.021530269
0.021552001
0.021573654
0.021593836
0.021611592
0.021626322
0.021638061
0.021647776
0.021655982
0.021663522
0.021671959
0.021682313
0.021694955
0.021708054
0.021724677
0.021747408
0.021778736
0.021812282
0.021841848
0.021864368
0.021885787
0.021915718
0.021955686
0.02199436
0.022037661
0.022100529
0.022194887
0.02229618
0.022402981
0.022545813
0.02270684
0.022859617
0.022985444
0.02300816
0.022941796
0.022917938
0.022951837
0.023057806
0.023001444
0.022857507
0.022615962
0.022431487
0.021723854
0.021278705
0.021292412
0.021301107
0.021313101
0.021328748
0.021349599
0.021374732
0.02140341
0.021435456
0.021469769
0.021504531
0.021537976
0.021568755
0.021596193
0.021620311
0.021641185
0.021659213
0.021674858
0.021688942
0.021701731
0.021712031
0.021720181
0.021726781
0.021732258
0.021733665
0.021729737
0.021716898
0.02169779
0.021682127
0.021686363
0.02172461
0.021804596
0.021937328
0.022074521
0.022232374
0.02241604
0.022605561
0.022793479
0.022959018
0.023064126
0.023060551
0.022962324
0.022918536
0.022937987
0.022900567
0.022788961
0.022552299
0.022423769
0.021782468
0.021134735
0.021160799
0.021192273
0.021228395
0.021269284
0.021314982
0.021364325
0.021414983
0.02146414
0.021509297
0.021548824
0.021582091
0.021608869
0.021629352
0.021644528
0.021655028
0.021659344
0.021655613
0.021644236
0.021628364
0.021611314
0.021594116
0.021576171
0.021552765
0.021529752
0.02151729
0.021542464
0.021622516
0.021753556
0.021917724
0.022147466
0.022341798
0.022553022
0.022749402
0.022925527
0.023078262
0.023118838
0.02307826
0.022948343
0.022840851
0.022776097
0.02269228
0.022456033
0.022365997
0.021798199
0.021122688
0.021180675
0.021242527
0.021305451
0.021365918
0.021420915
0.021467969
0.021505187
0.021531769
0.021548513
0.021557041
0.021557786
0.021550245
0.021534137
0.021512313
0.021492474
0.021479375
0.021474732
0.021477499
0.021486774
0.021497233
0.021524368
0.021582128
0.021663531
0.02183512
0.022044615
0.022270567
0.022498085
0.022687993
0.02284616
0.022988257
0.023096746
0.023103634
0.022971885
0.022825952
0.022653258
0.022541476
0.022305606
0.022257163
0.021769863
0.021286504
0.021336236
0.021374045
0.021398837
0.021411972
0.021417052
0.021416136
0.021410919
0.021404767
0.021399326
0.021401686
0.021418064
0.021448934
0.021484919
0.021520924
0.021548667
0.021588583
0.021656715
0.021775749
0.02194562
0.022182313
0.022400226
0.022591452
0.022739086
0.022856085
0.022960157
0.023036454
0.023031469
0.022859935
0.022599714
0.022400536
0.022117717
0.022085589
0.0217163
0.021230796
0.0212537
0.021270019
0.021284384
0.021302174
0.021324747
0.02135378
0.021391406
0.021438676
0.021488237
0.021535608
0.021577279
0.021625496
0.021676947
0.02176428
0.021901579
0.022094471
0.022288146
0.022469572
0.022635582
0.02278175
0.022886492
0.022969442
0.022965672
0.022840363
0.022610674
0.022328824
0.021909247
0.021897567
0.021635202
0.021193961
0.021240406
0.021290888
0.021344118
0.021402829
0.021465515
0.021530838
0.021595968
0.021658041
0.021725499
0.021816039
0.021942623
0.022083351
0.022232911
0.022394177
0.022587358
0.022736232
0.022814777
0.022849518
0.022828025
0.022743697
0.022589218
0.022256524
0.021763462
0.021713912
0.021515231
0.021324494
0.021402078
0.0214893
0.021589206
0.021693258
0.021813318
0.02192546
0.022009048
0.022092115
0.02219268
0.022320557
0.022483903
0.022624869
0.022720332
0.02272597
0.022630209
0.022547956
0.0224424
0.022117397
0.021662203
0.021494287
0.021322093
0.021549805
0.021686992
0.021824707
0.021940513
0.022055185
0.022120629
0.022162519
0.022241961
0.02234286
0.022471775
0.022587903
0.022608807
0.02246826
0.022318323
0.022198391
0.021963635
0.02161007
0.021355419
0.021067175
0.021944313
0.02204931
0.022107202
0.022185333
0.022243131
0.022270873
0.022330354
0.0224234
0.022454402
0.022355669
0.022180494
0.022042696
0.022033175
0.02189354
0.021753858
0.021227886
0.022116721
0.022194274
0.022224161
0.02223346
0.022228491
0.022229495
0.02224117
0.022248134
0.022228474
0.022215484
0.022590435
0.022686803
0.023169172
0.022330793
0.022180269
0.022131464
0.022084802
0.022118012
0.02226835
0.022509809
0.022869793
0.023727276
0.024153899
0.024819948
0.023586991
0.02211314
0.022257579
0.02260093
0.023252203
0.024117952
0.025090645
0.025214107
0.024281513
0.022818673
0.023456465
0.024499893
0.025541341
0.025916047
0.024784682
0.022933257
0.021884953
0.025717159
0.026087768
0.025249429
0.02381364
0.023366168
0.02357226
0.023647117
0.023133163
0.023954488
0.025691524
0.02271025
0.023508526
0.024256479
0.02211998
0.01935908
)
;

boundaryField
{
    Side
    {
        type            empty;
    }
    Inlet
    {
        type            calculated;
        value           nonuniform List<scalar> 
32
(
0.020887726
0.020884871
0.020913843
0.020992678
0.021016342
0.02105803
0.021175246
0.021225064
0.021222812
0.02125071
0.021300603
0.021349543
0.021368444
0.02137075
0.021366273
0.021349823
0.021328058
0.02130286
0.021265222
0.021204044
0.021123459
0.021035117
0.020932596
0.020855735
0.020910087
0.020973676
0.020901548
0.020802315
0.020814548
0.020640886
0.020071683
0.01997138
)
;
    }
    Airfoil
    {
        type            calculated;
        value           nonuniform List<scalar> 0();
    }
    Outlet
    {
        type            calculated;
        value           nonuniform List<scalar> 0();
    }
    procBoundary4to3
    {
        type            processor;
        value           nonuniform List<scalar> 
57
(
0.022576843
0.022560135
0.022545581
0.022532853
0.022521796
0.022512012
0.022759873
0.022759873
0.022752616
0.022746464
0.022742981
0.022740535
0.022739737
0.022739763
0.02274091
0.022742464
0.022744703
0.022748543
0.02275532
0.023032494
0.023032494
0.023042605
0.023056814
0.023074704
0.0230948
0.023116764
0.023140192
0.023161893
0.023362938
0.023362938
0.023346493
0.023313292
0.023267437
0.023215425
0.023122434
0.023000884
0.023041612
0.023041612
0.022903219
0.022797983
0.022710412
0.022784804
0.022784804
0.022718004
0.02260907
0.022577876
0.022577876
0.022370327
0.022138861
0.021929271
0.021929271
0.021701825
0.021633105
0.021633105
0.021472569
0.021495363
0.021495363
)
;
    }
    procBoundary4to5
    {
        type            processor;
        value           nonuniform List<scalar> 
64
(
0.021086108
0.021097259
0.021113778
0.021113778
0.020912133
0.020942843
0.020979827
0.021022387
0.021069898
0.021069898
0.020896636
0.020956607
0.021021902
0.021090939
0.021160531
0.021226913
0.021226913
0.021043657
0.021105322
0.021157696
0.021200046
0.021200046
0.021021455
0.021072234
0.021116666
0.021154862
0.021154862
0.021064233
0.021124859
0.021188409
0.021253752
0.021253752
0.021217518
0.021313659
0.02142384
0.02142384
0.021474641
0.021637099
0.021799607
0.021799607
0.021868036
0.02200448
0.02200448
0.022014046
0.022118239
0.022182175
0.022182175
0.02210059
0.022099167
0.022099167
0.022375361
0.022757539
0.022757539
0.024648553
0.024648553
0.025645046
0.024809084
0.024809084
0.021996705
0.021996705
0.023406658
0.023406658
0.024206757
0.022400484
)
;
    }
    procBoundary4to11
    {
        type            processor;
        value           nonuniform List<scalar> 
26
(
0.02305017
0.023198001
0.023252659
0.02323069
0.023162255
0.023060145
0.022930623
0.022812566
0.022730988
0.022670108
0.022642044
0.02261923
0.022606516
0.022619528
0.022625073
0.022574716
0.0224452
0.022247315
0.02202657
0.021826683
0.021677245
0.021572306
0.021461348
0.021309553
0.022842673
0.022842673
)
;
    }
    procBoundary4to12
    {
        type            processor;
        value           uniform 0.021070937;
    }
}


// ************************************************************************* //
