/*--------------------------------*- C++ -*----------------------------------*\
| =========                 |                                                 |
| \\      /  F ield         | OpenFOAM: The Open Source CFD Toolbox           |
|  \\    /   O peration     | Version:  2506                                  |
|   \\  /    A nd           | Website:  www.openfoam.com                      |
|    \\/     M anipulation  |                                                 |
\*---------------------------------------------------------------------------*/
FoamFile
{
    version     2.0;
    format      ascii;
    arch        "LSB;label=32;scalar=64";
    class       volVectorField;
    location    "2.05";
    object      U;
}
// * * * * * * * * * * * * * * * * * * * * * * * * * * * * * * * * * * * * * //

dimensions      [0 1 -1 0 0 0 0];

internalField   nonuniform List<vector> 
1376
(
(93.150921 0.0075751634 0)
(93.503929 -0.001737647 0)
(93.856628 -0.002270397 1.2142777e-17)
(94.088976 -0.0027852191 5.9695059e-18)
(93.170765 0.0067908691 0)
(93.522627 -0.00060061981 0)
(93.871642 0.0005431111 -5.9359946e-23)
(94.100038 0.0015778566 1.7543959e-17)
(94.227069 0.0018652299 -1.724271e-17)
(94.291508 0.0016449046 1.1287025e-17)
(94.322221 0.00084706533 -4.8932347e-23)
(94.336534 -0.00066042026 0)
(94.343686 -0.002758071 -3.1866795e-17)
(94.348076 -0.0053240519 2.0780151e-17)
(93.189611 0.00030887191 1.1976893e-17)
(93.538725 -0.007054902 0)
(93.883718 -0.004847164 -2.9103142e-17)
(94.108343 -0.002815833 -5.7284388e-18)
(94.232759 -0.001310873 4.0048216e-23)
(94.29582 -6.5919428e-05 -1.1068886e-17)
(94.326153 0.00072427912 -3.9994887e-23)
(94.340748 0.0010193824 1.065526e-17)
(94.348495 0.00082837777 1.0437591e-17)
(94.353484 0.00015737484 0)
(94.357267 -0.0010625875 -2.9946368e-17)
(94.360226 -0.0028344104 9.7458642e-18)
(94.362399 -0.0050758707 -1.9010442e-17)
(94.363874 -0.0076840357 3.7043406e-17)
(94.364801 -0.010342609 -1.8026335e-17)
(93.20796 -0.0043121919 1.4654508e-18)
(93.553251 -0.012737001 -1.4461925e-18)
(93.894075 -0.010093271 2.2804246e-17)
(94.115083 -0.0083776316 -5.6124625e-18)
(94.237003 -0.0069767463 1.6561835e-17)
(94.298617 -0.005768504 -1.0852676e-17)
(94.328324 -0.0048802215 1.0659741e-17)
(94.342884 -0.0041696699 0)
(94.351006 -0.0035777626 -1.0257604e-17)
(94.356649 -0.0030882276 0)
(94.361218 -0.002778105 1.9650037e-17)
(94.364873 -0.0027662806 0)
(94.367428 -0.003168184 3.7449197e-17)
(94.368863 -0.0040847825 -1.824147e-17)
(94.369415 -0.0054467754 1.775012e-17)
(94.369472 -0.0068146042 -2.1967901e-23)
(94.36922 -0.0088985324 -1.6785626e-17)
(94.368923 -0.011772804 1.6287753e-17)
(94.368627 -0.01439808 2.5237208e-23)
(93.225045 -0.0021143566 -1.1479173e-17)
(93.565976 -0.011540842 -1.1330615e-17)
(93.902918 -0.0094168917 -1.6754017e-17)
(94.12074 -0.0085145554 -5.4990202e-18)
(94.240475 -0.0076848748 0)
(94.300779 -0.0071633708 -1.0635495e-17)
(94.329817 -0.0069407972 -2.0893584e-17)
(94.344098 -0.0068637249 -2.0509778e-17)
(94.352156 -0.0068655515 0)
(94.357873 -0.0068728899 0)
(94.362648 -0.0068489472 0)
(94.366652 -0.0067889943 0)
(94.369667 -0.0067368413 -1.8438666e-17)
(94.37159 -0.0067345241 -3.5973181e-17)
(94.372596 -0.0068534728 0)
(94.37303 -0.0069948572 -1.7043058e-17)
(94.373093 -0.0072933082 1.0408594e-23)
(94.372929 -0.007737091 0)
(94.372724 -0.0087896706 3.1235316e-17)
(94.372453 -0.01017364 -3.0250944e-17)
(94.371953 -0.011684674 2.9250605e-17)
(94.371155 -0.014540584 -2.8244867e-17)
(94.370181 -0.017192281 -1.362355e-17)
(93.241545 0.0023145876 0)
(93.57825 -0.0078624498 1.1096085e-17)
(93.911732 -0.0057957502 5.4700814e-18)
(94.126654 -0.0053667513 -1.07744e-17)
(94.24434 -0.0050044203 1.4335861e-23)
(94.30339 -0.0049686883 5.2113438e-18)
(94.331765 -0.00520395 6.0426217e-24)
(94.345744 -0.0055729937 3.0155907e-17)
(94.353676 -0.006017082 -9.8614582e-18)
(94.359336 -0.0064786775 -2.544638e-23)
(94.364069 -0.0069353783 9.4675662e-18)
(94.368032 -0.0074021412 -1.8527022e-17)
(94.371014 -0.0079145047 3.6216987e-17)
(94.372919 -0.0084772715 1.7679299e-17)
(94.373917 -0.0089859041 1.724036e-17)
(94.374347 -0.0095330758 -1.6788178e-17)
(94.374493 -0.0099659694 1.6345104e-17)
(94.374467 -0.01015773 0)
(94.374436 -0.01036552 -1.5419754e-17)
(94.374485 -0.010530286 0)
(94.374539 -0.010859319 -3.9289548e-23)
(94.374536 -0.011424785 2.8024997e-17)
(94.374302 -0.012663397 -3.8270275e-23)
(94.373202 -0.012893895 -1.3009114e-17)
(94.371532 -0.015876824 0)
(94.369869 -0.019192876 4.8174692e-17)
(94.368139 -0.021790719 -1.1573415e-17)
(93.259259 0.0066263247 0)
(93.592474 -0.0053328301 1.0870317e-17)
(93.922686 -0.0037023571 0)
(94.134534 -0.0040401983 1.0560459e-17)
(94.249917 -0.0041454448 1.5591668e-17)
(94.30748 -0.0043773926 -2.5557877e-17)
(94.335002 -0.0047537037 -1.0047748e-17)
(94.348541 -0.0052012188 2.9606384e-17)
(94.356257 -0.0056856625 1.937158e-17)
(94.361802 -0.0061414266 -1.899506e-17)
(94.366453 -0.0065512525 -1.8606977e-17)
(94.370331 -0.0069588624 3.641532e-17)
(94.373211 -0.0074298943 -3.5594832e-17)
(94.374979 -0.008011042 -5.2128511e-17)
(94.375792 -0.0087781214 1.6943245e-17)
(94.375998 -0.0093637813 -1.6519349e-17)
(94.375838 -0.010451683 -1.608994e-17)
(94.375572 -0.011078619 1.5637991e-17)
(94.375375 -0.011729629 0)
(94.375299 -0.01226003 1.3697453e-23)
(94.375326 -0.012668014 -2.859346e-17)
(94.375501 -0.012645052 -1.3834892e-17)
(94.375934 -0.013186147 -1.3369828e-17)
(94.376385 -0.013705455 2.5815642e-17)
(94.376118 -0.013473431 1.2436057e-17)
(94.374785 -0.013773532 -1.1949865e-17)
(94.372597 -0.015580944 0)
(94.370197 -0.017544285 -1.1015021e-17)
(94.368425 -0.02299265 -1.0573323e-17)
(94.366832 -0.025060227 2.0271689e-17)
(93.278746 0.013856227 0)
(93.609579 0.00027289019 -6.5164887e-23)
(93.936588 0.0013892404 0)
(94.145063 -0.00031708691 1.5537969e-17)
(94.257765 -0.0016232915 -1.5299043e-17)
(94.313502 -0.0030560597 4.014094e-17)
(94.33991 -0.0044393614 1.9734072e-17)
(94.352805 -0.0057146597 -3.8780997e-17)
(94.360139 -0.00685201 9.5192784e-18)
(94.365425 -0.0077724867 -2.801466e-17)
(94.369869 -0.0084514309 8.398784e-23)
(94.373569 -0.0089193564 -1.7919135e-17)
(94.376291 -0.0092460264 -1.7523692e-17)
(94.377915 -0.0094543193 5.1346606e-17)
(94.37859 -0.0095685087 -1.6696258e-17)
(94.378691 -0.0098367049 1.6283379e-17)
(94.378302 -0.010364216 1.5860277e-17)
(94.377806 -0.010821792 -1.5418717e-17)
(94.377421 -0.011453518 1.4976265e-17)
(94.377136 -0.012166443 1.4528899e-17)
(94.376868 -0.013139301 -2.8143341e-17)
(94.376606 -0.013771825 1.3614959e-17)
(94.376543 -0.014184176 -1.3184435e-17)
(94.376862 -0.015051249 2.5504257e-17)
(94.37727 -0.014947044 -2.4617464e-17)
(94.377615 -0.015251915 1.1858025e-17)
(94.377643 -0.015566008 -1.1408401e-17)
(94.376161 -0.015255663 -4.3790999e-17)
(94.373281 -0.014583464 1.0213307e-23)
(94.370817 -0.020561433 2.0113134e-17)
(94.369152 -0.02159824 -8.8438692e-25)
(94.36753 -0.023287686 -1.8442243e-17)
(94.365202 -0.028075924 1.7613174e-17)
(93.299018 0.020480346 9.2581496e-18)
(93.628475 0.0073240144 -9.1450882e-18)
(93.952338 0.0079644762 0)
(94.157477 0.0061201929 -2.0333553e-17)
(94.267525 0.0044193755 5.0070546e-18)
(94.321417 0.0021876216 -3.4494355e-17)
(94.346628 -0.00029450816 -9.6929463e-18)
(94.358757 -0.0028962659 3.8106122e-17)
(94.365553 -0.0054395731 0)
(94.370382 -0.0077759122 1.8361965e-17)
(94.374387 -0.0098100842 1.80013e-17)
(94.377671 -0.011525432 1.7630218e-17)
(94.380008 -0.012814668 0)
(94.381288 -0.013786003 0)
(94.381708 -0.014102868 -5.3870442e-23)
(94.38171 -0.014638369 1.6057521e-17)
(94.381254 -0.01463385 1.5651908e-17)
(94.380686 -0.014078955 -1.5225068e-17)
(94.380244 -0.013451906 5.1213116e-23)
(94.380025 -0.013150138 -2.8742377e-17)
(94.379919 -0.012931908 5.5747947e-17)
(94.379585 -0.012950067 -2.6960556e-17)
(94.378893 -0.013594714 0)
(94.378351 -0.015379605 -1.2567949e-17)
(94.378114 -0.016462962 -2.5464086e-23)
(94.378011 -0.017140138 3.5175478e-17)
(94.378089 -0.017645615 0)
(94.378647 -0.018245532 2.1760576e-17)
(94.37902 -0.018822644 2.0877244e-17)
(94.376634 -0.014820143 -1.9979654e-17)
(94.373269 -0.021750423 -6.8401975e-23)
(94.371551 -0.023197054 -1.8331515e-17)
(94.370007 -0.022916977 0)
(94.366994 -0.025699102 0)
(94.364413 -0.027119236 0)
(93.318899 0.019954258 -1.0375375e-17)
(93.647365 0.0085669695 0)
(93.96767 0.0099360638 2.0239599e-17)
(94.169401 0.0095072017 0)
(94.277155 0.0088259939 1.4753072e-17)
(94.329799 0.0076262562 -1.4526156e-17)
(94.3544 0.00588972 0)
(94.366213 0.0036179354 -1.8732964e-17)
(94.372744 0.00094941526 -9.2007988e-18)
(94.37721 -0.0020039211 1.8060303e-17)
(94.380698 -0.005114516 4.427195e-17)
(94.38336 -0.0083496033 -3.4692576e-17)
(94.385057 -0.011545967 1.6970049e-17)
(94.385724 -0.0138667 0)
(94.38574 -0.016945729 -3.2428648e-17)
(94.38532 -0.019005846 1.5833359e-17)
(94.384583 -0.020964964 -4.2795605e-23)
(94.383778 -0.022172296 1.5021769e-17)
(94.383078 -0.022528955 1.4602139e-17)
(94.382672 -0.022262732 1.4179457e-17)
(94.382643 -0.021997388 -1.3759391e-17)
(94.382846 -0.021197302 -7.2594327e-24)
(94.382801 -0.018730587 -1.2925241e-17)
(94.382198 -0.016167085 -1.2472425e-17)
(94.381399 -0.015567665 -7.2158595e-17)
(94.380424 -0.016381797 -1.1577751e-17)
(94.379377 -0.018010272 2.2278332e-17)
(94.378969 -0.01854767 -3.6193394e-23)
(94.379291 -0.020045772 2.0682919e-17)
(94.380666 -0.02184349 0)
(94.378986 -0.011968242 1.9017181e-17)
(94.37498 -0.023070112 -1.8188127e-17)
(94.373257 -0.02472737 1.7421864e-17)
(94.371736 -0.024556921 1.6641409e-17)
(94.368872 -0.026097486 1.5867743e-17)
(94.366679 -0.02697826 6.8111709e-17)
(94.365541 -0.027902442 3.6069853e-17)
(94.364297 -0.028185676 -2.7309345e-23)
(93.338632 0.01517938 -2.1621311e-17)
(93.666178 0.0036289085 -1.2569785e-18)
(93.982125 0.0053678158 2.4820709e-18)
(94.179737 0.0055787768 1.9589805e-17)
(94.284871 0.0056249385 -9.6562987e-18)
(94.336304 0.0054552009 3.805224e-17)
(94.360638 0.0049707709 -4.8019447e-23)
(94.372678 0.0041762538 9.2118573e-18)
(94.379598 0.0031259675 -9.0534424e-18)
(94.384391 0.0018192584 -2.6667741e-17)
(94.387997 0.00026116485 -1.7438255e-17)
(94.390521 -0.0016750479 1.7085117e-17)
(94.391909 -0.0042662671 -1.6718816e-17)
(94.392284 -0.0064108264 1.6361825e-17)
(94.391992 -0.010262728 4.5484825e-23)
(94.390943 -0.013221108 1.560603e-17)
(94.389569 -0.016804312 -1.5214151e-17)
(94.388134 -0.020304372 -2.9633628e-17)
(94.386806 -0.023170063 0)
(94.385725 -0.025051921 0)
(94.385075 -0.026465468 0)
(94.384928 -0.027878949 -1.3183093e-17)
(94.385088 -0.029280756 2.5542798e-17)
(94.385177 -0.028579797 4.9439471e-17)
(94.385072 -0.026586216 2.3896077e-17)
(94.384747 -0.024112 -1.7572204e-22)
(94.38373 -0.02025311 -2.2149616e-17)
(94.381799 -0.019511118 -2.1253405e-17)
(94.380445 -0.019727682 -7.8783635e-23)
(94.38069 -0.023171727 1.9683629e-17)
(94.382179 -0.025483376 3.7653303e-17)
(94.380068 -0.009201141 3.6167019e-17)
(94.376262 -0.024962438 -5.1856583e-17)
(94.375015 -0.026596212 -3.3096845e-17)
(94.373547 -0.026993666 -1.5794996e-17)
(94.370685 -0.027494882 -3.011623e-17)
(94.368591 -0.029248187 -2.8719925e-17)
(94.366982 -0.028401498 -2.0514498e-17)
(94.364873 -0.027891411 -1.2992028e-17)
(94.363322 -0.027934054 1.151133e-23)
(93.359007 0.010378473 1.9963111e-17)
(93.6859 -0.0022191306 1.9733414e-17)
(93.997105 0.00027767484 -1.9486201e-17)
(94.190127 0.00041564805 -1.4419011e-17)
(94.292182 0.00047127428 -4.738697e-18)
(94.341917 0.00031505716 0)
(94.36549 -0.0001273663 -2.7588524e-17)
(94.377301 -0.00078731963 9.0502796e-18)
(94.384263 -0.0015707622 0)
(94.389222 -0.0023836145 -8.744298e-18)
(94.393048 -0.0031175061 2.5749855e-17)
(94.395817 -0.0037304818 5.6968661e-23)
(94.397531 -0.0043097568 -3.2973907e-17)
(94.398401 -0.0047756158 1.6127073e-17)
(94.398642 -0.0056235913 0)
(94.397981 -0.0067845143 1.5409992e-17)
(94.396592 -0.0087085097 -1.502384e-17)
(94.394808 -0.011547429 4.8832428e-23)
(94.392868 -0.014996523 1.4236042e-17)
(94.390905 -0.018360461 0)
(94.38922 -0.021831912 0)
(94.38812 -0.025032396 1.3017706e-17)
(94.387619 -0.027978625 -1.2618736e-17)
(94.387415 -0.030562777 -2.4435795e-17)
(94.387191 -0.031620945 -2.3610927e-17)
(94.387054 -0.032520083 -1.9188679e-22)
(94.38704 -0.033907809 2.20296e-17)
(94.386356 -0.0327095 2.1177392e-17)
(94.384285 -0.027411179 -2.030992e-17)
(94.382269 -0.025142825 -1.9442289e-17)
(94.382075 -0.028424697 -1.8606434e-17)
(94.382869 -0.029001794 -5.3738762e-17)
(94.380863 -0.012060863 3.4394021e-17)
(94.378231 -0.023723561 1.6436444e-17)
(94.377307 -0.026410602 -6.2872315e-17)
(94.374973 -0.027889767 0)
(94.371627 -0.02945811 0)
(94.369319 -0.032182245 0)
(94.367366 -0.0295256 0)
(94.365142 -0.029043961 0)
(94.363687 -0.029805735 4.0833375e-17)
(94.363798 -0.029132324 5.5621218e-18)
(93.379033 0.0062468004 0)
(93.705463 -0.0070030871 -3.6321978e-17)
(94.012156 -0.0041955883 -2.3916222e-18)
(94.200904 -0.0039973415 0)
(94.300122 -0.0038663182 -1.8617336e-17)
(94.348249 -0.0038916759 0)
(94.370982 -0.0042526364 -1.8066843e-17)
(94.382329 -0.0049250147 8.8907359e-18)
(94.388948 -0.0058557468 -1.74884e-17)
(94.393572 -0.0069754882 5.1559535e-17)
(94.397054 -0.0081818712 -2.5313117e-17)
(94.399534 -0.0094301106 8.7325622e-23)
(94.401089 -0.010639994 -1.6226615e-17)
(94.401958 -0.011540003 -6.4497992e-23)
(94.402388 -0.01235426 1.5534057e-17)
(94.402402 -0.013332221 -3.0386848e-17)
(94.401826 -0.013581096 -1.4839972e-17)
(94.400837 -0.014036053 -2.8048977e-23)
(94.399558 -0.014984119 2.8160697e-17)
(94.397987 -0.015883059 -4.1062956e-17)
(94.396162 -0.016643023 -1.3287345e-17)
(94.394349 -0.018885554 -1.2883457e-17)
(94.392886 -0.022706127 2.4962481e-17)
(94.391838 -0.027151537 -2.4161656e-17)
(94.390849 -0.03008437 2.3356143e-17)
(94.389785 -0.031103927 -6.3061332e-23)
(94.388963 -0.033377633 -2.1780387e-17)
(94.388334 -0.035754883 -2.1004139e-17)
(94.387199 -0.03719377 0)
(94.385063 -0.034939693 1.9372888e-17)
(94.383097 -0.033315762 9.9128282e-23)
(94.382646 -0.034746588 5.3138743e-17)
(94.383038 -0.033238066 -3.4247928e-17)
(94.381787 -0.021404972 1.6359787e-17)
(94.380396 -0.024783881 3.1276797e-17)
(94.379505 -0.023292061 0)
(94.375986 -0.025010011 0)
(94.371837 -0.028511281 3.3839507e-17)
(94.369219 -0.032551831 -6.4520307e-18)
(94.367257 -0.029643048 0)
(94.365083 -0.029732064 -4.0768771e-17)
(94.363941 -0.029574146 -5.5193504e-18)
(94.364402 -0.031777881 0)
(93.397077 0.0035764287 0)
(93.722659 -0.0096543703 2.1395571e-17)
(94.025221 -0.0063464702 2.3485404e-18)
(94.210248 -0.0062270748 1.8545638e-17)
(94.307142 -0.0061669424 1.3720165e-17)
(94.3541 -0.0060362415 1.803324e-17)
(94.376379 -0.0061150703 3.5530798e-17)
(94.387625 -0.0063870859 0)
(94.394247 -0.0068261887 0)
(94.398818 -0.0074088441 -1.6908943e-17)
(94.402126 -0.0082004492 0)
(94.404326 -0.0092434858 4.0823109e-23)
(94.405523 -0.010589196 1.5959122e-17)
(94.405982 -0.011813584 -4.1303398e-23)
(94.405973 -0.013551272 -1.5319861e-17)
(94.405635 -0.015172276 2.9944396e-17)
(94.404989 -0.016786261 -1.4621711e-17)
(94.404141 -0.018103638 1.426446e-17)
(94.403216 -0.019456308 0)
(94.402358 -0.020892972 6.1216199e-23)
(94.401586 -0.021610471 1.3155617e-17)
(94.400744 -0.021130234 2.5536555e-17)
(94.399718 -0.020405565 -2.4748877e-17)
(94.398603 -0.021495191 2.395967e-17)
(94.397319 -0.024940491 0)
(94.395365 -0.026331108 0)
(94.393102 -0.029089683 -2.1553325e-17)
(94.391242 -0.032445354 4.1549895e-17)
(94.389592 -0.035467994 6.2199761e-23)
(94.387601 -0.038936633 -3.8471198e-17)
(94.385358 -0.038692641 1.8432701e-17)
(94.383792 -0.038619777 0)
(94.383696 -0.04128886 -3.3985396e-17)
(94.383297 -0.038568162 3.2546304e-17)
(94.382162 -0.033947375 -3.1101048e-17)
(94.381519 -0.032789777 -1.4884094e-17)
(94.380855 -0.027624925 1.4191981e-17)
(94.376501 -0.02428011 -2.6959475e-17)
(94.37187 -0.028550504 -3.2071391e-17)
(94.369155 -0.033781452 6.1111338e-18)
(94.367044 -0.030293967 0)
(94.36513 -0.030384834 0)
(94.364725 -0.033327848 0)
(94.36566 -0.031303747 -4.965751e-18)
(94.366632 -0.035663355 -3.3125082e-17)
(93.413721 0.0028724591 1.8871882e-17)
(93.738138 -0.011926348 -2.1001077e-17)
(94.036939 -0.0085732381 6.9165535e-18)
(94.218538 -0.0093448421 -2.2760262e-17)
(94.313238 -0.0095590903 -1.7964112e-17)
(94.359 -0.0097212399 -8.8569948e-18)
(94.380731 -0.010009601 -6.6563923e-23)
(94.391798 -0.010318478 -8.597582e-18)
(94.398436 -0.010592992 1.6924014e-17)
(94.403116 -0.010736067 0)
(94.406579 -0.010748379 0)
(94.40897 -0.010731163 0)
(94.410376 -0.01086188 1.5733127e-17)
(94.410989 -0.011154135 -1.5406484e-17)
(94.411035 -0.011807185 0)
(94.410458 -0.012974577 0)
(94.409496 -0.014522562 -1.441051e-17)
(94.408247 -0.016813819 -8.8947923e-24)
(94.406859 -0.019127251 1.3702372e-17)
(94.405549 -0.021204585 0)
(94.40452 -0.023517631 2.5962804e-17)
(94.403824 -0.025960739 -1.2617001e-17)
(94.403293 -0.02774992 -3.6740535e-17)
(94.402701 -0.028430464 1.1871165e-17)
(94.402002 -0.029373614 2.2982348e-17)
(94.400936 -0.030430819 0)
(94.399194 -0.030339207 8.6177953e-23)
(94.396871 -0.029781099 -1.6129019e-22)
(94.394361 -0.030778667 0)
(94.392 -0.033609951 1.9084464e-17)
(94.389544 -0.03666149 -1.8323448e-17)
(94.387209 -0.04070999 0)
(94.385643 -0.04052309 3.3654388e-17)
(94.384658 -0.043929624 -1.6137899e-17)
(94.383457 -0.04263869 1.5439137e-17)
(94.382006 -0.041657443 -2.9516465e-17)
(94.381273 -0.041914553 2.826722e-17)
(94.380651 -0.036287002 3.3694225e-17)
(94.376998 -0.028170073 1.9188107e-17)
(94.372512 -0.029430248 -6.0810647e-18)
(94.369507 -0.035231078 -4.0515531e-17)
(94.367638 -0.031488363 4.4003963e-17)
(94.366479 -0.031396181 5.2209218e-18)
(94.366423 -0.032114881 3.9685408e-17)
(94.366394 -0.036557919 6.3728068e-23)
(94.366321 -0.02986918 -4.4733596e-18)
(93.430445 0.0060342313 -1.8525997e-17)
(93.754081 -0.010351927 1.832723e-17)
(94.049647 -0.0069807637 0)
(94.228055 -0.0091271095 1.7878403e-17)
(94.320509 -0.010297746 2.6460368e-17)
(94.364878 -0.01152549 -8.6981275e-18)
(94.385789 -0.012727378 -1.7147356e-17)
(94.396341 -0.013858821 0)
(94.402602 -0.014888439 -1.6631311e-17)
(94.406973 -0.015782596 1.6361402e-17)
(94.410179 -0.01644608 1.6082873e-17)
(94.412397 -0.016851266 -3.1591787e-17)
(94.413777 -0.016981572 1.5500381e-17)
(94.414559 -0.016901882 -1.5190362e-17)
(94.414953 -0.016694876 0)
(94.414965 -0.015933633 1.4559486e-17)
(94.414606 -0.015336402 0)
(94.4139 -0.015347483 -1.3891897e-17)
(94.412768 -0.016259972 0)
(94.411243 -0.01790453 2.6356282e-17)
(94.409532 -0.02018336 1.2814723e-17)
(94.407964 -0.023147066 0)
(94.406634 -0.026135054 7.2537792e-17)
(94.405386 -0.02909575 -4.6892297e-17)
(94.404226 -0.031980843 -2.2710585e-17)
(94.403242 -0.034558987 -2.1977123e-17)
(94.402274 -0.036414081 2.1240208e-17)
(94.401001 -0.037186813 0)
(94.399242 -0.036788778 0)
(94.397533 -0.038020509 -1.8980232e-17)
(94.395734 -0.036127045 3.6470321e-17)
(94.393317 -0.037216172 -1.7487574e-17)
(94.390433 -0.040802836 -1.6745515e-17)
(94.388044 -0.040283906 3.2056047e-17)
(94.385915 -0.044431116 3.16145e-23)
(94.383591 -0.045345229 1.4462543e-22)
(94.38154 -0.044814726 -4.196381e-17)
(94.38072 -0.045887942 -2.083726e-22)
(94.380241 -0.041655232 -3.1955411e-17)
(94.377656 -0.032426511 6.0696658e-18)
(94.373565 -0.030727645 4.6137909e-17)
(94.37088 -0.033273058 -1.7947509e-22)
(94.369156 -0.03280462 0)
(94.367825 -0.032498237 -4.4558951e-17)
(94.366331 -0.035564862 9.4053872e-18)
(94.366052 -0.029264732 6.9108282e-17)
(94.371821 -0.047701693 -2.1233816e-18)
(94.384306 -0.012631035 -6.4403533e-17)
(93.447437 0.011336122 1.1370613e-18)
(93.770882 -0.005338669 -1.1250817e-18)
(94.063941 -0.002437233 -1.7790642e-17)
(94.239671 -0.0049552879 -1.7567854e-17)
(94.330063 -0.0069104707 0)
(94.373067 -0.0091270614 0)
(94.393101 -0.01140045 0)
(94.403026 -0.013716215 -1.6609312e-17)
(94.408746 -0.015944038 8.1767526e-18)
(94.412582 -0.018053426 -2.4133878e-17)
(94.41524 -0.019944196 0)
(94.416896 -0.02147164 0)
(94.417738 -0.022772016 -3.7692433e-23)
(94.418075 -0.023729418 1.4947316e-17)
(94.41817 -0.024622779 -1.4655114e-17)
(94.418049 -0.024869471 1.4356566e-17)
(94.417819 -0.025020282 -1.9560899e-23)
(94.417574 -0.024592284 4.1582959e-23)
(94.417265 -0.023951046 1.2414553e-23)
(94.416794 -0.022941479 -6.2871487e-23)
(94.416019 -0.021804283 -2.5385503e-17)
(94.414808 -0.020651206 0)
(94.413242 -0.021268864 -2.3934563e-17)
(94.411375 -0.022939002 6.6014305e-23)
(94.409165 -0.025249154 4.4903811e-17)
(94.406946 -0.029324349 0)
(94.405002 -0.034009074 -2.0996866e-17)
(94.403356 -0.03908337 1.0318963e-22)
(94.401776 -0.042129769 -5.8665919e-17)
(94.40013 -0.042521611 1.8840493e-17)
(94.398787 -0.044826332 3.6272253e-17)
(94.397538 -0.045320808 -1.7421974e-17)
(94.395816 -0.045105258 0)
(94.393758 -0.043204922 0)
(94.390644 -0.041254349 -3.0545525e-17)
(94.387165 -0.043159605 2.9168406e-17)
(94.383949 -0.045232904 5.5598177e-17)
(94.381736 -0.047480618 -2.6500611e-17)
(94.380875 -0.047392822 2.5393208e-17)
(94.38017 -0.045407018 -4.8462776e-17)
(94.37813 -0.038266873 0)
(94.374846 -0.034695759 -1.9466565e-22)
(94.372101 -0.037595636 4.6805599e-17)
(94.36965 -0.033194396 7.410621e-17)
(94.366803 -0.03561703 0)
(94.366205 -0.027638962 0)
(94.37177 -0.046919954 0)
(94.386908 -0.011377632 6.4278036e-17)
(94.389076 -0.082254556 0)
(93.464603 0.014032915 0)
(93.787757 -0.0018337676 1.7684005e-17)
(94.078602 0.0015553731 1.6273119e-22)
(94.25205 -0.00032211333 0)
(94.340758 -0.0020147982 0)
(94.382724 -0.003963616 0)
(94.40214 -0.0061599841 -1.6586211e-17)
(94.411648 -0.0086130072 3.2691907e-17)
(94.416992 -0.011237577 0)
(94.420406 -0.013977503 0)
(94.422582 -0.016866869 0)
(94.423711 -0.019520698 -1.5295299e-17)
(94.424021 -0.021801438 -1.5022152e-17)
(94.423809 -0.024964054 0)
(94.423331 -0.027029079 2.888706e-17)
(94.422632 -0.029163382 -3.9883119e-23)
(94.421817 -0.030498386 -2.7658056e-17)
(94.421017 -0.031954253 -1.3515743e-17)
(94.420318 -0.033258605 2.6395619e-17)
(94.419679 -0.033978566 -2.4905856e-23)
(94.419085 -0.03444145 -2.508714e-17)
(94.418456 -0.034062648 1.2204786e-17)
(94.417742 -0.032723876 2.3720827e-17)
(94.417095 -0.030924732 -4.6051784e-17)
(94.416305 -0.027565205 -2.2309339e-17)
(94.41474 -0.025325873 2.1568733e-17)
(94.412146 -0.025625307 1.8474178e-22)
(94.40914 -0.028309293 1.6700405e-22)
(94.40606 -0.033954177 1.936461e-17)
(94.402723 -0.038438129 -3.7300065e-17)
(94.400186 -0.043383938 1.7954208e-17)
(94.398527 -0.046664558 -1.7265823e-17)
(94.397171 -0.047984212 0)
(94.395991 -0.050453902 -1.5919233e-17)
(94.394398 -0.048935371 6.0931518e-17)
(94.391984 -0.049360462 -4.3639867e-17)
(94.389123 -0.045732109 -1.3878481e-17)
(94.385725 -0.046746514 -3.9664153e-17)
(94.383016 -0.048853055 2.5200144e-17)
(94.381369 -0.049557993 4.8159378e-17)
(94.380267 -0.046895303 4.020176e-17)
(94.378379 -0.039127027 -4.3704276e-17)
(94.374868 -0.037104255 -3.1124137e-17)
(94.371197 -0.036208399 -4.9273864e-17)
(94.367786 -0.037301793 -3.2711994e-17)
(94.366685 -0.02913624 7.0961081e-17)
(94.37221 -0.045129992 -6.7162266e-17)
(94.388991 -0.012925107 1.002025e-18)
(94.39007 -0.080659003 5.964761e-17)
(93.482869 0.012445382 1.6455156e-17)
(93.805317 -0.0042756907 -1.6287473e-17)
(94.093546 -0.00014088063 -4.2944516e-18)
(94.264425 -0.0015785326 -3.3412555e-24)
(94.351372 -0.0026467284 2.9331363e-17)
(94.392332 -0.0039011823 -8.2711205e-18)
(94.411221 -0.0053716328 8.1588786e-18)
(94.42043 -0.0070640421 -1.3463535e-22)
(94.425536 -0.0089182724 -7.9237863e-18)
(94.428681 -0.010866601 1.5600227e-17)
(94.430549 -0.012954104 0)
(94.431441 -0.015358749 1.5075248e-17)
(94.431659 -0.016945451 2.9623786e-17)
(94.431344 -0.020068639 -2.9082211e-17)
(94.43068 -0.022559223 1.4251071e-17)
(94.429768 -0.025700195 -9.4932095e-23)
(94.42854 -0.02844672 -1.3647605e-17)
(94.427071 -0.031560539 1.3334827e-17)
(94.425575 -0.034854347 1.3017269e-17)
(94.424093 -0.037688083 2.5390847e-17)
(94.422663 -0.039955231 -3.7113537e-17)
(94.421325 -0.041936712 0)
(94.419992 -0.04284291 0)
(94.418754 -0.043420025 2.2748093e-17)
(94.417867 -0.043982795 -4.4151704e-17)
(94.417338 -0.04296718 2.1414909e-17)
(94.416842 -0.03963248 2.0729661e-17)
(94.415888 -0.034618937 2.0010696e-17)
(94.413997 -0.032216885 1.9274607e-17)
(94.4102 -0.033264411 1.8527717e-17)
(94.40543 -0.033925148 0)
(94.401698 -0.04204221 0)
(94.399108 -0.045250909 0)
(94.396949 -0.048232422 -1.5771169e-17)
(94.395448 -0.052620946 3.0245887e-17)
(94.39425 -0.051662052 -1.4484261e-17)
(94.392876 -0.051925601 0)
(94.391409 -0.052259535 2.6428571e-17)
(94.388001 -0.048152974 -1.2576508e-17)
(94.384024 -0.050227519 -1.1970645e-17)
(94.38151 -0.050962711 -4.5685989e-17)
(94.379365 -0.046624601 0)
(94.3767 -0.038051606 4.6648172e-17)
(94.372571 -0.038742591 4.0409998e-23)
(94.368718 -0.039736313 -9.3270553e-18)
(94.367268 -0.031108834 -1.3737593e-16)
(94.373727 -0.046770683 6.7233183e-17)
(94.390173 -0.014976936 0)
(94.391341 -0.079957032 -6.047231e-17)
(93.502618 0.0098185123 -1.7248685e-17)
(93.824315 -0.008503486 0)
(94.109486 -0.0036623242 1.2663561e-17)
(94.277402 -0.005204024 4.1713634e-18)
(94.36231 -0.006183958 -1.4315322e-22)
(94.402071 -0.0072694899 0)
(94.420282 -0.008532277 0)
(94.429045 -0.010050894 -1.2006793e-22)
(94.433755 -0.011690109 3.8986791e-17)
(94.436478 -0.01340478 -3.8387369e-17)
(94.437882 -0.015078468 4.5392323e-23)
(94.438366 -0.016480046 -2.9697784e-17)
(94.438433 -0.018325328 -1.4597397e-17)
(94.438115 -0.020131092 5.0988298e-23)
(94.437554 -0.021341567 -5.8519105e-23)
(94.436938 -0.023237826 -1.3777354e-17)
(94.436177 -0.025110856 -1.3484265e-17)
(94.435074 -0.026638168 0)
(94.433564 -0.029034988 -2.574021e-17)
(94.431693 -0.032252219 1.2552296e-17)
(94.429467 -0.035056629 4.8913717e-17)
(94.427108 -0.038713161 0)
(94.42474 -0.042459593 0)
(94.422304 -0.045062225 0)
(94.420096 -0.047622009 6.5360201e-17)
(94.418383 -0.049530425 -8.4541399e-17)
(94.417011 -0.050971858 1.8752106e-23)
(94.415908 -0.051743571 -1.9772727e-17)
(94.415189 -0.05111299 -1.9162863e-17)
(94.414858 -0.049022825 1.8372892e-17)
(94.413239 -0.041968173 -1.7757399e-17)
(94.409879 -0.038129605 3.4073778e-17)
(94.405738 -0.039038562 5.7337057e-23)
(94.401302 -0.041254209 1.5649537e-17)
(94.39821 -0.047672911 -2.9992048e-17)
(94.396083 -0.050031385 2.8745509e-17)
(94.394196 -0.053865538 2.7517941e-17)
(94.393057 -0.054801837 0)
(94.391834 -0.055514062 -2.5016513e-17)
(94.388637 -0.050124371 0)
(94.383686 -0.05090236 0)
(94.37981 -0.051441498 0)
(94.376876 -0.049203124 -8.2569213e-17)
(94.3737 -0.035035552 3.925309e-17)
(94.369687 -0.040203365 3.7212435e-17)
(94.367622 -0.032338804 7.0707795e-17)
(94.37456 -0.048277017 0)
(94.390622 -0.016170502 -6.2742615e-17)
(94.392699 -0.080625825 -6.1269761e-17)
(93.522475 0.0093726939 0)
(93.843263 -0.0094904981 0)
(94.125179 -0.0046714813 0)
(94.290108 -0.0061529585 1.6409358e-17)
(94.373044 -0.0072352183 -3.2419918e-17)
(94.411746 -0.0082142715 0)
(94.429441 -0.0094593235 0)
(94.437915 -0.011019774 -3.1149253e-17)
(94.442333 -0.012771942 -1.5348345e-17)
(94.444647 -0.014860803 -1.5110981e-17)
(94.445531 -0.017021258 1.0836168e-22)
(94.445521 -0.018942855 1.0263368e-22)
(94.445004 -0.021532847 1.438448e-17)
(94.444189 -0.023900864 0)
(94.443247 -0.025688035 4.896418e-23)
(94.442394 -0.027664284 1.3583511e-17)
(94.44171 -0.029312182 -1.3306681e-17)
(94.441034 -0.030440154 2.6042748e-17)
(94.440104 -0.031037726 -1.2725739e-17)
(94.438798 -0.031855851 1.2421042e-17)
(94.436997 -0.032573029 -2.4215345e-17)
(94.434799 -0.033819634 0)
(94.432488 -0.036488222 -1.2019223e-22)
(94.429832 -0.03868649 -2.9825054e-23)
(94.426535 -0.04058393 4.6661711e-23)
(94.423106 -0.044168857 3.749946e-23)
(94.420024 -0.048508394 2.0201647e-17)
(94.417447 -0.051818998 1.9516352e-17)
(94.415586 -0.054085664 0)
(94.414427 -0.054645989 0)
(94.413775 -0.058385668 0)
(94.413186 -0.056165657 -3.3982698e-17)
(94.411781 -0.054630402 0)
(94.408998 -0.04937862 0)
(94.405501 -0.044607197 0)
(94.401629 -0.046678262 -2.8592262e-17)
(94.39762 -0.051344581 -1.501551e-22)
(94.394187 -0.052232798 2.6130361e-17)
(94.391808 -0.055996012 3.7246439e-17)
(94.390602 -0.057102219 -1.1889704e-17)
(94.387373 -0.049988932 0)
(94.381625 -0.050647138 0)
(94.377148 -0.052299575 8.1936911e-17)
(94.373925 -0.05005324 -3.9109928e-17)
(94.370429 -0.041226991 -4.6250083e-18)
(94.368042 -0.0338771 4.4105327e-18)
(94.37438 -0.048955378 -6.8631775e-17)
(94.39101 -0.016424014 6.4271856e-17)
(94.393948 -0.082664434 6.1103306e-17)
(93.541356 0.005763504 0)
(93.86063 -0.013035858 0)
(94.139177 -0.0070686002 0)
(94.301087 -0.0081323502 -1.6137853e-17)
(94.382111 -0.0086818311 1.5945212e-17)
(94.419843 -0.008954364 0)
(94.437191 -0.0095460245 0)
(94.445671 -0.01032027 2.2999815e-17)
(94.450218 -0.011254102 1.5114475e-17)
(94.452614 -0.012457937 -7.4420683e-18)
(94.453508 -0.014089288 1.4661935e-17)
(94.453492 -0.015613697 1.4430674e-17)
(94.452749 -0.018115155 0)
(94.451418 -0.020614614 0)
(94.449888 -0.023877996 1.3657164e-17)
(94.448356 -0.026833035 -2.6777293e-17)
(94.446927 -0.029640397 2.6231685e-17)
(94.445657 -0.032905242 -1.2838869e-17)
(94.444389 -0.035672895 -2.5110282e-17)
(94.442938 -0.038016319 -3.6792413e-17)
(94.44124 -0.040011343 1.196624e-17)
(94.439329 -0.041043071 -6.9969841e-17)
(94.437483 -0.041673703 -2.2707796e-17)
(94.435923 -0.04252304 -2.2083463e-17)
(94.434247 -0.042440321 2.1436002e-17)
(94.431732 -0.041381644 0)
(94.428198 -0.041089674 -2.0085798e-17)
(94.424147 -0.043265345 0)
(94.420407 -0.048172976 1.8721074e-17)
(94.417459 -0.050385622 -3.609132e-17)
(94.4153 -0.056053769 3.3238937e-23)
(94.41357 -0.057645036 3.361522e-17)
(94.411971 -0.060281842 3.2644819e-23)
(94.410684 -0.062170683 -1.5542816e-17)
(94.409598 -0.061317527 0)
(94.408178 -0.058105726 -2.8422399e-17)
(94.405143 -0.053880641 -5.4591873e-17)
(94.398998 -0.052529039 -3.9005234e-17)
(94.393478 -0.054864165 6.1002255e-23)
(94.390502 -0.057011891 4.7368846e-23)
(94.388618 -0.05999073 -5.6700601e-18)
(94.385178 -0.047796065 -1.0772487e-17)
(94.378952 -0.0502461 1.021095e-17)
(94.374243 -0.050717949 -4.8557704e-18)
(94.370419 -0.051423458 0)