/*--------------------------------*- C++ -*----------------------------------*\
| =========                 |                                                 |
| \\      /  F ield         | OpenFOAM: The Open Source CFD Toolbox           |
|  \\    /   O peration     | Version:  2506                                  |
|   \\  /    A nd           | Website:  www.openfoam.com                      |
|    \\/     M anipulation  |                                                 |
\*---------------------------------------------------------------------------*/
FoamFile
{
    version     2.0;
    format      ascii;
    arch        "LSB;label=32;scalar=64";
    class       volScalarField;
    location    "2";
    object      Cp;
}
// * * * * * * * * * * * * * * * * * * * * * * * * * * * * * * * * * * * * * //

dimensions      [0 0 0 0 0 0 0];

internalField   nonuniform List<scalar> 
1376
(
0.025093786
0.025094281
0.024834618
0.024654606
0.024510319
0.024303965
0.0241596
0.024098239
0.024009095
0.023906081
0.02373598
0.025087672
0.024833831
0.024656067
0.024509875
0.024302794
0.024156969
0.024095606
0.024009147
0.02390448
0.02373926
0.025085278
0.024832983
0.024659554
0.024508902
0.024305114
0.02415584
0.024091844
0.024013888
0.023904837
0.023739478
0.025082012
0.024831024
0.02466351
0.024508859
0.024305265
0.024154833
0.024089158
0.024017097
0.023907329
0.023739074
0.025076251
0.024831073
0.024667004
0.024511778
0.024302726
0.024152508
0.02408923
0.024015415
0.023908554
0.023742991
0.025069153
0.024829583
0.024669771
0.024512797
0.024301095
0.024150651
0.024087968
0.024014981
0.023909289
0.023747095
0.025059502
0.024825446
0.024670731
0.024507053
0.02430282
0.024151284
0.024086562
0.024013795
0.023909508
0.023752119
0.0250487
0.024817372
0.024664229
0.024505384
0.02430081
0.02415473
0.02408478
0.024011812
0.023909472
0.023757155
0.025037384
0.02482209
0.024664942
0.024510904
0.02429732
0.024153457
0.024081419
0.024008001
0.023908697
0.023763396
0.025024621
0.024815885
0.024661255
0.024510273
0.02430047
0.024149907
0.024074398
0.024002873
0.023909516
0.023769326
0.025008982
0.024812043
0.024657051
0.024510627
0.024301555
0.024143081
0.02407133
0.023999988
0.023907751
0.023775838
0.025226473
0.02499199
0.024808052
0.024651417
0.024510605
0.02430121
0.024134206
0.024073036
0.023999587
0.023901715
0.023782719
0.025204255
0.024974351
0.024803777
0.02464528
0.024508837
0.024298415
0.024130343
0.02406994
0.023998065
0.023897838
0.023788105
0.025179511
0.024957077
0.024797579
0.024639877
0.02450247
0.024295033
0.024128616
0.024064067
0.023995138
0.023896458
0.023792331
0.025152947
0.024940364
0.024788371
0.024636764
0.024491064
0.024291132
0.024127712
0.024056995
0.023991472
0.023894117
0.023797401
0.025126331
0.024923004
0.024775824
0.024634046
0.024475127
0.024287282
0.024126698
0.024049631
0.02398635
0.02389193
0.023802782
0.025100778
0.024905794
0.024762494
0.024625738
0.024456317
0.024285363
0.024124485
0.02404018
0.023978895
0.023896386
0.023808759
0.025075697
0.02488598
0.024749087
0.024601395
0.024440932
0.024285627
0.024121812
0.024030612
0.023967489
0.023902984
0.023816315
0.025049683
0.024862269
0.024731347
0.024556864
0.0244421
0.024283127
0.024117837
0.024021524
0.023954162
0.023913964
0.023822271
0.025018735
0.024837629
0.024694635
0.024539827
0.024440159
0.024265366
0.024111957
0.024010521
0.02394466
0.023930191
0.023827829
0.024979315
0.02480291
0.024658263
0.024555757
0.02442483
0.024233508
0.024104086
0.023996238
0.02394245
0.023949904
0.023832036
0.024925535
0.024758849
0.024628536
0.024561081
0.024411423
0.024203744
0.024094168
0.023983743
0.023951557
0.023963142
0.023841087
0.024857732
0.024711164
0.024595815
0.024561575
0.024389508
0.024178308
0.024080103
0.023977308
0.023973885
0.023973799
0.023852354
0.024780869
0.02465944
0.024588107
0.024527393
0.02436714
0.024153825
0.024061307
0.023986524
0.023999368
0.023973828
0.023873523
0.02469544
0.024640763
0.024578427
0.024478559
0.024329002
0.024133744
0.024047308
0.024006991
0.024022791
0.023970261
0.023881561
0.02480485
0.024628234
0.024620263
0.024544509
0.02442311
0.024288454
0.024115349
0.024027756
0.024028149
0.024049625
0.0239793
0.023930129
0.024680501
0.024592563
0.024581435
0.024488667
0.024368988
0.024246075
0.024092782
0.024006833
0.024066025
0.024083875
0.023994886
0.023965524
0.024548243
0.024560731
0.024515933
0.024408304
0.024314917
0.024188815
0.024068874
0.024033954
0.024092832
0.024093384
0.024026277
0.023986674
0.02449741
0.024496422
0.024415018
0.024312168
0.024234797
0.024133355
0.024065365
0.024066463
0.024095088
0.024108446
0.024085068
0.024030319
0.024394168
0.024377235
0.024300203
0.024216059
0.024158806
0.024084505
0.024093368
0.024095043
0.024114213
0.02414416
0.024115319
0.024074726
0.024271225
0.02422983
0.024174527
0.024125119
0.024080045
0.024070943
0.024095988
0.024109746
0.024171244
0.024187459
0.024121597
0.02411051
0.024150368
0.024097068
0.024068957
0.024056507
0.024042475
0.024024575
0.024098605
0.024118756
0.024129951
0.024235112
0.024211269
0.024117033
0.024127929
0.023968298
0.023931927
0.023928125
0.023957441
0.023979382
0.024020521
0.024123928
0.02412902
0.024159483
0.024208257
0.02416235
0.024165565
0.024198551
0.023835939
0.023823059
0.023827442
0.023851994
0.023904491
0.023970465
0.024102141
0.024135651
0.024201916
0.024167693
0.024113798
0.024233723
0.024209575
0.0236784
0.023692229
0.023681022
0.023693917
0.023726191
0.023842435
0.023949328
0.024059529
0.024189799
0.024219735
0.024104964
0.024107269
0.024169626
0.02417773
0.023493599
0.023518638
0.023524285
0.023567316
0.023675457
0.023848856
0.023990723
0.024037108
0.024106427
0.024090804
0.024048099
0.02411214
0.024120085
0.024134876
0.023310584
0.023396877
0.023426501
0.023546299
0.023711419
0.023826267
0.023938508
0.02395645
0.023948931
0.023929177
0.024008548
0.024049469
0.024043173
0.024040254
0.023162012
0.023254327
0.023396258
0.023531132
0.023607966
0.023681694
0.023736801
0.023807921
0.023801569
0.023779905
0.023803989
0.023879804
0.023893999
0.023917424
0.023926706
0.023200605
0.023296735
0.02336652
0.02346433
0.023519962
0.023524949
0.023553884
0.023575993
0.023602095
0.023605215
0.023631999
0.023679018
0.023699699
0.023746243
0.023758286
0.023111098
0.023145486
0.023185519
0.023237858
0.02329258
0.023326671
0.023378318
0.02343518
0.023461732
0.023486592
0.023500912
0.023498688
0.023484381
0.02350592
0.023486575
0.023531413
0.022943639
0.02297703
0.023024873
0.023075924
0.023138514
0.02319653
0.023241871
0.023288126
0.023281858
0.023292419
0.023290338
0.023256448
0.023224325
0.023207433
0.023210569
0.023245407
0.023316235
0.022998473
0.0230588
0.023105583
0.023158392
0.023208341
0.023237703
0.023245928
0.023255866
0.023246586
0.023209973
0.023184322
0.023151369
0.023058226
0.022999722
0.023000169
0.023023374
0.022991426
0.023051859
0.023061987
0.023104907
0.023135838
0.023142245
0.023152659
0.023148495
0.023091936
0.023051694
0.023050589
0.022999334
0.022944969
0.022889091
0.022816614
0.022729549
0.022669878
0.022606877
0.022553786
0.023264082
0.023293524
0.023276628
0.023252766
0.023237774
0.023206036
0.023160985
0.023122109
0.023055209
0.022974314
0.022925195
0.022859309
0.022745872
0.022653283
0.022584049
0.022497096
0.022389514
0.022300948
0.022240323
0.023203844
0.02318706
0.023189897
0.02317597
0.02312849
0.023067098
0.022996955
0.022896915
0.022794718
0.02270554
0.022600544
0.02251097
0.022453648
0.022384394
0.022298209
0.022261305
0.022228214
0.022188478
0.02217614
0.022172305
0.023283551
0.023264751
0.02322512
0.023159662
0.023080514
0.023000041
0.022915899
0.02283023
0.022742391
0.022642564
0.022532693
0.022440009
0.022357374
0.02228747
0.022239471
0.022214421
0.022194755
0.022184595
0.022187941
0.022210847
0.022238999
0.022269806
0.023081503
0.023026988
0.022960188
0.022877196
0.022794313
0.022718915
0.022656145
0.022606604
0.022565179
0.022521047
0.022469831
0.022402082
0.02233399
0.022299304
0.022269407
0.022250196
0.022250726
0.022253627
0.022281412
0.022340452
0.02239715
0.022400714
0.022359374
0.02282607
0.022551017
0.022421994
0.02236516
0.022335764
0.022306755
0.022278047
0.022263809
0.022256678
0.022267486
0.022292382
0.022319667
0.022350549
0.022372178
0.022375203
0.022368876
0.022381654
0.022389302
0.022432827
0.022506485
0.02258209
0.022591157
0.022508893
0.02243392
0.022379187
0.024041836
0.024300295
0.02417296
0.023397032
0.022858443
0.022640824
0.022542361
0.022482938
0.022440693
0.022416724
0.022410246
0.022409321
0.0224095
0.02240052
0.022379918
0.02235877
0.022354477
0.022371533
0.022390786
0.022418225
0.022458608
0.022476791
0.022440229
0.022382381
0.022322987
0.022285006
0.022270899
0.023751696
0.023753062
0.023754965
0.023756955
0.023758445
0.023758085
0.023755426
0.023750238
0.023743706
0.023737782
0.023732476
0.0237265
0.02372012
0.023714646
0.023711175
0.02370865
0.023706099
0.02371016
0.023720352
0.023729335
0.023740116
0.023757822
0.02378199
0.023807516
0.023830161
0.023848971
0.023878055
0.023933293
0.023976764
0.024007291
0.024067376
0.024123345
0.024131956
0.024124892
0.024132834
0.02411314
0.024025883
0.023903814
0.023773869
0.023606524
0.023360132
0.022948812
0.022517044
0.022246257
0.02220549
0.022279923
0.022302277
0.022329896
0.022279126
0.023643399
0.023641299
0.02363916
0.023637387
0.023636217
0.023635511
0.023635327
0.023635639
0.023635192
0.023631013
0.023626486
0.023625171
0.023627174
0.023635994
0.023641153
0.023640505
0.02364479
0.023650727
0.023657178
0.023667907
0.023680887
0.023696401
0.023723895
0.02376537
0.023808546
0.023842067
0.023874405
0.023898675
0.023948589
0.023975711
0.02400009
0.024055398
0.024084208
0.024073572
0.024059829
0.024027929
0.023977854
0.023890113
0.023796551
0.023630938
0.02334531
0.02292631
0.022517312
0.022275831
0.02223541
0.022270869
0.022258724
0.022282057
0.022294887
0.023560239
0.02355988
0.023559804
0.023560251
0.023561215
0.023562599
0.023564276
0.023566161
0.02356886
0.023573355
0.023576459
0.02357745
0.023577871
0.023574874
0.023578498
0.023592824
0.02360699
0.02361821
0.023632378
0.023653862
0.023679691
0.023697465
0.023705256
0.023723916
0.023746312
0.023810609
0.023872287
0.023919116
0.023963543
0.0240047
0.024005622
0.023994417
0.024000548
0.024000796
0.023979897
0.023954359
0.023925212
0.023887391
0.023775646
0.023595945
0.023322175
0.022931474
0.022538944
0.022327004
0.022267008
0.022256269
0.022213187
0.022247922
0.022303909
0.023532002
0.023532479
0.023533502
0.023535427
0.023538114
0.023541354
0.023545162
0.023549514
0.023554304
0.023560006
0.023566679
0.023573681
0.023580714
0.02358796
0.023596674
0.023606589
0.023618519
0.023633886
0.023652143
0.023672125
0.023696287
0.023724253
0.023753408
0.023772345
0.023787596
0.023788351
0.02382549
0.023872854
0.023908587
0.023960705
0.024003841
0.024006608
0.023990893
0.023973074
0.023953491
0.023918346
0.023892028
0.0238307
0.023708282
0.023534234
0.023273788
0.022930498
0.02258982
0.022410721
0.02230173
0.022242793
0.022169044
0.022203052
0.022314376
0.023512589
0.023511669
0.023511067
0.023511361
0.023512875
0.023515692
0.02351976
0.023525084
0.023531834
0.023540474
0.023551353
0.023563949
0.023577555
0.023591989
0.023606565
0.023620286
0.023634063
0.023648662
0.023665098
0.023683313
0.023705903
0.023739739
0.023769131
0.02379328
0.023827279
0.023836181
0.023830802
0.023827206
0.023868648
0.023915763
0.023938263
0.02397561
0.023983056
0.023958253
0.02391876
0.023888995
0.02383304
0.023738156
0.023624798
0.023439789
0.02318418
0.022908469
0.022653952
0.022504723
0.022346338
0.022236181
0.022139842
0.022185315
0.022326911
0.023517893
0.023521079
0.023524559
0.023527846
0.023530437
0.023532117
0.02353306
0.023534138
0.023536736
0.023542133
0.023550918
0.023562497
0.023575295
0.023589079
0.023605202
0.023622833
0.023642237
0.023662697
0.023683776
0.023711114
0.02373965
0.02376331
0.02377666
0.023760978
0.02376161
0.023799039
0.02384417
0.023861596
0.023874799
0.023888581
0.02390044
0.023914549
0.023910606
0.02391548
0.023877922
0.023818786
0.023746912
0.02364471
0.023512758
0.023316904
0.023096399
0.022899823
0.022722565
0.022584217
0.022403751
0.022241185
0.022136664
0.022196349
0.022335906
0.023530222
0.023529633
0.023529967
0.023531296
0.023533613
0.023536783
0.023540476
0.023543665
0.023545641
0.023547241
0.02354997
0.023555038
0.023562689
0.023573019
0.023585866
0.023602108
0.023617988
0.023630502
0.023641846
0.023647212
0.023650923
0.02366006
0.023695155
0.023753711
0.023803677
0.023839238
0.023854139
0.023882821
0.02388342
0.023867217
0.023861123
0.023845975
0.023825492
0.023824621
0.023789127
0.023723501
0.023641483
0.023538758
0.023401115
0.023209783
0.023020358
0.022878386
0.022757397
0.022649606
0.022472755
0.022271551
0.02215654
0.022204637
0.02234388
0.023546413
0.023550354
0.023553521
0.023556157
0.023559078
0.023562373
0.023565569
0.023568868
0.023571911
0.0235742
0.023576585
0.023579229
0.023583722
0.023589578
0.023597343
0.023605276
0.023614025
0.023631244
0.023648843
0.023668455
0.023693077
0.023720248
0.023748832
0.023782118
0.023815363
0.023839357
0.023857028
0.023864442
0.02385091
0.023831817
0.023803496
0.023763254
0.023738739
0.023703733
0.0236731
0.023610651
0.023523391
0.02343934
0.023301191
0.023138646
0.022983971
0.022858098
0.022762698
0.022685227
0.022530757
0.022313924
0.022183303
0.022218398
0.02235772
0.023562657
0.023570809
0.023580336
0.023590567
0.023600541
0.023609565
0.023617255
0.023624082
0.023630499
0.023638447
0.023650081
0.023661536
0.02366835
0.023673896
0.023683151
0.02369271
0.023704396
0.023721634
0.023743149
0.023764458
0.023780496
0.023795805
0.023800462
0.023797428
0.023797106
0.023802615
0.023805082
0.023798054
0.023788314
0.023760001
0.023715815
0.023650093
0.023622795
0.023575832
0.023539151
0.023483847
0.02341993
0.023348513
0.023221948
0.023095764
0.022961639
0.022858187
0.022768651
0.022688888
0.022536857
0.022347448
0.022200005
0.022252042
0.02237735
0.023605002
0.023616649
0.023629048
0.023641938
0.023655249
0.023668703
0.023682011
0.023695265
0.023707287
0.023714976
0.023718583
0.023722446
0.023730758
0.023743045
0.023754446
0.023767305
0.023783953
0.023799137
0.023810232
0.023814791
0.023813227
0.02380929
0.023789595
0.02377137
0.023756481
0.023721099
0.023705057
0.023688822
0.023668443
0.023632844
0.023579271
0.023542386
0.023520379
0.023477392
0.023435877
0.023383868
0.023336759
0.023270386
0.023141767
0.023034519
0.022953293
0.022871876
0.022776674
0.022686874
0.022523154
0.022352717
0.022211219
0.022282539
0.022397188
0.02363803
0.023652245
0.023666865
0.023681177
0.023695127
0.023708789
0.023721879
0.023735322
0.023744753
0.023751212
0.0237603
0.023773882
0.023787606
0.023795065
0.023799398
0.023802955
0.023799874
0.023792719
0.0237958
0.023802258
0.023810165
0.02379769
0.023781869
0.023748917
0.023707385
0.023704378
0.023660679
0.023606803
0.023559896
0.023532368
0.023516608
0.02351625
0.023458377
0.023406198
0.023376706
0.023323906
0.023239281
0.023142679
0.02306139
0.023025946
0.02293976
0.022867935
0.022785332
0.022686245
0.022508631
0.022334428
0.022236656
0.022303539
0.022393481
0.023631015
0.023647398
0.02366498
0.023684604
0.023705881
0.023727699
0.023749268
0.023766521
0.023781929
0.023803008
0.023819951
0.023818919
0.023814381
0.023818309
0.023824791
0.023832159
0.023835553
0.023839992
0.02383161
0.023810274
0.023783076
0.023767279
0.023766329
0.023747731
0.023693972
0.023624425
0.023600053
0.023571236
0.023510101
0.02347247
0.023434257
0.02338912
0.023335295
0.02329784
0.023270344
0.023224136
0.023148767
0.023076599
0.023031973
0.022987289
0.022895948
0.02284765
0.022806859
0.022696096
0.022485035
0.022297608
0.022251097
0.022309128
0.022372464
0.023728855
0.023751766
0.023768122
0.023777247
0.023789276
0.023796681
0.023799557
0.023804081
0.023802273
0.02379913
0.023789542
0.023778763
0.023774893
0.023776038
0.023774974
0.023747095
0.02371916
0.023686361
0.023618167
0.023527715
0.023470218
0.023411133
0.023330977
0.023304862
0.02327242
0.023211319
0.023173793
0.023143436
0.023121249
0.023097769
0.023040851
0.023007849
0.022931305
0.022840982
0.022816375
0.02280924
0.022693393
0.022461358
0.022266121
0.022236998
0.022302374
0.022346873
0.023709454
0.023686221
0.023665974
0.023645905
0.023624098
0.023608234
0.023586171
0.02352336
0.023443347
0.02338723
0.023308351
0.023207214
0.023132874
0.023082356
0.023044924
0.023016664
0.023019098
0.023025604
0.02297985
0.022942289
0.022844471
0.022770911
0.022774425
0.022782698
0.022676816
0.022443006
0.022263171
0.022197585
0.022279471
0.022337208
0.023426748
0.023348544
0.02328274
0.023192007
0.023099376
0.023022188
0.02297043
0.022947285
0.022933924
0.022914265
0.022883936
0.022854473
0.022779414
0.022730743
0.022708885
0.022700711
0.02263462
0.022453876
0.022277341
0.022181073
0.022263307
0.022353096
0.022897929
0.022862826
0.022840222
0.022821082
0.0227733
0.02270884
0.02266621
0.022630816
0.02260547
0.022587693
0.022459925
0.022308246
0.022198046
0.022250731
0.022360057
0.022711584
0.022643241
0.022598477
0.022568907
0.022570815
0.022555836
0.022456667
0.02234052
0.022227633
0.022249785
0.022339692
0.022558521
0.022539721
0.022450838
0.022369849
0.02225258
0.022228849
0.022313764
0.022477303
0.022383106
0.022266537
0.022204467
0.02230419
0.022272911
0.022207042
0.022336886
0.02236816
)
;

boundaryField
{
    Side
    {
        type            empty;
    }
    Inlet
    {
        type            calculated;
        value           nonuniform List<scalar> 
48
(
0.022459928
0.022325634
0.022179779
0.022203218
0.022286178
0.02234091
0.0223782
0.022414923
0.022455071
0.022501324
0.022549965
0.022587722
0.022602169
0.022599449
0.022591197
0.022576868
0.022559663
0.022541769
0.022520018
0.022509785
0.022512871
0.022512632
0.022502802
0.022484887
0.022469822
0.022465343
0.022467358
0.022467891
0.022466986
0.02247113
0.022472703
0.022468871
0.022461544
0.02245177
0.022441837
0.022437696
0.022437089
0.022432768
0.022429514
0.022433377
0.022450044
0.022470436
0.022475428
0.022477389
0.022480176
0.022478957
0.022471604
0.022466039
)
;
    }
    Airfoil
    {
        type            calculated;
        value           nonuniform List<scalar> 0();
    }
    Outlet
    {
        type            calculated;
        value           nonuniform List<scalar> 0();
    }
    procBoundary10to2
    {
        type            processor;
        value           uniform 0.025368569;
    }
    procBoundary10to3
    {
        type            processor;
        value           nonuniform List<scalar> 
23
(
0.023733236
0.023904516
0.024008247
0.024100298
0.024160816
0.024302322
0.024507003
0.024650618
0.024832305
0.024832305
0.025086407
0.023750924
0.023645788
0.023561271
0.023532089
0.023513547
0.023514712
0.023530516
0.02354077
0.023553528
0.023591127
0.023623325
0.023616805
)
;
    }
    procBoundary10to9
    {
        type            processor;
        value           nonuniform List<scalar> 
66
(
0.025365936
0.025353919
0.025346848
0.02533777
0.025327528
0.025317146
0.025310726
0.025298387
0.025279046
0.025263209
0.025245971
0.025245971
0.025485878
0.025455258
0.025422298
0.025386664
0.025347973
0.025306943
0.025265091
0.025224034
0.025184746
0.025146217
0.025105298
0.025051581
0.024997656
0.024895092
0.024895092
0.024924795
0.024778413
0.024642986
0.024483156
0.024387048
0.024310817
0.024310817
0.024184584
0.023982683
0.023828037
0.023828037
0.02366608
0.023472765
0.023268392
0.023268392
0.023049796
0.023091281
0.023091281
0.023059586
0.023059586
0.022889478
0.022950292
0.022950292
0.023020833
0.023020833
0.023223337
0.023223337
0.023140355
0.023194474
0.023194474
0.02328173
0.02328173
0.023166158
0.023129476
0.023129476
0.023550367
0.023273265
0.023273265
0.023548601
)
;
    }
    procBoundary10to11
    {
        type            processor;
        value           nonuniform List<scalar> 
58
(
0.023599923
0.023618745
0.023636186
0.023653552
0.023671297
0.023689386
0.023708329
0.023708329
0.023649764
0.023666764
0.023685433
0.023705483
0.023726803
0.023745548
0.023757177
0.023759537
0.023758988
0.023756958
0.023749345
0.023735023
0.023735023
0.023644441
0.023611277
0.023564119
0.023527028
0.023511467
0.023512373
0.023507829
0.023491738
0.023491738
0.023315294
0.023250711
0.023188624
0.023125817
0.023036276
0.02296037
0.0229242
0.0229242
0.022844093
0.022806344
0.022776662
0.02275197
0.02275197
0.02266145
0.022601502
0.022540605
0.022527626
0.022527626
0.022536953
0.022560804
0.022560804
0.02250799
0.022396016
0.022396016
0.022275918
0.022256722
0.022256722
0.022374818
)
;
    }
}


// ************************************************************************* //
