/*--------------------------------*- C++ -*----------------------------------*\
| =========                 |                                                 |
| \\      /  F ield         | OpenFOAM: The Open Source CFD Toolbox           |
|  \\    /   O peration     | Version:  2506                                  |
|   \\  /    A nd           | Website:  www.openfoam.com                      |
|    \\/     M anipulation  |                                                 |
\*---------------------------------------------------------------------------*/
FoamFile
{
    version     2.0;
    format      ascii;
    arch        "LSB;label=32;scalar=64";
    class       volVectorField;
    location    "2";
    object      U;
}
// * * * * * * * * * * * * * * * * * * * * * * * * * * * * * * * * * * * * * //

dimensions      [0 1 -1 0 0 0 0];

internalField   nonuniform List<vector> 
1376
(
(89.711022 0.011424056 0)
(89.69638 -0.0096272559 0)
(89.882354 -0.0032545015 0)
(90.040723 0.0017892476 -1.0842479e-18)
(90.192064 0.0033471943 1.0321227e-18)
(90.351737 -0.0044612807 0)
(90.519658 -0.011925262 0)
(90.686677 -0.015989693 0)
(90.83952 -0.011472005 0)
(90.986647 -0.00075620917 0)
(91.116509 0.006788347 0)
(90.664423 -0.020332902 0)
(90.749138 -0.011610123 0)
(90.825142 -0.0060287989 0)
(90.911179 -0.0054532064 0)
(91.016258 -0.014260252 0)
(91.131143 -0.021437823 0)
(91.23936 -0.023804661 0)
(91.328454 -0.019057307 0)
(91.418693 -0.0079668167 0)
(91.479937 0.0016552748 0)
(92.044195 -0.023601498 0)
(92.023021 -0.015611679 -9.7842282e-19)
(92.014282 -0.01046988 1.8581235e-18)
(92.021645 -0.010372354 -9.8567322e-24)
(92.04616 -0.018625506 -8.4255695e-19)
(92.080323 -0.026399353 0)
(92.10715 -0.02862482 -7.6766224e-19)
(92.118034 -0.020487507 7.3000405e-19)
(92.137718 -0.0099765509 0)
(92.114263 -0.0032787623 0)
(93.158323 -0.017885531 0)
(93.102555 -0.0094433828 0)
(93.05291 -0.0062168801 0)
(93.022279 -0.0085738165 0)
(93.004181 -0.019481978 -7.8374679e-19)
(92.985556 -0.026339881 1.4904701e-18)
(92.959 -0.026035649 -1.4185778e-18)
(92.917972 -0.021574806 6.7624881e-19)
(92.885815 -0.0080442094 3.2181357e-19)
(92.807603 -0.0035678281 -3.0611605e-19)
(93.768066 -0.012394502 0)
(93.726697 -0.0051746099 -1.6787712e-18)
(93.687933 -0.0031349151 1.6009662e-18)
(93.661066 -0.0059929989 0)
(93.638912 -0.016412383 7.2558457e-19)
(93.611829 -0.023634943 -1.3809728e-18)
(93.575031 -0.023073459 6.5756728e-19)
(93.52419 -0.016469058 6.2678457e-19)
(93.478235 -0.0037625263 -2.9833193e-19)
(93.386547 -0.0027150641 -1.3829546e-24)
(94.038795 -0.0086232668 -1.6303799e-18)
(94.018197 -0.00099532989 0)
(93.999472 0.00018963042 0)
(93.988381 -0.0039382547 1.4132739e-18)
(93.97754 -0.015027747 -1.5471323e-23)
(93.960873 -0.021531634 -1.2789704e-18)
(93.934903 -0.019492222 0)
(93.896642 -0.013151068 5.808251e-19)
(93.85895 0.00088220758 -4.666675e-24)
(93.783988 -0.00030346133 -5.25997e-19)
(94.148788 -0.0077139075 1.5066822e-18)
(94.141965 -0.00038778957 0)
(94.138851 0.0001405663 1.3696477e-18)
(94.140801 -0.004328561 -1.2974677e-18)
(94.140041 -0.01283398 1.2376882e-18)
(94.134184 -0.019596902 -1.1822245e-18)
(94.12071 -0.017045097 0)
(94.097667 -0.01029611 0)
(94.073352 0.0043617793 0)
(94.022811 0.0019108833 0)
(94.188968 -0.006056267 2.8084561e-18)
(94.191148 0.00074786137 -1.3353451e-18)
(94.195995 0.00043578677 1.2689782e-18)
(94.207296 -0.0034194688 0)
(94.215666 -0.014986004 1.1517008e-18)
(94.214361 -0.019269477 -1.0941942e-18)
(94.208813 -0.015748129 0)
(94.197105 -0.008369403 0)
(94.184129 0.0066375773 0)
(94.154325 0.0036118581 0)
(94.198059 -0.0067476395 0)
(94.205633 -0.00068183931 -2.4755332e-18)
(94.216378 -0.0014081815 2.3232499e-23)
(94.233528 -0.0060122412 2.2487491e-18)
(94.247598 -0.014337502 -1.0760403e-18)
(94.248201 -0.019444485 1.0206407e-18)
(94.24649 -0.015024433 0)
(94.241751 -0.0079507598 -9.2518023e-19)
(94.236515 0.0080260819 4.4071989e-19)
(94.221352 0.005386056 2.2515194e-24)
(94.193912 -0.0071085634 -2.4082789e-18)
(94.204777 -0.0016362209 2.2955856e-18)
(94.219797 -0.0032932439 0)
(94.240758 -0.0079895732 0)
(94.256948 -0.01583816 0)
(94.258953 -0.019085146 0)
(94.25856 -0.015129994 8.9886205e-19)
(94.258065 -0.0064475083 -4.4777465e-24)
(94.257805 0.00800199 -8.1759085e-19)
(94.25172 0.0057330994 -3.8795161e-19)
(94.184243 -0.0082016947 0)
(94.197227 -0.0040270776 0)
(94.215681 -0.0060881907 0)
(94.239481 -0.010844065 0)
(94.255322 -0.017205305 1.8523921e-18)
(94.257277 -0.020012222 -1.7660726e-18)
(94.258058 -0.013955007 0)
(94.260177 -0.0075838782 -7.9610302e-19)
(94.263838 0.0085045088 7.5721254e-19)
(94.261846 0.0068430947 -3.601206e-19)
(94.164115 -0.021818147 -2.1783751e-18)
(94.173055 -0.0095016041 2.7538597e-23)
(94.18739 -0.0066779357 3.9510581e-18)
(94.208667 -0.009558012 -1.8838244e-18)
(94.234511 -0.013707146 1.798962e-18)
(94.24822 -0.018917864 -3.440487e-18)
(94.249646 -0.019888705 1.6363998e-18)
(94.251287 -0.014737535 0)
(94.255501 -0.0072553856 0)
(94.261868 0.0078749905 0)
(94.26188 0.0070853328 0)
(94.153264 -0.022986028 4.0443377e-18)
(94.162631 -0.011055195 0)
(94.177823 -0.010154005 3.6667915e-18)
(94.201385 -0.01329013 -3.4974924e-18)
(94.228108 -0.017396661 -1.671116e-18)
(94.23865 -0.019758424 1.5978191e-18)
(94.239758 -0.020502211 -1.5174644e-18)
(94.242234 -0.014810795 1.4396156e-18)
(94.248259 -0.0085332581 6.8659621e-19)
(94.256293 0.0075840948 -6.5679514e-19)
(94.257496 0.0074154988 6.2461147e-19)
(94.144861 -0.024348655 0)
(94.15458 -0.012987292 0)
(94.170316 -0.014088806 0)
(94.195475 -0.017846879 0)
(94.221332 -0.020627897 0)
(94.228722 -0.020685184 0)
(94.229973 -0.021071404 0)
(94.233577 -0.015330233 0)
(94.241202 -0.0094382635 1.2759283e-18)
(94.250005 0.0070566993 -1.220038e-18)
(94.251844 0.0075129299 0)
(94.140344 -0.025889297 0)
(94.150274 -0.015247538 0)
(94.166371 -0.018552392 0)
(94.192095 -0.02271261 0)
(94.215078 -0.023479927 0)
(94.220209 -0.021641298 0)
(94.222068 -0.0218966 0)
(94.22722 -0.015790225 0)
(94.236186 -0.010898282 0)
(94.245109 0.0057454793 0)
(94.24691 0.0080884325 5.3845296e-19)
(94.140841 -0.027605239 6.4752023e-18)
(94.150988 -0.017957289 -3.0811269e-18)
(94.167428 -0.023462311 0)
(94.192453 -0.027430821 0)
(94.210826 -0.026305419 2.6820593e-18)
(94.214518 -0.022441707 -2.8247266e-23)
(94.21735 -0.022928834 -1.8403871e-23)
(94.224533 -0.016700277 -2.3095384e-18)
(94.234401 -0.012467812 1.1028235e-18)
(94.242391 0.0053698518 -1.0537123e-18)
(94.244412 0.0074116373 5.0028884e-19)
(94.146741 -0.029339045 -6.012189e-18)
(94.157476 -0.021043786 5.7233251e-18)
(94.174507 -0.02851938 0)
(94.197634 -0.031876122 0)
(94.210126 -0.028339254 2.4933593e-18)
(94.212681 -0.023417078 -2.3713802e-18)
(94.216582 -0.024360278 0)
(94.226201 -0.017523211 -2.1474742e-18)
(94.236363 -0.014592219 3.0776876e-18)
(94.242788 0.0047638593 -9.7962718e-19)
(94.244732 0.0076278817 4.6717712e-19)
(94.157351 -0.031356042 0)
(94.169103 -0.025012896 -5.3162676e-18)
(94.18719 -0.033933542 5.0713785e-18)
(94.207279 -0.035956172 0)
(94.21338 -0.029513143 0)
(94.215029 -0.024296905 0)
(94.219912 -0.025925156 0)
(94.231905 -0.019525332 0)
(94.241812 -0.015483268 0)
(94.246623 0.0033254815 0)
(94.248317 0.0071504364 0)
(94.170635 -0.033333118 -5.1820203e-18)
(94.184018 -0.029768589 0)
(94.203492 -0.038891396 4.7172964e-18)
(94.218724 -0.037838951 -4.5193233e-18)
(94.219799 -0.030471591 -4.3063892e-18)
(94.220766 -0.025751991 6.118352e-18)
(94.226569 -0.028104965 -3.8830463e-18)
(94.240351 -0.021138014 1.8579586e-18)
(94.249268 -0.016891094 -1.7762545e-18)
(94.253368 0.0022449392 8.4704643e-19)
(94.255254 0.006909407 1.6135951e-18)
(94.184256 -0.036352216 0)
(94.200387 -0.035669263 0)
(94.220179 -0.045814199 0)
(94.227721 -0.037205283 0)
(94.227463 -0.031154475 0)
(94.2284 -0.026634767 0)
(94.235227 -0.0302844 -3.6112679e-18)
(94.249745 -0.023282001 3.4581481e-18)
(94.257296 -0.017736586 -1.6525243e-18)
(94.261342 0.00063045336 1.5748103e-18)
(94.264055 0.0066905159 0)
(94.196364 -0.03991889 0)
(94.214949 -0.044350983 0)
(94.23106 -0.043963995 4.0928026e-18)
(94.234101 -0.040123397 -7.8344613e-18)
(94.2343 -0.031563905 3.7112667e-18)
(94.235667 -0.028146636 -3.5163026e-18)
(94.244049 -0.033177608 3.3614629e-18)
(94.258322 -0.025448208 0)
(94.264344 -0.018608758 0)
(94.26865 -0.0011428348 0)
(94.27243 0.0065219836 0)
(94.207917 -0.046973851 0)
(94.224705 -0.04807794 -7.956624e-18)
(94.234944 -0.049724274 7.6150116e-18)
(94.237887 -0.039896015 0)
(94.239562 -0.030819162 -3.451879e-18)
(94.242321 -0.029421026 3.2812781e-18)
(94.252079 -0.036167564 0)
(94.26454 -0.026889144 0)
(94.269357 -0.01978515 0)
(94.274242 -0.0030767922 0)
(94.278775 0.0067165675 1.3001849e-18)
(94.219817 -0.05216343 7.7504628e-18)
(94.230952 -0.052365638 -7.4131275e-18)
(94.236431 -0.050047147 0)
(94.240338 -0.040866683 6.7395475e-18)
(94.244267 -0.032563134 -6.4225883e-18)
(94.248913 -0.031597704 -3.0591151e-18)
(94.258687 -0.040084539 5.8405434e-18)
(94.267523 -0.028855984 -2.793418e-18)
(94.271713 -0.020947768 0)
(94.277982 -0.0043984047 0)
(94.283194 0.0051887288 0)
(94.227274 -0.057394339 7.2241073e-18)
(94.233145 -0.053686455 -4.2397047e-23)
(94.236733 -0.050921322 -2.7520655e-23)
(94.242312 -0.043135833 -4.3336306e-23)
(94.249147 -0.033685592 -5.9801566e-18)
(94.2558 -0.034834115 5.7067201e-18)
(94.263578 -0.041210329 -5.4500165e-18)
(94.268407 -0.029624536 0)
(94.272427 -0.022783963 2.4766525e-18)
(94.280503 -0.0061073912 -2.3629691e-18)
(94.287077 0.0053139353 0)
(94.231474 -0.056795028 6.7446517e-18)
(94.233024 -0.055795297 0)
(94.236809 -0.053044921 -6.0946948e-18)
(94.244583 -0.046980925 4.5815724e-23)
(94.253033 -0.037381749 6.066721e-23)
(94.260041 -0.036406927 1.0644634e-17)
(94.266009 -0.042591104 -2.0571945e-23)
(94.269463 -0.031596332 -4.8461837e-18)
(94.273851 -0.0244401 0)
(94.283175 -0.0086275151 0)
(94.290906 0.0021394123 -1.0551274e-18)
(94.233778 -0.062155731 -1.3130764e-17)
(94.235972 -0.061417118 0)
(94.236321 -0.057274447 0)
(94.23953 -0.054332533 0)
(94.245965 -0.049604669 0)
(94.253571 -0.040193038 -5.1893846e-18)
(94.262948 -0.041268349 4.9575149e-18)
(94.270797 -0.045308139 0)
(94.273556 -0.031776111 4.5231328e-18)
(94.277025 -0.024683427 -4.304042e-18)
(94.283672 -0.011611075 0)
(94.292209 0.0055968826 0)
(94.239887 -0.068293748 1.224113e-17)
(94.240677 -0.060119063 0)
(94.240945 -0.056665704 1.1109519e-17)
(94.242551 -0.053899453 -1.0565442e-17)
(94.24614 -0.052491412 0)
(94.252954 -0.04580466 0)
(94.265263 -0.045472475 4.6217831e-18)
(94.274152 -0.045584977 -8.8530335e-18)
(94.277257 -0.033173783 4.2200527e-18)
(94.281522 -0.02526753 4.0201823e-18)
(94.286368 -0.013705667 -3.8380678e-18)
(94.292609 -0.00081761824 0)
(94.244695 -0.060387207 0)
(94.244292 -0.05911911 -1.0736964e-17)
(94.244999 -0.057144011 1.0295259e-17)
(94.246603 -0.055221336 -9.8718976e-18)
(94.249666 -0.05420438 9.4320211e-18)
(94.256376 -0.051713123 -9.0147062e-18)
(94.266403 -0.049507063 8.6290199e-18)
(94.274223 -0.047992721 4.1253941e-18)
(94.280584 -0.036662725 -3.9379735e-18)
(94.286376 -0.027272665 0)
(94.289599 -0.012523258 1.7953592e-18)
(94.293241 0.00013333284 -1.713243e-18)
(94.246856 -0.064988654 1.0615778e-17)
(94.248362 -0.060595428 -1.0116715e-17)
(94.250542 -0.056847291 0)
(94.253026 -0.057332826 0)
(94.256322 -0.059383115 0)
(94.261682 -0.052204577 0)
(94.2684 -0.054493287 0)
(94.275511 -0.052364448 0)
(94.282657 -0.036303142 0)
(94.288133 -0.028230995 0)
(94.291446 -0.012942284 0)
(94.294316 -0.0067706986 0)
(94.252846 -0.062582026 -1.9533832e-17)
(94.253115 -0.060014411 1.8715476e-17)
(94.254637 -0.058451211 0)
(94.257168 -0.059637064 -8.6100928e-18)
(94.261497 -0.059375627 8.237431e-18)
(94.266481 -0.056951281 0)
(94.271844 -0.055554636 -7.5316812e-18)
(94.277885 -0.052150163 7.202802e-18)
(94.28224 -0.03966817 6.8824361e-18)
(94.286858 -0.031662666 -6.5684904e-18)
(94.292466 -0.014707719 3.1387503e-18)
(94.297215 -0.0010350809 -3.003773e-18)
(94.259223 -0.062660251 0)
(94.259451 -0.061503589 0)
(94.260735 -0.058145376 0)
(94.264035 -0.064955097 0)
(94.269134 -0.064955767 0)
(94.273888 -0.056953667 0)
(94.279137 -0.064569679 0)
(94.281736 -0.050271111 0)
(94.282619 -0.041917602 -6.4384687e-18)
(94.285243 -0.030994494 6.1347635e-18)
(94.289879 -0.018481703 0)
(94.295295 -0.0061175377 0)
(94.267385 -0.06648256 0)
(94.266631 -0.062906244 0)
(94.266152 -0.060315986 0)
(94.267385 -0.06347308 -1.5641014e-17)
(94.271797 -0.065057573 1.5060224e-17)
(94.274804 -0.062464464 1.4439342e-17)
(94.278376 -0.064224763 -2.7553114e-17)
(94.285202 -0.055166075 1.3234745e-17)
(94.285457 -0.048548051 0)
(94.28596 -0.042485201 0)
(94.288749 -0.035076797 0)
(94.291271 -0.017721618 0)
(94.293732 -0.0089673881 -2.631902e-18)
(94.275029 -0.059968803 0)
(94.273606 -0.058908032 -1.6078301e-17)
(94.271704 -0.062957315 1.5320464e-17)
(94.272157 -0.063720596 -1.4630691e-17)
(94.274031 -0.064431412 -2.7921583e-23)
(94.276285 -0.06720832 -6.1109344e-23)
(94.281963 -0.071294425 1.2905638e-17)
(94.287562 -0.058695751 -1.240268e-17)
(94.289167 -0.04784024 1.1845585e-17)
(94.292197 -0.049308109 0)
(94.295207 -0.032158381 -5.4310968e-18)
(94.295391 -0.01612165 -5.8243647e-24)
(94.296912 -0.012427767 4.9297365e-18)
(94.28412 -0.060022647 -1.5799894e-17)
(94.283781 -0.059355086 1.5026236e-17)
(94.282859 -0.059867355 -1.4386238e-17)
(94.281622 -0.064157707 1.3735892e-17)
(94.2818 -0.067733443 -1.3108097e-17)
(94.283711 -0.072562913 1.2598826e-17)
(94.287384 -0.069790322 0)
(94.288624 -0.053202749 0)
(94.290696 -0.056777103 1.1071056e-17)
(94.296928 -0.041064662 -1.0562018e-17)
(94.29675 -0.030722231 0)
(94.297392 -0.022549257 -4.8324678e-18)
(94.301181 -0.013789416 4.6450364e-18)
(94.292525 -0.059756239 0)
(94.289901 -0.057421892 0)
(94.288905 -0.058641387 0)
(94.288994 -0.061168011 -2.6737942e-17)
(94.288366 -0.063963261 2.5630159e-17)
(94.288358 -0.066980885 0)
(94.290049 -0.068040273 0)
(94.28951 -0.064814389 -1.1380058e-17)
(94.289492 -0.056472445 1.0897656e-17)
(94.293931 -0.060436369 -1.0389673e-17)
(94.299513 -0.045647633 1.0016867e-17)
(94.300952 -0.030977273 4.7900309e-18)
(94.30361 -0.026800885 -4.5757893e-18)
(94.305817 -0.014355364 0)
(94.298042 -0.055060327 0)
(94.297406 -0.056719511 -2.7528543e-17)
(94.298015 -0.058735242 2.6142907e-17)
(94.29792 -0.060889647 2.5097361e-17)
(94.29672 -0.060211211 -4.8343933e-17)
(94.294633 -0.071043814 4.6320963e-17)
(94.29483 -0.065678749 -2.2165538e-17)
(94.295544 -0.061138892 1.0664901e-17)
(94.296678 -0.069601445 -1.0236226e-17)
(94.298658 -0.06045601 -9.8414645e-18)
(94.299249 -0.04406258 9.407531e-18)
(94.302758 -0.039635706 0)
(94.309549 -0.021878409 4.3280022e-18)
(94.309843 -0.017139926 -8.3151013e-18)
(94.30195 -0.059339203 2.6827417e-17)
(94.302667 -0.06130854 0)
(94.305339 -0.061351923 0)
(94.304315 -0.059823693 -2.3615646e-17)
(94.300692 -0.059634823 2.2909979e-17)
(94.30048 -0.063153509 0)
(94.301154 -0.067369381 -2.0877919e-17)
(94.302788 -0.065629048 4.0436199e-17)
(94.302891 -0.062459236 -1.9325368e-17)
(94.299712 -0.057413146 0)
(94.299025 -0.05074383 0)
(94.303813 -0.045177993 -8.4686028e-18)
(94.311241 -0.028669667 1.2263233e-17)
(94.312176 -0.020522983 -3.9284602e-18)
(94.319627 -0.042147724 0)
(94.316786 -0.053383637 2.5202798e-17)
(94.31215 -0.069778708 -4.8621994e-17)
(94.309171 -0.045875732 2.3476402e-17)
(94.308528 -0.053935604 0)
(94.306749 -0.057193996 0)
(94.302987 -0.067500737 0)
(94.302248 -0.070718203 1.999906e-17)
(94.302251 -0.068249653 -3.80414e-17)
(94.301052 -0.062044778 -8.4735024e-25)
(94.300648 -0.056622982 -5.465953e-23)
(94.303192 -0.05751613 1.6691175e-17)
(94.308393 -0.046795974 0)
(94.31216 -0.03006705 0)
(94.315468 -0.021676451 0)
(94.325217 -0.052024992 -3.1884252e-22)
(94.323689 -0.056057272 4.7150382e-17)
(94.318879 -0.052589322 0)
(94.313531 -0.050816772 0)
(94.312862 -0.055931523 0)
(94.312331 -0.058428035 0)
(94.310609 -0.066780576 0)
(94.307486 -0.072735681 0)
(94.305248 -0.06620456 -1.7901764e-17)
(94.305255 -0.064394522 1.7094257e-17)
(94.305837 -0.067202078 0)
(94.307486 -0.062566454 -1.5871396e-17)
(94.309267 -0.049419168 7.6218287e-18)
(94.312595 -0.040402324 -1.3718925e-23)
(94.318368 -0.031685615 7.0275457e-18)
(94.332468 -0.04704305 0)
(94.331245 -0.048797018 0)
(94.328328 -0.043586617 4.4585113e-17)
(94.324386 -0.041461801 1.4595783e-22)
(94.321519 -0.04693626 -4.1497311e-17)
(94.318986 -0.05255885 0)
(94.316295 -0.06216657 0)
(94.313761 -0.069377041 0)
(94.310139 -0.067668971 0)
(94.306999 -0.065656475 -1.7103732e-17)
(94.306519 -0.063165623 3.2999596e-17)
(94.306493 -0.059405987 -1.5711565e-17)
(94.306891 -0.058309008 0)
(94.308977 -0.055809538 0)
(94.312772 -0.043882547 6.9562509e-18)
(94.317079 -0.029868734 -6.6894697e-18)
(94.337182 -0.060943382 -4.7167864e-17)
(94.335871 -0.05651929 0)
(94.333138 -0.049874944 0)
(94.330056 -0.051183039 4.2186153e-17)
(94.32737 -0.051857879 -4.0681566e-17)
(94.325181 -0.053005983 -3.9166892e-17)
(94.323077 -0.06036751 3.7762402e-17)
(94.321959 -0.067296914 3.6296138e-17)
(94.320203 -0.065912362 -3.4774067e-17)
(94.315207 -0.065765326 0)
(94.311178 -0.068728506 -3.2174466e-17)
(94.311498 -0.066102108 4.6323485e-17)
(94.31217 -0.075944334 -2.335209e-23)
(94.312525 -0.07160514 -6.4418726e-24)
(94.313296 -0.060564959 -2.7605704e-17)
(94.314123 -0.045887782 1.3264774e-17)
(94.316275 -0.039022564 0)
(94.337665 -0.038714625 1.5117724e-22)
(94.336214 -0.030478716 -4.281026e-17)
(94.335123 -0.034154798 -4.1317511e-17)
(94.333971 -0.036034494 3.9780661e-17)
(94.332525 -0.038555726 0)
(94.330715 -0.041562269 0)
(94.328013 -0.056306149 0)
(94.324865 -0.061506842 0)
(94.324077 -0.054119776 -3.3308021e-17)
(94.323458 -0.055420292 3.186875e-17)
(94.321268 -0.062791601 0)
(94.319263 -0.062888821 2.9796634e-17)
(94.319167 -0.058938825 -2.8539613e-17)
(94.317235 -0.057824422 -1.366273e-17)
(94.314359 -0.043022584 1.3147163e-17)
(94.315224 -0.038174476 0)
(94.319 -0.034430925 0)
(94.34426 -0.056957984 8.6440632e-17)
(94.343304 -0.057847428 1.3754802e-22)
(94.34153 -0.059614967 -8.0692894e-17)
(94.340448 -0.060933601 7.8046816e-17)
(94.338985 -0.062440199 -7.5095369e-17)
(94.336354 -0.063542627 -3.6373199e-17)
(94.334772 -0.064879303 3.5240765e-17)
(94.333734 -0.067741546 0)
(94.330866 -0.065176685 0)
(94.327217 -0.066059686 -3.1651734e-17)
(94.325858 -0.069442764 3.0565633e-17)
(94.324655 -0.07029437 -2.9350335e-17)
(94.322472 -0.068818339 1.1496069e-22)
(94.321414 -0.06168436 2.7467104e-17)
(94.321138 -0.057640865 0)
(94.321226 -0.053712317 0)
(94.322635 -0.05029101 0)
(94.324967 -0.045887767 0)
(94.343474 -0.043757376 8.3996554e-17)
(94.343435 -0.035489861 -8.1334607e-17)
(94.343655 -0.033367163 7.7499199e-17)
(94.343193 -0.033221821 0)
(94.34227 -0.027621851 7.3676919e-17)
(94.341444 -0.031420799 -7.1338173e-17)
(94.34014 -0.033729906 -6.8923411e-17)
(94.338529 -0.035275601 6.6875431e-17)
(94.337525 -0.029757944 0)
(94.336169 -0.048042686 0)
(94.334075 -0.028799787 0)
(94.333383 -0.038869616 0)
(94.332872 -0.04668437 0)
(94.331062 -0.04705537 0)
(94.330264 -0.042600192 0)
(94.330804 -0.044162558 0)
(94.331353 -0.038286295 0)
(94.33145 -0.033200153 -1.1826362e-17)
(94.331662 -0.029640333 1.1398867e-17)
(94.345883 -0.064167156 -8.0150755e-17)
(94.345854 -0.06199935 0)
(94.345379 -0.059184307 0)
(94.344816 -0.058813702 -7.470383e-17)
(94.344543 -0.060350744 7.2595084e-17)
(94.344352 -0.064365122 0)
(94.344683 -0.064894532 0)
(94.345113 -0.06435528 6.521783e-17)
(94.3447 -0.064322807 -6.3429734e-17)
(94.344506 -0.061966652 0)
(94.344282 -0.060619029 0)
(94.343189 -0.058859728 0)
(94.341694 -0.064304668 5.6253618e-17)
(94.341554 -0.060061243 -5.4246254e-17)
(94.340807 -0.060511822 0)
(94.338604 -0.059639153 0)
(94.336222 -0.05515785 0)
(94.334664 -0.050794359 0)
(94.333529 -0.048118118 0)
(94.332629 -0.044894916 0)
(94.342033 -0.023904859 -4.2534998e-23)
(94.342055 -0.022378493 -1.4288125e-22)
(94.342399 -0.021288364 -1.5184177e-16)
(94.343226 -0.020931338 7.4426375e-17)
(94.344303 -0.021500561 0)
(94.345545 -0.021756605 -7.0561692e-17)
(94.346918 -0.022518342 1.3728231e-16)
(94.34808 -0.021451553 -3.6706064e-22)
(94.34881 -0.0202264 -6.4943303e-17)
(94.349302 -0.018036358 -6.311903e-17)
(94.349516 -0.016750044 1.2139007e-16)
(94.34942 -0.016121641 -1.1778545e-16)
(94.349365 -0.01757041 5.7153087e-17)
(94.349836 -0.018633862 0)
(94.350482 -0.020169166 0)
(94.350284 -0.020648942 0)
(94.349566 -0.021118741 -2.526394e-17)
(94.34821 -0.021104748 4.9101077e-17)
(94.346176 -0.020707302 -2.3842358e-17)
(94.344216 -0.022080888 -2.3170052e-17)
(94.343158 -0.022820419 3.3701279e-17)
(94.342463 -0.021543248 -2.1731317e-17)
(94.341909 -0.0568601 5.0572096e-22)
(94.342189 -0.055849763 1.5284905e-16)
(94.342394 -0.05697 0)
(94.3423 -0.057380633 0)
(94.342192 -0.057725194 0)
(94.342192 -0.058276736 0)
(94.342223 -0.058204444 0)
(94.342349 -0.057822837 0)
(94.34263 -0.058087576 0)
(94.342884 -0.057923293 0)
(94.343239 -0.059277783 0)
(94.343811 -0.057172289 -5.8021442e-17)
(94.343787 -0.06328578 1.8375099e-22)
(94.343627 -0.058741756 5.4689302e-17)
(94.343834 -0.064289355 0)
(94.344092 -0.060021168 0)
(94.344539 -0.054527138 5.0513688e-17)
(94.344491 -0.05215811 -4.8900957e-17)
(94.343655 -0.049587503 -4.7727147e-17)
(94.341715 -0.047955265 2.3304272e-17)
(94.339203 -0.04838503 2.2708194e-17)
(94.337092 -0.045926483 0)
(94.335808 -0.045942601 -1.0739366e-17)
(94.346541 -0.010614505 -1.525723e-16)
(94.342042 -0.0063649266 1.5131401e-16)
(94.339708 -0.003652263 -1.4848693e-16)
(94.338321 -0.0014472679 3.9688837e-22)
(94.337424 0.0002898558 1.4139104e-16)
(94.336876 0.0013745558 0)
(94.336725 0.001778525 0)
(94.337335 0.0015444863 0)
(94.339504 0.00045093256 -1.2686711e-16)
(94.343292 -4.755541e-05 1.2435603e-16)
(94.34805 -0.0060280208 0)
(94.35256 -0.0036049028 0)
(94.356667 -0.016061372 0)
(94.360505 -0.0093850565 1.132415e-16)
(94.36366 -0.011995304 -1.661371e-16)
(94.365125 -0.012753881 5.3536575e-17)
(94.365107 -0.012130608 0)
(94.3646 -0.01171026 -5.0681083e-17)
(94.363395 -0.010740328 4.968426e-17)
(94.361711 -0.0095549263 0)
(94.359777 -0.0077267103 4.7391132e-17)
(94.358007 -0.0070385439 -4.6201503e-17)
(94.356112 -0.0065980656 0)
(94.353988 -0.00685718 0)
(94.352376 -0.0061720304 0)
(94.396139 -0.14917879 0)
(94.40945 -0.070269129 0)
(94.423881 -0.016679594 -1.4306411e-16)
(94.421561 -0.013084384 5.8128098e-21)
(94.413345 -0.016941308 1.3838324e-16)
(94.407926 -0.024625271 1.3645866e-16)
(94.404236 -0.034841297 -6.6802721e-22)
(94.400601 -0.045992922 -2.603459e-16)
(94.396627 -0.0601564 1.2735307e-16)
(94.392046 -0.079566248 0)
(94.387227 -0.093070169 -1.2231372e-16)
(94.383482 -0.11512965 2.8852142e-24)
(94.38205 -0.11506015 2.3292767e-16)
(94.382319 -0.12061236 -1.1306968e-16)
(94.383139 -0.10612825 1.1141833e-16)
(94.384558 -0.11012888 -1.0942383e-16)
(94.386265 -0.099654823 -1.0733358e-16)
(94.388038 -0.078292339 1.0502372e-16)
(94.390193 -0.072564556 0)
(94.391205 -0.060855706 -5.0067643e-17)
(94.390899 -0.059707033 9.8433745e-17)
(94.390922 -0.053963974 -4.8164068e-17)
(94.391895 -0.050302464 0)
(94.393667 -0.038932733 4.6038207e-17)
(94.395157 -0.030839669 -4.5301269e-17)
(94.395602 -0.034663982 0)
(94.395405 -0.041892983 2.154783e-17)
(91.257321 0.0057731087 0)
(91.61792 -0.00055232686 1.1288985e-17)
(92.235671 -0.0046528637 3.2947852e-19)
(92.898513 -0.0051374312 -9.8446428e-18)
(93.442061 -0.0034347214 -9.6350532e-25)
(93.812714 -0.00046233312 1.715434e-17)
(94.035616 0.0023104126 -1.6259758e-17)
(94.158801 0.0043314156 0)
(94.221571 0.0052009256 4.3754552e-19)
(94.249463 0.0067987231 4.0690056e-19)
(94.258183 0.0069842691 1.9001188e-19)
(94.258357 0.0070971542 -1.7785926e-19)
(94.25397 0.007283175 -6.6535289e-19)
(94.248965 0.0075242979 -1.9874108e-17)
(94.245241 0.0071654779 1.7993814e-17)
(94.244002 0.006918556 -5.6122311e-19)
(94.245817 0.0069030593 -3.3150853e-17)
(94.250949 0.0069992576 3.0517951e-17)
(94.258868 0.0069872281 -1.0032732e-18)
(94.268141 0.0066498658 -2.6912154e-17)
(94.276739 0.0055429009 2.5189623e-17)
(94.283193 0.0040450278 -1.8271972e-18)
(94.287224 0.0038937763 -2.1881841e-17)
(94.290097 0.0020275308 2.0496819e-17)
(94.292372 0.0012987098 1.2006407e-18)
(94.294495 -0.0031939024 0)
(94.295737 -0.0010331916 5.2485264e-19)
(94.296382 -0.00080233211 9.8435837e-19)
(94.29676 0.00089088073 0)
(94.299558 -0.0016776125 0)
(94.301093 0.0039982682 0)
(94.298923 -0.0037868097 3.067574e-18)
(94.300545 -0.0098178289 -1.4443175e-18)
(94.304379 -0.0088763972 -9.5562243e-18)
(94.307537 -0.014195687 1.0289306e-17)
(94.310082 -0.014862802 4.8467348e-18)
(94.312569 -0.022411321 9.16842e-18)
(94.318081 -0.020747511 -2.1724954e-18)
(94.322111 -0.027118745 -8.237358e-18)
(94.321192 -0.024267446 0)
(94.320284 -0.036585326 0)
(94.323089 -0.028412109 0)
(94.326433 -0.044140311 0)
(94.331807 -0.024002372 6.5047221e-18)
(94.332694 -0.043459179 1.5399845e-18)
(94.341859 -0.019913415 1.0564531e-17)
(94.334943 -0.046081256 2.329882e-17)
(94.352544 -0.0062361108 3.5090962e-19)
(94.395352 -0.043322362 -3.3655444e-17)
(91.385446 0.00079552354 0)
(91.753871 -0.0052571822 0)
(92.36517 -0.0090180636 -3.111632e-19)
(93.001345 -0.0098147936 0)
(93.509635 -0.0083222257 -2.7356716e-19)
(93.850887 -0.005762229 -1.0253365e-18)
(94.054728 -0.0032843877 -7.2036079e-19)
(94.166844 -0.0011737198 -8.9952623e-19)
(94.223392 0.00054131707 0)
(94.247778 0.00077850797 -7.8639068e-19)
(94.254612 0.0019082434 -2.356066e-17)
(94.254613 0.0025568923 2.2424278e-17)
(94.250514 0.0026064158 -2.0816033e-17)
(94.246623 0.0025198909 1.9497742e-17)
(94.244414 0.0026509844 1.8715962e-17)
(94.243953 0.0030472299 -5.1120052e-17)
(94.246928 0.002481842 3.1906299e-17)
(94.253106 0.0025607585 0)
(94.26146 0.0023830517 -2.8370357e-17)
(94.270482 0.002552548 2.6070373e-17)
(94.27862 0.0024897108 -5.7728487e-19)
(94.285272 0.001786944 -2.2377697e-17)
(94.290428 0.0017562843 4.329867e-17)
(94.293499 0.0035573056 -2.0581971e-17)
(94.294513 0.0018701009 -2.9594381e-19)
(94.295197 0.0012365083 0)
(94.295334 6.2716995e-05 -1.7354062e-17)
(94.296311 -0.0033866842 3.000678e-17)
(94.297179 -0.0029889086 -1.4728357e-17)
(94.298703 -0.0045695472 0)
(94.303066 -0.0076955591 0)
(94.30524 -0.0042736383 -1.2235588e-17)
(94.305074 -0.004052439 1.2584494e-17)
(94.306096 -0.012875829 -1.2206639e-17)
(94.309079 -0.015838509 1.0239057e-17)
(94.311264 -0.015284303 0)
(94.313742 -0.016806373 1.1362084e-18)
(94.319367 -0.020022752 2.1588098e-18)
(94.324158 -0.025562826 0)
(94.325227 -0.019900088 3.8834113e-18)
(94.32491 -0.033754867 -3.6926266e-18)
(94.325839 -0.022586679 0)
(94.327748 -0.043384687 3.3572284e-18)
(94.331877 -0.020344421 -3.2078387e-18)
(94.333635 -0.042768879 1.5372152e-18)
(94.341782 -0.018382867 -2.9795856e-18)
(94.333926 -0.046245191 -1.0119996e-17)
(94.353243 -0.0051740623 -5.6017346e-18)
(94.395442 -0.044797376 1.0924871e-17)
(91.499086 -0.001216812 0)
(91.877297 -0.0069361923 -1.2507115e-18)
(92.485255 -0.010394371 1.0605324e-17)
(93.097717 -0.01116869 -8.8747069e-18)
(93.574407 -0.010001017 0)
(93.888707 -0.0079700514 -1.4716392e-17)
(94.074451 -0.0059614478 4.5173431e-17)
(94.175761 -0.0044243142 -2.6842039e-17)
(94.226316 -0.0032783447 0)
(94.247866 -0.0023039276 7.5893352e-19)
(94.253934 -0.0021601861 2.1508349e-17)
(94.253543 -0.0019636807 -2.0200227e-17)
(94.249641 -0.0019392235 2.0200187e-17)
(94.246263 -0.0019171247 2.3948794e-25)
(94.24462 -0.0015752369 -1.825852e-17)
(94.245009 -0.001906111 -3.3291e-17)
(94.249339 -0.002347672 3.1293293e-17)
(94.25628 -0.002400803 0)
(94.264727 -0.0025561239 4.3049273e-19)
(94.273207 -0.0024483836 4.0372574e-19)
(94.280473 -0.0020670518 3.7864142e-19)
(94.286277 -0.0019071057 2.2392546e-17)
(94.290935 -0.0031569636 -2.1364558e-17)
(94.294536 -0.0044383495 3.1381952e-19)
(94.297212 -0.0033537707 -1.839438e-17)
(94.2984 -0.0010215315 1.7610633e-17)
(94.297721 0.0011132373 -1.6215425e-17)
(94.298132 -0.0064978279 1.2073596e-19)
(94.298895 -0.0045721851 1.5459499e-17)
(94.299266 -0.0065341637 1.2785996e-17)
(94.303114 -0.010270637 -1.2907792e-17)
(94.30663 -0.013358422 0)
(94.308186 -0.013540983 3.5830832e-19)
(94.308231 -0.016363987 -1.0785289e-17)
(94.309816 -0.017789724 -6.3659494e-19)
(94.311934 -0.018401397 1.662425e-23)
(94.315612 -0.023248198 7.3719142e-18)
(94.321072 -0.023194196 0)
(94.325064 -0.026855002 0)
(94.32785 -0.021166581 -3.8763221e-18)
(94.32824 -0.031742405 3.9115011e-18)
(94.328487 -0.02287321 -1.0940232e-19)
(94.32999 -0.046278595 -1.9388129e-23)
(94.331663 -0.018622683 -6.3353828e-18)
(94.335362 -0.04226666 0)
(94.341925 -0.017996453 0)
(94.333275 -0.047020849 0)
(94.354311 -0.0064761882 5.2293214e-18)
(94.395032 -0.047532211 1.7117844e-18)
(91.601359 -0.0019995492 0)
(91.987592 -0.0074068283 3.5480292e-18)
(92.592194 -0.010596681 1.1182316e-18)
(93.183803 -0.011139646 2.1124915e-18)
(93.633537 -0.0099913386 -1.5948254e-17)
(93.924911 -0.008390661 1.3158217e-17)
(94.094965 -0.0069340615 0)
(94.186602 -0.0058546224 -1.6676994e-18)
(94.231551 -0.0052394613 2.50999e-17)
(94.250153 -0.0048531012 9.2073723e-24)
(94.255194 -0.0047506207 -2.0783717e-17)
(94.254284 -0.0049754925 -1.3040559e-18)
(94.250497 -0.005116131 1.9598377e-17)
(94.247626 -0.005270752 -1.6112702e-17)
(94.246745 -0.0053474122 1.951446e-17)
(94.248595 -0.0057193498 -4.6986615e-17)
(94.253984 -0.0056398857 6.1454265e-17)
(94.261324 -0.0057533178 -5.5933075e-17)
(94.269526 -0.0061615415 2.7111381e-17)
(94.277318 -0.0068827908 2.5451951e-17)
(94.283718 -0.0067977206 3.9321843e-23)
(94.288474 -0.0073692181 -4.3409299e-17)
(94.292144 -0.0066500192 2.6272362e-18)
(94.294983 -0.0058554372 3.9556062e-17)
(94.296987 -0.0081763663 -1.8459385e-17)
(94.298946 -0.011238503 2.1862475e-18)
(94.300913 -0.0065966075 0)
(94.302643 -0.003506019 -1.9254434e-18)
(94.303649 -0.0045116136 -9.0481112e-19)
(94.303985 -0.0091137192 1.4443122e-17)
(94.306096 -0.010730386 -1.2765586e-17)
(94.308211 -0.014455961 0)
(94.30989 -0.018311885 0)
(94.310304 -0.019917854 0)
(94.310651 -0.022116233 6.324198e-19)
(94.312452 -0.023377984 2.3864687e-18)
(94.317039 -0.027421712 2.8302879e-18)
(94.321984 -0.025874046 2.1304172e-18)