/*--------------------------------*- C++ -*----------------------------------*\
| =========                 |                                                 |
| \\      /  F ield         | OpenFOAM: The Open Source CFD Toolbox           |
|  \\    /   O peration     | Version:  2506                                  |
|   \\  /    A nd           | Website:  www.openfoam.com                      |
|    \\/     M anipulation  |                                                 |
\*---------------------------------------------------------------------------*/
FoamFile
{
    version     2.0;
    format      ascii;
    arch        "LSB;label=32;scalar=64";
    class       volScalarField;
    location    "2.6";
    object      Ma;
}
// * * * * * * * * * * * * * * * * * * * * * * * * * * * * * * * * * * * * * //

dimensions      [0 0 0 0 0 0 0];

internalField   nonuniform List<scalar> 
1376
(
0.29859245
0.29941003
0.29987047
0.3000941
0.29769173
0.2986557
0.29946429
0.29991688
0.30013511
0.30023299
0.30027628
0.30029593
0.30030431
0.30030649
0.30030583
0.29776832
0.29872662
0.29952694
0.29997243
0.30018576
0.30028062
0.30032202
0.30034032
0.30034739
0.30034826
0.30034599
0.30034063
0.30033301
0.30032383
0.30031369
0.30030302
0.29784637
0.29879909
0.29959101
0.30002947
0.3002383
0.30033093
0.30037143
0.30038945
0.30039645
0.30039716
0.30039454
0.30038865
0.30038027
0.30037007
0.30035853
0.30034594
0.30033266
0.30031878
0.30030445
0.30029027
0.29792698
0.29887406
0.29965693
0.30008705
0.30028992
0.30037891
0.3004174
0.30043429
0.30044059
0.30044106
0.30043833
0.30043237
0.30042398
0.30041401
0.30040292
0.300391
0.30037859
0.30036584
0.30035254
0.30033824
0.30032258
0.3003053
0.30028748
0.30027217
0.3002611
0.29801058
0.29895476
0.29973012
0.30015255
0.30034918
0.30043361
0.30046864
0.30048258
0.30048659
0.30048557
0.30048145
0.30047419
0.30046477
0.30045382
0.30044192
0.30042954
0.30041702
0.30040498
0.30039386
0.30038364
0.30037392
0.30036316
0.30034878
0.30033059
0.30031088
0.30028931
0.3002647
0.30024271
0.30022954
0.29808913
0.29903245
0.29980263
0.30021984
0.30041263
0.30049453
0.30052759
0.30053949
0.30054196
0.30053993
0.30053441
0.30052557
0.3005146
0.30050176
0.30048758
0.30047252
0.30045696
0.30044159
0.300427
0.30041371
0.3004023
0.30039316
0.30038551
0.3003775
0.30036874
0.30035785
0.30033609
0.30030178
0.30026813
0.30024152
0.30022368
0.30020929
0.30019245
0.298164
0.29910544
0.29987039
0.30028249
0.30047228
0.30055282
0.30058546
0.30059721
0.30059974
0.30059818
0.30059273
0.30058394
0.30057319
0.30056037
0.30054581
0.30052956
0.30051189
0.30049325
0.30047403
0.30045483
0.30043654
0.30042042
0.30040705
0.3003952
0.30038416
0.30037582
0.30037128
0.30036522
0.30034345
0.30030989
0.30027857
0.3002526
0.30022536
0.30019305
0.30016007
0.30013443
0.29824629
0.2991857
0.29994425
0.30034987
0.30053529
0.30061295
0.30064347
0.30065355
0.30065528
0.300653
0.30064699
0.30063868
0.30062905
0.30061796
0.30060541
0.30059107
0.30057488
0.3005569
0.3005374
0.30051678
0.30049521
0.30047349
0.30045318
0.30043429
0.30041482
0.30039573
0.30038146
0.3003712
0.30035942
0.30034552
0.30032862
0.30030772
0.30028927
0.30025636
0.30020859
0.30017272
0.30014688
0.30011978
0.30009864
0.29833077
0.29926923
0.30002154
0.30042135
0.30060282
0.30067787
0.3007059
0.30071338
0.30071332
0.30070843
0.30070004
0.30069027
0.30067944
0.30066788
0.30065527
0.30064131
0.30062606
0.30060953
0.30059204
0.30057402
0.3005554
0.30053577
0.3005159
0.30049759
0.30047925
0.30045511
0.30042642
0.30040088
0.30037994
0.30035957
0.30033927
0.30031999
0.30029992
0.30028434
0.3002689
0.30024911
0.30021367
0.30017003
0.30013159
0.30009842
0.3000555
0.30002113
0.29841067
0.29934821
0.30009515
0.30049029
0.30066913
0.30074313
0.30077067
0.30077778
0.3007773
0.30077087
0.30076112
0.3007496
0.30073663
0.30072295
0.30070833
0.30069272
0.30067624
0.30065896
0.30064084
0.30062197
0.30060279
0.30058338
0.30056334
0.30054359
0.30052621
0.30051063
0.30049157
0.30046702
0.30044083
0.3004105
0.3003757
0.3003443
0.30031349
0.30028629
0.30027146
0.30026047
0.30024342
0.30022143
0.30018334
0.30014772
0.30010148
0.30006159
0.30002626
0.29998491
0.29995098
0.29850092
0.29943736
0.30017781
0.30056677
0.30074205
0.3008143
0.30084156
0.30084939
0.30084974
0.30084401
0.30083507
0.30082345
0.30081
0.30079534
0.30077961
0.300763
0.30074538
0.30072663
0.30070654
0.30068484
0.3006622
0.30063964
0.30061658
0.30059177
0.3005666
0.30054417
0.30052493
0.30050754
0.30049117
0.30047255
0.30044418
0.30041107
0.30037996
0.3003409
0.30030329
0.30027468
0.30024801
0.30021872
0.30019372
0.30016312
0.30013274
0.30010068
0.30006316
0.30002319
0.29998176
0.29994629
0.2999704
0.29860453
0.2995418
0.30027428
0.3006552
0.30082503
0.30089387
0.30091915
0.30092619
0.30092645
0.30092095
0.3009124
0.30090123
0.30088876
0.30087525
0.30086093
0.30084597
0.30082983
0.30081174
0.30079132
0.30076839
0.30074327
0.30071706
0.30069024
0.30066118
0.30062938
0.30059766
0.3005684
0.30054248
0.30052122
0.30050397
0.30048557
0.30046347
0.30044443
0.30042807
0.30038967
0.30034932
0.30030135
0.3002513
0.30021317
0.300175
0.30014439
0.30010698
0.30006428
0.30003932
0.30001658
0.29999634
0.29999822
0.29990867
0.30003513
0.29870105
0.2996419
0.30036806
0.30074211
0.3009069
0.30097267
0.30099549
0.30100068
0.30099931
0.30099203
0.30098129
0.30096846
0.30095482
0.30094037
0.30092548
0.30091039
0.300895
0.30087879
0.30086109
0.30084157
0.30081968
0.30079478
0.30076763
0.30073855
0.30070601
0.3006721
0.30064024
0.30060715
0.3005728
0.3005431
0.30051621
0.30048677
0.30045838
0.30043713
0.30041899
0.30039238
0.30035914
0.30032417
0.30027001
0.30022289
0.30018829
0.30013999
0.3000894
0.30005333
0.30002268
0.30000548
0.30003261
0.2999403
0.30006049
0.29879505
0.29973905
0.30045996
0.30082828
0.30098933
0.30105339
0.30107511
0.30107933
0.30107715
0.30106879
0.30105606
0.30104115
0.30102476
0.30100694
0.30098827
0.30096918
0.30095007
0.30093121
0.30091235
0.30089289
0.30087195
0.30084862
0.30082255
0.30079486
0.30076655
0.30073631
0.30070624
0.30067931
0.30065122
0.30062083
0.30058562
0.30053785
0.30048951
0.30045255
0.30042581
0.30038725
0.30035725
0.30033959
0.30031283
0.30027812
0.30024394
0.30020231
0.30015963
0.3001066
0.3000533
0.3000157
0.30005488
0.29994027
0.30008926
0.29890528
0.29985198
0.30056624
0.3009273
0.30108367
0.3011453
0.30116626
0.30117057
0.30116926
0.30116164
0.30114956
0.30113512
0.30111821
0.30109919
0.3010784
0.30105588
0.30103207
0.30100775
0.30098315
0.30095758
0.30093018
0.30090124
0.30087148
0.30084075
0.30080982
0.30078021
0.30075048
0.30072083
0.30069506
0.30067674
0.30066525
0.30064199
0.3005944
0.30054846
0.30049707
0.30043275
0.30038824
0.30035783
0.30032618
0.30028941
0.30024387
0.30020631
0.30017162
0.30014047
0.30010709
0.30006563
0.30007934
0.29995742
0.30011889
0.29901937
0.29997031
0.30067817
0.30103172
0.30118219
0.30123933
0.30125705
0.30125966
0.30125634
0.30124716
0.30123509
0.30122139
0.30120594
0.30118944
0.30117185
0.30115263
0.30113186
0.30110986
0.30108628
0.30105996
0.30102944
0.30099344
0.30095341
0.30091325
0.30087237
0.30083172
0.30079586
0.30076299
0.30072986
0.30070197
0.30068692
0.30068346
0.30067271
0.30064295
0.30060239
0.30055076
0.30049261
0.30043514
0.30038474
0.30033339
0.30026899
0.30022061
0.30017885
0.30013769
0.30010984
0.3000671
0.30010523
0.2999813
0.3001555
0.29911967
0.30007349
0.30077706
0.30112584
0.30127233
0.30132591
0.30134022
0.30134056
0.30133341
0.30132087
0.30130621
0.30129002
0.30127268
0.30125481
0.30123621
0.30121667
0.30119618
0.30117507
0.30115391
0.30113319
0.30111358
0.30109446
0.30107178
0.30104402
0.30101276
0.30096578
0.30090327
0.30084633
0.30079759
0.30075595
0.30072453
0.30070423
0.30068311
0.30064371
0.30060568
0.30058414
0.30055691
0.30051691
0.3004705
0.30042089
0.3003578
0.30029248
0.30023886
0.30019022
0.30013606
0.30007271
0.30012024
0.29997066
0.30018972
0.29922552
0.30017844
0.30087737
0.30122262
0.3013675
0.30142051
0.30143505
0.30143617
0.30142858
0.30141538
0.30139965
0.30138193
0.30136273
0.30134207
0.30131945
0.3012953
0.30126954
0.30124225
0.30121469
0.30118819
0.30116318
0.30114069
0.30112245
0.30110681
0.30109484
0.30108983
0.30107258
0.3010247
0.30096616
0.30091086
0.30085971
0.30080986
0.30076017
0.30069923
0.30064909
0.30061698
0.30057554
0.30053316
0.30048976
0.30044387
0.30040488
0.3003587
0.30030428
0.30025538
0.30019555
0.30014118
0.30015313
0.29998429
0.30022498
0.29935125
0.30030078
0.30099296
0.30133352
0.30147687
0.30153001
0.30154629
0.30154942
0.30154391
0.30153297
0.30151974
0.3015047
0.30148849
0.30147058
0.30145019
0.30142744
0.30140194
0.30137275
0.30133928
0.30130098
0.30125733
0.30121077
0.30116925
0.30113763
0.30111218
0.30109463
0.30108894
0.30108869
0.30108001
0.30105133
0.30100895
0.30096563
0.30092754
0.30087747
0.30081513
0.30074933
0.30067618
0.30060798
0.30054418
0.30048034
0.30042934
0.30037638
0.30031371
0.30025408
0.30021153
0.30016532
0.30020323
0.29999616
0.30027344
0.29947543
0.30041991
0.30110414
0.30143905
0.3015795
0.30163111
0.30164632
0.30164846
0.30164194
0.30163043
0.30161695
0.30160182
0.30158609
0.30156961
0.30155233
0.30153416
0.30151557
0.30149733
0.30148045
0.30146501
0.30144415
0.30140217
0.30133183
0.30126134
0.30120587
0.30115636
0.30111943
0.30110153
0.30108946
0.3010656
0.30102764
0.30098954
0.30095913
0.30094165
0.30092537
0.30088688
0.30082754
0.30075313
0.30067694
0.30059843
0.30052547
0.30045238
0.30037487
0.30030252
0.30024747
0.30017296
0.30023554
0.29998553
0.30031843
0.2995878
0.30052621
0.30120381
0.3015347
0.30167309
0.30172404
0.30173846
0.3017395
0.30173163
0.30171878
0.30170342
0.30168579
0.30166661
0.30164619
0.30162489
0.30160261
0.30157979
0.30155754
0.30153806
0.3015262
0.30152465
0.3015358
0.30153786
0.30150172
0.3014481
0.30138381
0.3013003
0.30123296
0.30118748
0.30114501
0.30109503
0.30104272
0.30099478
0.30096251
0.300935
0.30089911
0.30085927
0.30080871
0.30075449
0.30069574
0.30062864
0.30055535
0.30048791
0.30042244
0.30034244
0.30026459
0.30029994
0.30001453
0.30036217
0.29971346
0.30064638
0.30131808
0.30164578
0.30178333
0.30183524
0.30185152
0.30185439
0.30184836
0.3018372
0.30182294
0.30180564
0.30178553
0.30176275
0.30173772
0.30171032
0.30168055
0.3016488
0.30161632
0.3015868
0.3015656
0.30155833
0.30156174
0.30156436
0.30155805
0.30154818
0.30151961
0.30146156
0.30139243
0.30132945
0.30127077
0.30121047
0.30114803
0.30109062
0.30103484
0.30097862
0.30092727
0.30087069
0.30081098
0.30074717
0.30067386
0.30059574
0.30052791
0.30046988
0.30041088
0.30034131
0.30039665
0.30009715
0.30042747
0.29985791
0.30078608
0.30145068
0.30177349
0.30190897
0.301961
0.30197912
0.30198453
0.30198267
0.3019755
0.30196538
0.3019528
0.30193753
0.30191922
0.30189802
0.30187351
0.30184492
0.30181147
0.3017729
0.30173059
0.30168849
0.30165179
0.30162602
0.3016096
0.30158767
0.30156762
0.30155326
0.30152928
0.30149002
0.30144601
0.30140265
0.30136077
0.30131737
0.30126714
0.30120447
0.30113596
0.30106805
0.30099925
0.30092839
0.30085404
0.30077377
0.30068868
0.30060527
0.30053132
0.30046897
0.30035744
0.3004577
0.300108
0.30049795
0.29999827
0.30092282
0.30157977
0.30189635
0.30202749
0.30207691
0.30209379
0.30209847
0.30209707
0.30209053
0.30208166
0.30207156
0.30205962
0.30204601
0.30203103
0.30201502
0.30199772
0.30197777
0.30195282
0.30192056
0.30188148
0.30183882
0.30179744
0.30175883
0.30171515
0.30167395
0.30164441
0.30161381
0.30157434
0.3015304
0.30148365
0.30143777
0.30139315
0.30134612
0.30129362
0.30123747
0.30117628
0.30110978
0.30103787
0.3009625
0.30088752
0.30081475
0.3007334
0.30065417
0.30058131
0.300454
0.30054813
0.30014173
0.30057917
0.30013128
0.30105501
0.30170586
0.30201706
0.30214403
0.30219024
0.30220459
0.30220749
0.30220321
0.30219436
0.30218361
0.30217116
0.30215696
0.30214135
0.30212465
0.30210796
0.30209214
0.30207725
0.3020619
0.30204348
0.30202022
0.30199328
0.30196546
0.30193726
0.30190407
0.30186701
0.30182949
0.30178757
0.30174316
0.30169755
0.30164484
0.30158715
0.30152925
0.30147071
0.30141302
0.30135473
0.30129034
0.30121684
0.30113529
0.30105175
0.30096967
0.30089524
0.30081806
0.30073943
0.30068228
0.3005653
0.30067716
0.30022899
0.30067561
0.30026978
0.30119515
0.30184118
0.302148
0.30227239
0.30231759
0.30233153
0.30233472
0.30232948
0.30232013
0.30230887
0.30229531
0.30227993
0.30226257
0.30224354
0.30222379
0.30220438
0.30218615
0.30216894
0.3021511
0.3021304
0.30210637
0.30208097
0.30205733
0.30203541
0.30201056
0.30198077
0.30194665
0.30191021
0.30187356
0.30183097
0.30177763
0.30171871
0.30165658
0.30159565
0.30153479
0.30147037
0.30139631
0.30131054
0.30122097
0.30112722
0.3010336
0.30093896
0.30084308
0.30077977
0.30062573
0.30078034
0.30030049
0.30079926
0.30041244
0.30133942
0.30198045
0.30228333
0.30240623
0.30245217
0.30246845
0.30247348
0.30247008
0.3024629
0.30245384
0.30244328
0.30243107
0.30241725
0.30240181
0.302385
0.30236755
0.3023503
0.30233393
0.30231777
0.30229932
0.30227615
0.30224801
0.30221814
0.30219027
0.30216011
0.30212472
0.30208828
0.30204939
0.30200837
0.3019674
0.30192014
0.30186583
0.30180832
0.30175067
0.30169094
0.30163047
0.3015667
0.30149411
0.30141589
0.30133025
0.30123386
0.30112793
0.30101952
0.30093753
0.30075257
0.30091429
0.30035726
0.30097247
0.30055459
0.30148162
0.30211675
0.30241493
0.3025359
0.30258148
0.30259902
0.30260528
0.30260233
0.30259591
0.30258842
0.30258
0.30257054
0.30256049
0.30254959
0.30253769
0.30252517
0.30251282
0.30250176
0.30249276
0.30248466
0.30247429
0.30245837
0.30243557
0.30240841
0.30237705
0.3023395
0.30229929
0.30225418
0.30220269
0.30215323
0.3021031
0.30204539
0.30198311
0.30191905
0.30185149
0.30178243
0.30171445
0.30164369
0.30156718
0.30148543
0.30139445
0.30129064
0.30117658
0.30111307
0.30090271
0.30110514
0.30043216
0.30117956
0.300696
0.30162197
0.30225141
0.30254474
0.30266344
0.30270842
0.30272544
0.30273157
0.30272808
0.30272118
0.30271342
0.30270452
0.3026952
0.30268515
0.30267428
0.30266254
0.30264996
0.30263701
0.30262483
0.30261501
0.30260845
0.30260405
0.30259921
0.30259089
0.30257776
0.30256109
0.30253993
0.30251291
0.30247929
0.30243801
0.30239402
0.30234966
0.30229879
0.30224077
0.30217645
0.30210586
0.30202928
0.30195227
0.30187509
0.30179027
0.30170049
0.30160139
0.30148592
0.30134957
0.3013072
0.30105499
0.30131892
0.30054873
0.30140297
0.30084159
0.30176784
0.30239295
0.30268292
0.30280035
0.3028463
0.30286429
0.30287049
0.30286828
0.30286302
0.30285585
0.30284765
0.30283904
0.30282935
0.30281871
0.30280706
0.30279411
0.30277993
0.3027654
0.30275218
0.30274171
0.30273424
0.30272867
0.30272297
0.30271502
0.30270516
0.30269332
0.30267689
0.30265645
0.30263422
0.30260839
0.30257884
0.30254579
0.30250883
0.30246496
0.30241443
0.30235506
0.30228818
0.30221701
0.30213433
0.30204389
0.30194382
0.30182056
0.30166985
0.30163671
0.30130003
0.30163741
0.30070774
0.30172637
0.30096557
0.30188963
0.30251279
0.30280049
0.30291819
0.30296502
0.30298534
0.30299293
0.30299378
0.30299183
0.30298684
0.30298159
0.30297537
0.30296857
0.30296165
0.30295385
0.30294475
0.30293408
0.30292267
0.30291196
0.30290292
0.3028958
0.30289033
0.3028854
0.30287892
0.30287033
0.30286023
0.30284722
0.30283281
0.30281892
0.30279983
0.30277559
0.30275028
0.30272317
0.30269083
0.30265464
0.30261525
0.30256875
0.30251233
0.30244276
0.30236192
0.30226838
0.30215
0.30200743
0.30201001
0.30155729
0.30200104
0.30084867
0.30226406
0.30120416
0.30213479
0.30274978
0.30303494
0.30315047
0.30319773
0.30322
0.30323202
0.30323714
0.30323908
0.30324002
0.30324017
0.30324022
0.30324077
0.30324171
0.30324321
0.30324479
0.30324612
0.30324705
0.3032482
0.30325076
0.3032552
0.30326099
0.3032673
0.30327339
0.30327861
0.30328362
0.30329054
0.30330014
0.30331038
0.30331677
0.30331748
0.30331701
0.30331699
0.30331756
0.30331842
0.30332151
0.3033258
0.30332702
0.30332728
0.30332679
0.30332506
0.3033284
0.30335869
0.30333309
0.30354604
0.30309556
0.30410083
0.3021825
)
;

boundaryField
{
    Side
    {
        type            empty;
    }
    Inlet
    {
        type            calculated;
        value           nonuniform List<scalar> 
21
(
0.2997776
0.2997902
0.29980442
0.29981894
0.29983697
0.29985366
0.29987111
0.2998949
0.29991674
0.29993764
0.2999693
0.3000031
0.3000423
0.3000883
0.30014814
0.30023203
0.30033103
0.30043576
0.30059168
0.30084228
0.30077158
)
;
    }
    Airfoil
    {
        type            calculated;
        value           nonuniform List<scalar> 0();
    }
    Outlet
    {
        type            calculated;
        value           nonuniform List<scalar> 
49
(
0.30120416
0.30213479
0.30274978
0.30303494
0.30315047
0.30319773
0.30322001
0.30323202
0.30323714
0.30323909
0.30324002
0.30324018
0.30324022
0.30324077
0.30324171
0.30324321
0.30324479
0.30324612
0.30324705
0.3032482
0.30325076
0.3032552
0.30326098
0.3032673
0.30327339
0.3032786
0.30328362
0.30329053
0.30330014
0.30331038
0.30331676
0.30331747
0.303317
0.30331699
0.30331755
0.30331841
0.30332151
0.3033258
0.30332702
0.30332728
0.3033268
0.30332506
0.30332841
0.30335869
0.3033331
0.30354605
0.30309556
0.30410083
0.3021825
)
;
    }
    procBoundary13to6
    {
        type            processor;
        value           nonuniform List<scalar> 
34
(
0.29762144
0.29762144
0.29771817
0.29779651
0.29787575
0.29795809
0.29804306
0.29812174
0.29819669
0.29828021
0.29836628
0.2984447
0.29853117
0.29863174
0.29872356
0.29881036
0.29891466
0.29902579
0.29912254
0.29922477
0.29935057
0.29947918
0.29959536
0.29972244
0.29986929
0.30001322
0.30014557
0.30027899
0.30041639
0.30055565
0.30069562
0.30084014
0.30096464
0.30120826
)
;
    }
    procBoundary13to12
    {
        type            processor;
        value           nonuniform List<scalar> 
60
(
0.29853575
0.29936162
0.299829
0.30005693
0.30019542
0.30019542
0.30024087
0.30026195
0.30027152
0.30027493
0.30027542
0.30030204
0.30030204
0.30029588
0.3002886
0.30028057
0.30027225
0.30029207
0.30029207
0.30028105
0.30027038
0.3002606
0.3002768
0.3002768
0.3002646
0.30025495
0.30024901
0.30024561
0.30025196
0.30025196
0.30024225
0.30023322
0.30022764
0.30021981
0.30021981
0.30020888
0.30019609
0.30018174
0.30017511
0.30017511
0.30015325
0.30013046
0.30012205
0.30012205
0.30010906
0.30009105
0.30007246
0.30007246
0.30004254
0.30001333
0.29999663
0.29999663
0.29996527
0.29993974
0.29992941
0.29992941
0.29995762
0.29989089
0.29989089
0.30001774
)
;
    }
}


// ************************************************************************* //
