/*--------------------------------*- C++ -*----------------------------------*\
| =========                 |                                                 |
| \\      /  F ield         | OpenFOAM: The Open Source CFD Toolbox           |
|  \\    /   O peration     | Version:  2506                                  |
|   \\  /    A nd           | Website:  www.openfoam.com                      |
|    \\/     M anipulation  |                                                 |
\*---------------------------------------------------------------------------*/
FoamFile
{
    version     2.0;
    format      ascii;
    arch        "LSB;label=32;scalar=64";
    class       volVectorField;
    location    "0.002";
    object      wallShearStress;
}
// * * * * * * * * * * * * * * * * * * * * * * * * * * * * * * * * * * * * * //

dimensions      [1 -1 -2 0 0 0 0];

internalField   uniform (0 0 0);

boundaryField
{
    Side
    {
        type            empty;
    }
    Inlet
    {
        type            calculated;
        value           uniform (0 0 0);
    }
    Airfoil
    {
        type            calculated;
        value           nonuniform List<vector> 
117
(
(-21.60203 -5.0627821 -7.134772e-17)
(-21.701921 -5.1746082 -7.2352106e-17)
(-21.753645 -5.2691993 7.3391681e-17)
(-21.773334 -5.3496646 7.445685e-17)
(-8.8136964 2.1658579 1.1894246e-21)
(-8.8488484 2.1437564 7.6891096e-17)
(-8.870423 2.1154645 1.1572918e-21)
(-8.8732664 2.0800336 7.4839684e-17)
(-8.8568065 2.0377309 -1.1268726e-21)
(-8.7851753 1.9812255 -7.2901756e-17)
(-8.7142259 1.9378055 -3.0092655e-36)
(-8.7184488 1.9180866 7.1058787e-17)
(-8.7454827 1.9034461 -7.0164883e-17)
(-8.7683058 1.8878167 4.8103861e-27)
(-8.7905285 1.8719896 -1.044139e-21)
(-8.8120658 1.8559476 -1.3519119e-16)
(-8.8335642 1.8398405 1.0189909e-21)
(-8.8551505 1.8236819 -1.3194863e-16)
(-8.8770118 1.8075262 0)
(-8.8991379 1.7913479 -3.0092655e-36)
(-8.9215932 1.7751829 -1.2733748e-16)
(-8.9444022 1.7589872 1.2586457e-16)
(-8.9675198 1.7428079 1.2442226e-16)
(-8.9909481 1.7266172 1.2300927e-16)
(-9.0146768 1.7104001 1.8558805e-21)
(-9.0386239 1.6941502 1.2026952e-16)
(-9.062783 1.6778524 1.189449e-16)
(-9.0869689 1.6614785 2.3528597e-16)
(-9.1111332 1.6450085 1.1636924e-16)
(-9.1346339 1.6283375 8.7823057e-22)
(-9.157571 1.6117082 -2.2778764e-16)
(-9.1825472 1.5958357 1.7195274e-21)
(-9.2096677 1.5803158 -8.5081844e-22)
(-9.2368589 1.5647793 3.7966763e-33)
(-9.2644461 1.5492683 -1.5046328e-36)
(-9.2922262 1.5337724 -1.0810772e-16)
(-9.3203038 1.5182742 1.0701543e-16)
(-9.34878 1.5027355 1.5046328e-36)
(-9.3772412 1.487209 4.0365815e-33)
(-9.4061047 1.4716318 1.3432693e-38)
(-9.4348842 1.4560361 0)
(-9.4640317 1.4403761 -1.0184622e-16)
(-9.4930121 1.4246784 7.695105e-22)
(-9.5223175 1.4089036 9.9904769e-17)
(-9.5513484 1.3930678 -4.7019774e-38)
(-9.5805966 1.3771336 9.8033271e-17)
(-9.6093661 1.3611006 0)
(-9.6379014 1.3449091 9.6227567e-17)
(-9.6654891 1.3287014 9.5346474e-17)
(-9.6946224 1.3129647 -9.448416e-17)
(-9.7249113 1.2974125 -9.3635477e-17)
(-9.7555575 1.2818778 -7.0799396e-22)
(-9.7863698 1.2663493 -9.198462e-17)
(-9.817386 1.2508232 -9.118128e-17)
(-9.8485819 1.2352913 9.0392051e-17)
(-9.8799345 1.2197469 3.0092655e-36)
(-9.9114161 1.204183 -8.8855871e-17)
(-9.9429969 1.1885908 1.7621497e-16)
(-9.9746466 1.1729637 6.6656685e-22)
(-10.006335 1.1572944 -6.6110611e-22)
(-10.038024 1.1415744 6.5599757e-22)
(-10.069662 1.1257949 -4.8802526e-26)
(-10.101166 1.1099423 -8.4553135e-17)
(-10.132462 1.0940057 8.3876274e-17)
(-10.163162 1.0779461 8.3213131e-17)
(-10.193645 1.0619631 2.9596991e-25)
(-10.224597 1.0461089 -8.1916375e-17)
(-10.25572 1.0302929 1.6257108e-16)
(-10.286759 1.0144842 -6.1541566e-22)
(-10.317609 0.99869536 -1.601108e-16)
(-10.348507 0.98283823 7.9457083e-17)
(-10.378749 0.96703363 0)
(-10.409185 0.95113704 1.565752e-16)
(-10.438753 0.93527444 -7.771727e-17)
(-10.468634 0.91932717 2.6056478e-33)
(-10.497573 0.90339392 -5.8445542e-22)
(-10.526997 0.88740888 7.6065029e-17)
(-10.55553 0.87141843 -7.5530455e-17)
(-10.584684 0.85540424 -1.5001334e-16)
(-10.61309 0.83936365 0)
(-10.642075 0.82328963 7.5231638e-37)
(-10.67013 0.80713214 -7.3481657e-17)
(-10.69855 0.79103643 -1.1137602e-21)
(-10.726823 0.77500027 5.5318436e-22)
(-10.755682 0.75906232 5.4956822e-22)
(-10.784525 0.74315826 -5.4598698e-22)
(-10.813729 0.72734009 -7.110362e-17)
(-10.843029 0.71154769 7.0650705e-17)
(-10.872486 0.69581468 3.7615819e-37)
(-10.902085 0.6800855 1.3953392e-16)
(-10.931715 0.66442083 -6.9334659e-17)
(-10.961611 0.6487636 -6.8910387e-17)
(-10.991634 0.63312662 -5.2255134e-22)
(-11.021797 0.61751303 1.2751763e-33)
(-11.052257 0.60190744 -6.7674967e-17)
(-11.082825 0.58619935 6.7275894e-17)
(-11.1121 0.57015773 -5.1028071e-22)
(-11.140098 0.55413276 6.6498148e-17)
(-11.168077 0.53819522 -5.0443166e-22)
(-11.195857 0.52233906 5.0158095e-22)
(-11.223452 0.50655455 -4.9877006e-22)
(-11.25073 0.49083114 -6.5012495e-17)
(-11.27764 0.4751669 -6.4655702e-17)
(-11.304066 0.45954321 -6.4304542e-17)
(-11.32993 0.44397026 -3.1979336e-17)
(-11.35522 0.42842607 4.8537717e-22)
(-11.379902 0.41293329 -4.8280647e-22)
(-11.404213 0.39747875 3.1476897e-17)
(-11.428169 0.38207724 3.1314669e-17)
(-11.452846 0.36668611 3.1155041e-17)
(-11.475918 0.35072956 3.0997962e-17)
(-11.496488 0.33466203 3.0844328e-17)
(-11.516764 0.31875408 -3.0692375e-17)
(-11.537523 0.30302407 6.1086531e-17)
(-11.558861 0.28745435 -4.6380814e-22)
(-11.580957 0.27206431 -6.0502225e-17)
(-11.603953 0.25680925 -4.5942233e-22)
)
;
    }
    Outlet
    {
        type            calculated;
        value           nonuniform List<vector> 0();
    }
    procBoundary2to1
    {
        type            processor;
        value           uniform (0 0 0);
    }
    procBoundary2to3
    {
        type            processor;
        value           uniform (0 0 0);
    }
    procBoundary2to8
    {
        type            processor;
        value           uniform (0 0 0);
    }
    procBoundary2to9
    {
        type            processor;
        value           uniform (0 0 0);
    }
}


// ************************************************************************* //
