/*--------------------------------*- C++ -*----------------------------------*\
| =========                 |                                                 |
| \\      /  F ield         | OpenFOAM: The Open Source CFD Toolbox           |
|  \\    /   O peration     | Version:  2506                                  |
|   \\  /    A nd           | Website:  www.openfoam.com                      |
|    \\/     M anipulation  |                                                 |
\*---------------------------------------------------------------------------*/
FoamFile
{
    version     2.0;
    format      ascii;
    arch        "LSB;label=32;scalar=64";
    class       volScalarField;
    location    "0.00021";
    object      k;
}
// * * * * * * * * * * * * * * * * * * * * * * * * * * * * * * * * * * * * * //

dimensions      [0 2 -2 0 0 0 0];

internalField   nonuniform List<scalar> 
3439
(
0.02040256
0.020404237
0.02040429
0.020404205
0.0204086
0.020419496
0.020425894
0.020392242
0.020335989
0.020319969
0.020402501
0.020404267
0.02040437
0.020404324
0.020408499
0.020419567
0.020426794
0.020394372
0.02033694
0.020319804
0.020355336
0.020379179
0.020357547
0.020367064
0.020405715
0.020405928
0.020405905
0.020404617
0.020401599
0.02039921
0.020399503
0.020402441
0.020404299
0.02040445
0.020404451
0.020408379
0.020419626
0.020427697
0.020396541
0.020337944
0.020319702
0.020354047
0.020379076
0.020358269
0.02036626
0.020437941
0.020568774
0.020782723
0.020976307
0.020405539
0.020405586
0.020405715
0.020405936
0.020405951
0.020404751
0.020401687
0.020399263
0.020399423
0.020402379
0.02040433
0.020404531
0.020404589
0.020408241
0.020419668
0.020428573
0.020398757
0.020339023
0.020319637
0.02035273
0.020378913
0.020359041
0.020365509
0.020435353
0.020564973
0.020779014
0.020980268
0.020894064
0.020636178
0.02049373
0.020539787
0.020618897
0.020684551
0.020405529
0.020405529
0.020405538
0.020405585
0.020405713
0.020405942
0.020405994
0.020404882
0.020401783
0.020399318
0.020399345
0.020402315
0.02040436
0.02040461
0.020404738
0.020408077
0.020419691
0.0204294
0.020401051
0.020340195
0.020319575
0.02035141
0.020378691
0.020359864
0.020364801
0.020432713
0.020561021
0.020774902
0.020984056
0.020908144
0.020648681
0.02050005
0.020538282
0.020616505
0.02059641
0.021041983
0.021243273
0.020315302
0.020270688
0.020262484
0.020262231
0.020260869
0.020295615
0.020339493
0.020351374
0.020264553
0.020095465
0.019812131
0.01961064
0.019530291
0.019576663
0.019604892
0.019589728
0.020405529
0.020405529
0.02040553
0.020405537
0.020405583
0.020405712
0.020405948
0.020406038
0.020405013
0.020401886
0.02039938
0.020399272
0.020402247
0.020404386
0.020404683
0.020404899
0.020407899
0.020419698
0.020430187
0.020403461
0.020341481
0.020319496
0.020350116
0.020378409
0.020360731
0.02036412
0.02043002
0.020556928
0.020770398
0.02098758
0.020922193
0.020661629
0.020505685
0.020542894
0.020616471
0.020576065
0.020698519
0.021536261
0.020590469
0.020253523
0.020266736
0.020253936
0.020251826
0.020285049
0.020336333
0.020349202
0.020283336
0.020110478
0.019827788
0.019624781
0.019539931
0.019580553
0.01961239
0.019599607
0.020405528
0.020405529
0.02040553
0.020405529
0.020405537
0.020405581
0.020405711
0.020405954
0.02040608
0.020405145
0.020401994
0.020399449
0.020399203
0.020402175
0.020404407
0.020404747
0.020405059
0.020407735
0.020419685
0.020430963
0.02040597
0.020342898
0.020319382
0.020348873
0.020378062
0.020361631
0.020363453
0.020427289
0.020552698
0.020765518
0.020990803
0.020935957
0.020675196
0.020511729
0.020547753
0.020615458
0.02057377
0.020594421
0.020986978
0.021419636
0.020275706
0.020241851
0.020258635
0.020244685
0.020273573
0.02032353
0.020344533
0.02028487
0.020164434
0.019843174
0.01963944
0.019546027
0.019579229
0.019612945
0.019601186
0.020405529
0.020405529
0.020405529
0.020405529
0.020405529
0.020405537
0.020405579
0.020405709
0.020405959
0.020406122
0.020405276
0.020402111
0.020399521
0.02039914
0.020402092
0.02040442
0.020404808
0.020405218
0.0204076
0.020419657
0.020431733
0.020408518
0.020344455
0.020319237
0.020347689
0.020377632
0.02036255
0.020362785
0.020424543
0.020548327
0.020760284
0.020993701
0.02094923
0.020689657
0.020518293
0.020551186
0.020621744
0.02057612
0.020569795
0.020679807
0.021324966
0.021013493
0.020239175
0.020240013
0.02025211
0.020268701
0.020311159
0.020336916
0.020279652
0.020115868
0.019857712
0.019646248
0.019544723
0.019569751
0.019607166
0.019598152
0.020405529
0.020405528
0.020405529
0.020405529
0.020405529
0.020405529
0.020405536
0.020405578
0.020405706
0.020405962
0.020406162
0.020405402
0.020402237
0.020399599
0.020399085
0.020401996
0.020404428
0.020404869
0.020405373
0.02040749
0.020419591
0.020432479
0.020411071
0.020346168
0.020319067
0.020346544
0.02037711
0.020363491
0.020362132
0.020421788
0.020543814
0.020754726
0.020996159
0.020961942
0.020705244
0.020525248
0.020554339
0.020630038
0.020576508
0.020566027
0.020594301
0.020774322
0.021485933
0.020723731
0.020237581
0.020234171
0.020278972
0.020314121
0.02032987
0.020276457
0.020132376
0.019906407
0.019647024
0.019541581
0.019562935
0.019603935
0.019597444
0.09556514
0.020382364
0.020405543
0.020405673
0.020405574
0.020405548
0.020405536
0.020405531
0.020405529
0.020405529
0.020405529
0.020405529
0.020405529
0.020405529
0.020405529
0.020405535
0.020405576
0.020405704
0.020405966
0.0204062
0.020405525
0.020402379
0.020399682
0.020399038
0.020401884
0.020404431
0.020404933
0.020405527
0.020407391
0.02041946
0.020433185
0.020413654
0.020348053
0.020318875
0.020345408
0.020376482
0.020364441
0.020361548
0.020419025
0.020539158
0.020748876
0.020997885
0.020974197
0.020722096
0.020532604
0.020557942
0.020636555
0.020584353
0.020566067
0.020576899
0.020569883
0.020925716
0.021505874
0.020613537
0.020235214
0.020254123
0.02032511
0.020344829
0.020293127
0.020143691
0.019861805
0.01966135
0.019548952
0.019562378
0.019607453
0.098688576
0.020380598
0.020405521
0.020405673
0.020405574
0.020405548
0.020405536
0.020405531
0.020405529
0.020405529
0.020405529
0.020405529
0.020405529
0.020405529
0.020405529
0.020405535
0.020405574
0.020405701
0.020405966
0.020406237
0.020405639
0.020402541
0.020399773
0.020398996
0.020401754
0.020404428
0.020405005
0.02040568
0.020407298
0.020419262
0.020433841
0.020416302
0.020350126
0.020318653
0.020344262
0.020375753
0.020365389
0.02036106
0.020416271
0.020534373
0.020742754
0.020998692
0.020986357
0.02074013
0.020540346
0.020561812
0.020641667
0.020595615
0.020565075
0.020577045
0.020522995
0.020556529
0.021111323
0.021500484
0.020640252
0.02026534
0.02030127
0.020340987
0.020317011
0.020179115
0.019921909
0.019741811
0.019580436
0.019587533
0.019640425
0.10191682
0.020378729
0.020405497
0.020405673
0.020405574
0.020405548
0.020405536
0.020405531
0.020405529
0.020405529
0.020405529
0.020405529
0.020405528
0.020405529
0.020405529
0.020405534
0.020405572
0.020405698
0.020405968
0.02040627
0.020405747
0.02040272
0.020399868
0.020398955
0.020401613
0.020404426
0.020405081
0.02040583
0.020407214
0.020419013
0.02043446
0.020419025
0.020352373
0.020318398
0.020343114
0.02037494
0.020366339
0.020360672
0.020413547
0.020529461
0.020736364
0.020998907
0.0209991
0.02075895
0.020548376
0.020565743
0.020646661
0.020605597
0.020571733
0.020576729
0.020517907
0.020458235
0.020597265
0.021230189
0.021556167
0.020838037
0.020365565
0.02033892
0.0202963
0.020179442
0.019950295
0.019727908
0.01962444
0.019635303
0.019699087
0.10525208
0.020376751
0.020405471
0.020405672
0.020405575
0.020405548
0.020405536
0.02040553
0.020405529
0.020405529
0.020405529
0.020405529
0.020405529
0.020405529
0.02040553
0.020405534
0.02040557
0.020405694
0.020405968
0.020406299
0.020405849
0.020402916
0.020399963
0.020398911
0.020401468
0.020404423
0.020405159
0.020405975
0.020407138
0.020418737
0.020435066
0.02042182
0.02035478
0.020318133
0.020341975
0.020374059
0.020367284
0.020360391
0.020410853
0.020524423
0.020729705
0.020998559
0.021013154
0.020778104
0.020556607
0.020569726
0.02065181
0.020613844
0.0205822
0.02057888
0.020523768
0.020441147
0.020441411
0.020637031
0.021246058
0.021691171
0.021247146
0.020673479
0.020366847
0.020204179
0.019955394
0.019730491
0.019606669
0.019615357
0.019682612
0.10869622
0.020374665
0.020405441
0.020405672
0.020405575
0.020405549
0.020405535
0.02040553
0.020405529
0.020405529
0.020405529
0.020405529
0.020405529
0.020405529
0.020405529
0.020405533
0.020405568
0.020405689
0.020405967
0.020406324
0.020405951
0.020403133
0.020400053
0.020398869
0.020401322
0.020404418
0.020405236
0.020406112
0.020407069
0.020418445
0.020435656
0.020424653
0.020357361
0.020317924
0.020340834
0.020373135
0.020368223
0.020360208
0.020408193
0.020519257
0.020722767
0.020996871
0.021028365
0.020797476
0.020565039
0.020573845
0.020656873
0.02062182
0.020591568
0.020588329
0.020526625
0.020445049
0.020408268
0.020445819
0.020631427
0.021171107
0.021793931
0.021749559
0.021262271
0.020726134
0.020252249
0.0198911
0.019652073
0.019688991
0.019756074
0.11225135
0.020372462
0.020405408
0.020405671
0.020405575
0.020405548
0.020405535
0.020405531
0.020405529
0.020405529
0.020405529
0.020405529
0.02040553
0.020405529
0.020405529
0.020405533
0.020405566
0.020405686
0.020405964
0.020406345
0.020406051
0.020403369
0.020400137
0.020398833
0.020401182
0.020404413
0.020405313
0.020406233
0.02040701
0.02041814
0.020436203
0.020427469
0.020360144
0.020317833
0.020339645
0.020372191
0.020369167
0.02036012
0.020405557
0.020513959
0.02071554
0.020993823
0.021044048
0.020817005
0.020573785
0.020578235
0.020661762
0.020630282
0.020599025
0.020600734
0.020535868
0.02044814
0.020404452
0.020403957
0.020438467
0.020600554
0.02101805
0.021645971
0.022019886
0.021921508
0.0214772
0.021065906
0.020811117
0.020771586
0.020922178
0.11591917
0.020370137
0.020405372
0.020405671
0.020405575
0.020405549
0.020405536
0.020405531
0.020405529
0.020405529
0.020405529
0.020405529
0.020405529
0.020405529
0.020405529
0.020405533
0.020405564
0.020405682
0.020405962
0.020406364
0.020406149
0.020403621
0.020400215
0.020398808
0.020401046
0.0204044
0.020405382
0.020406335
0.020406975
0.020417826
0.020436686
0.020430227
0.020363167
0.020317825
0.020338364
0.020371261
0.020370137
0.020360102
0.020402943
0.02050854
0.020708019
0.020989762
0.021059635
0.020836558
0.020583093
0.020582971
0.02066656
0.020639063
0.020606082
0.020611445
0.020551282
0.020454558
0.020404436
0.020397199
0.02039681
0.02043793
0.020572825
0.020827775
0.021185502
0.021552493
0.021748241
0.02178455
0.021852784
0.022052088
0.022347509
0.022645186
0.11970138
0.020367688
0.020405332
0.020405671
0.020405575
0.020405548
0.020405535
0.020405531
0.020405529
0.020405529
0.020405529
0.020405529
0.020405529
0.020405529
0.020405529
0.020405533
0.020405561
0.020405677
0.020405959
0.020406381
0.020406251
0.020403882
0.020400289
0.020398794
0.020400915
0.020404372
0.020405442
0.020406426
0.020406957
0.020417515
0.020437102
0.020432923
0.020366439
0.020317947
0.020336976
0.020370364
0.020371158
0.020360116
0.02040034
0.020503018
0.020700204
0.020985044
0.021074812
0.020856047
0.020593389
0.020587911
0.020671375
0.020647959
0.020613802
0.020619847
0.020567904
0.0204683
0.020405412
0.020396269
0.020389675
0.020402656
0.020460099
0.020548544
0.020634325
0.020702471
0.02069878
0.020683463
0.020755531
0.020895276
0.02110931
0.021197555
0.12359962
0.02036511
0.020405289
0.020405671
0.020405576
0.020405548
0.020405536
0.02040553
0.020405529
0.020405529
0.020405529
0.020405529
0.020405529
0.020405529
0.020405529
0.020405532
0.02040556
0.020405673
0.020405954
0.020406396
0.020406356
0.020404149
0.020400366
0.020398788
0.020400785
0.020404321
0.020405489
0.020406518
0.020406957
0.020417213
0.020437431
0.020435537
0.020369935
0.020318265
0.020335484
0.020369509
0.020372218
0.0203601
0.020397748
0.020497428
0.020692113
0.020979829
0.021089454
0.020875536
0.020605175
0.020592823
0.020676189
0.020656931
0.02062209
0.02062758
0.020581963
0.020486493
0.020413761
0.020395587
0.020387814
0.020395671
0.020434556
0.020486549
0.020498062
0.020450384
0.020299139
0.020112541
0.020011181
0.020009422
0.020123954
0.020107547
0.12761528
0.020362398
0.02040524
0.020405671
0.020405576
0.020405548
0.020405536
0.02040553
0.020405529
0.020405529
0.020405529
0.020405529
0.020405529
0.020405529
0.020405529
0.020405532
0.020405558
0.020405668
0.020405948
0.020406409
0.020406459
0.020404419
0.020400452
0.020398787
0.020400652
0.020404247
0.020405522
0.020406616
0.020406973
0.020416911
0.020437608
0.020438047
0.020373617
0.020318773
0.020333869
0.020368687
0.02037322
0.020360066
0.020395178
0.020491799
0.020683767
0.020974007
0.021103464
0.020895263
0.020618856
0.020597534
0.020680863
0.020665915
0.020630666
0.020635851
0.020593706
0.020503937
0.020428162
0.020401868
0.020387137
0.020390985
0.020428768
0.020472702
0.020471125
0.020404481
0.020225367
0.019993652
0.019842988
0.019794931
0.019829236
0.019864226
0.13174967
0.020359547
0.020405189
0.020405671
0.020405577
0.020405549
0.020405536
0.020405531
0.020405529
0.020405529
0.020405529
0.020405529
0.020405529
0.020405529
0.020405529
0.020405531
0.020405556
0.020405662
0.020405941
0.020406418
0.020406558
0.020404696
0.020400546
0.020398789
0.020400517
0.020404147
0.020405547
0.020406719
0.020407019
0.020416594
0.020437631
0.020440442
0.020377536
0.020319505
0.02033212
0.020367841
0.020374144
0.020360013
0.020392652
0.020486168
0.020675196
0.020967474
0.021116744
0.020915487
0.020634545
0.020601977
0.020685195
0.020674787
0.020639538
0.020644566
0.020605056
0.020518577
0.020444047
0.020414328
0.02039337
0.020389687
0.020422736
0.020467117
0.02046828
0.020403305
0.020224003
0.019981124
0.01981751
0.01975584
0.019794236
0.019865449
0.13600389
0.020356554
0.020405131
0.02040567
0.020405577
0.020405549
0.020405537
0.020405531
0.020405529
0.020405529
0.020405529
0.020405529
0.020405529
0.020405529
0.02040553
0.020405532
0.020405553
0.020405658
0.020405934
0.020406425
0.020406651
0.020404973
0.020400655
0.020398796
0.020400371
0.02040403
0.02040557
0.020406825
0.020407093
0.020416249
0.02043748
0.020442723
0.020381755
0.020320455
0.020330261
0.020366942
0.020374988
0.020359972
0.020390203
0.020480574
0.020666428
0.020960158
0.021129222
0.020936338
0.020652005
0.02060621
0.020688977
0.020683474
0.020648834
0.020653336
0.020617125
0.020531723
0.020457596
0.02042933
0.020405553
0.020395294
0.020422206
0.020463861
0.020465424
0.020405982
0.020236486
0.019993487
0.019823511
0.019751609
0.019786063
0.019799711
0.14037884
0.020353413
0.020405068
0.02040567
0.020405578
0.020405549
0.020405537
0.02040553
0.020405529
0.020405529
0.020405529
0.020405529
0.020405529
0.020405529
0.020405529
0.020405531
0.020405552
0.020405652
0.020405925
0.020406429
0.020406739
0.020405242
0.02040079
0.020398807
0.02040022
0.020403908
0.020405603
0.020406931
0.020407194
0.020415864
0.020437198
0.02044493
0.020386293
0.020321614
0.020328338
0.020365982
0.020375772
0.020359966
0.020387847
0.020475061
0.020657499
0.020952022
0.02114083
0.020957751
0.020670813
0.020610369
0.020691962
0.020692178
0.020658546
0.020662096
0.020629612
0.020545417
0.020468956
0.020442288
0.020420592
0.020406548
0.020428337
0.020466895
0.020469569
0.020414106
0.020252128
0.020008786
0.019832889
0.019752177
0.019781235
0.019802224
0.14487529
0.020350121
0.020404999
0.02040567
0.020405578
0.020405549
0.020405536
0.020405531
0.020405529
0.020405529
0.020405528
0.020405529
0.020405529
0.020405529
0.020405529
0.020405531
0.020405551
0.020405646
0.020405915
0.020406432
0.020406821
0.020405496
0.020400955
0.02039883
0.020400067
0.020403786
0.020405655
0.02040704
0.020407328
0.020415434
0.020436824
0.020447068
0.020391124
0.020322984
0.020326409
0.02036494
0.020376485
0.020359979
0.020385601
0.020469665
0.020648424
0.020943037
0.021151508
0.020979559
0.020690583
0.020614654
0.020693912
0.020701507
0.020668457
0.020670924
0.020642023
0.020560305
0.020480203
0.020452261
0.020433885
0.020420485
0.020439277
0.020475444
0.020480153
0.020428392
0.020274761
0.020032952
0.019851905
0.019763615
0.019785364
0.019811479
0.14949371
0.020346674
0.020404926
0.020405669
0.020405578
0.020405548
0.020405536
0.020405531
0.02040553
0.020405529
0.020405529
0.020405529
0.020405529
0.020405529
0.02040553
0.02040553
0.020405548
0.02040564
0.020405905
0.02040643
0.020406896
0.020405736
0.020401152
0.020398869
0.020399923
0.020403658
0.020405729
0.020407151
0.020407497
0.020414962
0.020436368
0.020449135
0.020396193
0.020324594
0.020324493
0.020363793
0.02037712
0.020360051
0.020383477
0.020464405
0.020639236
0.020933187
0.021161192
0.021001582
0.020711077
0.020619339
0.020694961
0.020711875
0.020678455
0.020679837
0.020654276
0.020575729
0.020492964
0.02046099
0.02044387
0.020432711
0.020451998
0.020487607
0.020495434
0.020447347
0.02030251
0.020063556
0.019877554
0.019781895
0.019796105
0.019825298
0.15423439
0.02034307
0.020404844
0.020405669
0.020405578
0.02040555
0.020405536
0.020405532
0.02040553
0.020405529
0.020405529
0.020405529
0.020405529
0.020405528
0.02040553
0.020405531
0.020405547
0.020405634
0.020405895
0.020406426
0.020406963
0.020405956
0.020401395
0.020398929
0.020399788
0.020403518
0.02040581
0.020407265
0.020407709
0.020414443
0.020435846
0.020451124
0.02040145
0.020326474
0.020322529
0.02036257
0.020377679
0.020360211
0.02038148
0.020459298
0.02062996
0.02092248
0.021169805
0.021023666
0.020732285
0.020624754
0.020695552
0.020723168
0.020688572
0.020688799
0.020666458
0.020591129
0.02050708
0.020470664
0.02045199
0.020441598
0.02046249
0.020500183
0.020513037
0.020469339
0.020333818
0.020098977
0.019908124
0.019805362
0.019811268
0.15909737
0.020339302
0.020404758
0.020405669
0.020405578
0.02040555
0.020405536
0.020405531
0.02040553
0.020405529
0.020405528
0.020405529
0.020405529
0.020405528
0.02040553
0.020405531
0.020405545
0.020405629
0.020405884
0.020406421
0.020407019
0.020406165
0.020401678
0.020399
0.020399652
0.020403355
0.02040588
0.02040737
0.020407973
0.020413881
0.020435267
0.020453011
0.020406858
0.020328577
0.020320626
0.020361219
0.020378173
0.02036052
0.020379622
0.020454345
0.020620608
0.020910965
0.021177305
0.021045667
0.020754372
0.020631256
0.020696112
0.020734863
0.02069888
0.020697768
0.020678539
0.020606434
0.020521701
0.020481943
0.020460517
0.020448459
0.020469584
0.020509757
0.02052928
0.02049175
0.020366667
0.020137491
0.019942113
0.019832637
0.019829624
0.16408241
0.02033537
0.020404663
0.020405668
0.020405579
0.02040555
0.020405537
0.020405531
0.02040553
0.020405529
0.020405528
0.020405529
0.020405529
0.020405529
0.020405529
0.02040553
0.020405543
0.020405624
0.020405873
0.020406411
0.020407064
0.020406369
0.020401996
0.020399077
0.020399507
0.020403171
0.020405921
0.020407463
0.020408285
0.020413291
0.020434632
0.020454748
0.02041237
0.02033088
0.020318843
0.020359726
0.020378567
0.020360977
0.020377916
0.020449547
0.020611166
0.020898693
0.021183641
0.021067459
0.020777625
0.020639078
0.020697002
0.020746344
0.020709405
0.020706724
0.020690388
0.020621725
0.020536498
0.020494077
0.020470626
0.020455527
0.020474748
0.020515913
0.020541555
0.020511277
0.02039797
0.020176553
0.019977377
0.019861811
0.019849477
0.16918898
0.020331269
0.02040456
0.020405668
0.020405579
0.02040555
0.020405537
0.020405531
0.02040553
0.020405529
0.020405529
0.020405529
0.020405529
0.020405529
0.020405529
0.02040553
0.020405541
0.020405618
0.02040586
0.020406401
0.020407103
0.020406563
0.020402346
0.020399156
0.020399348
0.020402964
0.020405926
0.020407541
0.020408618
0.02041271
0.020433948
0.020456284
0.020417956
0.020333444
0.020317214
0.020358064
0.020378778
0.020361568
0.020376373
0.020444891
0.020601601
0.020885759
0.021188527
0.021088933
0.020802346
0.020648164
0.020698448
0.020757144
0.0207201
0.020715652
0.02070195
0.020636993
0.020551606
0.020506422
0.02048177
0.020464216
0.020480176
0.020520231
0.020550322
0.020526714
0.020425278
0.020213175
0.020011124
0.019890189
0.019868544
0.17441631
0.020326998
0.020404449
0.020405667
0.02040558
0.02040555
0.020405537
0.02040553
0.020405529
0.020405529
0.020405529
0.020405529
0.020405529
0.02040553
0.020405529
0.02040553
0.020405541
0.020405612
0.020405847
0.020406387
0.020407135
0.020406752
0.020402726
0.020399231
0.020399181
0.020402745
0.020405901
0.02040761
0.02040893
0.020412191
0.02043321
0.020457585
0.020423613
0.02033637
0.020315776
0.020356207
0.020378818
0.02036227
0.020375014
0.020440348
0.020591895
0.020872251
0.021191293
0.021109928
0.020828729
0.02065826
0.020700392
0.020767001
0.020730919
0.020724549
0.020713297
0.020652207
0.020567156
0.020518986
0.020493088
0.020474184
0.020487287
0.020524816
0.020557448
0.020539225
0.020448757
0.020246454
0.020041814
0.019915774
0.019884796
0.17976327
0.020322556
0.020404329
0.020405667
0.02040558
0.02040555
0.020405537
0.020405531
0.020405529
0.020405529
0.020405529
0.020405529
0.020405529
0.020405529
0.020405529
0.020405529
0.02040554
0.020405606
0.020405835
0.020406371
0.020407161
0.020406938
0.020403134
0.020399297
0.020399018
0.02040253
0.020405862
0.020407683
0.020409199
0.020411757
0.020432406
0.02045863
0.020429337
0.020339749
0.020314548
0.020354157
0.020378695
0.02036309
0.020373847
0.020435902
0.020582059
0.02085826
0.021192082
0.021130254
0.020856781
0.020669128
0.020702769
0.020775854
0.020741844
0.020733415
0.020724584
0.020667366
0.020583087
0.020532019
0.020504411
0.020484438
0.020495779
0.02053091
0.020564961
0.020550715
0.020469964
0.020277494
0.020070233
0.019938845
0.18522844
0.02031794
0.020404202
0.020405667
0.020405581
0.02040555
0.020405537
0.020405532
0.020405529
0.020405529
0.020405529
0.020405529
0.020405529
0.020405529
0.02040553
0.02040553
0.020405539
0.020405601
0.020405823
0.020406354
0.020407181
0.020407123
0.020403567
0.020399355
0.020398869
0.020402331
0.020405819
0.020407767
0.020409438
0.020411391
0.020431536
0.02045941
0.020435109
0.020343615
0.020313516
0.020351932
0.020378337
0.020364038
0.02037286
0.020431523
0.020572147
0.020843832
0.021191893
0.021149695
0.020886476
0.020680661
0.020705668
0.020783853
0.020752943
0.020742283
0.020735929
0.020682469
0.020599301
0.02054563
0.020516059
0.020494546
0.020504648
0.020538203
0.020573824
0.020562844
0.020490779
0.020308013
0.020098071
0.19081001
0.020313149
0.020404063
0.020405667
0.020405581
0.02040555
0.020405537
0.020405531
0.02040553
0.020405529
0.020405529
0.020405529
0.020405529
0.020405529
0.020405529
0.020405529
0.020405538
0.020405596
0.020405809
0.020406335
0.020407193
0.020407308
0.020404025
0.0203994
0.02039874
0.020402144
0.020405774
0.020407858
0.020409671
0.020411064
0.020430606
0.020459942
0.02044088
0.020347972
0.020312646
0.020349538
0.020377805
0.020365123
0.020372037
0.020427194
0.020562228
0.020829006
0.021190373
0.021168137
0.020917644
0.020692939
0.020709313
0.020791251
0.020764311
0.020751243
0.020747367
0.020697474
0.020615741
0.020559799
0.020528261
0.020504693
0.020513362
0.020545726
0.020583558
0.020575963
0.020512391
0.020339527
0.020127111
0.19650587
0.020308183
0.020403916
0.020405666
0.020405582
0.020405551
0.020405537
0.020405532
0.02040553
0.020405529
0.020405529
0.020405529
0.020405529
0.020405529
0.020405529
0.02040553
0.020405537
0.020405591
0.020405796
0.020406313
0.020407199
0.020407489
0.020404501
0.020399448
0.020398634
0.020401954
0.02040571
0.020407937
0.020409896
0.020410794
0.020429623
0.020460244
0.020446576
0.020352826
0.020311904
0.020346973
0.02037713
0.020366371
0.020371352
0.020422922
0.020552344
0.020813837
0.021187029
0.0211865
0.020949529
0.020706071
0.020714054
0.020798255
0.020775957
0.020760474
0.020758828
0.020712345
0.020632423
0.020574501
0.020540983
0.020515166
0.020522122
0.020552987
0.020593173
0.020589391
0.020534772
0.020372478
0.20231353
0.020303043
0.020403757
0.020405666
0.020405583
0.02040555
0.020405537
0.020405531
0.020405529
0.020405529
0.020405529
0.020405529
0.020405529
0.020405529
0.020405529
0.02040553
0.020405535
0.020405586
0.020405782
0.020406291
0.020407198
0.020407656
0.020404981
0.020399517
0.020398547
0.020401745
0.020405615
0.020407984
0.020410094
0.020410622
0.020428583
0.020460341
0.020452103
0.020358187
0.020311292
0.020344245
0.020376349
0.020367799
0.020370795
0.020418734
0.020542569
0.020798392
0.021180113
0.021207542
0.020980792
0.020720056
0.020720094
0.02080504
0.020787747
0.020770147
0.020770206
0.02072709
0.020649372
0.020589715
0.020554089
0.020526016
0.020531325
0.020560136
0.020602048
0.020602431
0.02055701
0.020406146
0.20823013
0.020297726
0.020403587
0.020405667
0.020405583
0.020405551
0.020405537
0.020405532
0.02040553
0.020405529
0.020405529
0.020405529
0.020405529
0.020405529
0.02040553
0.020405529
0.020405535
0.020405581
0.02040577
0.020406266
0.020407191
0.020407806
0.020405461
0.020399625
0.020398475
0.020401512
0.020405488
0.020407989
0.020410264
0.020410536
0.020427522
0.020460243
0.020457368
0.020364076
0.020310902
0.020341378
0.020375464
0.020369401
0.020370325
0.020414686
0.020532967
0.020782784
0.021167943
0.021232172
0.021011412
0.020735101
0.020727038
0.020811751
0.020799453
0.020780311
0.020781399
0.020741794
0.020666599
0.020605404
0.020567509
0.020537207
0.020541146
0.02056757
0.020610109
0.21425238
0.020292239
0.020403405
0.020405666
0.020405584
0.020405551
0.020405538
0.020405532
0.02040553
0.020405529
0.020405529
0.020405529
0.020405529
0.020405529
0.020405529
0.020405529
0.020405533
0.020405577
0.020405756
0.020406242
0.020407179
0.020407936
0.020405917
0.020399796
0.02039842
0.020401259
0.020405342
0.020407958
0.020410416
0.020410517
0.020426462
0.020459864
0.020462411
0.02037045
0.020310801
0.020338438
0.020374446
0.020371129
0.020369848
0.020410883
0.020523621
0.020767091
0.021152026
0.021258315
0.021041873
0.020751561
0.020734503
0.020818177
0.020810778
0.020790873
0.020792491
0.020756471
0.020684055
0.020621513
0.020581233
0.020548801
0.020551442
0.020575432
0.020617595
0.22037665
0.020286581
0.020403213
0.020405666
0.020405584
0.020405552
0.020405537
0.020405532
0.020405529
0.020405529
0.020405529
0.020405529
0.020405529
0.020405529
0.020405529
0.020405529
0.020405533
0.020405573
0.020405743
0.020406215
0.02040716
0.020408048
0.020406338
0.020400036
0.020398383
0.020400997
0.020405196
0.020407912
0.020410562
0.020410578
0.020425416
0.020459174
0.020467145
0.020377403
0.020310992
0.020335469
0.020373274
0.020372902
0.020369448
0.020407272
0.020514601
0.020751352
0.021134444
0.0212834
0.021072411
0.020769777
0.02074215
0.020824114
0.020821479
0.020801837
0.020803551
0.020771091
0.020701712
0.020638018
0.020595314
0.020561019
0.020561926
0.020583654
0.020624834
0.22659885
0.020280757
0.020403008
0.020405665
0.020405585
0.020405552
0.020405538
0.020405532
0.02040553
0.020405529
0.020405529
0.020405529
0.020405528
0.020405529
0.02040553
0.020405529
0.020405533
0.020405568
0.020405731
0.020406189
0.020407137
0.020408143
0.020406722
0.020400359
0.020398365
0.020400729
0.020405062
0.020407873
0.020410708
0.020410722
0.020424387
0.020458266
0.020471387
0.020384968
0.02031176
0.020332479
0.020371888
0.020374726
0.020369139
0.020403797
0.020505938
0.02073565
0.021116229
0.021306062
0.02110294
0.02079016
0.020749572
0.020829464
0.02083165
0.020813201
0.020814671
0.020785698
0.020719554
0.020654909
0.020609788
0.020574113
0.020572284
0.020592164
0.2329145
0.020274768
0.020402789
0.020405665
0.020405586
0.020405551
0.020405538
0.020405532
0.02040553
0.020405529
0.020405529
0.020405529
0.020405529
0.020405529
0.020405529
0.020405529
0.020405533
0.020405565
0.020405718
0.020406162
0.020407109
0.02040822
0.020407082
0.020400754
0.020398355
0.020400457
0.020404933
0.020407851
0.020410857
0.020410955
0.020423366
0.020457159
0.020475137
0.020393096
0.020312992
0.020329435
0.02037033
0.02037658
0.020368774
0.020400441
0.020497648
0.020720045
0.021097463
0.021326101
0.021133249
0.020813037
0.0207566
0.020834079
0.020841832
0.020824942
0.020826011
0.020800367
0.020737546
0.020672169
0.020624694
0.23931869
0.020268621
0.020402559
0.020405666
0.020405586
0.020405552
0.020405538
0.020405532
0.02040553
0.020405529
0.020405529
0.020405529
0.020405529
0.020405529
0.020405529
0.020405529
0.020405532
0.02040556
0.020405706
0.020406135
0.020407078
0.02040828
0.020407426
0.020401206
0.020398352
0.020400176
0.020404791
0.020407828
0.020410998
0.020411273
0.020422335
0.020455864
0.020478411
0.020401753
0.02031469
0.020326308
0.02036863
0.02037833
0.020368384
0.020397216
0.020489742
0.020704587
0.021077962
0.021343591
0.02116316
0.020838476
0.020763453
0.020837792
0.020852444
0.020837166
0.020837662
0.020815086
0.020755598
0.020689746
0.020640064
0.24580608
0.02026232
0.020402315
0.020405665
0.020405585
0.020405552
0.020405538
0.020405532
0.020405529
0.020405529
0.020405529
0.020405529
0.020405529
0.020405528
0.02040553
0.020405529
0.020405531
0.020405558
0.020405693
0.020406107
0.020407043
0.020408326
0.020407748
0.020401724
0.020398355
0.020399885
0.020404616
0.020407785
0.020411114
0.020411666
0.020421273
0.020454409
0.020481258
0.020410808
0.020316889
0.02032314
0.020366694
0.020379947
0.020368022
0.020394196
0.020482229
0.020689302
0.021057676
0.021358484
0.021192483
0.020866372
0.020770637
0.020840403
0.020863826
0.020849884
0.020849547
0.020829735
0.02077361
0.020707626
0.020655956
0.25237093
0.020255871
0.020402056
0.020405665
0.020405586
0.020405552
0.020405538
0.020405532
0.02040553
0.020405529
0.020405529
0.020405529
0.020405529
0.020405529
0.020405529
0.020405529
0.020405531
0.020405554
0.020405682
0.02040608
0.020407004
0.020408356
0.02040805
0.020402301
0.020398363
0.020399589
0.020404396
0.020407718
0.020411193
0.020412128
0.02042017
0.020452819
0.020483712
0.020420094
0.020319666
0.020319991
0.020364504
0.02038136
0.020367828
0.020391474
0.020475156
0.020674198
0.021036704
0.021370759
0.021221077
0.02089635
0.020778799
0.020842064
0.020876019
0.020862982
0.020861497
0.020844109
0.020791509
0.02072581
0.020672407
0.25900703
0.020249283
0.020401784
0.020405665
0.020405586
0.020405553
0.020405538
0.020405532
0.02040553
0.020405529
0.020405529
0.020405529
0.020405529
0.020405529
0.020405529