/*--------------------------------*- C++ -*----------------------------------*\
| =========                 |                                                 |
| \\      /  F ield         | OpenFOAM: The Open Source CFD Toolbox           |
|  \\    /   O peration     | Version:  2506                                  |
|   \\  /    A nd           | Website:  www.openfoam.com                      |
|    \\/     M anipulation  |                                                 |
\*---------------------------------------------------------------------------*/
FoamFile
{
    version     2.0;
    format      ascii;
    arch        "LSB;label=32;scalar=64";
    class       surfaceScalarField;
    location    "0.0105";
    object      phi;
}
// * * * * * * * * * * * * * * * * * * * * * * * * * * * * * * * * * * * * * //

dimensions      [1 0 -1 0 0 0 0];

oriented        oriented;

internalField   nonuniform List<scalar> 
27010
(
0.21235888
-53.692268
53.708711
0.19594544
-49.621074
49.63599
0.18223241
-45.687375
45.701237
0.16863035
-42.099633
42.112188
0.1565395
-38.785687
38.797233
0.14555861
-35.737593
35.748239
0.1355967
-32.933242
32.94305
0.126497
-30.351227
30.360262
0.11814028
-27.972766
27.981101
0.11044931
-25.781144
25.788827
0.10336494
-23.761375
23.768457
0.096837243
-21.899881
21.906408
0.090820573
-20.184218
20.190227
0.085206448
-18.60289
18.608429
0.079801351
-17.145201
17.150307
0.074266951
-15.800808
15.805509
0.068167744
-14.559421
14.563762
0.061596889
-13.412125
13.416196
0.056218304
-12.356823
12.360798
0.055209679
-11.412758
11.416775
0.055412363
-10.55738
10.560986
0.054059569
-9.7713901
9.7747269
0.051262718
-9.0348354
9.0379633
0.048805559
-8.3435243
8.3463629
0.0467866
-7.7066174
7.7091791
0.044500449
-7.1181111
7.1203509
0.041987992
-6.5644466
6.5662325
0.03945397
-6.0364242
6.0377799
0.037426422
-5.5517882
5.553501
0.035786072
-5.1253472
5.1271386
0.034198616
-4.7323194
4.7339324
0.032649637
-4.3648145
4.3662755
0.031228249
-4.0266214
4.02802
0.029878709
-3.7162552
3.7175596
0.028593173
-3.4285895
3.4298262
0.027336461
-3.1626282
3.1637972
0.026139313
-2.9185232
2.9196383
0.025065196
-2.6926473
2.6937144
0.024045913
-2.4838365
2.4848806
0.023045191
-2.2917992
2.2927995
0.02206031
-2.1153569
2.1163159
0.021097048
-1.9530096
1.9539423
0.020191635
-1.8033823
1.8042719
-1.6651656
1.6660607
0.2205862
-53.675132
0.20346171
-49.605484
0.18915953
-45.673012
0.17496701
-42.086506
0.16234507
-38.773629
0.15088103
-35.726476
0.14047672
-32.922997
0.13096857
-30.341785
0.12223966
-27.96406
0.11420754
-25.773118
0.10680935
-23.753978
0.099991818
-21.893064
0.093703204
-20.177936
0.087839047
-18.597101
0.082202141
-17.139868
0.07644161
-15.795898
0.070109096
-14.554889
0.063293306
-13.407879
0.057694181
-12.35269
0.056572798
-11.40858
0.056723815
-10.553627
0.055294481
-9.7679115
0.052396841
-9.0315941
0.049822378
-8.3405627
0.047703753
-7.7039376
0.045327479
-7.115768
0.042727122
-6.56257
0.040101542
-6.0350008
0.037984331
-5.5500204
0.036275099
-5.1234736
0.034626967
-4.7306367
0.03302424
-4.3633033
0.031554903
-4.0251778
0.030157447
-3.7149022
0.028824871
-3.4273051
0.027524664
-3.1614169
0.026287213
-2.9173683
0.025168135
-2.6915357
0.02411561
-2.4827603
0.023085157
-2.290771
0.022073275
-2.1143717
0.021084277
-1.9520514
0.020154105
-1.802468
-1.6642498
0.22916998
-53.657408
0.21132242
-49.589109
0.1963732
-45.658241
0.18156556
-42.07279
0.16839378
-38.761041
0.15643001
-35.714872
0.14556906
-32.912301
0.13564225
-30.331925
0.12652991
-27.954971
0.1181443
-25.76474
0.11042025
-23.746257
0.10330243
-21.885947
0.096737286
-20.171378
0.090617012
-18.591059
0.084739344
-17.134301
0.078744231
-15.790772
0.07217061
-14.550157
0.065100701
-13.403452
0.059270684
-12.348388
0.058027433
-11.404232
0.058124812
-10.549721
0.056618812
-9.7642879
0.053602612
-9.0282219
0.050911759
-8.3374794
0.048699478
-7.7011445
0.046230708
-7.1133181
0.043539565
-6.560599
0.040818709
-6.0335048
0.038607533
-5.5481943
0.036826349
-5.121516
0.035115733
-4.728883
0.033450987
-4.3617337
0.03192499
-4.0236798
0.03047654
-3.7134973
0.029096868
-3.425973
0.027752252
-3.1601628
0.026474263
-2.9161734
0.025318186
-2.6903877
0.024232097
-2.4816519
0.023170571
-2.2897138
0.022130657
-2.1133594
0.021114961
-1.9510668
0.020159116
-1.8015279
0.019230828
-1.6633131
-1.5359377
0.23809027
-53.638968
0.21949294
-49.572135
0.20390154
-45.642975
0.18845271
-42.058472
0.17470922
-38.747901
0.16222591
-35.702762
0.15089119
-32.901137
0.14053019
-30.321634
0.13101895
-27.945484
0.12226617
-25.755995
0.1142037
-23.738196
0.10677387
-21.878518
0.0999216
-20.164533
0.093535358
-18.584751
0.087407468
-17.12849
0.081168681
-15.78542
0.074344253
-14.54522
0.06701045
-13.398837
0.060941412
-12.343911
0.05957381
-11.39971
0.059615497
-10.545656
0.058028339
-9.7605124
0.054888348
-9.0247141
0.052076802
-8.3342702
0.049767386
-7.6982338
0.047202715
-7.1107578
0.044416219
-6.5585289
0.041596826
-6.0319323
0.039288522
-5.5463128
0.037432519
-5.1194733
0.035656915
-4.7270563
0.033927698
-4.3601033
0.032342571
-4.0221246
0.030841159
-3.7120382
0.029412542
-3.4245912
0.028021581
-3.158864
0.026701201
-2.9149364
0.025506711
-2.6892016
0.024385492
-2.4805098
0.02329146
-2.2886263
0.022222303
-2.1123188
0.021178833
-1.9500548
0.020196232
-1.800561
0.019245973
-1.6623546
-1.5350084
0.247405
-53.619545
0.22800313
-49.554323
0.21175393
-45.627308
0.19564176
-42.043525
0.18130389
-38.734187
0.1682795
-35.690123
0.15645161
-32.889487
0.14563984
-30.310894
0.13571398
-27.935583
0.12657973
-25.746868
0.11816586
-23.729785
0.11041219
-21.870765
0.10326143
-20.157389
0.096599031
-18.578168
0.090211563
-17.122425
0.083720611
-15.779836
0.076637268
-14.540069
0.069029923
-13.394026
0.062710365
-12.339251
0.061208441
-11.395004
0.061191792
-10.541424
0.059522844
-9.7565804
0.056255402
-9.021067
0.053318441
-8.3309309
0.05090826
-7.6952009
0.048244212
-7.1080813
0.045360282
-6.5563561
0.042438898
-6.030279
0.040028932
-5.5443732
0.038094671
-5.1173428
0.036251545
-4.7251543
0.034455553
-4.3584092
0.032809243
-4.0205097
0.031252915
-3.7105228
0.02977363
-3.423158
0.028334738
-3.1575189
0.026970522
-2.913656
0.02573628
-2.6879763
0.024578605
-2.4793331
0.023451002
-2.2875074
0.022351866
-2.1112495
0.021279949
-1.9490146
0.020269924
-1.7995664
0.019297127
-1.6613739
-1.5340595
0.25714322
-53.598882
0.2368788
-49.536097
0.21994209
-45.610838
0.20314313
-42.027929
0.18818776
-38.71988
0.1746013
-35.676935
0.16226063
-32.877331
0.15097974
-30.299688
0.14062295
-27.925253
0.13109253
-25.737346
0.12231369
-23.721008
0.11422397
-21.862676
0.10676226
-20.149935
0.099812749
-18.571299
0.093155449
-17.116097
0.086402179
-15.77401
0.07904925
-14.534695
0.071157719
-13.389013
0.064578447
-12.334403
0.062939247
-11.390111
0.062861851
-10.537019
0.061106228
-9.7524846
0.057705647
-9.0172758
0.054638291
-8.327457
0.052123782
-7.692041
0.049355918
-7.1052829
0.046370029
-6.5540748
0.043342887
-6.0285418
0.040827882
-5.5423729
0.038812333
-5.1151221
0.036898856
-4.7231735
0.035033262
-4.3566486
0.033323255
-4.0188325
0.031709923
-3.708949
0.030177806
-3.421671
0.028688742
-3.1561255
0.027278759
-2.9123304
0.026003268
-2.6867104
0.024807541
-2.4781203
0.023644823
-2.286356
0.022514235
-2.11015
0.021412554
-1.947945
0.020373998
-1.7985429
0.019377587
-1.6603702
-1.5330893
0.26729728
-53.577453
0.24617495
-49.517132
0.22848103
-45.593062
0.21097178
-42.011678
0.19537406
-38.70495
0.18120311
-35.663176
0.1683295
-32.864649
0.15656034
-30.287995
0.14575586
-27.914475
0.13581342
-25.727412
0.12665458
-23.711852
0.11821501
-21.854237
0.11043032
-20.142157
0.10318238
-18.564134
0.096244954
-17.109495
0.089219827
-15.767931
0.081588512
-14.52909
0.073402443
-13.383788
0.066551071
-12.329362
0.064762952
-11.38502
0.064621659
-10.532434
0.062778558
-9.7482201
0.059240969
-9.0133368
0.056038091
-8.323844
0.053414979
-7.6887482
0.050540044
-7.1023587
0.04744939
-6.5516794
0.04431299
-6.0267186
0.041687813
-5.5403075
0.039587088
-5.1128107
0.037600536
-4.7211101
0.035662862
-4.3548186
0.033886763
-4.0170904
0.032214253
-3.7073143
0.030627407
-3.4201283
0.029086381
-3.1546819
0.027628846
-2.9109581
0.026310468
-2.6854025
0.025075291
-2.4768702
0.023876312
-2.2851707
0.022713434
-2.1090194
0.021581245
-1.9468452
0.020513432
-1.7974898
0.019492534
-1.6593428
-1.532097
0.27788237
-53.55538
0.2558808
-49.497167
0.23739015
-45.574298
0.21914159
-41.994737
0.20287587
-38.689374
0.18809677
-35.648823
0.17466872
-32.85142
0.16239242
-30.275797
0.15112201
-27.903233
0.14075045
-25.717049
0.13119639
-23.7023
0.12239257
-21.845434
0.11427218
-20.134043
0.10671374
-18.556658
0.099484694
-17.102607
0.092176693
-15.76159
0.084255369
-14.523245
0.075762967
-13.378343
0.06862894
-12.324117
0.066688557
-11.379728
0.066480687
-10.527662
0.064545021
-9.7437793
0.060864087
-9.0092445
0.057519905
-8.3200862
0.054784353
-7.6853169
0.051797888
-7.0993036
0.048597431
-6.5491642
0.045347446
-6.0248068
0.04260835
-5.5381733
0.04041884
-5.1104041
0.038356034
-4.7189593
0.03634327
-4.3529163
0.034498379
-4.0152806
0.032764296
-3.7056161
0.031120223
-3.4185273
0.029524952
-3.1531861
0.028017879
-2.9095372
0.02665491
-2.6840512
0.025378466
-2.4755811
0.024141442
-2.2839498
0.022944704
-2.1078564
0.021780613
-1.9457138
0.020682309
-1.7964058
0.01963575
-1.6582906
0.018633031
-1.531081
-1.4140986
0.28890748
-53.532209
0.26597664
-49.476047
0.24668915
-45.554967
0.22766839
-41.97707
0.21070746
-38.673124
0.19529555
-35.633852
0.18129078
-32.83762
0.16848632
-30.263074
0.15673092
-27.891507
0.14591278
-25.70624
0.13594737
-23.692337
0.12676428
-21.836251
0.11829485
-20.125581
0.11041323
-18.548861
0.10288121
-17.095424
0.095279998
-15.754976
0.087058823
-14.51715
0.078248933
-13.37267
0.070819105
-12.318656
0.068713331
-11.374224
0.068435064
-10.522695
0.066405597
-9.739157
0.062577087
-9.0049942
0.059086168
-8.3161778
0.056233295
-7.6817411
0.053131458
-7.0961124
0.049818005
-6.5465213
0.04645097
-6.0228029
0.043592558
-5.5359691
0.041309748
-5.1078957
0.039167738
-4.7167174
0.037077091
-4.350939
0.035160718
-4.0134005
0.033362719
-3.7038514
0.031659219
-3.4168657
0.030007835
-3.1516361
0.02844924
-2.9080661
0.027039973
-2.6826551
0.02572073
-2.4742517
0.024444309
-2.2826918
0.023212627
-2.1066598
0.022015759
-1.9445496
0.020886241
-1.7952902
0.019813025
-1.6572128
0.018784545
-1.5300402
-1.4130546
0.30036933
-53.508143
0.27648306
-49.45401
0.25639422
-45.535278
0.23656802
-41.95863
0.2188835
-38.656176
0.20281302
-35.61824
0.18820775
-32.823227
0.1748537
-30.249806
0.16259326
-27.879276
0.15131016
-25.694966
0.14091646
-23.681947
0.13133865
-21.826674
0.12250567
-20.116755
0.11428751
-18.540728
0.10644016
-17.087931
0.098533442
-15.748078
0.089999909
-14.510793
0.080859516
-13.366759
0.073122023
-12.312973
0.07084663
-11.368503
0.070495218
-10.517525
0.068366482
-9.7343446
0.064383328
-9.0005788
0.060739347
-8.3121119
0.057764868
-7.6780158
0.054543073
-7.0927799
0.051110649
-6.5437412
0.047621835
-6.0207017
0.044640161
-5.533695
0.042260083
-5.1052797
0.040035491
-4.714382
0.037863587
-4.3488837
0.035872608
-4.0114471
0.0340081
-3.7020169
0.032242576
-3.4151412
0.030532615
-3.1500296
0.028920107
-2.9065424
0.027462425
-2.6812116
0.026098509
-2.4728801
0.024780853
-2.281395
0.02351247
-2.1054281
0.02228145
-1.9433515
0.021119425
-1.7941419
0.020017998
-1.6561082
0.018962395
-1.5289731
-1.4119846
0.31237121
-53.483309
0.28745334
-49.431209
0.26652219
-45.514927
0.24585803
-41.939381
0.22741985
-38.638501
0.21066348
-35.601959
0.19543282
-32.808217
0.18150652
-30.235968
0.16871996
-27.866519
0.15695269
-25.683209
0.14611294
-23.67111
0.13612411
-21.816686
0.12691235
-20.10755
0.11834423
-18.532247
0.11016868
-17.080117
0.10194512
-15.740884
0.093088525
-14.504166
0.083605838
-13.360601
0.075546237
-12.307059
0.073086681
-11.362553
0.072657054
-10.512144
0.070427654
-9.7293367
0.066285422
-8.9959921
0.062482257
-8.3078819
0.059381162
-7.6741347
0.056034977
-7.0892984
0.052480049
-6.5408219
0.048865858
-6.0184977
0.045754798
-5.53135
0.043272785
-5.1025549
0.040962267
-4.7119488
0.03870585
-4.3467479
0.036637315
-4.009418
0.034703648
-3.7001098
0.03287371
-3.4133517
0.031103028
-3.1483643
0.029434654
-2.9049646
0.027926858
-2.6797192
0.026516542
-2.4714645
0.025155936
-2.2800573
0.023849511
-2.1041596
0.022583385
-1.9421182
0.021388145
-1.7929604
0.020257479
-1.6549758
0.019173509
-1.5278784
-1.4108885
0.32491539
-53.457501
0.29894626
-49.407928
0.27708491
-45.493279
0.25555575
-41.919323
0.23633281
-38.620072
0.21886206
-35.584978
0.2029803
-32.792563
0.18845767
-30.221537
0.17512303
-27.853216
0.16285134
-25.670947
0.15154695
-23.659808
0.14112995
-21.80627
0.13152352
-20.09795
0.12259067
-18.523401
0.11407348
-17.071968
0.10551983
-15.733382
0.096326403
-14.497256
0.086486926
-13.354183
0.078092263
-12.300906
0.075442963
-11.356368
0.074932694
-10.506544
0.072596782
-9.7241239
0.068287572
-8.9912248
0.064318254
-8.3034805
0.061085616
-7.6700913
0.057610167
-7.0856577
0.053926327
-6.5377362
0.050181467
-6.0161833
0.046936652
-5.528934
0.04434816
-5.0997209
0.041948307
-4.7094111
0.039603699
-4.3445287
0.037453999
-4.0073099
0.03544831
-3.6981268
0.033551055
-3.4114945
0.031716873
-3.1466374
0.029990052
-2.9033303
0.028429887
-2.6781757
0.026971061
-2.4700025
0.02556545
-2.2786763
0.024219152
-2.1028526
0.022916493
-1.9408485
0.021686538
-1.7917442
0.020524691
-1.6538138
0.019411029
-1.5267545
0.018325778
-1.409766
-1.3014416
0.3379768
-53.430495
0.310942
-49.383545
0.2881094
-45.470186
0.26568059
-41.89842
0.24563999
-38.600855
0.22742496
-35.567267
0.21086474
-32.776239
0.19572039
-30.206487
0.18181477
-27.839344
0.16901744
-25.65816
0.15722874
-23.648023
0.14636556
-21.795408
0.13634809
-20.087939
0.12703523
-18.514177
0.11816244
-17.06347
0.10926608
-15.725559
0.099724328
-14.490052
0.089515378
-13.347498
0.080769957
-12.294504
0.077915264
-11.349936
0.077317698
-10.500715
0.07487339
-9.7186999
0.070392694
-8.986269
0.066250721
-8.2989006
0.062880682
-7.6658773
0.059271263
-7.0818504
0.055453913
-6.5345125
0.051575039
-6.0137562
0.048190359
-5.5264461
0.045489467
-5.0967753
0.042996564
-4.7067634
0.04056038
-4.3422235
0.038326421
-4.0051204
0.036245853
-3.6960652
0.034278532
-3.4095672
0.032378456
-3.1448465
0.030591069
-2.9016374
0.028976379
-2.676579
0.027467038
-2.4684918
0.026014719
-2.2772501
0.024627098
-2.1015054
0.023286803
-1.9395413
0.022021358
-1.7904928
0.020827333
-1.6526215
0.019682834
-1.5256003
0.018571062
-1.4086168
-1.3003603
0.35162439
-53.401912
0.32344618
-49.357855
0.29962578
-45.446169
0.27625169
-41.876629
0.25535908
-38.580815
0.23636827
-35.548796
0.21910123
-32.759215
0.20330899
-30.190791
0.18880815
-27.824878
0.17546299
-25.644826
0.16316973
-23.635733
0.15184142
-21.784081
0.1413954
-20.077499
0.13168664
-18.504558
0.12244329
-17.054608
0.11318971
-15.717401
0.10328456
-14.48254
0.092690466
-13.340531
0.08357966
-12.287841
0.080512187
-11.343248
0.079825577
-10.494649
0.077266943
-9.7130543
0.072605678
-8.9811131
0.068283261
-8.2941333
0.064770608
-7.6614851
0.061021325
-7.0778758
0.057063243
-6.5311477
0.053045486
-6.011216
0.049515424
-5.5238838
0.046697353
-5.0937191
0.044107692
-4.7039976
0.04157591
-4.3398295
0.039253911
-4.002846
0.037095279
-3.6939219
0.035054771
-3.407567
0.033085919
-3.142989
0.031235112
-2.8998835
0.029563433
-2.6749261
0.028001324
-2.4669296
0.026500076
-2.2757764
0.025069081
-2.1001161
0.023689579
-1.938195
0.022386985
-1.7892044
0.021158558
-1.6513964
0.019981685
-1.5244141
0.018842534
-1.4074405
-1.2992568
0.36585474
-53.372028
0.33648971
-49.331052
0.31164974
-45.42143
0.28729083
-41.853919
0.26551001
-38.559917
0.24571049
-35.529538
0.22770576
-32.741462
0.21123839
-30.174424
0.1961172
-27.809793
0.18220081
-25.63092
0.16938136
-23.622916
0.15756834
-21.772269
0.14667546
-20.066613
0.13655401
-18.494527
0.12692479
-17.045366
0.11730019
-15.708893
0.10701901
-14.474709
0.09602607
-13.333273
0.08653321
-12.280907
0.08323628
-11.336294
0.082451644
-10.488334
0.079775914
-9.7071787
0.074929805
-8.9757481
0.070420064
-8.2891706
0.066758174
-7.6569062
0.062863803
-7.0737272
0.058760669
-6.5277467
0.05459971
-6.0085621
0.050918191
-5.5212412
0.047976263
-5.0905497
0.045285477
-4.7011071
0.042654188
-4.3373431
0.04024092
-4.0004842
0.038001071
-3.6916941
0.035884251
-3.4054912
0.03384399
-3.1410623
0.03192731
-2.8980657
0.030196235
-2.6732143
0.028579194
-2.4653136
0.027027128
-2.2742534
0.025551165
-2.0986832
0.024131213
-1.9368082
0.022790322
-1.7878782
0.021526333
-1.6501374
0.020316217
-1.5231948
0.019149046
-1.4062365
-1.2981298
0.38070919
-53.341055
0.35010734
-49.303009
0.32420453
-45.395596
0.29881906
-41.830242
0.27611226
-38.538127
0.25546996
-35.509456
0.23669624
-32.722949
0.21952462
-30.157358
0.20375642
-27.794062
0.1892445
-25.61642
0.17587637
-23.609552
0.16355743
-21.759951
0.1521989
-20.05526
0.14164717
-18.484066
0.13161567
-17.035729
0.12160438
-15.700022
0.11093091
-14.466544
0.099521803
-13.325709
0.089630406
-12.273692
0.086094427
-11.329063
0.085211108
-10.481762
0.082412446
-9.701062
0.077371092
-8.9701596
0.072665224
-8.2840024
0.068848151
-7.6521324
0.064802709
-7.0694105
0.060546616
-6.52427
0.056237207
-6.0057687
0.052398222
-5.5185079
0.049326924
-5.0872629
0.046530908
-4.6980932
0.043795885
-4.3347597
0.041287067
-3.9980318
0.038962371
-3.6893783
0.036765788
-3.4033371
0.034650927
-3.1390631
0.03266538
-2.896181
0.030872128
-2.6714407
0.029197703
-2.4636412
0.027592562
-2.2726791
0.026069124
-2.0972044
0.024606889
-1.9353788
0.023226104
-1.7865129
0.021924357
-1.6488423
0.020679184
-1.5219405
0.019482576
-1.405004
-1.2969782
0.39620884
-53.308966
0.36431694
-49.27361
0.33731583
-45.368876
0.31086031
-41.805548
0.28718776
-38.515409
0.26566574
-35.488512
0.24609077
-32.703645
0.22818439
-30.139561
0.21174093
-27.777655
0.19660788
-25.6013
0.18266769
-23.595615
0.1698207
-21.747105
0.15797681
-20.043422
0.14697632
-18.473157
0.13652575
-17.025679
0.12611227
-15.690771
0.11503274
-14.45803
0.10319309
-13.317828
0.092885309
-12.266184
0.089092151
-11.321543
0.088098897
-10.47492
0.085173751
-9.694694
0.079932716
-8.9643381
0.075023841
-8.2786221
0.071043802
-7.647154
0.066842951
-7.0649258
0.062436098
-6.5205452
0.057965329
-6.0027809
0.053962817
-5.51567
0.050754099
-5.0838582
0.047848077
-4.6949572
0.045005441
-4.3320749
0.042397133
-3.9954871
0.039984106
-3.6869711
0.03770449
-3.4011019
0.035512039
-3.1369886
0.033454965
-2.8942262
0.031597193
-2.6696027
0.029863203
-2.46191
0.028202656
-2.2710514
0.026629576
-2.0956775
0.0251238
-1.9339052
0.023701696
-1.7851073
0.022360606
-1.6475091
0.021079656
-1.5206503
0.019853187
-1.4037426
0.018709388
-1.2958004
-1.1966659
0.4123999
-53.275497
0.37915739
-49.242979
0.35100924
-45.341271
0.32343788
-41.779759
0.29875817
-38.491717
0.27631876
-35.466671
0.25590708
-32.683514
0.23723467
-30.121002
0.2200871
-27.760546
0.20430604
-25.585532
0.18976886
-23.581082
0.17637202
-21.733709
0.16402083
-20.031077
0.15255235
-18.461781
0.14166478
-17.015199
0.13083231
-15.681124
0.11932911
-14.449153
0.10703977
-13.309614
0.096297034
-12.258368
0.092235282
-11.313726
0.091131797
-10.467799
0.088074386
-9.6880627
0.082622343
-8.9582722
0.0775001
-8.2730201
0.07335053
-7.6419634
0.068989765
-7.0602389
0.064427214
-6.5164853
0.05978394
-5.9996106
0.055611322
-5.5127158
0.052258958
-5.080339
0.049238259
-4.691696
0.046283531
-4.3292838
0.043570899
-3.992844
0.041065773
-3.6844684
0.038699462
-3.3987826
0.036425732
-3.1348357
0.03429382
-2.8921982
0.03236839
-2.6676971
0.03057208
-2.4601175
0.02885366
-2.2693682
0.027228399
-2.0940998
0.0256771
-1.9323857
0.024211748
-1.7836595
0.022829198
-1.6461357
0.021510661
-1.5193223
0.020252336
-1.4024508
0.019079036
-1.2945947
-1.195497
0.42932057
-53.240575
0.39467854
-49.21146
0.36530771
-45.312428
0.33657818
-41.752858
0.31084741
-38.467004
0.28745107
-35.443894
0.26616552
-32.662519
0.24669391
-30.101647
0.22881198
-27.742705
0.21235487
-25.569087
0.19719463
-23.565925
0.18322445
-21.71974
0.17034344
-20.018202
0.15838681
-18.449918
0.14704371
-17.00427
0.13577512
-15.671063
0.12383301
-14.439897
0.11107872
-13.301055
0.099882115
-12.250233
0.095531599
-11.305595
0.094304741
-10.460384
0.091110383
-9.6811568
0.085442612
-8.9519557
0.080100181
-8.2671895
0.075772678
-7.636551
0.07124196
-7.0553316
0.066512261
-6.5121086
0.061700748
-5.9962883
0.057351513
-5.5096394
0.053846719
-5.076704
0.050706214
-4.6883053
0.047635172
-4.3263812
0.044813856
-3.9900984
0.042212739
-3.6818663
0.039756221
-3.3963757
0.037398126
-3.1326007
0.035188552
-2.890094
0.033192797
-2.6657211
0.031331557
-2.4582608
0.029552698
-2.267627
0.027872785
-2.0924685
0.026274582
-1.9308192
0.02476467
-1.7821683
0.023338798
-1.64472
0.021981703
-1.5179556
0.020690783
-1.4011279
0.019486601
-1.2933595
-1.1942959
0.44698898
-53.204217
0.41089063
-49.17848
0.38024348
-45.281608
0.35030682
-41.72483
0.32347978
-38.44123
0.29908502
-35.420142
0.27688875
-32.640623
0.25658237
-30.081462
0.23793376
-27.724099
0.22077094
-25.551938
0.20496035
-23.550119
0.19039104
-21.705172
0.17695778
-20.004774
0.16449178
-18.437546
0.15267346
-16.992871
0.14095033
-15.66057
0.12855057
-14.430245
0.11531032
-13.292134
0.10363899
-12.241765
0.09898618
-11.29714
0.097635893
-10.452666
0.094299084
-9.6739645
0.088403126
-8.9453764
0.08282875
-8.2611202
0.078316314
-7.6309088
0.073609073
-7.0502019
0.068703903
-6.5075312
0.063716941
-5.9928075
0.059183865
-5.5064427
0.055519108
-5.0729462
0.052253495
-4.6847791
0.049061657
-4.3233615
0.046126571
-3.9872469
0.043425088
-3.6791604
0.040874251
-3.3938772
0.038427814
-3.1302797
0.03613685
-2.8879098
0.034067417
-2.6636716
0.032138359
-2.4563373
0.030296082
-2.2658249
0.028558853
-2.0907811
0.026911707
-1.9292043
0.025354708
-1.7806311
0.023883359
-1.6432595
0.022486146
-1.5165485
0.021160441
-1.3997722
0.019923088
-1.2920924
-1.1930609
0.46543565
-53.166293
0.42781273
-49.143778
0.39585443
-45.249623
0.36465335
-41.695614
0.33668187
-38.414349
0.31124488
-35.395374
0.28809802
-32.617786
0.26692052
-30.06041
0.24747147
-27.704695
0.22957174
-25.534052
0.21308245
-23.533634
0.19788757
-21.689978
0.18387779
-19.99077
0.17088028
-18.424642
0.15856632
-16.980983
0.14637008
-15.649627
0.13349561
-14.42018
0.11975304
-13.282837
0.10758696
-12.232949
0.10260969
-11.288345
0.10112064
-10.444627
0.097635548
-9.6664737
0.091505975
-8.9385284
0.085692838
-8.2548098
0.080986286
-7.6250282
0.076095221
-7.044844
0.071006982
-6.5028193
0.065839806
-5.9891545
0.06111646
-5.503131
0.057282529
-5.0690474
0.053885932
-4.6811106
0.050568588
-4.3202184
0.047515215
-3.9842845
0.044709065
-3.6763467
0.042059815
-3.3912832
0.039521449
-3.1278685
0.03714578
-2.8856424
0.034999557
-2.6615454
0.032999899
-2.4543443
0.031091727
-2.2639596
0.029294593
-2.0890354
0.027596612
-1.9275392
0.025991046
-1.7790463
0.024472594
-1.641752
0.023033929
-1.5150999
0.021672071
-1.3983822
0.020400095
-1.290792
0.019160999
-1.191791
-1.0998524
0.48471322
-53.126699
0.44549974
-49.10763
0.41216589
-45.2167
0.3796456
-41.665148
0.35047999
-38.386304
0.32395523
-35.369546
0.2998162
-32.593969
0.27772922
-30.038453
0.25744451
-27.684456
0.23877552
-25.515397
0.22157748
-23.51644
0.20572956
-21.674131
0.19111796
-19.976163
0.17756556
-18.411184
0.16473446
-16.968585
0.1520449
-15.638214
0.13867572
-14.409684
0.12440816
-13.273145
0.11172383
-12.223772
0.10640592
-11.279199
0.10477826
-10.436259
0.10113945
-9.6586719
0.094762967
-8.9314036
0.088697814
-8.2482489
0.083788981
-7.6189013
0.078706438
-7.0392487
0.073426675
-6.4979772
0.068071702
-5.9853168
0.063150774
-5.4997046
0.05913931
-5.0649907
0.055605194
-4.677291
0.052157302
-4.3169452
0.04898008
-3.9812061
0.046064377
-3.6734183
0.043312594
-3.3885898
0.040678114
-3.1253637
0.038213713
-2.8832881
0.035986939
-2.659339
0.033913262
-2.4522788
0.031936103
-2.2620279
0.030076139
-2.0872288
0.028324942
-1.9258217
0.026668063
-1.7774111
0.02510013
-1.6401948
0.023618614
-1.5136086
0.022218617
-1.3969564
0.02090944
-1.2894553
0.019635584
-1.190484
-1.0986175
0.50485976
-53.085324
0.46398614
-49.070278
0.42921202
-45.182773
0.39531607
-41.633329
0.36490344
-38.357051
0.33724288
-35.342604
0.31206748
-32.569123
0.2890313
-30.015553
0.26787388
-27.663346
0.24840162
-25.49594
0.23046349
-23.498506
0.21393364
-21.657603
0.19869406
-19.960929
0.18456193
-18.397146
0.17119136
-16.955652
0.15798811
-15.626309
0.14410553
-14.398737
0.12929513
-13.263042
0.11607134
-12.214218
0.11038845
-11.269685
0.10860471
-10.427543
0.10480504
-9.6505456
0.098175656
-8.9239931
0.091851414
-8.2414281
0.086730205
-7.6125186
0.08144775
-7.0334064
0.075968485
-6.492942
0.070420886
-5.981284
0.065295371
-5.4961555
0.061096128
-5.0607805
0.057418133
-4.6733135
0.053834493
-4.313535
0.050528254
-3.9780055
0.047498158
-3.6703714
0.044639669
-3.3857927
0.041905136
-3.1227612
0.03934831
-2.8808429
0.037037782
-2.6570496
0.034887246
-2.4501383
0.032838073
-2.2600273
0.03091247
-2.0853589
0.029105788
-1.9240499
0.027395514
-1.7757232
0.025776652
-1.6385861
0.024250829
-1.512073
0.022810651
-1.3954925
0.021462664
-1.2880808
0.020153518
-1.1891394
-1.0973523
0.52588591
-53.042307
0.48328432
-49.031176
0.44702714
-45.146845
0.41169639
-41.600119
0.3799819
-38.326538
0.35113588
-35.314503
0.32487834
-32.543206
0.30085002
-29.991667
0.27878143
-27.641327
0.25847034
-25.475645
0.23975955
-23.4798
0.2225176
-21.640362
0.20662214
-19.945038
0.19188464
-18.382503
0.17795095
-16.942162
0.16421193
-15.613892
0.1497943
-14.387319
0.13441692
-13.252508
0.1206274
-12.20427
0.11456043
-11.259789
0.11262021
-10.418468
0.10865469
-9.6420812
0.10175846
-8.9162802
0.095160135
-8.2343321
0.08981688
-7.6058704
0.084326641
-7.0273078
0.078638729
-6.4876619
0.072889899
-5.9770424
0.067551843
-5.4924674
0.063155576
-5.056424
0.05932679
-4.669173
0.055602072
-4.3099802
0.052160513
-3.974676
0.049010584
-3.6672024
0.046041012
-3.3828867
0.04320182
-3.1200563
0.040547997
-2.8783028
0.038149553
-2.6546733
0.035918661
-2.4479195
0.033794358
-2.2579549
0.031799599
-2.0834219
0.029934479
-1.9222203
0.028168202
-1.7739797
0.026496085
-1.636923
0.024924111
-1.5104916
0.02344177
-1.3939886
0.022052555
-1.2866656
0.020705996
-1.1877552
0.019443381
-1.0960547
-1.0120297
0.54788442
-52.997625
0.50347394
-48.990362
0.46564986
-45.10909
0.42882109
-41.565504
0.39574717
-38.294703
0.3656626
-35.285187
0.3382752
-32.516173
0.3132112
-29.966749
0.29019083
-27.618358
0.26900332
-25.454474
0.24948538
-23.460287
0.2314995
-21.622377
0.21491894
-19.928462
0.19954937
-18.367228
0.18502815
-16.928091
0.17073104
-15.600938
0.15575784
-14.375409
0.13979375
-13.241527
0.12541619
-12.193909
0.1189384
-11.24949
0.1168229
-10.409015
0.11268229
-9.6332627
0.10551182
-8.9082523
0.098632229
-8.2269515
0.093056362
-7.5989466
0.087348797
-7.0209416
0.081443793
-6.4821313
0.075487959
-5.9725788
0.06992969
-5.4886234
0.065325793
-5.0519271
0.061339167
-4.6648653
0.057467531
-4.3062722
0.05388504
-3.9712121
0.050610085
-3.6639075
0.047524689
-3.3798658
0.044576556
-3.1172445
0.04182174
-2.8756637
0.0393318
-2.6522068
0.03701735
-2.4456193
0.034814539
-2.2558076
0.032747265
-2.0814145
0.030821216
-1.9203305
0.028996678
-1.772178
0.027269626
-1.6352037
0.02565012
-1.5088629
0.024123438
-1.3924424
0.022691161
-1.2852074
0.021306468
-1.1863309
0.020011849
-1.0947244
-1.0107733
0.57089692
-52.951072
0.52459329
-48.948095
0.48511782
-45.069798
0.44672552
-41.529426
0.41223225
-38.261496
0.38085398
-35.254595
0.35228575
-32.487972
0.32614071
-29.940755
0.30212586
-27.594397
0.28002309
-25.432388
0.25966201
-23.439931
0.24089915
-21.603615
0.22360257
-19.91117
0.20757316
-18.351293
0.1924384
-16.913411
0.1775592
-15.587425
0.16200718
-14.362986
0.14543074
-13.230075
0.13043582
-12.18312
0.12352458
-11.238774
0.12123137
-10.399173
0.11691212
-9.6240772
0.10945338
-8.8998921
0.10227565
-8.2192675
0.096456402
-7.5917348
0.090523365
-7.0142976
0.084391383
-6.4763538
0.078219824
-5.9678702
0.072432021
-5.484616
0.067610115
-5.0472875
0.06345767
-4.6603829
0.059432694
-4.3023957
0.055703409
-3.9676089
0.05229724
-3.6604806
0.049090919
-3.3767238
0.046029051
-3.114321
0.043168159
-2.8729206
0.040582373
-2.6496458
0.038180424
-2.443234
0.035895273
-2.2535811
0.033752019
-2.0793331
0.03176164
-1.9183769
0.029875967
-1.7703147
0.028091759
-1.6334256
0.026422098
-1.5071844
0.024848388
-1.390851
0.023371151
-1.2837041
0.021946619
-1.1848651
0.020617818
-1.0933589
-1.0094838
0.59492222
-52.902373
0.5466408
-48.903927
0.50545175
-45.028534
0.46542163
-41.491801
0.42944046
-38.226854
0.39670609
-35.222672
0.36689949
-32.458545
0.33961985
-29.91363
0.31456261
-27.569396
0.29150039
-25.409344
0.2702553
-23.418691
0.25067779
-21.584039
0.23263044
-19.893127
0.21590907
-18.334666
0.20013161
-16.898093
0.18464347
-15.573324
0.16848796
-14.350023
0.15127572
-13.218132
0.13563812
-12.171882
0.12826269
-11.227624
0.12577101
-10.388918
0.12125887
-9.6145043
0.11350126
-8.8911854
0.1060175
-8.2112671
0.099942334
-7.5842197
0.093771384
-7.007364
0.087401554
-6.470314
0.081007015
-5.962904
0.074981586
-5.48044
0.06992817
-5.0425045
0.065600796
-4.6557162
0.061417138
-4.2983484
0.057534406
-3.9638596
0.053990415
-3.6569147
0.05065775
-3.3734544
0.047477084
-3.1112801
0.044504963
-2.8700684
0.041818667
-2.6469858
0.039325207
-2.4407594
0.036953985
-2.2512713
0.034730932
-2.0771741
0.032672785
-1.9163561
0.030723184
-1.7683867
0.028879646
-1.6315863
0.027157893
-1.5054543
0.025534826
-1.3892117
0.024010391
-1.2821525
0.022544394
-1.1833561
0.021179794
-1.0919568
-1.0081596
0.62003262
-52.851476
0.56967642
-48.857768
0.52668896
-44.985442
0.48494132
-41.452548
0.44739994
-38.190701
0.41324328
-35.189355
0.38213689
-32.427833
0.35366668
-29.885319
0.32751601
-27.543304
0.30344725
-25.385293
0.28127443
-23.396524
0.26084194
-21.563608
0.24200687
-19.874297
0.22455961
-18.317312
0.20810814
-16.882106
0.19198211
-15.558607
0.1751955
-14.336495
0.15731767
-13.205672
0.14100312
-12.160173
0.13313353
-11.216025
0.13043568
-10.378232
0.12572851
-9.6045306