/*--------------------------------*- C++ -*----------------------------------*\
| =========                 |                                                 |
| \\      /  F ield         | OpenFOAM: The Open Source CFD Toolbox           |
|  \\    /   O peration     | Version:  2506                                  |
|   \\  /    A nd           | Website:  www.openfoam.com                      |
|    \\/     M anipulation  |                                                 |
\*---------------------------------------------------------------------------*/
FoamFile
{
    version     2.0;
    format      ascii;
    arch        "LSB;label=32;scalar=64";
    class       volScalarField;
    location    "1.05";
    object      alphat;
}
// * * * * * * * * * * * * * * * * * * * * * * * * * * * * * * * * * * * * * //

dimensions      [1 -1 -1 0 0 0 0];

internalField   nonuniform List<scalar> 
1375
(
0.030644295
0.03744566
0.046083162
0.056168679
0.066995422
0.077746858
0.027089564
0.031519535
0.038692001
0.047690271
0.058038588
0.068982567
0.079713071
0.089645586
0.098438987
0.10591153
0.11198349
0.11667767
0.12018343
0.12238106
0.12366159
0.1242637
0.12442073
0.1243271
0.12412275
0.027688815
0.032455515
0.040042926
0.049432685
0.060062714
0.071134821
0.081845983
0.09163682
0.10019344
0.10736382
0.11310361
0.11748532
0.12067412
0.12262504
0.1237263
0.12421207
0.12430458
0.12418339
0.12397285
0.12374464
0.12353946
0.12339981
0.12332204
0.12324162
0.12318399
0.12315168
0.12313532
0.028234091
0.033347246
0.04135307
0.051131981
0.062039456
0.07323673
0.083927133
0.093575248
0.10189392
0.10876181
0.11417339
0.11825208
0.12111965
0.12283882
0.12377124
0.12414972
0.12418456
0.12403974
0.12382415
0.12359944
0.12340755
0.12329386
0.12321648
0.12313657
0.12308732
0.12306063
0.12304812
0.12304581
0.12305094
0.12306114
0.12307538
0.12309346
0.12311492
0.12313986
0.028695456
0.034111733
0.042495511
0.052626623
0.063782931
0.075087963
0.085752312
0.095265224
0.10336606
0.10996204
0.11508194
0.11889121
0.12147524
0.12299371
0.123781
0.12406902
0.12405695
0.12389411
0.12367549
0.12345636
0.12328458
0.12319077
0.12310854
0.12303364
0.12299204
0.12297047
0.12296169
0.12296189
0.12296861
0.12298032
0.12299636
0.12301604
0.1230388
0.12306488
0.12309462
0.12312855
0.12316713
0.12321107
0.029090581
0.034730608
0.043427252
0.053854531
0.065217605
0.0766072
0.087241957
0.096634721
0.10454929
0.11091726
0.11579432
0.11937746
0.12173103
0.12308427
0.12375347
0.12396927
0.12392124
0.12374564
0.12352655
0.12331734
0.1231708
0.12308833
0.12299964
0.1229336
0.12289865
0.12288174
0.12287653
0.12287919
0.12288761
0.12290074
0.1229183
0.12293932
0.12296316
0.12299002
0.1230202
0.12305429
0.12309277
0.12313668
0.12318748
0.12324749
0.12331923
0.029466559
0.035249632
0.04420051
0.054874931
0.066408253
0.077863715
0.088468145
0.097755168
0.10550985
0.1116843
0.11635565
0.11974594
0.12191072
0.12312599
0.12369813
0.12385582
0.12377996
0.12359554
0.12337871
0.1231835
0.12306415
0.12298265
0.12289323
0.12283678
0.12280784
0.12279502
0.12279268
0.12279726
0.12280702
0.12282135
0.12284009
0.12286223
0.12288689
0.1229142
0.12294464
0.12297888
0.12301757
0.1230616
0.12311244
0.12317253
0.12324485
0.12333266
0.1234387
0.12356509
0.029863369
0.035738515
0.044911915
0.055807876
0.067492314
0.079003895
0.08957705
0.098763803
0.1063685
0.11236234
0.11684262
0.12005472
0.12205
0.12314143
0.1236282
0.12373589
0.12363659
0.1234451
0.12323277
0.12305827
0.1229607
0.1228744
0.12278982
0.12274204
0.1227181
0.12270889
0.12270925
0.12271562
0.12272655
0.12274181
0.12276123
0.1227839
0.12280902
0.12283667
0.12286732
0.12290182
0.1229407
0.12298504
0.12303666
0.12309786
0.1231718
0.12326139
0.12336849
0.12349594
0.12364923
0.12384215
0.030294105
0.036252954
0.045644137
0.056756395
0.068587309
0.080151631
0.090690192
0.099772199
0.10722124
0.11302859
0.11731349
0.12034691
0.12217444
0.12314631
0.12355282
0.12361444
0.12349362
0.12329612
0.12309158
0.12294212
0.12285784
0.12276454
0.12268937
0.12264915
0.12262948
0.1226231
0.12262531
0.12263302
0.12264479
0.12266045
0.12268016
0.12270321
0.12272868
0.12275654
0.12278754
0.12282262
0.12286265
0.12290879
0.12296264
0.12302606
0.12310118
0.12319049
0.12329744
0.1234261
0.12358191
0.12377792
0.12403242
0.12425855
0.030750991
0.036824645
0.046444218
0.057773728
0.069747976
0.081359524
0.09185523
0.1008211
0.10810079
0.11370766
0.11778564
0.12063468
0.1222907
0.1231445
0.12347413
0.12349271
0.12335216
0.12315055
0.12295733
0.12283396
0.12275176
0.12265563
0.1225909
0.12255679
0.12254052
0.12253635
0.12254001
0.12254857
0.12256082
0.1225768
0.12259668
0.12261997
0.12264596
0.12267471
0.12270706
0.12274394
0.12278654
0.12283554
0.12289155
0.12295577
0.12303059
0.1231194
0.1232262
0.12335588
0.12351419
0.12371338
0.12396713
0.12418196
0.12238322
0.031220667
0.037467884
0.047329972
0.058870845
0.07097447
0.08261728
0.093054398
0.10188913
0.10898569
0.1143806
0.11824385
0.12090711
0.12239216
0.12313207
0.12338991
0.12336934
0.12321143
0.12300827
0.1228308
0.12272974
0.12264154
0.12254832
0.122493
0.12246405
0.12245094
0.12244875
0.12245361
0.12246284
0.12247552
0.12249186
0.12251213
0.12253612
0.12256342
0.12259411
0.12262887
0.12266832
0.12271305
0.12276339
0.12282024
0.12288494
0.12295968
0.12304812
0.1231552
0.12328572
0.12344584
0.12364761
0.12390112
0.12410405
0.12219629
0.031694763
0.038184489
0.048301087
0.060037676
0.072242946
0.083888024
0.094242128
0.10292804
0.10983093
0.1150099
0.11866154
0.12114295
0.12246775
0.12310278
0.12329653
0.12324207
0.12307031
0.12286969
0.12271291
0.12262577
0.12252935
0.12244352
0.12239622
0.12237155
0.12236116
0.12236074
0.12236675
0.12237685
0.12239035
0.12240767
0.12242926
0.12245489
0.12248401
0.12251634
0.12255235
0.12259284
0.12263856
0.1226899
0.12274772
0.12281314
0.12288845
0.12297732
0.12308462
0.12321543
0.12337639
0.12358
0.12383406
0.12402441
0.12200035
0.032172319
0.03896241
0.049341521
0.061253596
0.073525753
0.085136421
0.095377434
0.10389524
0.11059661
0.11556255
0.11902019
0.12132461
0.12250975
0.12305325
0.12319261
0.12311046
0.1229296
0.12273673
0.12260306
0.12252022
0.12241689
0.12234119
0.12230046
0.12227968
0.12227203
0.1222736
0.12228119
0.12229276
0.12230776
0.12232662
0.12234956
0.12237601
0.12240558
0.12243842
0.12247505
0.12251625
0.12256274
0.12261502
0.12267382
0.12274053
0.12281716
0.12290692
0.12301421
0.12314461
0.12330564
0.12351093
0.12376575
0.12394375
0.12179462
0.032654183
0.03977191
0.050417414
0.062488504
0.074797473
0.086339872
0.096438957
0.10477052
0.11126519
0.11602643
0.11930895
0.12144853
0.12251658
0.12298345
0.12307847
0.12297504
0.12279017
0.12260923
0.12249856
0.12241136
0.12230739
0.12224187
0.12220692
0.12218998
0.12218524
0.12218907
0.1221985
0.12221147
0.12222751
0.12224706
0.12227036
0.12229717
0.12232712
0.12236017
0.12239706
0.12243865
0.12248562
0.12253882
0.12259893
0.12266726
0.12274556
0.12283649
0.1229438
0.12307363
0.12323406
0.12344042
0.12369614
0.12386232
0.12157979
0.033136523
0.040569296
0.051479529
0.063702197
0.076032674
0.087487087
0.097425653
0.10555872
0.11184436
0.11640994
0.11953258
0.12152191
0.12249261
0.1228965
0.12295615
0.12283713
0.12265287
0.1224895
0.12239649
0.12230099
0.12220233
0.1221462
0.12211651
0.12210327
0.12210132
0.12210695
0.12211728
0.12213083
0.12214754
0.12216769
0.12219142
0.12221832
0.12224804
0.12228103
0.12231811
0.12236014
0.12240784
0.12246193
0.12252338
0.12259348
0.12267359
0.12276584
0.12287352
0.12300239
0.1231619
0.12336882
0.12362529
0.12378028
0.12135669
0.033613112
0.041318523
0.05248757
0.064864613
0.077218528
0.08858316
0.098356679
0.10628708
0.11236362
0.11673951
0.11971103
0.12156071
0.12244739
0.12279798
0.12282866
0.12269851
0.12251945
0.12237755
0.12229466
0.12219034
0.1221014
0.12205321
0.12202778
0.12201723
0.12201705
0.12202388
0.1220352
0.12204964
0.12206691
0.12208745
0.12211135
0.1221383
0.1221682
0.12220147
0.12223887
0.12228138
0.12232987
0.12238503
0.12244782
0.12251943
0.12260132
0.12269485
0.12280269
0.12293107
0.12308979
0.1232964
0.12355339
0.12369768
0.12112619
0.034079759
0.042003902
0.053423585
0.06596575
0.078359664
0.089649062
0.099266288
0.10699717
0.11286498
0.1170515
0.11987254
0.12158503
0.12239277
0.12269412
0.1226989
0.12256075
0.12239069
0.12227108
0.12218909
0.12207936
0.12200184
0.12196005
0.12193827
0.1219302
0.12193173
0.12193975
0.12195195
0.1219671
0.12198505
0.12200617
0.12203055
0.12205799
0.12208834
0.12212208
0.12216012
0.1222033
0.12225243
0.12230835
0.12237214
0.122445
0.12252819
0.1226229
0.12273142
0.12285964
0.12301738
0.12322356
0.12348063
0.12361439
0.12088914
0.034538418
0.042634515
0.054296293
0.067016442
0.079473213
0.090710693
0.10018872
0.1077282
0.11338758
0.11737989
0.12004399
0.12161354
0.1223397
0.1225907
0.1225699
0.12242571
0.12226641
0.122167
0.12207833
0.12196953
0.12190281
0.12186665
0.12184826
0.12184239
0.12184543
0.12185454
0.12186765
0.12188374
0.12190268
0.12192472
0.12194992
0.12197814
0.12200937
0.122044
0.12208269
0.12212634
0.12217577
0.12223194
0.12229627
0.12236993
0.12245398
0.12254984
0.12265936
0.12278774
0.12294479
0.12315074
0.12340737
0.12353031
0.12064611
0.035000835
0.043246065
0.055142179
0.06804736
0.080584446
0.091790407
0.10114546
0.10850157
0.11395186
0.11774256
0.12024023
0.12165724
0.12229504
0.12249181
0.1224442
0.12229481
0.12214858
0.12206375
0.1219649
0.12186232
0.12180489
0.12177351
0.12175809
0.12175425
0.12175874
0.121769
0.12178324
0.12180056
0.12182083
0.12184422
0.12187064
0.12189984
0.12193181
0.12196691
0.12200599
0.12204977
0.12209914
0.12215547
0.12222008
0.12229412
0.12237882
0.12247566
0.12258631
0.12271534
0.12287225
0.12307832
0.12333403
0.12344526
0.1203972
0.035483841
0.043887794
0.056013489
0.069099753
0.081718816
0.092899321
0.10213775
0.10931348
0.11455255
0.11813491
0.12045849
0.12171544
0.1222588
0.12239822
0.12232305
0.12216974
0.12203835
0.12196013
0.121851
0.12175803
0.12170834
0.12168123
0.12166873
0.12166703
0.12167317
0.12168489
0.12170059
0.12171945
0.12174117
0.12176567
0.12179282
0.12182246
0.12185469
0.12189001
0.12192919
0.12197306
0.12202273
0.12207932
0.12214394
0.122218
0.12230297
0.12240057
0.12251235
0.12264231
0.12279983
0.12300626
0.12326072
0.12335904
0.120142
0.035998458
0.04459722
0.056951265
0.070203668
0.082888087
0.094030613
0.1031448
0.11013595
0.115161
0.11853228
0.12068011
0.12177655
0.12222424
0.12230651
0.12220537
0.12205092
0.1219352
0.12185519
0.12173936
0.12165784
0.12161474
0.12159169
0.12158224
0.1215828
0.12159066
0.12160374
0.12162051
0.12164027
0.1216627
0.12168769
0.12171513
0.121745
0.1217775
0.12181308
0.12185263
0.12189692
0.12194687
0.12200348
0.12206791
0.12214169
0.12222657
0.12232477
0.12243756
0.12256868
0.12272757
0.12293445
0.12318761
0.12327133
0.11987994
0.036544037
0.04538615
0.057970191
0.07136701
0.08408674
0.09516363
0.10413373
0.11092979
0.11573825
0.11890132
0.12087982
0.12182416
0.1221817
0.1222119
0.1220895
0.12193741
0.1218367
0.12174837
0.12163228
0.12156189
0.12152452
0.12150525
0.12149865
0.12150133
0.12151067
0.1215247
0.12154219
0.1215624
0.12158512
0.12161032
0.12163794
0.12166801
0.12170068
0.12173661
0.12177656
0.12182133
0.12187153
0.12192796
0.12199202
0.12206535
0.12215015
0.12224864
0.12236215
0.12249441
0.122655
0.12286276
0.12311439
0.12318181
0.11961016
0.037106376
0.046233727
0.059049189
0.072568231
0.085290573
0.096269678
0.10507164
0.11166037
0.11625162
0.1192138
0.1210366
0.12184435
0.122123
0.12211018
0.12197326
0.12182753
0.12174042
0.12164016
0.12152984
0.12146948
0.1214372
0.1214214
0.12141729
0.12142163
0.12143201
0.12144687
0.12146486
0.12148536
0.12150847
0.12153392
0.12156154
0.12159161
0.12162453
0.12166081
0.12170113
0.12174627
0.12179651
0.12185281
0.12191648
0.12198937
0.12207394
0.12217232
0.12228625
0.12241959
0.12258197
0.12279103
0.12304046
0.12308998
0.11933154
0.037662406
0.047097168
0.060143659
0.073768091
0.086467702
0.097323162
0.10593727
0.11230895
0.11668468
0.11946508
0.12113663
0.12183092
0.12204444
0.1219991
0.12185515
0.12172187
0.12164199
0.12153065
0.12143062
0.12137877
0.12135087
0.12133813
0.12133639
0.12134269
0.12135465
0.12137037
0.12138875
0.12140953
0.12143263
0.12145823
0.121486
0.12151606
0.12154926
0.12158595
0.12162658
0.12167166
0.1217218
0.12177798
0.12184143
0.12191403
0.12199814
0.12209606
0.12220998
0.12234426
0.12250837
0.12271854
0.12296553
0.12299529
0.11904267
0.038187844
0.047927117
0.061200667
0.074921448
0.087586585
0.098306493
0.10672418
0.11287636
0.11704341
0.11965998
0.1211849
0.1217867
0.12194772
0.12187951
0.12173571
0.12161867
0.12153977
0.12141991
0.12133347
0.12128893
0.1212652
0.12125552
0.12125613
0.12126417
0.12127735
0.12129401
0.12131324
0.12133456
0.1213578
0.12138342
0.12141152
0.12144213
0.12147548
0.12151213
0.12155265
0.12159756
0.12164762
0.12170361
0.12176686
0.1218392
0.12192265
0.12201986
0.12213372
0.12226845
0.12243373
0.12264544
0.1228896
0.12289753
0.11874292
0.08862527
0.099211988
0.10743699
0.113376
0.11734553
0.11981164
0.12119654
0.12172074
0.12183864
0.12175501
0.12161668
0.12151645
0.12143159
0.12131082
0.1212377
0.12119959
0.1211799
0.1211732
0.12117604
0.12118566
0.12119998
0.12121754
0.12123759
0.12125981
0.1212841
0.12131014
0.12133829
0.12136905
0.12140247
0.1214391
0.12147947
0.12152417
0.12157394
0.1216298
0.12169288
0.12176469
0.12184737
0.12194377
0.12205694
0.12219183
0.12235836
0.12257129
0.12281222
0.12279679
0.11843256
0.11993452
0.12118773
0.12164352
0.12172456
0.1216305
0.12150001
0.12141466
0.1213195
0.12120459
0.12114312
0.12111075
0.12109494
0.12109113
0.1210961
0.12110731
0.12112283
0.12114135
0.12116224
0.12118526
0.12121024
0.12123714
0.12126594
0.12129686
0.12133032
0.12136674
0.12140692
0.12145128
0.12150073
0.12155643
0.12161908
0.12169041
0.12177233
0.12186773
0.12197985
0.12211453
0.12228203
0.12249564
0.12273382
0.12269345
0.11811213
0.12131362
0.12120667
0.12110208
0.12105024
0.12102288
0.12101063
0.12100948
0.12101642
0.12102917
0.12104599
0.12106568
0.12108752
0.12111124
0.12113684
0.12116438
0.12119381
0.1212252
0.12125889
0.12129544
0.12133534
0.12137933
0.12142863
0.12148367
0.12154569
0.12161641
0.12169762
0.121792
0.12190281
0.1220366
0.12220448
0.12241922
0.12265475
0.12258802
0.11778221
0.12093651
0.12092743
0.12092867
0.12093742
0.12095156
0.12096951
0.12099023
0.12101308
0.12103772
0.12106408
0.12109225
0.12112229
0.12115426
0.1211884
0.12122511
0.12126488
0.12130875
0.12135712
0.12141137
0.12147302
0.121543
0.12162337
0.12171657
0.12182599
0.12195876
0.1221267
0.12234235
0.12257489
0.12248114
0.11744357
0.12087469
0.12089365
0.12091524
0.12093895
0.12096454
0.12099181
0.12102072
0.12105135
0.12108384
0.12111835
0.12115528
0.12119505
0.12123833
0.12128641
0.12134033
0.12140104
0.12147021
0.12154968
0.12164159
0.12174964
0.12188085
0.12204861
0.12226471
0.12249478
0.12237317
0.11709713
0.12089162
0.12091973
0.12094949
0.12098087
0.12101393
0.12104879
0.1210858
0.12112557
0.12116903
0.12121647
0.1212694
0.12132944
0.12139784
0.12147637
0.12156734
0.12167366
0.12180324
0.1219702
0.1221867
0.12241451
0.12226395
0.1167436
0.12091028
0.12094406
0.12097962
0.12101698
0.12105668
0.12109931
0.12114626
0.12119892
0.12125833
0.12132607
0.12140373
0.12149337
0.12159819
0.12172642
0.12189233
0.12210866
0.12233337
0.12215296
0.11638249
0.12094798
0.12098778
0.12103037
0.12107691
0.12112885
0.12118782
0.12125487
0.1213315
0.12141989
0.12152373
0.12165094
0.12181559
0.12203085
0.12225134
0.1220393
0.11601103
0.12096177
0.12100817
0.12105943
0.1211173
0.12118355
0.12125958
0.12134691
0.12144998
0.12157633
0.12173999
0.12195385
0.12216852
0.12192159
0.11562656
0.12104732
0.12111223
0.12118721
0.12127402
0.1213762
0.12150215
0.12166567
0.12187755
0.12208507
0.12179881
0.11522845
0.12111508
0.1212012
0.12130287
0.1214289
0.12159193
0.12180182
0.12200114
0.12167047
0.11481639
0.12123007
0.12135586
0.12151863
0.12172624
0.12191633
0.12153674
0.11438988
0.12128237
0.12144522
0.12165051
0.12183084
0.12139805
0.11399597
0.12157461
0.12174468
0.12125433
0.11349233
0.1216574
0.12110661
0.11304695
0.12095922
0.11271555
)
;

boundaryField
{
    Side
    {
        type            empty;
    }
    Inlet
    {
        type            calculated;
        value           nonuniform List<scalar> 
32
(
0.13277845
0.13278192
0.13278334
0.13278222
0.1327826
0.13278459
0.13278773
0.13279122
0.13279457
0.13279796
0.13280169
0.13280577
0.13280974
0.13281266
0.13281317
0.13281024
0.13280654
0.13280634
0.13280716
0.1328092
0.13281376
0.13282303
0.1328388
0.13285796
0.13287122
0.13287894
0.13288634
0.13289291
0.13289617
0.13289875
0.13289918
0.1328817
)
;
    }
    Airfoil
    {
        type            compressible::alphatWallFunction;
        value           nonuniform List<scalar> 0();
    }
    Outlet
    {
        type            calculated;
        value           nonuniform List<scalar> 0();
    }
    procBoundary4to3
    {
        type            processor;
        value           nonuniform List<scalar> 
57
(
0.029900365
0.036394865
0.044721737
0.054574405
0.065292894
0.076054683
0.087809775
0.087809775
0.096815518
0.10455697
0.11092817
0.11592052
0.11969829
0.12213924
0.12359489
0.12431364
0.12453737
0.12447309
0.12427497
0.12389156
0.12389156
0.12367634
0.12351221
0.12342355
0.12334761
0.12328174
0.12324335
0.12322301
0.12313044
0.12313044
0.12313414
0.12314302
0.12315572
0.12317218
0.12319222
0.12321599
0.12316864
0.12316864
0.12320186
0.12324016
0.12328431
0.12326183
0.12326183
0.12332166
0.12339306
0.12340569
0.12340569
0.12350949
0.12363373
0.12371649
0.12371649
0.12390655
0.12409701
0.12409701
0.12433439
0.1225625
0.1225625
)
;
    }
    procBoundary4to5
    {
        type            processor;
        value           nonuniform List<scalar> 
64
(
0.048683291
0.062178044
0.075994215
0.075994215
0.089568886
0.10003615
0.10808252
0.11382235
0.11760839
0.11760839
0.12003816
0.12116969
0.12156287
0.12161119
0.1215094
0.12138781
0.12138781
0.12121308
0.12109553
0.12100362
0.12095952
0.12095952
0.12085202
0.12084573
0.12084904
0.12085935
0.12085935
0.12079869
0.12081848
0.12084084
0.12086529
0.12086529
0.1208191
0.12084781
0.1208782
0.1208782
0.12083956
0.12087396
0.12091011
0.12091011
0.12087855
0.12091897
0.12091897
0.12089296
0.12093941
0.12099026
0.12099026
0.12097784
0.12104148
0.12104148
0.12104433
0.121129
0.121129
0.1211571
0.1211571
0.12120906
0.12137135
0.12137135
0.12149848
0.12149848
0.12157039
0.12157039
0.12081386
0.11253153
)
;
    }
    procBoundary4to11
    {
        type            processor;
        value           nonuniform List<scalar> 
26
(
0.027091416
0.027596537
0.028040797
0.028439403
0.028847627
0.029324427
0.029887319
0.030502028
0.031105821
0.031634772
0.032050645
0.032360787
0.03262097
0.032909952
0.033286259
0.033763601
0.034319532
0.034914099
0.035506414
0.036062804
0.036560767
0.036993554
0.037372752
0.037723003
0.026496099
0.026496099
)
;
    }
    procBoundary4to12
    {
        type            processor;
        value           uniform 0.038664364;
    }
}


// ************************************************************************* //
