/*--------------------------------*- C++ -*----------------------------------*\
| =========                 |                                                 |
| \\      /  F ield         | OpenFOAM: The Open Source CFD Toolbox           |
|  \\    /   O peration     | Version:  2506                                  |
|   \\  /    A nd           | Website:  www.openfoam.com                      |
|    \\/     M anipulation  |                                                 |
\*---------------------------------------------------------------------------*/
FoamFile
{
    version     2.0;
    format      ascii;
    arch        "LSB;label=32;scalar=64";
    class       volScalarField;
    location    "1.05";
    object      k;
}
// * * * * * * * * * * * * * * * * * * * * * * * * * * * * * * * * * * * * * //

dimensions      [0 2 -2 0 0 0 0];

internalField   nonuniform List<scalar> 
1375
(
3.4928303
3.817532
4.0639825
4.2780135
4.4826084
4.6695324
3.1360243
3.4526562
3.7813466
4.0334323
4.2513718
4.455404
4.6380947
4.7884924
4.9013386
4.9769306
5.0191379
5.0345078
5.0337109
5.0110051
4.9795407
4.9443289
4.9096281
4.8785523
4.8529654
3.0923794
3.4166246
3.7501526
4.0081405
4.2300348
4.4335828
4.612043
4.75618
4.8621768
4.9313186
4.9682001
4.9803498
4.9761579
4.9522853
4.9210755
4.8871722
4.8544727
4.8257306
4.8024835
4.7852262
4.7738168
4.767781
4.7658908
4.7660363
4.76857
4.7732576
4.7795766
3.0465675
3.3785385
3.7169174
3.9807232
4.2067169
4.4102807
4.5851859
4.723721
4.8234152
4.8865328
4.9184843
4.9277816
4.9198433
4.8950797
4.8641601
4.8315477
4.8007877
4.7742727
4.7532328
4.737998
4.7284132
4.7239113
4.7228413
4.7236548
4.7270251
4.7323673
4.7392171
4.7473745
4.7567418
4.7672869
4.7790597
4.7921679
4.8067665
4.8230796
2.9974917
3.3348865
3.6773294
3.9464994
4.1766006
4.3807573
4.5530679
4.6871581
4.7817657
4.8400354
4.8680801
4.8751328
4.8641751
4.8389428
4.808542
4.7773081
4.7484749
4.7241054
4.7051652
4.6918628
4.6840144
4.680862
4.6803916
4.6819746
4.6861042
4.6920427
4.6993852
4.7079496
4.7176716
4.7285673
4.7407028
4.7541689
4.7691143
4.7857693
4.8044095
4.8253616
4.849015
4.8758589
2.947268
3.2860061
3.6310941
3.9047033
4.1384851
4.3435893
4.5142892
4.6452586
4.7362212
4.7910378
4.8163402
4.8218415
4.8089716
4.7837223
4.7541195
4.7243746
4.69746
4.6751561
4.6582206
4.6467799
4.6405835
4.6385599
4.6385528
4.6409885
4.6457943
4.6522748
4.6600725
4.6690164
4.6790751
4.6903025
4.7027799
4.716586
4.73186
4.7488336
4.7677865
4.7890392
4.8129743
4.8400857
4.8709971
4.9065211
4.9477106
2.8993431
3.2353118
3.5816527
3.8586397
4.0953333
4.3013161
4.4709854
4.5997787
4.6881617
4.7405473
4.7639476
4.7684127
4.7544852
4.729546
4.7009374
4.6727405
4.6477031
4.6273722
4.6123526
4.6027104
4.5980391
4.5968362
4.5974249
4.6006786
4.6060893
4.6130556
4.6212612
4.6305543
4.6409298
4.6524694
4.6652656
4.6793924
4.6949774
4.7122477
4.7314887
4.7530196
4.7772229
4.8045861
4.8357247
4.8714476
4.9128111
4.9611956
5.0183847
5.0868606
2.8558535
3.186711
3.5335734
3.8131918
4.0520411
4.2584834
4.4270907
4.5539297
4.6400667
4.690368
4.7121606
4.7157878
4.7011538
4.6766512
4.6490986
4.6224294
4.5991854
4.5807204
4.5675295
4.5596013
4.5562767
4.55568
4.5570029
4.5609984
4.5669447
4.5743507
4.582933
4.592554
4.6032296
4.6150608
4.6281472
4.6425648
4.6584387
4.6759902
4.6954994
4.7172874
4.741738
4.7693398
4.8007048
4.836634
4.8781775
4.9266907
4.983942
5.0524044
5.1357688
5.2392638
2.8167667
3.1425838
3.4898921
3.7717376
4.01217
4.218529
4.3856359
4.5101883
4.5938338
4.6418648
4.6619157
4.6646509
4.6492725
4.6251843
4.5986587
4.5734513
4.5518991
4.5351915
4.5237372
4.5174123
4.5152392
4.5151022
4.5172691
4.5219276
4.528353
4.5361489
4.5450676
4.5549946
4.565953
4.5780518
4.5914016
4.6060868
4.6222286
4.6400377
4.659795
4.6818265
4.7065218
4.7343676
4.7659718
4.8021149
4.8438123
4.8923956
4.9496641
5.018092
5.1012898
5.2043271
5.3360488
5.5295137
2.7809168
3.1037347
3.451642
3.7353165
3.9767724
4.1824558
4.3474925
4.4692454
4.5499607
4.5953606
4.6133985
4.6151124
4.5988399
4.5751078
4.5495692
4.5257645
4.5058217
4.4907869
4.480992
4.4761347
4.4747973
4.4751962
4.4781955
4.4834351
4.4902871
4.4984322
4.5076564
4.5178637
4.5290855
4.5414331
4.5550234
4.5699516
4.5863416
4.6043967
4.6243945
4.6466662
4.6716108
4.699703
4.7315291
4.7678488
4.8096617
4.858293
4.9155445
4.983903
5.0668967
5.1694206
5.2999469
5.4919792
6.0713101
2.7472313
3.0702094
3.41877
3.7036096
3.945309
4.1496002
4.3119725
4.4304568
4.507883
4.5503841
4.5662232
4.5668703
4.5496471
4.5262666
4.5017184
4.4792956
4.4609163
4.4474995
4.4392793
4.4356916
4.4349422
4.4360059
4.4397555
4.4455089
4.4527492
4.4612115
4.4707133
4.4811768
4.4926413
4.5052192
4.5190317
4.5341855
4.5508115
4.5691076
4.5893429
4.6118454
4.6370087
4.6653042
4.6973151
4.7337899
4.7757028
4.82436
4.8815703
4.9498175
5.0325422
5.1344758
5.2637844
5.4544084
6.0399324
2.715226
3.0416432
3.3908046
3.6759544
3.9168935
4.118924
4.2779992
4.3928097
4.4667194
4.5062202
4.519898
4.5194347
4.5014284
4.4784794
4.4549805
4.4339595
4.4171334
4.4052983
4.3985524
4.3960482
4.3957374
4.3975529
4.4019557
4.4081613
4.415751
4.4245005
4.4342545
4.4449539
4.4566458
4.4694444
4.4834735
4.4988435
4.5156848
4.5341879
4.5546181
4.5773076
4.6026548
4.6311297
4.6633055
4.6999158
4.7419139
4.7905858
4.8477243
4.9158037
4.9981824
5.0994435
5.2275214
5.4167583
6.0082498
2.6849158
3.0171161
3.3668295
3.6515429
3.8907424
4.0896279
4.2447721
4.3555412
4.4257742
4.4622844
4.4741802
4.4724059
4.453996
4.4316277
4.4092721
4.3896964
4.3744324
4.3641534
4.3587833
4.3571302
4.3572154
4.3598184
4.3647834
4.3713949
4.3793063
4.3883204
4.3983076
4.4092273
4.4211328
4.4341385
4.4483618
4.4639097
4.4809175
4.4995839
4.5201781
4.5430339
4.5685436
4.5971712
4.629486
4.666213
4.7082831
4.7569551
4.8139869
4.881837
4.9637952
5.0643112
5.1911432
5.3790318
5.9761894
2.6563705
2.995021
3.3453506
3.6292608
3.8660796
4.0611585
4.2118631
4.318296
4.3847638
4.4184177
4.4288394
4.4257315
4.4072871
4.3856657
4.3645458
4.3464525
4.3327551
4.3239985
4.3198709
4.3188303
4.3194397
4.3227726
4.3282289
4.3352094
4.343419
4.3526798
4.3628812
4.3739947
4.3860822
4.3992584
4.4136403
4.4293389
4.4464906
4.465295
4.4860278
4.509025
4.5346726
4.5634318
4.5958635
4.6326821
4.6748018
4.723453
4.7803486
4.8479178
4.9293822
5.0290813
5.1546576
5.3412619
5.9440263
2.629316
2.9733329
3.3244359
3.6076258
3.8419441
4.0329978
4.1790591
4.281041
4.343761
4.3747397
4.3838868
4.379546
4.3613477
4.3406074
4.3207827
4.3041853
4.2920414
4.2847422
4.2816978
4.2811235
4.2823854
4.2863718
4.2922653
4.2995816
4.3080613
4.3175384
4.3279194
4.3391962
4.3514423
4.3647695
4.3792921
4.3951185
4.4123887
4.4313127
4.4521688
4.4752911
4.5010596
4.5299253
4.5624462
4.5993291
4.6414699
4.6900724
4.7468022
4.814039
4.8949516
4.9937825
5.1180961
5.3035028
5.9119329
2.6032825
2.9504949
3.3024802
3.5853328
3.8174819
4.0047517
4.1463295
4.2439781
4.303087
4.3315744
4.3395658
4.3340986
4.3163072
4.2965099
4.2779845
4.2628567
4.2522165
4.2462753
4.2441751
4.2439709
4.2459814
4.2505406
4.2568201
4.2644293
4.2731415
4.2828105
4.2933589
4.3047895
4.3171777
4.3306381
4.3452833
4.361225
4.3786099
4.3976483
4.4186165
4.4418463
4.467715
4.4966656
4.5292478
4.5661597
4.6082895
4.656812
4.7133449
4.7802189
4.8605393
4.9584573
5.0815076
5.2657989
5.8800603
2.5778752
2.925867
3.2786812
3.5616788
3.7922657
3.9763246
4.1138633
4.2074799
4.2631863
4.2893279
4.2962143
4.2896562
4.2723133
4.2534401
4.2361619
4.222439
4.2132271
4.2085278
4.207148
4.2073487
4.2101261
4.2151851
4.221812
4.229688
4.2386139
4.2484604
4.2591656
4.2707419
4.2832671
4.2968538
4.3116157
4.3276697
4.3451652
4.3643135
4.3853879
4.4087105
4.434655
4.4636607
4.4962733
4.5331822
4.5752648
4.6236774
4.6799934
4.7464819
4.8261803
4.9231677
5.0449552
5.2281838
5.8485795
2.5530153
2.8998456
3.2532534
3.5367721
3.7664294
3.9479462
4.0819955
4.1719529
4.2244722
4.2483514
4.2541241
4.2464231
4.2294705
4.2114408
4.1953217
4.1829194
4.1750379
4.1714166
4.1705488
4.1712898
4.1747712
4.1802766
4.1872218
4.1953402
4.2044608
4.2144741
4.2253315
4.2370528
4.2497149
4.2634255
4.2782993
4.2944607
4.3120658
4.3313227
4.3524925
4.3758901
4.4018847
4.4309146
4.4635264
4.5004011
4.5424044
4.5906813
4.6467633
4.712853
4.7919192
4.8879785
5.0084963
5.1906841
5.8176558
2.5291515
2.8739032
3.227478
3.5115642
3.740651
3.9200947
4.0510743
4.1376676
4.1871558
4.2087959
4.2134141
4.204481
4.1878108
4.1705232
4.1554719
4.1443055
4.1376376
4.1349185
4.1344341
4.1358177
4.1399117
4.1458105
4.1530421
4.1613813
4.1706822
4.1808543
4.1918625
4.2037302
4.216531
4.230367
4.245352
4.2616145
4.2793161
4.2986634
4.3199127
4.3433671
4.3693897
4.3984232
4.431009
4.4678208
4.5097183
4.5578345
4.6136709
4.6793656
4.757807
4.852944
4.9721725
5.1533147
5.7874394
2.5069912
2.8500132
3.2032478
3.487513
3.7158841
3.8932887
4.0213073
4.1046421
4.1511537
4.1705369
4.1739648
4.1637464
4.1472641
4.1306452
4.1165962
4.1065884
4.101011
4.0990517
4.0988709
4.1009473
4.1055626
4.1118079
4.1192998
4.1278445
4.1373165
4.1476416
4.1587955
4.1708052
4.1837382
4.1976887
4.2127693
4.2291154
4.2468955
4.2663174
4.2876285
4.311125
4.3371663
4.3661886
4.398725
4.4354486
4.477215
4.5251508
4.5807351
4.6460445
4.7238786
4.818091
4.9360038
5.1160797
5.7579488
2.4869134
2.8295149
3.1820166
3.4657874
3.6928405
3.8677965
3.9926303
4.0726139
4.1161177
4.1332178
4.1354531
4.1239874
4.1076603
4.0916942
4.0786254
4.0697301
4.0651502
4.0637771
4.0639227
4.0666937
4.0717531
4.0783061
4.0860357
4.0947706
4.1044008
4.114865
4.126147
4.1382765
4.1513181
4.1653634
4.1805249
4.1969432
4.2147909
4.2342734
4.2556355
4.2791653
4.3052113
4.3342034
4.3666711
4.4032862
4.4449017
4.4926424
4.5479668
4.6129015
4.6901457
4.7834239
4.8999951
5.078978
5.7291521
2.4687429
2.8125857
3.1642036
3.4467855
3.671711
3.8435499
3.9647593
4.0411649
4.0815786
4.0963931
4.0974918
4.0849144
4.06879
4.0535256
4.041462
4.0336603
4.0299824
4.0290448
4.0296394
4.0330455
4.0384873
4.0453147
4.0532594
4.0621648
4.0719328
4.0825134
4.0939003
4.1061262
4.1192572
4.1333824
4.1486146
4.1650948
4.1829964
4.2025272
4.2239274
4.247477
4.2735139
4.3024594
4.3348429
4.3713335
4.4127849
4.4603147
4.5153669
4.5799259
4.6565899
4.748923
4.8641231
5.0419891
5.7008412
2.4517923
2.798233
3.1490697
3.4299936
3.6520967
3.8201743
3.9373049
4.009895
4.0471494
4.0596906
4.0597782
4.0462954
4.0304811
4.016011
4.0050049
3.9982826
3.9954134
3.9948253
3.9959944
3.9999638
4.0057422
4.0128143
4.0209486
4.030003
4.0398906
4.0505733
4.0620476
4.0743506
4.0875535
4.1017438
4.1170336
4.1335652
4.1515113
4.1710764
4.1924981
4.2160507
4.2420624
4.2709506
4.3032386
4.3395936
4.3808655
4.4281618
4.482921
4.54709
4.6231674
4.7145467
4.8283444
5.0050798
5.6728255
2.4351723
2.7849393
3.1352847
3.4143883
3.63327
3.7971709
3.909916
3.9785207
4.0125886
4.0232104
4.0220346
4.0080305
3.9926555
3.9790772
3.9691729
3.9635009
3.9613625
3.9610809
3.9629218
3.967386
3.9734668
3.9807613
3.9890687
3.9982625
4.0082634
4.0190333
4.0305777
4.0429432
4.0561998
4.0704423
4.0857787
4.102349
4.1203306
4.1399196
4.1613462
4.1848801
4.2108509
4.2396711
4.2718564
4.3080661
4.3491394
4.3961757
4.4506084
4.514358
4.5898263
4.6802239
4.7925977
4.9682068
5.6449363
2.4180913
2.7712223
3.1214188
3.3987889
3.6144025
3.7740431
3.8823467
3.9469616
3.9779625
3.9869876
3.9843485
3.9701609
3.9553356
3.942718
3.9339309
3.9292651
3.9277692
3.9277829
3.9303624
3.9352641
3.9416273
3.9491318
3.9576003
3.9669178
3.9770143
3.9878606
3.9994703
4.01189
4.0251929
4.0394768
4.0548511
4.0714553
4.0894566
4.1090492
4.1304624
4.1539643
4.1798832
4.208623
4.2406939
4.2767442
4.3175966
4.3643415
4.4184111
4.4816927
4.5565078
4.6459002
4.756837
4.9313274
5.6171392
3.5947868
3.7503898
3.8544562
3.9152783
3.9434611
3.9511082
3.94697
3.9328232
3.9186166
3.9069862
3.8992978
3.8955582
3.8945432
3.8950069
3.8982795
3.9035727
3.9102005
3.9179008
3.9265164
3.9359444
3.9461249
3.9570382
3.9687044
3.9811759
3.9945271
4.0088461
4.0242486
4.0408715
4.0588774
4.0784614
4.0998467
4.1233037
4.1491553
4.1778045
4.2097496
4.2456199
4.2862262
4.3326456
4.3863
4.4490615
4.5231811
4.6115355
4.7210257
4.8944215
5.5896566
3.9156837
3.9101573
3.8961777
3.8826223
3.871967
3.8653167
3.862383
3.8617308
3.8627805
3.8666606
3.8723038
3.8791766
3.8870567
3.8958042
3.9053299
3.915585
3.9265582
3.9382749
3.9507899
3.9641785
3.9785322
3.9939596
4.0105928
4.0285931
4.0481521
4.0694984
4.0928948
4.1186658
4.1472114
4.1790107
4.214684
4.255021
4.301081
4.3542716
4.4164592
4.4898333
4.5771115
4.6851598
4.8575093
5.5627555
3.8297692
3.8294142
3.83112
3.8355115
3.8414623
3.8485558
3.8565969
3.8654614
3.8750734
3.8853949
3.896422
3.9081828
3.9207333
3.9341507
3.9485279
3.9639712
3.9806089
3.9985974
4.0181263
4.0394186
4.0627429
4.0884257
4.1168454
4.1484803
4.1839362
4.2239816
4.2696525
4.3223395
4.3838985
4.4564751
4.54265
4.6492704
4.8206388
5.5366025
3.8110551
3.8183409
3.8265227
3.8354892
3.8451756
3.8555532
3.8666249
3.8784229
3.8910035
3.9044439
3.9188364
3.9342871
3.9509206
3.9688904
3.9883816
4.0096148
4.032861
4.0584284
4.0867048
4.1181631
4.1533812
4.1931136
4.2383725
4.2905294
4.3514247
4.4231565
4.5082055
4.6134102
4.7838768
5.5113872
3.8156366
3.8260604
3.8371676
3.8489936
3.8615963
3.8750509
3.8894492
3.9048976
3.9215191
3.9394612
3.958907
3.9800758
4.0032263
4.0286767
4.0568023
4.0880589
4.1230208
4.1624255
4.2072597
4.2588756
4.3190842
4.3899408
4.4738397
4.5776391
4.7473032
5.4873205
3.8325041
3.845962
3.8603558
3.8757917
3.892391
3.9102988
3.9296935
3.950789
3.9738485
3.9991673
4.027119
4.0581629
4.0928583
4.1319261
4.1763357
4.2274088
4.2869242
4.3568851
4.4396164
4.5420193
4.710995
5.4645356
3.8469563
3.8635243
3.8813912
3.9007281
3.9217467
3.9446932
3.9698727
3.9976547
4.0284766
4.0628954
4.1016203
4.1456025
4.1961434
4.2549756
4.324031
4.4055784
4.5065824
4.6749893
5.4429088
3.8719958
3.8929264
3.9157653
3.9408036
3.9683979
3.9989907
4.0331251
4.0714994
4.1150567
4.1650841
4.2232502
4.2913967
4.3717403
4.4713349
4.6392539
5.4218173
3.8870509
3.9119407
3.9393437
3.969694
4.0035345
4.0415591
4.0847004
4.1342253
4.1917307
4.2589699
4.3380921
4.4362612
4.6037057
5.4006847
3.9405838
3.9741175
4.0117893
4.0545206
4.1035414
4.1603882
4.2267222
4.304598
4.4013301
4.5682758
5.3794893
3.9821882
4.0244996
4.0730131
4.1292006
4.1946009
4.2712188
4.3665079
4.5329372
5.358356
4.0426245
4.0981284
4.1625746
4.2379161
4.3317554
4.4976839
5.337247
4.0671479
4.1306187
4.2046586
4.2970536
4.4625306
5.3163937
4.1714425
4.2624
4.4275142
5.2962185
4.2278139
4.3927027
5.2770943
4.3582075
5.2592513
)
;

boundaryField
{
    Side
    {
        type            empty;
    }
    Inlet
    {
        type            turbulentIntensityKineticEnergyInlet;
        intensity       0.03;
        value           nonuniform List<scalar> 
32
(
12.015579
12.015907
12.016041
12.015936
12.015971
12.016159
12.016456
12.016786
12.017103
12.017423
12.017775
12.018161
12.018536
12.018812
12.01886
12.018584
12.018234
12.018215
12.018292
12.018485
12.018916
12.019792
12.021283
12.023093
12.024346
12.025075
12.025774
12.026395
12.026704
12.026947
12.026988
12.025336
)
;
    }
    Airfoil
    {
        type            kqRWallFunction;
        value           nonuniform List<scalar> 0();
    }
    Outlet
    {
        type            inletOutlet;
        inletValue      nonuniform List<scalar> 0();
        value           nonuniform List<scalar> 0();
    }
    procBoundary4to3
    {
        type            processor;
        value           nonuniform List<scalar> 
57
(
3.543324
3.8659107
4.1076785
4.3176963
4.5218764
4.7115709
4.825943
4.825943
4.9451368
5.0265184
5.0734518
5.0920992
5.0932208
5.0717193
5.0398144
5.0031679
4.9663553
4.9328155
4.9047336
4.8335689
4.8335689
4.8202549
4.8125396
4.8095082
4.8091028
4.8107522
4.8147289
4.8204811
4.7872965
4.7872965
4.7962903
4.8064719
4.8178719
4.830606
4.8448383
4.8607894
4.8413798
4.8413798
4.8620027
4.8853465
4.9119074
4.9065271
4.9065271
4.9418382
4.9828433
4.9959478
4.9959478
5.0530309
5.1214828
5.1703766
5.1703766
5.274294
5.3721383
5.3721383
5.5670664
6.1025252
6.1025252
)
;
    }
    procBoundary4to5
    {
        type            processor;
        value           nonuniform List<scalar> 
64
(
2.7559721
3.1063473
3.3822398
3.3822398
3.5738598
3.725899
3.8261538
3.8835548
3.9092453
3.9092453
3.8807753
3.8740782
3.8603387
3.8474481
3.8377293
3.8320224
3.8320224
3.7977599
3.7976547
3.8000294
3.8048399
3.8048399
3.7810853
3.7885334
3.7968345
3.8058878
3.8058878
3.7864545
3.7969148
3.8080479
3.8198916
3.8198916
3.8037193
3.8171676
3.8315448
3.8315448
3.8183823
3.8349093
3.8527252
3.8527252
3.8434917
3.864332
3.864332
3.8585456
3.8832771
3.9104827
3.9104827
3.9116633
3.9448863
3.9448863
3.9527739
3.9946395
3.9946395
4.0123674
4.0123674
4.0362703
4.098729
4.098729
4.1382795
4.1382795
4.1933551
4.1933551
4.3241343
5.2425824
)
;
    }
    procBoundary4to11
    {
        type            processor;
        value           nonuniform List<scalar> 
26
(
3.1350048
3.0841564
3.0312923
2.9785685
2.9304993
2.8907374
2.8589874
2.8314891
2.8037506
2.7723266
2.7357559
2.6951361
2.6540465
2.6169755
2.5866901
2.5629601
2.5436579
2.5262778
2.5088297
2.4900017
2.469109
2.4461927
2.4221003
2.3981536
3.1814515
3.1814515
)
;
    }
    procBoundary4to12
    {
        type            processor;
        value           uniform 2.4000066;
    }
}


// ************************************************************************* //
