/*--------------------------------*- C++ -*----------------------------------*\
| =========                 |                                                 |
| \\      /  F ield         | OpenFOAM: The Open Source CFD Toolbox           |
|  \\    /   O peration     | Version:  2506                                  |
|   \\  /    A nd           | Website:  www.openfoam.com                      |
|    \\/     M anipulation  |                                                 |
\*---------------------------------------------------------------------------*/
FoamFile
{
    version     2.0;
    format      ascii;
    arch        "LSB;label=32;scalar=64";
    class       surfaceScalarField;
    location    "0.0125";
    object      phi;
}
// * * * * * * * * * * * * * * * * * * * * * * * * * * * * * * * * * * * * * //

dimensions      [1 0 -1 0 0 0 0];

oriented        oriented;

internalField   nonuniform List<scalar> 
27245
(
0.0020282461
0.041065842
-0.04117162
0.0021604018
0.052863768
-0.052996482
0.002280285
0.06396531
-0.064088543
0.0023928018
0.073609452
-0.073724814
0.0025124865
0.076866978
-0.076988242
0.0026486652
0.080051804
-0.080188547
0.0027995057
0.086286572
-0.086435737
0.0029537092
0.098618825
-0.098773969
0.003109379
0.10808944
-0.10824929
0.0032674662
0.11919442
-0.1193569
0.0034310056
0.13144045
-0.1316081
0.0036010912
0.15189012
-0.1520637
0.0037784471
0.17093359
-0.17111389
0.0039679013
0.1946859
-0.19487692
0.004166394
0.21442106
-0.21461993
0.0043751173
0.24807622
-0.24828385
0.0045907528
0.27934118
-0.27955409
0.0048331065
0.32216485
-0.32240472
0.0050698622
0.36655472
-0.36678766
0.0053358038
0.42144179
-0.4217181
0.0055671013
0.52313557
-0.52336992
0.0058508264
0.58248421
-0.58280153
0.0060306569
0.70931164
-0.70950819
0.0062529987
0.78772629
-0.78800165
0.0064415737
0.85260697
-0.85279682
0.0065981277
1.1248863
-1.1249778
0.0066626606
1.2071217
-1.207206
0.006885307
1.3693743
-1.3696446
0.0069364523
1.4478074
-1.448019
0.0071121895
1.5785453
-1.5788218
0.0072612453
1.6676214
-1.6678945
0.0075268444
1.7516866
-1.751941
0.007804926
1.7997981
-1.7999966
0.0081581641
1.8517127
-1.851863
0.0084995382
1.8613855
-1.8616081
0.0088409789
1.9349568
-1.9352986
0.00922305
2.0109801
-2.0113797
0.0096408843
2.0926401
-2.0930507
0.010091658
2.1739301
-2.1743644
0.010562122
2.2623777
-2.2628456
0.011056445
2.3576703
-2.3581641
0.011580819
2.4611754
-2.4616962
0.012138048
2.5743559
-2.5749039
0.012724203
2.6951937
-2.6957715
0.013334133
2.823194
-2.823806
0.013986714
2.9604677
-2.9611163
0.01471042
3.1121163
-3.1127981
3.2840933
0.0021400656
0.040954684
0.0022800036
0.052723279
0.0024061073
0.063835707
0.0025240108
0.073488565
0.0026496811
0.076739719
0.0027910268
0.079909891
0.0029505013
0.086128821
0.0031124652
0.098455857
0.0032767252
0.10792069
0.0034428558
0.11902365
0.003614617
0.1312644
0.0037935797
0.15170749
0.003979449
0.17074463
0.0041789183
0.19448478
0.0043869942
0.21421259
0.0046072576
0.2478571
0.0048318378
0.27911947
0.0050840141
0.32191529
0.0053315433
0.36631122
0.0056012918
0.42116112
0.0058451209
0.52288852
0.0061284504
0.58216552
0.0063242562
0.70909825
0.0065830473
0.78741169
0.006791674
0.85239701
0.0069603338
1.1247861
0.0069966026
1.2070645
0.0072570213
1.3690637
0.0072769326
1.4476189
0.0075060474
1.5782097
0.0076426614
1.6673536
0.0079241995
1.7514164
0.0082099801
1.7995957
0.0085773697
1.8515582
0.0089376699
1.8611503
0.0092935155
1.9346011
0.0096940582
2.0105612
0.010132354
2.0922093
0.01060517
2.1734745
0.011098325
2.2618872
0.011617053
2.357152
0.012166565
2.4606296
0.012751322
2.5737809
0.013367744
2.6945859
0.014008223
2.8225514
0.014691482
2.9597886
0.015450232
3.1114015
0.016262788
3.2833558
0.017008957
3.465784
3.6365527
0.0022590634
0.040837983
0.0024068001
0.052575003
0.0025396795
0.063699172
0.0026635424
0.073361577
0.0027955757
0.076606099
0.0029437585
0.079761144
0.0031112714
0.085963076
0.0032814638
0.098284587
0.0034543214
0.10774301
0.0036288616
0.1188442
0.003809288
0.13107948
0.0039973071
0.15151563
0.0041924011
0.17054627
0.0044019379
0.19427349
0.0046204029
0.2139937
0.0048518003
0.24762691
0.0050874036
0.27888689
0.0053520992
0.32165335
0.005611929
0.36605562
0.0058950854
0.42086647
0.0061343947
0.52264579
0.006425047
0.58183766
0.0066391212
0.70886581
0.0069422402
0.78704995
0.0071454774
0.85219262
0.0073220675
1.1246815
0.0073589016
1.2070055
0.0076326944
1.3687369
0.0076516405
1.4474227
0.0078930728
1.5778556
0.0080362388
1.6670716
0.0083315899
1.7511327
0.0086304421
1.799384
0.0090158799
1.8513962
0.0093942643
1.8609035
0.0097676915
1.9342282
0.010187994
2.0101215
0.010647938
2.0917572
0.011144182
2.1729964
0.01166176
2.2613725
0.012206168
2.3566081
0.012782854
2.4600569
0.013396626
2.5731774
0.014043715
2.693948
0.014715918
2.8218768
0.015432956
2.9590759
0.016229355
3.1106513
0.017082361
3.2825818
0.017865251
3.4649659
0.018562082
3.6356869
3.7975891
0.0023843704
0.040715479
0.0025403506
0.052418499
0.0026804044
0.063555304
0.0028105302
0.073228185
0.0029492623
0.076465802
0.0031046162
0.079605239
0.0032805449
0.085788952
0.0034593769
0.098104595
0.0036412944
0.10755591
0.00382468
0.11865562
0.004014201
0.13088526
0.0042117408
0.15131407
0.0044165055
0.17033807
0.0046366203
0.19405152
0.0048659702
0.2137639
0.0051090645
0.24738507
0.0053562546
0.27864289
0.005634079
0.32137843
0.005906849
0.36578732
0.0062040658
0.42055714
0.0064519233
0.52239431
0.0067563626
0.58149406
0.0069593138
0.70864356
0.0073328853
0.78661477
0.0075174862
0.85200677
0.0077023479
1.1245725
0.0077396313
1.2069448
0.0080274444
1.3683932
0.0080460232
1.4472178
0.0082997252
1.577483
0.0084495092
1.6667751
0.0087591816
1.750835
0.0090722232
1.7991618
0.0094766852
1.8512259
0.0098739385
1.8606448
0.010265784
1.9338373
0.010706852
2.0096603
0.011189564
2.0912827
0.011710334
2.1724947
0.01225354
2.2608324
0.012824915
2.3560372
0.013430094
2.4594558
0.014074314
2.572544
0.014753539
2.6932784
0.015458784
2.8211691
0.016208433
2.9583308
0.017038836
3.1098695
0.017940603
3.281763
0.018764364
3.4641051
0.019495551
3.6347784
0.020266355
3.7966342
0.021167557
3.9733288
4.1698394
0.0025170433
0.040586889
0.0026817696
0.052253269
0.0028294452
0.063403651
0.0029661437
0.073088082
0.0031119344
0.076318492
0.0032748044
0.079441846
0.0034595683
0.085606021
0.0036474678
0.097915441
0.0038389435
0.10735886
0.004031622
0.11845745
0.0042307288
0.13068124
0.0044382828
0.1511023
0.0046531786
0.17011955
0.0048844167
0.19381832
0.0051251993
0.21352264
0.0053805896
0.247131
0.0056399188
0.27838692
0.0059315522
0.32108987
0.00621789
0.36550568
0.0065299183
0.42023236
0.0067899626
0.52213043
0.0071095956
0.5811332
0.0073203348
0.7084121
0.0077178225
0.78615313
0.0079093675
0.85181333
0.0081028949
1.1244589
0.0081406999
1.2068821
0.008443251
1.3680315
0.0084614118
1.4470038
0.0087279132
1.5770911
0.0088843355
1.6664634
0.0092091011
1.7505228
0.0095371468
1.7989282
0.0099615032
1.8510467
0.010378588
1.8603736
0.01078978
1.9334275
0.011252649
2.0091764
0.011759201
2.0907847
0.012305771
2.1719682
0.012875835
2.2602656
0.013475493
2.3554379
0.014110588
2.458825
0.014786821
2.571879
0.015499762
2.6925755
0.016239897
2.8204263
0.017026587
2.957549
0.017897796
3.1090494
0.018844484
3.2809034
0.019709171
3.4632014
0.02047643
3.6338249
0.021285377
3.7956319
0.022231249
3.9722774
0.023305112
4.168736
0.024491909
4.3840805
4.6203485
0.0026578596
0.040451922
0.0028318627
0.052078789
0.0029876278
0.063243741
0.003131262
0.072940906
0.0032844683
0.076163843
0.0034552317
0.079270604
0.0036492477
0.085413859
0.0038466798
0.097716644
0.0040482209
0.10715132
0.0042506794
0.11824918
0.0044598741
0.13046691
0.0046779584
0.15087981
0.0049034878
0.16989021
0.0051464133
0.19357332
0.0053991998
0.21326933
0.005667506
0.24686408
0.0059395704
0.27811839
0.0062457175
0.32078695
0.0065463152
0.36521003
0.0068739086
0.41989133
0.0071467255
0.52185354
0.0074823088
0.58075422
0.007703246
0.70816904
0.0081214712
0.7856681
0.0083226783
0.85160997
0.0085252543
1.1243405
0.0085634749
1.2068175
0.0088813554
1.3676514
0.0088990134
1.4467802
0.0091789421
1.5766788
0.0093422803
1.6661358
0.0096827906
1.7501952
0.010026572
1.7986828
0.010471838
1.8508579
0.010909712
1.8600893
0.011341225
1.9329981
0.011826933
2.0086689
0.012358517
2.090262
0.012932117
2.1714157
0.013530381
2.2596708
0.014159747
2.354809
0.014826207
2.458163
0.015535953
2.5711812
0.016284313
2.6918378
0.017061072
2.8196467
0.017886604
2.9567285
0.018801014
3.1081886
0.019794702
3.2800013
0.020702051
3.462253
0.02150715
3.6328242
0.022356055
3.7945799
0.023348858
3.9711738
0.024475926
4.1675781
0.025721588
4.3828631
0.027069884
4.6190687
0.028496119
4.878384
5.1609982
0.0028065708
0.04031027
0.0029904041
0.051894511
0.003154753
0.063075079
0.0033056711
0.072786316
0.0034667107
0.076001455
0.0036457535
0.079091142
0.0038494338
0.085212047
0.0040568707
0.097507714
0.0042690276
0.10693272
0.0044817645
0.11803028
0.004701574
0.13024173
0.0049307307
0.15064604
0.0051674112
0.16964951
0.005422625
0.19331589
0.0056880078
0.21300339
0.0059698868
0.24658365
0.0062552921
0.27783671
0.0065766667
0.32046899
0.0068922617
0.36489964
0.0072361911
0.41953325
0.0075224137
0.52156299
0.0078747196
0.58035624
0.0081063242
0.70791436
0.0085462842
0.78515762
0.0087576396
0.8513969
0.0089696671
1.1242172
0.0090083179
1.2067509
0.0093423471
1.3672518
0.0093594636
1.4465464
0.0096533359
1.5762448
0.0098238892
1.6657915
0.0101809
1.7498511
0.010541109
1.7984251
0.011008322
1.8506589
0.011467983
1.8597915
0.011920846
1.932548
0.012430521
2.0081365
0.012988367
2.0897135
0.013590308
2.1708358
0.014218162
2.2590466
0.014878657
2.3541489
0.015578036
2.4574683
0.016323003
2.5704487
0.017108463
2.6910635
0.017923617
2.8188285
0.018789883
2.9558675
0.019749568
3.1072853
0.020792646
3.2790543
0.021744806
3.4612576
0.022589569
3.631774
0.023480408
3.793476
0.024522393
3.9700156
0.025705292
4.166363
0.027012701
4.3815853
0.028427858
4.6177256
0.029923832
4.8769732
0.031478078
5.1595175
0.033081357
5.4643918
0.034735604
5.7905669
6.1376197
0.0029639936
0.040161635
0.0031582538
0.051699847
0.0033317452
0.06289711
0.0034903444
0.072623924
0.0036596325
0.075830908
0.0038473609
0.078903071
0.0040611704
0.085000111
0.0042791031
0.097288138
0.0045024346
0.10670246
0.0047259832
0.1178002
0.0049569861
0.13000511
0.0051977961
0.15040041
0.0054461673
0.16939691
0.0057142933
0.19304542
0.0059928945
0.21272418
0.0062890311
0.24628902
0.0065884598
0.2775412
0.0069258453
0.32013519
0.0072571702
0.36457381
0.0076182694
0.41915724
0.0079185651
0.52125811
0.0082884487
0.57993826
0.0085312011
0.70764781
0.0089939993
0.78461982
0.0092160408
0.85117368
0.0094379208
1.1240888
0.0094769285
1.2066823
0.00982777
1.3668319
0.0098442425
1.446302
0.010152767
1.5757881
0.010330798
1.6654295
0.010705149
1.7494883
0.01108257
1.7981546
0.01157274
1.8504494
0.012055329
1.8594797
0.012530589
1.9320763
0.013065401
2.0075779
0.01365078
2.0891377
0.01428249
2.1702274
0.01494138
2.2583916
0.015634542
2.353456
0.01636845
2.4567392
0.017150359
2.5696798
0.017974781
2.6902508
0.018830251
2.8179698
0.019739297
2.9549641
0.020746533
3.1063373
0.021841387
3.2780605
0.022840482
3.4602129
0.023726864
3.6306719
0.024661702
3.7923174
0.025755288
3.9688001
0.026996806
4.1650877
0.028368988
4.3802442
0.029854348
4.6163159
0.03142451
4.8754925
0.03305588
5.1579635
0.034738692
5.4627581
0.036474916
5.788847
0.038286955
6.1358112
0.040189234
6.5039665
6.8942955
0.042189404
0.0031304484
0.0400057
0.0033357707
0.051494174
0.0035189955
0.062709255
0.0036856868
0.072453328
0.0038636928
0.075651885
0.0040605318
0.078706007
0.0042849226
0.084777587
0.0045138778
0.097057361
0.0047489917
0.10645991
0.004983905
0.11755837
0.0052266981
0.12975645
0.0054797516
0.15014232
0.0057403809
0.16913183
0.0060220811
0.19276122
0.0063145837
0.21243102
0.0066256992
0.24597948
0.0069398198
0.27723121
0.0072940348
0.31978476
0.0076418851
0.36423174
0.0080210486
0.41876236
0.0083360528
0.52093823
0.0087244165
0.57949926
0.0089788413
0.70736862
0.0094655341
0.78405384
0.0096988306
0.8509393
0.0099310221
1.1239553
0.0099704837
1.2066114
0.010338907
1.366391
0.010354665
1.4460463
0.010678454
1.5753076
0.010864275
1.6650489
0.011256676
1.7491043
0.011652069
1.7978702
0.012166403
1.8502288
0.01267304
1.8591533
0.013171826
1.931582
0.013733039
2.0069917
0.01434731
2.0885335
0.015010245
2.1695889
0.015701694
2.2577044
0.016429117
2.3527288
0.017199271
2.4559741
0.018019954
2.5688728
0.018885277
2.6893977
0.019783003
2.8170685
0.020736904
2.9540161
0.021794085
3.1053424
0.022943264
3.2770175
0.023991657
3.4591166
0.024921667
3.6295151
0.025902651
3.7911013
0.027050411
3.9675244
0.028353397
4.1637491
0.029793594
4.3788367
0.031352578
4.6148363
0.033000619
4.8739384
0.034712939
5.1563324
0.036479254
5.4610434
0.038301428
5.7870419
0.040203212
6.1339132
0.042199708
6.5019707
6.8921964
0.04429892
0.0033064209
0.03984216
0.0035234775
0.051276834
0.003717072
0.062510896
0.0038923316
0.072274071
0.0040795321
0.075463986
0.0042859232
0.078499532
0.0045213702
0.08454399
0.0047618853
0.096814811
0.0050093909
0.10620442
0.0052562714
0.11730415
0.0055114871
0.12949509
0.0057774285
0.14987112
0.0060509134
0.16885366
0.0063468879
0.19246258
0.0066539506
0.21212324
0.0069808066
0.24565426
0.0073103541
0.27690602
0.007682251
0.31941686
0.0080474477
0.36387264
0.008445593
0.41834766
0.0087760708
0.52060258
0.0091837979
0.57903821
0.0094504356
0.70707578
0.0099622522
0.78345896
0.010207419
0.85069281
0.010450312
1.1238166
0.010490133
1.2065384
0.010876933
1.3659278
0.010891839
1.4457788
0.011231622
1.5748021
0.011425569
1.6646487
0.011836936
1.7486978
0.012251141
1.7975705
0.012790822
1.8499969
0.013322668
1.8588116
0.013846135
1.9310642
0.014435026
2.0063765
0.015079557
2.0878994
0.015775248
2.1689188
0.016500901
2.2569832
0.017264292
2.3519655
0.018072462
2.4551711
0.01893381
2.5680258
0.019841984
2.6885024
0.02078407
2.8161226
0.021785103
2.9530213
0.022894671
3.1042982
0.024100849
3.2759229
0.025200914
3.4579659
0.026176708
3.6283011
0.027206085
3.7898249
0.028410653
3.9661855
0.029778153
4.1623441
0.031289676
4.3773595
0.032925974
4.6132835
0.034655701
4.8723074
0.036452953
5.1546204
0.038306831
5.4592437
0.040219225
5.7851475
0.042215163
6.1319212
0.044310495
6.4998761
6.8899933
0.046513658
0.0034932883
0.039670696
0.0037228263
0.051047104
0.0039275055
0.062301345
0.0041118155
0.072085715
0.0043087298
0.07526649
0.00452514
0.078283194
0.0047721414
0.084298822
0.0050247902
0.096559878
0.0052853676
0.10593528
0.0055448347
0.11703691
0.0058131599
0.12922033
0.0060926451
0.14958613
0.0063796099
0.16856176
0.0066905954
0.19214876
0.0070129642
0.2118001
0.0073563582
0.24531258
0.0077021062
0.27656486
0.0080925652
0.31903061
0.0084759899
0.36349563
0.0088940686
0.41791212
0.0092407418
0.5202504
0.0096688255
0.57855398
0.0099482346
0.7067687
0.010486369
0.78283369
0.010743951
0.85043409
0.010998047
1.1236722
0.011038337
1.2064628
0.011444295
1.3654417
0.011458293
1.4454989
0.011814651
1.5742702
0.012016955
1.664228
0.012448132
1.7482698
0.012881986
1.7972544
0.013448302
1.8497532
0.014006637
1.8584539
0.014555984
1.9305218
0.015173853
2.0057312
0.015850195
2.0872338
0.016580259
2.1682158
0.017341745
2.2562265
0.018142851
2.3511644
0.018990881
2.4543285
0.0198949
2.5671368
0.020848102
2.6875627
0.021836696
2.81513
0.022887136
2.9519776
0.024051683
3.1032024
0.025317669
3.2747743
0.026471944
3.4567584
0.027495708
3.6270271
0.028575855
3.788485
0.029839988
3.9647799
0.031275148
4.1608696
0.032861578
4.3758092
0.034578922
4.6116539
0.03639439
4.8705956
0.038280743
5.1528237
0.04022652
5.4573548
0.04223355
5.7831594
0.044328241
6.1298307
0.046527272
6.4976778
6.8876813
0.048839455
0.003691156
0.039491012
0.0039339722
0.050804217
0.0041504956
0.062079882
0.0043443956
0.071887771
0.0045515655
0.075059035
0.0047785061
0.078056531
0.0050375548
0.084041588
0.0053029171
0.09629194
0.0055772639
0.10565177
0.0058499829
0.11675594
0.0061321338
0.12893144
0.0064258769
0.14928663
0.0067269838
0.16825545
0.0070537236
0.19181899
0.0073921412
0.21146083
0.0077529093
0.24495359
0.0081156424
0.27620695
0.0085256358
0.31862505
0.0089282235
0.3630998
0.0093672648
0.41745467
0.0097309223
0.51988089
0.010180374
0.5780454
0.010473131
0.70644708
0.011038926
0.78217587
0.011309639
0.8501627
0.011575402
1.1235222
0.011615873
1.206385
0.012041904
1.3649313
0.01205481
1.4452063
0.012428569
1.5737102
0.012639608
1.6637857
0.013091487
1.7478207
0.013545914
1.7969215
0.014140144
1.8494972
0.014726241
1.8580795
0.015302769
1.9299536
0.015951088
2.0050542
0.016660713
2.0865354
0.017426853
2.167478
0.018225918
2.2554325
0.019066595
2.3503236
0.019956452
2.4534442
0.020905283
2.5662037
0.021905645
2.6865764
0.022943039
2.8140884
0.024045329
2.9508825
0.025267566
3.1020524
0.026596321
3.2735688
0.027807429
3.4554911
0.028881515
3.6256901
0.030014884
3.7870788
0.031341502
3.9633047
0.03284769
4.1593221
0.034512645
4.3741821
0.036315084
4.6099436
0.038220478
4.8687992
0.040200304
5.150938
0.042242493
5.4553724
0.044348808
5.7810729
0.046547104
6.1276368
0.048854933
6.4953707
6.8852548
0.0512815
0.0039002442
0.03930282
0.0041571799
0.05054738
0.0043863688
0.061845743
0.0045904628
0.071679702
0.0048084333
0.074841222
0.0050464382
0.077819072
0.0053180418
0.083771786
0.0055967401
0.096010332
0.0058855819
0.10535311
0.0061722397
0.11646051
0.0064689905
0.12862762
0.0067777139
0.14897188
0.007093657
0.16793402
0.0074369726
0.19147243
0.0077922558
0.21110461
0.0081712637
0.24457642
0.0085518541
0.27583145
0.0089823429
0.31819925
0.0094050339
0.36268424
0.0098660822
0.41697422
0.010247548
0.51949318
0.010719447
0.57751122
0.011026138
0.70611033
0.011620929
0.78148391
0.011905399
0.8498779
0.012183288
1.1233663
0.01222423
1.2063045
0.012671163
1.3643955
0.012682906
1.4449001
0.013074801
1.5731206
0.013294783
1.6633208
0.013768367
1.7473495
0.01424433
1.7965713
0.014867882
1.8492282
0.015483092
1.8576875
0.016088108
1.9293583
0.016768333
2.004344
0.017512947
2.0858024
0.01831689
2.1667038
0.019155438
2.2545992
0.020037597
2.3494412
0.020971339
2.4525163
0.021967137
2.5652243
0.02301702
2.6855412
0.024105599
2.8129955
0.02526233
2.9497334
0.0265451
3.1008455
0.027939663
3.2723038
0.029210393
3.4541613
0.030337228
3.6242871
0.031526429
3.7856028
0.032918628
3.9617564
0.034499284
4.1576983
0.036246682
4.3724745
0.038138367
4.6081487
0.040138131
4.8669139
0.042216054
5.148959
0.04435941
5.4532919
0.04656989
5.7788832
0.048876889
6.1253343
0.051298838
6.4929495
6.8827084
0.053845417
0.0041216472
0.039105863
0.004393652
0.050275706
0.0046364177
0.061598094
0.0048513798
0.071460908
0.0050807346
0.074612561
0.0053303736
0.077570332
0.0056150543
0.0834889
0.0059076943
0.095714403
0.0062118124
0.10503847
0.0065131579
0.11614984
0.0068253417
0.12830803
0.0071498031
0.14864111
0.0074812984
0.16759674
0.0078420412
0.19110821
0.0082149941
0.21073063
0.0086131756
0.24418015
0.0090124933
0.27543749
0.009464544
0.31775214
0.0099083878
0.3622479
0.01039256
0.41646958
0.01079272
0.51908637
0.011288177
0.57695017
0.011609479
0.70575753
0.012234739
0.78075631
0.012533712
0.84957889
0.012824273
1.1232046
0.01286533
1.2062213
0.013334133
1.3638329
0.013344577
1.4445798
0.013755364
1.5725002
0.013984704
1.6628323
0.014481028
1.7468542
0.014979492
1.7962035
0.0156338
1.8489453
0.016279551
1.8572772
0.016914492
1.9287348
0.017628212
2.003599
0.01840947
2.0850332
0.019253113
2.1658916
0.020133034
2.2537249
0.021058743
2.3485151
0.022038521
2.4515427
0.02308363
2.5641964
0.024185466
2.6844547
0.025327736
2.8118488
0.026541535
2.9485277
0.027887823
3.099579
0.029351502
3.2709762
0.030684753
3.4527659
0.031866906
3.6228149
0.03311467
3.7840537
0.034575653
3.9601317
0.03623448
4.1559943
0.038068327
4.3706825
0.040053711
4.6062651
0.042152491
4.8649353
0.04433333
5.146882
0.046582805
5.4511084
0.048902568
5.7765854
0.051323627
6.1229181
0.053865322
6.4904087
6.880036
0.056537798
0.004356143
0.038899906
0.0046442254
0.049988276
0.0049015567
0.061336052
0.0051281226
0.071230749
0.0053694483
0.074372552
0.0056313279
0.077309614
0.0059296162
0.083192402
0.0062368797
0.095403423
0.0065570842
0.104707
0.006873903
0.11582309
0.0072023617
0.12797178
0.0075433988
0.14829347
0.0078912361
0.1672428
0.0082702918
0.19072543
0.0086618045
0.21033798
0.0090801332
0.24376379
0.0094991153
0.27502415
0.0099738273
0.31728264
0.010439849
0.36178979
0.010948339
0.41593951
0.011368054
0.51865957
0.011888259
0.57636088
0.012224785
0.70538804
0.012882016
0.77999119
0.013196164
0.84926512
0.013499953
1.1230368
0.013541357
1.2061352
0.014032962
1.3632423
0.014041895
1.444245
0.014472421
1.5718475
0.014711401
1.6623181
0.015231447
1.7463329
0.015753413
1.7958171
0.016439999
1.8486473
0.01711778
1.8568474
0.01778416
1.9280817
0.018532978
2.0028176
0.019352701
2.084226
0.020237967
2.1650392
0.021161274
2.2528075
0.022132655
2.3475432
0.023160735
2.450521
0.024257542
2.5631177
0.025413863
2.6833144
0.02661249
2.8106455
0.02788622
2.9472625
0.029299154
3.0982498
0.03083531
3.2695827
0.03223412
3.4513018
0.033474239
3.6212699
0.034783418
3.782428
0.036316563
3.9584268
0.03805742
4.1542059
0.039982006
4.3688019
0.042065634
4.6042884
0.044268293
4.862859
0.046557121
5.1447023
0.04891793
5.4488169
0.051352378
5.7741739
0.053893067
6.1203825
0.056560375
6.4877423
6.8772315
0.059364966
0.004604587
0.038684754
0.004909872
0.049684085
0.0051828719
0.06105866
0.0054218734
0.070988488
0.0056757896
0.074120656
0.0059505987
0.077036652
0.0062629733
0.082881867
0.0065855168
0.095076684
0.0069226433
0.10435778
0.0072557854
0.11547936
0.007601483
0.12761791
0.0079599099
0.14792813
0.008324872
0.16687139
0.0087231687
0.19032314
0.0091341567
0.20992574
0.009573628
0.24332636
0.010013276
0.27459045
0.010511773
0.31678964
0.011001149
0.36130876
0.011535165
0.41538273
0.011975419
0.51821174
0.012521611
0.57574191
0.012874085
0.70500114
0.013564879
0.77918655
0.013895085
0.84893576
0.01421254
1.1228628
0.014253959
1.2060462
0.014769365
1.3626221
0.014776652
1.4438955
0.01522779
1.5711607
0.015476742
1.6617764
0.016021632
1.7457837
0.016568199
1.7954112
0.017288593
1.848333
0.017999947
1.8563971
0.018699297
1.9273977
0.019484955
2.001998
0.020344997
2.0833789
0.021273898
2.164145
0.022242777
2.2518449
0.023262029
2.3465232
0.024340744
2.4494491
0.02549181
2.5619856
0.026705276
2.6821178
0.027962978
2.809383
0.029299545
2.9459348
0.03078241
3.0968548
0.032394579
3.2681202
0.033862105
3.4497655
0.035163041
3.6196486
0.036536571
3.7807222
0.038145421
3.9566375
0.039972252
4.1523292
0.041991992
4.3668283
0.044178724
4.6022139
0.046490371
4.8606801
0.048892464
5.1424149
0.051370081
5.4464122
0.053924729
5.7716434
0.056590924
6.1177216
0.059389995
6.4849441
6.8742886
0.062333101
0.0048679552
0.038460246
0.0051916513
0.049362075
0.0054814803
0.060764942
0.0057338052
0.07073336
0.00600098
0.073856277
0.0062894174
0.07675039
0.0066164149
0.082556733
0.0069549323
0.094733441
0.0073098852
0.10398983
0.0076602232
0.1151177
0.0080241456
0.12724538
0.0084008755
0.14754414
0.0087838412
0.16648161
0.0092023849
0.18990031
0.0096337976
0.20949294
0.01009548
0.24286677
0.01055682
0.27413537
0.011080327
0.31627193
0.011594193
0.36080368
0.012155022
0.41479789
0.012616775
0.5177419
0.013190218
0.57509177
0.013559337
0.70459602
0.014285373
0.77834043
0.014632271
0.84859032
0.014964079
1.1226825
0.015005711
1.2059539
0.015545945
1.3619715
0.015551335
1.4435304
0.016023857
1.5704379
0.016283036
1.6612066
0.016853951
1.7452049
0.01742621
1.7949842
0.018182041
1.8480008
0.018928645
1.8559253
0.019662584
1.9266815
0.020486838
2.0011385
0.021389104
2.0824901
0.022363835
2.1632067
0.023380437
2.2508347
0.024449888
2.3454529
0.02558174
2.4483245
0.026789719
2.5607978
0.028063085
2.6808622
0.029382744
2.8080585
0.030785251
2.9445415
0.03234144
3.0953909
0.034033364
3.2665854
0.035572955
3.4481532
0.036937584
3.6179473
0.038378617
3.7789323
0.040066817
3.9547597
0.041983869
4.1503597
0.044103451
4.3647573
0.046398301
4.6000371
0.048824238
4.8583936
0.051345144
5.1400144
0.053945237
5.4438886
0.056626051
5.768988
0.05942384
6.1149294
0.062361067
6.4820079
6.8712003
0.065449475
0.0051469538
0.038226251
0.005490347
0.049021151
0.0057983653
0.060453767
0.0060650278
0.070464517
0.0063461369
0.073578774
0.0066489528
0.076450191
0.0069911008
0.082216445
0.0073462765
0.094372971
0.0077199519
0.10360219
0.0080884591
0.11473708
0.0084716941
0.12685308
0.0088676539
0.14714058
0.0092694901
0.16607258
0.0097092944
0.18945591
0.010162138
0.20903857
0.010647161
0.2423839
0.01113128
0.27365784
0.011681078
0.31572826
0.012220699
0.36027333
0.012809735
0.41418351
0.013294036
0.51724896
0.013896139
0.57440886
0.01428266
0.70417186
0.015045711
0.77745068
0.015410334
0.84822784
0.015756923
1.1224959
0.015798368
1.2058586
0.01636453
1.3612893
0.016367839
1.4431482
0.016862667
1.5696778
0.017132514
1.660608
0.017730595
1.7445947
0.018329663
1.7945351
0.019122686
1.8476491
0.019906262
1.8554309
0.020676545
1.9259317
0.021541279
2.0002373
0.022487884
2.0815574
0.023510616
2.1622223
0.024577315
2.2497747
0.025699436
2.3443298
0.026887012
2.4471446
0.028154659
2.5595514
0.029490906
2.6795447
0.030875573
2.806669
0.032347217
2.9430796
0.033980353
3.0938545
0.03575594
3.2649748
0.0373711
3.4464614
0.038802522
3.6161621
0.040314331
3.777054
0.042085752
3.9527891
0.044097446
4.1482931
0.046321735
4.362584
0.048730047
4.5977528
0.051275929
4.8559943
0.053921456
5.1374954
0.056650063
5.4412404
0.059463169
5.7662016
0.062399043
6.1119994
0.065481239
6.4789267
6.8679596
0.068722059
0.0054418685
0.037982639
0.0058062863
0.04866022
0.006133869
0.060124006
0.0064159533
0.070181083
0.0067117163
0.0732874
0.0070297466
0.076135241
0.0073875765
0.081860428
0.0077601035
0.093994516
0.0081534577
0.10319381
0.008541129
0.11433641
0.0089448279
0.12643982
0.0093609914
0.14671642
0.0097826981
0.16564326
0.010244876
0.18898877
0.010720211
0.20856155
0.011229723
0.2418766
0.01173778
0.27315674
0.012315196
0.31515731
0.01288188
0.35971641
0.013500512
0.41353813
0.01400844
0.51673178
0.014640625
0.57369153
0.015045256
0.7037279
0.015847169
0.77651514
0.016230311
0.84784757
0.016592399
1.1223028
0.01663402
1.2057597
0.01722715
1.360574
0.017228163
1.4427472
0.017746215
1.5688795
0.018026899
1.6599785
0.018653382
1.743951
0.019280431
1.7940628
0.020112503
1.8472775
0.020934912
1.854913
0.021743314
1.9251467
0.022650527
1.9992922
0.023643618
2.0805789
0.024716723
2.1611895
0.025835967
2.2486623
0.027013326
2.3431512
0.028259379
2.4459067
0.029589653
2.5582436
0.030991839
2.6781623
0.032444675
2.8052114
0.033988881
2.9415458
0.035702769
3.0922423
0.037566152
3.2632848
0.039260518
3.444686
0.04076197
3.6142891
0.042348031
3.7750826
0.044206785
3.9507211
0.046317717
4.1461246
0.048651913
4.3603034
0.051179252
4.5953558
0.053850979
4.8534765
0.056627278
5.1348521
0.059490714
5.4384614
0.06244263
5.7632777
0.065523322
6.1089249
0.068757585
6.4756935
6.8645591
0.072158327
0.0057544496
0.037729262
0.0061412177
0.04827821
0.0064900172
0.059774292
0.0067887334
0.069882135
0.0070998855
0.072981422
0.0074340423
0.075804615
0.0078080543
0.081488138
0.0081986123
0.093597316
0.0086125905
0.10276362
0.0090205095
0.11391453
0.0094459434
0.12600431
0.0098833338
0.14627061
0.010325871
0.16519266
0.010811574
0.18849773
0.011310471
0.20806079
0.011845736
0.24134361
0.012378948
0.27263087
0.012985385
0.3145577
0.013580512
0.35913158
0.014230266
0.41286016
0.014763004
0.51618913
0.015426767
0.57293802
0.015850389
0.70326316
0.016693125
0.77553138
0.01709579
0.84744865
0.017473948
1.1221033
0.01751515
1.2056574
0.018136397
1.3598237
0.018135012
1.4423269
0.018677249
1.5680412
0.018969268
1.6593144
0.019625398
1.7432718
0.020281669
1.793565
0.021154624
1.8468859
0.022017788
1.8543707
0.022866222
1.9243252
0.023817918
1.9983013
0.024859726
2.0795523
0.025985703
2.1601058
0.027160055
2.2474947
0.028395338
2.3419147
0.02970269
2.4446081
0.031098647
2.5568715
0.032570001
2.676712
0.034094344
2.8036824
0.035714639
2.9399365
0.037513238
3.0905506
0.039468687
3.2615116
0.041246099
3.4428228
0.042820929
3.612324
0.044484806
3.7730137
0.046435119
3.9485511
0.048650214
4.1438491
0.051099655
4.3579103
0.053751851
4.5928406
0.05655554
4.8508346
0.059469028
5.1320783
0.062473876
5.4355453
0.06557135
5.7602097
0.068803979
6.1056987
0.07219773
6.4723009
6.8609908
0.075766145
0.00608632
0.03746593
0.0064968585
0.047873996
0.0068686365
0.059403111
0.0071853383
0.069566548
0.0075126549
0.072660023
0.0078639707
0.075457189
0.0082546238
0.081098923
0.0086638624
0.093180535
0.009099415
0.10231055
0.0095287263
0.11347019
0.0099772613
0.12554512
0.01043696
0.14580205
0.010901445
0.16471963
0.01141188
0.18798155
0.011935492
0.20753514
0.012497779
0.24078366
0.0130574
0.272079
0.013694351
0.31392797
0.014319371
0.35851741
0.015001779
0.41214796
0.015560473
0.51561984
0.016257387
0.57214649
0.016700708
0.70277685
0.017586297
0.77449681
0.018009383
0.8470303
0.018404254
1.1218971
0.018445518
1.205551
0.019095982
1.3590367
0.019091899
1.441888
0.019659227
1.5671598
0.01996254
1.6586134
0.020649643
1.7425551
0.021336454
1.79304
0.02225234
1.8464733
0.023158217
1.8538028
0.02404865
1.9234653
0.025047004
1.9972625
0.026139894
2.0784752
0.027321269
2.1589689
0.028553376
2.2462694
0.029849428
2.3406172
0.031221062
2.4432457
0.032685897
2.5554317
0.034229777
2.6751902
0.035829065
2.8020785
0.03752921
2.938248
0.039416628
3.0887755
0.04146862
3.2596511
0.043333115
3.4408678
0.044984839
3.6102622
0.046730258
3.7708427
0.048776605
3.9462741
0.05110088
4.1414614
0.053671176
4.3553992
0.056454363
4.5902013
0.059396496
4.8480625
0.062453821
5.1291677
0.065606974
5.4324854
0.06885713
5.7569905
0.072249024
6.1023137
0.07581002
6.4687411
6.8572467
0.079554305
0.0064377933
0.037192472
0.0068734718
0.047446489
0.0072701528
0.059008761
0.0076062694
0.069233195
0.0079505843
0.072322459
0.0083201416
0.075091773
0.008727879
0.080692176
0.0091565051
0.092743273
0.0096146342
0.10183345
0.010066546
0.11300212
0.010539655
0.12506084
0.011022805
0.14530953
0.011510341
0.16422306
0.012046785
0.1874389
0.012596328
0.20698335