/*--------------------------------*- C++ -*----------------------------------*\
| =========                 |                                                 |
| \\      /  F ield         | OpenFOAM: The Open Source CFD Toolbox           |
|  \\    /   O peration     | Version:  2506                                  |
|   \\  /    A nd           | Website:  www.openfoam.com                      |
|    \\/     M anipulation  |                                                 |
\*---------------------------------------------------------------------------*/
FoamFile
{
    version     2.0;
    format      ascii;
    arch        "LSB;label=32;scalar=64";
    class       volScalarField;
    location    "1.5";
    object      rho;
}
// * * * * * * * * * * * * * * * * * * * * * * * * * * * * * * * * * * * * * //

dimensions      [1 -3 0 0 0 0 0];

internalField   nonuniform List<scalar> 
1375
(
0.66554148
0.66554089
0.66551052
0.66551712
0.66555304
0.66558424
0.66553795
0.665508
0.66551542
0.66555161
0.66558248
0.66560161
0.66561168
0.66561686
0.66562003
0.66562267
0.66553289
0.66550366
0.66551231
0.66554912
0.66558001
0.66559888
0.66560862
0.66561353
0.66561661
0.66561909
0.66562111
0.66562271
0.66562378
0.66562433
0.66562457
0.6655275
0.66549895
0.66550874
0.66554602
0.66557688
0.66559551
0.66560501
0.66560972
0.6656126
0.66561488
0.66561677
0.66561839
0.66561962
0.66562041
0.66562091
0.66562138
0.66562199
0.66562273
0.66562346
0.66562402
0.66552111
0.66549338
0.66550438
0.66554221
0.66557313
0.66559171
0.66560117
0.66560587
0.6656087
0.66561088
0.66561261
0.66561419
0.66561553
0.66561652
0.6656172
0.6656177
0.66561817
0.66561863
0.66561904
0.66561929
0.66561934
0.6656193
0.66561935
0.66561973
0.66562061
0.66551231
0.66548552
0.66549777
0.66553612
0.66556728
0.6655861
0.66559586
0.66560082
0.66560384
0.66560605
0.66560769
0.66560923
0.66561065
0.6656119
0.66561286
0.6656135
0.66561391
0.66561414
0.66561422
0.66561411
0.6656138
0.66561339
0.66561307
0.66561311
0.66561375
0.66561505
0.66561699
0.66561952
0.66562265
0.66550317
0.66547714
0.66549028
0.6655286
0.66555965
0.66557855
0.66558863
0.66559397
0.66559729
0.66559968
0.66560145
0.66560302
0.66560456
0.66560605
0.66560733
0.66560832
0.66560904
0.66560961
0.66561009
0.66561042
0.6656105
0.6656103
0.66560993
0.66560963
0.66560963
0.66561001
0.6656108
0.66561221
0.66561452
0.66561793
0.66562225
0.66562695
0.66563156
0.6654948
0.66546972
0.66548363
0.66552161
0.66555208
0.66557063
0.6655807
0.66558626
0.66558977
0.66559232
0.66559424
0.6655959
0.66559755
0.66559922
0.6656008
0.66560217
0.66560334
0.66560447
0.66560565
0.6656068
0.66560774
0.66560834
0.66560859
0.66560865
0.66560873
0.66560892
0.6656093
0.6656101
0.66561176
0.66561436
0.66561747
0.66562048
0.66562346
0.66562735
0.66563341
0.66564178
0.66548383
0.66546039
0.66547561
0.6655137
0.66554379
0.66556203
0.66557199
0.66557756
0.66558114
0.66558367
0.6655855
0.66558714
0.66558887
0.66559081
0.66559282
0.66559471
0.66559642
0.66559805
0.66559969
0.66560132
0.66560275
0.66560384
0.66560456
0.66560504
0.66560547
0.66560602
0.66560681
0.66560795
0.66560974
0.6656124
0.66561563
0.66561865
0.66562099
0.66562307
0.66562629
0.66563206
0.66564003
0.66564874
0.66565806
0.66547062
0.66544864
0.66546536
0.66550394
0.66553406
0.66555225
0.66556233
0.66556819
0.66557195
0.66557447
0.66557638
0.66557811
0.66558003
0.66558235
0.66558491
0.6655874
0.6655896
0.66559149
0.66559318
0.66559479
0.66559635
0.66559777
0.66559903
0.66560016
0.66560127
0.66560241
0.66560353
0.66560459
0.66560584
0.66560774
0.66561054
0.66561391
0.6656171
0.66561986
0.6656228
0.6656268
0.66563212
0.66563848
0.66564608
0.66565575
0.66566722
0.66567951
0.66545835
0.66543717
0.6654548
0.66549357
0.66552353
0.66554144
0.66555131
0.66555737
0.66556147
0.66556444
0.66556685
0.66556899
0.66557127
0.66557389
0.66557679
0.66557965
0.66558214
0.66558417
0.6655859
0.66558763
0.66558959
0.66559183
0.66559418
0.66559641
0.66559835
0.66559986
0.6656008
0.66560115
0.66560136
0.66560225
0.6656042
0.66560687
0.66560963
0.66561229
0.66561563
0.66562068
0.66562746
0.66563477
0.66564133
0.66564792
0.66565647
0.66566841
0.66568194
0.66569342
0.6654439
0.66542365
0.66544214
0.66548123
0.66551095
0.66552843
0.66553787
0.66554349
0.66554769
0.66555113
0.66555397
0.66555653
0.66555902
0.66556166
0.66556447
0.66556736
0.66557013
0.66557259
0.66557489
0.66557733
0.66558017
0.66558343
0.66558678
0.66558974
0.66559195
0.66559334
0.66559409
0.66559448
0.66559486
0.66559589
0.66559793
0.66560055
0.66560326
0.66560643
0.66561077
0.66561643
0.66562275
0.6656296
0.66563734
0.66564561
0.66565578
0.66566522
0.66567425
0.66568518
0.66569453
0.66571959
0.66571852
0.66542655
0.66540691
0.66542629
0.66546606
0.66549611
0.66551366
0.66552319
0.66552896
0.66553326
0.66553689
0.66554021
0.66554314
0.66554577
0.66554826
0.66555069
0.66555331
0.66555618
0.6655592
0.66556228
0.66556545
0.66556878
0.66557217
0.66557534
0.665578
0.66558006
0.66558173
0.66558334
0.6655852
0.66558743
0.66559012
0.66559346
0.66559733
0.66560128
0.6656054
0.66561041
0.66561644
0.66562248
0.66562705
0.66563044
0.66563791
0.66564861
0.66566174
0.66567366
0.66568239
0.66569143
0.66571923
0.6657158
0.66578167
0.66571792
0.66541094
0.66539086
0.66541019
0.66544994
0.66548008
0.66549785
0.66550761
0.66551387
0.66551857
0.66552266
0.66552659
0.66553013
0.66553342
0.66553628
0.66553878
0.66554126
0.66554407
0.66554731
0.66555073
0.66555396
0.66555676
0.66555913
0.66556124
0.66556342
0.66556603
0.6655694
0.66557364
0.6655785
0.66558354
0.66558831
0.66559268
0.66559683
0.66560078
0.66560443
0.66560862
0.66561432
0.66562089
0.66562707
0.66563292
0.66563834
0.66564586
0.66565542
0.66566545
0.66568001
0.66568931
0.66571212
0.6657145
0.66578112
0.66571074
0.66539434
0.66537406
0.66539311
0.66543236
0.66546188
0.66547921
0.66548865
0.66549441
0.66549897
0.6655032
0.66550715
0.6655111
0.66551506
0.66551876
0.66552208
0.66552514
0.66552836
0.66553198
0.66553578
0.6655392
0.66554178
0.66554369
0.66554566
0.6655486
0.66555305
0.66555896
0.66556566
0.66557219
0.66557784
0.66558262
0.66558708
0.66559181
0.66559703
0.66560228
0.66560697
0.66561137
0.66561605
0.66562214
0.66563213
0.66564316
0.6656513
0.66565704
0.66566394
0.66567384
0.66568525
0.66571601
0.66570985
0.66577818
0.66570659
0.66537367
0.66535387
0.66537342
0.66541279
0.66544204
0.66545917
0.66546851
0.66547406
0.66547824
0.66548201
0.66548562
0.6654895
0.66549361
0.66549774
0.66550165
0.6655052
0.66550861
0.66551227
0.66551614
0.66551982
0.66552306
0.66552614
0.66552995
0.66553532
0.66554232
0.66555003
0.66555713
0.66556279
0.66556709
0.66557099
0.66557575
0.66558212
0.66558973
0.66559737
0.66560397
0.66560974
0.66561587
0.66562216
0.66562739
0.66563258
0.6656407
0.66565617
0.66567126
0.66568018
0.66568838
0.66571608
0.66570312
0.66577766
0.66570022
0.66535542
0.66533563
0.66535557
0.66539497
0.66542402
0.66544113
0.6654508
0.6654568
0.66546125
0.66546501
0.66546856
0.66547241
0.66547643
0.66548051
0.66548447
0.66548805
0.66549123
0.66549444
0.66549798
0.66550195
0.66550635
0.66551136
0.66551735
0.66552439
0.66553197
0.66553919
0.66554533
0.66555029
0.6655548
0.66555995
0.66556652
0.66557452
0.66558299
0.66559073
0.66559777
0.66560538
0.66561429
0.66562366
0.6656313
0.66563706
0.66564425
0.66565125
0.66566189
0.66567395
0.66568086
0.66570729
0.665702
0.66577555
0.66568892
0.66534001
0.66532017
0.66534019
0.665379
0.66540695
0.66542299
0.66543205
0.66543793
0.66544236
0.66544611
0.6654498
0.66545383
0.66545803
0.6654623
0.6654665
0.66547042
0.66547402
0.66547751
0.66548132
0.66548592
0.66549141
0.66549768
0.66550444
0.66551135
0.66551797
0.66552401
0.66552957
0.6655352
0.6655416
0.66554924
0.6655578
0.66556645
0.66557451
0.66558169
0.6655882
0.66559497
0.66560413
0.66561849
0.66563486
0.66564429
0.66564497
0.66564673
0.66565429
0.66566504
0.66567112
0.66569749
0.66570012
0.66577487
0.66567919
0.6653211
0.66530163
0.66532213
0.66536069
0.66538772
0.66540266
0.66541079
0.66541618
0.66542023
0.66542367
0.66542706
0.6654307
0.66543459
0.66543864
0.66544278
0.66544693
0.66545109
0.6654553
0.66545988
0.66546528
0.6654716
0.66547859
0.66548577
0.66549263
0.66549892
0.66550481
0.66551076
0.66551741
0.66552515
0.66553394
0.6655433
0.66555275
0.6655624
0.66557269
0.66558304
0.66559203
0.66559851
0.66560232
0.66560672
0.66561665
0.66563231
0.66564709
0.66565888
0.66567128
0.66567985
0.66570271
0.66568636
0.66576728
0.6656645
0.66530154
0.6652818
0.66530269
0.66534152
0.66536854
0.66538352
0.66539177
0.66539737
0.66540178
0.6654053
0.6654084
0.66541154
0.66541482
0.66541836
0.66542211
0.66542616
0.66543043
0.66543487
0.66543959
0.66544487
0.66545091
0.66545753
0.66546441
0.66547124
0.66547779
0.66548426
0.66549109
0.6654987
0.66550748
0.66551747
0.66552817
0.66553902
0.66554987
0.66556109
0.66557264
0.66558372
0.66559424
0.66560382
0.66561045
0.66561433
0.6656201
0.66562975
0.66563848
0.66564966
0.66566295
0.66570224
0.66568032
0.66576582
0.66565283
0.6652863
0.6652656
0.66528611
0.66532457
0.66535145
0.66536648
0.66537496
0.6653809
0.66538571
0.66538959
0.66539293
0.6653962
0.66539978
0.66540372
0.66540786
0.66541227
0.6654168
0.66542135
0.66542594
0.66543076
0.665436
0.66544175
0.66544785
0.66545415
0.66546066
0.66546725
0.66547412
0.66548179
0.66549046
0.66550001
0.66550999
0.66552011
0.66553075
0.66554255
0.66555589
0.66557024
0.66558471
0.6655988
0.66561052
0.66561746
0.66562155
0.66562672
0.66563504
0.66564741
0.66565714
0.66569306
0.66567279
0.6657749
0.66563651
0.6652698
0.66524856
0.66526858
0.66530608
0.66533216
0.66534657
0.66535433
0.66535967
0.66536386
0.66536742
0.66537069
0.66537404
0.66537799
0.66538242
0.66538711
0.66539182
0.66539653
0.66540111
0.66540564
0.66541034
0.66541533
0.66542073
0.66542667
0.66543319
0.66544034
0.665448
0.6654558
0.66546398
0.66547303
0.66548268
0.66549234
0.66550181
0.66551169
0.66552262
0.6655342
0.66554586
0.66555757
0.66557002
0.66558402
0.66559871
0.66561315
0.66562768
0.66564163
0.66565461
0.66566403
0.66570172
0.66565472
0.6657762
0.66561758
0.66524559
0.66522458
0.66524497
0.6652824
0.66530822
0.66532246
0.66532998
0.66533478
0.66533851
0.66534151
0.66534427
0.66534736
0.66535109
0.66535547
0.66536011
0.66536464
0.66536899
0.66537323
0.66537747
0.66538184
0.66538644
0.66539138
0.66539705
0.66540389
0.6654118
0.66542051
0.66542967
0.66543899
0.66544881
0.6654594
0.66547035
0.66548155
0.66549338
0.66550618
0.66551942
0.66553195
0.66554306
0.66555196
0.6655591
0.66556713
0.66557803
0.66559195
0.66560887
0.66562758
0.66564372
0.66569728
0.66565247
0.66578457
0.66559565
0.66522011
0.66519964
0.66522098
0.66525887
0.66528501
0.6652995
0.66530744
0.6653125
0.66531638
0.66531956
0.66532252
0.66532581
0.6653298
0.6653344
0.66533902
0.66534341
0.66534751
0.66535142
0.66535523
0.66535888
0.66536249
0.66536643
0.66537129
0.66537765
0.66538531
0.66539347
0.6654018
0.66541036
0.66541934
0.66542945
0.66544119
0.66545441
0.66546909
0.66548508
0.66550179
0.66551817
0.6655334
0.66554665
0.66555732
0.66556711
0.66557793
0.66558898
0.66560092
0.6656149
0.66562937
0.66567007
0.66562108
0.66579903
0.66556875
0.66519833
0.66517814
0.66519982
0.6652371
0.66526248
0.66527632
0.66528371
0.66528872
0.66529258
0.66529615
0.66529984
0.66530366
0.66530819
0.66531307
0.66531792
0.66532263
0.6653273
0.66533193
0.66533619
0.66534009
0.66534406
0.66534886
0.66535495
0.66536216
0.66537007
0.66537795
0.66538506
0.66539142
0.66539758
0.66540447
0.66541334
0.66542457
0.66543753
0.6654517
0.66546717
0.66548419
0.66550278
0.66552246
0.66554192
0.66556019
0.66557749
0.66559402
0.66560909
0.66562358
0.66563304
0.66569331
0.66559783
0.66579423
0.66552929
0.66517188
0.66515213
0.66517434
0.665211
0.66523524
0.66524821
0.66525484
0.66525925
0.665263
0.66526654
0.66527003
0.66527369
0.66527774
0.66528186
0.66528612
0.66529061
0.66529545
0.6653005
0.6653053
0.6653097
0.66531442
0.6653204
0.66532782
0.66533606
0.66534444
0.66535264
0.66536046
0.66536771
0.665375
0.66538341
0.6653935
0.66540484
0.66541617
0.66542703
0.66543845
0.66545177
0.66546761
0.66548587
0.66550555
0.66552459
0.66554198
0.66556039
0.66558246
0.66560381
0.66561399
0.66569856
0.66559812
0.66584631
0.66548944
0.66514002
0.66512145
0.66514517
0.66518244
0.66520661
0.66521935
0.66522617
0.66523049
0.66523436
0.66523797
0.66524095
0.66524408
0.66524713
0.66525023
0.66525362
0.66525752
0.66526201
0.66526664
0.66527108
0.66527534
0.66527994
0.66528551
0.6652922
0.66529971
0.66530767
0.66531575
0.66532375
0.66533166
0.66534014
0.66535011
0.66536163
0.66537389
0.66538644
0.66539948
0.66541342
0.6654285
0.66544482
0.66546199
0.6654789
0.66549543
0.66551219
0.6655289
0.66554929
0.66557704
0.66558428
0.66567402
0.66553988
0.66591657
0.66542742
0.66511273
0.66509505
0.66511993
0.66515767
0.66518194
0.66519447
0.66520157
0.66520679
0.66521096
0.6652145
0.66521776
0.66522095
0.66522385
0.66522672
0.66522968
0.66523298
0.66523688
0.66524117
0.66524548
0.6652498
0.66525416
0.66525861
0.6652635
0.66526909
0.66527545
0.66528224
0.66528912
0.66529643
0.66530481
0.66531461
0.66532552
0.66533698
0.66534917
0.66536305
0.66537902
0.66539672
0.66541575
0.66543514
0.66545264
0.66546754
0.66548326
0.66550114
0.66552192
0.66555786
0.66556132
0.66566952
0.66547715
0.66593558
0.66538516
0.66509235
0.66507443
0.66509916
0.66513588
0.66515908
0.66517084
0.66517733
0.66518294
0.66518717
0.66519042
0.66519386
0.66519678
0.66519949
0.66520217
0.66520484
0.66520775
0.66521123
0.66521549
0.66522049
0.66522583
0.66523103
0.66523573
0.66524021
0.66524538
0.66525162
0.6652584
0.66526528
0.66527254
0.6652806
0.66528922
0.66529793
0.6653067
0.66531639
0.66532822
0.66534245
0.6653584
0.66537555
0.66539316
0.6654094
0.66542385
0.6654399
0.66546072
0.66548852
0.66552991
0.66551131
0.66573733
0.66539731
0.66584939
0.66539521
0.66507048
0.66505226
0.66507692
0.66511265
0.66513485
0.66514604
0.66515175
0.66515609
0.66515942
0.66516195
0.66516432
0.66516633
0.66516831
0.66517037
0.66517253
0.66517494
0.66517801
0.6651821
0.66518721
0.66519288
0.66519827
0.66520298
0.66520754
0.66521275
0.66521875
0.66522515
0.66523181
0.66523921
0.66524767
0.66525661
0.66526525
0.6652737
0.66528268
0.66529293
0.66530494
0.6653189
0.66533461
0.66535055
0.66536516
0.66537863
0.66539186
0.66540643
0.66542848
0.66547072
0.665415
0.66564796
0.66541321
0.66576418
0.6652842
0.6650462
0.66502849
0.66505415
0.66509019
0.66511198
0.66512249
0.6651272
0.66512997
0.66513178
0.66513298
0.66513392
0.66513508
0.66513673
0.66513832
0.66513994
0.66514192
0.6651448
0.66514878
0.66515357
0.66515842
0.66516272
0.66516652
0.66517047
0.66517491
0.66517938
0.66518348
0.66518793
0.66519377
0.66520118
0.66520917
0.66521672
0.66522427
0.66523286
0.66524233
0.6652527
0.66526523
0.66528024
0.66529634
0.6653127
0.66533074
0.66535096
0.66536882
0.6653928
0.66544608
0.66540256
0.66559966
0.66531709
0.66593908
0.66514796
0.66501859
0.66500159
0.66502818
0.66506469
0.66508593
0.6650954
0.66509888
0.66509994
0.66510067
0.66510139
0.66510227
0.66510325
0.665104
0.66510483
0.66510588
0.66510778
0.66511066
0.66511414
0.66511767
0.66512061
0.66512289
0.66512496
0.66512723
0.66512984
0.66513253
0.66513508
0.665138
0.66514163
0.66514552
0.66514956
0.66515416
0.66515955
0.66516589
0.66517277
0.66518013
0.66518885
0.66519995
0.66521337
0.66522816
0.6652447
0.66526424
0.66528435
0.66530006
0.66536733
0.66533096
0.66548724
0.66519389
0.6656059
0.66507673
0.66500661
0.66498943
0.66501559
0.66505178
0.66507151
0.66508022
0.66508339
0.66508424
0.66508482
0.66508567
0.66508642
0.66508697
0.66508725
0.6650876
0.66508848
0.66509027
0.66509258
0.66509496
0.66509711
0.66509858
0.66509941
0.66510015
0.66510123
0.66510303
0.66510578
0.66510903
0.66511162
0.66511305
0.66511414
0.66511616
0.66511962
0.66512388
0.6651283
0.66513331
0.66513883
0.66514507
0.66515328
0.66516366
0.66517636
0.66519223
0.66521305
0.66523949
0.6652637
0.66534498
0.66529024
0.66561551
0.66517153
0.66618086
0.66498519
)
;

boundaryField
{
    Side
    {
        type            empty;
    }
    Inlet
    {
        type            calculated;
        value           nonuniform List<scalar> 
21
(
0.66575235
0.66574804
0.66574324
0.66573759
0.66573259
0.66572828
0.66572365
0.66571862
0.66571435
0.66571077
0.66570686
0.66570295
0.66570089
0.66570069
0.66570792
0.66570849
0.66568951
0.66563106
0.66558888
0.66555623
0.66555138
)
;
    }
    Airfoil
    {
        type            calculated;
        value           nonuniform List<scalar> 0();
    }
    Outlet
    {
        type            calculated;
        value           nonuniform List<scalar> 
49
(
0.66498487
0.66496504
0.66498987
0.66502336
0.66504269
0.66505146
0.66505534
0.66505748
0.66505894
0.66505987
0.66506039
0.66506086
0.66506142
0.66506196
0.66506229
0.6650623
0.66506217
0.66506208
0.66506216
0.66506262
0.66506348
0.66506452
0.66506559
0.66506654
0.66506729
0.66506797
0.6650689
0.66507014
0.66507128
0.6650719
0.6650719
0.66507157
0.6650713
0.66507119
0.66507135
0.66507182
0.66507226
0.6650727
0.66507336
0.66507453
0.66507656
0.66507984
0.66508407
0.66510014
0.66508809
0.66513567
0.66503692
0.66520435
0.6649388
)
;
    }
    procBoundary6to5
    {
        type            processor;
        value           nonuniform List<scalar> 
61
(
0.66554227
0.66551199
0.66551844
0.66555464
0.66558646
0.66560387
0.66560387
0.66561435
0.66561979
0.66562311
0.66562572
0.66562486
0.66562486
0.66562637
0.66562732
0.66562772
0.66562779
0.66562475
0.66562475
0.66562513
0.6656257
0.66562639
0.66562708
0.66562428
0.66562428
0.66562437
0.66562447
0.66562487
0.66562575
0.66562204
0.66562204
0.66562403
0.66562656
0.66562953
0.66562633
0.66562633
0.66563033
0.66563443
0.6656385
0.66563614
0.66563614
0.66564125
0.6656474
0.66565079
0.66565079
0.66565797
0.66566367
0.66566776
0.66566776
0.66567615
0.66568501
0.66569136
0.66569136
0.66569942
0.66570304
0.66570304
0.66572921
0.66572504
0.66578325
0.66578325
0.66572272
)
;
    }
    procBoundary6to12
    {
        type            processor;
        value           uniform 0.66554252;
    }
    procBoundary6to13
    {
        type            processor;
        value           nonuniform List<scalar> 
34
(
0.66551111
0.6655389
0.6655389
0.66553377
0.66552819
0.66552234
0.66551394
0.66550499
0.66549703
0.66548597
0.66547228
0.66545981
0.66544517
0.66542748
0.66541191
0.66539543
0.66537408
0.66535515
0.66533974
0.66532091
0.66530148
0.6652871
0.66527188
0.66524828
0.66522277
0.66520083
0.66517466
0.66514237
0.66511381
0.66509317
0.66507152
0.66504672
0.66501867
0.66500713
)
;
    }
}


// ************************************************************************* //
