/*--------------------------------*- C++ -*----------------------------------*\
| =========                 |                                                 |
| \\      /  F ield         | OpenFOAM: The Open Source CFD Toolbox           |
|  \\    /   O peration     | Version:  2506                                  |
|   \\  /    A nd           | Website:  www.openfoam.com                      |
|    \\/     M anipulation  |                                                 |
\*---------------------------------------------------------------------------*/
FoamFile
{
    version     2.0;
    format      ascii;
    arch        "LSB;label=32;scalar=64";
    class       volScalarField;
    location    "2.75";
    object      omega;
}
// * * * * * * * * * * * * * * * * * * * * * * * * * * * * * * * * * * * * * //

dimensions      [0 0 -1 0 0 0 0];

internalField   nonuniform List<scalar> 
1375
(
39.75021
39.556596
39.380417
39.220701
39.077051
38.94896
38.835664
38.738692
38.658821
38.603505
38.555859
38.560637
38.594076
38.681002
38.849154
39.141571
39.634268
40.462093
41.876712
44.411672
48.531104
55.13497
66.868286
97.541733
251.91189
1128.7288
58.924987
56.495318
54.405813
52.604569
51.041538
49.675977
48.475829
47.415618
46.474831
45.636707
44.887331
44.215366
43.611231
43.066512
42.574196
42.128326
41.72396
41.356705
41.022361
40.717519
40.439735
40.186489
39.955203
39.743584
39.550387
39.374494
39.215014
39.071655
38.943783
38.830569
38.733726
38.653923
38.59841
38.549346
38.552604
38.582952
38.664734
38.824614
39.104205
39.576296
40.371999
41.730172
44.161523
48.192031
54.63589
65.988321
94.955457
239.81284
1129.4965
58.907872
56.453108
54.347454
52.536358
50.967833
49.599827
48.39952
47.340721
46.402187
45.567037
44.82105
44.152676
43.55218
43.011086
42.522365
42.08001
41.679047
41.315077
40.983886
40.682065
40.407143
40.156507
39.927564
39.718157
39.527021
39.352928
39.195058
39.053186
38.926498
38.814176
38.718086
38.638802
38.583414
38.534035
38.536573
38.56542
38.64379
38.797132
39.06635
39.524167
40.2942
41.61154
43.935684
47.874909
54.226209
65.381177
93.017511
234.31976
1132.4065
58.879081
56.381621
54.24841
52.42067
50.843149
49.471195
48.270492
47.213996
46.279349
45.449134
44.708859
44.046612
43.452325
42.917428
42.434818
41.998398
41.603151
41.244608
40.918568
40.621693
40.351478
40.105216
39.880327
39.674837
39.487396
39.316665
39.161967
39.023115
38.899127
38.78933
38.695813
38.619027
38.565942
38.520298
38.524959
38.557262
38.640157
38.798738
39.07531
39.541267
40.325649
41.641565
44.013893
47.963855
54.265248
65.264222
93.981263
231.56959
1137.4875
58.838377
56.280715
54.109297
52.258824
50.669449
49.292908
48.09256
47.03952
46.110463
45.287308
44.555065
43.901325
43.315654
42.78935
42.315152
41.886893
41.499471
41.148326
40.829315
40.539176
40.275331
40.035005
39.815689
39.615583
39.433158
39.266989
39.116643
38.981944
38.861786
38.755789
38.666225
38.593513
38.544137
38.505564
38.513562
38.551928
38.642501
38.814543
39.10751
39.600485
40.408563
41.819786
44.268415
48.307104
54.650758
66.311907
93.137165
234.54881
1144.5279
58.785291
56.150285
53.930803
52.052494
50.4492
49.067968
47.869005
46.82121
45.900146
45.08641
44.364476
43.721486
43.146642
42.631099
42.167402
41.749315
41.371617
41.02969
40.719416
40.43759
40.181555
39.948489
39.735983
39.54243
39.366113
39.205634
39.060823
38.931349
38.815928
38.714648
38.629839
38.562031
38.517243
38.48702
38.499132
38.543864
38.646242
38.826592
39.143891
39.665667
40.5376
41.978618
44.501598
48.637006
55.411179
66.339398
97.617727
244.67376
1153.2758
58.719313
55.990397
53.714086
51.804432
50.186318
48.80106
47.604925
46.564465
45.653514
44.851595
44.142276
43.512193
42.950251
42.447457
41.996131
41.589937
41.223577
40.892415
40.592305
40.320113
40.073116
39.848508
39.643987
39.458025
39.288681
39.134785
38.996411
38.872924
38.762995
38.66724
38.587851
38.525925
38.485778
38.46542
38.481222
38.534425
38.641758
38.844999
39.179773
39.708843
40.619726
42.133206
44.867428
49.143348
55.651475
68.541552
96.185644
243.16928
1163.3693
58.640091
55.801122
53.460496
51.517193
49.884501
48.496831
47.305865
46.275119
45.376682
44.588815
43.89429
43.27915
42.732024
42.243686
41.806314
41.413489
41.059842
40.740701
40.451947
40.190523
39.953525
39.738251
39.54256
39.364944
39.203259
39.056691
38.925367
38.808323
38.704441
38.614791
38.541511
38.486166
38.44969
38.442211
38.462871
38.522693
38.64651
38.855617
39.198462
39.803345
40.787171
42.339602
45.078795
49.573311
57.001842
68.267289
101.80462
255.52423
1174.6955
58.547087
55.582918
53.172439
51.194636
49.548879
48.161149
46.978008
45.959561
45.076073
44.304509
43.626771
43.028342
42.497631
42.025154
41.603002
41.224739
40.884905
40.578766
40.302236
40.052261
39.825912
39.62065
39.434411
39.265573
39.111946
38.973279
38.849453
38.739162
38.641755
38.558676
38.491855
38.443811
38.411176
38.416074
38.44365
38.513567
38.644312
38.869232
39.259053
39.881502
40.839741
42.468786
45.355535
50.262705
57.155553
71.153543
100.7633
253.994
1186.7929
58.439684
55.33596
52.851969
50.840849
49.184934
47.800381
46.627887
45.624468
44.758279
44.005052
43.345809
42.765594
42.252592
41.797048
41.391112
41.028289
40.702969
40.410385
40.146623
39.908607
39.693413
39.498582
39.32227
39.16253
39.017369
38.886963
38.770757
38.667426
38.576988
38.500944
38.440815
38.399995
38.374685
38.386829
38.424784
38.505113
38.647201
38.908375
39.309811
39.942005
40.972986
42.811556
45.813764
50.57131
58.774241
71.042109
102.86829
273.84161
1199.4029
58.317985
55.063042
52.503907
50.461728
48.798986
47.421036
46.262372
45.2766
44.42986
43.696632
43.05729
42.496364
42.001958
41.564231
41.175203
40.828256
40.517828
40.239168
39.98856
39.762748
39.55898
39.374726
39.208402
39.057812
38.921339
38.799328
38.690813
38.594666
38.511434
38.442601
38.389149
38.355736
38.340103
38.356999
38.405519
38.496898
38.670152
38.926759
39.342691
40.040911
41.21212
42.974905
46.279282
51.825346
59.1351
74.396315
110.40186
273.08052
1212.18
58.18065
54.763413
52.130511
50.062113
48.39729
47.029919
45.888203
44.922383
44.09684
43.384796
42.766388
42.225683
41.750472
41.330976
40.959095
40.628207
40.332855
40.06831
39.830829
39.617234
39.424925
39.251275
39.094876
38.95339
38.825672
38.711906
38.610952
38.522156
38.446216
38.384355
38.337628
38.310744
38.307599
38.329293
38.3882
38.497735
38.66818
38.956357
39.465277
40.19745
41.32015
43.275029
46.771701
51.770508
60.598573
74.868784
110.28982
288.40847
1224.9255
58.029149
54.442778
51.738622
49.648809
47.986876
46.633821
45.511781
44.567889
43.764829
43.075062
42.478119
41.957958
41.502149
41.100862
40.746076
40.43131
40.150847
39.900241
39.675685
39.474308
39.29326
39.130031
38.983372
38.850859
38.731682
38.625953
38.532488
38.450933
38.382055
38.326941
38.287497
38.267208
38.274597
38.305154
38.373756
38.488913
38.692681
39.008547
39.480763
40.234438
41.472554
43.768552
46.901641
53.182158
61.778845
77.00726
116.22393
307.85992
1237.5368
57.862714
54.101878
51.332325
49.22784
47.57394
46.238748
45.138715
44.218298
43.438596
42.771642
42.196365
41.696803
41.260275
40.876986
40.53901
40.240154
39.974227
39.737043
39.525163
39.33562
39.165313
39.012279
38.874995
38.75127
38.640509
38.542397
38.456118
38.381732
38.319786
38.271215
38.238965
38.226615
38.242033
38.282278
38.356354
38.498398
38.704182
39.063172
39.630601
40.517896
41.918979
43.821331
48.179102
53.655643
63.818439
80.176992
118.79652
313.62827
1250.0332
57.681324
53.745022
50.917366
48.805434
47.164536
45.850338
44.774156
43.878179
43.122238
42.478149
41.924375
41.444994
41.027337
40.661643
40.340092
40.056314
39.804454
39.58046
39.380611
39.2022
39.04243
38.899112
38.770455
38.655086
38.552556
38.461934
38.382457
38.314615
38.259337
38.217621
38.192331
38.188577
38.20965
38.260401
38.350006
38.497575
38.758772
39.126148
39.644924
40.527765
41.870579
44.45339
48.007609
54.718726
64.643705
82.493009
128.70351
347.65399
1262.6927
57.488749
53.379337
50.501529
48.388468
46.764581
45.473647
44.422428
43.55123
42.819016
42.197423
41.664659
41.204803
40.805388
40.456598
40.150783
39.881307
39.642747
39.43133
39.242919
39.075064
38.925028
38.790786
38.670462
38.563204
38.468309
38.384492
38.311938
38.250711
38.200947
38.165696
38.146648
38.152024
38.181814
38.240831
38.34036
38.49959
38.746184
39.19457
39.882111
40.775955
42.485694
44.581775
49.502317
56.454777
68.201164
86.019306
129.64395
351.89382
1275.8854
57.272548
52.9963
50.083584
47.978721
46.376367
45.110791
44.085335
43.239063
42.530431
41.930687
41.418256
40.977204
40.595186
40.262421
39.971487
39.715561
39.489668
39.289844
39.112128
38.95423
38.813522
38.687856
38.575355
38.475665
38.387459
38.310653
38.24439
38.188472
38.145326
38.116726
38.103829
38.117515
38.154596
38.221777
38.335195
38.512579
38.889527
39.345978
39.869558
40.869
42.468921
45.135789
49.272435
57.029085
70.274617
91.18462
142.80918
405.02436
1290.3763
57.083118
52.644618
49.68997
47.591657
46.010867
44.770236
43.769712
42.947162
42.260788
41.681516
41.188035
40.764604
40.398729
40.080834
39.803521
39.560132
39.34597
39.156848
38.988954
38.84023
38.708189
38.59043
38.485149
38.392274
38.310551
38.240035
38.179897
38.12908
38.091626
38.069011
38.063535
38.083767
38.127423
38.204723
38.325572
38.525197
38.823477
39.442751
40.261167
41.241311
42.859987
45.562227
51.77225
59.061246
69.603949
95.165617
143.83717
404.48446
1306.5509
56.72366
52.166259
49.250108
47.187945
45.640121
44.430552
43.458498
42.661703
41.99869
41.440462
40.966048
40.56009
40.210038
39.906623
39.642513
39.411249
39.20821
39.029325
38.870964
38.731016
38.606786
38.496208
38.397992
38.312044
38.236354
38.171218
38.116618
38.071395
38.03959
38.022746
38.024419
38.050742
38.102579
38.188114
38.33512
38.549791
39.187451
39.910423
40.250338
41.302846
43.415097
46.783817
51.380021
61.714831
79.134365
108.93081
152.33651
444.90984
1325.5596
56.808644
52.017075
48.996892
46.917648
45.374843
44.177134
43.219387
42.437346
41.788948
41.244688
40.783498
40.389981
40.051425
39.758895
39.504906
39.282935
39.088698
38.917807
38.766953
38.634382
38.516327
38.411939
38.319235
38.238194
38.168107
38.107586
38.056987
38.016383
37.989265
37.977245
37.985042
38.013417
38.075888
38.181812
38.328357
38.572351
39.103375
39.88365
41.671043
41.978544
43.388441
46.745887
52.284856
65.302839
79.642559
117.86606
151.76211
439.65935
1348.0202
1370.5878
463.87745
162.61678
118.12226
79.028793
69.422394
56.872581
47.1942
44.59712
42.333604
41.546238
40.650766
39.51741
38.598247
38.332276
38.178177
38.062805
37.988333
37.949156
37.932597
37.938476
37.959377
37.993387
38.038788
38.093246
38.157051
38.231097
38.316533
38.413653
38.523204
38.646475
38.78734
38.94725
39.129281
39.337955
39.577277
39.853138
40.173176
40.545717
40.983131
41.50039
42.11743
42.862805
43.776739
44.921193
46.397155
48.389151
51.294833
55.926248
1401.0092
496.76258
185.09991
119.83318
79.725938
80.841879
61.382059
48.213037
45.070433
42.685696
41.620641
41.765436
39.753534
38.644558
38.369685
38.175316
38.049452
37.964335
37.916097
37.891508
37.889533
37.903238
37.931128
37.97069
38.01886
38.076483
38.144569
38.222685
38.311333
38.412455
38.526979
38.657515
38.806466
38.976404
39.171586
39.396302
39.655369
39.956736
40.308289
40.721658
41.211688
41.797207
42.505574
43.375335
44.466036
45.874374
47.777434
50.558575
55.000071
1432.1225
494.36247
185.13473
125.52079
88.428862
86.742196
62.130824
50.23364
45.515771
43.656196
42.146712
41.691093
39.657644
38.739218
38.385455
38.178463
38.035754
37.942684
37.883399
37.850062
37.839905
37.847716
37.869784
37.904029
37.946891
37.998792
38.060051
38.130231
38.211879
38.305236
38.411163
38.531881
38.670472
38.82915
39.011603
39.222025
39.465398
39.749095
40.08089
40.471657
40.935942
41.491758
42.16536
42.993797
44.034134
45.379218
47.199311
49.862435
54.124243
1463.6284
491.1277
187.89548
149.49435
113.05348
88.277265
62.597911
52.406364
45.82048
43.61546
42.217302
41.827935
40.178562
38.79595
38.432696
38.174741
38.027155
37.920726
37.850866
37.809962
37.792339
37.793682
37.810738
37.839152
37.875862
37.92186
37.976653
38.041462
38.116109
38.201022
38.298941
38.410489
38.539377
38.687127
38.857496
39.054544
39.283259
39.550304
39.863511
40.23312
40.673276
41.201306
41.842445
42.632438
43.625938
44.912358
46.655681
49.20971
53.307538
1495.6329
514.53356
194.08469
167.42829
116.90325
89.749268
62.407913
51.882737
45.645055
43.85641
42.6079
43.31873
40.252048
38.997076
38.552825
38.184458
38.011537
37.900297
37.824602
37.773613
37.748334
37.743628
37.752973
37.774482
37.806395
37.847537
37.896798
37.954721
38.02234
38.100066
38.190309
38.293553
38.412735
38.550074
38.709164
38.893752
39.10853
39.359967
39.655685
40.005499
40.423011
40.925094
41.535932
42.290146
43.240124
44.472333
46.144909
48.598428
52.547287
1528.5734
526.47802
205.30195
163.85949
109.47139
88.24183
62.111202
52.349814
47.148543
44.523857
43.614326
43.953116
40.277384
39.088664
38.537652
38.230201
38.000211
37.879633
37.791609
37.733578
37.70126
37.690052
37.693613
37.711388
37.739071
37.775286
37.818307
37.869481
37.9308
38.002331
38.08501
38.180137
38.290292
38.417835
38.566366
38.739164
38.940828
39.177586
39.456888
39.788171
40.184432
40.66226
41.244848
41.965723
42.875222
44.057211
45.664544
48.025426
51.839233
98.729944
87.827202
63.447014
52.911574
47.40949
44.61855
43.879321
44.398396
40.591067
39.080076
38.560711
38.246562
38.005417
37.851721
37.756562
37.691383
37.654204
37.638701
37.63739
37.649367
37.67211
37.702646
37.740308
37.787477
37.842308
37.907096
37.982763
38.070081
38.171897
38.290369
38.428868
38.590352
38.779619
39.002712
39.266563
39.580428
39.956871
40.411965
40.968204
41.65795
42.529966
43.665357
45.2121
47.487458
51.179019
41.271008
39.20042
38.712429
38.250779
38.003743
37.853882
37.741111
37.666111
37.619431
37.594747
37.583831
37.589488
37.607701
37.63257
37.665372
37.70693
37.75692
37.814702
37.883569
37.963593
38.057344
38.167697
38.296129
38.446961
38.624517
38.834876
39.084236
39.381692
39.739609
40.173428
40.705092
41.365817
42.202973
43.295075
44.785647
46.981921
50.562631
37.527858
37.528872
37.543148
37.565164
37.592474
37.628232
37.672377
37.72478
37.787067
37.860224
37.946546
38.048568
38.167706
38.308687
38.475614
38.673702
38.909382
39.191489
39.531966
39.94592
40.454622
41.088276
41.892946
42.944795
44.383298
46.506331
49.98734
38.043523
38.175297
38.33218
38.518653
38.741489
39.009256
39.33336
39.7287
40.215949
40.82434
41.598713
42.613101
44.003208
46.058291
49.448157
)
;

boundaryField
{
    Side
    {
        type            empty;
    }
    Inlet
    {
        type            fixedValue;
        value           uniform 60.24606;
    }
    Airfoil
    {
        type            omegaWallFunction;
        blending        binomial;
        n               2;
        value           nonuniform List<scalar> 
26
(
1128.7288
1129.4965
1132.4065
1137.4875
1144.5279
1153.2758
1163.3693
1174.6955
1186.7929
1199.4029
1212.18
1224.9255
1237.5368
1250.0332
1262.6927
1275.8854
1290.3763
1306.5509
1325.5596
1348.0202
1370.5878
1401.0092
1432.1225
1463.6284
1495.6329
1528.5734
)
;
    }
    Outlet
    {
        type            inletOutlet;
        inletValue      nonuniform List<scalar> 0();
        value           nonuniform List<scalar> 0();
    }
    procBoundary0to1
    {
        type            processor;
        value           nonuniform List<scalar> 
53
(
1561.9363
529.66975
210.09117
152.51508
152.51508
94.801058
91.003457
66.012796
53.013284
49.312107
45.12199
43.834882
44.951463
44.951463
41.797897
39.846664
38.771718
38.298423
38.024863
37.823364
37.700508
37.628166
37.574285
37.542931
37.542931
37.470083
37.467682
37.478456
37.495961
37.519932
37.551346
37.589266
37.636341
37.692614
37.759147
37.838584
37.93283
37.93283
37.92335
38.046507
38.193796
38.369505
38.580255
38.834571
39.143324
39.521202
39.988347
40.573153
41.319233
42.298693
43.643739
45.635627
48.941278
)
;
    }
    procBoundary0to7
    {
        type            processor;
        value           nonuniform List<scalar> 
50
(
39.743019
39.549739
39.373869
39.214377
39.070748
38.942541
38.829093
38.731732
38.651191
38.594984
38.545109
38.548075
38.578408
38.66038
38.820868
39.101676
39.575456
40.369954
41.731051
44.16426
48.197582
54.632176
66.06945
94.790771
241.65028
1129.526
58.930614
56.508616
54.423665
52.624941
51.063082
49.697759
48.497358
47.436645
46.495065
45.656116
44.906039
44.233241
43.62804
43.082101
42.588558
42.141494
41.735997
41.367686
41.032377
40.72666
40.448068
40.194157
39.962325
39.962325
)
;
    }
}


// ************************************************************************* //
