/*--------------------------------*- C++ -*----------------------------------*\
| =========                 |                                                 |
| \\      /  F ield         | OpenFOAM: The Open Source CFD Toolbox           |
|  \\    /   O peration     | Version:  2506                                  |
|   \\  /    A nd           | Website:  www.openfoam.com                      |
|    \\/     M anipulation  |                                                 |
\*---------------------------------------------------------------------------*/
FoamFile
{
    version     2.0;
    format      ascii;
    arch        "LSB;label=32;scalar=64";
    class       volScalarField;
    location    "1.45";
    object      yPlus;
}
// * * * * * * * * * * * * * * * * * * * * * * * * * * * * * * * * * * * * * //

dimensions      [0 0 0 0 0 0 0];

internalField   uniform 0;

boundaryField
{
    Side
    {
        type            empty;
    }
    Inlet
    {
        type            calculated;
        value           uniform 0;
    }
    Airfoil
    {
        type            calculated;
        value           nonuniform List<scalar> 
117
(
801.73714
793.01848
788.85993
786.54938
787.66048
790.66764
795.69639
802.11107
809.53254
817.77285
826.56742
835.8471
844.99223
853.95346
862.23015
869.60326
875.9969
880.8722
883.9979
885.09497
883.95488
880.83403
875.85951
869.45611
861.96656
853.62299
844.7227
835.51232
826.33392
817.55473
809.30542
801.9393
795.50201
790.65172
787.62986
786.61049
789.52234
793.70011
806.63859
1442.9799
1421.2722
1421.643
1413.1817
1401.9808
1393.1521
1383.5028
1377.5723
1347.0664
1325.2951
1294.0866
1279.9225
1260.8214
1247.9727
1210.5416
1191.6905
1167.9475
1143.2772
1117.3229
1097.7374
1078.5821
1059.6
1032.3711
1013.454
990.48602
969.27127
948.91667
930.32148
911.8227
894.83602
878.82869
865.01549
852.85716
840.80069
830.64087
821.5347
815.87014
812.39766
810.26608
806.47085
809.93396
817.31596
824.28953
832.57864
844.63252
856.63793
869.30391
884.77074
901.0118
917.62207
936.43876
956.44397
976.52565
999.44322
1021.3463
1044.7434
1066.9948
1091.9629
1119.2617
1140.5582
1173.0765
1183.327
1196.3513
1210.3076
1239.6159
1261.0931
1301.1882
1311.2228
1328.6585
1336.9212
1356.8053
1373.6747
1394.6035
1409.0005
1420.0064
1432.6387
1434.1266
1451.0044
)
;
    }
    Outlet
    {
        type            calculated;
        value           uniform 0;
    }
}


// ************************************************************************* //
