/*--------------------------------*- C++ -*----------------------------------*\
| =========                 |                                                 |
| \\      /  F ield         | OpenFOAM: The Open Source CFD Toolbox           |
|  \\    /   O peration     | Version:  2506                                  |
|   \\  /    A nd           | Website:  www.openfoam.com                      |
|    \\/     M anipulation  |                                                 |
\*---------------------------------------------------------------------------*/
FoamFile
{
    version     2.0;
    format      ascii;
    arch        "LSB;label=32;scalar=64";
    class       volScalarField;
    location    "1.7";
    object      omega;
}
// * * * * * * * * * * * * * * * * * * * * * * * * * * * * * * * * * * * * * //

dimensions      [0 0 -1 0 0 0 0];

internalField   nonuniform List<scalar> 
1376
(
41.68015
38.237235
33.723526
29.973906
40.875828
37.464933
33.051068
29.41538
26.79423
24.964672
23.688614
22.798674
22.184841
21.771614
40.098877
36.709773
32.394962
28.872778
26.346266
24.589033
23.368077
22.520853
21.940402
21.553059
21.304757
21.154638
21.072405
21.035137
21.02422
39.347933
35.975614
31.758854
28.348149
25.913867
24.226882
23.059323
22.253298
21.704784
21.341945
21.112053
20.97547
20.902832
20.871746
20.863717
20.866001
20.885274
20.914099
20.9482
38.622545
35.268928
31.148675
27.845045
25.498714
23.878799
22.762366
21.995772
21.477674
21.137969
20.925268
20.801168
20.73722
20.71147
20.705632
20.710614
20.732425
20.762297
20.797093
20.835888
20.878091
20.923371
20.97159
37.922933
34.595826
30.569886
27.366832
25.102503
23.545405
22.477186
21.747923
21.258592
20.94065
20.743986
20.631393
20.575275
20.55409
20.550031
20.55802
20.581851
20.612595
20.647979
20.687197
20.72972
20.775249
20.823668
20.874994
20.929352
20.986957
21.048095
37.249761
33.959437
30.024769
26.914778
24.725765
23.226674
22.203358
21.509084
21.046791
20.749277
20.567599
20.465654
20.416596
20.399369
20.39688
20.408022
20.433463
20.464952
20.500832
20.540393
20.583161
20.628875
20.677434
20.728865
20.783294
20.840936
20.902075
20.967072
21.036364
21.110446
36.604284
33.360163
29.512865
26.488377
24.368086
22.922142
21.940279
21.278545
20.841524
20.563153
20.395509
20.303442
20.260778
20.2471
20.246062
20.260396
20.287147
20.319296
20.355606
20.39544
20.438385
20.484215
20.532852
20.58433
20.638785
20.696427
20.75754
20.822478
20.891673
20.96562
21.044882
21.130081
21.221935
35.987434
32.795278
29.031099
26.085607
24.028377
22.631179
21.687448
21.055793
20.642264
20.381773
20.227261
20.144372
20.107568
20.097008
20.097493
20.114929
20.142772
20.175526
20.212217
20.252275
20.295342
20.341235
20.389893
20.441368
20.495796
20.553395
20.614446
20.679299
20.748375
20.822157
20.901205
20.986141
21.07768
21.176674
21.284152
35.398504
32.258943
28.574298
25.703398
23.705192
22.353229
21.444665
20.840702
20.448851
20.204934
20.062633
19.988259
19.956804
19.948706
19.95128
19.971425
20.000207
20.033522
20.070562
20.110808
20.153959
20.199868
20.248503
20.299929
20.354294
20.411812
20.472763
20.537494
20.606412
20.679997
20.758801
20.843442
20.934638
21.033232
21.140228
21.256844
21.384579
21.525248
34.834648
31.743766
28.136654
25.338604
23.397364
22.088245
21.21235
20.633763
20.261662
20.032849
19.901706
19.835093
19.808369
19.802225
19.807366
19.829748
19.859346
19.893178
19.930535
19.970945
20.014153
20.060048
20.108625
20.159965
20.214224
20.271621
20.332437
20.397011
20.465739
20.53909
20.617609
20.701916
20.792738
20.890904
20.99739
21.113375
21.240305
21.379948
21.5345
21.706683
34.290928
31.241544
27.711806
24.987418
23.103123
21.835799
20.99081
20.43555
20.081247
19.865922
19.744719
19.684968
19.662287
19.657746
19.665671
19.689834
19.720133
19.754425
19.792063
19.832612
19.875853
19.921708
19.970197
20.021419
20.075539
20.132781
20.193424
20.257801
20.326302
20.399382
20.477582
20.561515
20.651914
20.749597
20.855526
20.970844
21.096944
21.235543
21.388808
21.559447
21.750928
21.967667
33.761946
30.745736
27.294134
24.645568
22.819552
21.594175
20.779252
20.245861
19.907694
19.704318
19.591798
19.537941
19.51863
19.515443
19.526113
19.551653
19.582542
19.617225
19.655099
19.695759
19.739013
19.784807
19.833182
19.884256
19.938205
19.995257
20.05569
20.119833
20.188068
20.260838
20.338673
20.422184
20.512101
20.609243
20.714552
20.829145
20.954377
21.091927
21.243906
21.412991
21.602626
21.817147
22.061613
33.244462
30.255453
26.882231
24.310843
22.544167
21.361175
20.576051
20.063664
19.74043
19.547749
19.4428
19.393938
19.377423
19.375405
19.388637
19.41522
19.44658
19.481569
19.519617
19.56035
19.603595
19.649314
19.697562
19.748465
19.80221
19.859034
19.919219
19.983087
20.051012
20.123428
20.200852
20.283893
20.373269
20.469799
20.574417
20.688232
20.812559
20.949032
21.099721
21.267267
21.455054
21.667304
21.908876
22.18439
22.497156
32.737979
29.773665
26.477219
23.982129
22.274574
21.134074
20.378778
19.887115
19.578223
19.395468
19.29729
19.252726
19.238585
19.237612
19.253174
19.280543
19.312272
19.347482
19.385639
19.426393
19.469587
19.515199
19.563295
19.61401
19.667533
19.724104
19.784006
19.847558
19.915129
19.987147
20.064116
20.146635
20.235415
20.331269
20.435136
20.548109
20.671483
20.80686
20.956252
21.122239
21.308151
21.518103
21.756719
22.028249
22.33566
22.687149
32.245028
29.306104
26.082058
23.659299
22.008692
20.909959
20.184519
19.713793
19.419322
19.246336
19.154576
19.113928
19.101965
19.101922
19.119648
19.147608
19.179615
19.214966
19.253162
19.293883
19.336989
19.382466
19.430385
19.48088
19.534147
19.590432
19.650018
19.713223
19.780413
19.852002
19.928478
20.010433
20.098571
20.193698
20.296752
20.408822
20.531193
20.66543
20.813499
20.977916
21.161924
21.369515
21.605097
21.87256
22.174543
22.519526
22.970168
23.982571
31.77061
28.860462
25.701342
23.343758
21.745697
20.686758
19.990787
19.541395
19.26192
19.099103
19.013901
18.977166
18.967096
18.968274
18.987961
19.016363
19.048577
19.084009
19.122185
19.16282
19.205792
19.251095
19.298805
19.349059
19.402051
19.458026
19.517259
19.58007
19.646831
19.717955
19.793921
19.875299
19.962775
20.057145
20.159343
20.270454
20.391753
20.524781
20.671478
20.834281
21.016348
21.221532
21.454014
21.717337
22.013839
22.352351
22.79826
23.824393
31.069222
31.319793
28.443562
25.340176
23.038573
21.486827
20.464317
19.796595
19.368641
19.104832
18.952864
18.87467
18.842026
18.833691
18.836563
18.85801
18.886746
18.91911
18.954567
18.992673
19.033173
19.075969
19.121068
19.168544
19.21853
19.271215
19.326846
19.385704
19.448101
19.514413
19.585039
19.660456
19.741226
19.82802
19.921626
20.022953
20.133064
20.253231
20.384991
20.530235
20.691338
20.871387
21.074097
21.30343
21.562581
21.853575
22.185632
22.627034
23.667906
31.02505
30.894629
28.057034
25.000948
22.746573
21.234593
20.244333
19.602769
19.195716
18.947905
18.807367
18.73665
18.708272
18.701609
18.706743
18.729709
18.758699
18.791168
18.826609
18.864604
18.904927
18.947503
18.992352
19.039552
19.089239
19.141601
19.196873
19.255333
19.317302
19.383135
19.453239
19.528095
19.60824
19.694331
19.787143
19.88756
19.996639
20.115633
20.246061
20.389775
20.549105
20.727057
20.927218
21.15334
21.408276
21.693753
22.019412
22.456445
23.514413
31.13957
30.492898
27.696699
24.68234
22.469069
20.991634
20.029612
19.411606
19.024188
18.792052
18.66307
18.600007
18.575913
18.570895
18.578795
18.602992
18.632183
18.66472
18.700106
18.737953
18.778065
18.820385
18.864946
18.911837
18.961198
19.013209
19.068092
19.126122
19.187627
19.252964
19.322538
19.396805
19.476307
19.561686
19.65369
19.753181
19.861188
19.978946
20.10796
20.250068
20.407559
20.583352
20.780906
21.00375
21.254401
21.534345
21.853666
22.286535
23.364297
31.349432
30.108514
27.354243
24.379788
22.20517
20.759465
19.822769
19.225811
18.856263
18.638789
18.520866
18.465177
18.445157
18.441745
18.452676
18.477798
18.507144
18.539711
18.575011
18.612682
18.652563
18.694608
18.738856
18.785406
18.834404
18.88603
18.940507
18.998102
19.059122
19.123918
19.192902
19.266536
19.345369
19.43002
19.521202
19.619749
19.726656
19.843138
19.970694
20.111127
20.266697
20.440262
20.635156
20.854661
21.100947
21.37531
21.688368
22.117455
23.216383
31.40046
29.732754
27.019053
24.086483
21.951725
20.537638
19.625065
19.047379
18.693904
18.489622
18.381701
18.332655
18.316293
18.3144
18.328323
18.354101
18.383562
18.416116
18.451292
18.488758
18.528379
18.570125
18.61404
18.660233
18.708854
18.760081
18.814124
18.871242
18.931741
18.995974
19.06435
19.137326
19.215438
19.299295
19.389593
19.487144
19.592928
19.70813
19.834205
19.972925
20.126546
20.297831
20.489989
20.706063
20.947917
21.216659
21.523553
21.949344
23.069983
31.3664
29.356612
26.681076
23.795424
21.704384
20.323925
19.435951
18.876864
18.538122
18.345513
18.246243
18.202834
18.189608
18.189039
18.205658
18.231874
18.261412
18.293916
18.328937
18.366176
18.405513
18.446933
18.490489
18.536293
18.584503
18.635298
18.688885
18.745512
18.805476
18.869124
18.936855
19.009131
19.08649
19.169525
19.258894
19.355389
19.459991
19.573859
19.698413
19.835415
19.987074
20.156066
20.345446
20.558008
20.795312
21.058375
21.359235
21.782251
22.926639
31.357637
28.97298
26.332358
23.500357
21.458228
20.114631
19.253017
18.713022
18.388489
18.206444
18.114592
18.075844
18.065066
18.065786
18.084582
18.111063
18.140632
18.173049
18.20789
18.244885
18.283928
18.32501
18.368189
18.413583
18.461352
18.511682
18.56478
18.620885
18.680282
18.743315
18.810377
18.88193
18.958494
19.040647
19.129052
19.224489
19.327885
19.440386
19.563393
19.698627
19.84827
20.014937
20.201516
20.410518
20.643173
20.90049
21.195396
21.61607
22.789216
31.600702
28.57891
25.969299
23.197403
21.209155
19.905797
19.072913
18.553379
18.243402
18.07148
17.986262
17.95145
17.942453
17.9446
17.965007
17.991619
18.021171
18.053461
18.088088
18.124808
18.163531
18.204257
18.247054
18.292035
18.339355
18.389204
18.441786
18.497343
18.556154
18.618554
18.684925
18.755717
18.831439
18.912671
19.000071
19.094404
19.196586
19.307718
19.429145
19.562587
19.710193
19.874491
20.058196
20.263551
20.491504
20.74304
21.032078
21.450914
22.657531
31.893768
28.177464
25.595666
22.887808
20.956327
19.695385
18.893198
18.395663
18.10107
17.939387
17.860496
17.829185
17.821568
17.825286
17.846851
17.873492
17.902983
17.935112
17.969497
18.005923
18.044306
18.084655
18.127038
18.171573
18.218419
18.267772
18.319839
18.374848
18.433066
18.494821
18.560483
18.630492
18.70535
18.785634
18.871995
18.965174
19.066072
19.17578
19.295628
19.427287
19.572848
19.734748
19.915521
20.11713
20.340275
20.585996
20.869306
21.287027
22.52895
31.888882
27.776473
25.22013
22.576429
20.701709
19.483572
18.713039
18.238611
17.960224
17.809148
17.736588
17.708585
17.702168
17.70764
17.730033
17.756638
17.786034
17.817977
17.852098
17.888203
17.926221
17.966167
18.008121
18.052205
18.098572
18.147408
18.19892
18.253338
18.310935
18.372031
18.436984
18.506217
18.580216
18.659542
18.744836
18.83684
18.936431
19.044689
19.162911
19.292736
19.436213
19.595682
19.773471
19.971281
20.189532
20.429382
20.707089
21.124331
22.403252
31.893185
27.386174
24.853478
22.270175
20.449308
19.272484
18.533263
18.082215
17.820444
17.680254
17.61411
17.589342
17.584077
17.591513
17.614484
17.641006
17.670273
17.701999
17.735836
17.771609
17.809258
17.848799
17.890312
17.933917
17.979773
18.028074
18.079026
18.132851
18.189808
18.250206
18.314407
18.382829
18.455951
18.534321
18.618561
18.709388
18.807663
18.914424
19.030985
19.158966
19.300311
19.457281
19.632
19.825925
20.039234
20.273231
20.545456
20.962624
22.282889
32.17021
27.016287
24.506251
21.976645
20.204454
19.065782
18.356133
17.927658
17.682189
17.552778
17.492981
17.471371
17.467259
17.476823
17.500179
17.526594
17.555703
17.587181
17.620703
17.656116
17.693372
17.732493
17.773559
17.816689
17.86204
17.909793
17.960155
18.013352
18.069645
18.129338
18.192785
18.260384
18.332605
18.409977
18.493116
18.582723
18.679653
18.784938
18.899851
19.025947
19.165131
19.319528
19.491094
19.681052
19.889356
20.117536
20.384442
20.802148
22.168694
32.439631
18.184585
17.776858
17.546551
17.427256
17.373425
17.354784
17.351809
17.36353
17.387121
17.413417
17.442339
17.473539
17.506719
17.541746
17.578586
17.617269
17.657873
17.700513
17.745336
17.792522
17.842275
17.894827
17.950439
18.009408
18.072079
18.138837
18.210137
18.286494
18.368513
18.456882
18.552439
18.656202
18.769421
18.89361
19.030594
19.182383
19.350754
19.536634
19.739884
19.962292
20.224103
20.643248
22.059983
32.520472
17.237862
17.251608
17.275307
17.301469
17.33018
17.361077
17.393892
17.428512
17.464917
17.503141
17.543261
17.585389
17.629669
17.676273
17.725404
17.777292
17.832195
17.890407
17.952268
18.018151
18.088494
18.163808
18.244684
18.331802
18.425978
18.528209
18.639712
18.761966
18.896717
19.045844
19.210943
19.392728
19.5909
19.807559
20.064499
20.485983
21.95694
32.669546
17.249761
17.282188
17.316383
17.352336
17.390085
17.429705
17.471303
17.515019
17.561023
17.609517
17.660731
17.714921
17.772369
17.833405
17.898381
17.967727
18.041945
18.121624
18.207438
18.300198
18.400874
18.51065
18.630954
18.763454
18.909903
19.071727
19.249388
19.442435
19.6534
19.905725
20.330427
21.86064
32.931589
17.278068
17.317162
17.358205
17.401338
17.446732
17.494583
17.545116
17.598581
17.655256
17.715448
17.779504
17.847844
17.920957
17.999422
18.083894
18.175184
18.274245
18.382244
18.500558
18.630787
18.774552
18.933057
19.106538
19.294489
19.49987
19.747892
20.176956
21.771969
33.200471
17.380594
17.430421
17.483135
17.539009
17.598335
17.661456
17.728778
17.800777
17.878015
17.961145
18.050963
18.148402
18.254603
18.370898
18.49881
18.639829
18.794942
18.964184
19.146992
19.346853
19.590933
20.025686
21.691605
33.42883
17.4821
17.544253
17.61052
17.681374
17.757364
17.839137
17.927468
18.023272
18.127662
18.241931
18.36752
18.505779
18.657456
18.822368
18.999981
19.194373
19.434827
19.876577
21.62173
33.678945
17.637561
17.717946
17.804741
17.898853
18.00138
18.11358
18.236798
18.372235
18.520432
18.680996
18.853418
19.04244
19.279659
19.730175
21.571088
33.973647
17.775256
17.875894
17.98596
18.10671
18.239198
18.38377
18.539869
18.707097
18.890938
19.12546
19.586882
21.531724
34.295651
17.977321
18.106755
18.24758
18.399119
18.561119
18.7399
18.972243
19.446595
21.504262
34.633759
18.258781
18.415569
18.5895
18.820154
19.309464
21.489091
34.968305
18.669312
19.175932
21.473021
35.295871
21.489666
35.654191
41.437941
)
;

boundaryField
{
    Side
    {
        type            empty;
    }
    Inlet
    {
        type            fixedValue;
        value           uniform 60.24606;
    }
    Airfoil
    {
        type            omegaWallFunction;
        blending        binomial;
        n               2;
        value           nonuniform List<scalar> 0();
    }
    Outlet
    {
        type            inletOutlet;
        inletValue      nonuniform List<scalar> 0();
        value           nonuniform List<scalar> 0();
    }
    procBoundary12to4
    {
        type            processor;
        value           uniform 42.292595;
    }
    procBoundary12to5
    {
        type            processor;
        value           nonuniform List<scalar> 
30
(
40.639742
39.891248
39.181902
38.499754
37.834844
37.181631
36.539643
35.913164
35.309499
34.735205
34.193155
33.681091
33.192082
32.717661
32.250738
31.786934
31.325481
30.869038
30.42205
29.988606
29.571127
29.169433
28.781113
28.402712
28.030845
27.664194
27.304288
26.953972
37.797276
40.639742
)
;
    }
    procBoundary12to6
    {
        type            processor;
        value           uniform 26.672233;
    }
    procBoundary12to11
    {
        type            processor;
        value           nonuniform List<scalar> 
65
(
42.513402
39.025583
34.411369
30.547932
27.256935
27.256935
25.353609
24.021003
23.086901
22.438232
21.997717
21.503642
21.503642
21.338883
21.246111
21.20185
21.187076
21.024314
21.024314
21.040471
21.068016
21.101299
20.986485
20.986485
21.028297
21.073264
21.121224
21.022759
21.022759
21.076998
21.134524
21.195623
21.113126
21.113126
21.182482
21.256661
21.189884
21.189884
21.275307
21.367443
21.321307
21.321307
21.42925
21.401378
21.401378
21.529896
21.671546
21.681068
21.681068
21.854753
21.899989
21.899989
22.118898
22.214941
22.214941
22.340996
22.340996
22.658986
22.855126
22.855126
23.142772
23.142772
24.142131
31.083668
31.083668
)
;
    }
    procBoundary12to13
    {
        type            processor;
        value           nonuniform List<scalar> 
60
(
24.184761
21.701371
19.971884
18.867327
18.867327
18.020611
17.631322
17.414519
17.304254
17.255738
17.239763
17.239763
17.125519
17.141032
17.164726
17.190728
17.219194
17.219194
17.139568
17.171586
17.205337
17.240817
17.240817
17.16707
17.205623
17.246099
17.288636
17.333405
17.333405
17.267557
17.316672
17.368619
17.423668
17.423668
17.366727
17.427909
17.493123
17.562834
17.562834
17.51857
17.597576
17.682839
17.682839
17.652352
17.751127
17.859074
17.859074
17.848435
17.974809
18.111843
18.111843
18.118806
18.270473
18.439754
18.439754
18.519673
19.046494
19.046494
21.520411
36.040794
)
;
    }
}


// ************************************************************************* //
