/*--------------------------------*- C++ -*----------------------------------*\
| =========                 |                                                 |
| \\      /  F ield         | OpenFOAM: The Open Source CFD Toolbox           |
|  \\    /   O peration     | Version:  2506                                  |
|   \\  /    A nd           | Website:  www.openfoam.com                      |
|    \\/     M anipulation  |                                                 |
\*---------------------------------------------------------------------------*/
FoamFile
{
    version     2.0;
    format      ascii;
    arch        "LSB;label=32;scalar=64";
    class       volScalarField;
    location    "0.00023";
    object      yPlus;
}
// * * * * * * * * * * * * * * * * * * * * * * * * * * * * * * * * * * * * * //

dimensions      [0 0 0 0 0 0 0];

internalField   uniform 0;

boundaryField
{
    Side
    {
        type            empty;
    }
    Inlet
    {
        type            calculated;
        value           nonuniform List<scalar> 0();
    }
    Airfoil
    {
        type            calculated;
        value           nonuniform List<scalar> 
85
(
8.8476847
8.741998
8.7360719
8.6459026
8.6186351
8.4637957
8.4657019
8.56498
8.6573401
8.8105355
9.2788433
9.957565
9.4042017
8.7227796
9.153544
8.3546165
7.9753591
7.444647
8.7883242
9.4372969
9.9011633
10.436158
10.876485
9.4237023
9.5309437
9.2580532
8.919444
9.0739002
9.1540131
9.0402325
9.2164645
9.9551804
10.075438
9.7448747
9.7065413
9.8724302
9.8928443
10.090914
10.387403
6.402853
5.3767954
6.0563308
5.157304
10.170792
10.969171
11.904255
11.866118
10.522301
11.805591
12.420655
12.559073
8.5773146
12.332374
11.04978
12.781214
14.043327
14.053587
13.901779
12.438058
12.699599
12.86204
12.362045
11.938498
11.958714
12.088188
12.197359
11.890326
11.19502
1.7268268
4.5652644
11.140686
11.998085
11.206654
10.938689
9.7013669
10.042014
10.198939
11.468234
14.862578
15.970751
16.007143
12.001685
14.628149
11.636285
11.447439
)
;
    }
    Outlet
    {
        type            calculated;
        value           nonuniform List<scalar> 0();
    }
    procBoundary52to1
    {
        type            processor;
        value           uniform 0;
    }
    procBoundary52to4
    {
        type            processor;
        value           uniform 0;
    }
    procBoundary52to20
    {
        type            processor;
        value           uniform 0;
    }
    procBoundary52to25
    {
        type            processor;
        value           uniform 0;
    }
}


// ************************************************************************* //
