/*--------------------------------*- C++ -*----------------------------------*\
| =========                 |                                                 |
| \\      /  F ield         | OpenFOAM: The Open Source CFD Toolbox           |
|  \\    /   O peration     | Version:  2506                                  |
|   \\  /    A nd           | Website:  www.openfoam.com                      |
|    \\/     M anipulation  |                                                 |
\*---------------------------------------------------------------------------*/
FoamFile
{
    version     2.0;
    format      ascii;
    arch        "LSB;label=32;scalar=64";
    class       volVectorField;
    location    "0.0265";
    object      U;
}
// * * * * * * * * * * * * * * * * * * * * * * * * * * * * * * * * * * * * * //

dimensions      [0 1 -1 0 0 0 0];

internalField   nonuniform List<vector> 
13761
(
(94.548952 -0.98342969 0)
(94.548942 -0.98321627 -1.9175808e-18)
(94.548701 -0.98272406 1.9183697e-18)
(94.548166 -0.98238886 0)
(94.547355 -0.98242135 0)
(94.082204 0.66310131 2.2025602e-18)
(94.546863 -0.98213403 9.4011627e-22)
(94.082371 0.6633751 -2.2027692e-18)
(94.546429 -0.98184533 9.396803e-22)
(94.082593 0.66360607 0)
(94.546068 -0.98163892 -1.9160283e-18)
(94.082927 0.66390834 -2.2018062e-18)
(94.546222 -0.98144449 1.9176534e-18)
(94.083284 0.66417308 2.1980005e-18)
(94.546357 -0.98128258 0)
(94.494684 -0.7693426 -4.6612493e-25)
(94.083422 0.66437067 1.0694758e-21)
(94.546478 -0.98106222 0)
(94.4948 -0.76918823 -2.5140686e-18)
(94.083342 0.66462914 -1.0695426e-21)
(94.546207 -0.98086292 0)
(94.494858 -0.76906111 2.5137198e-18)
(94.083046 0.66483688 0)
(94.545314 -0.9806585 -1.9164031e-18)
(94.494838 -0.76896409 0)
(94.082709 0.66503239 0)
(94.544125 -0.98061832 3.8326882e-18)
(94.494721 -0.76881053 0)
(94.082439 0.66523193 0)
(94.543191 -0.98042839 -1.916292e-18)
(94.494528 -0.7687141 4.6406469e-25)
(94.082426 0.66554538 -1.0679077e-21)
(94.542387 -0.98025302 0)
(94.218972 0.27999569 2.8610192e-18)
(94.494593 -0.76853832 -2.5053479e-18)
(94.082677 0.66580051 -2.1353559e-21)
(94.541462 -0.98018318 1.9171565e-18)
(94.218448 0.28017914 0)
(94.494736 -0.76838511 2.5051859e-18)
(94.083057 0.66613496 7.6557473e-25)
(94.539857 -0.98028092 -1.9152412e-18)
(94.218058 0.28036994 0)
(94.494862 -0.76829879 1.2267302e-21)
(94.083439 0.66649786 -2.1942426e-18)
(94.538315 -0.9802132 0)
(94.217987 0.28054088 0)
(94.494945 -0.76819235 2.5037394e-18)
(94.083858 0.66686868 2.1918421e-18)
(94.537528 -0.98017652 0)
(94.218105 0.28074581 -6.9455505e-22)
(94.494856 -0.76803066 -2.5012184e-18)
(94.084111 0.66713601 0)
(94.536943 -0.98006352 0)
(94.218218 0.28096811 -1.38858e-21)
(94.494726 -0.7679635 1.2243745e-21)
(94.084147 0.66737392 0)
(94.536006 -0.98005557 1.9155774e-18)
(94.451103 -0.51126195 1.6198305e-18)
(94.218228 0.28119492 1.3873447e-21)
(94.494777 -0.76785003 -1.2237771e-21)
(94.083979 0.66765239 1.0652151e-21)
(94.534589 -0.98008222 -1.9151921e-18)
(94.451208 -0.51071282 -1.5826802e-21)
(94.218185 0.2814058 -2.8453943e-18)
(94.494989 -0.76771298 0)
(94.083862 0.66796974 2.1898161e-18)
(94.534222 -0.98004096 -1.9148072e-18)
(94.45137 -0.51009737 3.2334279e-18)
(94.218112 0.28160177 2.8446934e-18)
(94.495171 -0.76753783 0)
(94.083919 0.66831391 -4.3798656e-18)
(94.534591 -0.97994994 1.9159508e-18)
(94.451393 -0.50953853 -3.231195e-18)
(94.21799 0.28179772 -1.3849544e-21)
(94.495376 -0.76748152 1.2220706e-21)
(94.08412 0.66870662 2.1894496e-18)
(94.535391 -0.97978089 0)
(94.451575 -0.50888853 0)
(94.21778 0.28198193 2.842354e-18)
(94.495439 -0.76730326 -2.4953607e-18)
(94.084515 0.66910052 -2.1900467e-18)
(94.53576 -0.97978289 0)
(94.372675 0.10767458 0)
(94.451606 -0.50830295 -7.8848212e-22)
(94.217478 0.28216662 -2.8384281e-18)
(94.495244 -0.76722125 2.4954982e-18)
(94.085006 0.66944566 2.1895898e-18)
(94.535753 -0.97967079 -9.3971469e-22)
(94.372343 0.10832825 1.8280417e-18)
(94.451671 -0.50771699 -3.2217383e-18)
(94.217181 0.28238818 2.8347108e-18)
(94.495163 -0.76714781 0)
(94.085372 0.66969255 0)
(94.535463 -0.97966298 0)
(94.371709 0.10911609 -1.8242711e-18)
(94.45175 -0.50715191 3.2181786e-18)
(94.217108 0.28259153 -2.8342476e-18)
(94.495386 -0.7670247 0)
(94.08557 0.66997592 2.1863103e-18)
(94.535284 -0.97960135 0)
(94.371382 0.10980348 -1.8232331e-18)
(94.452128 -0.50649378 -3.2162684e-18)
(94.217264 0.28284542 -2.8323399e-18)
(94.495837 -0.76685202 -2.488065e-18)
(94.085573 0.67025171 -2.1874266e-18)
(94.53522 -0.97958097 0)
(94.370684 0.11056884 1.8222294e-18)
(94.45247 -0.50589069 -8.6569729e-24)
(94.217444 0.28302807 2.8320051e-18)
(94.496094 -0.76675809 2.4050622e-24)
(94.085474 0.67053655 -2.1876085e-18)
(94.534631 -0.97956119 0)
(94.370256 0.11120109 0)
(94.452807 -0.50526383 -7.0148788e-24)
(94.217433 0.28320551 -1.3788097e-21)
(94.495775 -0.76666927 1.2167295e-21)
(94.085405 0.67087156 2.1862067e-18)
(94.534081 -0.97959778 0)
(94.545321 -0.45938149 -2.0540044e-18)
(94.36947 0.11195698 -3.8017861e-25)
(94.452911 -0.50468502 -7.8963991e-22)
(94.217255 0.28342731 0)
(94.495534 -0.76661162 2.4864294e-18)
(94.085345 0.67124345 1.0639241e-21)
(94.534017 -0.97957848 0)
(94.545015 -0.45810851 2.0526004e-18)
(94.36896 0.11262138 0)
(94.453097 -0.5040802 6.4121776e-18)
(94.217046 0.28364186 0)
(94.495423 -0.7664709 1.2177721e-21)
(94.085148 0.67159486 -1.0638416e-21)
(94.534166 -0.97955422 0)
(94.544943 -0.45709366 -2.0502302e-18)
(94.368159 0.11337229 8.8470174e-22)
(94.453037 -0.50352765 -3.204464e-18)
(94.216736 0.28382212 0)
(94.495778 -0.76632382 0)
(94.084743 0.6718922 0)
(94.53491 -0.97950007 0)
(94.544625 -0.45579353 0)
(94.367676 0.11402096 -1.8134081e-18)
(94.453097 -0.50288903 -1.121369e-25)
(94.216419 0.28401668 2.8240279e-18)
(94.496804 -0.76614048 -1.2172597e-21)
(94.083872 0.67212784 1.0628851e-21)
(94.536536 -0.97936456 0)
(94.544546 -0.45475164 2.0446596e-18)
(94.366902 0.11476605 1.811747e-18)
(94.453052 -0.50233067 3.1982417e-18)
(94.21618 0.2842316 -2.8211629e-18)
(94.49799 -0.76597155 0)
(94.083222 0.67234012 0)
(94.538641 -0.97919701 -3.8334073e-18)
(94.639752 -0.336921 -2.30422e-18)
(94.544218 -0.45346596 -4.0868771e-18)
(94.366376 0.11542373 0)
(94.453177 -0.50169479 3.948241e-24)
(94.216004 0.28438221 0)
(94.498788 -0.7657803 0)
(94.083152 0.67273107 -1.0616371e-21)
(94.54075 -0.97905171 3.8336736e-18)
(94.639809 -0.33599878 2.301344e-18)
(94.544149 -0.45238217 2.0402676e-18)
(94.365596 0.11614587 8.8188882e-22)
(94.453173 -0.50110165 4.3830773e-24)
(94.21571 0.28455005 0)
(94.499072 -0.76562362 1.215976e-21)
(94.084132 0.67306774 -1.0629019e-21)
(94.542151 -0.97892534 3.8302345e-18)
(94.640186 -0.33551606 0)
(94.543849 -0.45108406 0)
(94.365128 0.11682338 0)
(94.4533 -0.50050831 -6.3848399e-18)
(94.215418 0.28472071 0)
(94.499142 -0.76554108 -2.4824629e-18)
(94.084859 0.67324763 0)
(94.542661 -0.9788715 -3.8312712e-18)
(94.640244 -0.3345712 -1.1206154e-21)
(94.54376 -0.44998924 0)
(94.36444 0.11756356 1.804626e-18)
(94.453416 -0.49992229 3.1903283e-18)
(94.215146 0.28490098 0)
(94.499673 -0.76540882 1.2242878e-21)
(94.085081 0.6735822 -2.1843487e-18)
(94.542336 -0.9788821 0)
(94.640551 -0.33407939 -2.2942518e-18)
(94.54342 -0.4486797 0)
(94.364016 0.11822208 -1.8031488e-18)
(94.453648 -0.49928641 -7.7961177e-22)
(94.215006 0.28509944 6.8549728e-22)
(94.500416 -0.76528245 2.4784576e-18)
(94.085115 0.67400898 -6.8907593e-25)
(94.541716 -0.97892831 0)
(94.640636 -0.33311057 9.7475913e-25)
(94.543259 -0.44756909 -9.9351136e-22)
(94.36329 0.11892583 8.789857e-22)
(94.453703 -0.49872506 3.1862987e-18)
(94.214949 0.28526743 -2.8127068e-18)
(94.50066 -0.76514879 -2.478422e-18)
(94.085333 0.67438045 4.3641954e-18)
(94.541743 -0.97893183 3.8318146e-18)
(94.669362 -0.60187845 2.5724877e-18)
(94.640907 -0.33260778 2.2879547e-18)
(94.542884 -0.44624952 2.0311904e-18)
(94.362795 0.11960124 -1.799439e-18)
(94.453858 -0.4980665 -3.1851222e-18)
(94.215041 0.28548758 2.8100068e-18)
(94.500179 -0.76501008 2.480814e-18)
(94.085407 0.6747542 -2.1815155e-18)
(94.542284 -0.97889389 -1.8151241e-23)
(94.67034 -0.60224126 2.5704979e-18)
(94.641005 -0.33162141 0)
(94.542697 -0.4450992 -2.0292994e-18)
(94.362018 0.12029483 1.7989369e-18)
(94.454157 -0.49747733 0)
(94.21516 0.28567612 0)
(94.499508 -0.76501053 0)
(94.085209 0.67508686 0)
(94.671659 -0.6026533 -1.2854648e-23)
(94.641225 -0.33110845 -2.2830095e-18)
(94.542326 -0.44377328 -2.0274642e-18)
(94.361494 0.12099783 3.5952045e-18)
(94.454463 -0.49687075 0)
(94.215108 0.28586659 -2.8088993e-18)
(94.499217 -0.76493931 -2.4779985e-18)
(94.084888 0.67531504 2.1788834e-18)
(94.672611 -0.60301455 -2.5629996e-18)
(94.641367 -0.3300936 2.2795045e-18)
(94.542107 -0.44261541 2.0266446e-18)
(94.36066 0.12165656 -7.186023e-18)
(94.454561 -0.49630535 7.7728551e-22)
(94.214857 0.28607996 2.8084478e-18)
(94.499208 -0.76483522 2.4764507e-18)
(94.084825 0.67568887 1.0446068e-24)
(94.673946 -0.60342203 2.5605852e-18)
(94.641573 -0.32956764 1.1125614e-21)
(94.541745 -0.44127028 -2.0248882e-18)
(94.360072 0.12235709 8.6086212e-22)
(94.454595 -0.49573177 -7.7675263e-22)
(94.214682 0.2862708 -2.8050652e-18)
(94.499199 -0.76471698 -2.4770488e-18)
(94.08511 0.67596836 1.0610935e-21)
(94.602282 -0.42661706 -2.8703811e-18)
(94.674892 -0.60378144 -1.2620572e-21)
(94.641742 -0.3285315 2.2771042e-18)
(94.541528 -0.44010395 2.0231604e-18)
(94.359262 0.12298249 3.5874972e-18)
(94.454766 -0.49510138 -7.763309e-22)
(94.214628 0.28646874 5.6095012e-18)
(94.499531 -0.76463093 4.9517018e-18)
(94.085327 0.67641094 2.2505517e-24)
(94.602985 -0.42715909 5.7335002e-18)
(94.676235 -0.60417784 -2.5547714e-18)
(94.6419 -0.32798728 -2.2748903e-18)
(94.541199 -0.43873393 9.8645348e-22)
(94.358708 0.12368875 0)
(94.45506 -0.49448985 -3.1735957e-18)
(94.214669 0.28664329 -2.8038253e-18)
(94.500422 -0.76447405 -2.4752436e-18)
(94.085837 0.67688128 -2.1796888e-18)
(94.603696 -0.42775913 -2.8632043e-18)
(94.677178 -0.60452656 6.2334175e-22)
(94.642065 -0.32694138 -2.2727225e-18)
(94.540963 -0.43754489 9.8565568e-22)
(94.357927 0.12430479 8.7353763e-22)
(94.455284 -0.49386702 3.1711807e-18)
(94.214705 0.28683565 -2.8032583e-18)
(94.500894 -0.76434804 2.4734771e-18)
(94.086374 0.67717053 -2.1790698e-18)
(94.604539 -0.4282685 6.9786532e-22)
(94.67853 -0.60493339 2.548593e-18)
(94.642154 -0.32637966 2.270585e-18)
(94.540643 -0.43614917 9.0240592e-25)
(94.357441 0.12505549 3.5804054e-18)
(94.455363 -0.49329207 -7.751357e-22)
(94.214618 0.28700252 5.6081713e-18)
(94.500334 -0.76426126 -4.9487153e-18)
(94.086481 0.67738481 2.1797218e-18)
(94.605288 -0.4289396 2.8556333e-18)
(94.679481 -0.6052561 -1.275013e-23)
(94.642273 -0.32532401 -2.2674096e-18)
(94.540391 -0.43494908 -9.8501964e-22)
(94.356728 0.12565671 -7.1554103e-18)
(94.455461 -0.49275987 -7.7485119e-22)
(94.214411 0.28716086 -2.801147e-18)
(94.49975 -0.76424814 2.4707738e-18)
(94.606139 -0.42942178 -2.8537276e-18)
(94.680852 -0.60566349 -2.5439365e-18)
(94.642256 -0.32475286 4.5307981e-18)
(94.540037 -0.43354736 -2.014217e-18)
(94.356144 0.12638122 7.1518788e-18)
(94.455502 -0.49214859 0)
(94.213972 0.28734076 0)
(94.499585 -0.76417646 0)
(94.540027 -0.18516552 1.5945936e-18)
(94.606889 -0.43014573 0)
(94.681793 -0.60596984 0)
(94.642341 -0.323678 -2.2623199e-18)
(94.539763 -0.43232375 2.0107601e-18)
(94.355444 0.1269745 -3.5729106e-18)
(94.455507 -0.49152936 0)
(94.213405 0.28754688 0)
(94.500043 -0.76402938 2.4725327e-18)
(94.540064 -0.18475205 1.5934045e-18)
(94.607776 -0.43062914 -2.8466154e-18)
(94.683157 -0.6063757 0)
(94.642273 -0.32309466 1.1043766e-21)
(94.539379 -0.43093886 -2.0122688e-18)
(94.354971 0.12769409 0)
(94.455314 -0.49095374 0)
(94.212913 0.28773432 2.8004157e-18)
(94.500656 -0.76389767 -2.4708582e-18)
(94.540116 -0.18431996 -3.1829603e-18)
(94.608586 -0.4313734 2.8435382e-18)
(94.684043 -0.60667324 0)
(94.64233 -0.32200438 -2.2596022e-18)
(94.539066 -0.42969045 2.0098652e-18)
(94.354259 0.12829269 0)
(94.455151 -0.49040173 0)
(94.212398 0.28789342 -2.7975158e-18)
(94.500829 -0.76375848 -2.4723921e-18)
(94.539991 -0.18393892 3.1791997e-18)
(94.60965 -0.43185924 -6.9317507e-22)
(94.685365 -0.60707237 -2.5334307e-18)
(94.642166 -0.3214158 2.257759e-18)
(94.538647 -0.42828256 0)
(94.353647 0.12904781 0)
(94.455104 -0.48984635 -7.7308892e-22)
(94.212084 0.28807215 2.7951685e-18)
(94.500858 -0.76370113 2.4700965e-18)
(94.539751 -0.18355906 -3.1755331e-18)
(94.610461 -0.43262516 0)
(94.686141 -0.60736483 2.531738e-18)
(94.642252 -0.32028445 0)
(94.538316 -0.42701267 0)
(94.352847 0.12961592 -3.5657132e-18)
(94.455169 -0.48923709 0)
(94.212028 0.28821828 -1.3562403e-21)
(94.500762 -0.76365662 2.4169226e-21)
(94.624228 -0.2037283 0)
(94.539574 -0.18317263 -7.7642851e-22)
(94.611548 -0.4331143 -2.8340118e-18)
(94.687293 -0.60776995 0)
(94.642205 -0.31967916 2.253163e-18)
(94.537916 -0.42559582 -2.0048701e-18)
(94.35223 0.13033175 3.5638208e-18)
(94.455287 -0.48863743 3.1590093e-18)
(94.212196 0.28840961 -2.7954053e-18)
(94.501121 -0.76348774 -2.468399e-18)
(94.624296 -0.20240124 1.7690159e-18)
(94.539538 -0.18280182 1.5450402e-21)
(94.612333 -0.43392111 2.831939e-18)
(94.687929 -0.60806138 -6.1731508e-22)
(94.642472 -0.3185282 -2.2525741e-18)
(94.5376 -0.42431654 2.0035963e-18)
(94.35144 0.13093785 8.6887635e-22)
(94.455524 -0.48803091 6.115809e-24)
(94.21227 0.28855651 0)
(94.624325 -0.20104399 -1.7677979e-18)
(94.53955 -0.18239939 1.5833458e-18)
(94.613411 -0.43443033 2.8292143e-18)
(94.688963 -0.60847223 0)
(94.642564 -0.31787538 0)
(94.537214 -0.42290533 0)
(94.350794 0.13159622 -3.5602341e-18)
(94.455841 -0.48745593 -3.1565536e-18)
(94.211989 0.28874737 -2.793397e-18)
(94.624317 -0.19970521 -1.7657866e-18)
(94.539493 -0.18203624 0)
(94.614171 -0.4352109 -1.4620211e-23)
(94.689617 -0.6087434 1.2324124e-21)
(94.642998 -0.31671191 -2.2504202e-18)
(94.536873 -0.42157794 9.7838358e-22)
(94.35 0.13220502 3.5576225e-18)
(94.456204 -0.48686015 0)
(94.211645 0.28889295 2.7929889e-18)
(94.624201 -0.19836902 1.7629444e-18)
(94.539478 -0.18166205 0)
(94.615176 -0.43580042 -2.8240087e-18)
(94.690811 -0.60914627 -1.2314228e-21)
(94.643186 -0.31601654 2.2477595e-18)
(94.536491 -0.42016614 9.7689218e-22)
(94.349409 0.13287838 -3.5568253e-18)
(94.456491 -0.48621523 3.1542468e-18)
(94.211691 0.2891612 2.7902152e-18)
(94.720482 -0.42761892 -4.7964104e-22)
(94.623968 -0.19701469 8.5926065e-22)
(94.539622 -0.1812899 -7.6997455e-22)
(94.615773 -0.43658117 -2.8207942e-18)
(94.691768 -0.60937656 0)
(94.643602 -0.31485439 0)
(94.536123 -0.41878723 0)
(94.348678 0.13349357 3.5551749e-18)
(94.456505 -0.48564826 -3.1531345e-18)
(94.211847 0.28934456 -5.5801802e-18)
(94.721553 -0.42738925 -1.9600303e-18)
(94.623712 -0.19563248 0)
(94.540082 -0.18085687 7.6921772e-22)
(94.616717 -0.43718319 2.8190467e-18)
(94.693376 -0.60974003 6.1468667e-22)
(94.643694 -0.31413959 5.9606352e-25)
(94.535721 -0.41737611 9.2445088e-25)
(94.348098 0.13417393 -8.6682502e-22)
(94.456508 -0.48504005 7.7075558e-22)
(94.211869 0.28948145 -6.8032495e-22)
(94.722518 -0.42688583 1.9578105e-18)
(94.623517 -0.19425887 0)
(94.540508 -0.1804961 0)
(94.61731 -0.43800659 -2.8159594e-18)
(94.694713 -0.60992767 -6.1437475e-22)
(94.644014 -0.31298087 0)
(94.535325 -0.41600511 1.9966863e-18)
(94.34739 0.13472744 -3.5511909e-18)
(94.456487 -0.48453739 0)
(94.211501 0.28969324 2.7922032e-18)
(94.72363 -0.42662484 0)
(94.623312 -0.19288679 0)
(94.540558 -0.18012115 7.6779174e-22)
(94.618498 -0.43860149 5.6279692e-18)
(94.696616 -0.61026076 1.2277154e-21)
(94.644005 -0.31221987 -2.2429963e-18)
(94.534901 -0.41457314 -3.9932201e-18)
(94.346769 0.13541081 3.5505404e-18)
(94.456408 -0.48395351 3.1500203e-18)
(94.673075 -0.29917444 -2.1737623e-18)
(94.724643 -0.42611519 1.9535393e-18)
(94.623136 -0.19147016 0)
(94.540249 -0.17982302 0)
(94.619249 -0.43939945 -2.812072e-18)
(94.698012 -0.61042518 -1.2268491e-21)
(94.644231 -0.3110652 1.0923227e-21)
(94.534476 -0.41317486 1.9955869e-18)
(94.346051 0.13602093 0)
(94.456268 -0.48341452 -3.1474994e-18)
(94.674438 -0.29939581 2.1718467e-18)
(94.725735 -0.42578897 -3.9020535e-18)
(94.622944 -0.19005336 -8.5491231e-22)
(94.539879 -0.17950362 7.6643276e-22)
(94.620416 -0.44009024 -2.8112419e-18)
(94.699799 -0.61077203 1.8390862e-21)
(94.644166 -0.31026405 -1.0943319e-21)
(94.534021 -0.41172976 1.9946154e-18)
(94.345355 0.1366712 3.5477e-18)
(94.456149 -0.48284045 0)
(94.675358 -0.2992768 0)
(94.726629 -0.42528485 1.950482e-18)
(94.622759 -0.18863205 -8.5411834e-22)
(94.539591 -0.17923742 0)
(94.621174 -0.44086355 5.6155204e-18)
(94.70092 -0.6109319 -2.5082527e-18)
(94.644385 -0.30911198 -1.5250421e-24)
(94.533568 -0.41032371 -1.9946332e-18)
(94.344604 0.13724733 -7.0918188e-18)
(94.456145 -0.4822605 -1.5391311e-21)
(94.676586 -0.29960926 5.2907976e-22)
(94.727528 -0.42494444 -1.9476123e-18)
(94.622625 -0.18718607 0)
(94.539394 -0.17889636 -7.6515715e-22)
(94.622335 -0.44161332 -2.8050253e-18)
(94.702416 -0.61131888 1.2308072e-23)
(94.644302 -0.30825871 2.2367004e-18)
(94.533097 -0.4088598 0)
(94.343864 0.13787734 7.0900703e-18)
(94.456318 -0.4816649 3.1448048e-18)
(94.677687 -0.29946589 0)
(94.728276 -0.42447442 1.9447954e-18)
(94.622471 -0.18573309 8.5259685e-22)
(94.539372 -0.17861485 0)
(94.623088 -0.44240069 -2.8036964e-18)
(94.703333 -0.61145824 2.506304e-18)
(94.644499 -0.30710084 -2.2376839e-18)
(94.532648 -0.40742943 9.724187e-22)
(94.343149 0.13847606 -3.5437641e-18)
(94.456484 -0.48110855 3.4909887e-24)
(94.679175 -0.12388493 0)
(94.678852 -0.29983924 0)
(94.729057 -0.42407442 0)
(94.622284 -0.18426368 -1.7459318e-18)
(94.539526 -0.17827585 0)
(94.624273 -0.44317792 2.8010881e-18)
(94.704645 -0.61188168 1.83443e-21)
(94.644415 -0.3062112 2.2332448e-18)
(94.532194 -0.40595049 -9.7293273e-22)
(94.342421 0.1391462 1.7278513e-21)
(94.456666 -0.48053228 -7.6705138e-22)
(94.678862 -0.12261206 -5.8562777e-22)
(94.679996 -0.29970922 -2.1585065e-18)
(94.729871 -0.42360072 5.2539552e-25)
(94.62216 -0.18278267 -8.6251533e-22)
(94.539638 -0.17797691 0)
(94.625088 -0.44394813 -6.8326267e-22)
(94.705528 -0.61198469 -6.110419e-22)
(94.644631 -0.30505198 -2.2321185e-18)
(94.531749 -0.40450707 9.7252519e-22)
(94.341724 0.13971744 -8.6384392e-22)
(94.456808 -0.47997858 -3.1423822e-18)
(94.67872 -0.12139704 5.8477981e-22)
(94.681078 -0.30008552 1.0574718e-21)
(94.730793 -0.42313846 -9.4761508e-22)
(94.622 -0.18131416 1.7430719e-18)
(94.539514 -0.17770152 0)
(94.626525 -0.44476666 6.8281719e-22)
(94.706847 -0.61242488 2.5000268e-18)
(94.644538 -0.30413971 4.4631391e-18)
(94.531289 -0.40302984 -9.3994756e-25)
(94.34104 0.14029416 8.6356618e-22)
(94.678449 -0.12003239 0)
(94.682326 -0.30000378 2.1560364e-18)
(94.731727 -0.42261297 -9.4733575e-22)
(94.621757 -0.1798219 1.7434222e-18)
(94.539146 -0.17744595 -7.6251109e-22)
(94.62742 -0.44549272 0)
(94.707916 -0.61246126 -4.9985116e-18)
(94.644721 -0.30296374 -1.0875038e-21)
(94.530818 -0.40156708 9.7080819e-22)
(94.340411 0.14091334 0)
(94.794653 -0.25900981 1.2951559e-21)
(94.678188 -0.11891832 2.4513541e-25)
(94.683376 -0.3003907 -5.260322e-22)
(94.732699 -0.42216791 -9.465517e-22)
(94.62145 -0.17831557 -1.7395396e-18)
(94.538842 -0.17721452 3.1219313e-18)
(94.628796 -0.44638862 -2.7938697e-18)
(94.709345 -0.61291048 -5.9678292e-22)
(94.644603 -0.30202505 -2.2311194e-18)
(94.530315 -0.40007513 1.9887941e-18)
(94.339728 0.14153288 0)
(94.79509 -0.25795336 6.4713443e-22)
(94.677953 -0.11750744 -5.8308655e-22)
(94.684611 -0.3003112 2.1522104e-18)
(94.733659 -0.42162639 1.9356358e-18)
(94.621133 -0.17682363 0)
(94.53871 -0.1769644 -6.238934e-18)
(94.629651 -0.44712515 2.7922226e-18)
(94.710547 -0.6128911 4.9944369e-18)
(94.644776 -0.30082654 -1.0879168e-21)
(94.52982 -0.39858382 -5.9603065e-18)
(94.339018 0.14213585 -3.5387855e-18)
(94.795999 -0.25680873 -1.3239115e-18)
(94.677576 -0.11645269 0)
(94.685807 -0.30074879 -2.1503956e-18)
(94.734511 -0.42110862 -1.9341241e-18)
(94.620799 -0.17527563 0)
(94.538627 -0.17671058 3.1178366e-18)
(94.630978 -0.44804878 -6.8116827e-22)
(94.711906 -0.61335616 -2.4959686e-18)
(94.644655 -0.29986959 -6.6934147e-25)
(94.529301 -0.39709123 3.9727721e-18)
(94.338239 0.14270008 3.53693e-18)
(94.796471 -0.25567859 1.321388e-18)
(94.677253 -0.11503613 -2.3850603e-18)
(94.687 -0.3006573 -2.1486483e-18)
(94.735306 -0.42056905 0)
(94.620425 -0.17375971 0)
(94.538534 -0.17649955 7.6013908e-22)
(94.631933 -0.44879946 -6.8153298e-22)
(94.713083 -0.61331128 0)
(94.6448 -0.29865672 -2.2271785e-18)
(94.528796 -0.395597 3.9714628e-18)
(94.337482 0.1432573 -3.535156e-18)
(94.78836 -0.24696617 0)
(94.79726 -0.25446857 -1.3208508e-18)
(94.676801 -0.1139288 4.7672575e-18)
(94.688324 -0.30112244 5.1502446e-24)
(94.736131 -0.42007925 1.9303419e-18)
(94.620017 -0.17221784 8.467842e-22)
(94.53841 -0.17624729 3.1135124e-18)
(94.633254 -0.44976576 2.7882614e-18)
(94.714296 -0.61378033 0)
(94.64465 -0.29767082 2.2273886e-18)
(94.528286 -0.39407927 -3.9701662e-18)
(94.33674 0.14385632 3.5333935e-18)
(94.790421 -0.24675822 3.5670131e-22)
(94.797764 -0.25333609 -6.4865763e-22)
(94.676445 -0.11267439 -2.382263e-18)
(94.689615 -0.30104501 4.2912003e-18)
(94.736925 -0.41948059 -3.8589272e-18)
(94.619563 -0.17070509 -8.4624285e-22)
(94.538466 -0.17605667 -3.1130263e-18)
(94.634188 -0.45048803 -2.7861702e-18)
(94.715477 -0.61372361 0)
(94.644778 -0.29643639 1.0868405e-21)
(94.52778 -0.39255757 3.9670226e-18)
(94.336033 0.14444687 8.6190509e-22)
(94.791361 -0.2459542 1.4587151e-18)
(94.798517 -0.25206086 1.3192328e-18)
(94.675934 -0.11142184 2.3804078e-18)
(94.69102 -0.30153522 -2.1442909e-18)
(94.737702 -0.41892711 1.9286305e-18)
(94.61918 -0.16915869 0)
(94.538626 -0.17579983 0)
(94.635474 -0.45155619 0)
(94.716635 -0.61417405 2.4908088e-18)
(94.644648 -0.29542334 -2.2246531e-18)
(94.527253 -0.39103792 -7.9355521e-18)
(94.79339 -0.24576851 -1.4588817e-18)
(94.799017 -0.25086963 -6.4371024e-22)
(94.675591 -0.11029712 1.178635e-21)
(94.692344 -0.30146911 -5.2315746e-22)
(94.73853 -0.4183225 0)
(94.618739 -0.1675789 1.7323573e-18)
(94.538778 -0.17561363 0)
(94.636447 -0.45220612 2.7841257e-18)
(94.717889 -0.61411273 -2.4897893e-18)
(94.644747 -0.29418302 2.2238727e-18)
(94.526715 -0.38951103 7.9333004e-18)
(94.823803 -0.1243007 -3.2223476e-18)
(94.794455 -0.24485779 -3.5582568e-22)
(94.7998 -0.24957131 -1.3164866e-18)
(94.675176 -0.10897297 -2.376254e-18)
(94.693816 -0.30196027 0)
(94.739308 -0.41775737 0)
(94.61845 -0.16602085 1.2867529e-23)
(94.538768 -0.17538485 -3.1063575e-18)
(94.637842 -0.45334758 -2.7835456e-18)
(94.71904 -0.61452967 -2.4875698e-18)
(94.64459 -0.29314776 2.2220449e-18)
(94.526188 -0.3879733 -3.965563e-18)
(94.824207 -0.12221973 1.6103895e-18)
(94.796348 -0.2447797 0)
(94.800276 -0.24833994 1.3154836e-18)
(94.674706 -0.10789539 -5.7957536e-22)
(94.695081 -0.30196875 2.1398853e-18)
(94.739966 -0.41712536 -1.9249941e-18)
(94.618152 -0.16443107 -1.7303984e-18)
(94.538722 -0.17525105 6.2114332e-18)
(94.638799 -0.45399038 0)
(94.720346 -0.61446741 2.4878448e-18)
(94.644682 -0.29188488 -2.2224116e-18)
(94.525641 -0.38642721 3.9635849e-18)
(94.824467 -0.12062298 1.6086833e-18)
(94.797606 -0.24381365 7.1048646e-22)
(94.801052 -0.2469663 -6.4181874e-22)
(94.674494 -0.10656354 5.7917636e-22)
(94.696591 -0.30241981 -2.1374844e-18)
(94.740666 -0.41649581 1.922925e-18)
(94.61782 -0.16282999 0)
(94.538747 -0.17505296 -3.1042304e-18)
(94.640166 -0.455147 -2.7804351e-18)
(94.721454 -0.61484937 2.4869191e-18)
(94.644548 -0.29081294 -2.2217305e-18)
(94.525097 -0.38488334 2.0277875e-23)
(94.824954 -0.11867156 -1.607794e-18)
(94.799356 -0.24377147 0)
(94.801522 -0.24573578 -1.313598e-18)
(94.673984 -0.10550382 -5.7879213e-22)
(94.697866 -0.30244307 5.2181203e-22)
(94.741291 -0.41586703 0)
(94.61736 -0.16123959 8.4421346e-22)
(94.538843 -0.17490293 -2.9919356e-25)
(94.641034 -0.45584939 1.8755006e-23)
(94.722773 -0.61479942 -4.9727054e-18)
(94.644593 -0.28954071 2.2210727e-18)
(94.524549 -0.38332235 -3.9616475e-18)
(94.934176 -0.2206574 -1.7735822e-18)
(94.825125 -0.11700655 -1.6057913e-18)
(94.800767 -0.24276733 0)
(94.802179 -0.2442539 6.3642886e-22)
(94.673815 -0.10416531 -1.1566195e-21)
(94.699299 -0.30300331 -2.1349056e-18)
(94.741839 -0.41526599 0)
(94.616952 -0.15962533 0)
(94.539078 -0.17472822 -3.1011746e-18)
(94.64242 -0.45699318 2.7789109e-18)
(94.723864 -0.61513705 4.969815e-18)
(94.644443 -0.28844732 0)
(94.524002 -0.3817548 3.9617464e-18)
(94.934572 -0.21882631 -4.3260056e-22)
(94.82566 -0.11499774 -8.0535674e-24)
(94.802438 -0.24275293 7.089542e-22)
(94.802699 -0.24306634 2.62306e-18)
(94.673319 -0.10306826 0)
(94.700625 -0.30298192 2.1331875e-18)
(94.742472 -0.4145642 9.3795737e-22)
(94.616665 -0.15803802 8.4339754e-22)
(94.539276 -0.17458471 3.0994105e-18)
(94.643365 -0.45771659 -2.7778588e-18)
(94.725176 -0.61510813 -2.484422e-18)
(94.644466 -0.28715815 -2.2198615e-18)
(94.936498 -0.21692916 0)
(94.825705 -0.11342263 -8.1001109e-24)
(94.8039 -0.24177079 0)
(94.803256 -0.24149565 -2.6214543e-18)
(94.673266 -0.10186535 -5.7751465e-22)
(94.702025 -0.30353123 2.1330882e-18)
(94.743048 -0.4138826 1.9198166e-18)
(94.616443 -0.15641305 1.7253494e-18)
(94.539316 -0.17444908 7.5629801e-22)
(94.644876 -0.45886979 5.5531207e-18)
(94.726261 -0.61539325 -6.066489e-22)
(94.644302 -0.28603582 4.4386216e-18)
(94.93695 -0.21509698 4.3212352e-22)
(94.826358 -0.11135855 3.2052856e-18)
(94.805574 -0.24167285 -7.0805209e-22)
(94.803733 -0.24023974 1.3109147e-18)
(94.6727 -0.10064315 0)
(94.703348 -0.30361176 -2.1320101e-18)
(94.743669 -0.41320652 4.2172903e-24)
(94.616096 -0.15470186 -1.7246123e-18)
(94.539238 -0.17434383 -7.5594734e-22)
(94.645938 -0.45958521 -2.7759885e-18)
(94.727579 -0.61538204 6.0647588e-22)
(94.644289 -0.28473809 -2.2177064e-18)
(94.956397 -0.18418012 -2.3802151e-22)
(94.938677 -0.21324038 1.7680864e-18)
(94.826224 -0.10977282 -1.6018204e-18)
(94.807044 -0.24084304 1.4491202e-18)
(94.804358 -0.23870325 6.3982177e-22)
(94.672748 -0.099548484 2.1705676e-25)
(94.704839 -0.30410426 5.2000001e-22)
(94.744388 -0.41249855 -1.9190057e-18)
(94.615565 -0.15313218 8.4232605e-22)
(94.539182 -0.17422952 -3.2670812e-25)
(94.647363 -0.46078352 -7.5476899e-25)
(94.728675 -0.61561304 -2.4829029e-18)
(94.644145 -0.28358663 0)
(94.958692 -0.18296907 1.9484279e-18)
(94.939239 -0.2112718 2.6202421e-24)
(94.827007 -0.10777155 3.9078345e-22)
(94.80868 -0.24058663 -2.8962296e-18)
(94.804699 -0.23732404 1.3075641e-18)
(94.672196 -0.098246172 -2.3633939e-18)
(94.706064 -0.30425216 -2.1305012e-18)
(94.745064 -0.41176563 1.8730977e-21)
(94.614998 -0.15148254 -8.4117388e-22)
(94.539139 -0.17416144 0)
(94.648515 -0.46150259 0)
(94.729981 -0.61561878 2.4816773e-18)
(94.64411 -0.28226214 0)
(94.959755 -0.18064256 -3.8948431e-18)
(94.940718 -0.20943721 -1.7658787e-18)
(94.826746 -0.10606936 0)
(94.810231 -0.23984575 7.1002654e-22)
(94.805397 -0.23578839 -6.329742e-22)
(94.672235 -0.097257333 2.3622544e-18)
(94.70757 -0.30470279 6.6417039e-24)
(94.745698 -0.41099485 0)
(94.614534 -0.14990546 8.4169499e-22)
(94.539099 -0.17407804 -7.5463622e-22)
(94.649855 -0.46273159 0)
(94.731093 -0.61579828 -2.4798595e-18)
(94.643928 -0.2810824 -2.1651132e-21)
(95.042278 -0.13475755 -1.0719555e-18)
(94.961967 -0.17954142 3.8929407e-18)
(94.941443 -0.20751772 -4.3090359e-22)
(94.827516 -0.10420203 0)
(94.811752 -0.23963467 3.1994596e-24)
(94.805669 -0.23436753 -1.307531e-18)
(94.671764 -0.095899246 -2.3612018e-18)
(94.708908 -0.30494836 4.2573449e-18)
(94.746347 -0.41024858 6.2011565e-25)
(94.614068 -0.14818654 -1.7245916e-18)
(94.539242 -0.17398929 1.5092039e-21)
(94.651051 -0.46347232 -6.7725039e-22)
(94.732385 -0.61581856 2.4805239e-18)
(94.643848 -0.27976015 0)
(95.042552 -0.13207619 2.1426095e-18)
(94.963097 -0.1771895 -1.9451039e-18)
(94.942701 -0.2055793 0)
(94.827275 -0.10232652 1.5986073e-18)
(94.813388 -0.23881338 2.892413e-18)
(94.80631 -0.23279748 1.3069328e-18)
(94.671679 -0.094956443 -1.1670125e-21)
(94.710338 -0.30533772 -2.1267909e-18)
(94.746932 -0.40950009 9.3578983e-22)
(94.613587 -0.14657108 3.4438512e-18)
(94.539382 -0.17393121 -3.088251e-18)
(94.652323 -0.46471439 0)
(94.733498 -0.61595605 2.4799893e-18)
(95.044432 -0.12861435 2.6414363e-22)
(94.965174 -0.17614146 -1.9445006e-18)
(94.943436 -0.20362522 -1.7629535e-18)
(94.827958 -0.10064291 -1.5970244e-18)
(94.814842 -0.23862351 -1.4453523e-18)
(94.806608 -0.23128296 -1.3057155e-18)
(94.671363 -0.093602846 -5.9065155e-22)
(94.711776 -0.30564617 -1.0382624e-21)
(94.747482 -0.40867719 -6.3005363e-25)
(94.613063 -0.14489186 -3.4428014e-18)
(94.539397 -0.17389067 7.5508501e-22)
(94.653697 -0.46547495 -6.7692547e-22)
(94.734763 -0.61597734 -2.4783003e-18)
(95.154557 -0.20981704 -1.1772671e-18)
(95.044456 -0.12590998 -1.0698386e-18)
(94.966447 -0.17377461 1.9427736e-18)
(94.944682 -0.20166555 1.7620713e-18)
(94.827701 -0.098634404 0)
(94.816464 -0.23790326 0)
(94.807144 -0.2297664 -6.3800467e-22)
(94.67118 -0.092659372 2.3594594e-18)
(94.713238 -0.30600306 -1.5570661e-21)
(94.748028 -0.40790938 1.8697147e-21)
(94.612494 -0.14323022 1.7196407e-18)
(94.539298 -0.17385641 9.7146033e-25)
(94.654975 -0.46670036 2.7707763e-18)
(94.735877 -0.61608186 2.4802575e-18)
(95.156471 -0.20692939 -1.1772046e-18)
(95.046426 -0.12242237 2.6105072e-22)
(94.968252 -0.17274886 -4.7410433e-22)
(94.945272 -0.19977142 4.3001883e-22)
(94.82841 -0.096990639 1.5959602e-18)
(94.817964 -0.23759439 -7.0519417e-22)
(94.807492 -0.22810654 2.611254e-18)
(94.670977 -0.091344144 -5.7536051e-22)
(94.714567 -0.30638323 2.1255579e-18)
(94.748573 -0.40708372 -9.3489526e-22)
(94.611822 -0.1415725 8.3957501e-22)
(94.539197 -0.17387526 3.0873957e-18)
(94.65641 -0.46753009 -2.7695534e-18)
(94.737108 -0.61610144 -2.478637e-18)
(95.158235 -0.20336676 1.176178e-18)
(95.046324 -0.11958866 -1.0690293e-18)
(94.969769 -0.17028854 0)
(94.946568 -0.19754713 1.7604691e-18)
(94.828019 -0.094961961 -1.5960674e-18)
(94.819522 -0.23697118 1.4098886e-21)
(94.807912 -0.22665213 -2.6102892e-18)
(94.670762 -0.090387464 0)
(94.716044 -0.30671212 -2.1243855e-18)
(94.749072 -0.40621094 9.3463611e-22)
(94.611229 -0.13992723 -8.3936475e-22)
(94.539241 -0.17385993 0)