/*--------------------------------*- C++ -*----------------------------------*\
| =========                 |                                                 |
| \\      /  F ield         | OpenFOAM: The Open Source CFD Toolbox           |
|  \\    /   O peration     | Version:  2506                                  |
|   \\  /    A nd           | Website:  www.openfoam.com                      |
|    \\/     M anipulation  |                                                 |
\*---------------------------------------------------------------------------*/
FoamFile
{
    version     2.0;
    format      ascii;
    arch        "LSB;label=32;scalar=64";
    class       volScalarField;
    location    "1.9";
    object      alphat;
}
// * * * * * * * * * * * * * * * * * * * * * * * * * * * * * * * * * * * * * //

dimensions      [1 -1 -1 0 0 0 0];

internalField   nonuniform List<scalar> 
1375
(
0.048297217
0.06175469
0.075567349
0.038926634
0.049024469
0.062688489
0.076616776
0.08926798
0.099788739
0.10788939
0.11368062
0.1175118
0.039454733
0.049758989
0.063607886
0.077626713
0.090259905
0.10067071
0.1085996
0.11419194
0.11783324
0.12004195
0.12119326
0.12159496
0.12164823
0.1215467
0.12142138
0.039978483
0.050487324
0.064504479
0.078592094
0.09118861
0.1014792
0.10923612
0.11463846
0.1181036
0.12017389
0.12119584
0.12152979
0.12154703
0.12143575
0.12131906
0.12124627
0.12113001
0.12103158
0.12098441
0.04047287
0.05119063
0.065366394
0.079507808
0.092054145
0.10221727
0.10980346
0.11502489
0.11832679
0.12027041
0.12117911
0.12145494
0.12144331
0.12132709
0.12122149
0.12114687
0.12102225
0.12093687
0.12089581
0.12087475
0.12086774
0.12087098
0.12088162
0.04091633
0.051849575
0.066181509
0.080370404
0.092860374
0.10289313
0.11031113
0.11535965
0.11850911
0.12033634
0.12114606
0.12137236
0.1213385
0.12122155
0.12112743
0.12104481
0.12091826
0.12084496
0.12080879
0.12079091
0.12078641
0.12079164
0.1208038
0.12082089
0.12084164
0.12086533
0.12089163
0.041296961
0.052452196
0.066944978
0.081183738
0.093618343
0.10352176
0.11077443
0.11565551
0.11865974
0.12037797
0.12109936
0.12128322
0.121233
0.12111854
0.12103488
0.12094104
0.12081873
0.12075578
0.12072355
0.12070832
0.12070586
0.12071273
0.12072626
0.12074447
0.12076603
0.1207903
0.12081707
0.12084624
0.12087792
0.12091219
0.041611967
0.052988945
0.067650482
0.081948078
0.094335125
0.10411503
0.11120694
0.11592486
0.11878835
0.12040241
0.12104244
0.12118913
0.12112696
0.1210163
0.12094196
0.12083583
0.12072274
0.12066872
0.12064024
0.12062756
0.12062691
0.12063505
0.12064943
0.12066827
0.12069038
0.12071513
0.12074248
0.12077225
0.12080426
0.1208387
0.12087576
0.12091557
0.12095847
0.041866972
0.053451855
0.068287153
0.082654011
0.095005264
0.10467228
0.11161188
0.116173
0.11890062
0.12041482
0.12097868
0.12109185
0.12102031
0.1209156
0.12084695
0.12072982
0.12062916
0.12058276
0.12055798
0.12054789
0.12054906
0.12055851
0.1205738
0.12059323
0.12061576
0.12064086
0.12066825
0.12069813
0.12073054
0.12076535
0.12080274
0.12084279
0.12088575
0.12093219
0.1209826
0.042076052
0.053838595
0.068843111
0.083284617
0.095611204
0.10517894
0.11197955
0.11639512
0.11899548
0.12041614
0.12090995
0.12099282
0.12091407
0.12081717
0.12074968
0.12062375
0.12053746
0.12049764
0.1204766
0.12046915
0.1204721
0.12048272
0.12049885
0.1205189
0.12054189
0.12056734
0.120595
0.12062483
0.12065711
0.12069192
0.12072949
0.12076996
0.12081326
0.12085981
0.1209103
0.12096529
0.12102554
0.1210919
0.042260881
0.054159171
0.069315785
0.083827163
0.096134299
0.1056154
0.11229337
0.11657975
0.11906661
0.12040338
0.12083611
0.12089292
0.12080958
0.12072134
0.12064926
0.1205203
0.12044758
0.12041349
0.12039612
0.12039127
0.12039589
0.12040753
0.12042429
0.12044481
0.12046822
0.12049402
0.12052202
0.12055219
0.1205846
0.1206194
0.12065673
0.12069693
0.12074046
0.12078744
0.12083805
0.12089307
0.12095329
0.12101957
0.12109287
0.12117425
0.042447309
0.054437883
0.069718464
0.084283431
0.096567249
0.10596934
0.11254021
0.11671606
0.11910698
0.12037206
0.12075575
0.1207923
0.12070743
0.1206275
0.1205471
0.12042066
0.12035961
0.12033046
0.12031659
0.12031425
0.12032051
0.12033312
0.12035041
0.12037121
0.1203948
0.12042082
0.12044907
0.1204795
0.12051214
0.12054712
0.12058453
0.12062467
0.12066792
0.12071484
0.12076562
0.12082073
0.120881
0.12094725
0.12102046
0.12110174
0.12119237
0.12129426
0.04265948
0.054709344
0.070081157
0.084674606
0.09692182
0.10624473
0.11271908
0.11680096
0.11911359
0.12031962
0.12066762
0.12069073
0.1206074
0.12053512
0.12044487
0.1203252
0.12027365
0.12024866
0.12023791
0.12023785
0.12024564
0.12025919
0.12027705
0.12029821
0.12032202
0.12034812
0.12037637
0.12040677
0.12043946
0.1204746
0.12051224
0.12055256
0.12059581
0.12064252
0.1206932
0.12074829
0.12080854
0.12087485
0.12094807
0.12102918
0.12111959
0.12122127
0.12133832
0.0429141
0.055011164
0.070446432
0.085040596
0.097230904
0.10646554
0.11284528
0.11684305
0.11908998
0.12024782
0.1205719
0.12058812
0.12050896
0.1204438
0.12034367
0.12023377
0.12018967
0.1201681
0.12015996
0.12016181
0.12017092
0.12018534
0.12020377
0.12022531
0.12024944
0.12027581
0.12030422
0.12033464
0.12036713
0.12040197
0.12043958
0.12048015
0.12052368
0.12057049
0.12062117
0.12067616
0.12073613
0.12080221
0.12087533
0.12095639
0.12104661
0.12114804
0.12126482
0.12140527
0.12157998
0.043216675
0.055375131
0.070862035
0.085435563
0.097546631
0.10667575
0.1129517
0.11686397
0.11904879
0.12016339
0.12047078
0.12048484
0.1204113
0.12035293
0.12024376
0.12014568
0.12010751
0.12008886
0.12008295
0.12008637
0.1200965
0.12011157
0.12013043
0.12015232
0.12017673
0.12020337
0.12023205
0.12026267
0.12029529
0.12033012
0.12036749
0.1204078
0.12045137
0.12049836
0.12054916
0.12060423
0.12066406
0.12072957
0.12080225
0.12088318
0.1209733
0.12107459
0.12119116
0.12133133
0.12150584
0.12171153
0.043561061
0.055816064
0.071363837
0.085909879
0.097924507
0.10692718
0.11308039
0.11689362
0.11900903
0.12007766
0.12036882
0.12038199
0.12031445
0.1202625
0.12014467
0.12005984
0.1200265
0.12001053
0.12000669
0.12001161
0.12002275
0.12003843
0.12005761
0.12007963
0.12010409
0.12013078
0.12015958
0.12019044
0.12022336
0.12025845
0.12029591
0.12033612
0.12037953
0.12042639
0.12047705
0.12053206
0.12059194
0.12065738
0.12072945
0.12080962
0.12089942
0.1210006
0.1211172
0.12125722
0.12143136
0.12163482
0.12177319
0.043934048
0.056329162
0.071965249
0.086494089
0.098405511
0.10726271
0.1132691
0.11696035
0.11898907
0.12000351
0.1202715
0.12028181
0.12022082
0.12017055
0.12004747
0.11997548
0.11994608
0.11993257
0.11993061
0.11993692
0.11994906
0.11996543
0.11998506
0.12000737
0.12003202
0.12005878
0.12008753
0.1201183
0.12015119
0.1201864
0.12022415
0.12026458
0.120308
0.12035481
0.12040531
0.12045998
0.12051964
0.12058501
0.12065689
0.12073645
0.12082539
0.12092595
0.12104258
0.12118289
0.12135693
0.12155768
0.12168461
0.12096918
0.11228813
0.04432192
0.05689585
0.072655935
0.08719071
0.0990039
0.10770315
0.11353899
0.11708164
0.11900423
0.11994787
0.12018306
0.12018656
0.1201311
0.1200767
0.11995302
0.11989252
0.11986659
0.1198553
0.11985492
0.11986227
0.11987512
0.11989206
0.1199122
0.11993498
0.11995999
0.11998697
0.12001586
0.12004673
0.12007968
0.12011483
0.12015244
0.12019283
0.12023629
0.12028315
0.12033375
0.12038839
0.12044757
0.12051237
0.12058399
0.12066335
0.12075167
0.12085159
0.12096766
0.1211082
0.12128204
0.12148007
0.12159438
0.12080906
0.11214047
0.044716299
0.057496224
0.073412482
0.08797919
0.099706117
0.10824237
0.11388908
0.11726013
0.11906031
0.11991144
0.12010556
0.12009757
0.12004522
0.11998135
0.11986114
0.11981038
0.11978768
0.11977868
0.11978
0.11978852
0.11980208
0.11981934
0.11983949
0.11986212
0.11988712
0.11991447
0.11994391
0.11997516
0.12000832
0.12004359
0.12008118
0.1201215
0.1201648
0.12021138
0.12026177
0.12031642
0.1203757
0.12044018
0.12051098
0.12058979
0.12067786
0.12077739
0.12089307
0.12103349
0.12120675
0.12140202
0.12150352
0.1206373
0.11146253
0.045112307
0.058109151
0.074200641
0.088818497
0.10047183
0.10884642
0.11429467
0.11748104
0.11914885
0.11988982
0.12003802
0.12001474
0.11996279
0.11988557
0.11977185
0.11972896
0.1197091
0.11970218
0.11970503
0.11971468
0.1197291
0.11974701
0.11976767
0.11979059
0.11981549
0.11984225
0.1198711
0.11990232
0.11993596
0.11997183
0.12000985
0.12005027
0.12009352
0.12013997
0.12018999
0.12024419
0.12030333
0.12036801
0.12043873
0.12051662
0.12060378
0.12070277
0.12081834
0.12095886
0.12113192
0.12132389
0.1214115
0.12045235
0.11046925
0.045505463
0.05871215
0.074979823
0.089654892
0.10124275
0.1094616
0.11471339
0.11771517
0.11924956
0.1198745
0.11997639
0.11993631
0.11988287
0.11979055
0.11968543
0.11964879
0.11963133
0.11962617
0.11963028
0.11964081
0.11965591
0.11967439
0.11969547
0.11971871
0.11974389
0.11977095
0.11979991
0.11983084
0.11986384
0.11989922
0.11993728
0.11997805
0.12002169
0.1200684
0.12011849
0.12017246
0.12023105
0.12029532
0.12036611
0.12044382
0.12053018
0.12062817
0.12074306
0.1208838
0.12105692
0.12124576
0.12131818
0.12026144
0.11004914
0.045893995
0.059291833
0.075718281
0.090440386
0.10196217
0.11003241
0.11509934
0.11792895
0.11933847
0.11985506
0.11991502
0.11985936
0.11980379
0.11969678
0.11960178
0.1195702
0.11955495
0.11955137
0.11955651
0.11956766
0.11958307
0.11960171
0.11962295
0.1196464
0.11967187
0.11969924
0.11972842
0.11975949
0.11979257
0.11982782
0.11986547
0.11990574
0.11994901
0.11999567
0.12004605
0.1201004
0.12015914
0.12022276
0.12029268
0.12037012
0.12045622
0.12055362
0.1206685
0.12080878
0.1209813
0.12116709
0.12122302
0.12007091
0.10995176
0.046278441
0.059847095
0.076402802
0.091148235
0.10259379
0.11052033
0.11541873
0.11809627
0.11939671
0.11982271
0.119849
0.11978072
0.11972413
0.11960425
0.11952024
0.11949271
0.1194795
0.11947743
0.11948359
0.11949543
0.11951127
0.11953008
0.11955128
0.11957454
0.11959973
0.11962694
0.11965621
0.11968748
0.1197208
0.11975622
0.11979386
0.11983402
0.11987701
0.11992321
0.1199731
0.12002736
0.12008632
0.12015018
0.12021966
0.12029618
0.12038127
0.12047863
0.12059366
0.12073394
0.12090595
0.12108737
0.12112552
0.11987423
0.10984236
0.046656957
0.060378677
0.077031442
0.091771132
0.10312514
0.11091035
0.11565708
0.11820505
0.11941532
0.11977258
0.11977506
0.11970071
0.11964236
0.11951287
0.11944035
0.11941594
0.11940453
0.11940384
0.11941097
0.11942349
0.11943981
0.11945895
0.11948037
0.11950375
0.11952892
0.11955586
0.11958466
0.11961547
0.1196484
0.11968367
0.11972144
0.11976183
0.11980502
0.11985127
0.11990091
0.11995447
0.12001294
0.1200768
0.12014642
0.12022235
0.12030704
0.1204038
0.12051786
0.12065852
0.12083009
0.12100751
0.12102681
0.11965528
0.10892649
0.047029551
0.060894448
0.077617602
0.092324319
0.10357013
0.11121312
0.11582117
0.11825878
0.11939598
0.11970464
0.11969313
0.119619
0.11955734
0.11942365
0.11936231
0.11934041
0.11933052
0.11933085
0.11933855
0.11935143
0.11936808
0.11938755
0.11940927
0.11943288
0.11945825
0.11948527
0.11951395
0.11954454
0.11957719
0.11961194
0.11964906
0.11968891
0.11973186
0.11977825
0.11982832
0.11988219
0.11993997
0.12000301
0.12007255
0.12014846
0.12023293
0.1203288
0.12044265
0.12058316
0.12075382
0.120927
0.12092619
0.11941454
0.10776028
0.047403028
0.061416572
0.078194104
0.092846294
0.10396713
0.11146183
0.115936
0.1182743
0.11934956
0.1196236
0.11960544
0.11953534
0.11946891
0.11933623
0.11928499
0.11926537
0.11925723
0.11925883
0.11926728
0.11928045
0.11929704
0.11931628
0.11933778
0.11936133
0.11938676
0.119414
0.11944298
0.1194737
0.11950629
0.11954084
0.11957759
0.11961694
0.11965933
0.11970509
0.11975475
0.11980876
0.11986714
0.11993005
0.11999827
0.12007385
0.12015832
0.12025414
0.12036778
0.12050784
0.12067754
0.12084518
0.12082198
0.1191684
0.1076038
0.047783913
0.061965556
0.078795683
0.093381278
0.10436254
0.11169821
0.11603428
0.11827445
0.11929143
0.11953676
0.1195156
0.11945074
0.11937824
0.11925067
0.11920799
0.11919035
0.11918384
0.11918667
0.11919598
0.11920978
0.11922679
0.11924624
0.11926768
0.11929095
0.11931593
0.11934267
0.11937133
0.11940198
0.11943469
0.11946949
0.11950639
0.11954556
0.11958745
0.11963267
0.11968177
0.11973521
0.11979339
0.11985656
0.11992503
0.11999972
0.12008284
0.12017852
0.12029246
0.12043272
0.12060122
0.12076289
0.12071425
0.11892025
0.10769938
0.048172004
0.062544001
0.079436759
0.093954924
0.10478799
0.11195339
0.11614198
0.11827826
0.11923492
0.11945102
0.11942725
0.11936702
0.1192872
0.11916749
0.1191317
0.11911561
0.1191104
0.11911419
0.11912421
0.11913857
0.11915607
0.11917592
0.11919761
0.119221
0.11924597
0.11927255
0.11930095
0.11933127
0.11936354
0.11939785
0.11943438
0.1194735
0.11951543
0.11956047
0.11960915
0.11966203
0.11971976
0.11978274
0.11985119
0.11992573
0.12000844
0.12010328
0.12021692
0.12035737
0.12052462
0.12068017
0.12060487
0.11865396
0.10691165
0.048564978
0.063145896
0.080115653
0.094572007
0.10525377
0.1122405
0.11627132
0.11829532
0.11918709
0.11936989
0.11934174
0.11928462
0.11919645
0.11908645
0.11905638
0.11904199
0.11903815
0.11904276
0.11905308
0.11906739
0.11908477
0.11910463
0.11912657
0.11915036
0.11917574
0.11920257
0.1192309
0.11926098
0.11929291
0.11932692
0.11936326
0.11940212
0.11944373
0.11948849
0.11953679
0.11958908
0.11964579
0.11970784
0.11977631
0.11985118
0.11993393
0.12002853
0.12014214
0.1202824
0.12044775
0.12059612
0.12049273
0.11836065
0.10579125
0.11255783
0.11642222
0.11832575
0.11914931
0.11929421
0.11925918
0.11920338
0.11910612
0.11900665
0.11898107
0.11896832
0.11896595
0.11897165
0.11898282
0.11899776
0.1190154
0.11903511
0.11905659
0.11907974
0.11910466
0.11913141
0.11915992
0.11919018
0.11922231
0.11925641
0.11929257
0.1193311
0.11937238
0.11941677
0.11946465
0.11951657
0.11957302
0.11963432
0.119701
0.11977489
0.11985787
0.11995328
0.12006748
0.12020751
0.12037117
0.12051157
0.12037606
0.11804743
0.10528257
0.11917897
0.11912311
0.11901657
0.11892799
0.11890586
0.11889457
0.11889349
0.11890012
0.11891195
0.11892741
0.11894547
0.11896554
0.11898736
0.1190107
0.11903548
0.1190618
0.11908979
0.11911954
0.11915119
0.11918493
0.11922095
0.11925944
0.11930068
0.11934501
0.11939272
0.11944437
0.11950049
0.11956129
0.11962744
0.11970041
0.11978227
0.11987731
0.11999158
0.12013205
0.12029448
0.12042643
0.12025485
0.11772296
0.10527181
0.11882175
0.1188216
0.11882872
0.11884075
0.11885636
0.11887468
0.11889509
0.1189172
0.11894077
0.1189657
0.11899203
0.11901994
0.11904965
0.11908123
0.11911481
0.11915053
0.11918861
0.11922931
0.1192731
0.11932027
0.11937114
0.11942694
0.11948813
0.11955432
0.11962619
0.11970739
0.11980248
0.11991685
0.12005682
0.12021639
0.12033938
0.12012925
0.11738118
0.10504588
0.11880468
0.11882466
0.11884642
0.11886985
0.11889492
0.11892162
0.1189499
0.11897979
0.11901151
0.11904508
0.11908058
0.11911833
0.11915886
0.11920244
0.11924927
0.11929975
0.11935414
0.11941324
0.1194785
0.11955093
0.11963261
0.11972769
0.11984236
0.11998197
0.120139
0.12025133
0.11999809
0.11701124
0.10421202
0.11885154
0.11887937
0.118909
0.11894039
0.11897381
0.1190093
0.11904717
0.11908798
0.11913189
0.11917877
0.11922875
0.11928244
0.1193408
0.11940486
0.11947589
0.11955649
0.11965129
0.11976643
0.11990659
0.12006108
0.12016262
0.11986236
0.11661016
0.10337245
0.11890344
0.11893867
0.11897611
0.11901586
0.11905886
0.11910533
0.11915568
0.1192099
0.11926827
0.11933161
0.11940181
0.11948177
0.11957633
0.11969178
0.11983073
0.11998153
0.12007177
0.11972105
0.11618744
0.10238095
0.11898813
0.11903387
0.11908286
0.11913587
0.11919361
0.11925692
0.11932705
0.11940703
0.11950191
0.11961754
0.11975607
0.11990288
0.11997877
0.11956921
0.11570858
0.10244087
0.11906363
0.11912024
0.11918233
0.11925134
0.11933075
0.11942589
0.1195422
0.11968057
0.11982357
0.11988431
0.11940683
0.11518806
0.10293198
0.1191767
0.11925564
0.11935047
0.11946665
0.11960408
0.11974245
0.1197863
0.11923364
0.11462323
0.10223272
0.11939144
0.11952783
0.119661
0.11968603
0.11904796
0.11399275
0.10094951
0.11957799
0.11958266
0.11884562
0.11335286
0.10016181
0.11260434
0.10109948
)
;

boundaryField
{
    Side
    {
        type            empty;
    }
    Inlet
    {
        type            calculated;
        value           nonuniform List<scalar> 
25
(
0.13262458
0.13262546
0.13262639
0.13262717
0.13262841
0.13263022
0.13263204
0.1326342
0.13263645
0.13263864
0.1326417
0.13264494
0.13264801
0.13265221
0.13265703
0.1326616
0.13266715
0.13267354
0.13267885
0.13268484
0.1326922
0.13269861
0.13270418
0.13270973
0.13271591
)
;
    }
    Airfoil
    {
        type            compressible::alphatWallFunction;
        value           nonuniform List<scalar> 0();
    }
    Outlet
    {
        type            calculated;
        value           nonuniform List<scalar> 0();
    }
    procBoundary5to4
    {
        type            processor;
        value           nonuniform List<scalar> 
64
(
0.047582612
0.060809528
0.074482475
0.088215853
0.088215853
0.098835323
0.10710632
0.11310372
0.11713783
0.1198711
0.1198711
0.12116752
0.12164762
0.1217448
0.12165805
0.12152827
0.12134412
0.12134412
0.12123946
0.12112953
0.12107463
0.12095969
0.12095969
0.12094983
0.12095087
0.12095986
0.1208976
0.1208976
0.12091756
0.12094068
0.12096656
0.12092049
0.12092049
0.1209519
0.12098587
0.12094905
0.12094905
0.12098872
0.12103146
0.12100481
0.12100481
0.1210551
0.12103756
0.12103756
0.1210978
0.12116413
0.12116524
0.12116524
0.12124664
0.12126497
0.12126497
0.1213672
0.12141168
0.12141168
0.12147884
0.12147884
0.12165362
0.12178745
0.12178745
0.1218595
0.1218595
0.12112415
0.12112415
0.11257166
)
;
    }
    procBoundary5to6
    {
        type            processor;
        value           nonuniform List<scalar> 
61
(
0.048961153
0.063764423
0.080825516
0.095227457
0.10575712
0.10575712
0.11289148
0.11658489
0.11836715
0.11911658
0.11922289
0.11922289
0.11909985
0.11904345
0.11892837
0.11885101
0.11883171
0.11883171
0.11875007
0.11875109
0.11875885
0.11877116
0.1187867
0.1187867
0.11873578
0.11875576
0.11877743
0.11880067
0.11882536
0.11882536
0.11878173
0.11880945
0.11883887
0.11887022
0.11887022
0.11883337
0.11886845
0.11890575
0.11894558
0.11894558
0.1189173
0.11896268
0.1190113
0.1190113
0.11899108
0.11904713
0.11910835
0.11910835
0.11910207
0.11918095
0.11927558
0.11927558
0.11931546
0.1194505
0.1194505
0.11949328
0.11947436
0.11862216
0.11862216
0.11206877
0.1014537
)
;
    }
    procBoundary5to12
    {
        type            processor;
        value           nonuniform List<scalar> 
30
(
0.038542398
0.039037889
0.039530684
0.039987208
0.040383615
0.04071292
0.040988776
0.041241916
0.041507554
0.041810912
0.042159421
0.042545393
0.042952974
0.043366173
0.043773146
0.04416979
0.044559246
0.04494601
0.045333829
0.045726179
0.046120397
0.04650806
0.0468837
0.04724372
0.047581814
0.047896747
0.048195712
0.048488339
0.038415992
0.038415992
)
;
    }
}


// ************************************************************************* //
