/*--------------------------------*- C++ -*----------------------------------*\
  =========                 |
  \\      /  F ield         | OpenFOAM: The Open Source CFD Toolbox
   \\    /   O peration     | Website:  https://openfoam.org
    \\  /    A nd           | Version:  13
     \\/     M anipulation  |
\*---------------------------------------------------------------------------*/
FoamFile
{
    format      ascii;
    class       volScalarField;
    location    "700";
    object      rho;
}
// * * * * * * * * * * * * * * * * * * * * * * * * * * * * * * * * * * * * * //

dimensions      [1 -3 0 0 0 0 0];

internalField   nonuniform List<scalar> 
19257
(
0.71149574
0.67757475
0.68407002
0.68120977
0.68059431
0.68037241
0.68022686
0.6800348
0.67988132
0.67973274
0.67961576
0.67951374
0.67942396
0.67933959
0.67926027
0.67918433
0.6791118
0.67904252
0.67897696
0.67891562
0.67885908
0.67880773
0.67876159
0.67872032
0.67868337
0.67865018
0.67862044
0.67859405
0.67857115
0.67855191
0.67853639
0.67852446
0.67851582
0.67851002
0.6785066
0.67850523
0.67850515
0.6785059
0.67850524
0.67850079
0.67848206
0.6784474
0.67835609
0.67820653
0.67776687
0.67736606
0.67611234
0.67680983
0.67328194
0.71237913
0.67808877
0.68356192
0.68196914
0.68075936
0.68048657
0.68024038
0.67997913
0.67978948
0.67963446
0.67951567
0.67941887
0.6793362
0.67926072
0.67919041
0.6791235
0.67905947
0.67899811
0.67893972
0.67888483
0.67883411
0.67878811
0.67874708
0.67871088
0.67867914
0.67865143
0.67862754
0.67860753
0.67859169
0.67858047
0.67857421
0.6785731
0.67857715
0.67858625
0.6786003
0.6786193
0.67864312
0.67867222
0.67870528
0.67874138
0.67877351
0.67880159
0.67879021
0.678741
0.67843016
0.67817589
0.67709558
0.67811736
0.67427372
0.71418204
0.6794332
0.68279777
0.68254995
0.68094874
0.68052908
0.68023897
0.67992009
0.67969404
0.67952957
0.67940709
0.67931253
0.67923562
0.67916842
0.67910738
0.67905018
0.67899567
0.67894335
0.67889328
0.67884592
0.67880196
0.67876211
0.67872685
0.67869625
0.67867014
0.67864823
0.67863042
0.67861687
0.67860804
0.67860458
0.67860712
0.67861615
0.67863197
0.67865478
0.67868478
0.67872232
0.67876777
0.67882218
0.67888548
0.67895822
0.67903608
0.67912096
0.67918293
0.67922885
0.67904383
0.67894935
0.67806019
0.67942542
0.67585088
0.71267546
0.68109556
0.68189155
0.68285088
0.68114142
0.68049938
0.68018723
0.67983671
0.6795806
0.67941002
0.67928734
0.67919563
0.67912458
0.67906575
0.67901433
0.67896741
0.67892327
0.67888101
0.67884042
0.67880177
0.67876573
0.6787331
0.67870452
0.67868032
0.67866049
0.67864492
0.67863359
0.67862677
0.67862505
0.67862927
0.67864032
0.67865899
0.67868588
0.67872148
0.6787663
0.67882097
0.67888631
0.67896383
0.67905457
0.67916036
0.67927935
0.67941539
0.67954445
0.67967733
0.67961263
0.67966813
0.67900858
0.68072771
0.67762244
0.70803676
0.6826273
0.68090719
0.68277128
0.68126574
0.6803861
0.68005649
0.67971613
0.67944629
0.67927387
0.67915504
0.67906766
0.67900271
0.67895227
0.6789107
0.67887446
0.67884136
0.67881006
0.67878
0.67875122
0.67872428
0.67869998
0.67867913
0.67866223
0.67864948
0.6786409
0.67863659
0.6786369
0.67864253
0.67865448
0.6786739
0.67870184
0.67873924
0.67878689
0.67884557
0.6789162
0.67899997
0.67909879
0.67921461
0.67935032
0.67950636
0.67968818
0.67987803
0.68008895
0.6801381
0.68032539
0.6799204
0.68196556
0.67961085
0.70464156
0.68413089
0.68002304
0.68229797
0.68124979
0.68019644
0.67983853
0.6795477
0.67928856
0.67911946
0.67900805
0.67892742
0.67886936
0.67882754
0.67879609
0.6787709
0.67874937
0.67872979
0.67871121
0.67869341
0.67867673
0.67866194
0.67864992
0.67864133
0.67863655
0.67863575
0.67863912
0.6786471
0.67866047
0.67868038
0.67870817
0.67874522
0.67879274
0.67885184
0.67892361
0.67900924
0.67911026
0.6792289
0.67936786
0.67953092
0.67972054
0.67994348
0.68018831
0.6804686
0.68062432
0.6809223
0.68078415
0.68310978
0.6817403
0.70331428
0.68495045
0.67906563
0.68142347
0.6810145
0.67993211
0.67954135
0.67932414
0.67910327
0.67894464
0.67884336
0.67877265
0.67872328
0.67869081
0.67866991
0.67865615
0.67864664
0.67863935
0.67863304
0.67862715
0.6786218
0.67861764
0.67861556
0.67861634
0.6786205
0.67862836
0.6786402
0.67865651
0.67867814
0.67870637
0.67874273
0.67878884
0.67884624
0.67891636
0.6790006
0.67910043
0.6792177
0.67935495
0.67951547
0.67970375
0.67992404
0.68018412
0.68047874
0.68082055
0.68107539
0.68146374
0.68159264
0.68414311
0.6839493
0.69802455
0.68559643
0.67842474
0.68025888
0.68052033
0.67959621
0.67918674
0.67904358
0.67888312
0.6787456
0.67865786
0.67860093
0.67856342
0.67854188
0.6785323
0.67853044
0.67853327
0.67853866
0.67854514
0.67855187
0.6785587
0.67856612
0.678575
0.67858617
0.67860025
0.67861769
0.67863884
0.67866424
0.67869479
0.67873183
0.67877706
0.67883234
0.67889951
0.67898035
0.67907655
0.67918992
0.67932258
0.67947739
0.67965813
0.67986987
0.68011837
0.68041223
0.68075203
0.68114846
0.68149491
0.6819559
0.68234222
0.68505993
0.68616354
0.69164705
0.6853307
0.67761641
0.67883646
0.67974831
0.67917031
0.67878734
0.67870473
0.67861741
0.67851602
0.67844841
0.67841018
0.67838888
0.67838087
0.67838383
0.67839445
0.67840991
0.67842815
0.67844763
0.67846733
0.67848687
0.67850656
0.67852718
0.67854958
0.67857447
0.67860236
0.67863366
0.67866895
0.67870911
0.67875555
0.67881007
0.67887474
0.67895171
0.67904305
0.67915083
0.67927715
0.67942446
0.67959592
0.67979571
0.68002938
0.68030401
0.6806288
0.68100967
0.68145484
0.68188548
0.68240477
0.68303159
0.68586237
0.68831554
0.68339639
0.68342854
0.67678199
0.67744481
0.6788019
0.67864867
0.6783461
0.67831064
0.67830021
0.67825164
0.67821432
0.67820042
0.67819999
0.67820872
0.67822587
0.67824969
0.67827802
0.67830908
0.67834147
0.67837412
0.6784065
0.67843875
0.67847156
0.67850577
0.67854212
0.67858118
0.6786234
0.67866931
0.6787198
0.67877626
0.67884056
0.67891494
0.67900179
0.67910354
0.67922256
0.67936133
0.67952262
0.67970987
0.67992765
0.68018193
0.68048083
0.6808341
0.68125234
0.68174121
0.68224858
0.68281522
0.68366091
0.68655713
0.69034899
0.67872816
0.68167424
0.67617953
0.67627817
0.67780135
0.6780392
0.67786376
0.67787458
0.67793883
0.67795562
0.677959
0.67797465
0.67799886
0.67802746
0.67806059
0.67809845
0.67813986
0.67818362
0.67822856
0.67827374
0.67831862
0.67836326
0.67840827
0.67845446
0.6785026
0.67855327
0.67860692
0.67866404
0.67872544
0.67879247
0.67886701
0.67895142
0.6790483
0.67916037
0.67929038
0.67944113
0.67961574
0.67981795
0.6800527
0.68032634
0.68064782
0.68102743
0.68147963
0.68200793
0.68258452
0.6831906
0.68423083
0.68715335
0.69221899
0.67627302
0.68018955
0.67558642
0.67531234
0.67684505
0.67738604
0.67736017
0.67742266
0.6775537
0.67763873
0.67768938
0.67773796
0.6777892
0.67783992
0.67789087
0.67794359
0.67799835
0.6780546
0.67811159
0.67816861
0.67822526
0.67828166
0.6783384
0.67839629
0.6784561
0.67851842
0.67858367
0.67865227
0.67872495
0.67880294
0.67888806
0.67898274
0.67908976
0.67921209
0.67935281
0.67951507
0.67970234
0.67991869
0.68016939
0.68046116
0.68080361
0.68120755
0.68169053
0.6822545
0.68289267
0.68353275
0.68474208
0.68766088
0.69389588
0.67470175
0.67914518
0.67518892
0.67459363
0.67601827
0.67675833
0.67687096
0.67698313
0.67716705
0.67731418
0.67741318
0.67749629
0.67757541
0.67764974
0.67771986
0.6777884
0.67785684
0.67792546
0.67799393
0.67806198
0.67812943
0.67819663
0.67826421
0.67833307
0.67840397
0.67847751
0.67855405
0.67863398
0.6787179
0.67880689
0.67890268
0.67900767
0.67912477
0.67925718
0.67940826
0.67958149
0.67978069
0.68001028
0.68027584
0.68058445
0.68094626
0.68137259
0.6818833
0.68247957
0.68317164
0.68384206
0.68519503
0.68808958
0.69536378
0.67357675
0.6783928
0.67492137
0.67404826
0.67532363
0.6761909
0.67641998
0.67657367
0.67679532
0.67699361
0.67713836
0.67725558
0.67736251
0.67746077
0.67755105
0.67763618
0.67771869
0.67779958
0.67787912
0.67795738
0.67803467
0.67811156
0.6781889
0.67826763
0.67834862
0.67843245
0.67851951
0.6786101
0.67870473
0.67880432
0.67891047
0.6790255
0.67915239
0.67929449
0.67945541
0.67963895
0.67984924
0.68009104
0.68037026
0.68069432
0.68107379
0.68152053
0.68205599
0.68268131
0.68341957
0.68411778
0.68558962
0.68844881
0.69661772
0.6727053
0.67782538
0.67477907
0.6736706
0.67476888
0.67570447
0.67602276
0.67620657
0.67645095
0.67668813
0.676873
0.67702232
0.67715551
0.67727706
0.67738761
0.67748984
0.67758667
0.67767988
0.67777013
0.67785809
0.6779444
0.67803001
0.67811595
0.67820335
0.67829313
0.67838601
0.67848238
0.67858255
0.67868689
0.67879619
0.67891191
0.67903627
0.67917225
0.67932333
0.67949331
0.67968625
0.67990658
0.68015936
0.68045084
0.68078874
0.68118402
0.68164903
0.68220625
0.68285742
0.68363432
0.68435829
0.68592551
0.68874719
0.69766022
0.67200598
0.6773826
0.67472639
0.67342001
0.67432881
0.67529442
0.6756832
0.67588855
0.67614341
0.67640716
0.67662489
0.67680231
0.67695902
0.67710196
0.67723204
0.67735118
0.67746245
0.67756787
0.67766879
0.67776612
0.67786101
0.67795459
0.6780482
0.67814307
0.67824036
0.67834088
0.67844517
0.67855351
0.67866621
0.67878391
0.67890794
0.67904047
0.67918446
0.67934345
0.67952138
0.67972253
0.67995158
0.68021389
0.68051598
0.68086591
0.68127492
0.68175586
0.68233176
0.68300543
0.68381359
0.68456124
0.68620186
0.68899195
0.69849627
0.67143108
0.67703185
0.67473965
0.67327043
0.67398941
0.67496057
0.67540553
0.67562488
0.67587924
0.67615776
0.67639997
0.67660022
0.67677644
0.67693781
0.67708549
0.67722064
0.67734577
0.67746324
0.67757467
0.67768134
0.67778456
0.67788575
0.67798634
0.67808784
0.67819153
0.67829851
0.67840939
0.6785245
0.67864404
0.67876857
0.67889936
0.67903856
0.67918911
0.67935461
0.67953909
0.67974697
0.67998316
0.68025325
0.68056405
0.68092392
0.68134434
0.68183861
0.68243
0.68312262
0.68395501
0.68472378
0.68641762
0.68918819
0.69913421
0.67095197
0.67676275
0.67480475
0.67319637
0.67373246
0.67469513
0.67518614
0.67541422
0.67566026
0.67594382
0.6762024
0.67641953
0.67661053
0.67678631
0.67694863
0.67709765
0.67723535
0.67736404
0.67748557
0.67760132
0.67771272
0.67782126
0.67792856
0.67803619
0.67814571
0.67825828
0.67837471
0.67849525
0.67862014
0.6787499
0.67888582
0.67903006
0.6791856
0.67935604
0.67954549
0.67975847
0.68000006
0.68027607
0.68059353
0.68096108
0.68139039
0.6818952
0.68249874
0.68320646
0.68405638
0.68484285
0.68657192
0.68933998
0.69958189
0.67056333
0.6765654
0.67488894
0.67317019
0.67355032
0.67449753
0.67502222
0.67525473
0.67548903
0.67577073
0.67603788
0.67626545
0.67646593
0.67665152
0.67682441
0.67698413
0.67713198
0.67727018
0.67740059
0.67752462
0.67764366
0.67775922
0.67787292
0.67798646
0.67810139
0.67821899
0.67833996
0.67846472
0.67859345
0.67872683
0.67886626
0.67901396
0.67917293
0.67934678
0.67953963
0.6797561
0.68000136
0.68028139
0.68060341
0.68097626
0.6814118
0.68192408
0.68253623
0.68325478
0.68411587
0.68491542
0.68666437
0.68944704
0.69984413
0.67038524
0.67646792
0.6749077
0.6731365
0.67344284
0.6743757
0.67490919
0.67514006
0.67536661
0.67564544
0.67591526
0.67614753
0.67635325
0.67654487
0.67672457
0.67689148
0.67704652
0.67719178
0.67732909
0.6774598
0.67758527
0.67770691
0.67782632
0.67794508
0.67806464
0.67818599
0.67830994
0.67843683
0.67856719
0.67870197
0.67884279
0.67899202
0.6791527
0.67932846
0.67952339
0.67974207
0.67998969
0.68027225
0.680597
0.68097289
0.68141184
0.68192805
0.68254461
0.68326843
0.68413455
0.68493992
0.68669663
0.6894927
0.69993488
0.67053119
0.67650553
0.67479905
0.67304951
0.67340409
0.67433081
0.67484003
0.67506221
0.67529109
0.67557187
0.67584192
0.67607554
0.67628438
0.67647984
0.67666329
0.67683371
0.67699209
0.67714058
0.67728103
0.67741489
0.67754351
0.67766827
0.67779072
0.67791215
0.67803376
0.67815655
0.67828105
0.678408
0.67853819
0.67867293
0.67881409
0.67896416
0.67912617
0.67930361
0.67950043
0.67972103
0.67997041
0.68025443
0.68058024
0.6809567
0.68139574
0.68191151
0.68252725
0.68324943
0.68411419
0.6849162
0.68667047
0.68945651
0.69987047
0.67088657
0.67663355
0.67460912
0.67293506
0.67341799
0.67433926
0.6748004
0.67501009
0.67524835
0.67553342
0.67580115
0.6760334
0.67624364
0.67644103
0.67662581
0.6767971
0.67695631
0.67710564
0.67724697
0.67738167
0.67751117
0.67763687
0.67775999
0.67788178
0.67800332
0.67812541
0.67824897
0.67837482
0.67850409
0.67863828
0.67877937
0.67892984
0.67909259
0.67927097
0.6794687
0.67968997
0.67993961
0.68022328
0.680548
0.6809225
0.68135862
0.68187027
0.68248089
0.6831957
0.68405285
0.68484403
0.68658404
0.68935467
0.69963607
0.67132861
0.67681672
0.67441231
0.67283675
0.67347329
0.67438363
0.6747885
0.67498704
0.67523759
0.67552625
0.67578941
0.67601816
0.67622758
0.67642438
0.67660759
0.67677707
0.6769346
0.67708253
0.67722249
0.67735598
0.67748436
0.67760883
0.67773072
0.67785105
0.67797085
0.67809121
0.67821295
0.67833715
0.67846506
0.67859826
0.67873876
0.67888893
0.67905153
0.6792297
0.67942698
0.67964733
0.67989539
0.68017666
0.68049799
0.68086796
0.68129828
0.68180251
0.68240412
0.68310682
0.68394959
0.68472482
0.68643541
0.68920662
0.69921455
0.67185949
0.67705582
0.6742284
0.67276896
0.67356594
0.67445637
0.67480241
0.6749935
0.67525706
0.67554719
0.6758033
0.67602668
0.67623295
0.67642611
0.67660498
0.67677007
0.67692378
0.67706809
0.67720479
0.67733518
0.67746062
0.6775825
0.6777018
0.67781965
0.67793711
0.67805511
0.67817473
0.67829699
0.67842322
0.67855502
0.67869429
0.6788433
0.67900465
0.6791813
0.67937657
0.67959426
0.67983881
0.68011557
0.68043123
0.68079416
0.68121593
0.68170962
0.68229855
0.68298481
0.68380608
0.68456156
0.68622489
0.68901359
0.6986012
0.67250281
0.67734486
0.67405129
0.6727365
0.67369731
0.6745526
0.67483799
0.67502613
0.67530249
0.67559
0.67583635
0.67605218
0.67625282
0.67643998
0.67661232
0.6767714
0.67691954
0.67705894
0.67719093
0.67731708
0.67743881
0.6775572
0.67767348
0.67778859
0.67790348
0.67801916
0.67813649
0.67825661
0.67838077
0.67851056
0.67864779
0.67879461
0.67895346
0.67912713
0.67931877
0.679532
0.67977111
0.68004128
0.68034904
0.68070253
0.68111311
0.68159334
0.68216601
0.68283186
0.6836243
0.68435722
0.68595331
0.6887715
0.69778839
0.67329476
0.6776873
0.67386949
0.67273501
0.67385888
0.67465908
0.67488305
0.67507556
0.67536393
0.67564516
0.67587921
0.67608646
0.67628002
0.67645947
0.67662422
0.67677639
0.67691857
0.6770523
0.67717933
0.67730107
0.67741888
0.67753402
0.67764734
0.67775979
0.67787222
0.67798541
0.6781003
0.67821789
0.67833945
0.67846647
0.6786007
0.67874417
0.67889918
0.67906837
0.67925473
0.67946175
0.67969354
0.67995513
0.68025288
0.68059469
0.6809916
0.68145561
0.68200857
0.68265029
0.68340641
0.68411463
0.68562166
0.6884753
0.69676761
0.67429239
0.67809206
0.6736654
0.67276021
0.67404609
0.67476329
0.67492634
0.6751319
0.6754318
0.67570243
0.67592399
0.67612304
0.67630929
0.67648077
0.67663786
0.67678347
0.67691966
0.67704823
0.67717055
0.67728825
0.67740265
0.67751469
0.67762534
0.67773527
0.67784516
0.67795575
0.67806779
0.67818232
0.67830052
0.67842387
0.67855404
0.67869293
0.67884275
0.67900599
0.67918551
0.67938465
0.67960738
0.67985857
0.68014437
0.68047241
0.68085334
0.68129857
0.68182847
0.68244254
0.68315472
0.68383624
0.68523083
0.68811792
0.69553361
0.67558745
0.67852931
0.67333642
0.67276086
0.67422991
0.67484146
0.6749553
0.67518889
0.67549867
0.67575672
0.67596701
0.67615974
0.67633912
0.676503
0.67665331
0.67679297
0.67692407
0.67704791
0.67716626
0.67728052
0.67739187
0.67750129
0.67760935
0.67771668
0.67782382
0.67793133
0.67804
0.67815074
0.67826475
0.67838345
0.67850845
0.67864157
0.6787849
0.67894081
0.67911203
0.67930176
0.67951384
0.67975295
0.68002504
0.68033741
0.68070021
0.68112426
0.68162779
0.68221079
0.68287139
0.68352377
0.68478119
0.68769091
0.69408368
0.67751113
0.67924911
0.67303781
0.67285844
0.6744423
0.67488978
0.67497297
0.67524863
0.67556381
0.67580669
0.67600893
0.67619692
0.67637012
0.67652743
0.67667208
0.67680695
0.67693356
0.67705357
0.67716842
0.67727965
0.67738828
0.67749502
0.67760047
0.67770497
0.67780892
0.67791286
0.67801743
0.6781236
0.67823252
0.67834558
0.67846436
0.67859058
0.67872623
0.67887355
0.67903517
0.67921413
0.67941414
0.67963967
0.67989645
0.68019141
0.68053406
0.68093464
0.68140853
0.68195696
0.68255838
0.6831781
0.68427282
0.68718504
0.6924226
0.68024783
0.6787459
0.67193241
0.67285809
0.67461873
0.67489081
0.67498946
0.67531829
0.67562884
0.67585653
0.67605329
0.67623718
0.67640421
0.67655583
0.67669597
0.67682676
0.67694973
0.67706628
0.67717817
0.67728665
0.67739261
0.6774967
0.67759921
0.67770045
0.6778007
0.67790038
0.67800015
0.67810093
0.67820389
0.6783104
0.67842198
0.67854029
0.6786672
0.67880484
0.67895569
0.67912268
0.67930935
0.67951998
0.67975998
0.68003592
0.68035647
0.68073131
0.68117226
0.68168235
0.68221712
0.68279891
0.68370543
0.6865906
0.69056595
0.68419033
0.67822563
0.6708819
0.67287847
0.67468577
0.6748326
0.67501812
0.67539903
0.67569477
0.67590952
0.67610333
0.67628225
0.67644309
0.67658988
0.67672621
0.67685361
0.6769733
0.67708696
0.67719601
0.67730179
0.67740502
0.67750614
0.6776054
0.67770291
0.67779886
0.67789364
0.67798787
0.67808251
0.67817872
0.67827788
0.67838144
0.67849097
0.67860824
0.67873523
0.67887432
0.67902829
0.6792005
0.67939501
0.67961688
0.67987223
0.68016874
0.6805155
0.68092005
0.68138758
0.68184832
0.6823845
0.68307838
0.68589786
0.68854303
0.68711726
0.67663393
0.67000324
0.67303662
0.67465689
0.67475267
0.67507601
0.67548814
0.6757615
0.67596911
0.67616026
0.67633292
0.67648761
0.67663016
0.67676315
0.67688743
0.67700431
0.67711521
0.67722164
0.67732471
0.67742503
0.67752295
0.67761848
0.67771174
0.6778028
0.67789206
0.67798011
0.67806795
0.67815674
0.67824785
0.67834269
0.67844272
0.67854958
0.67866512
0.67879158
0.67893157
0.6790883
0.67926555
0.67946796
0.67970115
0.67997159
0.68028772
0.68065218
0.68107222
0.68145168
0.68193158
0.6823911
0.68509777
0.6863984
0.6905059
0.67472525
0.66959026
0.67331022
0.67456472
0.67471039
0.67517297
0.67557992
0.67583019
0.67603536
0.67622293
0.67638858
0.67653788
0.67667673
0.67680661
0.67692809
0.67704229
0.67715066
0.67725438
0.67735463
0.67745181
0.67754614
0.67763756
0.67772608
0.67781175
0.67789494
0.67797625
0.67805675
0.67813757
0.67822011
0.67830569
0.67839562
0.67849145
0.67859482
0.67870787
0.67883303
0.6789733
0.67913216
0.67931375
0.67952309
0.67976522
0.68004777
0.68036804
0.68073481
0.68102575
0.68143534
0.68164363
0.68418366
0.68418828
0.69260972
0.67303238
0.66976643
0.67364566
0.6744611
0.6747491
0.67530373
0.67567139
0.67590269
0.676107
0.67628877
0.67644798
0.676593
0.67672864
0.67685569
0.67697458
0.67708635
0.6771922
0.67729326
0.67739056
0.67748434
0.67757477
0.67766164
0.67774499
0.67782479
0.67790147
0.67797561
0.67804834
0.67812079
0.67819434
0.67827022
0.67834958
0.67843384
0.6785244
0.67862332
0.67873281
0.67885564
0.67899491
0.67915418
0.67933774
0.67954898
0.6797945
0.68006597
0.68037261
0.68056787
0.68088979
0.68083756
0.68315332
0.68198047
0.69570112
0.67149703
0.67041071
0.67398595
0.67440499
0.67487991
0.67545289
0.675763
0.67598076
0.67618109
0.67635563
0.6765099
0.67665192
0.67678493
0.67690953
0.67702612
0.67713553
0.67723892
0.67733719
0.67743134
0.67752148
0.67760766
0.67768963
0.67776742
0.67784101
0.67791082
0.67797747
0.67804214
0.67810593
0.67817022
0.67823608
0.67830448
0.67837668
0.67845385
0.67853792
0.67863087
0.6787352
0.67885354
0.67898875
0.67914423
0.67932151
0.67952585
0.67974324
0.67998183
0.68007442
0.68028863
0.67997713
0.68201215
0.6798503
0.69865466
0.67066861
0.67171944
0.67430866
0.67444014
0.67508235
0.67560359
0.67585734
0.67606372
0.67625512
0.67642207
0.6765731
0.67671314
0.67684419
0.67696682
0.67708137
0.67718859
0.67728952
0.67738496
0.67747581
0.67756206
0.6776437
0.67772046
0.67779239
0.67785948
0.67792219
0.67798114
0.67803758
0.67809254
0.67814736
0.67820296
0.67826004
0.67831972
0.6783829
0.67845136
0.67852682
0.67861141
0.67870724
0.67881628
0.6789409
0.67908053
0.67923869
0.67939598
0.67955762
0.67954119
0.67962659
0.67907063
0.68077667
0.67786199
0.7013793
0.67038735
0.67343244
0.67455505
0.67458929
0.67531554
0.67574302
0.67595484
0.676149
0.67632764
0.67648812
0.67663721
0.67677607
0.6769058
0.67702693
0.67713968
0.67724472
0.67734317
0.67743562
0.67752296
0.67760509
0.6776819
0.67775316
0.67781895
0.67787932
0.67793474
0.67798589
0.678034
0.67808
0.67812518
0.67817028
0.67821572
0.67826234
0.6783109
0.67836286
0.67841972
0.67848309
0.6785545
0.6786348
0.67872516
0.67882269
0.6789288
0.67901927
0.67909446
0.67896418
0.6789018
0.67813235
0.67947574
0.67609547
0.70415394
0.67055089
0.67515101
0.6746781
0.6748484
0.67554232
0.67586895
0.67605235
0.67623152
0.67639698
0.67655269
0.67670075
0.67683917
0.67696813
0.67708798
0.67719898
0.67730192
0.6773979
0.67748748
0.67757121
0.67764897
0.67772071
0.67778623
0.67784566
0.67789913
0.67794713
0.67799038
0.67803026
0.67806753
0.67810334
0.67813803
0.67817161
0.67820465
0.6782378
0.67827221
0.67830911
0.67834947
0.67839407
0.67844254
0.67849451
0.67854476
0.67859196
0.67860825
0.67858677
0.67834015
0.67811623
0.67718742
0.67815315
0.67454557
0.70609375
0.67133336
0.67664999
0.67466243
0.67516174
0.67570946
0.67597275
0.67613904
0.67630343
0.67645729
0.67661026
0.67675833
0.67689756
0.67702693
0.6771464
0.67725633
0.67735769
0.67745157
0.67753844
0.6776188
0.67769237
0.67775912
0.67781898
0.6778721
0.67791875
0.67795939
0.67799491
0.67802662
0.6780553
0.67808176
0.67810591
0.67812731
0.67814607
0.6781628
0.6781783
0.67819343
0.67820847
0.67822328
0.67823615
0.67824489
0.67824205
0.67822299
0.67815798
0.67803153
0.6776724
0.67728181
0.67627807
0.67684311
0.67361124
0.67848303
0.67970289
0.68000001
0.6800662
0.68008166
0.68005909
0.68000809
0.67994142
0.67986897
0.67979606
0.67972258
0.67964565
0.67956629
0.67949114
0.67942694
0.67937661
0.67933989
0.67931506
0.67930034
0.67929435
0.67929624
0.67930542
0.67932163
0.67934423
0.67937347
0.6794079
0.67944969
0.67949455
0.67955095
0.6796042
0.6796819
0.67973642
0.67985086
0.67988318
0.6800682
0.68001554
0.68035078
0.68007343
0.68074604
0.67994947
0.68136941
0.67948645
0.68248159
0.67831314
0.68433444
0.67599057
0.68782801
0.6747946
0.716566
0.67806933
0.67911444
0.67935215
0.67950442
0.67960226
0.67965068
0.67966227
0.67964989
0.67962325
0.67958727
0.67954175
0.6794856
0.67942363
0.67936505
0.67931665
0.67928062
0.67925629
0.67924218
0.67923686
0.6792393
0.67924886
0.67926503
0.67928757
0.67931584
0.67935008
0.67938897
0.67943456
0.67948289
0.67954182
0.67959774
0.67967636
0.67973288
0.67984577
0.67987991
0.6800605
0.68001164
0.68034008
0.68006945
0.68073227
0.67994254
0.68135231
0.67946572
0.6824668
0.67825148
0.68431034
0.67584021
0.68787263
0.67472775
0.71739497
0.67736206
0.67828675
0.67862004
0.67887485
0.67905218
0.67917202
0.67924945
0.67929697
0.67932312
0.67933157
0.67932146
0.67929346
0.67925581
0.67921956
0.67919139
0.67917297
0.67916371
0.67916247
0.67916828
0.67918046
0.67919861
0.67922235
0.67925152
0.67928559
0.67932489
0.67936822
0.67941766
0.67946952
0.6795314
0.67959036
0.67967104
0.67973044
0.67984411
0.67988124
0.68006067
0.68001551
0.68034044
0.68007407
0.68073122
0.67994312
0.68134891
0.67945066
0.68246611
0.67819384
0.68430529
0.67569646
0.68793733
0.67459127
0.71825152
0.67685739
0.67772224
0.67808603
0.6783763
0.67858615
0.67874255
0.67885982
0.67894887
0.67901572
0.67906131
0.67908303
0.67908277
0.67907114
0.67905967
0.67905407
0.67905541
0.67906306
0.67907632
0.67909466
0.67911773
0.67914536
0.67917734
0.67921364
0.67925386
0.67929844
0.67934639
0.67939982
0.67945527
0.67952021
0.67958222
0.67966517
0.6797274
0.67984229
0.67988224
0.68006118
0.68001921
0.68034142
0.68007833
0.68073084
0.67994295
0.68134613
0.67943452
0.6824653
0.67813452
0.68430017
0.67555362
0.68801322
0.67436227
0.71885748
0.67638593
0.67722003
0.67761131
0.67792796
0.67816018
0.67834266
0.67848974
0.67861141
0.67871161
0.67878864
0.67883843
0.67886429
0.6788786
0.67889234
0.67890995
0.67893174
0.67895717
0.67898585
0.67901759
0.67905233
0.67909007
0.67913076
0.67917453
0.67922115
0.67927121
0.67932389
0.67938141
0.67944051
0.67950858
0.67957363
0.67965895
0.67972392
0.67984021
0.6798828
0.68006159
0.68002236
0.68034237
0.68008173
0.68073043
0.67994156
0.68134351
0.67941698
0.6824644
0.67807391
0.68429634
0.67541417
0.68810743
0.67403594
0.71878354
0.67596668
0.6767928
0.67720175
0.67753414
0.67777933
0.6779789
0.67814714
0.67829349
0.67841998
0.67852247
0.67859589
0.67864531
0.67868417
0.67872234
0.67876263
0.67880476
0.67884814
0.67889261
0.67893819
0.678985
0.6790332
0.67908287
0.67913433
0.67918751
0.67924318
0.67930069
0.67936236
0.67942516
0.67949638
0.67956445
0.67965213
0.67971978
0.67983746
0.67988254
0.68006121
0.68002447
0.68034231
0.68008382
0.6807288
0.67993882
0.68133975
0.67939854
0.68246223
0.67801372
0.68429386
0.67528228
0.68822577
0.67361632
0.71950047
0.67557389
0.67640677
0.67683009
0.67717498
0.67742985
0.6776428
0.67782801
0.67799452
0.67814269
0.67826618
0.67835963
0.67843025
0.67849205
0.67855321
0.67861512
0.67867691
0.67873794
0.67879815
0.67885766
0.67891666
0.67897543
0.67903419
0.67909342
0.67915323
0.67921456
0.67927695
0.67934279
0.67940929
0.67948365
0.6795547
0.67964467
0.67971488
0.67983383
0.67988125
0.68005963
0.68002524
0.68034072
0.68008439
0.6807254
0.6799348
0.68133441
0.67937977
0.6824586
0.67795548
0.6842939
0.67516157
0.68837332
0.6731325
0.72056962
0.67520324
0.67605256
0.6764878
0.67684335
0.67710607
0.67733036
0.67753006
0.67771387
0.67788045
0.67802151
0.67813218
0.67822201
0.67830504
0.67838764
0.6784698
0.67855025
0.67862831
0.67870388
0.67877707
0.67884811
0.67891735
0.67898513
0.67905209
0.67911852
0.6791855
0.67925276
0.67932276
0.67939293
0.67947037
0.67954432
0.67963648
0.67970911
0.67982916
0.67987876
0.68005663
0.68002449
0.68033733
0.68008333
0.68072003
0.67992962
0.68132744
0.67936117
0.68245375
0.67790047
0.68429806
0.6750547
0.68855343
0.6726106
0.71985032
0.67484872
0.6757229
0.67616868
0.67653448
0.67680436
0.67703918
0.67725215
0.67745155
0.67763431
0.67779038
0.67791613
0.67802352
0.67812617
0.67822848
0.67832938
0.67842728
0.67852143
0.67861166
0.67869799
0.67878064
0.67886
0.67893655
0.67901105
0.67908395
0.67915647
0.6792285
0.67930258
0.67937632
0.67945674
0.67953346
0.67962765
0.67970252
0.67982346
0.67987503
0.68005217
0.68002217
0.68033217
0.68008068
0.68071281
0.67992355
0.68131918
0.67934333
0.68244831
0.67784995
0.6843081
0.67496352
0.68876704
0.67206843
0.7199114
0.67451049
0.67541308
0.6758686
0.6762441
0.6765209
0.67676602
0.67699176
0.67720586
0.67740328
0.67757255
0.67771196
0.67783577
0.67795659
0.67807707
0.67819521
0.6783093
0.67841848
0.67852248
0.67862122
0.67871488
0.67880389
0.67888884
0.67897058
0.67904974
0.67912763
0.67920429
0.67928231
0.67935951
0.67944275
0.6795221
0.6796181
0.67969505
0.6798166
0.67987006
0.68004609
0.68001843
0.68032503
0.68007689
0.68070352
0.6799175
0.68130927
0.67932783
0.68244177
0.67780646
0.68432407
0.67489069
0.68901131
0.67153785
0.72035264
0.67418162
0.67511666
0.67558119
0.67596669
0.6762507
0.67650656
0.67674528
0.67697386
0.67718511
0.67736643
0.67751874
0.67765817
0.67779606
0.67793336
0.67806748
0.6781966
0.6783198
0.67843668
0.67854706
0.67865109
0.67874923
0.67884214
0.67893081
0.67901596
0.67909902
0.67918013
0.67926191
0.6793424
0.67942829
0.6795101
0.67960768
0.67968655
0.6798084
0.6798637
0.68003824
0.68001321
0.68031585
0.68007212
0.68069217
0.67991196
0.68129773
0.67931552
0.68243411
0.6777713
0.68434622
0.67483647
0.68928301
0.6710438
0.7215425
0.67385881
0.67483005
0.67530365
0.67570023
0.67599213
0.67625961
0.67651191
0.67675513
0.67697966
0.67717229
0.67733702
0.67749156
0.67764548
0.67779838
0.67794724
0.67809024
0.67822638
0.67835515
0.67847628
0.6785899
0.67869654
0.67879691
0.6788921
0.67898292
0.67907085
0.67915618
0.67924151
0.67932509
0.67941339
0.67949746
0.67959639
0.679677
0.67979887
0.67985598
0.6800287
0.68000665
0.68030484
0.68006664
0.68067911
0.6799074
0.68128495
0.67930703
0.6824257
0.67774522
0.68437475
0.67479972
0.68957688
0.67061705
0.72132168
0.67354371
0.67455521
0.67503752
0.67544626
0.67574653
0.67602642
0.67629289
0.67655093
0.67678824
0.67699154
0.67716841
0.67733744
0.67750639
0.67767365
0.67783602
0.6779917
0.67813959
0.67827913
0.67840998
0.67853232
0.67864669
0.67875391
0.67885509
0.67895114
0.67904358
0.67913281
0.67922138
0.67930778
0.67939825
0.67948432
0.67958434
0.67966649
0.67978813
0.679847
0.68001768
0.67999893
0.68029234
0.68006081
0.68066481
0.67990431
0.68127138
0.67930294
0.68241681
0.67772869
0.68440914
0.67477823
0.68988397
0.67028933
0.72059955
0.67324177
0.67429278
0.67478336
0.67520416
0.67551328
0.67580641
0.67608775
0.67636087
0.67661049
0.67682404
0.6770129
0.67719603
0.67737907
0.6775596
0.67773428
0.6779014
0.67805984
0.678209
0.67834853
0.67847866
0.67859997
0.67871335
0.67881996
0.67892077
0.6790173
0.67911005
0.67920155
0.67929047
0.67938282
0.67947065
0.67957147
0.679655
0.67977615
0.67983686
0.68000519
0.67999036
0.6802784
0.68005521
0.68064923
0.67990367
0.68125655
0.67930465
0.68240627
0.67772336
0.68444645
0.6747708
0.69019198
0.67007536
0.71850194
0.6729456
0.67403982
0.67453776
0.67497154
0.67529027
0.6755979
0.67589511
0.67618375
0.67644537
0.67666898
0.6768699
0.67706672
0.67726314
0.67745594
0.67764188
0.67781932
0.67798716
0.67814483
0.67829203
0.67842902
0.67855649
0.67867535
0.6787868
0.67889184
0.67899201
0.67908789
0.67918195
0.67927307
0.67936698
0.67945632
0.67955768
0.67964244
0.67976286
0.67982553
0.67999126
0.67998104
0.68026316
0.68005012
0.68063253
0.67990588
0.68124034
0.67931259
0.68239339
0.67772923
0.68448372
0.67477389
0.69048837
0.66997067
0.71823323
0.67265441
0.67379663
0.67430141
0.67474965
0.67507875
0.6754022
0.67571627
0.67602076
0.67629399
0.67652752
0.67674049
0.67695064
0.67715954
0.67736362
0.67755964
0.67774618
0.67792221
0.67808722
0.67824099
0.6783839
0.67851666
0.67864025
0.67875588
0.67886459
0.67896789
0.67906644
0.67916266
0.67925561
0.67935078
0.67944134
0.67954299
0.67962886
0.67974836
0.67981313
0.67997612
0.67997118
0.68024696
0.68004582
0.68061509
0.67991123
0.68122285
0.67932694
0.68237761
0.67774577
0.6845175
0.67478297
0.69075739
0.6700023