/*--------------------------------*- C++ -*----------------------------------*\
| =========                 |                                                 |
| \\      /  F ield         | OpenFOAM: The Open Source CFD Toolbox           |
|  \\    /   O peration     | Version:  2506                                  |
|   \\  /    A nd           | Website:  www.openfoam.com                      |
|    \\/     M anipulation  |                                                 |
\*---------------------------------------------------------------------------*/
FoamFile
{
    version     2.0;
    format      ascii;
    arch        "LSB;label=32;scalar=64";
    class       volScalarField;
    location    "0.25";
    object      nut;
}
// * * * * * * * * * * * * * * * * * * * * * * * * * * * * * * * * * * * * * //

dimensions      [0 2 -1 0 0 0 0];

internalField   nonuniform List<scalar> 
1376
(
0.18582381
0.18582454
0.1858258
0.18582772
0.18581199
0.18582078
0.18582101
0.18582203
0.18582378
0.1858189
0.18582152
0.18582859
0.1858303
0.18583159
0.18583278
0.18581154
0.18581665
0.18581563
0.18581555
0.18581671
0.18581805
0.18582066
0.18582435
0.18582668
0.18582816
0.18582949
0.18582985
0.18583105
0.18583215
0.18583329
0.18583466
0.18581367
0.18581529
0.18581354
0.18581274
0.18581281
0.18581514
0.18581664
0.18581957
0.18582326
0.18582488
0.18582638
0.18582816
0.18582961
0.18583102
0.18583249
0.18583377
0.18583406
0.18583454
0.18583424
0.18583529
0.18581772
0.18581929
0.18581747
0.18581648
0.18581575
0.18581497
0.18581587
0.18581873
0.18582235
0.18582362
0.185825
0.18582664
0.18582824
0.18583
0.18583184
0.18583353
0.18583499
0.18583519
0.18583389
0.18583425
0.18583603
0.18583643
0.18583663
0.18583704
0.18583853
0.18582329
0.18582502
0.18582294
0.18582167
0.18582042
0.18581867
0.1858193
0.18582122
0.18582325
0.18582368
0.18582463
0.18582587
0.18582695
0.1858285
0.18583059
0.18583269
0.1858347
0.18583551
0.18583464
0.18583415
0.18583406
0.18583484
0.18583567
0.18583665
0.18583761
0.18583888
0.18583871
0.18583913
0.18584038
0.18582872
0.18582922
0.18582688
0.18582572
0.18582489
0.18582375
0.18582368
0.18582398
0.1858243
0.18582444
0.18582497
0.18582573
0.18582648
0.18582759
0.18582921
0.18583127
0.1858337
0.18583533
0.18583576
0.18583553
0.18583518
0.18583649
0.18583789
0.18583906
0.18583849
0.18583743
0.18583846
0.18584008
0.18584124
0.18584229
0.18584168
0.18583901
0.18583647
0.18583072
0.1858299
0.18582742
0.1858266
0.18582662
0.18582672
0.18582638
0.18582614
0.18582634
0.18582677
0.18582698
0.18582704
0.18582762
0.18582823
0.18582898
0.18583034
0.18583254
0.18583464
0.18583619
0.18583685
0.18583724
0.18583868
0.18583991
0.18584061
0.18583968
0.18583871
0.18584021
0.18584154
0.18584206
0.18584257
0.18584138
0.18583872
0.18583539
0.18583079
0.1858271
0.18582705
0.18582993
0.18582873
0.1858266
0.18582627
0.18582655
0.18582697
0.18582693
0.18582711
0.18582795
0.18582895
0.1858291
0.18582912
0.18582955
0.18582977
0.18582992
0.18583047
0.18583182
0.18583358
0.18583541
0.18583681
0.18583791
0.18583928
0.18584047
0.18584108
0.18584056
0.18584017
0.18584117
0.18584159
0.18584131
0.18584098
0.18584005
0.18583782
0.18583437
0.18583001
0.18582774
0.18582582
0.18581925
0.18582223
0.18582595
0.18582621
0.18582571
0.18582415
0.18582427
0.18582466
0.18582522
0.18582578
0.18582666
0.18582815
0.18582962
0.18583017
0.18583043
0.18583084
0.18583086
0.18583081
0.18583089
0.18583141
0.18583244
0.18583385
0.18583535
0.18583675
0.18583794
0.18583904
0.18583981
0.18584015
0.18584057
0.18584115
0.18584095
0.18584
0.18583914
0.18583822
0.18583643
0.1858338
0.18583035
0.1858286
0.18582526
0.18582013
0.18582095
0.18582193
0.18581888
0.18582441
0.18583053
0.18582108
0.18582172
0.18582062
0.18582106
0.18582146
0.18582203
0.18582303
0.18582444
0.18582646
0.18582834
0.18582934
0.18583
0.18583053
0.1858305
0.18583057
0.18583065
0.18583078
0.18583127
0.18583212
0.18583325
0.18583439
0.18583533
0.18583635
0.1858374
0.18583839
0.18583927
0.18583977
0.18583975
0.18583907
0.18583812
0.1858371
0.18583578
0.18583383
0.18583136
0.18582907
0.18582552
0.1858222
0.1858211
0.18581991
0.18581708
0.18582015
0.18582439
0.18582608
0.18583845
0.18584448
0.18581572
0.18581712
0.18581606
0.18581661
0.18581707
0.18581773
0.18581885
0.18582036
0.18582243
0.18582451
0.18582603
0.18582722
0.18582799
0.18582827
0.18582878
0.18582919
0.18582945
0.18582983
0.18583038
0.18583104
0.18583172
0.18583244
0.18583334
0.18583442
0.18583561
0.18583669
0.18583745
0.18583793
0.18583799
0.18583755
0.1858368
0.18583587
0.18583452
0.1858328
0.18583051
0.18582797
0.18582531
0.18582279
0.18581989
0.18581741
0.18581748
0.18581833
0.18582089
0.18583073
0.18583724
0.18586459
0.18581537
0.1858111
0.1858126
0.18581118
0.18581161
0.18581206
0.18581276
0.18581371
0.18581497
0.18581675
0.18581878
0.18582067
0.1858223
0.18582358
0.18582466
0.18582581
0.18582672
0.18582739
0.18582796
0.18582846
0.18582884
0.18582922
0.18582977
0.18583045
0.18583131
0.18583234
0.18583342
0.18583447
0.18583546
0.18583627
0.18583668
0.1858366
0.18583616
0.1858353
0.1858341
0.18583231
0.18583052
0.1858283
0.18582526
0.18582234
0.18581973
0.18581761
0.18581564
0.18581597
0.18582194
0.18582742
0.18585603
0.1858071
0.18427571
0.17484696
0.18580792
0.18580923
0.18580744
0.18580758
0.18580772
0.18580823
0.18580892
0.18580992
0.18581124
0.18581286
0.18581472
0.18581675
0.18581879
0.18582076
0.18582244
0.18582377
0.18582479
0.18582556
0.18582613
0.1858264
0.18582663
0.18582705
0.18582755
0.18582811
0.18582876
0.1858296
0.18583066
0.18583188
0.18583313
0.18583424
0.18583494
0.18583522
0.18583495
0.1858343
0.18583311
0.18583166
0.18582947
0.18582666
0.18582422
0.1858219
0.18581905
0.18581624
0.18581497
0.18581829
0.18582124
0.18584717
0.18579549
0.18423688
0.17584303
0.1858064
0.18580785
0.18580595
0.18580574
0.18580528
0.18580538
0.18580592
0.18580679
0.18580766
0.1858086
0.1858101
0.18581255
0.18581527
0.18581756
0.18581926
0.18582061
0.18582168
0.18582244
0.18582295
0.18582314
0.18582333
0.18582366
0.185824
0.18582423
0.18582442
0.18582487
0.18582565
0.1858267
0.18582797
0.18582939
0.18583078
0.18583186
0.18583238
0.18583232
0.18583169
0.18583068
0.18582893
0.18582676
0.18582499
0.18582297
0.18582027
0.18581811
0.18581768
0.18581951
0.18582078
0.18584484
0.18578634
0.18407286
0.17523001
0.1858072
0.18580893
0.18580713
0.18580671
0.18580574
0.18580555
0.18580614
0.18580684
0.18580708
0.18580719
0.1858083
0.18581095
0.18581367
0.18581546
0.18581656
0.18581749
0.1858182
0.18581865
0.18581886
0.18581895
0.18581907
0.18581923
0.18581926
0.1858191
0.18581888
0.18581889
0.18581924
0.18581985
0.18582073
0.18582207
0.18582379
0.18582548
0.18582678
0.18582736
0.18582741
0.18582698
0.18582618
0.18582526
0.18582443
0.18582307
0.18582153
0.18582112
0.1858219
0.18582489
0.1858252
0.18584671
0.18578012
0.18391635
0.17473332
0.18580881
0.18581085
0.18580915
0.18580866
0.18580742
0.18580709
0.18580767
0.18580826
0.1858083
0.18580806
0.18580881
0.18581091
0.18581294
0.18581398
0.18581436
0.18581462
0.1858147
0.18581445
0.18581414
0.185814
0.18581394
0.18581374
0.18581334
0.18581281
0.18581229
0.18581191
0.18581174
0.18581186
0.18581234
0.18581345
0.1858152
0.18581721
0.18581902
0.18582026
0.18582107
0.18582152
0.18582183
0.18582229
0.18582271
0.1858228
0.18582301
0.18582374
0.18582569
0.1858301
0.18583023
0.1858525
0.18577458
0.18382294
0.17487625
0.18581087
0.18581285
0.18581118
0.18581084
0.18580969
0.18580944
0.18580995
0.18581032
0.18581006
0.18580945
0.1858096
0.18581094
0.18581214
0.18581238
0.18581207
0.1858117
0.18581109
0.18581015
0.18580936
0.1858089
0.1858085
0.18580784
0.18580702
0.18580626
0.1858056
0.185805
0.18580445
0.18580434
0.18580472
0.18580571
0.18580737
0.18580949
0.18581165
0.18581352
0.18581508
0.18581638
0.18581765
0.18581917
0.18582065
0.18582207
0.18582359
0.18582584
0.18582932
0.18583618
0.18583728
0.18586072
0.18576468
0.18368758
0.17472914
0.18581054
0.18581249
0.18581086
0.18581082
0.18581031
0.18581044
0.18581089
0.18581126
0.1858111
0.18581055
0.18581039
0.18581082
0.185811
0.18581048
0.1858096
0.18580871
0.18580758
0.1858062
0.18580504
0.18580428
0.18580355
0.18580258
0.18580159
0.18580087
0.18580035
0.18579986
0.18579941
0.18579945
0.18580007
0.18580114
0.18580273
0.18580491
0.18580738
0.18580976
0.18581183
0.18581369
0.18581552
0.18581731
0.185819
0.18582085
0.18582316
0.18582616
0.18583055
0.18583919
0.18584209
0.18586999
0.18574941
0.1834808
0.17466969
0.18580844
0.18581021
0.18580861
0.185809
0.1858089
0.18580937
0.18580997
0.18581052
0.1858107
0.18581057
0.18581041
0.18581019
0.18580965
0.18580865
0.18580746
0.18580624
0.18580481
0.18580325
0.18580196
0.18580107
0.18580022
0.1857993
0.18579855
0.18579816
0.18579803
0.18579799
0.18579811
0.18579875
0.18579987
0.18580119
0.18580278
0.18580492
0.18580741
0.18580987
0.18581203
0.18581396
0.18581577
0.18581734
0.18581875
0.18582011
0.18582197
0.18582475
0.18582926
0.18583847
0.18584287
0.18587728
0.18573647
0.18330222
0.17524871
0.18580338
0.18580501
0.18580349
0.18580428
0.18580473
0.1858057
0.18580659
0.18580754
0.18580834
0.1858089
0.18580909
0.1858089
0.18580833
0.18580751
0.18580655
0.18580543
0.18580415
0.18580281
0.18580166
0.18580078
0.18579994
0.18579915
0.18579858
0.18579837
0.18579849
0.1857987
0.18579915
0.18579998
0.1858012
0.18580261
0.18580416
0.18580601
0.18580804
0.18581005
0.18581193
0.1858137
0.18581536
0.18581688
0.18581838
0.18581995
0.18582153
0.18582368
0.18582787
0.18583704
0.18584361
0.18588334
0.18572665
0.18315011
0.17582288
0.18579551
0.18579718
0.18579583
0.18579705
0.18579806
0.18579962
0.18580107
0.1858027
0.18580437
0.18580593
0.18580707
0.18580768
0.18580804
0.18580802
0.18580764
0.18580694
0.18580599
0.18580485
0.18580364
0.18580243
0.18580123
0.18580009
0.18579907
0.18579832
0.18579794
0.18579796
0.18579836
0.18579919
0.18580044
0.18580192
0.18580351
0.18580525
0.18580709
0.18580888
0.1858106
0.18581231
0.185814
0.1858158
0.18581774
0.18581962
0.18582105
0.18582264
0.18582661
0.18583638
0.1858444
0.18588861
0.18570736
0.18289768
0.17568038
0.18578588
0.18578775
0.18578663
0.18578841
0.18579016
0.18579255
0.18579489
0.18579751
0.18580038
0.18580325
0.1858056
0.18580738
0.18580858
0.18580923
0.18580926
0.1858087
0.18580773
0.18580643
0.18580477
0.18580279
0.18580072
0.18579894
0.18579757
0.18579637
0.18579545
0.18579507
0.18579524
0.18579592
0.1857971
0.18579862
0.18580026
0.18580194
0.18580366
0.18580535
0.18580704
0.18580881
0.18581067
0.18581276
0.18581513
0.18581751
0.18581965
0.18582201
0.18582692
0.18583738
0.18584599
0.18589455
0.18567358
0.18260055
0.17553181
0.18577568
0.18577782
0.18577709
0.18577974
0.18578261
0.18578617
0.18578973
0.1857937
0.18579773
0.18580136
0.18580456
0.18580708
0.18580876
0.18580946
0.18580919
0.18580825
0.18580683
0.18580497
0.18580275
0.18580037
0.18579806
0.18579574
0.18579343
0.18579147
0.18579002
0.18578919
0.18578897
0.18578937
0.18579031
0.18579168
0.18579326
0.18579495
0.1857968
0.18579881
0.18580083
0.18580294
0.18580519
0.18580777
0.18581066
0.18581367
0.18581676
0.18582022
0.18582588
0.18583956
0.18584845
0.18590113
0.18563225
0.1823465
0.17585484
0.18576599
0.18576845
0.1857683
0.18577215
0.18577648
0.18578149
0.18578625
0.18579094
0.1857954
0.18579959
0.18580293
0.18580539
0.18580669
0.18580691
0.18580624
0.18580507
0.18580349
0.18580142
0.18579867
0.18579546
0.18579221
0.18578907
0.18578614
0.18578372
0.18578201
0.18578105
0.18578073
0.18578106
0.18578186
0.18578304
0.18578457
0.18578632
0.18578838
0.18579085
0.18579347
0.18579614
0.18579895
0.1858021
0.1858055
0.18580903
0.18581282
0.1858173
0.18582448
0.18584062
0.18585175
0.18590831
0.18558713
0.18213333
0.17648529
0.18575806
0.18576087
0.18576134
0.18576643
0.18577198
0.18577789
0.18578302
0.18578796
0.18579272
0.1857968
0.18580017
0.18580249
0.18580359
0.18580345
0.18580222
0.18580021
0.18579776
0.18579496
0.18579163
0.18578792
0.18578408
0.18578046
0.18577741
0.1857751
0.18577372
0.18577325
0.18577341
0.18577414
0.18577516
0.18577646
0.185778
0.18577978
0.18578185
0.18578435
0.18578718
0.18579006
0.18579314
0.18579649
0.18580009
0.18580387
0.18580808
0.18581322
0.18582124
0.18583924
0.18585352
0.18591282
0.18552897
0.18181938
0.17676357
0.18575351
0.1857565
0.18575723
0.18576285
0.1857687
0.18577474
0.18577992
0.18578471
0.18578921
0.18579316
0.18579622
0.18579803
0.18579847
0.18579761
0.18579582
0.18579332
0.18579052
0.18578744
0.18578393
0.18578014
0.18577641
0.18577315
0.18577064
0.18576896
0.18576829
0.18576844
0.18576918
0.18577025
0.18577138
0.18577265
0.18577395
0.18577543
0.18577714
0.18577925
0.18578164
0.1857841
0.18578685
0.18578996
0.18579343
0.18579711
0.1858013
0.18580667
0.18581542
0.18583613
0.1858525
0.18591572
0.18545368
0.18141438
0.1769532
0.18575431
0.18575718
0.1857573
0.18576204
0.18576733
0.18577281
0.18577733
0.18578138
0.18578503
0.1857881
0.18579025
0.18579141
0.18579146
0.1857904
0.18578847
0.18578594
0.18578325
0.1857805
0.18577762
0.18577469
0.18577184
0.18576935
0.18576746
0.1857662
0.18576563
0.18576566
0.18576618
0.18576693
0.18576775
0.18576864
0.18576962
0.18577079
0.18577216
0.18577377
0.18577554
0.18577748
0.18577981
0.18578257
0.18578566
0.18578892
0.18579271
0.18579805
0.18580743
0.18583131
0.18584977
0.18591621
0.18537022
0.18100193
0.17714482
0.18575784
0.18576064
0.18576049
0.18576434
0.18576775
0.1857719
0.18577513
0.18577797
0.18578034
0.18578221
0.18578341
0.18578386
0.18578357
0.18578262
0.18578104
0.18577906
0.18577709
0.18577511
0.18577314
0.18577134
0.18576941
0.18576736
0.18576547
0.18576387
0.18576274
0.18576214
0.18576206
0.18576227
0.18576269
0.18576319
0.1857638
0.18576464
0.18576564
0.18576681
0.18576814
0.18576981
0.18577199
0.18577454
0.18577732
0.18578028
0.18578386
0.18578915
0.18579964
0.18582728
0.18584909
0.18591842
0.18527061
0.1806437
0.17768596
0.1857628
0.18576534
0.18576447
0.18576698
0.18576876
0.18577127
0.1857731
0.18577469
0.18577583
0.18577655
0.1857769
0.18577686
0.18577641
0.18577563
0.18577456
0.18577327
0.18577204
0.18577085
0.18576966
0.18576856
0.18576722
0.18576542
0.18576342
0.18576152
0.18575996
0.1857589
0.18575828
0.18575798
0.18575793
0.18575811
0.18575863
0.18575938
0.18576029
0.18576146
0.18576279
0.18576457
0.18576684
0.18576947
0.18577223
0.18577515
0.18577879
0.18578498
0.1857964
0.18582996
0.18585336
0.18592276
0.18516139
0.18023412
0.17808151
0.1857658
0.18576789
0.18576639
0.18576772
0.18576833
0.18576946
0.18577028
0.18577101
0.18577138
0.1857713
0.18577099
0.18577056
0.18577009
0.1857695
0.18576878
0.18576805
0.1857674
0.18576674
0.18576593
0.18576505
0.18576391
0.18576211
0.18575987
0.18575765
0.18575595
0.18575491
0.18575446
0.18575461
0.18575509
0.18575576
0.18575656
0.18575735
0.18575804
0.18575867
0.18575938
0.18576055
0.18576234
0.18576478
0.18576745
0.18577038
0.18577445
0.18578185
0.18579594
0.18583572
0.18586189
0.1859417
0.1849903
0.17981404
0.1792538
0.18576767
0.1857689
0.1857667
0.18576704
0.18576658
0.18576725
0.18576768
0.18576812
0.1857683
0.18576807
0.18576759
0.18576715
0.18576689
0.18576657
0.18576617
0.18576587
0.18576556
0.18576508
0.18576431
0.18576347
0.18576239
0.1857607
0.18575874
0.18575716
0.18575644
0.18575657
0.18575715
0.18575792
0.18575885
0.18575978
0.18576076
0.18576162
0.18576225
0.18576255
0.18576272
0.18576336
0.18576481
0.18576706
0.18576977
0.18577305
0.18577843
0.18578927
0.1858046
0.18585601
0.18588094
0.18597427
0.18483928
0.1793549
0.17972873
0.18576293
0.18576387
0.18576161
0.18576154
0.18576048
0.18576014
0.18575984
0.1857597
0.1857594
0.18575892
0.18575837
0.185758
0.18575785
0.1857578
0.18575783
0.18575801
0.18575823
0.18575828
0.18575816
0.18575813
0.18575801
0.18575753
0.18575705
0.18575703
0.18575744
0.18575822
0.18575916
0.18576008
0.1857609
0.18576131
0.18576163
0.18576166
0.1857613
0.18576089
0.1857604
0.1857604
0.18576102
0.18576223
0.18576402
0.18576647
0.18577195
0.18578593
0.18580496
0.18588548
0.18589741
0.18605536
0.18433819
0.17890152
0.18243146
)
;

boundaryField
{
    Side
    {
        type            empty;
    }
    Inlet
    {
        type            calculated;
        value           nonuniform List<scalar> 
21
(
0.19937552
0.19939848
0.1994806
0.19960264
0.19966494
0.19969939
0.19971658
0.19968465
0.19965001
0.19967566
0.19972717
0.19977901
0.19982853
0.19988483
0.19996182
0.2001083
0.2003234
0.20054077
0.20069045
0.20088411
0.2008658
)
;
    }
    Airfoil
    {
        type            nutkWallFunction;
        blending        stepwise;
        value           nonuniform List<scalar> 0();
    }
    Outlet
    {
        type            calculated;
        value           nonuniform List<scalar> 
49
(
0.18576293
0.18576387
0.18576161
0.18576154
0.18576048
0.18576014
0.18575984
0.1857597
0.1857594
0.18575892
0.18575837
0.185758
0.18575785
0.1857578
0.18575783
0.18575801
0.18575823
0.18575828
0.18575816
0.18575813
0.18575801
0.18575753
0.18575705
0.18575703
0.18575744
0.18575822
0.18575916
0.18576008
0.1857609
0.18576131
0.18576163
0.18576166
0.1857613
0.18576089
0.1857604
0.1857604
0.18576102
0.18576223
0.18576402
0.18576647
0.18577195
0.18578593
0.18580496
0.18588548
0.18589741
0.18605536
0.18433819
0.17890152
0.18243146
)
;
    }
    procBoundary13to6
    {
        type            processor;
        value           nonuniform List<scalar> 
34
(
0.18581888
0.18581888
0.18581885
0.18581634
0.18581586
0.18581991
0.18582568
0.18582988
0.18583038
0.18582863
0.18582493
0.18582037
0.18581559
0.18581123
0.18580809
0.18580677
0.18580784
0.18580974
0.18581176
0.18581133
0.18580897
0.18580368
0.18579567
0.18578598
0.18577575
0.18576598
0.18575804
0.18575358
0.18575459
0.18575828
0.18576346
0.18576659
0.1857685
0.18576352
)
;
    }
    procBoundary13to12
    {
        type            processor;
        value           nonuniform List<scalar> 
60
(
0.1858341
0.18583453
0.18583513
0.18583603
0.18582755
0.18582755
0.18582889
0.18583435
0.18583533
0.18583613
0.18583682
0.18583237
0.18583237
0.18583315
0.18583383
0.18583451
0.18583552
0.18583478
0.18583478
0.18583542
0.18583567
0.18583667
0.18583811
0.18583811
0.18583855
0.18583877
0.18583891
0.18584018
0.18584165
0.18584165
0.18584116
0.1858408
0.18584205
0.18584223
0.18584223
0.18584197
0.18584099
0.18584163
0.18583562
0.18583562
0.18583413
0.18583768
0.18582918
0.18582918
0.18583327
0.18583842
0.18583068
0.18583068
0.18583592
0.1858406
0.18583579
0.18583579
0.18584613
0.18584942
0.18587197
0.18587197
0.18582107
0.18436802
0.18436802
0.17531691
)
;
    }
}


// ************************************************************************* //
