/*--------------------------------*- C++ -*----------------------------------*\
| =========                 |                                                 |
| \\      /  F ield         | OpenFOAM: The Open Source CFD Toolbox           |
|  \\    /   O peration     | Version:  2506                                  |
|   \\  /    A nd           | Website:  www.openfoam.com                      |
|    \\/     M anipulation  |                                                 |
\*---------------------------------------------------------------------------*/
FoamFile
{
    version     2.0;
    format      ascii;
    arch        "LSB;label=32;scalar=64";
    class       volScalarField;
    location    "0.25";
    object      omega;
}
// * * * * * * * * * * * * * * * * * * * * * * * * * * * * * * * * * * * * * //

dimensions      [0 0 -1 0 0 0 0];

internalField   nonuniform List<scalar> 
1376
(
26.816867
26.815804
26.8153
26.815173
26.818052
26.816193
26.81514
26.814674
26.814578
26.814627
26.814727
26.814883
26.815027
26.815153
26.815268
26.817693
26.815519
26.81447
26.814054
26.813964
26.814147
26.81427
26.814466
26.81466
26.814841
26.815009
26.815134
26.815208
26.815314
26.815398
26.815396
26.817483
26.81534
26.814243
26.813798
26.813647
26.813668
26.813792
26.81401
26.814242
26.814471
26.814688
26.814924
26.815054
26.815227
26.815396
26.815554
26.815526
26.815532
26.815576
26.815652
26.81745
26.815395
26.814237
26.813752
26.813579
26.813557
26.813613
26.813757
26.813941
26.814159
26.814374
26.814605
26.814808
26.815061
26.815309
26.815536
26.815735
26.815912
26.816078
26.816126
26.815888
26.81592
26.815972
26.816022
26.816127
26.817342
26.815385
26.814208
26.813699
26.813517
26.813533
26.813536
26.813621
26.813743
26.813893
26.814059
26.814255
26.814484
26.814772
26.815061
26.81532
26.815553
26.815766
26.815974
26.816119
26.816256
26.816402
26.816552
26.816672
26.81667
26.816386
26.816389
26.816407
26.81643
26.817035
26.815205
26.814073
26.813595
26.813421
26.813465
26.813435
26.813461
26.813518
26.813623
26.81377
26.813939
26.814118
26.814362
26.814632
26.8149
26.81518
26.815425
26.815659
26.815852
26.816052
26.816229
26.816416
26.81658
26.816685
26.816763
26.816808
26.816828
26.816736
26.816494
26.816419
26.816325
26.816205
26.816561
26.814942
26.813892
26.813465
26.813305
26.813299
26.813273
26.8133
26.813346
26.813406
26.813496
26.81362
26.813742
26.813918
26.814128
26.814376
26.814646
26.814873
26.815101
26.815338
26.815616
26.815839
26.816051
26.816218
26.816353
26.81649
26.816548
26.816568
26.81653
26.816464
26.816353
26.816251
26.816063
26.815748
26.815577
26.815469
26.816055
26.814628
26.813656
26.813283
26.813143
26.813113
26.813097
26.813123
26.813158
26.8132
26.813251
26.813312
26.813375
26.813489
26.813643
26.81384
26.814053
26.814241
26.814453
26.814696
26.814978
26.81522
26.815458
26.815646
26.815815
26.816003
26.816082
26.816105
26.816099
26.816123
26.816036
26.815901
26.815697
26.815537
26.81532
26.815113
26.814809
26.814793
26.81493
26.815471
26.814143
26.813217
26.812894
26.812797
26.812797
26.812799
26.812832
26.812875
26.812922
26.812956
26.812972
26.812996
26.813071
26.813183
26.813319
26.81346
26.813605
26.813788
26.814002
26.814246
26.814495
26.81476
26.814978
26.815171
26.815368
26.815484
26.815532
26.815535
26.815556
26.815499
26.815357
26.81517
26.815068
26.814836
26.814578
26.814469
26.814349
26.814324
26.814248
26.814516
26.814878
26.814846
26.813548
26.812643
26.81236
26.812302
26.812339
26.812357
26.8124
26.812458
26.812524
26.812564
26.812572
26.812584
26.81264
26.812723
26.81281
26.812894
26.812999
26.813142
26.81331
26.813506
26.813737
26.814003
26.81425
26.814477
26.814687
26.814839
26.814919
26.81494
26.814964
26.814932
26.814832
26.814675
26.814567
26.814369
26.814122
26.813993
26.813823
26.813666
26.813734
26.813851
26.814092
26.814512
26.815507
26.81597
26.814247
26.812954
26.812055
26.811795
26.811751
26.811802
26.811841
26.811913
26.811999
26.812083
26.812144
26.812172
26.812194
26.812245
26.812302
26.812354
26.812403
26.812476
26.81258
26.812704
26.812851
26.813042
26.813281
26.813533
26.813781
26.814003
26.814179
26.814303
26.814376
26.814425
26.814424
26.814372
26.814269
26.814171
26.814021
26.813829
26.813676
26.813504
26.813287
26.813181
26.813186
26.813294
26.81374
26.814665
26.815272
26.82006
26.861154
26.813813
26.812518
26.811621
26.811368
26.811311
26.811358
26.811431
26.811538
26.81165
26.811745
26.811824
26.811884
26.811935
26.811985
26.812016
26.812044
26.812075
26.81212
26.812181
26.81226
26.812362
26.812505
26.812689
26.812901
26.81313
26.813341
26.81352
26.81368
26.813813
26.813908
26.813942
26.81393
26.813882
26.813802
26.813681
26.813541
26.813412
26.813252
26.813074
26.812941
26.812841
26.81276
26.81292
26.813608
26.814131
26.819472
26.866099
27.715169
37.259649
26.813628
26.812329
26.811423
26.811165
26.811082
26.811119
26.811217
26.811348
26.811471
26.811569
26.811659
26.811757
26.811843
26.811893
26.811908
26.811922
26.811943
26.811962
26.81198
26.812011
26.812068
26.812153
26.812255
26.812384
26.812544
26.812707
26.812861
26.813023
26.813183
26.813312
26.813378
26.813397
26.813392
26.813343
26.813244
26.813144
26.813043
26.8129
26.812771
26.81266
26.812509
26.812354
26.812372
26.812796
26.813058
26.818774
26.870624
27.777902
37.534428
26.813693
26.81237
26.811435
26.811166
26.811059
26.811078
26.811169
26.811295
26.81141
26.811502
26.811598
26.811717
26.811821
26.811873
26.811891
26.811904
26.811913
26.811902
26.811886
26.81188
26.811889
26.811904
26.811918
26.811951
26.812014
26.812096
26.812189
26.812304
26.812443
26.812575
26.812666
26.812724
26.812751
26.812734
26.812671
26.812618
26.812551
26.812432
26.812336
26.812263
26.812123
26.811991
26.811979
26.812251
26.812346
26.818205
26.875946
27.839302
37.783204
26.813836
26.812483
26.811525
26.811255
26.811143
26.811149
26.811206
26.811296
26.811377
26.811448
26.811527
26.811631
26.811724
26.811772
26.811793
26.811802
26.811798
26.811765
26.81172
26.811679
26.811647
26.811603
26.81155
26.811505
26.811481
26.811473
26.811487
26.811536
26.811624
26.811729
26.811831
26.811922
26.811992
26.812022
26.812016
26.812008
26.811977
26.811898
26.811838
26.81181
26.81174
26.811703
26.81176
26.81204
26.812085
26.8182
26.882981
27.905416
38.02418
26.813963
26.812578
26.811608
26.811346
26.811241
26.811239
26.81126
26.811303
26.811344
26.811382
26.811427
26.811485
26.811533
26.811555
26.811561
26.81155
26.811516
26.811456
26.811384
26.811309
26.811234
26.811144
26.811048
26.810958
26.81088
26.810813
26.810771
26.810763
26.810801
26.810869
26.81096
26.811074
26.811196
26.811296
26.811365
26.811416
26.811447
26.811447
26.811445
26.811467
26.811486
26.811527
26.811724
26.812231
26.81224
26.818767
26.890986
27.972212
38.236367
26.813955
26.812574
26.811626
26.811388
26.811291
26.811284
26.811275
26.811283
26.811292
26.811299
26.811298
26.811293
26.811276
26.811249
26.81121
26.811149
26.811063
26.810958
26.810852
26.810742
26.810626
26.81051
26.810401
26.810306
26.810219
26.810141
26.81008
26.810062
26.810083
26.810135
26.810221
26.810351
26.810517
26.810693
26.810854
26.811003
26.811132
26.811229
26.811301
26.811368
26.811435
26.811562
26.811862
26.812528
26.812668
26.819886
26.900525
28.054201
38.507852
26.813838
26.812481
26.811562
26.811342
26.811248
26.811238
26.811221
26.811211
26.811201
26.811181
26.811142
26.811083
26.811008
26.810927
26.810829
26.810708
26.810564
26.810409
26.810258
26.810113
26.809969
26.809842
26.809743
26.809674
26.809621
26.809581
26.809564
26.80959
26.809648
26.809729
26.809844
26.810004
26.810206
26.810437
26.810679
26.810927
26.811158
26.811326
26.811435
26.811523
26.811592
26.811681
26.811986
26.812754
26.813029
26.821495
26.913734
28.172733
38.922012
26.813541
26.812231
26.811356
26.811165
26.811077
26.81107
26.811055
26.811051
26.811038
26.811009
26.810953
26.810872
26.810771
26.810658
26.810525
26.810367
26.810192
26.810012
26.809839
26.809676
26.809524
26.809405
26.809334
26.809307
26.80931
26.80934
26.809411
26.809522
26.80966
26.809814
26.809983
26.810178
26.810389
26.810611
26.810837
26.811054
26.811259
26.811439
26.811586
26.811677
26.81172
26.811786
26.811999
26.812738
26.813026
26.823273
26.930429
28.317956
39.409237
26.813024
26.811775
26.810948
26.810794
26.810728
26.81074
26.81075
26.810776
26.810789
26.810779
26.810743
26.810686
26.810608
26.810514
26.810404
26.810278
26.810144
26.809998
26.809852
26.809711
26.80958
26.809481
26.809421
26.809398
26.80941
26.80946
26.809554
26.809682
26.809837
26.810012
26.810198
26.810389
26.810566
26.810737
26.810916
26.811096
26.811268
26.811432
26.811585
26.811709
26.811789
26.811864
26.812026
26.812663
26.813014
26.825135
26.948435
28.463504
39.882218
26.812298
26.811107
26.810328
26.810223
26.810202
26.810265
26.810332
26.81042
26.810499
26.810554
26.81059
26.810627
26.810652
26.81064
26.81059
26.810514
26.810415
26.810286
26.810142
26.809989
26.809841
26.809717
26.809621
26.809557
26.809527
26.809542
26.809601
26.809698
26.809835
26.809997
26.810174
26.810351
26.810516
26.810664
26.810805
26.810943
26.811081
26.811234
26.811393
26.811532
26.811638
26.81176
26.811996
26.812675
26.813099
26.827408
26.96782
28.604876
40.315179
26.811442
26.810306
26.809579
26.809538
26.809594
26.809747
26.809911
26.810103
26.810301
26.810498
26.810674
26.810807
26.8109
26.810945
26.810932
26.810868
26.810751
26.810585
26.810392
26.810183
26.809993
26.809822
26.809664
26.809531
26.809454
26.809436
26.809467
26.809534
26.809638
26.809763
26.809895
26.810028
26.810167
26.810308
26.810444
26.810573
26.810702
26.810851
26.811017
26.811191
26.811369
26.811584
26.81197
26.812861
26.813503
26.830445
26.990731
28.758656
40.743105
26.810571
26.809496
26.80884
26.808891
26.809061
26.809345
26.809652
26.810002
26.810362
26.810662
26.810912
26.811113
26.811241
26.811283
26.811244
26.81113
26.810949
26.810723
26.810475
26.810207
26.809931
26.809678
26.809461
26.809288
26.809165
26.809106
26.809094
26.809126
26.809191
26.809271
26.809361
26.809456
26.809566
26.809695
26.809837
26.809989
26.810158
26.810358
26.810579
26.810818
26.811094
26.811426
26.811985
26.813181
26.814151
26.834121
27.018148
28.931019
41.181138
26.809793
26.808794
26.808227
26.80839
26.808691
26.80913
26.809592
26.810054
26.810478
26.810862
26.811161
26.811363
26.811462
26.811466
26.811379
26.811208
26.810964
26.810667
26.810324
26.809966
26.809622
26.809295
26.809013
26.808794
26.808646
26.808564
26.80854
26.808564
26.808617
26.808683
26.808761
26.808846
26.808949
26.809077
26.809244
26.80944
26.809662
26.809914
26.810188
26.810489
26.810845
26.811279
26.811995
26.813522
26.815004
26.838277
27.048272
29.110293
41.608481
26.809215
26.808278
26.80778
26.808029
26.808417
26.808939
26.809459
26.809978
26.810446
26.810842
26.811148
26.811341
26.811414
26.811378
26.811237
26.810996
26.810669
26.810305
26.809906
26.809492
26.809099
26.808749
26.808461
26.808251
26.808124
26.808068
26.808077
26.808134
26.808211
26.808305
26.808408
26.808519
26.80863
26.808755
26.808912
26.809094
26.809308
26.809556
26.809843
26.810178
26.81058
26.811081
26.811878
26.813723
26.815713
26.84262
27.082324
29.305668
42.058246
26.808907
26.807985
26.807488
26.807739
26.808119
26.808646
26.809186
26.809713
26.810178
26.810558
26.810841
26.811
26.811027
26.810932
26.810742
26.810454
26.810094
26.809704
26.809296
26.808903
26.808552
26.808263
26.808054
26.807928
26.807878
26.807887
26.807943
26.808024
26.808109
26.808201
26.808291
26.808376
26.808452
26.808539
26.80865
26.808786
26.808964
26.809181
26.80944
26.809752
26.810141
26.810657
26.811489
26.813554
26.816164
26.848042
27.12422
29.538283
42.570079
26.808861
26.807924
26.807376
26.807551
26.807848
26.808303
26.808774
26.809232
26.809619
26.80992
26.810118
26.81021
26.810199
26.810091
26.809897
26.809628
26.809316
26.80899
26.808664
26.808371
26.808132
26.807958
26.807854
26.807804
26.807796
26.807816
26.807855
26.807894
26.807934
26.807974
26.808013
26.80805
26.80809
26.808144
26.808222
26.808331
26.808493
26.808705
26.808953
26.809236
26.809585
26.810068
26.81088
26.813244
26.816416
26.854827
27.177669
29.819128
43.134872
26.808864
26.807919
26.807341
26.807441
26.807612
26.807927
26.808253
26.808574
26.808835
26.809023
26.809128
26.809152
26.809101
26.808986
26.808823
26.808626
26.808414
26.808202
26.808005
26.807842
26.807711
26.807614
26.807552
26.807513
26.807493
26.807486
26.80749
26.807487
26.807485
26.807476
26.807462
26.807459
26.807475
26.807516
26.807594
26.807714
26.807885
26.808101
26.808346
26.808618
26.808943
26.80938
26.8102
26.812917
26.816822
26.864795
27.247414
30.174638
43.828537
26.808796
26.807833
26.807225
26.807248
26.807314
26.807497
26.807669
26.80784
26.807969
26.808047
26.808074
26.808049
26.80798
26.80787
26.80774
26.80761
26.807487
26.807373
26.807278
26.807208
26.807145
26.807089
26.807044
26.807
26.806952
26.806906
26.806865
26.806831
26.806805
26.806781
26.806767
26.806778
26.806822
26.806902
26.807019
26.807176
26.807363
26.80757
26.807802
26.808072
26.808397
26.808863
26.809742
26.813179
26.817787
26.877401
27.329243
30.554995
44.4932
26.808461
26.807458
26.806819
26.806781
26.806781
26.806877
26.806948
26.807021
26.807066
26.807075
26.807055
26.807013
26.806952
26.80686
26.806756
26.806666
26.806595
26.806534
26.806475
26.806427
26.806375
26.806313
26.806249
26.806182
26.806114
26.806056
26.806015
26.806
26.806014
26.806041
26.806079
26.806133
26.806211
26.80631
26.806429
26.806568
26.806718
26.80687
26.807043
26.807261
26.807544
26.807994
26.80916
26.813826
26.819628
26.897101
27.443495
31.067593
45.36944
26.808023
26.806996
26.806352
26.806288
26.806252
26.806314
26.806345
26.806379
26.806397
26.806391
26.806372
26.806353
26.806335
26.806289
26.806227
26.806178
26.806138
26.806097
26.806034
26.805967
26.805895
26.805815
26.805746
26.805694
26.805658
26.805647
26.805662
26.805713
26.8058
26.805898
26.805993
26.806087
26.806183
26.806282
26.806396
26.806515
26.806639
26.806775
26.806937
26.807171
26.807586
26.808397
26.809648
26.815992
26.822053
26.917093
27.547232
31.486718
45.965595
26.807197
26.806151
26.805521
26.805416
26.805297
26.805274
26.805228
26.805196
26.805159
26.805118
26.805084
26.805064
26.805065
26.805066
26.805067
26.805088
26.805118
26.805135
26.805126
26.805115
26.805115
26.80512
26.805135
26.805163
26.805192
26.805224
26.805257
26.805305
26.805366
26.805413
26.80545
26.805483
26.805507
26.805529
26.805569
26.805618
26.805672
26.805744
26.805846
26.806023
26.806487
26.80764
26.808969
26.818837
26.827701
26.981122
27.855222
32.612776
47.461397
)
;

boundaryField
{
    Side
    {
        type            empty;
    }
    Inlet
    {
        type            fixedValue;
        value           uniform 60.24606;
    }
    Airfoil
    {
        type            omegaWallFunction;
        blending        binomial;
        n               2;
        value           nonuniform List<scalar> 0();
    }
    Outlet
    {
        type            inletOutlet;
        inletValue      uniform 60.24606;
        value           nonuniform List<scalar> 
49
(
26.807197
26.806151
26.805521
26.805416
26.805297
26.805274
26.805228
26.805196
26.805159
26.805118
26.805084
26.805064
26.805065
26.805066
26.805067
26.805088
26.805118
26.805135
26.805126
26.805115
26.805115
26.80512
26.805135
26.805163
26.805192
26.805224
26.805257
26.805305
26.805366
26.805413
26.80545
26.805483
26.805507
26.805529
26.805569
26.805618
26.805672
26.805744
26.805846
26.806023
26.806487
26.80764
26.808969
26.818837
26.827701
26.981122
27.855222
32.612776
47.461397
)
;
    }
    procBoundary13to6
    {
        type            processor;
        value           nonuniform List<scalar> 
34
(
26.817768
26.817768
26.817591
26.816919
26.816774
26.816876
26.816865
26.816658
26.816337
26.815958
26.815423
26.814785
26.814152
26.813693
26.813507
26.813577
26.81371
26.813811
26.813788
26.813669
26.813385
26.812893
26.812191
26.811347
26.810473
26.809687
26.809103
26.808799
26.808755
26.808755
26.808683
26.808353
26.807925
26.807116
)
;
    }
    procBoundary13to12
    {
        type            processor;
        value           nonuniform List<scalar> 
60
(
26.816133
26.815055
26.814489
26.814278
26.813734
26.813734
26.813771
26.813855
26.813907
26.813928
26.813926
26.813769
26.813769
26.813754
26.813761
26.813748
26.813715
26.813856
26.813856
26.813828
26.813819
26.813817
26.814219
26.814219
26.814217
26.814229
26.814236
26.814254
26.814658
26.814658
26.814632
26.814612
26.814615
26.814817
26.814817
26.814742
26.814714
26.814767
26.814407
26.814407
26.814356
26.81444
26.813793
26.813793
26.813955
26.814253
26.813583
26.813583
26.813938
26.81419
26.813874
26.813874
26.814517
26.814547
26.81898
26.81898
26.855908
27.653111
27.653111
36.982525
)
;
    }
}


// ************************************************************************* //
