/*--------------------------------*- C++ -*----------------------------------*\
| =========                 |                                                 |
| \\      /  F ield         | OpenFOAM: The Open Source CFD Toolbox           |
|  \\    /   O peration     | Version:  2506                                  |
|   \\  /    A nd           | Website:  www.openfoam.com                      |
|    \\/     M anipulation  |                                                 |
\*---------------------------------------------------------------------------*/
FoamFile
{
    version     2.0;
    format      ascii;
    arch        "LSB;label=32;scalar=64";
    class       volVectorField;
    location    "0.25";
    object      U;
}
// * * * * * * * * * * * * * * * * * * * * * * * * * * * * * * * * * * * * * //

dimensions      [0 1 -1 0 0 0 0];

internalField   nonuniform List<vector> 
1376
(
(94.588509 0.0023970036 -1.8184593e-18)
(94.581229 0.0086490012 1.8017911e-18)
(94.573878 0.012611104 -1.4249832e-17)
(94.566689 0.016523417 2.1144257e-17)
(94.633095 0.018912894 2.8934437e-17)
(94.625239 -0.00091219816 -1.6116341e-17)
(94.618101 0.0063024223 1.5956138e-17)
(94.610439 0.0095181976 1.3829856e-21)
(94.602458 0.013056102 -1.3885833e-17)
(94.59427 0.016599602 0)
(94.585993 0.020172255 1.357314e-17)
(94.577856 0.023207396 1.3410436e-17)
(94.570097 0.025868125 0)
(94.562853 0.027917291 -3.9213715e-17)
(94.556201 0.029268669 1.2894721e-17)
(94.660843 0.018410633 -1.4249598e-17)
(94.654683 -0.0055238278 1.2347441e-17)
(94.64877 0.0017376416 -1.2223773e-17)
(94.641952 0.0033801824 2.7652489e-17)
(94.634321 0.0057779703 6.8393097e-18)
(94.625958 0.0084853756 -6.7635399e-18)
(94.617095 0.011455656 0)
(94.60793 0.01449905 0)
(94.598723 0.017316323 1.3050355e-17)
(94.589681 0.019715805 1.2883872e-17)
(94.580979 0.021370697 -3.5877237e-22)
(94.572781 0.022631451 1.2535074e-17)
(94.56523 0.022578472 0)
(94.5584 0.021688913 -1.2167359e-17)
(94.552335 0.019143687 -2.3951926e-17)
(94.547117 0.014901249 1.1779391e-17)
(94.677998 0.015608538 1.4031618e-17)
(94.673835 -0.0096547255 0)
(94.669526 -0.0035236688 1.3759574e-17)
(94.664264 -0.0042556388 -1.3618907e-17)
(94.658068 -0.0039921437 6.737314e-18)
(94.650898 -0.0030847772 -6.663296e-18)
(94.642792 -0.0015046899 1.3175219e-17)
(94.633856 0.00054413081 1.3019806e-17)
(94.624258 0.0028599851 -3.8581949e-17)
(94.614302 0.0051594431 -1.2697309e-17)
(94.604281 0.0072619363 -4.1218204e-22)
(94.594425 0.008593935 1.2357216e-17)
(94.584946 0.0090546726 0)
(94.575952 0.0086612414 2.3997878e-17)
(94.567529 0.0070079586 0)
(94.559873 0.0040387629 0)
(94.553158 -0.00036463512 -1.1422522e-17)
(94.547449 -0.0068926556 -4.6232203e-22)
(94.542785 -0.015656288 0)
(94.539175 -0.025891803 -1.3659636e-21)
(94.688908 0.012185047 -1.3804658e-17)
(94.686027 -0.012727429 1.709531e-18)
(94.682986 -0.0079544628 -1.6929932e-18)
(94.679152 -0.010796328 3.3520198e-18)
(94.674486 -0.012313713 9.9516273e-18)
(94.668863 -0.013340444 0)
(94.66218 -0.013961715 -1.2978364e-17)
(94.654512 -0.013896924 -2.5654713e-17)
(94.64588 -0.013188911 2.5344417e-17)
(94.636399 -0.011945429 3.2928927e-22)
(94.626257 -0.010355608 1.2349147e-17)
(94.615724 -0.0087329017 -2.4361889e-17)
(94.605093 -0.0076467338 1.2008473e-17)
(94.594594 -0.0077929821 -1.1831445e-17)
(94.584421 -0.0089146412 -1.1649017e-17)
(94.57486 -0.011217738 0)
(94.566104 -0.014868343 1.1268734e-17)
(94.558243 -0.019832485 -1.7529199e-22)
(94.551393 -0.026405535 0)
(94.545704 -0.035151422 4.2624626e-17)
(94.541225 -0.045734732 -2.0883519e-17)
(94.537911 -0.057596881 2.0447643e-17)
(94.535723 -0.071776879 -2.0010682e-17)
(94.534407 -0.086988113 0)
(94.533809 -0.10291243 0)
(94.699516 0.010179741 0)
(94.696846 -0.013628973 -1.345206e-17)
(94.694292 -0.0099006771 3.3310936e-18)
(94.691207 -0.014916295 -3.2984412e-18)
(94.687572 -0.018564926 -1.3059332e-17)
(94.683171 -0.021542915 6.4607499e-18)
(94.677856 -0.023844893 4.5294911e-23)
(94.671659 -0.025600188 -6.3170556e-18)
(94.664508 -0.026666272 -1.2484048e-17)
(94.656402 -0.027187964 0)
(94.647374 -0.027292659 0)
(94.63747 -0.026702595 1.2008087e-17)
(94.626887 -0.026209064 -1.1840677e-17)
(94.615963 -0.025991299 0)
(94.604985 -0.026510431 1.1491467e-17)
(94.594226 -0.027703107 -1.1309387e-17)
(94.584002 -0.030648803 0)
(94.574564 -0.034735213 -2.1861582e-17)
(94.565986 -0.040192948 2.1465631e-17)
(94.558403 -0.047225817 -4.2118839e-17)
(94.551884 -0.055910211 -5.0129509e-22)
(94.546551 -0.066458788 2.0210743e-17)
(94.5425 -0.078239425 3.9542084e-17)
(94.539583 -0.091819316 -1.9322749e-17)
(94.53766 -0.10691185 0)
(94.536726 -0.12204585 1.8434187e-17)
(94.536768 -0.14032039 -5.4008825e-17)
(94.5375 -0.15781634 3.504624e-17)
(94.538625 -0.17510239 -3.4074269e-17)
(94.714349 0.009767299 0)
(94.710994 -0.013802561 1.6546022e-17)
(94.708027 -0.010593117 -3.277865e-18)
(94.704831 -0.016939196 9.7377408e-18)
(94.701497 -0.021692466 3.2133191e-18)
(94.697774 -0.026404251 1.271985e-17)
(94.693425 -0.030339025 -6.2914549e-18)
(94.688354 -0.033940154 6.2209883e-18)
(94.682516 -0.03715982 2.4595278e-17)
(94.675838 -0.039408674 -2.4298141e-17)
(94.668244 -0.040986004 -1.1996401e-17)
(94.659666 -0.041912442 -2.1700165e-22)
(94.650135 -0.042362696 0)
(94.639876 -0.042918564 -1.1509886e-17)
(94.629145 -0.043545465 0)
(94.618095 -0.044440834 1.1162842e-17)
(94.607107 -0.046496868 2.1964078e-17)
(94.596548 -0.049227219 -2.1592596e-17)
(94.586616 -0.053368348 -8.0059149e-22)
(94.577489 -0.058973267 4.1638392e-17)
(94.569337 -0.066261306 2.0416793e-17)
(94.562302 -0.074960251 -6.0344591e-22)
(94.556373 -0.084957903 1.9580433e-17)
(94.551564 -0.09690705 -4.0493095e-22)
(94.547765 -0.11002054 3.7402645e-17)
(94.54504 -0.1241531 0)
(94.543587 -0.13942598 3.5557737e-17)
(94.54321 -0.15557125 -3.4669491e-17)
(94.543693 -0.1744014 1.6889709e-17)
(94.544649 -0.19225797 -1.6409391e-17)
(94.545495 -0.20976021 1.5943144e-17)
(94.545402 -0.22594706 1.5470308e-17)
(94.543611 -0.24038226 -2.9939859e-17)
(94.736076 0.01085328 1.6448052e-18)
(94.731498 -0.013731108 -1.7923673e-17)
(94.727539 -0.010589791 6.4555031e-18)
(94.723596 -0.01752026 -1.5980714e-17)
(94.719767 -0.022632706 -1.2656292e-17)
(94.715861 -0.028219989 -1.2525732e-17)
(94.711676 -0.033426875 -7.0495255e-24)
(94.707061 -0.038306428 6.1277884e-18)
(94.702013 -0.042739986 -6.0577609e-18)
(94.696347 -0.046668607 0)
(94.689891 -0.050015496 2.3647618e-17)
(94.68257 -0.052714913 1.1671786e-17)
(94.674372 -0.055020496 -1.1515039e-17)
(94.665355 -0.056771263 1.1354291e-17)
(94.655609 -0.058375959 0)
(94.645235 -0.060158903 1.1017832e-17)
(94.634404 -0.061557118 2.1686328e-17)
(94.623403 -0.063932351 -2.132623e-17)
(94.612589 -0.067031335 1.0477918e-17)
(94.602222 -0.071117448 -2.0577836e-17)
(94.59266 -0.077076851 -2.0189097e-17)
(94.584082 -0.084009732 -3.9580934e-17)
(94.576529 -0.09266676 1.9381932e-17)
(94.570129 -0.1026351 -3.792553e-17)
(94.564806 -0.11389903 -7.3696471e-22)
(94.560496 -0.12622402 0)
(94.5572 -0.13993392 -1.7646193e-17)
(94.555062 -0.1551958 -1.7184766e-17)
(94.553894 -0.17019863 1.6718315e-17)
(94.55377 -0.1885147 1.6268242e-17)
(94.554396 -0.204436 -3.1626079e-17)
(94.555229 -0.22105915 0)
(94.555814 -0.23669438 1.4863686e-17)
(94.555478 -0.25013188 -1.4393485e-17)
(94.55316 -0.2607699 -2.7804263e-17)
(94.547865 -0.26983506 5.3640241e-17)
(94.766075 0.0131987 1.2962628e-17)
(94.759932 -0.013798564 1.2842159e-17)
(94.754557 -0.010250005 3.1797904e-18)
(94.749278 -0.017525671 -2.2039885e-17)
(94.744211 -0.022736904 1.8701825e-17)
(94.739354 -0.028667301 -1.2338896e-17)
(94.734598 -0.034245995 1.2208195e-17)
(94.729682 -0.039904058 1.2074402e-17)
(94.724591 -0.045069877 -1.1937761e-17)
(94.719198 -0.050195529 -1.1797867e-17)
(94.713388 -0.05484701 -1.1654399e-17)
(94.707003 -0.059097349 1.4032711e-22)
(94.699954 -0.062805512 1.1355344e-17)
(94.692157 -0.06573275 -1.4611564e-22)
(94.683605 -0.068497057 0)
(94.674356 -0.071278504 -1.1816798e-22)
(94.664357 -0.073745796 1.0705603e-17)
(94.653787 -0.076775581 2.2450615e-23)
(94.642982 -0.07949685 -1.0351395e-17)
(94.632146 -0.083242566 -4.0672076e-17)
(94.621565 -0.08760069 3.9918055e-17)
(94.611554 -0.093438533 -1.9572275e-17)
(94.602429 -0.10034618 1.9177433e-17)
(94.594386 -0.10830115 0)
(94.587473 -0.11770074 -1.8358947e-17)
(94.581669 -0.12862764 3.5868153e-17)
(94.576882 -0.14102068 -1.7500141e-17)
(94.57309 -0.15464685 1.7058405e-17)
(94.570432 -0.16893147 0)
(94.568931 -0.18327041 -1.6143254e-17)
(94.568344 -0.19836349 4.1650084e-22)
(94.568674 -0.21424425 1.5240995e-17)
(94.569686 -0.22806991 1.4762932e-17)
(94.570722 -0.24150621 -2.8572319e-17)
(94.570782 -0.25485635 0)
(94.569078 -0.26654728 -2.6713162e-17)
(94.56465 -0.27648819 -3.862609e-17)
(94.556089 -0.28342601 -1.2392241e-17)
(94.542717 -0.28752849 2.382418e-17)
(94.804132 0.016002521 -1.2773284e-17)
(94.796462 -0.015142876 0)
(94.789698 -0.011284896 3.1331134e-18)
(94.782951 -0.018988573 2.171647e-17)
(94.776332 -0.024251586 6.142371e-18)
(94.769984 -0.030231743 6.0793174e-18)
(94.763931 -0.035826774 1.8043482e-17)
(94.757913 -0.041810636 5.9486428e-18)
(94.751993 -0.047722116 -2.3527987e-17)
(94.746118 -0.053384387 1.1627087e-17)
(94.740204 -0.058608883 1.1487682e-17)
(94.734112 -0.06347071 1.1344738e-17)
(94.727677 -0.067742717 2.2395133e-17)
(94.720729 -0.07185354 -2.209369e-17)
(94.713201 -0.075825612 0)
(94.705044 -0.079225587 2.1464443e-17)
(94.696138 -0.082948618 -3.1705106e-17)
(94.686463 -0.085968509 1.0399025e-17)
(94.676268 -0.090199702 -1.0226115e-17)
(94.665707 -0.093789206 0)
(94.654822 -0.098085548 1.9730855e-17)
(94.643977 -0.10316064 1.9355935e-17)
(94.633619 -0.10879153 0)
(94.62403 -0.11538411 0)
(94.615416 -0.12325516 -1.8178706e-17)
(94.607863 -0.13223518 -1.7766445e-17)
(94.601465 -0.14293979 -1.7347033e-17)
(94.59621 -0.1549967 5.349497e-22)
(94.592117 -0.16732248 1.6481986e-17)
(94.589245 -0.18015903 0)
(94.587637 -0.19326522 1.5581083e-17)
(94.586963 -0.20488253 -3.0280809e-17)
(94.586967 -0.2199677 2.938454e-17)
(94.58745 -0.23377691 -1.2027864e-23)
(94.58793 -0.24704375 0)
(94.587733 -0.26089164 -1.3303867e-17)
(94.586145 -0.27278972 -1.2832537e-17)
(94.582078 -0.28326235 2.4724297e-17)
(94.574183 -0.29249879 -2.378393e-17)
(94.561407 -0.29818143 -2.2846129e-17)
(94.54349 -0.30024221 0)
(94.522736 -0.30517001 -2.0990027e-17)
(94.847602 0.01832972 0)
(94.839013 -0.017866875 0)
(94.83144 -0.013343648 3.0876143e-18)
(94.823702 -0.021958885 -2.1402393e-17)
(94.815883 -0.027506803 6.0534522e-18)
(94.808103 -0.033751269 0)
(94.800501 -0.039527868 -1.1856319e-17)
(94.792972 -0.045463631 -1.1727378e-17)
(94.785636 -0.051357478 7.9797169e-22)
(94.778547 -0.05722106 -1.1462194e-17)
(94.771693 -0.062951038 1.132538e-17)
(94.765001 -0.068288511 -1.1185787e-17)
(94.758311 -0.073545659 -1.1043287e-17)
(94.751498 -0.078250777 -1.0896667e-17)
(94.74442 -0.082156349 1.0746333e-17)
(94.736942 -0.086598629 -2.1184156e-17)
(94.728978 -0.090697667 -1.043314e-17)
(94.720314 -0.094740508 0)
(94.710966 -0.098949032 2.0205423e-17)
(94.701038 -0.10353145 -9.9301311e-18)
(94.690507 -0.10805983 -9.7549912e-18)
(94.679572 -0.11307471 -1.9144807e-17)
(94.668601 -0.11823542 -1.8771718e-17)
(94.65796 -0.12366063 1.83898e-17)
(94.647967 -0.12999125 3.599918e-17)
(94.638785 -0.1375013 1.7601092e-17)
(94.630652 -0.14625559 3.4388512e-17)
(94.623811 -0.15664509 -3.3556861e-17)
(94.618183 -0.16723592 6.461467e-22)
(94.613674 -0.17831226 -1.5925443e-17)
(94.610389 -0.19007675 -1.5489344e-17)
(94.608084 -0.20211319 3.0094374e-17)
(94.606425 -0.21454778 -2.919543e-17)
(94.605346 -0.22804491 -2.7729109e-23)
(94.60485 -0.24080722 -1.3698173e-17)
(94.604569 -0.25424868 2.6498202e-17)
(94.603997 -0.26770182 0)
(94.60234 -0.28076007 1.233091e-17)
(94.59866 -0.29276725 -1.1870794e-17)
(94.591831 -0.30193901 2.2821349e-17)
(94.579967 -0.3073212 -1.0952275e-17)
(94.562475 -0.31685235 -1.0499006e-17)
(94.539267 -0.32347583 -2.0094708e-17)
(94.511632 -0.26473926 3.8388045e-17)
(94.502938 -0.4481472 3.6609933e-17)
(94.89195 0.019904322 0)
(94.88337 -0.021255322 0)
(94.875762 -0.015959463 0)
(94.867704 -0.025472196 6.0270891e-18)
(94.859314 -0.031785477 -1.7900152e-17)
(94.850668 -0.038463636 5.9052485e-18)
(94.841903 -0.044573845 5.8436922e-18)
(94.833093 -0.050725663 0)
(94.824362 -0.056949732 1.143284e-17)
(94.815836 -0.063031235 0)
(94.807577 -0.068632431 0)
(94.799598 -0.074359809 -1.1031313e-17)
(94.791852 -0.07947 1.0891854e-17)
(94.784258 -0.084595098 0)
(94.776726 -0.089779038 -3.3165208e-22)
(94.769165 -0.094356306 2.0907832e-17)
(94.761494 -0.099266402 1.0300652e-17)
(94.753499 -0.10401946 2.0285331e-17)
(94.744909 -0.10866243 -2.9941295e-17)
(94.735702 -0.1141709 9.8140972e-18)
(94.725951 -0.11933002 9.6422508e-18)
(94.715655 -0.1247389 -9.4656893e-18)
(94.70491 -0.13000233 -1.8571935e-17)
(94.693983 -0.13496373 0)
(94.683229 -0.14036578 -1.7824957e-17)
(94.672884 -0.14585824 -3.4873893e-17)
(94.663174 -0.1518696 1.7041876e-17)
(94.654481 -0.15951279 9.2943873e-22)
(94.646891 -0.167449 1.6229648e-17)
(94.640204 -0.17708073 0)
(94.634518 -0.18810704 0)
(94.629883 -0.19985356 1.495561e-17)
(94.626115 -0.21304545 1.4519818e-17)
(94.623154 -0.22634778 2.8156855e-17)
(94.620855 -0.23953387 -1.3633743e-17)
(94.619265 -0.25230242 4.8631636e-22)
(94.618079 -0.26577001 3.8229031e-17)
(94.617036 -0.27906772 0)
(94.615842 -0.29160689 1.1849879e-17)
(94.613294 -0.30259616 -3.420313e-17)
(94.607083 -0.31250735 1.1216011e-21)
(94.595904 -0.32560863 0)
(94.579394 -0.3397587 0)
(94.553645 -0.27841537 -5.7720817e-17)
(94.532893 -0.45386641 -3.673762e-17)
(94.527505 -0.14929157 -3.0707244e-17)
(94.495906 -0.62007568 -3.7611721e-17)
(94.932252 0.02016555 0)
(94.924499 -0.024957256 0)
(94.917482 -0.019516057 0)
(94.909762 -0.030475071 0)
(94.901449 -0.037720605 1.1764012e-17)
(94.892662 -0.045614618 -1.1644284e-17)
(94.88347 -0.052264539 -1.1521705e-17)
(94.874066 -0.059065692 0)
(94.864548 -0.064853763 -1.1272207e-17)
(94.854961 -0.070878389 1.114398e-17)
(94.845429 -0.076832513 0)
(94.836055 -0.082469109 1.0880288e-17)
(94.826945 -0.088195207 -1.0744006e-17)
(94.818058 -0.09307398 0)
(94.80939 -0.098385276 -1.0462884e-17)
(94.800993 -0.10359468 0)
(94.792786 -0.10852634 0)
(94.784664 -0.11371798 -1.0015006e-17)
(94.776322 -0.11922508 9.8579932e-18)
(94.767636 -0.12505663 9.6967008e-18)
(94.758725 -0.13077672 -9.5312041e-18)
(94.749452 -0.13654866 9.3619228e-18)
(94.739653 -0.14215162 0)
(94.729325 -0.14704063 -1.8014956e-17)
(94.718678 -0.15210199 0)
(94.707905 -0.15684143 3.4547281e-17)
(94.697122 -0.16174076 0)
(94.686697 -0.1676698 3.2996508e-17)
(94.676942 -0.17473177 -1.6099585e-17)
(94.667922 -0.18292271 3.1386194e-17)
(94.65981 -0.19239797 -1.5279371e-17)
(94.65278 -0.20253025 -1.4860897e-17)
(94.646786 -0.21376768 -2.8871476e-17)
(94.641617 -0.22603384 3.3073351e-22)
(94.637187 -0.23973435 -1.3570268e-17)
(94.63354 -0.25251194 1.3132733e-17)
(94.630831 -0.26586926 -2.5386705e-17)
(94.629111 -0.27826832 0)
(94.628043 -0.29043129 0)
(94.626973 -0.30255296 2.2771963e-17)
(94.624278 -0.31449809 3.2839923e-17)
(94.618563 -0.3277033 2.1018574e-17)
(94.610398 -0.34497982 1.0043892e-22)
(94.595905 -0.29008717 9.6458054e-18)
(94.57864 -0.45827656 3.6870008e-17)
(94.561941 -0.16043507 3.5211981e-17)
(94.520107 -0.61576661 4.1929067e-18)
(94.534619 0.0054675931 -3.9971464e-18)
(94.411868 -0.80548024 0)
(94.966451 0.018991315 0)
(94.959877 -0.028995849 0)
(94.953722 -0.024088747 -2.9561259e-18)
(94.946763 -0.037320731 8.7826472e-18)
(94.939013 -0.046062959 5.7970219e-18)
(94.930623 -0.055232171 -5.7386314e-18)
(94.92164 -0.06325424 2.2716116e-17)
(94.912223 -0.070799595 5.6185077e-18)
(94.902491 -0.077830233 1.1114573e-17)
(94.892463 -0.083899359 -1.0989327e-17)
(94.882239 -0.089429742 -1.0861427e-17)
(94.871966 -0.09465943 2.1461755e-17)
(94.861776 -0.09954096 0)
(94.851778 -0.1050071 0)
(94.842042 -0.1098026 0)
(94.832623 -0.11447693 -2.0363195e-17)
(94.823509 -0.11915785 2.0072641e-17)
(94.814685 -0.12430594 9.8880255e-18)
(94.806007 -0.12917131 -2.920689e-17)
(94.797411 -0.13550586 -9.5797562e-18)
(94.788956 -0.14127503 2.8258366e-17)
(94.780483 -0.14773086 0)
(94.77178 -0.1543542 0)
(94.762651 -0.15989861 6.1398019e-22)
(94.752996 -0.16501172 3.4946459e-17)
(94.742806 -0.17000032 -1.7111429e-17)
(94.732038 -0.17435692 -1.6736986e-17)
(94.720848 -0.17965156 -1.6358505e-17)
(94.709632 -0.18532954 0)
(94.698777 -0.19280554 -4.6724125e-17)
(94.688611 -0.20064798 3.0346096e-17)
(94.679367 -0.21015828 -1.4764154e-17)
(94.671122 -0.22019341 -8.8558851e-22)
(94.663793 -0.23140047 1.3932421e-17)
(94.657272 -0.24381854 0)
(94.651431 -0.25498559 -1.3079726e-17)
(94.646652 -0.26661349 1.2650399e-17)
(94.643185 -0.27867949 -1.2219841e-17)
(94.640543 -0.28963839 1.1790421e-17)
(94.63858 -0.30093678 -1.1364681e-17)
(94.637063 -0.31350818 -1.0939224e-17)
(94.633919 -0.3264706 -2.1023054e-17)
(94.629064 -0.34216969 0)
(94.624597 -0.29415773 0)
(94.619684 -0.4656453 1.849841e-17)
(94.596995 -0.16519216 0)
(94.560979 -0.62468114 0)
(94.568605 0.016893952 -2.0094124e-18)
(94.422778 -0.80510707 -2.8630296e-17)
(94.995721 0.0172922 -1.18731e-17)
(94.990256 -0.032264039 2.9408195e-18)
(94.984974 -0.028114214 2.3116577e-23)
(94.978941 -0.043555932 -8.6551287e-18)
(94.972055 -0.053838347 -1.7139871e-17)
(94.964386 -0.064538809 -5.6557724e-18)
(94.956056 -0.073889179 -5.5977137e-18)
(94.947093 -0.082132729 0)
(94.937575 -0.089928377 3.2147719e-22)
(94.927587 -0.096889744 -1.0833845e-17)
(94.917238 -0.10350177 0)
(94.90673 -0.10899683 -1.0582715e-17)
(94.896134 -0.11402511 0)
(94.885615 -0.11855938 0)
(94.875312 -0.12282281 0)
(94.865248 -0.12677834 -1.0047796e-17)
(94.855483 -0.13134268 1.981235e-17)
(94.845991 -0.13466858 0)
(94.836836 -0.13961758 0)
(94.828114 -0.14490758 0)
(94.819737 -0.15014546 2.7921579e-17)
(94.81162 -0.15622181 3.0332148e-23)
(94.80359 -0.16190589 -8.9861773e-18)
(94.795427 -0.16809721 0)
(94.786905 -0.17347869 1.7295381e-17)
(94.777877 -0.17924185 -7.1128672e-22)
(94.768159 -0.18458946 -1.6585506e-17)
(94.757568 -0.18984257 -4.118701e-22)
(94.746307 -0.19578688 3.1684889e-17)
(94.734802 -0.2027349 1.0854516e-21)
(94.723373 -0.20941894 0)
(94.712312 -0.21731696 2.9346026e-17)
(94.701854 -0.22641839 -2.8540833e-17)
(94.692254 -0.23669059 0)
(94.683598 -0.24811676 1.3450636e-17)
(94.675581 -0.25871921 -1.3034087e-17)
(94.668214 -0.2685348 1.2613984e-17)
(94.661989 -0.28027754 -2.4385834e-17)
(94.65661 -0.29093937 -3.5309996e-17)
(94.652045 -0.30024744 1.1349423e-17)
(94.648968 -0.31257971 -1.0933108e-17)
(94.64586 -0.3292714 1.0515834e-17)
(94.64037 -0.34295089 -1.0097135e-17)
(94.637345 -0.29686317 2.9078612e-17)
(94.643159 -0.47032623 4.6430118e-18)
(94.628214 -0.16421728 -4.4347338e-18)
(94.607031 -0.66656703 -3.3897599e-17)
(94.599752 0.013816835 0)
(94.461791 -0.804199 3.0728092e-17)
(95.022011 0.015590063 1.1699808e-17)
(95.017455 -0.034743462 0)
(95.01302 -0.031449918 2.8706374e-18)
(95.007999 -0.049039128 -1.4215335e-17)
(95.002284 -0.061437061 1.6891414e-17)
(94.995745 -0.07391633 5.5738941e-18)
(94.988484 -0.085645174 1.1033529e-17)
(94.980477 -0.096276105 -2.183544e-17)
(94.971687 -0.10540067 2.16002e-17)
(94.962274 -0.11302554 1.0680325e-17)
(94.952354 -0.11927521 0)
(94.942135 -0.1249924 -1.043505e-17)
(94.931744 -0.12952412 0)
(94.92131 -0.13349531 0)
(94.910942 -0.13646895 2.0098962e-17)
(94.900727 -0.13988497 -2.9746184e-17)
(94.89072 -0.14261365 -9.7779023e-18)
(94.880921 -0.14539095 -2.8913264e-17)
(94.87158 -0.14864451 1.8988714e-17)
(94.862804 -0.15299854 1.8695215e-17)
(94.854442 -0.15735164 -2.7592371e-17)
(94.846433 -0.16252204 -1.8087144e-17)
(94.838679 -0.16828787 1.7771703e-17)
(94.830938 -0.17396141 0)
(94.822995 -0.18003807 -1.7120395e-17)
(94.81475 -0.18623742 9.8139435e-22)
(94.806049 -0.19293721 -3.2870309e-17)
(94.796593 -0.19973924 1.6079036e-17)
(94.786334 -0.20695924 -3.8006303e-22)
(94.775393 -0.21362938 1.5346789e-17)
(94.763759 -0.21988427 -1.3156187e-21)
(94.751743 -0.22757275 8.3881147e-22)
(94.739697 -0.23507441 0)
(94.727895 -0.24355506 0)
(94.716691 -0.25384816 1.339699e-17)
(94.705936 -0.26380818 -7.1280245e-23)
(94.695415 -0.27322775 -5.0331241e-17)
(94.685573 -0.28452225 3.6515336e-17)
(94.676549 -0.29602828 9.7148464e-22)
(94.668 -0.30417027 0)
(94.660896 -0.31543249 1.0933002e-17)
(94.655577 -0.33582936 -1.0524951e-17)
(94.648244 -0.3500636 0)
(94.640556 -0.30054886 4.7043678e-22)
(94.644927 -0.48137559 2.6871996e-22)
(94.643061 -0.16047506 0)
(94.619961 -0.62784545 6.9330531e-22)
(94.635161 0.0079487852 3.2386977e-17)
(94.519944 -0.72897649 0)
(95.047285 0.014385687 -1.4411271e-18)
(95.043346 -0.036201817 4.2834592e-18)
(95.039635 -0.033758089 1.1832265e-23)
(95.03556 -0.052750328 2.8018862e-18)
(95.031106 -0.066700007 -5.5490314e-18)
(95.025994 -0.080568922 -5.4939119e-18)
(95.020188 -0.092972001 -1.6313911e-17)
(95.013673 -0.10444609 1.0762661e-17)
(95.006285 -0.11485915 -1.0647469e-17)
(94.998154 -0.12465868 -2.8643655e-22)
(94.989369 -0.1323822 0)
(94.980031 -0.13837993 1.0291386e-17)
(94.970357 -0.14332546 0)
(94.960514 -0.14685482 0)
(94.95059 -0.14948945 0)
(94.940689 -0.15137568 0)
(94.930844 -0.15277626 9.6530889e-18)
(94.921195 -0.15421684 1.9033405e-17)
(94.912018 -0.15598152 0)
(94.903352 -0.15878034 0)
(94.895073 -0.1618263 -9.0898834e-18)
(94.887077 -0.16580663 0)
(94.879288 -0.17063312 -8.7896722e-18)
(94.871532 -0.175766 8.6327556e-18)
(94.863628 -0.18193698 -1.6947004e-17)
(94.85547 -0.18864723 3.3241109e-17)
(94.846994 -0.19656974 0)
(94.838064 -0.20528691 -3.188795e-17)
(94.828501 -0.2139282 1.5593556e-17)
(94.818156 -0.22258917 -1.5236453e-17)
(94.806741 -0.23041068 1.4868835e-17)
(94.794307 -0.23839911 2.8999272e-17)
(94.781254 -0.24707717 -6.8160211e-22)
(94.767801 -0.25585109 -2.7471684e-17)
(94.754111 -0.26449656 1.3346399e-17)
(94.740257 -0.27420672 0)
(94.726102 -0.28350228 1.2554228e-17)
(94.711932 -0.29360369 0)
(94.698344 -0.30568878 2.3496779e-17)
(94.685123 -0.31432232 2.2683955e-17)
(94.673121 -0.32377473 -1.0936795e-17)
(94.663992 -0.34443864 2.0537314e-22)
(94.653834 -0.36263927 3.0383279e-17)
(94.639048 -0.3049635 -1.9364328e-17)
(94.635793 -0.49776835 1.1778318e-21)
(94.627876 -0.18672238 4.4540164e-18)
(94.597497 -0.6355662 6.3905517e-17)
(94.631282 -0.04777033 -6.504783e-17)
(94.54944 -0.76052241 0)
(95.073801 0.013867264 0)
(95.070084 -0.036164273 2.8141175e-18)
(95.066764 -0.033839278 8.3630538e-18)
(95.063314 -0.053650663 0)
(95.059827 -0.068051655 1.093806e-17)
(95.056019 -0.083472469 -5.4148308e-18)
(95.051687 -0.097887195 5.3126701e-23)
(95.046879 -0.11174008 -5.3050753e-18)
(95.04144 -0.12356649 0)
(95.035289 -0.13330941 0)
(95.028406 -0.14179175 2.0536665e-17)
(95.020779 -0.14873733 -2.030119e-17)
(95.012542 -0.15424339 -1.0030784e-17)
(95.003876 -0.15834809 -9.9090459e-18)
(94.994909 -0.1610774 9.7850628e-18)
(94.9857 -0.1624639 9.6586331e-18)
(94.976386 -0.16367083 -9.5305244e-18)
(94.967194 -0.16382615 9.3980343e-18)
(94.958285 -0.1644212 9.2644424e-18)
(94.949691 -0.1657324 -4.5632321e-17)
(94.941334 -0.16763215 1.7972287e-17)
(94.933165 -0.1704291 2.1416882e-22)
(94.924992 -0.17385385 2.6084555e-17)
(94.916675 -0.17908993 -3.4176717e-17)
(94.908196 -0.18517393 3.3559455e-17)
(94.899471 -0.19285775 -1.6463725e-17)
(94.890426 -0.2017673 -8.0697418e-18)
(94.88104 -0.21210188 0)
(94.871075 -0.22256883 1.5471406e-17)
(94.860239 -0.23332961 0)
(94.848319 -0.24433193 -1.6404436e-21)
(94.835111 -0.25427606 0)
(94.820809 -0.26423461 -1.4049551e-17)
(94.805694 -0.27479717 1.3677241e-17)
(94.789787 -0.28542522 -6.0274052e-22)
(94.773271 -0.29679952 3.8744563e-17)
(94.756077 -0.3077042 -1.2526396e-17)
(94.738219 -0.31795983 0)
(94.720467 -0.33054895 -1.1738625e-17)
(94.703038 -0.34090535 -1.2336479e-22)
(94.686196 -0.34881488 0)
(94.672698 -0.36727765 1.0544705e-17)
(94.661291 -0.39393644 -1.0143888e-17)
(94.641675 -0.31878142 0)
(94.629594 -0.5366925 -1.870045e-17)
(94.60119 -0.21882373 1.7977132e-17)
(94.563647 -0.67175357 -1.2904939e-17)
(94.592433 -0.075969916 -2.0516446e-18)
(94.565852 -0.73393354 -1.9629919e-18)
(95.103819 0.013984287 0)
(95.099977 -0.035920822 8.3201657e-18)
(95.096695 -0.033887811 -8.2426023e-18)
(95.093513 -0.054327747 0)
(95.090519 -0.069021954 5.3901947e-18)
(95.087558 -0.084628599 1.0674791e-17)
(95.084323 -0.098321906 4.6338169e-23)
(95.080862 -0.11153492 -5.2299238e-18)
(95.077126 -0.12406648 1.0350533e-17)
(95.072941 -0.13553181 1.0240074e-17)
(95.068209 -0.14547645 -2.0255614e-17)
(95.062786 -0.15323877 3.0116286e-22)
(95.056653 -0.15912972 9.8975648e-18)
(95.049835 -0.16328921 9.779366e-18)
(95.042352 -0.16621919 -1.9317175e-17)
(95.034224 -0.167665 9.5353e-18)
(95.025691 -0.16853871 -1.882119e-17)
(95.016967 -0.16889468 0)
(95.008108 -0.16989334 9.153411e-18)
(94.999196 -0.17093823 9.020482e-18)
(94.990177 -0.17305147 -2.6652493e-17)
(94.981079 -0.17642434 3.4980509e-17)
(94.971824 -0.18051282 -1.7206936e-17)
(94.962235 -0.18509615 8.4577978e-18)
(94.952339 -0.19195772 0)
(94.942205 -0.20052576 -1.6311332e-17)
(94.931757 -0.21074878 7.9998987e-18)
(94.920946 -0.22255388 3.135986e-17)
(94.909618 -0.23532474 -3.0707605e-17)
(94.897401 -0.24813058 0)
(94.884069 -0.26137487 -2.935803e-17)
(94.869446 -0.27438553 1.4331039e-17)
(94.853492 -0.28723356 -1.3976015e-17)
(94.836454 -0.29967121 1.3614448e-17)
(94.818583 -0.31215035 -4.3616188e-23)
(94.800274 -0.32456267 -1.2875381e-17)
(94.781593 -0.33696441 1.2498012e-17)
(94.762197 -0.34762946 -1.2115304e-17)
(94.742605 -0.35899081 9.715229e-23)
(94.723307 -0.37028824 -2.2681902e-17)
(94.703583 -0.37660078 -1.094894e-17)
(94.68553 -0.38841617 1.0558662e-17)
(94.672631 -0.42541256 -1.0171756e-17)
(94.654378 -0.32998189 -9.775402e-18)
(94.635232 -0.55938525 -9.3801e-18)
(94.600091 -0.23720712 -1.353404e-17)
(94.562861 -0.71305098 -1.7288874e-17)
(94.52757 -0.14831684 3.722974e-17)
(94.57367 -0.87149918 -3.1562968e-17)
(95.139237 0.014816801 1.3798805e-18)
(95.135085 -0.034794331 -1.2303471e-17)
(95.131559 -0.032224154 -1.0832715e-17)
(95.128317 -0.052523498 -5.3650212e-18)
(95.125297 -0.06611327 5.3131711e-18)
(95.1225 -0.081609053 1.0521992e-17)
(95.119709 -0.096467216 -5.2083955e-18)
(95.116939 -0.11078363 -5.155988e-18)
(95.114186 -0.12333865 -1.0205833e-17)
(95.111208 -0.13446506 1.0097702e-17)
(95.107862 -0.14448273 -9.9887931e-18)
(95.103997 -0.15302271 9.8782975e-18)
(95.099565 -0.16102352 -9.7657783e-18)
(95.094413 -0.16657807 -9.6512317e-18)
(95.088375 -0.17103272 1.0193723e-22)
(95.081392 -0.1738102 3.7663007e-17)
(95.073586 -0.17557347 -1.8588819e-17)
(95.065144 -0.17779506 0)
(95.055971 -0.17906906 9.0446932e-18)
(95.046179 -0.18177941 0)
(95.035934 -0.18500872 2.635296e-17)
(95.025121 -0.18875035 -1.7299453e-17)
(95.013891 -0.19474302 -2.5536295e-17)
(95.002355 -0.20212563 1.6742062e-17)
(94.990472 -0.21035705 -1.6453501e-17)
(94.978347 -0.22023747 1.6158231e-17)
(94.966013 -0.23202064 -7.9280709e-18)
(94.95338 -0.24553739 0)
(94.940398 -0.26109556 -7.6158015e-18)
(94.926757 -0.27688173 0)
(94.912183 -0.29288032 1.4578999e-17)
(94.896575 -0.30869293 0)
(94.879766 -0.32347171 -1.3898209e-17)
(94.861844 -0.33765742 0)
(94.843174 -0.35043675 1.3192268e-17)
(94.824214 -0.36244132 -2.5661297e-17)
(94.805233 -0.37424225 4.7994105e-22)
(94.785811 -0.38395592 5.2640098e-23)
(94.766065 -0.39323518 3.5164211e-17)
(94.746648 -0.40523493 -1.1344744e-17)
(94.726615 -0.4154977 1.0964281e-17)
(94.705456 -0.42230715 -3.1744156e-17)
(94.688366 -0.45340228 -3.0610807e-17)
(94.672268 -0.38571378 9.8267896e-18)
(94.64695 -0.55457851 0)
(94.621387 -0.27951707 0)
(94.60456 -0.71456878 4.3404405e-18)
(94.501417 -0.16081364 -2.0809511e-17)
(94.558314 -0.93441982 3.1825002e-17)
(95.180446 0.015385743 -1.3606e-18)
(95.175998 -0.034086565 -1.3478926e-18)
(95.172067 -0.031013914 2.1362002e-17)
(95.16852 -0.051412078 -7.9338005e-18)
(95.165161 -0.064956255 -1.0476387e-17)
(95.162053 -0.079903706 -5.1875595e-18)
(95.159057 -0.093698736 -5.1353883e-18)
(95.156061 -0.10717719 1.0167728e-17)
(95.153136 -0.12055534 -1.0063414e-17)
(95.150072 -0.13209716 -9.9589993e-18)
(95.146675 -0.14283762 -9.8525358e-18)
(95.142793 -0.1523095 1.9490669e-17)
(95.13827 -0.15992845 -9.6363071e-18)
(95.133038 -0.16692117 0)
(95.126985 -0.17301454 -9.4129851e-18)
(95.119997 -0.17813847 9.2979418e-18)
(95.112028 -0.18175879 9.6662458e-24)
(95.103309 -0.18689943 1.8121359e-17)
(95.093681 -0.19038106 -2.6814847e-17)
(95.083082 -0.19480298 -8.8126052e-18)
(95.071954 -0.20098695 8.6847892e-18)
(95.060184 -0.20707028 0)
(95.047816 -0.21430123 0)
(95.035179 -0.2225759 -8.2827812e-18)
(95.02224 -0.23179973 1.6285852e-17)
(95.009002 -0.24315402 -1.5999502e-17)
(94.995588 -0.25614267 7.8537268e-18)
(94.981979 -0.27107446 0)
(94.968114 -0.28665649 1.9664055e-22)
(94.953785 -0.30360831 0)
(94.938837 -0.32125845 1.4473342e-17)
(94.923145 -0.33864354 0)
(94.906579 -0.35558394 0)
(94.889052 -0.37067135 2.6959889e-17)
(94.870696 -0.3843916 -2.6273098e-17)
(94.851846 -0.39660402 2.5575912e-17)
(94.832854 -0.40740122 -1.2435165e-17)
(94.813601 -0.41683477 -3.6738888e-22)
(94.793798 -0.4242379 -1.1715619e-17)
(94.774118 -0.43315867 -1.1350985e-17)
(94.754674 -0.44604093 1.0888266e-22)
(94.733375 -0.45486744 2.122196e-17)
(94.711671 -0.47289524 2.0477968e-17)
(94.692839 -0.43357116 0)
(94.666092 -0.56482067 0)
(94.653584 -0.3316321 0)
(94.679852 -0.76325684 -4.3824279e-18)
(94.533093 -0.13811478 2.0949862e-17)
(94.541322 -1.0795211 1.6061e-17)
(95.225708 0.016590282 0)
(95.221125 -0.03335921 5.3164124e-18)
(95.216853 -0.029611824 -1.0533606e-17)
(95.21288 -0.049848553 1.0433048e-17)
(95.208924 -0.062763743 1.5497885e-17)
(95.205003 -0.077344873 5.1155242e-18)
(95.201118 -0.091770336 -1.5194719e-17)
(95.197067 -0.10559764 1.0027961e-17)
(95.192693 -0.11881516 9.9262058e-18)
(95.187827 -0.13172026 9.8229931e-18)
(95.182373 -0.14391541 9.7192669e-18)
(95.176495 -0.15501958 1.0342109e-22)
(95.170113 -0.16552424 -9.5074967e-18)
(95.163184 -0.17512212 0)
(95.15568 -0.18270124 9.2890222e-18)
(95.147599 -0.18996699 -1.8354337e-17)
(95.13891 -0.19620431 9.0627013e-18)
(95.129782 -0.20241842 0)