/*--------------------------------*- C++ -*----------------------------------*\
| =========                 |                                                 |
| \\      /  F ield         | OpenFOAM: The Open Source CFD Toolbox           |
|  \\    /   O peration     | Version:  2506                                  |
|   \\  /    A nd           | Website:  www.openfoam.com                      |
|    \\/     M anipulation  |                                                 |
\*---------------------------------------------------------------------------*/
FoamFile
{
    version     2.0;
    format      ascii;
    arch        "LSB;label=32;scalar=64";
    class       volScalarField;
    location    "0.3";
    object      nut;
}
// * * * * * * * * * * * * * * * * * * * * * * * * * * * * * * * * * * * * * //

dimensions      [0 2 -1 0 0 0 0];

internalField   nonuniform List<scalar> 
1375
(
0.029895311
0.029467498
0.028888823
0.028261901
0.0276594
0.02715602
0.026716225
0.026280816
0.02581887
0.032282625
0.032105628
0.031584324
0.031009871
0.03045644
0.030018599
0.029636732
0.029239329
0.02879198
0.028286753
0.036513224
0.036561354
0.03600672
0.035411377
0.034806828
0.034300148
0.033823551
0.033311262
0.032718646
0.032012385
0.042357636
0.042734479
0.042158192
0.041648611
0.041105871
0.040650805
0.040218051
0.039762082
0.039229716
0.038563026
0.050695587
0.051803778
0.051370058
0.051291143
0.051140447
0.05106638
0.051019619
0.050981932
0.050878815
0.050623101
0.062116336
0.064330172
0.064106421
0.064655565
0.06502267
0.065403648
0.065805323
0.066251385
0.066617614
0.066766159
0.076048989
0.079019854
0.079265313
0.080347024
0.081089301
0.081731786
0.082405731
0.083186528
0.083875786
0.08426514
0.091252351
0.094721099
0.09533984
0.096780891
0.097685843
0.098372089
0.099145784
0.10012426
0.10102502
0.10155919
0.10671763
0.11042381
0.11128337
0.11292317
0.11383294
0.11443806
0.11523078
0.11634301
0.11741478
0.11807078
0.12176572
0.12549761
0.12648737
0.12819396
0.1290255
0.12952572
0.13033404
0.1315618
0.13279445
0.13357408
0.13594731
0.13953843
0.1405694
0.14223362
0.14296383
0.14340196
0.14425034
0.14557207
0.14693139
0.14781532
0.14893454
0.15224445
0.15322856
0.15476423
0.15540521
0.15583863
0.15672819
0.15808216
0.15947627
0.16038362
0.16051965
0.1604182
0.1633274
0.16419343
0.16553593
0.16610568
0.16655912
0.16744526
0.16873456
0.1700376
0.17085458
0.17082745
0.17011922
0.17249217
0.17323297
0.17433728
0.17483927
0.17529276
0.17610184
0.17722451
0.1783258
0.17898127
0.17889622
0.17782559
0.17959899
0.18020804
0.18105246
0.1814746
0.18188756
0.18255771
0.18344685
0.18429452
0.18479471
0.18477803
0.18341933
0.18468195
0.18513692
0.18573248
0.1860665
0.18641172
0.18692331
0.18757054
0.1881785
0.18856669
0.18866654
0.1870518
0.18789922
0.18822439
0.18861985
0.18887706
0.18915569
0.1895306
0.18997552
0.19039167
0.19069596
0.19087236
0.18904952
0.18958298
0.18982671
0.19009044
0.19029574
0.19052453
0.19080091
0.19110044
0.19137722
0.19160755
0.19179647
0.18984375
0.19016411
0.1903665
0.19055685
0.19072991
0.19092196
0.19113247
0.1913395
0.19152626
0.19169746
0.19186537
0.18987157
0.19006413
0.19024499
0.19039699
0.19054744
0.19071081
0.19088015
0.19103732
0.19117697
0.1913126
0.19145836
0.18949673
0.18962473
0.18979109
0.18992309
0.19005808
0.19020284
0.1903518
0.19048963
0.19061249
0.19073324
0.19086582
0.18897973
0.18908605
0.18924273
0.18936665
0.18949451
0.18963135
0.18977384
0.18990851
0.19002985
0.190147
0.19027242
0.18847767
0.18858691
0.18873986
0.18886547
0.18899447
0.18913053
0.18927127
0.18940595
0.18952899
0.18964599
0.18976645
0.18806147
0.18818285
0.18833683
0.1884706
0.18860644
0.18874546
0.18888484
0.18901732
0.18913987
0.18925665
0.189374
0.18774746
0.18788085
0.18803707
0.1881796
0.18832265
0.18846496
0.18860317
0.18873294
0.18885403
0.18897025
0.18908552
0.18752537
0.18766709
0.18782429
0.18797223
0.18811892
0.1882619
0.18839827
0.18852624
0.18864728
0.18876433
0.18887889
0.18899004
0.1873749
0.18752194
0.18767955
0.18782982
0.18797633
0.18811673
0.18824985
0.1883761
0.18849755
0.18861571
0.18873027
0.18883985
0.18727658
0.18743017
0.18758753
0.18773804
0.18788208
0.18801839
0.18814794
0.18827247
0.1883935
0.18851117
0.18862466
0.188733
0.18721867
0.18737204
0.18752638
0.18767342
0.18781391
0.18794783
0.18807681
0.1882018
0.18832304
0.18843969
0.18855129
0.18865786
0.18718129
0.18733328
0.18748334
0.18762678
0.18776462
0.18789789
0.1880273
0.18815278
0.18827401
0.18839028
0.18850143
0.18860763
0.18716054
0.18731106
0.18745776
0.18759869
0.18773468
0.1878669
0.18799518
0.18811945
0.18823921
0.18835405
0.18846377
0.18856837
0.18715461
0.18730298
0.18744656
0.187585
0.18771904
0.18784862
0.18797427
0.1880959
0.18821282
0.18832488
0.18843234
0.18853583
0.18863582
0.18715465
0.18729995
0.18744057
0.18757698
0.18770936
0.18783713
0.18796078
0.18808017
0.18819485
0.18830481
0.18841004
0.18851185
0.18861063
0.18716131
0.18730403
0.187442
0.18757601
0.18770593
0.18783152
0.18795234
0.18806874
0.18818062
0.18828845
0.18839261
0.18849338
0.18859058
0.18717625
0.18731603
0.18745098
0.18758194
0.18770866
0.18783157
0.18795006
0.18806381
0.18817276
0.18827781
0.18837998
0.18847862
0.18857387
0.18866548
0.18719683
0.18733333
0.18746533
0.1875931
0.18771593
0.18783447
0.18794899
0.18805961
0.1881663
0.18826929
0.18836904
0.18846513
0.18855829
0.18864779
0.18722331
0.18735632
0.18748456
0.18760853
0.18772758
0.18784226
0.18795294
0.18805992
0.18816359
0.18826441
0.18836187
0.18845563
0.18854626
0.18863391
0.1872555
0.18738425
0.18750801
0.18762785
0.18774328
0.18785432
0.18796121
0.18806508
0.18816653
0.18826514
0.1883596
0.18845067
0.18853874
0.18862402
0.18870689
0.18729327
0.1874182
0.18753759
0.18765319
0.18776482
0.18787238
0.18797593
0.18807605
0.18817323
0.18826745
0.18835871
0.18844785
0.1885347
0.18861917
0.18870105
0.18734043
0.18746127
0.18757624
0.18768741
0.18779448
0.18789754
0.18799694
0.18809329
0.18818703
0.18827827
0.18836731
0.18845419
0.188539
0.18862138
0.18870174
0.18878037
0.1873979
0.18751455
0.18762516
0.18773186
0.1878345
0.1879334
0.18802892
0.18812145
0.1882113
0.18829895
0.18838498
0.1884695
0.18855211
0.18863292
0.18871223
0.18878994
0.18886593
0.18746969
0.18758201
0.18768799
0.18778984
0.18788755
0.18798195
0.18807346
0.1881624
0.18824915
0.18833402
0.18841724
0.18849902
0.18857928
0.18865831
0.18873595
0.18881223
0.18888697
0.18755757
0.18766506
0.1877665
0.18786429
0.18795811
0.18804859
0.18813632
0.18822198
0.18830594
0.18838833
0.18846929
0.18854889
0.1886271
0.18870403
0.18877969
0.18885403
0.18892706
0.18899876
0.18766881
0.18777058
0.18786669
0.18796016
0.18805065
0.1881385
0.18822394
0.1883074
0.18838932
0.18846997
0.18854943
0.18862761
0.18870453
0.1887801
0.18885425
0.18892695
0.18899821
0.18906807
0.18913648
0.18780861
0.18790509
0.18799636
0.18808592
0.18817361
0.18825965
0.18834413
0.18842724
0.18850914
0.18858988
0.18866947
0.18874777
0.18882468
0.18889993
0.18897353
0.1890455
0.18911585
0.18918458
0.18925172
0.18931731
0.18799912
0.18809307
0.18818228
0.18827004
0.18835607
0.18844083
0.1885246
0.18860763
0.18868999
0.18877157
0.18885215
0.18893161
0.18900965
0.1890857
0.18915981
0.18923198
0.18930208
0.18937013
0.18943633
0.18950087
0.18956383
0.18962537
0.18828609
0.18837921
0.1884687
0.18855788
0.18864528
0.18873105
0.18881519
0.18889839
0.18898095
0.18906258
0.18914316
0.18922246
0.18930037
0.18937684
0.18945198
0.18952543
0.18959674
0.18966551
0.18973195
0.18979629
0.18985885
0.18991988
0.18997967
0.18876872
0.18885864
0.1889486
0.18904116
0.1891293
0.18921361
0.18929847
0.18937851
0.18945998
0.18954061
0.1896187
0.18969841
0.18977557
0.18985112
0.18992827
0.19000072
0.19007453
0.19014789
0.19021943
0.19028629
0.19034884
0.19040737
0.19046638
0.19052555
0.19058565
0.18825598
0.18844965
0.18857864
0.18871766
0.18884903
0.18897651
0.18909946
0.18921989
0.18933759
0.18945152
0.18956282
0.189672
0.18977526
0.18987999
0.18997893
0.19007642
0.19017532
0.19027347
0.19036666
0.1904547
0.19054156
0.19063151
0.19072356
0.1908116
0.19089447
0.19096876
0.19104573
0.030529449
0.033061658
0.03761678
0.043995514
0.052974304
0.064965586
0.079348512
0.094795636
0.11031904
0.12529159
0.13929081
0.15196459
0.16299636
0.17221675
0.17927748
0.18425829
0.18739041
0.18904367
0.18964005
0.1895794
0.18918481
0.18868351
0.18821054
0.18782568
0.18753987
0.18733907
0.18720114
0.18712043
0.18706403
0.18703271
0.18701701
0.18701489
0.18701929
0.18703034
0.18704918
0.18707346
0.18710335
0.1871394
0.18718138
0.18723211
0.18729349
0.18736932
0.18746161
0.18757767
0.18772231
0.18791621
0.18820683
0.18868151
0.18810692
0.031367745
0.034166656
0.039184194
0.04623765
0.055998187
0.068681726
0.083513781
0.099192646
0.11476227
0.12961538
0.14332016
0.15550613
0.16591591
0.17442453
0.18073419
0.18505929
0.18768965
0.18901311
0.18942705
0.1892882
0.18887915
0.18839652
0.18795532
0.18760406
0.18734692
0.18716573
0.18704434
0.18697859
0.18692281
0.1868976
0.18688649
0.18688797
0.18689662
0.18691177
0.18693419
0.18696203
0.18699526
0.18703437
0.18707978
0.18713381
0.18719848
0.1872774
0.18737325
0.18749289
0.18764172
0.18783908
0.18813295
0.1885962
0.187966
0.032390421
0.035560737
0.041140758
0.048912885
0.059424301
0.072714232
0.087897945
0.10371602
0.11922617
0.13382045
0.14706905
0.15864085
0.16837962
0.17616538
0.18182597
0.1856251
0.18786683
0.18893407
0.18920355
0.18900227
0.18858398
0.18812142
0.18771205
0.18739293
0.1871607
0.18699562
0.18689781
0.18683555
0.18678431
0.18676442
0.18675771
0.18676283
0.18677547
0.18679451
0.18682041
0.18685185
0.18688853
0.18693073
0.18697978
0.18703712
0.18710477
0.18718633
0.18728547
0.18740838
0.18756114
0.18776282
0.18805991
0.18851167
0.18781722
0.033443492
0.037040526
0.043220678
0.051688372
0.062862596
0.076631369
0.092032685
0.1078409
0.1231395
0.13734253
0.15005873
0.16102633
0.17017397
0.17736728
0.18254514
0.18597216
0.18794069
0.18882097
0.18897977
0.18872978
0.18830675
0.18786482
0.18748552
0.18719421
0.18698113
0.18683513
0.18675687
0.18669217
0.18664819
0.18663306
0.18663077
0.18663961
0.18665594
0.18667855
0.18670782
0.18674291
0.18678324
0.18682874
0.18688149
0.18694211
0.18701265
0.18709653
0.18719847
0.18732433
0.187481
0.18768737
0.18798748
0.18842767
0.18765774
0.03437853
0.038400786
0.045167692
0.05428969
0.066055905
0.080204952
0.095711936
0.11139671
0.1263986
0.1401808
0.15240482
0.16286583
0.17154044
0.17827771
0.1830836
0.18621807
0.18796694
0.18869331
0.18875982
0.18847059
0.18804685
0.18762585
0.18727387
0.18700494
0.1868072
0.18668645
0.18661472
0.18655124
0.18651418
0.18650345
0.18650543
0.18651806
0.18653801
0.18656412
0.18659673
0.18663541
0.18667937
0.18672851
0.18678513
0.18684915
0.18692248
0.18700861
0.18711289
0.18724149
0.18740162
0.18761201
0.18791455
0.18834301
0.18749825
0.035144372
0.039544467
0.04684941
0.056580406
0.068898123
0.083390935
0.098979814
0.11453708
0.12926957
0.14269408
0.15451513
0.16456179
0.17283571
0.17917095
0.18362192
0.18646054
0.18798576
0.18856134
0.1885431
0.18822193
0.18780167
0.18740184
0.18707367
0.18682216
0.18664373
0.18654845
0.18647274
0.18641576
0.18638505
0.18637836
0.18638411
0.18640022
0.18642339
0.18645261
0.1864882
0.18653016
0.18657767
0.18663059
0.18669087
0.18675832
0.18683464
0.18692318
0.18702963
0.18716045
0.18732297
0.18753634
0.18784066
0.18825958
0.18733492
0.035805224
0.040525358
0.048318368
0.058625573
0.071485003
0.086341341
0.10206386
0.11756647
0.1321122
0.14525921
0.15673958
0.16640256
0.17427429
0.18017231
0.1842222
0.18672354
0.18800206
0.18842268
0.18832567
0.18797999
0.18756739
0.18718858
0.18688067
0.18664524
0.18649484
0.18641167
0.18633545
0.1862871
0.18626292
0.18626025
0.18626935
0.18628852
0.18631452
0.18634637
0.18638432
0.18642888
0.18647931
0.18653555
0.1865991
0.18666986
0.18674938
0.18684072
0.18694931
0.18708147
0.18724521
0.18746019
0.18776641
0.18817597
0.1871615
0.036474757
0.041486927
0.049750931
0.060626002
0.074030102
0.089275706
0.10518377
0.12069453
0.1351091
0.14801241
0.15915452
0.16840425
0.17582752
0.18122416
0.18482808
0.18696817
0.18799487
0.18826731
0.18810191
0.18773986
0.18733855
0.18697974
0.18668894
0.18647295
0.18635499
0.18627079
0.1862008
0.18616165
0.18614453
0.18614603
0.18615834
0.18618053
0.18620953
0.18624428
0.1862849
0.18633194
0.1863848
0.18644375
0.18651008
0.18658401
0.1866668
0.18676117
0.18687182
0.1870047
0.18716867
0.18738429
0.18769218
0.18809029
0.18698802
0.037223904
0.042534517
0.051279882
0.062719413
0.076649694
0.092267969
0.108358
0.12387866
0.13815623
0.15079429
0.16156104
0.17035404
0.17729715
0.18217302
0.1853393
0.1871418
0.1879431
0.18808931
0.18787056
0.1875004
0.18711284
0.18677228
0.18649809
0.18631153
0.18621469
0.1861267
0.18606751
0.18603759
0.18602792
0.18603384
0.18604942
0.18607454
0.18610638
0.1861439
0.18618721
0.18623671
0.18629228
0.1863543
0.18642351
0.18650066
0.18658666
0.186684
0.18679667
0.18693005
0.18709366
0.18730916
0.18761742
0.18800384
0.18681252
0.038044136
0.04366923
0.052905491
0.064887473
0.07928986
0.095214871
0.11142583
0.12690133
0.14099088
0.15331919
0.16367967
0.17200799
0.17849234
0.18289861
0.18569119
0.1872173
0.18783959
0.18788912
0.18763325
0.18726223
0.18688982
0.18656622
0.18631122
0.18616057
0.18606902
0.18598349
0.18593507
0.1859139
0.18591151
0.18592198
0.18594099
0.18596917
0.18600413
0.18604473
0.18609093
0.18614307
0.18620111
0.18626585
0.18633831
0.18641903
0.18650834
0.18660856
0.18672333
0.18685725
0.18701992
0.1872346
0.1875427
0.18791911
0.18663071
0.038872384
0.044814621
0.054534834
0.067018784
0.081819982
0.097963665
0.11420819
0.12956264
0.14340879
0.15540025
0.1653613
0.17326565
0.17935618
0.18338436
0.18588728
0.18720502
0.18769478
0.1876749
0.18739558
0.18702864
0.18667086
0.18636329
0.18613617
0.18601717
0.18592025
0.18584334
0.18580436
0.18579101
0.18579516
0.18581011
0.18583268
0.18586397
0.18590206
0.18594585
0.18599505
0.18605001
0.18611078
0.18617839
0.18625386
0.18633777
0.18643057
0.18653395
0.18665122
0.18678594
0.18694799
0.18716174
0.18746889
0.18783402
0.18644775
0.039644055
0.045891233
0.056076108
0.069021092
0.084158851
0.10044783
0.1166553
0.13183317
0.14540729
0.15706546
0.16666241
0.17420577
0.17996553
0.18369947
0.18597824
0.18713664
0.18752625
0.18745575
0.18716211
0.18680169
0.18645746
0.18616834
0.18597747
0.18587457
0.18577329
0.18570766
0.18567628
0.18566915
0.18567851
0.1856977
0.18572416
0.18575883
0.18580016
0.18584712
0.18589946
0.18595726
0.18602077
0.18609083
0.186169
0.18625604
0.18635258
0.1864597
0.1865799
0.18671607
0.18687817
0.18709069
0.1873955
0.18774768
0.18624365
0.13387175
0.14717444
0.15851534
0.16777768
0.17500068
0.18046212
0.18394114
0.18602409
0.1870444
0.18734905
0.1872378
0.18693478
0.18658149
0.18625021
0.18598343
0.18583167
0.18572913
0.18563083
0.18557584
0.18555092
0.18554872
0.18556223
0.18558524
0.18561542
0.18565348
0.18569802
0.18574819
0.18580369
0.18586446
0.18593079
0.18600339
0.18608389
0.18617377
0.18627372
0.18638491
0.18650871
0.18664723
0.18680982
0.18702099
0.18732192
0.18765809
0.18603645
0.18636416
0.18604631
0.18581175
0.18569018
0.1855795
0.18549165
0.18544613
0.18542705
0.18542891
0.18544583
0.18547244
0.18550638
0.18554763
0.18559517
0.18564851
0.18570731
0.18577124
0.18584051
0.18591581
0.18599863
0.18609094
0.18619385
0.18630893
0.18643683
0.18657876
0.18674264
0.1869525
0.18724773
0.18756562
0.18582196
0.18530813
0.18532853
0.1853587
0.18539633
0.18544081
0.18549122
0.18554746
0.18560953
0.185677
0.18574952
0.18582774
0.18591299
0.18600762
0.1861132
0.18623175
0.1863637
0.18650962
0.18667579
0.18688436
0.18717329
0.18747295
0.18560418
0.18550991
0.18558103
0.18565718
0.18573864
0.18582698
0.18592397
0.1860318
0.18615327
0.18628894
0.18643888
0.186608
0.18681631
0.18710052
0.18738187
0.1853801
0.18573984
0.18583967
0.18595001
0.18607361
0.18621219
0.18636618
0.18653871
0.18674851
0.18703042
0.18729156
0.18515304
0.18599255
0.18613347
0.1862913
0.18646817
0.18668136
0.18696216
0.18720107
0.1849261
0.18639612
0.18661431
0.1868943
0.18711082
0.1846923
0.18682519
0.18701884
0.18444365
0.18418623
)
;

boundaryField
{
    Side
    {
        type            empty;
    }
    Inlet
    {
        type            calculated;
        value           nonuniform List<scalar> 
48
(
0.19980791
0.19983093
0.19986546
0.19987259
0.19986234
0.19987669
0.19990763
0.19994449
0.19996537
0.19997372
0.1999957
0.20001586
0.20000991
0.19998971
0.19999986
0.20003637
0.20005126
0.20004914
0.20004343
0.20006651
0.20009867
0.20008792
0.20006646
0.20006174
0.20010411
0.20010863
0.20009913
0.19981181
0.19979273
0.19978127
0.1997838
0.19975125
0.19973087
0.1997388
0.19972623
0.19971002
0.19969784
0.199674
0.19966529
0.19967535
0.19966661
0.19964311
0.19962681
0.19960328
0.19954538
0.19953363
0.19957375
0.1995682
)
;
    }
    Airfoil
    {
        type            nutkWallFunction;
        blending        stepwise;
        value           nonuniform List<scalar> 0();
    }
    Outlet
    {
        type            calculated;
        value           nonuniform List<scalar> 0();
    }
    procBoundary3to2
    {
        type            processor;
        value           nonuniform List<scalar> 
65
(
0.027750572
0.031233844
0.037835819
0.050329007
0.066871815
0.084597498
0.1020085
0.11856164
0.13401969
0.14813112
0.14813112
0.16034878
0.17026073
0.17826983
0.18438569
0.1885711
0.19096834
0.19196023
0.19203182
0.19161239
0.19100885
0.19040603
0.18989117
0.1894924
0.18919973
0.18919973
0.18909548
0.18894373
0.18883637
0.18876026
0.18870917
0.18866862
0.18866862
0.18873266
0.1887066
0.18868408
0.18868408
0.18875342
0.18873383
0.18871868
0.18871868
0.18878723
0.18878057
0.18878057
0.18885696
0.18885696
0.18893984
0.18895998
0.18895998
0.18906896
0.18906896
0.18920339
0.18920339
0.18938146
0.18938146
0.18944425
0.18968561
0.18968561
0.19003818
0.19003818
0.1900955
0.19064373
0.19064373
0.19070018
0.19111588
)
;
    }
    procBoundary3to4
    {
        type            processor;
        value           nonuniform List<scalar> 
57
(
0.046873902
0.057506858
0.070889169
0.086333934
0.10273757
0.11888253
0.11888253
0.13593069
0.14897025
0.15999581
0.16892095
0.17582117
0.18096669
0.18418427
0.18606572
0.18694707
0.18716959
0.18702141
0.18671105
0.18671105
0.18614671
0.18584655
0.185651
0.18554164
0.18542628
0.18535203
0.18531523
0.18530213
0.18530213
0.18518349
0.18520795
0.18524209
0.18528366
0.18533169
0.1853853
0.18544455
0.18544455
0.18540788
0.18548281
0.18556314
0.18564841
0.18564841
0.18565184
0.18575468
0.1858673
0.1858673
0.18591067
0.18605332
0.18621433
0.18621433
0.18632238
0.18654667
0.18654667
0.18675511
0.18692635
0.18692635
0.18392328
)
;
    }
    procBoundary3to10
    {
        type            processor;
        value           nonuniform List<scalar> 
23
(
0.029950078
0.029415347
0.028772731
0.028125592
0.027489139
0.026914535
0.026404035
0.025938051
0.025332562
0.025502039
0.025332562
0.030674799
0.03150909
0.03244208
0.033373721
0.034205751
0.03491618
0.035568029
0.036249661
0.037011834
0.037848578
0.038714708
0.039554353
)
;
    }
    procBoundary3to11
    {
        type            processor;
        value           uniform 0.040333542;
    }
}


// ************************************************************************* //
