/*--------------------------------*- C++ -*----------------------------------*\
| =========                 |                                                 |
| \\      /  F ield         | OpenFOAM: The Open Source CFD Toolbox           |
|  \\    /   O peration     | Version:  2506                                  |
|   \\  /    A nd           | Website:  www.openfoam.com                      |
|    \\/     M anipulation  |                                                 |
\*---------------------------------------------------------------------------*/
FoamFile
{
    version     2.0;
    format      ascii;
    arch        "LSB;label=32;scalar=64";
    class       volScalarField;
    location    "0.0135";
    object      Co;
}
// * * * * * * * * * * * * * * * * * * * * * * * * * * * * * * * * * * * * * //

dimensions      [0 0 0 0 0 0 0];

internalField   nonuniform List<scalar> 
13761
(
3.870677e-05
0.00011919236
0.0002064047
0.00030148606
0.00040406927
0.00051125237
0.00061756811
0.00071711066
0.00080672738
0.0008862019
0.00095677796
0.00102
0.0010772266
0.0011295565
0.0011778813
0.0012229012
0.001265171
0.0013051336
0.0013431428
0.0013794509
0.0014142811
0.0014478468
0.0014802903
0.001511744
0.0015423416
0.0015721669
0.0016013278
0.0016298994
0.0016579569
0.0016855711
0.0017128053
0.0017397103
0.00176634
0.0017927149
0.0018188551
0.001844781
0.0018704771
0.0018959221
0.0019210663
0.0019458439
0.0019701628
0.0019939366
3.9212163e-05
0.00012093429
0.00020964669
0.00030573458
0.00040869511
0.00051591766
0.00062195503
0.00072094737
0.00080979517
0.00088836307
0.00095795133
0.0010201566
0.001076364
0.0011277013
0.0011750734
0.0012191917
0.0012606118
0.0012997759
0.0013370308
0.0013726303
0.0014067976
0.0014397338
0.0014715807
0.001502468
0.0015325212
0.0015618279
0.0015904887
0.0016185787
0.0016461735
0.0016733416
0.0017001443
0.0017266342
0.0017528635
0.0017788583
0.0018046426
0.0018302351
0.0018556236
0.0018807861
0.0019056736
3.9247037e-05
0.0001212219
0.00021050555
0.00030748789
0.00041162623
0.00052024173
0.00062779972
0.00072835063
0.00081873651
0.00089877942
0.00096975859
0.0010332627
0.0010906808
0.0011431388
0.0011915456
0.0012366172
0.0012789175
0.0013188957
0.0013569106
0.0013932172
0.0014280424
0.0014616017
0.0014940407
0.0015254959
0.0015561045
0.0015859557
0.0016151633
0.0016438078
0.0016719704
0.0016997271
0.0017271452
0.0017542815
0.0017811965
0.0018079164
0.0018344669
0.0018608738
3.9429991e-05
0.00012127234
0.00021054107
0.00030830266
0.00041360997
0.00052369264
0.00063292034
0.00073523332
0.00082741633
0.0009092443
0.00098197391
0.0010471796
0.001106252
0.0011603068
0.0012102555
0.0012568124
0.0013005443
0.0013419091
0.0013812778
0.0014189007
0.0014550018
0.0014898101
0.0015234684
0.0015561179
0.0015879126
0.0016189377
0.0016493133
0.0016791187
0.0017084373
0.0017373483
0.0017659231
4.0014992e-05
0.00012288336
0.00021202119
0.0003093214
0.00041486631
0.00052527103
0.0006347681
0.00073727815
0.00082958798
0.00091149447
0.00098427984
0.0010495326
0.00110865
0.0011627572
0.001212768
0.0012594012
0.0013032234
0.0013446913
0.0013841734
0.0014219226
0.0014581649
0.001493125
0.0015269483
0.0015597744
3.9832417e-05
8.075223e-05
0.00024953928
0.0004335048
0.00063321807
0.00084650647
0.0010653507
0.0012760024
0.0014668695
0.0016342733
0.0017801439
0.0019082156
0.0020221097
0.002124726
0.0022182973
0.0023045768
0.0023849228
0.0024604001
0.0025318589
0.0025999741
0.0026652447
0.0027281127
0.0027889833
0.0028481441
0.002905857
0.0029623712
0.00301786
0.0030725202
0.0031264963
0.0031799305
0.0032329531
0.0032856794
0.0033382074
0.0033906343
0.0034430114
0.0034953897
0.0035478153
0.0036002799
0.0036527595
0.0037051789
0.0037574244
0.0038093253
0.0038606902
0.0039112903
0.0039609151
0.0040094286
0.0040567915
0.0041031575
0.0041489082
0.0041946797
0.0042413911
0.0042902754
0.0043429873
0.0044021052
0.0044742545
0.0045837769
0.0047987984
0.0048957787
0.0049091101
0.0049044707
0.0048978207
0.004891385
0.0048851512
0.0048785821
0.0048712836
0.004863517
0.0048560457
0.004849458
0.0048437208
0.0048381697
0.0048318373
0.0048243144
0.0048162779
7.9891922e-05
0.00024688106
0.00042888662
0.00062648672
0.00083757942
0.0010543333
0.0012632205
0.0014527117
0.0016190455
0.0017640537
0.0018914069
0.0020046849
0.0021067566
0.0021998378
0.0022856727
0.0023656084
0.0024407012
0.0025117947
0.0025795619
0.0026444966
0.0027070376
0.0027675897
0.002826435
0.0028838354
0.0029400406
0.0029952216
0.0030495752
0.0031032448
0.0031563711
0.0032090845
0.0032614997
0.0033137134
0.0033658219
0.0034178749
0.0034699225
0.0035220101
0.0035741273
0.0036262495
0.0036783004
0.003730164
0.0037816679
0.0038326204
0.0038827938
0.0039319794
0.0039800437
0.0040269473
0.0040728425
0.0041181076
0.0041633757
0.0042095676
0.0042579242
0.0043101193
0.0043687868
0.004440658
0.0045501647
0.0047703155
0.0048751698
0.004889282
0.0048828191
0.0048747144
0.0048673883
0.0048606079
0.004853654
0.0048460271
0.004838019
0.0048304144
0.0048237907
0.0048180643
0.0048125101
0.0048061451
0.0047986179
0.0047906656
0.0047833341
0.0047768462
0.0047703575
0.0047625748
0.0047531662
0.004743472
0.0047348202
0.004726533
0.0047167992
0.0047049265
7.9083274e-05
0.00024439747
0.00042460046
0.00062027126
0.00082936902
0.0010442336
0.0012515457
0.0014398324
0.0016052477
0.0017495221
0.0018762541
0.0019889803
0.0020905487
0.0021831617
0.002268551
0.0023480597
0.0024227418
0.0024934395
0.0025608226
0.0026253836
0.002687561
0.0027477571
0.0028062558
0.0028633175
0.0029191891
0.0029740411
0.0030280701
0.0030814195
0.00313423
0.0031866306
0.0032387369
0.0032906462
0.0033424559
0.0033942173
0.0034459815
0.0034977958
0.0035496526
0.0036015304
0.0036533562
0.0037050172
0.0037563431
0.003807144
0.0038571944
0.0039062877
0.0039542916
0.0040011663
0.0040470628
0.0040923553
0.0041376678
0.0041839091
0.0042323054
0.0042845045
0.0043430668
0.0044144739
0.0045222524
0.0047425494
0.0048538203
0.0048717288
0.0048660572
0.0048572573
0.0048488248
0.0048408683
0.0048328438
0.0048243094
0.0048155933
0.0048074494
0.0048004081
0.00479434
0.0047885097
0.0047819164
0.0047742058
0.0047661364
0.004758738
0.0047522151
0.0047456782
0.0047378497
0.0047284872
0.0047189747
0.0047105159
0.0047023889
0.0046928075
0.0046810635
0.0046688057
0.0046574484
0.0046453926
0.0046308566
0.0046150897
0.0045998335
7.8303108e-05
0.00024195817
0.000420306
0.0006139282
0.00082085118
0.0010335941
0.0012390493
0.0014258189
0.0015899884
0.0017332005
0.0018589963
0.0019708757
0.0020716628
0.0021635448
0.0022482439
0.0023270958
0.0024011491
0.0024712395
0.0025380322
0.0026020198
0.002663637
0.0027232824
0.0027812384
0.0028377628
0.0028931007
0.0029474224
0.0030009211
0.0030537387
0.0031060152
0.0031578786
0.0032094427
0.0032608032
0.0033120556
0.0033632503
0.0034144372
0.0034656616
0.0035169151
0.0035681739
0.0036193654
0.0036703779
0.0037210438
0.0037711762
0.0038205532
0.0038689734
0.003916309
0.0039625251
0.0040077745
0.0040524294
0.0040971067
0.0041426994
0.0041904058
0.004241827
0.004299442
0.0043696017
0.0044754918
0.0046948926
0.004808504
0.0048279833
0.0048248743
0.0048188095
0.0048128467
0.0048070519
0.0048008396
0.0047938005
0.0047863124
0.0047791705
0.0047729281
0.0047674958
0.0047621687
0.0047559895
0.00474866
0.0047409716
0.0047339215
0.0047276897
0.0047213323
0.0047135726
0.004704262
0.0046948642
0.0046865605
0.0046785279
0.0046690072
0.0046574056
0.0046454355
0.0046343518
0.0046224045
0.0046079813
0.0045924966
0.0045775813
0.0045619289
0.0045433256
0.0045234224
0.004503972
7.7488989e-05
0.00023945285
0.00041597405
0.00060764357
0.00081255177
0.0010233852
0.0012272355
0.0014127612
0.001575974
0.0017184227
0.0018435844
0.0019549177
0.002055221
0.0021466668
0.0022309663
0.0023094486
0.0023831541
0.0024529148
0.0025193933
0.0025830785
0.0026444034
0.0027037642
0.0027614424
0.0028176951
0.0028727653
0.0029268218
0.0029800573
0.0030326132
0.0030846284
0.00313623
0.0031875315
0.0032386272
0.0032896122
0.0033405359
0.0033914469
0.0034423889
0.0034933525
0.0035443129
0.0035951949
0.0036458854
0.0036962153
0.0037459966
0.0037950074
0.0038430466
0.003889987
0.0039357941
0.0039806206
0.0040248384
0.0040690647
0.0041141937
0.0041614316
0.0042124063
0.0042696796
0.0043397689
0.0044461139
0.0046702385
0.0047924107
0.0048132529
0.004808216
0.0048002502
0.0047927971
0.0047858115
0.0047786681
0.0047708883
0.0047628444
0.0047553256
0.0047488393
0.0047432385
0.0047377547
0.0047314071
0.0047239762
0.0047162875
0.0047093341
0.004703221
0.0046969654
0.0046892946
0.0046801233
0.0046709048
0.0046627759
0.0046549101
0.0046454433
0.0046339404
0.0046222076
0.0046113305
0.004599534
0.0045852872
0.00457003
0.0045553371
0.0045398176
0.0045214419
0.0045019417
0.0044828352
0.004461385
0.0044373718
0.0044135203
7.6716976e-05
0.00023707315
0.00041184723
0.00060162909
0.00080456229
0.0010134911
0.0012157053
0.0013999259
0.0015620937
0.0017036696
0.0018280712
0.0019387236
0.0020384059
0.0021292784
0.0022130444
0.0022910242
0.0023642568
0.0024335707
0.0024996263
0.0025629107
0.0026238552
0.0026828544
0.0027401868
0.0027961088
0.0028508627
0.0029046146
0.0029575565
0.0030098295
0.0030615703
0.0031129055
0.0031639478
0.0032147927
0.0032655351
0.0033162247
0.0033669114
0.0034176408
0.0034684051
0.0035191813
0.0035698968
0.0036204409
0.0036706471
0.0037203308
0.0037692733
0.0038172759
0.003864214
0.003910054
0.0039549476
0.0039992626
0.0040436079
0.0040888651
0.0041362205
0.0041872651
0.0042444688
0.0043140513
0.0044184732
0.0046413569
0.004769266
0.0047940447
0.0047900905
0.0047817386
0.0047735959
0.0047658182
0.0047578964
0.0047494188
0.0047408411
0.0047329174
0.0047261084
0.004720241
0.0047145242
0.0047079763
0.0047003928
0.0046926162
0.0046856435
0.004679526
0.0046732404
0.004665545
0.0046564385
0.0046473818
0.0046393904
0.0046316116
0.0046222203
0.0046108365
0.0045993489
0.0045886792
0.0045769873
0.0045629243
0.0045480137
0.0045336709
0.004518325
0.0045001115
0.004480955
0.0044621039
0.0044407934
0.0044171556
0.0043937626
0.0043682034
0.0043398856
7.6051708e-05
0.00023497356
0.00040812462
0.0005960967
0.0007970948
0.0010041266
0.0012046804
0.0013875449
0.0015485895
0.0016891914
0.0018127135
0.0019225484
0.0020214546
0.0021115803
0.0021946216
0.0022718959
0.0023444377
0.0024130732
0.0024784589
0.0025410816
0.0026013724
0.0026597242
0.0027164166
0.0027717036
0.0028258259
0.002878953
0.002931274
0.0029829289
0.0030340549
0.003084777
0.0031352058
0.003185435
0.0032355568
0.0032856201
0.0033356733
0.0033857587
0.0034358669
0.0034859731
0.0035360038
0.0035858476
0.0036353397
0.0036842963
0.0037325017
0.0037797615
0.0038259544
0.0038710514
0.0039152072
0.0039587894
0.0040024028
0.0040469187
0.0040935017
0.0041437036
0.0041999321
0.0042683316
0.0043711656
0.0045926965
0.0047230985
0.0047495033
0.0047482308
0.0047427179
0.0047371144
0.0047316546
0.0047257629
0.0047189831
0.0047117946
0.0047050021
0.0046991141
0.0046940001
0.0046888763
0.0046828158
0.0046756583
0.0046682799
0.0046616429
0.0046557807
0.0046496378
0.0046419967
0.0046329526
0.0046240478
0.004616285
0.0046086523
0.0045993399
0.0045881304
0.0045768941
0.0045664126
0.0045548067
0.0045408377
0.0045261268
0.004511988
0.0044967901
0.0044787594
0.004459983
0.0044414385
0.0044203077
0.0043970811
0.0043740862
0.0043487289
0.0043208125
0.004292945
0.004262037
7.5272566e-05
0.0002326005
0.00040407019
0.00059027975
0.00078948896
0.00099485726
0.0011940568
0.0013759271
0.0015362645
0.0016763512
0.0017994788
0.0019089964
0.0020076395
0.0020975384
0.0021803757
0.002257461
0.0023298219
0.0023982789
0.0024634867
0.0025259283
0.0025860319
0.0026441906
0.0027006818
0.0027557599
0.0028096664
0.0028625691
0.0029146585
0.0029660752
0.003016957
0.0030674293
0.0031176035
0.0031675732
0.0032174312
0.0032672255
0.0033170035
0.0033668076
0.0034166281
0.0034664399
0.0035161691
0.0035657031
0.0036148749
0.0036635006
0.003711363
0.0037582663
0.0038040889
0.0038488009
0.0038925556
0.0039357197
0.0039788976
0.0040229647
0.0040690993
0.0041188906
0.0041748424
0.0042433111
0.0043469835
0.0045726492
0.0047122237
0.0047406455
0.0047374506
0.0047297992
0.0047222605
0.0047150435
0.0047076676
0.0046997036
0.0046916132
0.0046841333
0.0046777366
0.0046722071
0.0046667153
0.0046603376
0.0046529723
0.0046455387
0.0046389592
0.004633189
0.0046271172
0.004619536
0.0046105838
0.004601755
0.0045940461
0.004586428
0.0045770618
0.0045659137
0.0045549245
0.004544665
0.004533183
0.0045193681
0.0045049132
0.0044910428
0.0044760174
0.0044581878
0.0044397553
0.0044214532
0.0044004526
0.0043775627
0.0043549833
0.0043297722
0.0043022248
0.0042747426
0.0042440962
0.0042123538
0.0041790937
7.4559143e-05
0.00023040577
0.00040027615
0.00058476458
0.00078218114
0.00098583248
0.0011835799
0.0013643285
0.001523804
0.0016632004
0.0017857501
0.0018947697
0.0019929716
0.0020824722
0.0021649461
0.0022416931
0.0023137364
0.0023818943
0.0024468194
0.002508992
0.0025688378
0.0026267467
0.0026829944
0.0027378335
0.0027915046
0.0028441724
0.0028960272
0.0029472089
0.0029978537
0.0030480878
0.0030980244
0.0031477576
0.0031973824
0.0032469479
0.0032965027
0.0033460913
0.0033957043
0.003445319
0.0034948631
0.0035442276
0.003593249
0.0036417471
0.0036895089
0.0037363424
0.0037821294
0.0038268398
0.0038706254
0.0039138481
0.0039571032
0.0040012517
0.004047451
0.0040972494
0.0041530452
0.0042208853
0.0043225574
0.0045456638
0.0046902614
0.0047226935
0.0047205546
0.0047125195
0.0047044904
0.0046967772
0.00468884
0.0046803076
0.0046717367
0.0046638757
0.0046571443
0.004651301
0.0046455093
0.004638836
0.0046312176
0.004623595
0.004616889
0.0046110083
0.004604812
0.0045971428
0.0045882301
0.0045795702
0.004572016
0.004564477
0.0045551647
0.0045441271
0.0045333065
0.0045231679
0.0045117708
0.0044981354
0.00448393
0.00447025
0.0044552811
0.004437636
0.0044195659
0.0044014817
0.0043806475
0.004358158
0.0043359545
0.0043109323
0.0042837549
0.0042566466
0.0042263323
0.0041950441
0.0041621325
0.0041268694
7.38364e-05
0.00022816245
0.00039635741
0.00057902089
0.00077451979
0.00097631347
0.0011724508
0.0013518996
0.0015103205
0.0016488225
0.0017705816
0.0018788781
0.0019764028
0.0020652596
0.0021471136
0.0022232614
0.0022947212
0.0023623057
0.0024266645
0.0024882762
0.0025475647
0.0026049188
0.0026606121
0.0027148958
0.0027680082
0.0028201131
0.002871399
0.0029220038
0.0029720636
0.0030217032
0.0030710333
0.0031201484
0.0031691417
0.0032180624
0.003266959
0.0033158751
0.0033648016
0.0034137145
0.0034625411
0.0035111716
0.0035594429
0.0036071758
0.0036541596
0.0037002058
0.0037451989
0.0037891133
0.0038321029
0.0038745293
0.0039169855
0.0039603235
0.0040056812
0.004054575
0.0041093574
0.0041760322
0.0042763598
0.0044978365
0.0046450739
0.0046795497
0.004680381
0.0046752774
0.0046697196
0.004664252
0.0046583641
0.0046515705
0.0046444112
0.0046377049
0.004631918
0.0046268514
0.0046216658
0.0046154777
0.0046082834
0.0046010454
0.0045946651
0.0045890201
0.0045829404
0.0045753119
0.0045664229
0.0045578627
0.0045504566
0.0045429395
0.0045336269
0.0045227257
0.0045121482
0.0045021964
0.0044908403
0.0044772718
0.0044633085
0.0044498747
0.0044350294
0.0044175676
0.0043998461
0.0043819832
0.0043612943
0.0043392295
0.0043173535
0.0042924864
0.0042657015
0.0042388763
0.0042088494
0.00417806
0.0041454618
0.0041105108
0.0040746833
0.0040365058
7.3072658e-05
0.00022581074
0.00039228628
0.00057310874
0.00076670042
0.00096667133
0.0011612605
0.0013395097
0.0014970252
0.0016348316
0.001756042
0.0018638944
0.0019610546
0.002049608
0.0021312061
0.0022071335
0.002278401
0.002345817
0.002410026
0.0024715027
0.0025306661
0.0025879027
0.0026434844
0.0026976586
0.0027506634
0.0028026607
0.0028538376
0.002904331
0.0029542744
0.0030037914
0.0030529918
0.0031019675
0.0031508115
0.0031995715
0.0032482944
0.0032970245
0.0033457527
0.0033944555
0.0034430606
0.0034914583
0.0035394854
0.0035869627
0.003633679
0.0036794456
0.003724147
0.0037677559
0.0038104243
0.0038525107
0.0038946031
0.0039375526
0.0039825087
0.0040310285
0.0040855729
0.0041523606
0.0042535514
0.0044784509
0.0046350748
0.0046720713
0.0046711006
0.0046638819
0.0046563942
0.0046490195
0.0046414636
0.0046333428
0.0046252124
0.004617756
0.0046113957
0.00460585
0.0046002408
0.0045937078
0.0045863024
0.0045790095
0.0045726734
0.0045670909
0.0045610556
0.0045534739
0.0045446712
0.0045362008
0.0045288818
0.0045214058
0.0045120916
0.0045013197
0.0044909719
0.0044811896
0.0044699587
0.0044565274
0.0044427532
0.0044295257
0.0044148011
0.0043975248
0.0043801048
0.0043624373
0.0043419489
0.0043203056
0.0042987645
0.0042740474
0.0042476982
0.0042212129
0.004191452
0.0041611706
0.0041288991
0.004094275
0.0040588692
0.0040210666
0.0039823251
7.2375582e-05
0.0002236762
0.00038861462
0.00056779644
0.00075968578
0.00095802136
0.0011512134
0.0013283645
0.0014850199
0.0016221215
0.0017427251
0.0018500356
0.0019466979
0.0020347847
0.0021159402
0.0021914457
0.0022623088
0.0023293362
0.0023931721
0.0024542893
0.0025131078
0.0025700144
0.0026252793
0.0026791514
0.0027318675
0.0027835881
0.0028344999
0.0028847385
0.0029344377
0.0029837199
0.0030326942
0.0030814524
0.0031300884
0.0031786495
0.0032271835
0.0032757359
0.0033242984
0.0033728506
0.0034213229
0.0034696097
0.0035175511
0.0035649722
0.0036116655
0.0036574454
0.0037021995
0.0037459017
0.0037887035
0.0038309608
0.0038732554
0.0039164251
0.0039615944
0.0040102703
0.0040648
0.0041310874
0.0042303503
0.0044517465
0.0046128532
0.0046538325
0.0046538581
0.0046461004
0.0046381245
0.0046304841
0.0046225845
0.0046140437
0.004605527
0.0045977734
0.0045911522
0.0045853503
0.0045794842
0.0045726948
0.0045650705
0.0045576346
0.0045512294
0.0045455913
0.0045395011
0.0045319069
0.0045232105
0.0045149417
0.0045077411
0.0045002647
0.0044909433
0.0044802506
0.0044701069
0.0044604814
0.0044493381
0.0044361213
0.0044226308
0.0044096136
0.0043950057
0.0043779603
0.0043608845
0.0043434003
0.0043231226
0.0043018268
0.0042805409
0.0042559768
0.0042300465
0.0042038806
0.0041743934
0.0041446196
0.0041125641
0.0040782821
0.0040432833
0.0040058237
0.0039674794
0.0039268728
7.1765642e-05
0.00022173545
0.00038514138
0.00056259123
0.00075260477
0.00094906722
0.0011405735
0.0013163104
0.001471782
0.0016078615
0.0017275524
0.001834029
0.0019299156
0.0020172735
0.0020977366
0.0021725775
0.0022427981
0.0023092004
0.0023724234
0.0024329383
0.0024911636
0.0025474813
0.0026021614
0.0026554502
0.0027075821
0.002758718
0.0028090427
0.0028586905
0.0029077924
0.0029564703
0.0030048319
0.0030529671
0.0031009663
0.0031488762
0.003196744
0.0032446123
0.0032924727
0.003340303
0.0033880338
0.0034355599
0.0034827232
0.0035293502
0.0035752372
0.0036202019
0.0036641352
0.0037070153
0.0037489965
0.0037904367
0.0038319181
0.0038742747
0.0039186175
0.0039664257
0.0040200003
0.0040852302
0.0041833988
0.0044028595
0.0045664775
0.0046099052
0.0046133051
0.0046087116
0.004603156
0.0045976756
0.0045918523
0.0045851739
0.004578191
0.0045717123
0.0045661423
0.0045612115
0.0045560317
0.0045497896
0.0045426292
0.0045355929
0.0045295002
0.0045240604
0.0045180622
0.0045104929
0.0045018223
0.0044937028
0.0044866886
0.0044792782
0.0044700381
0.0044595362
0.004449593
0.0044400883
0.0044289574
0.0044158263
0.0044025548
0.0043897349
0.0043752004
0.004358394
0.004341664
0.0043243334
0.0043042232
0.0042833297
0.0042622767
0.0042379347
0.0042125065
0.0041866031
0.0041574522
0.0041281866
0.0040963118
0.0040624255
0.0040277993
0.0039907375
0.003952812
0.0039126276
0.0038711807
7.1018051e-05
0.00021945605
0.00038123692
0.0005569757
0.00074523885
0.00094003903
0.0011301401
0.0013047934
0.0014594451
0.0015948873
0.0017140662
0.0018201171
0.0019156403
0.0020026792
0.0020828566
0.0021574382
0.00222742
0.0022935981
0.0023566097
0.0024169244
0.0024749574
0.0025310901
0.0025855911
0.0026387063
0.0026906683
0.0027416373
0.0027917976
0.0028412827
0.0028902239
0.0029387412
0.0029869416
0.0030349146
0.0030827501
0.0031304933
0.0031781889
0.0032258788
0.0032735523
0.0033211858
0.0033687077
0.0034160109
0.003462936
0.003509309
0.0035549243
0.0035995988
0.003643222
0.0036857693
0.0037273916
0.0037684411
0.0038094954
0.0038513877
0.0038952425
0.0039425819
0.0039958204
0.0040610942
0.004160235
0.0043829529
0.0045561353
0.0046025474
0.0046043494
0.0045978394
0.0045905653
0.0045832072
0.0045756491
0.0045675417
0.0045595343
0.0045522693
0.0045461021
0.0045406837
0.0045350914
0.0045285377
0.004521228
0.0045142085
0.0045082171
0.0045028925
0.0044969857
0.0044894938
0.0044809263
0.0044729159
0.0044659721
0.0044585472
0.0044492955
0.004438939
0.0044292693
0.0044199793
0.0044089597
0.0043959368
0.0043829075
0.0043702966
0.0043558351
0.004339239
0.0043228334
0.0043057154
0.0042858182
0.0042653274
0.0042444808
0.0042202739
0.0041953489
0.0041696441
0.0041408342
0.0041119876
0.004080324
0.0040468402
0.0040125711
0.0039758082
0.0039382831
0.003898543
0.003857382
0.0038150081
7.0403413e-05
0.00021755507
0.00037793912
0.00055216644
0.00073884087
0.00093209924
0.0011208687
0.001294466
0.00144829
0.0015830583
0.0017016625
0.0018072044
0.0019022648
0.0019888761
0.0020686518
0.0021428508
0.0022124663
0.0022782938
0.0023409673
0.0024009544
0.0024586694
0.0025144939
0.0025686959
0.0026215199
0.0026732005
0.0027238961
0.0027737917
0.0028230204
0.0028717134
0.0029199925
0.0029679639
0.0030157179
0.0030633461
0.0031108942
0.0031584082
0.0032059333
0.0032534606
0.0033009691
0.0033483911
0.0033956231
0.0034425087
0.0034888776
0.0035345279
0.003579279
0.0036230226
0.0036657329
0.0037075583
0.0037488467
0.0037901669
0.0038323394
0.0038764644
0.0039240186
0.0039773098
0.0040421495
0.004139433
0.004358252
0.0045357543
0.0045863186
0.0045889901
0.0045816031
0.0045736145
0.0045659106
0.0045579829
0.0045493847
0.0045408886
0.0045332246
0.0045267103
0.0045209492
0.0045150226
0.0045081485
0.0045005795
0.004493396
0.0044873106
0.0044819202
0.0044759634
0.0044684638
0.0044600292
0.0044522349
0.0044453843
0.0044379633
0.0044287322
0.0044184876
0.0044089895
0.0043997867
0.0043888781
0.0043760642
0.004363266
0.0043508561
0.0043365297
0.004320163
0.0043040588
0.0042870956
0.0042674201
0.004247281
0.0042266157
0.0042026526
0.0041782156
0.0041527475
0.0041243215
0.0040958758
0.0040643804
0.0040314102
0.003997445
0.0039610221
0.0039238664
0.003884595
0.0038437366
0.0038016335
0.0037574845
6.9749171e-05
0.00021550784
0.00037432331
0.00054680812
0.00073161278
0.00092300252
0.0011100759
0.0012822291
0.0014348234
0.0015685127
0.0016861422
0.0017907845
0.0018850026
0.001970816
0.0020498315
0.0021233034
0.0021922185
0.0022573672
0.0023193803
0.0023787241
0.0024358105
0.0024910174
0.0025446111
0.002596835
0.0026479202
0.0026980255
0.0027473316
0.0027959715
0.0028440753
0.0028917607
0.0029391333
0.0029862812
0.0030332918
0.0030802103
0.003127081
0.0031739444
0.0032207907
0.0032675979
0.003314297
0.003360785
0.003406909
0.0034525008
0.0034973636
0.0035413224
0.0035842739
0.0036261998
0.0036672517
0.0037077771
0.0037483411
0.003789755
0.0038331039
0.003879837
0.0039322181
0.0039960109
0.0040920927
0.0043083333
0.0044880344
0.0045413778
0.0045478273
0.0045439153
0.0045384169
0.0045329013
0.0045271106
0.0045205469
0.004513751
0.0045075019
0.0045021491
0.0044973415
0.0044921632
0.0044858822
0.0044788036
0.0044720188
0.0044662328
0.0044610329
0.0044551619
0.0044476986
0.0044393424
0.0044317577
0.0044250799
0.0044177128
0.004408558
0.0043984935
0.0043892349
0.0043801662
0.0043692821
0.0043566259
0.004344119
0.0043318789
0.0043176488
0.0043015163
0.0042857155
0.004268898
0.0042494649
0.0042297041
0.0042091894
0.004185465
0.0041614794
0.0041361813
0.004108133
0.004080002
0.0040487465
0.0040162661
0.0039825912
0.0039464748
0.0039095763
0.0038707599
0.0038302382
0.0037884378
0.003744586
0.0036993755
6.9053558e-05
0.00021337574
0.00037065494
0.00054151185
0.00072464147
0.00091442929
0.0011001344
0.001271218
0.0014229939
0.0015560397
0.001673143
0.0017773401
0.0018711705
0.001956639
0.0020353415
0.0021085228
0.0021771642
0.0022420527
0.002303816
0.002362919
0.0024197718
0.0024747509
0.002528122
0.0025801274
0.0026309986
0.0026808931
0.0027299922
0.0027784281
0.0028263292
0.0028738137
0.0029209864
0.002967934
0.0030147438
0.0030614588
0.0031081218
0.0031547727
0.0032013993
0.0032479765
0.0032944335
0.0033406647
0.0033865133
0.0034318093
0.0034763531
0.003519968
0.0035625496
0.0036040778
0.0036447041
0.0036847754
0.0037248547
0.0037657512
0.0038085553
0.0038547516
0.0039067177
0.0039704854
0.0040675054
0.0042866319
0.0044758777
0.0045327222
0.0045379611
0.0045324966
0.0045256372
0.0045185103
0.0045111093
0.0045031492
0.0044953576
0.0044883691
0.0044824574
0.0044772092
0.0044716651
0.0044651256
0.0044579545
0.0044512258
0.0044455524
0.004440465
0.0044346683
0.0044272657
0.0044190148
0.0044115342
0.0044049263
0.0043975775
0.0043884799
0.0043786192
0.0043695881
0.0043606368
0.0043497946
0.004337218
0.004324922
0.0043128212
0.0042986467
0.0042827921
0.0042673387
0.0042507057
0.0042314461
0.0042120406
0.0041917196
0.0041682965
0.0041447966
0.0041196257
0.0040920276
0.0040641684
0.0040332203
0.0040012141
0.003967818
0.0039320291
0.0038954245
0.0038570613
0.0038168533
0.0037753598
0.003731821
0.0036869337
0.0036415017
6.8435804e-05
0.0002114801
0.00036738822
0.00053677379
0.00071836506
0.00090665675
0.0010910638
0.0012611199
0.001412096
0.0015444999
0.0016610687
0.0017648038
0.0018582257
0.0019433259
0.0020216889
0.0020945541
0.0021628988
0.0022275048
0.002288999
0.0023478421
0.0024044434
0.0024591799
0.002512315
0.0025640919
0.0026147407
0.0026644189
0.0027133093
0.0027615431
0.0028092502
0.0028565499
0.002903547
0.0029503297
0.0029969877
0.003043565
0.0030901061
0.0031366531
0.0031831956
0.0032297123
0.0032761347
0.0033223602
0.003368235
0.0034135923
0.0034582355
0.0035019898
0.0035447523
0.0035865018
0.0036273881
0.0036677561
0.0037081657
0.0037494203
0.003792597
0.0038391433
0.0038913359
0.0039548985
0.0040503129
0.0042652707
0.0044585378
0.0045196576
0.0045256809
0.0045189191
0.0045109766
0.0045031811
0.0044952212
0.0044865876
0.0044781297
0.0044705683
0.0044641644
0.00445845
0.0044524703
0.0044455534
0.0044380943
0.0044312002
0.0044254383
0.0044203025
0.0044144592
0.0044070568
0.0043989733
0.0043916752
0.0043850926
0.0043777078
0.0043685974
0.0043588544
0.0043500333
0.0043412431
0.0043305535
0.0043181805
0.0043062058
0.0042943272
0.004280261
0.0042646279
0.004249406
0.004232897
0.0042138282
0.0041947877
0.0041746975
0.0041515822
0.0041284759
0.0041034116
0.0040762264
0.0040485881
0.0040179935
0.0039864696
0.0039533116
0.0039179204
0.0038814486
0.0038435182
0.0038036407
0.0037624566
0.0037192451
0.0036746767
0.003629598
0.0035826687
6.7903507e-05
0.00020977406
0.00036430953
0.0005321237
0.00071198742
0.00089852158
0.0010813064
0.0012499591
0.0013997216
0.0015310433
0.0016466167
0.0017494174
0.0018419483
0.0019261926
0.0020037299
0.0020757953
0.0021433621
0.0022072109
0.0022679639
0.0023260834
0.0023819781
0.0024360192
0.002488472
0.0025395774
0.0025895631
0.0026385874
0.0026868286
0.0027344188
0.002781485
0.0028281439
0.0028744993
0.0029206376
0.0029666449
0.0030125652
0.0030584411
0.0031043119
0.0031501674
0.0031959836
0.0032416921
0.0032871906
0.0033323281
0.0033769397
0.0034208328
0.0034638378
0.0035058561
0.0035468724
0.0035870391
0.0036267009
0.0036664159
0.0037069831
0.0037494685
0.0037952935
0.0038466768
0.0039092694
0.0040034754
0.0042153603
0.0044099711
0.0044738019
0.0044837217
0.0044806046
0.0044752809
0.0044697598
0.0044640106
0.0044575877
0.0044510291
0.0044450504
0.0044399476
0.0044352771
0.0044301019
0.0044238038
0.0044168239
0.0044102796
0.004404757
0.0043997749
0.0043939945
0.0043866585
0.0043787367
0.0043717111
0.0043653281
0.004358039
0.0043490382
0.0043394906
0.004330819
0.0043220353
0.0043113803
0.0042991987
0.0042874414
0.0042756482
0.0042617121
0.0042463581
0.004231475
0.0042151285
0.0041962947
0.0041775305
0.0041575776
0.0041348602
0.0041121236
0.0040872076
0.0040604463
0.0040330647
0.0040028653
0.0039717802
0.0039388687
0.00390391
0.0038676255
0.0038301086
0.0037905624
0.00374965
0.0037067769
0.0036625431
0.0036178169
0.0035711469
0.0035246118
6.7271573e-05
0.00020781316
0.00036088709
0.00052711575
0.00070531254
0.00089021125
0.0010715495
0.0012390288
0.0013878683
0.0015184538
0.0016334257
0.0017357254
0.0018278281
0.001911698
0.0019889029
0.0020606662
0.0021279548
0.0021915422
0.0022520452
0.0023099234
0.0023655819
0.0024193902
0.0024716111
0.0025224842
0.002572235
0.0026210215
0.0026690219
0.002716366
0.0027631827
0.0028095886
0.0028556863
0.0029015628
0.0029473036
0.0029929517
0.0030385496
0.0030841349
0.0031296956
0.0031752065
0.0032205962
0.0032657596
0.0033105422
0.003354776
0.0033982657
0.0034408383
0.003482392
0.0035229087
0.003562538
0.0036016206
0.003640709
0.0036805964
0.003722352
0.0037674308
0.0038181703
0.0038805228
0.0039756455
0.0041904694
0.0043944823
0.0044623796
0.0044716029
0.0044674633
0.0044612127
0.0044545438
0.0044474711
0.0044398367
0.004432422
0.0044258632
0.004420353
0.0044153955
0.0044100103
0.0044036056
0.0043966813
0.0043902907
0.004384956
0.0043801128
0.0043743814
0.00436709
0.0043592545
0.0043522917
0.0043459512
0.0043386774
0.0043297477
0.0043204221
0.0043120033
0.0043033588
0.0042927189
0.0042806775
0.0042692094
0.0042575431
0.0042437068
0.0042286149
0.0042139925
0.0041977365
0.0041791216
0.0041606591
0.0041408639
0.0041184906
0.0040961414
0.0040714071
0.0040449731
0.0040178262
0.0039880558
0.0039573037
0.0039246866
0.0038901672
0.0038540305
0.0038168335
0.0037776477
0.003737002
0.0036944748
0.0036505898
0.0036062124
0.0035597898
0.0035135141
0.0034654798
6.6613076e-05
0.00020584505
0.00035758511
0.00052244471
0.00069925412
0.00088282819
0.0010630377
0.0012296488
0.0013778459
0.00150795
0.0016225512
0.0017245502
0.0018164001
0.0019000484
0.0019770495
0.0020486202
0.0021157219
0.002179125
0.0022394476
0.0022971466
0.0023526276
0.0024062621
0.0024583125
0.0025090197
0.0025586118
0.0026072446
0.002655098
0.0027023037
0.0027489884
0.0027952698
0.0028412518
0.0028870211
0.0029326654
0.0029782282
0.0030237531
0.0030692817
0.0031148043
0.0031602992
0.0032056996
0.0032509047
0.003295763
0.0033401115
0.0033837571
0.0034265288