/*--------------------------------*- C++ -*----------------------------------*\
| =========                 |                                                 |
| \\      /  F ield         | OpenFOAM: The Open Source CFD Toolbox           |
|  \\    /   O peration     | Version:  2506                                  |
|   \\  /    A nd           | Website:  www.openfoam.com                      |
|    \\/     M anipulation  |                                                 |
\*---------------------------------------------------------------------------*/
FoamFile
{
    version     2.0;
    format      ascii;
    arch        "LSB;label=32;scalar=64";
    class       surfaceScalarField;
    location    "0.0285";
    object      phi;
}
// * * * * * * * * * * * * * * * * * * * * * * * * * * * * * * * * * * * * * //

dimensions      [1 0 -1 0 0 0 0];

oriented        oriented;

internalField   nonuniform List<scalar> 
27245
(
0.0016848939
-0.10877417
0.10878079
0.0017238098
-0.0010077599
0.00097852783
0.0017740972
0.093203605
-0.09325874
0.0018307567
0.12546101
-0.12552513
0.001903558
0.12959704
-0.12966739
0.0020284209
0.11773404
-0.11783341
0.002260713
0.068465103
-0.068671763
0.0023983233
-0.018735141
0.018582647
0.0022993249
-0.076930147
0.076967265
0.0022114974
-0.096300436
0.096386064
0.0021891794
-0.086469393
0.086496207
0.0022987307
-0.023477559
0.02339079
0.0023875042
0.032751812
-0.032827997
0.0024587948
0.04932734
-0.049380389
0.0026070545
0.035315745
-0.035440224
0.0029444459
0.0026984273
-0.0030276169
0.0033445278
-0.012004296
0.011598867
0.0036404599
0.0046580479
-0.0049673996
0.0038648898
0.019752974
-0.020003773
0.004097176
0.010052944
-0.010296343
0.004375505
-0.016353727
0.016073127
0.0046575255
-0.026209956
0.025924728
0.0049006277
-0.0097762591
0.0095244975
0.0051065257
0.0089737252
-0.0091928275
0.0052677998
0.020196455
-0.020377988
0.0053020315
0.025198795
-0.025280199
0.0051908989
0.015359579
-0.015286064
0.0050881597
0.0034388804
-0.0033129534
0.0051383046
-0.0018358709
0.0018630793
0.0053391389
-0.0072665293
0.0071318135
0.0057046035
-0.0088478244
0.0084955466
0.0061146485
-0.00034873215
-6.6765249e-05
0.0064828148
0.0059847648
-0.006352735
0.0069115768
0.0063362594
-0.0067479077
0.0074526628
0.004954653
-0.0054859052
0.0079653799
0.0049815114
-0.0054956905
0.0084289095
0.0049665628
-0.0054349792
0.0089219618
0.0037820829
-0.0042737735
0.0095328254
0.0019889019
-0.0025752322
0.010308185
-0.00021623859
-0.00050979383
0.01120085
-0.0022924898
0.0014184658
0.012093752
-0.0040160517
0.0031132522
0.012880876
-0.006297731
0.005463864
0.013559405
-0.0074201955
0.0066566004
0.014194705
-0.0060830632
0.0053741814
0.014849642
-0.0048330688
0.0041384448
0.015540704
-0.0037785992
0.0030681347
-0.0030633596
0.0017780722
-0.10876649
0.001818857
-0.0010381655
0.0018717995
0.093145575
0.0019311399
0.12539374
0.0020072471
0.12952355
0.0021360294
0.11763238
0.0023851265
0.068243059
0.0025271038
-0.018892942
0.0024239342
-0.0768923
0.0023282474
-0.096207167
0.0023029294
-0.086439378
0.0024169947
-0.023567787
0.0025103745
0.032671817
0.0025845875
0.049272484
0.002741923
0.035183311
0.0030993444
0.002349406
0.0035203592
-0.012430896
0.0038318145
0.0043327478
0.0040680515
0.019489319
0.0043114502
0.0097978679
0.0046033421
-0.016647998
0.004899111
-0.026509146
0.0051537186
-0.01004005
0.0053690862
0.0087444845
0.0055379056
0.020006467
0.0055738893
0.025113432
0.0054577615
0.015436195
0.0053495404
0.003571518
0.0053999855
-0.0018051006
0.0056075832
-0.0074040075
0.0059802454
-0.0092044898
0.0064076593
-0.00078116721
0.0067971004
0.0055956931
0.0072527842
0.0058970357
0.0078237014
0.0043928425
0.0083665122
0.0044365344
0.0088566902
0.0044701699
0.0093742734
0.0032651881
0.010016225
0.0013713501
0.010831907
-0.00098086655
0.011772371
-0.0032142151
0.012707846
-0.0049617027
0.01353187
-0.0071711278
0.014242915
-0.0082193341
0.014910284
-0.0068259149
0.015598411
-0.0055619885
0.016323954
-0.0045242931
0.017088324
-0.0038388732
0.017893824
-0.0035157254
-0.0034245022
0.0018771848
-0.10875811
0.0019199585
-0.0010702483
0.0019757115
0.093084544
0.0020378504
0.12532323
0.0021173564
0.12944685
0.0022519221
0.11752667
0.0025161166
0.068007409
0.0026642069
-0.019057866
0.0025550025
-0.076852043
0.0024534439
-0.096108278
0.0024233087
-0.086404342
0.0025416375
-0.023661149
0.002639168
0.032588526
0.002716717
0.04921549
0.0028850206
0.035041099
0.0032633612
0.0019796403
0.0037059339
-0.012879303
0.0040334904
0.0039909123
0.0042821784
0.019212131
0.0045376945
0.0095300626
0.0048438335
-0.016956642
0.0051540355
-0.026823016
0.0054206819
-0.010316445
0.0056462068
0.0085043388
0.0058230866
0.019807441
0.0058609117
0.025023919
0.0057390956
0.015516471
0.0056249729
0.0037112293
0.0056757785
-0.0017706982
0.0058909762
-0.0075449325
0.0062716073
-0.0095659916
0.006718463
-0.0012326233
0.0071307694
0.005183557
0.0076135882
0.0054296402
0.0082151265
0.0037996475
0.0087892054
0.0038595047
0.0093073451
0.0039444785
0.0098513937
0.0027210938
0.010527455
0.00071952309
0.01138628
-0.0017875896
0.012377421
-0.0041869802
0.013354476
-0.0059489648
0.014216149
-0.0080845415
0.014961106
-0.0090547265
0.015662386
-0.0076040211
0.016385493
-0.0063268079
0.017147293
-0.0053070058
0.017949579
-0.0046528627
0.018794961
-0.0043684547
0.019684556
-0.0043190856
-0.0041773205
0.0019815935
-0.10874868
0.0020264578
-0.0011037908
0.0020851771
0.093020363
0.0021502389
0.12524931
0.002233299
0.12936681
0.0023739279
0.11741677
0.0026540316
0.06775743
0.0028086353
-0.019230404
0.00269282
-0.076809011
0.0025848635
-0.096003242
0.002549563
-0.086363923
0.0026722185
-0.023757669
0.0027740452
0.032501857
0.0028550229
0.049156308
0.0030354658
0.03488801
0.0034360175
0.0015878077
0.0039010209
-0.013350404
0.0042455468
0.0036316666
0.0045074085
0.018920661
0.0047757048
0.0092488139
0.0050967071
-0.017280301
0.0054219923
-0.027152259
0.0057011822
-0.010605954
0.0059373463
0.0082527593
0.0061226755
0.019598946
0.0061624831
0.02493003
0.0060346839
0.015600603
0.0059145308
0.0038581931
0.005965786
-0.0017325886
0.0061892545
-0.0076897477
0.0065798325
-0.009933997
0.0070473795
-0.0017042359
0.0074838309
0.0047469274
0.0079941188
0.0049335209
0.0086274088
0.0031739691
0.0092334975
0.0032497337
0.0097806068
0.0033886148
0.010353714
0.0021472932
0.011067574
2.9850555e-05
0.011972727
-0.002640143
0.013017776
-0.00521439
0.014034684
-0.0069757322
0.014934484
-0.009037988
0.015714763
-0.0099267514
0.016451935
-0.0084185532
0.017211966
-0.0071291703
0.018011837
-0.0061285009
0.018853913
-0.0055072168
0.019741154
-0.0052634397
0.020674764
-0.0052579396
0.021656736
-0.0051599324
0.022688765
-0.0050602622
-0.0051511507
0.0020921926
-0.10873809
0.0021392431
-0.0011390335
0.002201115
0.092952771
0.0022692011
0.12517183
0.0023559756
0.12928329
0.0025029581
0.11730253
0.0027999722
0.06749224
0.0029614759
-0.019411034
0.0028387698
-0.076763134
0.002723832
-0.095891494
0.0026826455
-0.086317384
0.0028094956
-0.023857167
0.0029157806
0.032411718
0.0030002762
0.049094887
0.0031941657
0.034722809
0.0036183768
0.0011724347
0.0041067063
-0.0138451
0.0044691493
0.0032540638
0.0047449664
0.018614103
0.0050267621
0.0089533562
0.0053632737
-0.017619682
0.0057043292
-0.027497516
0.0059965778
-0.010909144
0.0062438846
0.0079892079
0.0064380646
0.019380549
0.0064799935
0.024831541
0.0063458533
0.015688843
0.0062195387
0.0040125955
0.006271368
-0.0016907409
0.0065038233
-0.0078388948
0.0069061735
-0.010310066
0.0073957759
-0.0021973334
0.0078577312
0.0042843312
0.0083962695
0.0044077157
0.009062389
0.0025146958
0.0097007515
0.0026070029
0.010277944
0.0028016462
0.010883606
0.0015403456
0.011639837
-0.0007023412
0.012594873
-0.0035430436
0.013695277
-0.0062983458
0.014751274
-0.0080407707
0.015689377
-0.010031039
0.016506419
-0.01083558
0.017281592
-0.0092706765
0.018080609
-0.0079707938
0.018920479
-0.0069906664
0.019804284
-0.0064039084
0.020735444
-0.0062027728
0.021715257
-0.0062432728
0.022745859
-0.0061912082
0.023829042
-0.0061420532
0.024967205
-0.0062866398
0.026162792
-0.0062836063
-0.0062282419
0.0022096064
-0.10872618
0.0022589601
-0.0011759557
0.0023241589
0.092881608
0.0023954291
0.12509059
0.0024860416
0.12919619
0.0026397096
0.11718378
0.0029547039
0.067210899
0.0031233528
-0.019600126
0.0029932348
-0.076714127
0.0028706297
-0.095772363
0.0028229916
-0.086264136
0.0029539631
-0.023959512
0.0030649099
0.032317982
0.0031530738
0.049031131
0.0033618198
0.034544149
0.0038112493
0.00073193269
0.0043237964
-0.014364288
0.0047051779
0.0028570856
0.0049957925
0.018291593
0.0052918518
0.0086428712
0.0056445364
-0.017975456
0.0060020661
-0.027859501
0.0063079018
-0.011226594
0.0065668706
0.007713122
0.0067703135
0.019151801
0.0068145153
0.024728219
0.0066736216
0.015781475
0.0065410444
0.0041745763
0.0065935764
-0.0016451521
0.0068358282
-0.0079928685
0.0072514263
-0.010695429
0.007764514
-0.0027132508
0.0082534717
0.0037941738
0.008821657
0.0038506945
0.0095214761
0.0018208979
0.010191884
0.0019316244
0.010800529
0.0021824674
0.011443382
0.00089567942
0.012247579
-0.0014828649
0.013256361
-0.0045014067
0.014410744
-0.0074378886
0.015506645
-0.0091442708
0.01648285
-0.011062661
0.017338116
-0.011781067
0.018153512
-0.010161489
0.018993672
-0.0088534223
0.01987555
-0.0078954526
0.020803118
-0.0073450038
0.021780337
-0.0071886265
0.022808616
-0.0072773641
0.023890243
-0.0072735428
0.025027098
-0.0072774478
0.02622168
-0.007478411
0.027476539
-0.0075335035
0.028789845
-0.0075399974
0.030168614
-0.007741894
-0.0080932756
0.0023336574
-0.10871283
0.0023854383
-0.0012146225
0.0024541478
0.09280668
0.0025287121
0.12500544
0.0026233681
0.12910531
0.0027840748
0.11706032
0.0031181408
0.066912361
0.0032943059
-0.019798169
0.0031564326
-0.07666187
0.0030254687
-0.095645186
0.002970579
-0.086203354
0.0031054628
-0.02406444
0.0032212982
0.032220497
0.0033133635
0.048964864
0.0035384294
0.034350643
0.0040147519
0.00026458262
0.0045523488
-0.014908798
0.0049537077
0.0024396982
0.0052600181
0.017952217
0.0055711485
0.0083164968
0.0059406767
-0.018348312
0.0063153803
-0.028238934
0.0066353458
-0.011558892
0.0069065164
0.007423916
0.0071196624
0.01891223
0.0071663371
0.024619787
0.0070182993
0.015878775
0.0068794353
0.0043441925
0.0069328098
-0.0015958533
0.0071859493
-0.008152431
0.0076158694
-0.011090913
0.0081536463
-0.0032530945
0.0086714126
0.0032745784
0.009271283
0.0032603117
0.010005282
0.0010920109
0.010707074
0.0012243849
0.01134897
0.001529648
0.012035133
0.00020720056
0.012894126
-0.0023190464
0.013960662
-0.005520911
0.015166884
-0.0086308789
0.016302479
-0.01028635
0.017316241
-0.012130521
0.018211232
-0.012762788
0.01906918
-0.011092045
0.019952735
-0.0097788384
0.020878716
-0.0088448863
0.02185217
-0.0083326654
0.02287769
-0.0082232781
0.023956806
-0.0083626004
0.025091962
-0.0084094434
0.026285125
-0.0084690789
0.027538895
-0.0087292272
0.028855935
-0.0088453312
0.030234296
-0.0089167301
0.031681396
-0.0091873937
0.033201276
-0.0096105154
0.034795269
-0.0099998813
0.036462198
-0.010450823
-0.010933424
0.002465066
-0.1086979
0.0025193757
-0.0012550608
0.0025918088
0.092727763
0.0026698147
0.12491619
0.0027686709
0.12901054
0.0029368054
0.11693195
0.0032911359
0.066595344
0.0034751109
-0.020005592
0.0033289707
-0.076606104
0.0031888686
-0.095509207
0.0031259407
-0.086134221
0.0032645442
-0.024171701
0.0033855259
0.032119086
0.0034820214
0.04889562
0.0037247274
0.03414107
0.0042298588
-0.00023158182
0.0047933699
-0.0154795
0.0052157753
0.0020008401
0.0055387584
0.017594982
0.0058658298
0.0079732946
0.0062528873
-0.018738961
0.0066454972
-0.028636564
0.0069801525
-0.011906642
0.0072640874
0.0071209755
0.0074873962
0.018661337
0.0075367662
0.024505949
0.007381162
0.015981026
0.0072360196
0.0045214636
0.0072907786
-0.0015433005
0.0075555148
-0.0083179374
0.0080007144
-0.011497096
0.0085640195
-0.0038175906
0.0091130571
0.0027230478
0.0097472777
0.0026338136
0.010515291
0.00032811321
0.011247546
0.00048638383
0.011925116
0.0008412612
0.012662825
-0.0005333701
0.0135848
-0.003219876
0.014712981
-0.0066075513
0.015967819
-0.0098736381
0.017141635
-0.011466036
0.01819228
-0.013231889
0.019128541
-0.013780169
0.020031467
-0.012063389
0.02096076
-0.01074888
0.021933032
-0.0098410852
0.022954602
-0.0093691686
0.024030781
-0.0093091271
0.025163229
-0.0095014976
0.026354557
-0.0096015537
0.027606809
-0.0097197226
0.028922688
-0.010042002
0.030304977
-0.010222144
0.031751599
-0.010361644
0.033270393
-0.010704508
0.034865592
-0.01120294
0.036538476
-0.011671678
0.038287912
-0.012206047
0.040126001
-0.012774463
0.042069836
-0.013412382
-0.014117074
0.044095156
0.002604106
-0.10868129
0.0026610724
-0.001297332
0.0027374452
0.092644636
0.0028190201
0.12482268
0.002922288
0.12891168
0.0030982528
0.11679843
0.0034740559
0.06625845
0.0036662542
-0.02022293
0.0035114221
-0.076546664
0.0033613513
-0.095363632
0.0032893096
-0.086055628
0.0034313541
-0.024280953
0.0035577523
0.032013608
0.0036595859
0.048822535
0.0039212052
0.033914259
0.0044572064
-0.00075870838
0.0050474043
-0.016077174
0.0054919644
0.0015394129
0.0058326791
0.017218821
0.0061766166
0.0076122632
0.0065818933
-0.019148125
0.0069931561
-0.029053158
0.0073430686
-0.012270463
0.0076403492
0.0068036628
0.0078743096
0.018398601
0.0079266405
0.024386371
0.0077630583
0.016088496
0.0076117544
0.0047062946
0.0076684329
-0.00148798
0.0079452275
-0.0084894618
0.0084066379
-0.011914697
0.0089960679
-0.0044071577
0.0095796134
0.0021364102
0.010251279
0.0019679272
0.011052426
-0.00046998016
0.011814154
-0.00028114771
0.01253094
0.00011441195
0.013330966
-0.0013369406
0.014325479
-0.0041961556
0.015518676
-0.0077672744
0.01681693
-0.01116117
0.018026472
-0.012680182
0.019113109
-0.014363979
0.020092279
-0.01483254
0.021042682
-0.013076592
0.022020112
-0.011765436
0.023040941
-0.010886251
0.024112952
-0.010456896
0.025242256
-0.010448687
0.026430656
-0.010696693
0.027680926
-0.010852647
0.028995183
-0.01103229
0.030376235
-0.011419791
0.031826992
-0.011667147
0.033345247
-0.011878107
0.034939276
-0.012296772
0.03661349
-0.01287424
0.038369172
-0.013426216
0.040205181
-0.014048132
0.042134299
-0.014706677
0.04417439
-0.015441135
-0.016248177
0.0462997
0.0027512197
-0.10866283
0.0028109618
-0.0013415052
0.0028914958
0.092557068
0.0029768118
0.12472469
0.0030846729
0.12880859
0.0032688683
0.11665957
0.0036674103
0.065900279
0.0038682673
-0.020450741
0.0037042306
-0.076483316
0.0035432801
-0.09520758
0.0034609716
-0.085966384
0.0036061856
-0.024391848
0.0037382836
0.031903925
0.0038464757
0.048744641
0.0041285414
0.033668801
0.0046976305
-0.0013190836
0.0053151438
-0.01670247
0.0057830064
0.0010542817
0.0061426039
0.016822581
0.0065043874
0.0072323356
0.0069285758
-0.01957654
0.0073592531
-0.029489511
0.0077249919
-0.012650975
0.008036218
0.0064713173
0.0082813429
0.018123473
0.0083369383
0.02426069
0.0081650055
0.016201405
0.0080077813
0.0048984578
0.0080665319
-0.0014300376
0.0083563938
-0.0086676569
0.0088340589
-0.012343588
0.0094504076
-0.0050221467
0.010072891
0.0015101916
0.010785544
0.0012587394
0.011617717
-0.0013001973
0.012408142
-0.0010771286
0.013170657
-0.00065662855
0.014045446
-0.00221594
0.015123533
-0.0052607088
0.01638431
-0.0090055243
0.017717872
-0.0124858
0.018959489
-0.013924596
0.020081011
-0.015523573
0.02110488
-0.015919265
0.022105304
-0.014132811
0.023133302
-0.012830459
0.024205022
-0.011982675
0.025329888
-0.011598337
0.026514889
-0.011644584
0.027761977
-0.011950944
0.029074087
-0.012165622
0.030453396
-0.012409825
0.031902824
-0.01286579
0.033425412
-0.013183691
0.035018823
-0.013469635
0.03669178
-0.013967876
0.038448884
-0.014628284
0.040291441
-0.015267571
0.042218275
-0.015981345
0.044242901
-0.016734552
0.046383994
-0.017570323
-0.01848439
0.048614121
0.0029075757
-0.10864233
0.0029702203
-0.0013876742
0.0030551729
0.092464797
0.0031443502
0.12462204
0.0032570282
0.12870108
0.0034498344
0.11651523
0.0038724945
0.065519512
0.0040825522
-0.020689689
0.0039087655
-0.076415827
0.0037359019
-0.095040064
0.0036419012
-0.085865014
0.0037899888
-0.024503993
0.003928106
0.0317898
0.0040436543
0.048661015
0.004348016
0.033403043
0.0049527415
-0.0019153737
0.0055980374
-0.017355867
0.0060904108
0.0005442515
0.0064701675
0.016404987
0.0068508355
0.0068323734
0.0072946553
-0.020024986
0.0077455316
-0.029946462
0.0081276692
-0.013048818
0.0084534539
0.0061232593
0.0087102773
0.017835388
0.008769457
0.02412853
0.0085888246
0.01631994
0.008426026
0.0050976144
0.0084873283
-0.0013699866
0.0087912955
-0.0088532894
0.0092844434
-0.012782395
0.0099284462
-0.0056629424
0.010596438
0.00083780213
0.01135396
0.00050194963
0.012212901
-0.0021582293
0.013032103
-0.0019011899
0.013850226
-0.0014813589
0.014815019
-0.0031846798
0.015989245
-0.006429057
0.01732287
-0.010330202
0.018676005
-0.013832862
0.019944073
-0.015193414
0.021099236
-0.016707191
0.022169848
-0.017040036
0.023222873
-0.015233387
0.024303895
-0.013945997
0.025428907
-0.013132767
0.026609138
-0.012796102
0.027852524
-0.012899566
0.029161164
-0.013267135
0.03053815
-0.013543515
0.031985702
-0.013855515
0.03350686
-0.014383342
0.035104801
-0.014775281
0.036777051
-0.01513991
0.038532804
-0.015721683
0.040376869
-0.016469132
0.042310555
-0.017199994
0.04433266
-0.018010148
0.046457503
-0.018862803
0.048704528
-0.019804845
-0.020830963
0.051044712
0.0030733126
-0.10861958
0.0031389922
-0.0014359403
0.0032286253
0.09236755
0.0033218078
0.12451455
0.0034395353
0.12858895
0.0036413549
0.11636524
0.0040895683
0.065114916
0.0043093713
-0.020940458
0.0041252615
-0.076343945
0.003939383
-0.094860036
0.0038321888
-0.085749934
0.0039828391
-0.024616985
0.004127363
0.031670876
0.0042512885
0.048570717
0.0045800739
0.033114987
0.0052233545
-0.0025505864
0.0058965523
-0.0180375
0.0064146444
8.1334953e-06
0.0068159667
0.015964645
0.0072165854
0.0064112001
0.0076807808
-0.020494296
0.0081526455
-0.030424891
0.008551741
-0.013464632
0.0088927172
0.0057587857
0.0091618163
0.017533739
0.0092249596
0.023989472
0.009035417
0.016444144
0.0088676023
0.0053031993
0.0089321997
-0.0013086719
0.0092521061
-0.0090480194
0.0097592551
-0.0132291
0.010431024
-0.0063291071
0.011153777
0.0001097512
0.011960451
-0.00030731003
0.012837798
-0.0030361192
0.013686163
-0.00275252
0.014575641
-0.0023744023
0.015650378
-0.0042633457
0.016942538
-0.0077255671
0.018347965
-0.011741508
0.019696937
-0.015180966
0.02098191
-0.016476872
0.022170055
-0.017912289
0.023289727
-0.018195378
0.024397896
-0.0163799
0.025534426
-0.015114225
0.026715213
-0.014339045
0.027953424
-0.01405294
0.029258007
-0.014216516
0.030631206
-0.014648294
0.032076252
-0.014989514
0.033595397
-0.015372704
0.035191805
-0.015975957
0.036868796
-0.016445598
0.038623754
-0.016892795
0.040466358
-0.017562245
0.042401649
-0.018401044
0.044430929
-0.019227946
0.046552966
-0.020139217
0.048782892
-0.021096305
0.051141179
-0.022150002
-0.02329327
0.053596777
0.0032486891
-0.10859438
0.003317519
-0.0014863852
0.0034120994
0.092265054
0.0035094527
0.12440198
0.0036324646
0.12847202
0.0038437305
0.11620942
0.0043190349
0.064685165
0.0045491744
-0.021203797
0.0043542315
-0.076267481
0.0041541777
-0.094666398
0.0040320486
-0.085619285
0.0041848862
-0.024730328
0.0043362821
0.031546675
0.0044696743
0.048472813
0.0048252829
0.032802505
0.0055104694
-0.0032281904
0.0062113033
-0.018747117
0.0067563052
-0.00055523898
0.0071807616
0.015500014
0.0076024419
0.0059675881
0.0080877798
-0.020985377
0.0085814194
-0.030925722
0.0089980025
-0.013899057
0.0093548216
0.0053771747
0.0096368264
0.017217873
0.0097043703
0.023843058
0.0095058863
0.016573885
0.0093338831
0.0055143633
0.0094029229
-0.0012474169
0.0097417331
-0.0092547462
0.010259992
-0.013680278
0.010959528
-0.0070197069
0.01175188
-0.00068948026
0.012612444
-0.0011744923
0.013497281
-0.0039239681
0.014374088
-0.0036289364
0.015356292
-0.0033551801
0.016588081
-0.0054996235
0.01799915
-0.0091522863
0.019419393
-0.013183751
0.020777599
-0.016544919
0.022075631
-0.017770682
0.023296968
-0.019138816
0.024467501
-0.019386646
0.025633155
-0.017574091
0.026827744
-0.016337473
0.028066886
-0.015604247
0.029365803
-0.01537176
0.030734531
-0.015598461
0.03217545
-0.016097602
0.033691905
-0.016506969
0.035286164
-0.016964907
0.036961519
-0.017647326
0.03872144
-0.018198507
0.040563164
-0.018732344
0.04249687
-0.019493806
0.044527882
-0.020428506
0.04665744
-0.021356108
0.048884287
-0.022373446
0.051224576
-0.023440346
0.053699556
-0.024611192
-0.025877156
0.056276399
0.0034346801
-0.10856646
0.0035067869
-0.0015390845
0.003606618
0.092156996
0.0037082933
0.12428412
0.003836851
0.12835008
0.004058016
0.11604762
0.0045620857
0.064228727
0.0048031278
-0.021480458
0.0045967431
-0.076186178
0.0043812215
-0.094457949
0.0042422361
-0.085470971
0.0043967899
-0.02484343
0.0045555861
0.031416624
0.0046997431
0.048366147
0.0050848946
0.032463119
0.0058155427
-0.003952024
0.0065436414
-0.019484365
0.0071167294
-0.0011470137
0.0075661046
0.015009349
0.0080100293
0.0055002434
0.0085173045
-0.021499229
0.0090334961
-0.031449918
0.0094680082
-0.014352684
0.0098413784
0.0049776481
0.010136996
0.016887062
0.010209402
0.023688819
0.010002102
0.016708878
0.0098270512
0.0057299272
0.0099023318
-0.0011882587
0.010263778
-0.0094772276
0.010791365
-0.014133698
0.011517309
-0.0077322572
0.012404793
-0.0015857794
0.013328173
-0.0021100615
0.014210962
-0.0048122071
0.015123589
-0.0045381251
0.016210135
-0.0044326659
0.017600226
-0.0068963031
0.019103316
-0.010679961
0.020557864
-0.014677651
0.021920204
-0.017919663
0.023229543
-0.019072492
0.024484443
-0.020388304
0.025706987
-0.020616017
0.026932261
-0.018817846
0.028187586
-0.017618226
0.029487783
-0.01693132
0.030850243
-0.016755646
0.032286201
-0.017048579
0.033798155
-0.017618398
0.035389533
-0.018099394
0.037062599
-0.018635812
0.038820785
-0.019401317
0.040667712
-0.020038067
0.04260047
-0.020662818
0.044629761
-0.021520846
0.046761195
-0.022556208
0.048995978
-0.023589422
0.051332835
-0.024718053
0.053788853
-0.0259003
0.05638609
-0.027193947
-0.028588743
0.059090285
0.0036320117
-0.10853553
0.0037075038
-0.0015940842
0.0038129049
0.09204305
0.0039190532
0.12416077
0.0040534235
0.12822292
0.0042850119
0.1158796
0.0048196362
0.063743884
0.0050721771
-0.021771245
0.0048537849
-0.07609985
0.0046213807
-0.09423338
0.0044633267
-0.08530263
0.0046188262
-0.024955604
0.0047855061
0.031280368
0.0049422211
0.048249008
0.005359978
0.032093865
0.0061391046
-0.0047253379
0.0068946796
-0.020249498
0.0074969801
-0.0017682871
0.0079733158
0.014490651
0.0084407437
0.0050078142
0.0089707727
-0.022036853
0.0095102284
-0.031998374
0.009963081
-0.014826117
0.010353723
0.0045594166
0.010663714
0.016540531
0.010741476
0.023526276
0.010525719
0.016848624
0.010349222
0.0059482175
0.010433608
-0.0011343804
0.010820181
-0.0097180481
0.011358579
-0.014590607
0.012112913
-0.0084680002
0.013095035
-0.0025781698
0.014087035
-0.003122461
0.01498437
-0.0057184665
0.015945103
-0.0054920758
0.017153237
-0.0056227313
0.018694232
-0.0084433831
0.020286075
-0.012304146
0.021765419
-0.016210943
0.023127146
-0.019299621
0.024445844
-0.020379935
0.025735737
-0.021663736
0.0270116
-0.021887522
0.028298367
-0.020113054
0.029617304
-0.018958995
0.030981448
-0.018323421
0.032410406
-0.018207866
0.033916816
-0.018570202
0.035503279
-0.019214174
0.037173259
-0.019770469
0.038928998
-0.020389278
0.040774077
-0.021241984
0.042712281
-0.02196853
0.044740542
-0.022688684
0.046870123
-0.023648062
0.049106892
-0.024789058
0.051452067
-0.025933052
0.05390434
-0.027178462
0.056481626
-0.028481716
0.059207271
-0.029904382
-0.031434239
0.062045007
0.0038414901
-0.10850125
0.0039204823
-0.001651427
0.0040317864
0.091922878
0.0041425593
0.1240317
0.0042830303
0.12809033
0.0045256132
0.11570515
0.0050926977
0.063228774
0.0053573238
-0.022076973
0.0051263082
-0.076008289
0.0048754979
-0.093991298
0.004695877
-0.085111825
0.0048512026
-0.025065575
0.005026245
0.031137684
0.0051979037
0.048119396
0.0056516942
0.031691486
0.0064820831
-0.0055511865
0.0072656295
-0.02104313
0.0078981745
-0.0024200787
0.0084038288
0.013941613
0.008896133
0.0044888297
0.0094496068
-0.022598812
0.010013009
-0.032571921
0.01048466
-0.015320044
0.010893259
0.0041217218
0.011218383
0.01617751
0.011302035
0.023354947
0.011078471
0.016992365
0.010902778
0.0061669591
0.011000756
-0.0010905518
0.011414937
-0.0099797494
0.01196871
-0.01505578
0.01275363
-0.0092281879
0.013841016
-0.0036770744
0.014914585
-0.0042271441
0.015838232
-0.0066567288
0.016861344
-0.0065060887
0.018202957
-0.0069374503
0.019883852
-0.010126847
0.021546093
-0.01400156
0.023039158
-0.01776613
0.024398956
-0.020680534
0.025715728
-0.021682629
0.027048701
-0.022974504
0.028385183
-0.023212013
0.029734355
-0.021461414
0.03112002
-0.020362096
0.032551364
-0.019783722
0.034049979
-0.019731849
0.035630212
-0.020166826
0.03729481
-0.020888585
0.039047231
-0.021524036
0.040889677
-0.022229334
0.042825887
-0.023173554
0.04485982
-0.023994329
0.046988244
-0.024814595
0.049223005
-0.02588034
0.05157025
-0.027132184
0.0540312
-0.028392378
0.056604523
-0.029760325
0.059309082
-0.031190607
0.062169342
-0.032748668
-0.034420123
0.065147087
0.0040640283
-0.1084633
0.0041466152
-0.0017111285
0.0042641814
0.091796115
0.0043797408
0.12389666
0.0045265951
0.12795213
0.0047807862
0.11552401
0.0053823959
0.062681374
0.00565974
-0.022398524
0.0054155056
-0.075911345
0.0051446633
-0.093730225
0.0049405666
-0.084895652
0.0050943473
-0.025171832
0.0052784722
0.030988297
0.0054676179
0.047975101
0.0059613804
0.031252423
0.006846023
-0.0064328096
0.0076579216
-0.02186586
0.0083215816
-0.0031032986
0.0088592636
0.01335967
0.0093780575
0.0039416148
0.009955387
-0.02318601
0.010543379
-0.033171455
0.01103432
-0.015835196
0.011461571
0.0036637776
0.011802609
0.015797223
0.011892714
0.02317435
0.011662324
0.017139064
0.011490556
0.0063829574
0.011608876
-0.0010638091
0.012056371
-0.010267901
0.012632316
-0.015536878
0.013451056
-0.010015837
0.01465585
-0.0048943932
0.015831335
-0.0054468045
0.016800603
-0.0076510885
0.017901093
-0.0075969302
0.019377953
-0.0083808102
0.021170178
-0.011915325
0.022876163
-0.015739033
0.024373221
-0.019323732
0.025731088
-0.022056713
0.02707172
-0.023008521
0.028438711
-0.024312053
0.029832875
-0.02458561
0.03124442
-0.022870724
0.032698867
-0.021828624
0.034201285
-0.021314939
0.035773159
-0.021331149
0.037430812
-0.021842152
0.039177346
-0.02264547
0.041016233
-0.023364121
0.042949616
-0.024160204
0.044981405
-0.02520046
0.047115736
-0.026120111
0.049349207
-0.02704543
0.051694276
-0.028222803
0.054157384
-0.029590964
0.056739756
-0.030973043
0.059440024
-0.03246956
0.062278154
-0.03403328
0.065279602
-0.035733341
-0.037553111
0.068404052
0.0043003109
-0.10842126
0.0043865841
-0.0017731977
0.0045108046
0.091662367
0.004631295
0.12375545
0.0047848332
0.12780805
0.0050513213
0.11533592
0.005689658
0.062099527
0.0059803502
-0.022736797
0.0057223032
-0.0758089
0.0054297144
-0.093448612
0.005197876
-0.084650777
0.0053487256
-0.02527284
0.0055431371
0.030831198
0.0057519624
0.047814209
0.0062903705
0.030772423
0.0072322642
-0.007373476
0.0080729445
-0.022718316
0.0087682945
-0.0038186222
0.009341028
0.012741868
0.0098882424
0.0033642793
0.010489714
-0.023798967
0.011102686
-0.0337977
0.011613435
-0.016372343
0.012060085
0.0031846954
0.01241787
0.015398857
0.012514992
0.022984028
0.012279175
0.017287352
0.012115652
0.0065918713
0.012263902
-0.0010636078
0.012754927
-0.010592192
0.013362372
-0.016044733
0.014221545
-0.01083826
0.015557805
-0.0062439761
0.016861176
-0.0068084357
0.017911951
-0.0087459577
0.01909393
-0.0087687448
0.020695489
-0.0099493521
0.022549184
-0.013757933
0.024266655
-0.017478618
0.025760812
-0.020866313
0.027119693
-0.023426188
0.028498964
-0.024372376
0.029909569
-0.025686359
0.03135776
-0.026007412
0.032833573
-0.024343353
0.034358305
-0.023363092
0.035935219
-0.022920356
0.037584301
-0.023009332
0.039323287
-0.023600074
0.041155782
-0.024488889
0.043085372
-0.025294969
0.045114151
-0.026186341
0.047246201
-0.027327373
0.04948585
-0.028350776
0.051829515
-0.029386329
0.054290294
-0.030680845
0.056874942
-0.032171065
0.059584686
-0.033680991
0.062418104
-0.03531239
0.065396319
-0.037016262
0.068545894
-0.038865297
-0.040840683
0.071824511
0.0045506847
-0.10837475
0.0046406911
-0.0018375945
0.0047719612
0.091521241
0.0048975791
0.1236078
0.0050581222
0.12765777
0.0053376495
0.1151406
0.006015011
0.061480968
0.0063197605
-0.023092794
0.0060473855
-0.075700934
0.0057311611
-0.093144742
0.0054678684
-0.084373325
0.0056144921
-0.025367181
0.0058208788
0.030664536
0.006051259
0.047635225
0.0066398595
0.03024628
0.0076418664
-0.008376384
0.0085117783
-0.023601098
0.0092389564
-0.0045663992
0.0098499272
0.012085154
0.010428041
0.0027544952
0.011053651
-0.02443782
0.011691749
-0.034450916
0.01222291
-0.016932377
0.012689792
0.0026834172
0.013065215
0.01498156
0.013169846
0.022783621
0.012930561
0.017435437
0.012781198
0.0067878381
0.012971685
-0.0011017538
0.013520249
-0.010965659
0.014173763
-0.016594857
0.015088653
-0.011713024
0.01657248
-0.0077422939
0.01802912
-0.0083369391
0.019194836
-0.0099831272
0.020461316
-0.010029954
0.022173057
-0.011635131
0.024013677
-0.015582705
0.025709492
-0.019184706
0.027196417
-0.022382494
0.028576176
-0.024806636
0.029993505
-0.025770434
0.031456395
-0.02710637
0.032962224
-0.027484101
0.034504528
-0.025882237
0.036102436
-0.024970052
0.0377571
-0.024603888
0.039487348
-0.024770167
0.041311819
-0.025444651
0.04323453
-0.026423116
0.045259278
-0.027321038
0.047388134
-0.028312422
0.049625368
-0.029559201
0.051975503
-0.03069147
0.054434768
-0.031842693
0.057016934
-0.033260138
0.059729091
-0.034878442
0.062572457
-0.036522468
0.065545567
-0.038295381
0.068670769
-0.040146463
0.071975609
-0.042151631
-0.044290371
0.075415907
0.0048166476
-0.10832328
0.0049104236
-0.0019042557
0.0050491984
0.091372287
0.0051800839
0.12345346
0.0053479631
0.12750121
0.0056413783
0.11493766
0.0063602442
0.060823233
0.0066797432
-0.023467533
0.0063924795
-0.075587437
0.0060502174
-0.092816383
0.0057514935
-0.084059354