/*--------------------------------*- C++ -*----------------------------------*\
| =========                 |                                                 |
| \\      /  F ield         | OpenFOAM: The Open Source CFD Toolbox           |
|  \\    /   O peration     | Version:  2506                                  |
|   \\  /    A nd           | Website:  www.openfoam.com                      |
|    \\/     M anipulation  |                                                 |
\*---------------------------------------------------------------------------*/
FoamFile
{
    version     2.0;
    format      ascii;
    arch        "LSB;label=32;scalar=64";
    class       volScalarField;
    location    "0.8";
    object      nut;
}
// * * * * * * * * * * * * * * * * * * * * * * * * * * * * * * * * * * * * * //

dimensions      [0 2 -1 0 0 0 0];

internalField   nonuniform List<scalar> 
1375
(
0.072247108
0.092359433
0.11308195
0.05832313
0.073260057
0.093705896
0.11461791
0.13366362
0.14954726
0.16181354
0.17060765
0.17643772
0.058970808
0.074260977
0.09502177
0.11609644
0.13513414
0.15086658
0.16288522
0.17138767
0.17693646
0.18030282
0.18207259
0.18268372
0.18276278
0.18260541
0.1824124
0.059585047
0.075225966
0.096281077
0.11749292
0.1365003
0.15206829
0.16383824
0.1720608
0.17734857
0.18050981
0.18208804
0.18259785
0.18262237
0.18244927
0.18226786
0.1821543
0.18197656
0.18182284
0.18174583
0.060163954
0.076137376
0.097464289
0.11879189
0.13775307
0.15314957
0.16467461
0.17263152
0.17767815
0.18065267
0.18206444
0.18248936
0.18247193
0.18229177
0.18212683
0.1820115
0.18182042
0.18168598
0.1816181
0.18157854
0.1815579
0.18155077
0.18155339
0.060715868
0.076987282
0.098561638
0.11998767
0.13889344
0.15411821
0.16540708
0.1731143
0.17793848
0.1807427
0.18201019
0.18236363
0.18231482
0.18213475
0.18198787
0.18186233
0.18166773
0.18155187
0.18149174
0.18145686
0.18143945
0.18143438
0.18143815
0.18144847
0.18146392
0.18148356
0.18150681
0.061253456
0.077780877
0.09957838
0.12108821
0.13993311
0.15498955
0.16605321
0.17352654
0.17814494
0.18079272
0.18193403
0.18222667
0.18215498
0.18197973
0.18184945
0.18170833
0.18151942
0.18141989
0.18136651
0.18133606
0.18132174
0.18131862
0.18132344
0.18133421
0.18134974
0.18136929
0.18139231
0.18141845
0.18144753
0.18147948
0.061786962
0.078534616
0.10053411
0.12211444
0.14089322
0.15578408
0.16663182
0.17388436
0.17831053
0.1808129
0.18184214
0.18208271
0.18199482
0.18182649
0.18171072
0.18155162
0.18137547
0.18128968
0.18124228
0.18121604
0.18120468
0.18120355
0.18120955
0.18122091
0.18123665
0.18125618
0.18127905
0.18130489
0.18133353
0.18136498
0.18139945
0.18143728
0.18147902
0.062323875
0.079277846
0.10146579
0.12310406
0.14180804
0.15653045
0.16716527
0.17420409
0.1784466
0.18081124
0.18173863
0.1819341
0.18183469
0.18167572
0.1815703
0.18139394
0.18123535
0.18116093
0.18111899
0.18109683
0.18108849
0.1810895
0.18109696
0.18110922
0.18112541
0.18114505
0.18116777
0.18119324
0.18122128
0.181252
0.18128566
0.18132268
0.18136358
0.18140914
0.18146086
0.062872696
0.080051333
0.10242473
0.12410921
0.14272453
0.15726689
0.16768186
0.17450491
0.17856527
0.18079559
0.1816269
0.18178221
0.18167472
0.18152864
0.1814267
0.1812361
0.18109843
0.18103345
0.18099665
0.18097842
0.18097307
0.18097634
0.18098549
0.18099891
0.18101574
0.18103557
0.18105809
0.18108305
0.18111032
0.18114007
0.18117266
0.18120861
0.18124846
0.18129298
0.18134354
0.18140223
0.1814715
0.18155348
0.063441445
0.080890247
0.10345773
0.12517999
0.14368946
0.15803233
0.16821064
0.17480635
0.1786785
0.18077331
0.18151007
0.18162844
0.18151612
0.18138496
0.18127744
0.18108085
0.18096416
0.18090716
0.18087516
0.18086058
0.180858
0.18086342
0.18087424
0.18088886
0.18090648
0.18092668
0.18094917
0.18097376
0.18100039
0.18102928
0.18106083
0.18109564
0.18113435
0.18117789
0.18122749
0.1812849
0.18135245
0.18143257
0.18152745
0.18163994
0.064036127
0.081808385
0.10458514
0.12634154
0.14472938
0.15885111
0.1687712
0.17512227
0.1787951
0.18075084
0.18139127
0.1814745
0.18135954
0.18124253
0.18112173
0.18092963
0.18083151
0.18078153
0.18075409
0.18074278
0.18074258
0.18074985
0.1807622
0.18077817
0.1807969
0.18081789
0.18084078
0.18086537
0.18089166
0.18091992
0.18095061
0.18098436
0.181022
0.18106443
0.18111279
0.18116871
0.18123442
0.18131258
0.18140552
0.18151599
0.18164832
0.18180792
0.064660681
0.082798828
0.10580091
0.12759164
0.145846
0.15972743
0.16936849
0.175457
0.17891831
0.18073118
0.18127312
0.18132219
0.18120529
0.18109985
0.1809615
0.18078172
0.18069919
0.18065563
0.18063267
0.1806246
0.18062677
0.18063588
0.18064984
0.18066728
0.18068732
0.18070933
0.1807329
0.18075781
0.18078413
0.18081214
0.18084229
0.18087518
0.18091165
0.18095272
0.18099959
0.18105376
0.18111736
0.1811932
0.18128395
0.1813923
0.18152231
0.1816799
0.1818717
0.065307275
0.083825998
0.10706502
0.12889374
0.14701014
0.16064036
0.16998828
0.17580132
0.17905219
0.18070847
0.18115665
0.18117266
0.18105328
0.18095638
0.18079929
0.18063646
0.18056685
0.18052943
0.18051112
0.18050651
0.18051132
0.18052254
0.18053821
0.18055712
0.1805784
0.18060141
0.18062575
0.18065124
0.1806779
0.18070594
0.18073581
0.18076812
0.18080357
0.18084311
0.18088812
0.18094013
0.18100136
0.18107451
0.18116246
0.18126826
0.18139582
0.1815511
0.18174155
0.18197617
0.18226405
0.065953361
0.084835196
0.10831495
0.13018723
0.14816949
0.16154911
0.1706018
0.17613912
0.17918708
0.18067794
0.18104111
0.18102598
0.18090305
0.18081288
0.18063768
0.18049408
0.1804351
0.18040355
0.18038995
0.18038907
0.18039673
0.18041015
0.18042757
0.18044786
0.1804703
0.18049432
0.18051951
0.18054566
0.18057277
0.18060103
0.18063086
0.18066289
0.18069754
0.18073572
0.18077882
0.18082851
0.18088685
0.18095673
0.18104125
0.18114378
0.18126843
0.181421
0.18160941
0.18184395
0.18213397
0.18247134
0.066564878
0.085763835
0.10947783
0.13139931
0.1492594
0.16240231
0.17117307
0.1764489
0.17930723
0.18063546
0.18092427
0.18088095
0.1807577
0.18066851
0.18047863
0.18035514
0.18030488
0.18027887
0.18026982
0.18027254
0.18028302
0.18029861
0.18031773
0.18033945
0.18036311
0.18038819
0.18041428
0.18044116
0.18046882
0.18049749
0.18052755
0.18055937
0.18059352
0.18063064
0.180672
0.18071921
0.18077441
0.18084045
0.1809209
0.18101947
0.18114049
0.18128963
0.18147531
0.18170888
0.18200003
0.1823387
0.18258224
0.067103402
0.086556275
0.11049217
0.13246921
0.15022506
0.16315566
0.17167095
0.17671094
0.17939794
0.18057793
0.18080386
0.18073751
0.18061726
0.18052168
0.18032451
0.18021964
0.18017655
0.18015555
0.18015065
0.1801567
0.18016982
0.18018754
0.18020842
0.18023165
0.18025667
0.18028298
0.18031013
0.18033785
0.18036622
0.18039544
0.18042577
0.18045765
0.18049144
0.18052784
0.18056775
0.18061267
0.18066461
0.18072653
0.18080236
0.18089637
0.18101289
0.18115764
0.18133977
0.1815715
0.18186315
0.18220172
0.18243661
0.18141347
0.1686512
0.067536693
0.087175571
0.11131792
0.13335819
0.15103235
0.1637822
0.17207684
0.17691291
0.17945003
0.18050362
0.18067834
0.18059524
0.18047981
0.18037273
0.1801758
0.18008703
0.18004987
0.18003334
0.18003216
0.18004127
0.18005691
0.18007676
0.1800995
0.18012438
0.1801509
0.18017857
0.18020696
0.18023577
0.18026495
0.18029478
0.18032568
0.18035768
0.18039131
0.18042721
0.1804661
0.18050908
0.18055799
0.18061589
0.18068688
0.18077544
0.18088675
0.18102675
0.18120451
0.1814333
0.18172421
0.18206179
0.18228505
0.18117187
0.16823328
0.067853471
0.08762407
0.11195769
0.13406725
0.15168075
0.16428084
0.17238988
0.17705365
0.17946215
0.18041292
0.18054733
0.18045348
0.18034358
0.18022241
0.18003188
0.17995662
0.1799245
0.17991199
0.17991415
0.17992605
0.17994411
0.17996611
0.17999081
0.1800175
0.18004571
0.18007493
0.18010471
0.18013473
0.18016493
0.18019552
0.1802269
0.18025955
0.1802934
0.18032875
0.18036668
0.18040827
0.18045499
0.18050933
0.18057536
0.18065828
0.18076379
0.18089811
0.18107054
0.18129563
0.18158517
0.1819206
0.18213025
0.18090578
0.16690278
0.06806988
0.087941363
0.11245113
0.13463109
0.15219845
0.16467276
0.17262453
0.177142
0.17943987
0.18030857
0.18041181
0.18031194
0.18020763
0.18007164
0.17989195
0.17982794
0.17980018
0.17979128
0.17979648
0.17981094
0.17983128
0.17985543
0.17988216
0.17991078
0.17994079
0.17997171
0.18000306
0.1800345
0.18006594
0.18009757
0.18012975
0.18016282
0.18019702
0.18023256
0.18026974
0.18030996
0.1803551
0.18040677
0.18046861
0.18054585
0.18064468
0.18077215
0.18093859
0.18115956
0.18144696
0.18177956
0.18197379
0.18062339
0.16579859
0.068232179
0.088198557
0.11286761
0.13510962
0.15263321
0.16499324
0.17280466
0.17719287
0.17939282
0.18019471
0.18027374
0.18017098
0.18007205
0.17992157
0.17975564
0.17970098
0.17967698
0.17967125
0.1796791
0.17969589
0.17971838
0.17974457
0.17977331
0.17980391
0.17983583
0.17986859
0.17990173
0.17993486
0.17996781
0.18000071
0.18003387
0.18006754
0.18010205
0.1801377
0.18017503
0.18021473
0.18025831
0.18030781
0.18036629
0.18043831
0.18053027
0.18065023
0.18080961
0.18102498
0.18130962
0.18163898
0.18181546
0.18033889
0.16547755
0.068412432
0.088485477
0.11329181
0.13557475
0.15304144
0.16528298
0.17295708
0.17722277
0.17933161
0.18007582
0.18013543
0.18003148
0.17993748
0.17977338
0.17962302
0.17957596
0.17955521
0.17955217
0.1795622
0.1795809
0.17960526
0.17963335
0.17966402
0.17969656
0.17973043
0.17976515
0.17980026
0.17983532
0.17987007
0.17990453
0.17993891
0.17997351
0.18000867
0.18004471
0.18008211
0.18012154
0.18016422
0.18021214
0.18026779
0.18033516
0.18042065
0.18053265
0.18068382
0.18089219
0.18117259
0.18149756
0.18165473
0.18005346
0.16549079
0.068691625
0.088888887
0.11380467
0.13609489
0.15347612
0.16557959
0.1731062
0.17724656
0.17926566
0.17995578
0.17999911
0.17989448
0.17980511
0.17962838
0.17949444
0.1794533
0.17943518
0.17943426
0.17944591
0.179466
0.17949176
0.17952141
0.17955381
0.1795882
0.17962403
0.17966081
0.17969803
0.17973525
0.17977212
0.17980854
0.17984457
0.17988044
0.17991646
0.17995306
0.17999077
0.18003029
0.18007259
0.18011906
0.18017231
0.18023589
0.18031569
0.18041987
0.18056201
0.1807619
0.1810357
0.18135416
0.18149112
0.17974901
0.1647675
0.069129669
0.089467232
0.11446414
0.13672131
0.15397785
0.165912
0.17327065
0.17727556
0.17920218
0.17983731
0.17986588
0.17976112
0.17967526
0.17948739
0.17937003
0.17933331
0.17931724
0.17931779
0.17933041
0.17935128
0.17937787
0.17940857
0.17944231
0.17947834
0.17951602
0.17955486
0.17959433
0.17963393
0.17967322
0.17971197
0.17975014
0.17978782
0.1798252
0.17986264
0.17990081
0.17994057
0.17998277
0.18002848
0.18007949
0.18013965
0.18021443
0.18031122
0.1804445
0.18063498
0.18090001
0.1812094
0.18132383
0.17940973
0.162942
0.069736688
0.090236828
0.11529698
0.13748364
0.15457294
0.16630029
0.17346406
0.17731823
0.17914659
0.17972237
0.17973632
0.17963307
0.17954726
0.17935081
0.17924943
0.17921586
0.1792013
0.17920281
0.17921589
0.17923701
0.17926385
0.17929498
0.17932945
0.17936658
0.17940578
0.1794465
0.17948821
0.17953035
0.17957236
0.17961386
0.17965464
0.17969467
0.17973407
0.17977308
0.17981214
0.17985214
0.17989412
0.17993918
0.17998891
0.18004633
0.18011622
0.18020686
0.18033215
0.18051287
0.18076747
0.18106447
0.1811518
0.17904981
0.16212294
0.070469631
0.091169229
0.11629348
0.1383845
0.15526937
0.16675304
0.17369344
0.1773796
0.17910242
0.17961296
0.17961207
0.17951131
0.17942011
0.17921956
0.17913204
0.17910056
0.17908704
0.1790891
0.17910228
0.17912323
0.17914984
0.17918084
0.17921544
0.17925304
0.17929316
0.17933533
0.17937901
0.17942362
0.17946852
0.17951309
0.17955695
0.17959995
0.17964204
0.17968323
0.17972383
0.1797646
0.17980665
0.1798513
0.17989994
0.17995507
0.18002133
0.18010694
0.18022484
0.18039646
0.18063973
0.18092138
0.18097484
0.17868485
0.16229999
0.071264087
0.092209853
0.11741564
0.13940165
0.15605634
0.1672663
0.17395826
0.17746026
0.17907044
0.17951028
0.17949416
0.17939571
0.17929429
0.17909414
0.17901788
0.1789873
0.17897409
0.17897619
0.1789891
0.17900961
0.17903571
0.17906621
0.17910042
0.17913789
0.1791783
0.17922134
0.17926652
0.17931326
0.17936084
0.17940856
0.1794559
0.17950241
0.17954779
0.17959189
0.1796348
0.17967708
0.17971977
0.17976432
0.17981221
0.17986576
0.17992948
0.18001082
0.18012312
0.18028647
0.18051833
0.18078257
0.18079595
0.17830194
0.16165368
0.072061373
0.093298348
0.1186091
0.14049253
0.15690454
0.16782202
0.17424859
0.17755504
0.17904783
0.17941394
0.1793823
0.17928548
0.17917034
0.17897471
0.17890736
0.17887668
0.17886303
0.17886441
0.17887645
0.17889601
0.17892119
0.17895085
0.17898435
0.17902135
0.17906156
0.1791048
0.17915077
0.17919904
0.17924889
0.17929955
0.17935032
0.17940061
0.1794499
0.17949765
0.17954373
0.17958843
0.17963262
0.17967768
0.17972534
0.17977797
0.17983966
0.17991817
0.1800266
0.18018344
0.1804048
0.18065006
0.180618
0.17788421
0.15978449
0.072814179
0.094379391
0.11981771
0.14160687
0.15777481
0.16839389
0.17454821
0.17765453
0.17902876
0.17932163
0.17927463
0.17917878
0.1790479
0.17886075
0.17880055
0.17876932
0.17875483
0.17875488
0.17876529
0.17878315
0.1788067
0.17883492
0.17886719
0.17890322
0.17894282
0.17898583
0.17903202
0.17908108
0.17913254
0.17918561
0.17923956
0.17929362
0.17934703
0.17939911
0.17944928
0.17949737
0.17954407
0.17959058
0.17963873
0.17969102
0.17975153
0.1798281
0.17993391
0.1800867
0.1802991
0.18052481
0.18044051
0.17743924
0.15937935
0.16895293
0.17483842
0.1777468
0.17900652
0.17922991
0.17916843
0.1790732
0.17892602
0.1787512
0.17869696
0.17866527
0.17864995
0.17864846
0.17865677
0.17867231
0.17869351
0.17871944
0.17874963
0.17878388
0.17882214
0.1788643
0.17891023
0.17895959
0.17901193
0.17906671
0.17912326
0.17918078
0.17923847
0.17929528
0.17935029
0.17940283
0.17945297
0.17950187
0.17955127
0.17960378
0.17966394
0.17973962
0.17984441
0.17999522
0.18020035
0.18040694
0.18026439
0.17697181
0.15868563
0.1790611
0.17896647
0.17880374
0.17864473
0.1785957
0.17856424
0.17854846
0.17854545
0.1785515
0.17856432
0.17858257
0.17860554
0.1786329
0.1786646
0.17870067
0.17874112
0.17878588
0.17883473
0.17888727
0.1789431
0.17900166
0.17906223
0.1791239
0.17918551
0.17924573
0.17930351
0.17935828
0.17941059
0.17946214
0.17951571
0.17957617
0.17965197
0.1797568
0.17990693
0.18010706
0.18029594
0.18009
0.17647975
0.15806997
0.17846518
0.17844951
0.17844541
0.17844946
0.17845964
0.17847481
0.17849443
0.17851842
0.17854683
0.17857975
0.17861742
0.17865997
0.17870738
0.17875936
0.17881544
0.17887522
0.17893816
0.17900334
0.17906944
0.179135
0.17919851
0.17925878
0.17931572
0.17937058
0.17942605
0.17948751
0.17956402
0.17966946
0.17982012
0.18001728
0.18018958
0.17991715
0.17595782
0.15713426
0.17837026
0.17838657
0.17840696
0.17843162
0.17846087
0.17849502
0.1785344
0.17857913
0.17862922
0.17868451
0.17874471
0.1788092
0.17887709
0.17894717
0.17901777
0.17908707
0.17915345
0.17921595
0.17927528
0.17933396
0.1793974
0.17947516
0.17958185
0.17973354
0.17992884
0.1800866
0.17974541
0.17540611
0.15554244
0.17837513
0.17841041
0.17845136
0.17849838
0.17855153
0.17861077
0.17867563
0.17874539
0.17881878
0.17889392
0.1789688
0.17904123
0.17911004
0.17917503
0.17923826
0.17930504
0.17938528
0.17949382
0.1796465
0.17984055
0.17998483
0.17956951
0.17484036
0.15596339
0.17841834
0.17847492
0.1785385
0.17860859
0.17868393
0.17876288
0.17884288
0.17892157
0.17899695
0.17906845
0.17913769
0.17920949
0.17929359
0.1794051
0.17955938
0.17975172
0.17988241
0.17938758
0.17425267
0.15466931
0.17854339
0.17862465
0.17870901
0.17879344
0.17887556
0.17895446
0.17903114
0.17910992
0.17919991
0.17931573
0.17947225
0.17966225
0.1797778
0.17919382
0.17353222
0.15459953
0.17865694
0.17874604
0.17883287
0.17891791
0.17900511
0.17910292
0.17922501
0.17938469
0.17957137
0.17966821
0.17898503
0.17275518
0.1527014
0.17879769
0.17889463
0.17900198
0.179132
0.1792957
0.179478
0.17955118
0.17875276
0.17192558
0.15239865
0.17903575
0.17920423
0.17938107
0.1794244
0.17849164
0.17103188
0.15223218
0.17927959
0.17928766
0.17820285
0.17007277
0.15046488
0.16905507
0.15123769
)
;

boundaryField
{
    Side
    {
        type            empty;
    }
    Inlet
    {
        type            calculated;
        value           nonuniform List<scalar> 
25
(
0.19986736
0.19981825
0.19978682
0.1997798
0.19978653
0.19981696
0.19986153
0.19990612
0.19994642
0.19998384
0.20001743
0.20004414
0.20006853
0.20009344
0.20011704
0.20014103
0.20016142
0.20017663
0.20018467
0.20018619
0.20017577
0.20014062
0.20009883
0.2000735
0.20003622
)
;
    }
    Airfoil
    {
        type            nutkWallFunction;
        blending        stepwise;
        value           nonuniform List<scalar> 0();
    }
    Outlet
    {
        type            calculated;
        value           nonuniform List<scalar> 0();
    }
    procBoundary5to4
    {
        type            processor;
        value           nonuniform List<scalar> 
64
(
0.071245243
0.091009303
0.11152004
0.132111
0.132111
0.14813049
0.16064087
0.16973542
0.17586527
0.18002845
0.18002845
0.18201443
0.18274543
0.18289268
0.18275991
0.18256218
0.18229302
0.18229302
0.18213285
0.18196317
0.18187519
0.18170126
0.18170126
0.18167715
0.18166771
0.18166897
0.18156315
0.18156315
0.1815784
0.18159804
0.18162144
0.18153325
0.18153325
0.18156271
0.18159509
0.18151442
0.18151442
0.18155276
0.18159514
0.18152563
0.18152563
0.18157881
0.18152099
0.18152099
0.18159194
0.18167573
0.18165029
0.18165029
0.18176494
0.18177453
0.18177453
0.181936
0.18200054
0.18200054
0.18210546
0.18210546
0.18238939
0.18259788
0.18259788
0.18271995
0.18271995
0.18163792
0.18163792
0.16900335
)
;
    }
    procBoundary5to6
    {
        type            processor;
        value           nonuniform List<scalar> 
61
(
0.073488474
0.095406457
0.1209918
0.14269825
0.15862912
0.15862912
0.16947398
0.17510226
0.17782501
0.17897367
0.17913575
0.17913575
0.17895119
0.17885741
0.17868087
0.17854018
0.17849571
0.17849571
0.17836732
0.17835238
0.17834775
0.17835023
0.17835804
0.17835804
0.17826857
0.17828188
0.17829884
0.17831975
0.17834502
0.17834502
0.1782579
0.17828885
0.17832559
0.1783686
0.1783686
0.17828583
0.17833848
0.17839914
0.17846762
0.17846762
0.17839854
0.1784801
0.17856722
0.17856722
0.1785126
0.17860803
0.17870323
0.17870323
0.17866992
0.17877786
0.17889625
0.17889625
0.17893486
0.17910902
0.17910902
0.17917226
0.1791406
0.17788206
0.17788206
0.16813538
0.15046536
)
;
    }
    procBoundary5to12
    {
        type            processor;
        value           nonuniform List<scalar> 
30
(
0.058176091
0.058749802
0.05926658
0.059751032
0.060246488
0.060790669
0.061393463
0.062030266
0.062653646
0.063220492
0.063711933
0.064143798
0.064566893
0.065043566
0.065609208
0.066256325
0.066942641
0.067613144
0.068221021
0.068744384
0.069194652
0.069616522
0.07006884
0.070593139
0.071194303
0.07184601
0.072507184
0.073137252
0.057655892
0.057655892
)
;
    }
}


// ************************************************************************* //
