/*--------------------------------*- C++ -*----------------------------------*\
| =========                 |                                                 |
| \\      /  F ield         | OpenFOAM: The Open Source CFD Toolbox           |
|  \\    /   O peration     | Version:  2506                                  |
|   \\  /    A nd           | Website:  www.openfoam.com                      |
|    \\/     M anipulation  |                                                 |
\*---------------------------------------------------------------------------*/
FoamFile
{
    version     2.0;
    format      ascii;
    arch        "LSB;label=32;scalar=64";
    class       volScalarField;
    location    "2.85";
    object      k;
}
// * * * * * * * * * * * * * * * * * * * * * * * * * * * * * * * * * * * * * //

dimensions      [0 2 -2 0 0 0 0];

internalField   nonuniform List<scalar> 
19257
(
11.243635
10.216263
9.5726696
9.1317541
8.8057317
8.5532649
8.3519278
8.1879771
8.0523211
7.9387749
7.8427326
7.76072
7.6903168
7.6295736
7.5767688
7.5307732
7.4903556
7.4546948
7.4232653
7.3956669
7.3712389
7.3496869
7.330699
7.3142571
7.3000488
7.2881523
7.278885
7.272399
7.2686913
7.2688531
7.2750285
7.2889919
7.3093475
7.3340571
7.3634964
7.4000798
7.4433851
7.4930829
7.5566427
7.633508
7.7243369
7.8419585
7.9819456
8.2121388
8.3561179
8.6668701
9.0377009
10.645039
10.69681
11.225263
10.248147
9.6265208
9.1890185
8.8618037
8.606758
8.4023493
8.2352017
8.0963706
7.9798211
7.8809783
7.796289
7.7234369
7.6603583
7.6055154
7.557555
7.5152062
7.4779112
7.4449177
7.415874
7.3900851
7.3673049
7.3472049
7.329609
7.314236
7.3014961
7.2913235
7.2835346
7.2789636
7.2779175
7.282384
7.2942102
7.3137885
7.3365354
7.364597
7.398135
7.4387232
7.488721
7.5464161
7.6192542
7.7150226
7.8255521
7.9853677
8.179149
8.3066058
8.5953544
8.9749394
10.537013
10.359744
11.302542
10.350435
9.7200465
9.274506
8.9400953
8.6783992
8.4678956
8.2952248
8.1514216
8.0303751
7.9274648
7.8391407
7.7629152
7.6968152
7.639114
7.5886072
7.5438351
7.5045077
7.4695884
7.4386695
7.4112205
7.386885
7.3653701
7.3464164
7.3297105
7.315663
7.3042492
7.2954091
7.2895622
7.2868737
7.2897393
7.2989635
7.3170443
7.3383413
7.3643672
7.3958147
7.4341716
7.4810865
7.5377793
7.6056269
7.689345
7.7971797
7.9293514
8.1233723
8.3208443
8.5384975
8.7922263
10.123594
10.117337
11.343798
10.425637
9.8037372
9.3566097
9.0174709
8.7503569
8.5344658
8.3566998
8.2081782
8.0826872
7.9757372
7.8837205
7.8040354
7.7347772
7.6741889
7.6210119
7.5739427
7.5323542
7.4953177
7.4624317
7.4332548
7.4072511
7.3842273
7.363749
7.3457242
7.3303037
7.3176186
7.3077363
7.3003744
7.2962681
7.2981028
7.3053315
7.32069
7.3404019
7.3650432
7.3952636
7.4316203
7.4757102
7.5298369
7.5971533
7.6822771
7.784586
7.9284023
8.0903779
8.254075
8.4650798
8.8009991
9.9967566
9.9291073
11.390242
10.507367
9.8926086
9.4435539
9.0997042
8.8271191
8.605667
8.4225098
8.2689557
8.1387223
8.027424
7.9314172
7.8480633
7.7754056
7.7117011
7.6556092
7.606009
7.5619455
7.5226738
7.487661
7.4565664
7.42876
7.4040478
7.3820891
7.3626168
7.345698
7.3317174
7.3202903
7.3115449
7.3062752
7.3062406
7.3118555
7.3248882
7.3428724
7.3661452
7.3944726
7.4285303
7.4713002
7.5230241
7.5856277
7.6631896
7.7661674
7.8934728
8.0587069
8.216787
8.4156607
8.7057499
9.7861807
9.7826839
11.431395
10.585569
9.9811919
9.5321444
9.1844951
8.9068032
8.6799503
8.4914496
8.332784
8.197781
8.0819653
7.9817865
7.894585
7.8183702
7.7513199
7.6921191
7.6397222
7.593135
7.5514762
7.5142731
7.4810655
7.451347
7.4248652
7.4012783
7.3803027
7.3618783
7.3463523
7.3334726
7.3233168
7.3168927
7.314494
7.3188108
7.329447
7.3458187
7.3674314
7.3942722
7.4263476
7.466355
7.5161547
7.5777099
7.6551949
7.7478636
7.883597
8.0323702
8.1943258
8.3802584
8.6456795
9.6418864
9.6740894
11.470397
10.662011
10.069679
9.6219236
9.2713007
8.9889785
8.7569726
8.5632072
8.3994304
8.2595612
8.1391075
8.0346341
7.9434452
7.8634958
7.7929379
7.7305599
7.6752769
7.625944
7.5817528
7.5422031
7.506734
7.4750304
7.4466515
7.4213369
7.3987663
7.3786313
7.3614752
7.3473267
7.3358898
7.3277841
7.3236301
7.3263352
7.3346719
7.3493568
7.369379
7.3944535
7.424642
7.4629305
7.510854
7.5691283
7.6408852
7.739175
7.854691
8.0081741
8.1568607
8.3405061
8.5962337
9.5148306
9.5898115
11.506231
10.735047
10.15642
9.7114498
9.3589014
9.0726101
8.8357964
8.6370081
8.4681818
8.3234373
8.1983429
8.0895008
7.9942218
7.9104447
7.8363689
7.7706271
7.7122092
7.6600421
7.6132913
7.5712862
7.5335079
7.4996829
7.4693348
7.4421631
7.4178858
7.3961449
7.3773809
7.3616652
7.3486697
7.3390016
7.3334275
7.3339138
7.3401713
7.3533801
7.3717481
7.3946559
7.4238141
7.4592093
7.5053275
7.5627313
7.6334786
7.7212016
7.8440867
7.9875797
8.1449068
8.3171386
8.561841
9.3980522
9.524875
11.538676
10.80374
10.240214
9.7994961
9.4460676
9.1566034
8.9154317
8.7119147
8.5382084
8.3887318
8.2590392
8.1458109
8.0464292
7.9587712
7.8810811
7.8119501
7.7503472
7.6952594
7.6458059
7.6012899
7.5612082
7.5251657
7.4927523
7.4636397
7.4376451
7.4143268
7.3938096
7.3764713
7.3620049
7.3506792
7.3438164
7.3412099
7.34638
7.3581066
7.3744072
7.3955275
7.4222694
7.4568413
7.5001635
7.5545745
7.6230269
7.7110851
7.8271327
7.968221
8.1161792
8.2853325
8.5243801
9.3012348
9.4734641
11.568195
10.868023
10.320164
9.8847514
9.5315102
9.2396484
8.9946892
8.7868317
8.6085757
8.4545028
8.3203374
8.2028175
8.0993555
8.0078247
7.9264903
7.8539497
7.7891513
7.7311225
7.6789407
7.6318452
7.5893716
7.5510815
7.5166067
7.4855384
7.457712
7.4327546
7.4105534
7.3915605
7.3755359
7.362625
7.3542194
7.3492816
7.3532318
7.3631067
7.3773337
7.3967307
7.4217033
7.4543945
7.4957489
7.5491822
7.6151912
7.6980647
7.8169732
7.9505564
8.0961837
8.2634638
8.4996482
9.2292471
9.4328769
11.594595
10.926997
10.394955
9.9658979
9.6138849
9.320313
9.0723
8.8605239
8.6780689
8.5196725
8.3812427
8.2595785
8.1521459
8.0568394
7.9719456
7.8960361
7.8280676
7.7670802
7.7121618
7.6625348
7.6176513
7.5771054
7.5405269
7.5074989
7.4778495
7.4512706
7.4274018
7.4066993
7.3892119
7.3748764
7.364723
7.3576895
7.3603304
7.368197
7.3805658
7.398225
7.4217843
7.4523497
7.4920806
7.5425797
7.607455
7.6899944
7.7982599
7.9319261
8.0767055
8.2406225
8.4704929
9.159654
9.4006557
11.617962
10.980318
10.463808
10.041633
9.6915734
9.3972674
9.1467937
8.9316167
8.7454205
8.5830153
8.4405775
8.3150094
8.2037925
8.1048715
8.0165403
7.9373702
7.8663272
7.8024526
7.7448538
7.6927445
7.6455273
7.6027895
7.5641521
7.5291818
7.4976779
7.4694751
7.4441234
7.421814
7.4027255
7.3869064
7.3750553
7.3667195
7.3673695
7.3731257
7.3840421
7.4000711
7.4222191
7.4506442
7.4885908
7.5367419
7.5995851
7.6804191
7.7860576
7.9161207
8.0598157
8.2237847
8.4521102
9.113239
9.3764073
11.638476
11.027643
10.525832
10.110827
9.7634023
9.4689503
9.2165405
8.9986569
8.8092331
8.6432975
8.4972039
8.36799
8.2532338
8.1509013
8.0593367
7.9770934
7.9031225
7.8364978
7.7763398
7.7218301
7.6723673
7.6275206
7.5869211
7.5501083
7.5168282
7.4869983
7.4601522
7.4362881
7.4157302
7.3985579
7.3850897
7.3761763
7.3732753
7.378081
7.3877275
7.4023508
7.4224692
7.4503605
7.4861597
7.5325965
7.5925907
7.6724002
7.7765767
7.903356
8.0440416
8.2069971
8.4334953
9.0715361
9.3577138
11.65632
11.069023
10.580779
10.17278
9.8282042
9.5339074
9.2802667
9.0601906
8.8679541
8.6989704
8.5496751
8.4171977
8.2992492
8.1938253
8.0993052
8.0142579
7.9375947
7.8684184
7.8058684
7.7491235
7.6975694
7.6507455
7.608293
7.5697516
7.5347942
7.5033932
7.4751617
7.4499072
7.4279239
7.4093924
7.3945321
7.3845895
7.3790012
7.3828976
7.3912435
7.4043839
7.4230573
7.4488114
7.4837555
7.5294718
7.5874049
7.6635247
7.7688472
7.8924393
8.0302625
8.1929354
8.4210469
9.0478034
9.3443123
11.671537
11.104263
10.627875
10.226274
9.884587
9.5909868
9.3366816
9.1148408
8.9202598
8.7487036
8.5966749
8.4614184
8.3406779
8.2325156
8.1353544
8.0478038
7.968745
7.8972913
7.8325914
7.7738358
7.7203854
7.6717774
7.6276561
7.5875668
7.5511355
7.5183262
7.4888278
7.4623463
7.4391138
7.4193821
7.4032617
7.3922825
7.3844348
7.3872648
7.3943382
7.4061561
7.4235695
7.4481891
7.4815194
7.5253942
7.5828571
7.6570692
7.7593603
7.8814391
8.018252
8.1813537
8.410565
9.0249571
9.3338336
11.684131
11.133222
10.666881
10.270954
9.9319938
9.6392481
9.3844693
9.1613305
8.964968
8.7913023
8.6370246
8.4994461
8.3763596
8.265888
8.1664853
8.0767956
7.9956866
7.9222581
7.8556818
7.7951863
7.7401011
7.6899458
7.6443756
7.6029381
7.5652303
7.5311767
7.5005494
7.4730102
7.4487106
7.4279284
7.4107162
7.3987378
7.3889652
7.3908542
7.3967518
7.4074432
7.4239371
7.4473066
7.4795279
7.5220286
7.5776177
7.6512201
7.7499242
7.8710886
8.009815
8.1741845
8.4025807
9.0066251
9.3275069
11.694005
11.155822
10.697414
10.306099
9.969493
9.6775444
9.4225407
9.1985807
9.000866
8.8255744
8.6695696
8.5301699
8.4052326
8.292925
8.1917285
8.1003103
8.0175567
7.9425434
7.874446
7.8125299
7.7561113
7.7046832
7.6579214
7.6153816
7.5766422
7.5415816
7.5100238
7.4816075
7.4564185
7.4347584
7.4166308
7.4037916
7.392445
7.3935562
7.3985961
7.4085377
7.4241421
7.4467722
7.4779797
7.519785
7.5744327
7.6468338
7.7442858
7.8661077
8.0063299
8.1719021
8.4004401
9.0003184
9.3250544
11.701065
11.171964
10.719269
10.331372
9.9965405
9.7052705
9.4502196
9.2256609
9.0269992
8.8505788
8.6933258
8.5526179
8.4263361
8.3126773
8.2101611
8.1174801
8.0335388
7.9573907
7.8881898
7.82523
7.7678316
7.7154595
7.6677989
7.6244346
7.5849457
7.5491582
7.5169207
7.4878775
7.4620682
7.4398183
7.4210994
7.4076721
7.3954224
7.3960821
7.4007111
7.4102928
7.4256447
7.4479872
7.4789545
7.5203167
7.5748053
7.6465891
7.7449229
7.8675299
8.0078424
8.1733003
8.4018374
8.9972911
9.3264213
11.705236
11.181521
10.732226
10.346309
10.012519
9.7217167
9.466765
9.2418848
9.042734
8.8656507
8.7076161
8.5660832
8.438938
8.3244179
8.221073
8.1276101
8.042945
7.9661212
7.8962739
7.8327101
7.7747598
7.7218608
7.6736892
7.6298556
7.5899625
7.5538
7.5212138
7.4918745
7.465807
7.4433735
7.4245465
7.4110553
7.398921
7.399757
7.4044234
7.4139998
7.4294407
7.4520045
7.4831798
7.5248957
7.5798924
7.6525836
7.7514849
7.8734175
8.0123993
8.1765482
8.4056795
9.0162965
9.332728
11.706558
11.184513
10.736198
10.350788
10.017244
9.7264895
9.4714085
9.2463314
9.046991
8.8696814
8.7114177
8.5696962
8.442382
8.3276832
8.2241337
8.1304311
8.0455233
7.9684765
7.8984205
7.8346729
7.7765841
7.7235675
7.6752753
7.6313363
7.5913892
7.5552022
7.5225904
7.4932524
7.467219
7.4448777
7.4261704
7.4128131
7.4011264
7.4023354
7.4071849
7.4168746
7.4325454
7.455482
7.4870694
7.5293054
7.58507
7.6586677
7.7591597
7.8805332
8.018697
8.1821525
8.4135319
9.0367064
9.3375045
11.705141
11.18146
10.732243
10.346362
10.012624
9.7217968
9.4668147
9.2419183
9.0426957
8.8656396
8.7076117
8.5661082
8.439011
8.3245415
8.2212232
8.1277336
8.0430138
7.9661318
7.8962146
7.8325924
7.7746474
7.7217887
7.673629
7.6298008
7.5899798
7.5539089
7.521352
7.4920329
7.4659902
7.4436051
7.4248059
7.4112853
7.3991189
7.3999533
7.4045407
7.4140018
7.4294718
7.4521651
7.4833186
7.5249304
7.5800506
7.652508
7.7516043
7.8734106
8.0122704
8.1762054
8.4050929
9.016804
9.3328381
11.700898
11.171881
10.71934
10.331468
9.9966171
9.7053686
9.4503771
9.2257766
9.0270861
8.850715
8.6934583
8.5527208
8.4263842
8.3126811
8.2101338
8.1174209
8.0334636
7.9573052
7.8880604
7.8250634
7.7677307
7.7154735
7.6678489
7.6244926
7.5851226
7.5494552
7.5172078
7.4881522
7.4623519
7.4401486
7.4214353
7.4079242
7.395605
7.3962426
7.4007409
7.4101646
7.4256981
7.4483198
7.4792696
7.5206491
7.5749687
7.647069
7.7439667
7.866283
8.0067267
8.1719474
8.4014922
8.9955393
9.3256134
11.693879
11.15579
10.697501
10.306257
9.9696472
9.6777397
9.42278
9.1988049
9.001061
8.8257466
8.66971
8.5302666
8.4052386
8.292836
8.1915831
8.1001427
8.0174171
7.9424396
7.8743105
7.8123577
7.7560291
7.7047304
7.6579652
7.615403
7.5768139
7.5418804
7.5102903
7.4818783
7.4567318
7.435136
7.4170015
7.4040549
7.3926414
7.3936868
7.3985409
7.4083934
7.4242726
7.4474068
7.4786894
7.5202676
7.5752358
7.6470759
7.7446231
7.8662772
8.0054145
8.1712081
8.3983744
8.998875
9.323603
11.684122
11.133253
10.666987
10.271048
9.9321264
9.6394224
9.3846564
9.1615961
8.9652126
8.7914855
8.6371789
8.4995748
8.3764118
8.2658385
8.1663698
8.0766423
7.9955502
7.9221418
7.8555014
7.7949527
7.7399672
7.6899372
7.6443387
7.6028974
7.5654084
7.5314884
7.5008094
7.4732982
7.4490564
7.4283211
7.4110852
7.3990115
7.3891605
7.3909024
7.3966271
7.4072525
7.4242617
7.4481492
7.4803122
7.5226164
7.5790465
7.6512277
7.7520507
7.8727931
8.0106449
8.1734544
8.4017589
9.0133047
9.326938
11.671668
11.104365
10.628057
10.226398
9.8846948
9.5911667
9.3369104
9.1150909
8.9204865
8.748869
8.5968165
8.4615307
8.3407054
8.2324603
8.1352532
8.0476835
7.9686453
7.8971965
7.8323955
7.773579
7.7202511
7.6717809
7.6276025
7.5875111
7.5513257
7.5186071
7.4890523
7.4626748
7.4395247
7.4198116
7.4036493
7.3925649
7.3845837
7.3871948
7.3940395
7.4060232
7.4241363
7.4490483
7.4821816
7.5264526
7.5830422
7.6583907
7.7583096
7.8803324
8.0181087
8.1802495
8.4108312
9.0215455
9.3331419
11.656589
11.069219
10.580913
10.172846
9.8281696
9.5340026
9.2805394
9.0604523
8.8681155
8.699066
8.5497357
8.4172413
8.2991978
8.1937314
8.0991943
8.0141569
7.9375396
7.8683795
7.8057231
7.7489259
7.6975071
7.6507952
7.6082407
7.5697625
7.5351227
7.5037759
7.4754986
7.4503882
7.4284422
7.4098872
7.3949757
7.3849476
7.3791372
7.3826866
7.3909166
7.4044997
7.4237159
7.4499524
7.4846054
7.5304141
7.5881509
7.6652963
7.7682733
7.890328
8.0281388
8.1919404
8.4203181
9.0489903
9.3438388
11.638871
11.027884
10.525925
10.110918
9.7633835
9.4689155
9.2167109
8.9988624
8.8093247
8.6433725
8.4972579
8.3680004
8.2531435
8.1508051
8.0592564
7.9770529
7.9031667
7.8365503
7.7762561
7.7216855
7.6723952
7.6276722
7.5869654
7.5502749
7.51727
7.4873827
7.4605399
7.4368508
7.4162523
7.3990639
7.3855865
7.3766333
7.3732046
7.3777579
7.3875275
7.4025529
7.4234425
7.4513636
7.4880934
7.5340819
7.5939606
7.6740525
7.7739405
7.9000313
8.0409397
8.2045078
8.433041
9.0853415
9.3589642
11.618478
10.980753
10.464075
10.041813
9.6916595
9.3973084
9.1468775
8.9317856
8.7455494
8.5831629
8.4407029
8.3150674
8.2037534
8.1048207
8.0165186
7.9373949
7.8664326
7.8025402
7.7447846
7.6926588
7.6456624
7.6030069
7.5642408
7.5294461
7.498162
7.4698519
7.444596
7.4224176
7.4032318
7.387434
7.3755675
7.3670148
7.3672011
7.3727468
7.3839226
7.4005201
7.4232914
7.4524405
7.489704
7.5372885
7.6015693
7.6786347
7.7877624
7.9161188
8.0570108
8.2196887
8.4522522
9.1264573
9.3788381
11.595087
10.927245
10.394941
9.965908
9.613856
9.3203784
9.0724503
8.8607045
8.678254
8.5198369
8.3813848
8.2596495
8.1521602
8.0568437
7.9719649
7.8961225
7.8282179
7.7671805
7.7120896
7.6625098
7.6178668
7.5773605
7.5406921
7.5078641
7.4783615
7.4516877
7.4280169
7.4073391
7.3896569
7.3753931
7.3652238
7.3578605
7.3601083
7.3678487
7.3805831
7.3989448
7.4230529
7.453161
7.4925452
7.543815
7.6074533
7.6893977
7.802382
7.9344699
8.0753332
8.2372745
8.4701254
9.1718509
9.4039218
11.568898
10.868695
10.320407
9.8849273
9.5316696
9.2397258
8.9948712
8.7870015
8.6087648
8.4546791
8.320531
8.20291
8.0994124
8.0079041
7.9265854
7.8541347
7.7893475
7.7312121
7.678855
7.6319211
7.589698
7.5513708
7.5168334
7.4859355
7.4582224
7.4332424
7.411259
7.3921543
7.3759952
7.3632259
7.3546753
7.3492677
7.3528268
7.3627855
7.3776564
7.3977072
7.4225714
7.4556061
7.4977656
7.5488875
7.6158672
7.6992444
7.8162806
7.9520467
8.0954827
8.2597272
8.4922218
9.232538
9.435633
11.539373
10.804299
10.240362
9.7994676
9.4460718
9.1566056
8.9155072
8.7120299
8.538405
8.3889275
8.2592515
8.1459579
8.0465417
7.9588871
7.8811957
7.8121331
7.7504904
7.6952878
7.645737
7.6014577
7.5615755
7.5253926
7.4929976
7.4640861
7.4381711
7.4149132
7.3945672
7.3770391
7.3625067
7.3513313
7.3442373
7.3411286
7.3461214
7.3580435
7.3749757
7.3962398
7.4231019
7.4589194
7.5007658
7.5565747
7.6229362
7.7132929
7.8289803
7.9668144
8.1171394
8.2841403
8.5245874
9.3147927
9.4760145
11.506733
10.735488
10.156506
9.711302
9.3586994
9.0724873
8.8357881
8.6371152
8.4683838
8.3236886
8.1985608
8.0896751
7.9944124
7.910617
7.8365488
7.7708365
7.7122933
7.6599874
7.6132401
7.5714689
7.5339134
7.4999434
7.4695812
7.4425851
7.4184119
7.3968714
7.378123
7.3621598
7.3492205
7.3395735
7.3336709
7.3338456
7.3398468
7.3534042
7.3722562
7.3950984
7.4255018
7.461406
7.5055783
7.5630052
7.6328761
7.7304239
7.8360916
7.9828954
8.1370041
8.31035
8.5615757
9.42666
9.5285047
11.470994
10.662666
10.069957
9.6218465
9.2711191
8.9888477
8.7569797
8.5633872
8.399691
8.2598351
8.1393283
8.0348532
7.943643
7.8636468
7.7931412
7.7307301
7.6752482
7.6257567
7.5817144
7.5423815
7.5070553
7.475234
7.4468793
7.4217774
7.3992511
7.3792922
7.3620522
7.3476669
7.3363487
7.3282573
7.3237002
7.3261288
7.3342904
7.3495924
7.3697369
7.3953452
7.4272281
7.4629379
7.5116209
7.5710695
7.643322
7.7352195
7.853094
8.0042616
8.1622725
8.3441889
8.600986
9.5395316
9.5939869
11.431944
10.586255
9.9815459
9.5321379
9.1843456
8.9067058
8.680018
8.4916945
8.3331145
8.1981277
8.082206
7.9820676
7.8948176
7.8184999
7.7514376
7.6921724
7.6396486
7.5928887
7.5514599
7.5144861
7.4812675
7.4514684
7.4250985
7.401756
7.3807775
7.3623006
7.3466399
7.3336919
7.3237808
7.3172565
7.3146113
7.3187799
7.3293598
7.3459685
7.3677262
7.3955438
7.4270838
7.4667401
7.5193836
7.5761578
7.6564949
7.7509929
7.8818864
8.0276531
8.189763
8.3784265
8.6435051
9.7016878
9.679336
11.390487
10.507978
9.8929161
9.4435866
9.0995988
8.8270777
8.6058049
8.422812
8.2693406
8.1391555
8.0277128
7.9317169
7.8483225
7.7755575
7.7117652
7.6555425
7.6058052
7.5616184
7.5227167
7.4879358
7.456682
7.4287955
7.404348
7.3826197
7.3631782
7.3460726
7.3317861
7.3204785
7.3120156
7.3065307
7.3060597
7.3115828
7.3247233
7.3429144
7.3666366
7.3953764
7.4288607
7.4722584
7.5233183
7.585356
7.6725474
7.7594757
7.9089418
8.054966
8.2261164
8.4196139
8.7064966
9.8131474
9.7920946
11.343888
10.425919
9.8038141
9.3565899
9.0173906
8.7504333
8.5347396
8.3570734
8.2086858
8.083155
7.9760576
7.8840447
7.8043386
7.7349428
7.6742561
7.6208839
7.5738247
7.5321137
7.4954845
7.4627018
7.4333093
7.4072721
7.3845484
7.3643529
7.3462276
7.3305795
7.3177773
7.3077597
7.3003998
7.2963925
7.2981491
7.3052589
7.3202261
7.3404112
7.3659143
7.3959347
7.4321269
7.4776076
7.5286989
7.597402
7.6733973
7.7882967
7.9288932
8.087843
8.2615048
8.4666087
8.8434617
9.9772202
9.9363265
11.302791
10.350463
9.7199465
9.2744446
8.9400626
8.6785544
8.4682165
8.2956348
8.1520356
8.0308937
7.9278175
7.8395134
7.7632615
7.6969664
7.6391722
7.5884441
7.5437825
7.504404
7.469844
7.4389208
7.4113268
7.3869712
7.3657042
7.3469283
7.330133
7.3157415
7.3043242
7.2955772
7.2894755
7.2870215
7.2900068
7.298697
7.3164511
7.3386698
7.3650176
7.3968596
7.4361529
7.481777
7.537754
7.6075195
7.7071101
7.8232601
7.9376663
8.1162944
8.3034386
8.5079756
8.8345494
10.324637
10.132527
11.225549
10.248205
9.6264221
9.1889177
8.8617836
8.6069934
8.4027589
8.2356811
8.0969837
7.9803723
7.8813307
7.7966577
7.7238361
7.6605702
7.6055645
7.557402
7.5150511
7.4778367
7.4451883
7.4160653
7.3901427
7.3674571
7.3476474
7.3300739
7.3145389
7.30137
7.2911306
7.2835623
7.2789908
7.2781548
7.2823363
7.2933297
7.3132463
7.3367821
7.3651021
7.3993953
7.4401405
7.4873959
7.5453863
7.6208551
7.6998212
7.8506103
7.9877667
8.1664634
8.3798953
8.6206143
8.9020221
10.484663
10.390819
11.243883
10.216327
9.5725784
9.1316554
8.8057266
8.5535304
8.3523408
8.1884952
8.052871
7.9392926
7.8430979
7.7610341
7.6906614
7.6297139
7.5768284
7.5305963
7.4900943
7.454629
7.4235013
7.3957651
7.3712959
7.3498661
7.3311507
7.3147299
7.3003393
7.2881752
7.2788577
7.2722016
7.2688549
7.2693294
7.2743127
7.2870473
7.308226
7.3349018
7.364674
7.4002348
7.4417599
7.4930273
7.5531891
7.6321513
7.7394058
7.89151
7.9813722
8.1942228
8.3972473
8.7030914
9.0842423
10.52445
10.702513
34.431916
20.622136
11.235021
9.614006
9.5641022
9.4758739
9.3513029
9.1110058
8.8749882
8.6228067
8.3983104
8.1833092
8.014585
7.8522814
7.705149
7.5634849
7.4205079
7.2825239
7.1636877
7.0647041
6.9791409
6.9148344
6.8642532
6.8271141
6.8002941
6.7814318
6.7665016
6.7551816
6.7455521
6.7388456
6.7334573
6.7292976
6.7266204
6.7255275
6.7263781
6.7294627
6.7353367
6.7446254
6.7581809
6.7770435
6.8027724
6.8374861
6.8841686
6.9467984
7.0318427
7.1492652
7.3183751
7.5796987
8.0872786
34.240605
17.066857
10.545308
9.4390185
9.5345666
9.4204833
9.2900347
9.0389729
8.8076807
8.5564115
8.3443844
8.1288461
7.9636951
7.8153585
7.68456
7.5473393
7.4132964
7.2774646
7.1583958
7.0619838
6.9840065
6.9247781
6.8763108
6.8401314
6.8141722
6.7971201
6.7825405
6.7716236
6.7623698
6.7561349
6.750769
6.7468763
6.7442553
6.7432633
6.7441667
6.747433
6.7534751
6.7629179
6.7766472
6.7957268
6.8217442
6.8567607
6.9038106
6.9669136
7.052554
7.1707693
7.3410039
7.6040455
8.1175113
34.324726
15.594366
10.213107
9.4442598
9.5046055
9.3716307
9.2477849
8.9789315
8.7657195
8.522479
8.3256921
8.1104645
7.9457069
7.7967513
7.6757123
7.5408515
7.4079126
7.281611
7.1645966
7.0683017
6.9928207
6.9365323
6.8885625
6.8534201
6.8285382
6.812352
6.7979309
6.7874509
6.7785182
6.7725686
6.7672897
6.7637764
6.7612419
6.7603929
6.7613515
6.7648045
6.7710322
6.7806544
6.7945884
6.8139184
6.8402627
6.8756329
6.9231017
6.9867321
7.0730244
7.192095
7.3635102
7.6282275
8.1409807
33.5926
15.700875
10.277531
9.3800854
9.5208142
9.2965339
9.1732838
8.9102942
8.7097655
8.4803421
8.3013076
8.094831
7.9289058
7.7682363
7.6374556
7.5142093
7.4080122
7.2857817
7.1727079
7.0730661
6.9985049
6.9460418
6.9005093
6.8664197
6.8425084
6.8269367
6.8127113
6.8027535
6.7941241
6.7882934
6.7833115
6.7802107
6.7778349
6.7771905
6.7782704
6.781939
6.7883935
6.7982538
6.8124551
6.8321049
6.8588476
6.8946629
6.9426516
7.0069173
7.0939872
7.2140665
7.3868605
7.6535491
8.1684019
33.14272
14.762581
10.069496
9.4256933
9.4886181
9.2794285
9.1397576
8.8565885
8.6685823
8.4407779
8.2753029
8.0828612
7.924729
7.7482835
7.6182682
7.5055152
7.3947072
7.2858146
7.1779371
7.0780787
7.004274
6.9556047
6.9128351
6.8797308
6.8565616
6.8413324
6.8273148
6.8176919
6.8093533
6.8036188
6.7990686
6.7962774
6.7941324
6.793738
6.7950322
6.798928
6.8056355
6.8157878
6.8303058
6.8503375
6.8775329
6.9138695
6.9624643
7.0274529
7.1154047
7.236615
7.4109407
7.6797953
8.1962298
32.835738
14.887026
10.128335
9.4603177
9.5063865
9.2612862
9.1036744
8.8131874
8.6186364
8.3907539
8.2281384
8.0380949
7.8993941
7.7332899
7.6008125
7.489225
7.3870712
7.2797063
7.1792267
7.0861204
7.0127551
6.9649982
6.9248499
6.8931254
6.8708234
6.8555684
6.8417395
6.8323838
6.8243762
6.8187188
6.8146527
6.812074
6.8102034
6.8100937
6.81172
6.8158554
6.8228469
6.8333469
6.8482327
6.8687096
6.8964126
6.9333463
6.9826329
7.0484383
7.1373785
7.2598495
7.4358708
7.7071126
8.2256815
32.03552
14.024802
10.048422
9.5187874
9.4947031
9.2375069
9.0721856
8.7789243
8.5782776
8.35416
8.1993274
8.0035479
7.879548
7.7244425
7.5963509
7.4789676
7.3738103
7.2737409
7.1795345
7.092131
7.0216413
6.9747014
6.9362233
6.9058174
6.8846362
6.8693451
6.8560344
6.8468731
6.8392482
6.8337809
6.8301419
6.8276927
6.8261204
6.826317
6.8283883
6.8327856
6.8400982
6.8509987
6.8663064
6.8872896
6.9155553
6.9531599
7.0032215
7.069939
7.1599728
7.2838351
7.4617144
7.7355621
8.2565095
31.618308
14.123358
10.132604
9.5480844
9.5314875
9.2096312
9.0469953
8.7530041
8.5388049
8.3172622
8.1716457
7.9783862
7.8487037
7.7086135
7.5943058
7.4713979
7.3677551
7.2679837
7.1756031
7.0958452
7.0304579
6.9853621
6.946591
6.9169453
6.897957
6.8827394
6.8701799
6.8612588
6.8540956
6.8488901
6.8455217
6.8432298
6.8419592
6.8424745
6.8450626
6.8497662
6.8574462
6.8687968
6.8845849
6.9061333
6.9350208
6.9733686
7.0242892
7.0920151
7.1832528
7.3086391
7.4885469
7.7652246
8.2888994
30.932797
13.306869
10.100133
9.5955728
9.5418889
9.1891974
9.0304561
8.7290334
8.5195847
8.2869097
8.1472952
7.969757
7.8322603
7.6912308
7.5896936
7.468639
7.3644049
7.2643728
7.1725317
7.0981791
7.0383924
6.9966132
6.9570093
6.9272659
6.9105094
6.8957466
6.8841449
6.8754336
6.868789
6.8639374
6.8607304
6.8586967
6.8577251
6.8585706
6.86171
6.866778
6.874883
6.8867344
6.9030693
6.9252416
6.9548181
6.993984
7.0458542
7.1146895
7.2072523
7.3343036
7.5164229
7.7961695
8.3229299
30.883747
13.386547
10.187458
9.6270802
9.5482894
9.174858
9.0154905
8.7050796
8.5134607
8.2567274
8.1130633
7.9539902
7.8182558
7.6733406
7.571962
7.4671934
7.3654772
7.2639567
7.1719268
7.1001478
7.0454865
7.0071692
6.9673901
6.9378161
6.9224967
6.9085567
6.8978839
6.8894494
6.8833412
6.8788896
6.8757968
6.8741419
6.8734843
6.8746797
6.8783633
6.8838678
6.8924518
6.9048541
6.9218044
6.9446586
6.9749961
7.0150549
7.0679675
7.138014
7.2320245
7.3608865
7.545402
7.828458
8.3585168
30.211001
12.040214
10.204805
9.6495154
9.5233038
9.1434698
8.9802801
8.6690162
8.5106395
8.2345498
8.0898165
7.9280195
7.8068581
7.6626558
7.5580731
7.4619635
7.3658495
7.2645602
7.1724159
7.1026174
7.0537146
7.0172339
6.9778277
6.9495103
6.9345202
6.921481
6.9115155
6.9034261
6.8977562
6.8937221
6.8908346
6.8896391
6.8893244
6.8909256
6.8951277
6.9011335
6.9102478
6.9232481
6.9408824
6.9644781
6.9956512
7.0366801
7.0907273
7.1620895
7.2576718
7.3884982
7.5755973
7.8622256
8.3960378
30.31677
12.115672
10.231432
9.6191006
9.5190686
9.127725
8.9430681
8.6325092
8.4806392
8.2195666
8.0769313
7.8969221
7.7871631
7.651721
7.5473348
7.4533249
7.3632335
7.2659108
7.1781428
7.1090655
7.0626021
7.0270865
6.988826
6.9616271
6.9467531
6.9345032
6.9249632
6.9173417
6.9119957
6.9084268
6.9058801
6.9051637
6.9052403
6.9073433
6.9120518
6.9185999
6.928298
6.941947
6.9603321
6.9847339
7.0168215
7.0589027
7.114179
7.1869661
7.2842489
7.4172002
7.6070728
7.8975486
8.4354545
28.833249
11.097149
10.166256
9.6016851
9.5276936
9.130588
8.9176691
8.6047541
8.4225722
8.20449
8.061938
7.8790411
7.7672604
7.6400995
7.5408557
7.4434227
7.3579523
7.2676194
7.1842197
7.1201
7.0703663
7.0352761
7.0000145
6.9738652
6.9588691
6.9473351
6.9382266
6.9312198
6.9260497
6.9229844
6.9209026
6.9206525
6.9211691
6.9238706
6.9291266
6.9362303
6.9465752
6.9609293
6.9801337
7.0054164
7.0385046
7.0817305
7.1383367
7.2126679
7.3117906
7.4470385
7.6398901
7.9345151
8.4769252
28.126802
11.157317
10.223458
9.577955
9.4799148
9.1472215
8.9007662
8.5990694
8.3850128
8.1850136
8.0316723
7.870322
7.7490952
7.6277182
7.5347339
7.4339522
7.3529322
7.2721939
7.1898328
7.1302641
7.0789459
7.0417276
7.0094534
6.9860811
6.9710821
6.9597958
6.9512074
6.9450394
6.9400724
6.9374801
6.9359351
6.9361389
6.9371463
6.9404976
6.9463807
6.9540594
6.9651163
6.9802361
7.0003281
7.0265686
7.0607464
7.1052153
7.1632551
7.2392516
7.3403573
7.4780786
7.6741306
7.9732075
8.5203889
26.908843
10.813431
10.167121
9.5951339
9.4462448
9.1392528
8.8569317
8.5945698
8.3607954
8.1680207
8.0032742
7.8637028
7.7349124
7.6183635
7.5270115
7.4282346
7.3473749
7.2746431
7.1964329
7.1350618
7.0866854
7.0499841
7.0167921
6.9974724
6.9834748
6.9722658
6.9640686
6.958754
6.9542664
6.9521079
6.9510506
6.9517462
6.9533153
6.957298
6.9638732
6.9721774
6.9840219
6.9999662
7.0210065
7.0482878
7.0836417
7.1294563
7.1890358
7.2668215
7.3700603
7.5104434
7.7099267
8.0137797
8.5662161
25.878183
10.865968
10.244934
9.6057824
9.4466984
9.0964038
8.7993915
8.5654207
8.3261247
8.1441708
7.9762902
7.8525407
7.7234854
7.6118967
7.5143592
7.4231928
7.344336
7.2695969
7.2010419
7.1381198
7.0913148
7.0594907
7.0253849
7.0077161
6.9955063
6.9849673
6.9771832
6.9722677
6.9685114
6.9669137
6.9662494
6.9674856
6.969693
6.9743307
6.9816002
6.9905844
7.0033005
7.0201443
7.042188
7.0705945
7.1072166
7.1544843
7.2157163
7.2954243
7.4009618
7.5442003
7.7473532
8.0563244
8.6143895
24.907396
10.948313
10.256231
9.6273988
9.4591333
9.0742923
8.7678341
8.5408854
8.2872991
8.1230021
7.9469922
7.8310812
7.7094198
7.6075606
7.5066253
7.4162825
7.3434873
7.2659635
7.2019426
7.1438052
7.0957394
7.066665
7.0357741
7.0185015
7.0070412
6.9975824
6.9905089
6.9858245
6.9826263
6.9817538
6.9815704
6.9833455
6.9862325
6.9916287
6.9996121
7.0092749
7.0229369
7.0407805
7.063883
7.0935009
7.1314905
7.1803233
7.2433264
7.3251071
7.4331148
7.5794146
7.7865007
8.1009537
8.6650799
23.973578
10.835721
10.208728
9.6459459
9.3803916
9.0393873
8.7433723
8.5307806
8.2643546
8.1128325
7.9256777
7.8150333
7.6928663
7.5918439
7.5018703
7.4106659
7.3408225
7.2685714
7.2008548
7.1497418
7.1037015
7.0733241
7.0455967
7.029962
7.0190782
7.0100441
7.0036196
6.9996072
6.9967633
6.9965007
6.9970619
6.9993862
7.0029681
7.0091906
7.0179827
7.0283651
7.043005
7.0619253
7.0861561
7.117071
7.1565284
7.207041
7.2719399
7.3559477
7.4666098
7.6161878
7.8274816
8.1478031
8.7184659
23.03546
10.623894
10.154393
9.6502453
9.3169788
8.9994739
8.7067609
8.492258
8.2350971
8.0929665
7.9107747
7.8057946
7.6819763
7.5787294
7.4919921
7.4056751
7.3333536
7.2731521
7.2044672
7.1541486
7.1110641
7.082271
7.0554654
7.0408971
7.0315649
7.0229242
7.0164841
7.0133134
7.0111994
7.0112142
7.0126838
7.0156999
7.0199773
7.0270177
7.0367374
7.0479588
7.0635613
7.083631
7.1090839
7.1413845
7.1824107
7.2347235
7.3016535
7.3880531
7.5015499
7.6546428
7.8704341
8.1970429
8.7748526
22.058201
10.649071
10.191753
9.6143904
9.2900522
8.991035
8.6811262
8.4787501
8.2047002
8.068191
7.8832182
7.796824
7.67322
7.5743352
7.4815592
7.4030733
7.3294819
7.2715302
7.2092337
7.1580945
7.116406
7.0905588
7.0667074
7.0515565
7.0432543
7.0361782
7.0298325
7.0267267
7.0258283
7.0261145
7.0283973
7.0322338
7.0373427
7.0451111
7.055838
7.0680166
7.0846292
7.1059273
7.1326941
7.1664817
7.2091808
7.2634142
7.3325359
7.4214991
7.5380263
7.6948674
7.9154637
8.2488136
8.8344494
21.15792
10.496959
10.209602
9.6035529
9.2700726
8.9905339
8.6454152
8.4802421
8.184993
8.0670097
7.8586732
7.7769834
7.6583844
7.5673874
7.4719082
7.4062214
7.3321239
7.2664929
7.2113297
7.1607531
7.1227505
7.097861
7.0778734
7.0630566
7.0538135
7.0488916
7.0438054
7.0404072
7.0404505
7.0412977
7.0442227
7.0489266
7.0550476
7.063521
7.0752654
7.0885209
7.1062378
7.1288315
7.1570012
7.1923877
7.2368738
7.2931543
7.3646326
7.456342
7.5761308
7.7369627
7.9626958
8.3032833