/*--------------------------------*- C++ -*----------------------------------*\
| =========                 |                                                 |
| \\      /  F ield         | OpenFOAM: The Open Source CFD Toolbox           |
|  \\    /   O peration     | Version:  2506                                  |
|   \\  /    A nd           | Website:  www.openfoam.com                      |
|    \\/     M anipulation  |                                                 |
\*---------------------------------------------------------------------------*/
FoamFile
{
    version     2.0;
    format      ascii;
    arch        "LSB;label=32;scalar=64";
    class       volScalarField;
    location    "0.35";
    object      alphat;
}
// * * * * * * * * * * * * * * * * * * * * * * * * * * * * * * * * * * * * * //

dimensions      [1 -1 -1 0 0 0 0];

internalField   nonuniform List<scalar> 
1376
(
0.041456298
0.050498003
0.063492193
0.076992046
0.042413642
0.051587079
0.06467768
0.078174476
0.090507433
0.10082999
0.1088178
0.11453759
0.11832089
0.12067455
0.043419105
0.052753818
0.065943856
0.079426571
0.091642576
0.10177935
0.10954991
0.11505434
0.11865123
0.12086292
0.12193886
0.12231317
0.12234898
0.12223653
0.1220838
0.044467936
0.053994729
0.06729581
0.080760405
0.092845536
0.1027782
0.11031345
0.11558668
0.11898384
0.12104782
0.12200212
0.12231617
0.12232269
0.12220141
0.12205073
0.12191471
0.1218073
0.12172818
0.12167189
0.045539735
0.055277879
0.068708515
0.082161594
0.094110353
0.10382526
0.11110952
0.11613927
0.1193218
0.12123247
0.12206211
0.12231652
0.12229534
0.12216632
0.12201806
0.12188847
0.12178811
0.12171501
0.12166211
0.12162142
0.12159849
0.12159016
0.12158037
0.04660471
0.056545812
0.070122961
0.08358213
0.095402468
0.10489709
0.11191887
0.11669129
0.11965827
0.12141554
0.12211971
0.1223153
0.12226797
0.12213224
0.12198672
0.12186328
0.12176933
0.12170127
0.12165148
0.12161518
0.12159761
0.12159047
0.12158157
0.12157523
0.12157038
0.12156665
0.12156392
0.047636844
0.05773797
0.071460532
0.084944805
0.096656413
0.10594576
0.11271155
0.11722252
0.11998596
0.12158704
0.1221731
0.1223123
0.12224103
0.1220999
0.1219576
0.12184011
0.1217518
0.12168783
0.12164154
0.12161093
0.12159734
0.12159041
0.1215827
0.12157734
0.1215735
0.12157045
0.12156782
0.12156541
0.1215647
0.12156464
0.048626121
0.058826123
0.072668279
0.086182888
0.097804623
0.10691073
0.1134473
0.11771899
0.12029388
0.12173661
0.12221853
0.12230622
0.12221428
0.12206949
0.12193103
0.12181932
0.12173597
0.12167571
0.12163389
0.12160907
0.12159785
0.12159028
0.12158363
0.12157961
0.12157666
0.12157436
0.12157237
0.12157091
0.12157021
0.12156981
0.12156933
0.12156973
0.12157059
0.049578954
0.059822385
0.073745629
0.087275817
0.098814435
0.10775408
0.11407897
0.11816162
0.12056645
0.12185827
0.12225185
0.12229519
0.12218675
0.12204043
0.12190666
0.12180089
0.12172248
0.12166637
0.12162939
0.12160914
0.12159896
0.12159086
0.12158587
0.1215824
0.12158016
0.1215785
0.12157727
0.12157666
0.12157609
0.12157546
0.12157483
0.12157461
0.12157435
0.12157411
0.12157518
0.050511647
0.060760218
0.074730098
0.08825122
0.099701341
0.10848885
0.11462796
0.11853866
0.12079375
0.12195039
0.12227114
0.12227834
0.12215784
0.12201201
0.12188368
0.12178421
0.12171145
0.12166049
0.12162793
0.12161021
0.12160069
0.12159366
0.12158896
0.12158593
0.12158406
0.12158289
0.12158226
0.12158208
0.12158161
0.12158093
0.12158031
0.12157981
0.12157897
0.12157802
0.12157773
0.12157793
0.12158083
0.1215857
0.051445209
0.061677149
0.075667525
0.089154495
0.10050275
0.10914117
0.11511361
0.11885099
0.12097398
0.12201503
0.122277
0.12225618
0.1221278
0.12198432
0.12186228
0.12176973
0.12170344
0.12165789
0.12162979
0.12161418
0.12160443
0.12159739
0.121593
0.12159024
0.12158857
0.12158767
0.12158729
0.12158711
0.12158662
0.12158599
0.12158546
0.12158482
0.12158372
0.12158234
0.121581
0.12157998
0.12158071
0.12158329
0.1215909
0.12163391
0.05240419
0.062612002
0.076602892
0.090031561
0.10125916
0.10973777
0.11554175
0.11911064
0.12111474
0.12205821
0.12227267
0.12223066
0.12209776
0.1219581
0.12184305
0.12175784
0.12169785
0.12165882
0.1216341
0.1216185
0.12160875
0.12160209
0.12159793
0.12159542
0.1215938
0.12159286
0.12159232
0.12159183
0.12159112
0.1215904
0.12158975
0.12158893
0.12158788
0.12158656
0.12158495
0.12158324
0.12158269
0.12158338
0.12158572
0.12159948
0.12166091
0.12175951
0.053417664
0.063605575
0.077581539
0.090927634
0.10201056
0.11031012
0.11592844
0.11933839
0.12123102
0.12208853
0.12226344
0.12220529
0.12207059
0.12193604
0.12182829
0.12175041
0.12169818
0.12166302
0.12163861
0.12162322
0.12161353
0.12160727
0.12160351
0.12160117
0.12159959
0.12159846
0.12159753
0.12159654
0.12159539
0.12159428
0.12159328
0.12159231
0.12159145
0.12159037
0.12158886
0.12158725
0.12158607
0.12158521
0.12158539
0.12158893
0.12161346
0.12169893
0.12180983
0.054521815
0.064701421
0.07864974
0.091887666
0.10279625
0.11089173
0.11630901
0.11955892
0.1213407
0.12211544
0.12225542
0.12218438
0.12204992
0.12192166
0.12182214
0.1217517
0.12170347
0.12166768
0.12164366
0.12162842
0.1216188
0.12161291
0.12160937
0.12160715
0.12160564
0.12160441
0.12160319
0.12160175
0.12160007
0.12159836
0.12159679
0.12159546
0.12159451
0.12159362
0.12159234
0.1215909
0.12158936
0.12158808
0.12158712
0.12158738
0.12159431
0.12164048
0.1217505
0.12188075
0.12203837
0.055762816
0.065945091
0.079852072
0.092953581
0.10365273
0.11151277
0.11671425
0.11979215
0.12145784
0.12214662
0.12225383
0.12217175
0.12203869
0.1219169
0.12182417
0.12175914
0.12170943
0.12167361
0.12164955
0.12163421
0.12162479
0.12161905
0.1216156
0.1216135
0.12161208
0.12161089
0.12160962
0.12160801
0.12160604
0.1216038
0.1216016
0.12159962
0.12159799
0.12159671
0.12159538
0.12159394
0.12159224
0.1215909
0.12158957
0.12158837
0.12158955
0.12160602
0.12168918
0.12182159
0.12197512
0.12214338
0.057198974
0.067381315
0.081225141
0.094157525
0.10460783
0.11219588
0.11715133
0.12004531
0.12158715
0.1221857
0.12226087
0.12216865
0.1220371
0.12192075
0.12183268
0.12176698
0.12171725
0.12168159
0.12165729
0.12164162
0.12163197
0.1216261
0.12162257
0.12162039
0.12161895
0.12161787
0.1216168
0.12161541
0.1216136
0.12161138
0.12160881
0.1216061
0.12160346
0.1216011
0.12159892
0.12159687
0.12159483
0.12159321
0.12159182
0.1215899
0.1215893
0.12159476
0.12163704
0.12176241
0.12191314
0.1220798
0.12214176
0.12135758
0.058902973
0.069052339
0.082789572
0.095509621
0.10566794
0.1129455
0.11762901
0.12031208
0.12172398
0.12223141
0.12227517
0.12217332
0.12204231
0.12192877
0.12184187
0.12177595
0.12172731
0.12169218
0.12166759
0.12165111
0.12164048
0.1216338
0.12162963
0.12162703
0.1216255
0.12162463
0.12162399
0.12162328
0.1216223
0.12162062
0.12161814
0.12161501
0.12161149
0.12160774
0.12160402
0.1216004
0.12159716
0.12159473
0.12159308
0.12159132
0.12158991
0.12159209
0.12160888
0.12169949
0.12185337
0.12201416
0.12206913
0.12120843
0.11371959
0.060967151
0.071004288
0.0845531
0.096994948
0.10681075
0.11373717
0.11811344
0.12057901
0.12185819
0.12227793
0.12229199
0.12218138
0.12205015
0.12193777
0.12185125
0.1217868
0.12173951
0.12170481
0.12167958
0.12166164
0.12164921
0.12164101
0.12163595
0.121633
0.12163138
0.12163064
0.12163043
0.1216303
0.12162975
0.12162852
0.12162651
0.12162378
0.12162028
0.12161585
0.12161063
0.12160482
0.12159944
0.12159537
0.12159298
0.12159156
0.12159019
0.12159062
0.12159834
0.121645
0.12178995
0.12194888
0.12199626
0.12105352
0.11300837
0.063512126
0.073299709
0.086526802
0.098589261
0.10799188
0.11452935
0.118566
0.12083231
0.1219782
0.12231794
0.1223063
0.12218886
0.1220574
0.12194573
0.12186003
0.12179729
0.12175151
0.12171739
0.12169133
0.12167149
0.12165683
0.12164696
0.12164082
0.1216375
0.12163574
0.12163512
0.12163505
0.12163514
0.12163517
0.12163453
0.12163303
0.12163057
0.12162701
0.12162247
0.12161701
0.12161021
0.12160258
0.12159591
0.1215919
0.1215901
0.12158876
0.12158863
0.12159325
0.12161469
0.12171966
0.12188557
0.1219279
0.12090225
0.11238486
0.066697587
0.076033236
0.088745977
0.10028866
0.10918238
0.11527987
0.11900829
0.12105846
0.12207203
0.12234299
0.12231177
0.12219176
0.12206213
0.12195175
0.1218662
0.12180359
0.12175856
0.12172493
0.1216985
0.12167753
0.12166162
0.12165033
0.12164354
0.12163972
0.12163784
0.12163698
0.12163648
0.1216367
0.12163684
0.1216365
0.12163572
0.12163422
0.12163175
0.12162774
0.12162204
0.12161502
0.12160679
0.12159808
0.12159135
0.12158743
0.12158579
0.1215855
0.121589
0.12160203
0.12165519
0.12181886
0.12186276
0.12075767
0.11269887
0.070729859
0.079345437
0.091286057
0.10212941
0.11040661
0.11600847
0.11942818
0.12124452
0.12212891
0.12234657
0.12230316
0.12218518
0.1220603
0.1219536
0.12187046
0.12180789
0.1217621
0.12172751
0.12170006
0.12167822
0.1216616
0.12165
0.12164272
0.1216385
0.12163639
0.12163555
0.1216357
0.121636
0.1216361
0.12163608
0.12163588
0.12163507
0.12163334
0.12163048
0.12162635
0.12161984
0.12161129
0.12160175
0.12159259
0.1215861
0.12158204
0.12158126
0.12158443
0.12159434
0.12161551
0.12173617
0.12179727
0.12061674
0.11212907
0.07585067
0.083422229
0.094262969
0.10418039
0.11171292
0.11676718
0.11980699
0.12138416
0.12214216
0.12232371
0.1222764
0.12216614
0.12204986
0.12194885
0.12186837
0.12180742
0.12176185
0.12172709
0.12169956
0.121677
0.12165951
0.12164734
0.12163963
0.12163542
0.1216332
0.12163232
0.12163245
0.12163284
0.12163319
0.12163323
0.1216331
0.12163289
0.12163236
0.1216313
0.12162864
0.12162359
0.12161592
0.12160669
0.12159624
0.12158643
0.12157999
0.12157715
0.12157959
0.12158815
0.12159912
0.12166149
0.12172742
0.12048551
0.11148399
0.082283189
0.088460466
0.097811101
0.10652054
0.1131383
0.11754658
0.12014357
0.12147716
0.12210969
0.12227067
0.1222271
0.12212972
0.12202519
0.12193283
0.121858
0.12179998
0.12175593
0.12172189
0.1216943
0.12167158
0.12165379
0.12164123
0.12163354
0.12162941
0.12162746
0.12162706
0.12162774
0.12162871
0.12162922
0.1216293
0.12162903
0.12162884
0.1216291
0.12162956
0.12162897
0.12162572
0.1216197
0.12161137
0.1216011
0.12158994
0.12158009
0.12157492
0.12157524
0.12158227
0.12159156
0.12162472
0.12164977
0.12036496
0.11165774
0.090107783
0.094577916
0.10202588
0.10920575
0.11470584
0.11833705
0.12045247
0.12153327
0.12203799
0.12218758
0.12215347
0.12207344
0.12198457
0.12190339
0.12183573
0.12178211
0.12174055
0.12170794
0.12168137
0.12165971
0.1216429
0.12163104
0.121624
0.12162047
0.1216194
0.12162013
0.1216218
0.12162348
0.12162467
0.12162518
0.12162516
0.1216249
0.12162513
0.12162629
0.12162729
0.12162586
0.12162141
0.12161466
0.12160579
0.12159517
0.12158433
0.12157547
0.12157258
0.12157676
0.1215852
0.12160948
0.12157993
0.12022445
0.11105649
0.0990278
0.10164092
0.10685748
0.11221028
0.11640456
0.11916765
0.12075384
0.12157091
0.12194526
0.12208028
0.12205932
0.12199864
0.12192737
0.12185944
0.1218008
0.12175279
0.12171458
0.12168425
0.12165992
0.12164062
0.12162615
0.12161631
0.12161073
0.1216086
0.12160905
0.12161118
0.12161401
0.12161693
0.12161946
0.12162104
0.12162145
0.12162133
0.12162175
0.12162321
0.12162475
0.12162428
0.12162099
0.12161587
0.12160936
0.12160065
0.1215902
0.12158017
0.1215733
0.12157346
0.12157959
0.12160171
0.1215316
0.12004173
0.11068813
0.10804874
0.109007
0.11194479
0.11533737
0.11813014
0.12000666
0.12104931
0.12160244
0.12185284
0.12195771
0.12195229
0.12191043
0.12185687
0.12180295
0.12175446
0.12171355
0.12168012
0.12165326
0.12163201
0.12161588
0.12160474
0.12159806
0.12159509
0.12159509
0.12159736
0.12160095
0.12160531
0.12160972
0.12161359
0.12161629
0.12161765
0.12161836
0.1216191
0.1216202
0.12162164
0.12162174
0.12161968
0.12161601
0.12161077
0.12160386
0.1215956
0.12158641
0.12157846
0.1215748
0.12157721
0.1215998
0.12151051
0.11984425
0.1102617
0.11543381
0.11539152
0.11650232
0.11815117
0.11965295
0.12070703
0.12130687
0.121624
0.12177082
0.12183451
0.12184177
0.12181692
0.12178019
0.12174049
0.12170317
0.12167069
0.12164342
0.12162117
0.12160417
0.12159254
0.12158545
0.12158206
0.12158165
0.12158356
0.12158704
0.12159162
0.12159686
0.12160211
0.12160674
0.1216102
0.12161247
0.12161425
0.12161584
0.12161758
0.12161874
0.12161911
0.1216181
0.12161542
0.12161114
0.12160542
0.12159864
0.12159133
0.12158443
0.12157874
0.12157849
0.12159926
0.12150677
0.11983083
0.11011619
0.11975989
0.11950462
0.11965877
0.12016112
0.12073234
0.12118416
0.12148118
0.12162227
0.12169475
0.12172787
0.12173842
0.12172908
0.12170781
0.12168205
0.12165656
0.12163363
0.12161407
0.12159838
0.12158707
0.12157975
0.12157546
0.12157371
0.12157418
0.12157658
0.12158018
0.12158466
0.12158973
0.12159493
0.1215997
0.1216036
0.12160665
0.12160935
0.1216118
0.12161409
0.12161591
0.1216166
0.12161621
0.12161438
0.12161095
0.12160628
0.12160089
0.12159475
0.12158808
0.12158317
0.12158243
0.12160052
0.12150924
0.11982314
0.10974145
0.12129005
0.12116244
0.12111716
0.12117502
0.12129828
0.12143305
0.12154939
0.12159965
0.1216321
0.12165113
0.12165991
0.12165737
0.12164877
0.12163575
0.12162195
0.12160925
0.12159822
0.12158903
0.12158177
0.12157609
0.12157238
0.12157072
0.12157102
0.1215729
0.12157592
0.12157977
0.12158421
0.12158895
0.12159358
0.12159766
0.12160112
0.12160438
0.12160751
0.12161036
0.12161261
0.12161408
0.12161443
0.12161343
0.12161104
0.12160746
0.12160286
0.12159746
0.1215922
0.12158912
0.12158586
0.12160352
0.12151085
0.11970517
0.1092088
0.12152368
0.12156176
0.12157703
0.12158422
0.12159236
0.12160113
0.12161272
0.12161256
0.12160917
0.12160433
0.12159902
0.12159333
0.12158807
0.12158278
0.12157783
0.1215741
0.12157185
0.12157102
0.1215717
0.12157368
0.12157676
0.1215806
0.12158484
0.12158911
0.12159313
0.12159676
0.1216003
0.12160378
0.12160694
0.12160941
0.12161144
0.12161269
0.12161271
0.12161099
0.12160807
0.12160475
0.12160029
0.12159586
0.12159356
0.12158915
0.12160755
0.12150793
0.11962808
0.10951402
0.12158369
0.12158747
0.12159155
0.1215934
0.12159428
0.12159449
0.12159111
0.1215863
0.12158126
0.1215772
0.12157435
0.12157304
0.12157318
0.12157448
0.12157663
0.1215796
0.12158308
0.12158676
0.12159046
0.12159404
0.12159755
0.12160109
0.12160433
0.12160705
0.12160923
0.12161065
0.12161114
0.12161054
0.12160902
0.12160592
0.12160201
0.12159889
0.12159708
0.12159375
0.12160864
0.12149857
0.11949297
0.10881057
0.12159432
0.12159422
0.12159054
0.12158584
0.12158213
0.12157876
0.12157662
0.12157573
0.12157611
0.12157765
0.1215798
0.12158254
0.12158576
0.12158935
0.12159299
0.12159649
0.12159989
0.12160298
0.12160563
0.12160761
0.12160897
0.12160969
0.12160949
0.12160869
0.12160699
0.12160379
0.12160044
0.12159826
0.12159636
0.12160677
0.12148801
0.11939697
0.10904332
0.12158664
0.12158361
0.12158112
0.1215795
0.12157891
0.12157956
0.12158059
0.12158249
0.12158528
0.12158871
0.12159234
0.12159583
0.12159905
0.12160198
0.12160451
0.12160638
0.12160765
0.12160838
0.12160827
0.12160756
0.12160652
0.12160417
0.12160091
0.12159959
0.12159772
0.12160601
0.12147778
0.11930045
0.10833816
0.12158159
0.12158207
0.12158328
0.12158537
0.12158787
0.12159101
0.12159429
0.12159745
0.12160051
0.121603
0.12160487
0.12160618
0.12160686
0.12160673
0.12160583
0.12160462
0.12160298
0.12160091
0.12160088
0.12159745
0.12160456
0.12146752
0.11921407
0.1088523
0.12158676
0.12158931
0.12159221
0.12159512
0.12159767
0.12160009
0.12160219
0.12160381
0.12160458
0.12160443
0.12160342
0.12160243
0.12160142
0.12160037
0.12160011
0.12159702
0.12160486
0.12145582
0.11909617
0.10825726
0.12159324
0.12159578
0.12159818
0.12159992
0.12160107
0.12160149
0.12160119
0.12160066
0.12160003
0.12159889
0.12159903
0.1215975
0.12160584
0.12144429
0.11896419
0.10785223
0.12159503
0.12159673
0.1215978
0.12159817
0.1215984
0.12159847
0.12159764
0.12159872
0.12159784
0.12160481
0.1214308
0.11884006
0.10837821
0.12159421
0.12159521
0.12159648
0.12159691
0.12159872
0.12159866
0.12160633
0.12141659
0.11868547
0.10834826
0.12159542
0.12159858
0.12159861
0.12160632
0.1214001
0.11850169
0.10804518
0.12160734
0.12138201
0.11832342
0.10783849
0.11813165
0.10772394
0.041863585
)
;

boundaryField
{
    Side
    {
        type            empty;
    }
    Inlet
    {
        type            calculated;
        value           nonuniform List<scalar> 
25
(
0.13254938
0.13254231
0.13254123
0.13254563
0.1325377
0.13253026
0.13253456
0.13253142
0.13253228
0.13254645
0.1325666
0.13259024
0.13261824
0.13264299
0.13266229
0.13267927
0.13269631
0.13271458
0.13273432
0.1327528
0.13277331
0.13279465
0.13281142
0.13282492
0.13283834
)
;
    }
    Airfoil
    {
        type            compressible::alphatWallFunction;
        value           nonuniform List<scalar> 0();
    }
    Outlet
    {
        type            calculated;
        value           nonuniform List<scalar> 0();
    }
    procBoundary12to4
    {
        type            processor;
        value           uniform 0.040890503;
    }
    procBoundary12to5
    {
        type            processor;
        value           nonuniform List<scalar> 
30
(
0.042832386
0.043787332
0.044732456
0.045677028
0.046632078
0.047607985
0.048614184
0.049655299
0.050728201
0.05182331
0.052930866
0.054052771
0.055210563
0.056447783
0.057829648
0.059441092
0.061388525
0.063807344
0.066870986
0.070797783
0.075838832
0.082222875
0.090031184
0.09896206
0.10800921
0.11541914
0.11976474
0.12127452
0.051465941
0.042832386
)
;
    }
    procBoundary12to6
    {
        type            processor;
        value           uniform 0.12153316;
    }
    procBoundary12to11
    {
        type            processor;
        value           nonuniform List<scalar> 
65
(
0.040536643
0.04947013
0.06236385
0.075851999
0.089424203
0.089424203
0.099913463
0.10810106
0.11402187
0.11798289
0.12047565
0.12186941
0.12186941
0.12230571
0.12237316
0.12227147
0.12211747
0.12194104
0.12194104
0.12182617
0.12174028
0.1216791
0.12163035
0.12163035
0.12160331
0.12158977
0.12157919
0.12157306
0.12157306
0.12156781
0.12156394
0.12156148
0.12156205
0.12156205
0.12156146
0.12156181
0.12156514
0.12156514
0.12156638
0.12156852
0.12157202
0.12157202
0.12157441
0.12157746
0.12157746
0.12158258
0.12160379
0.12161555
0.12161555
0.1216884
0.12172078
0.12172078
0.12181815
0.12187104
0.12187104
0.12194313
0.12194313
0.1221002
0.12220408
0.12220408
0.12221133
0.12221133
0.12150665
0.11344354
0.11344354
)
;
    }
    procBoundary12to13
    {
        type            processor;
        value           nonuniform List<scalar> 
60
(
0.12152822
0.12150558
0.12149446
0.12150004
0.12150004
0.12155535
0.12156155
0.12157198
0.12157387
0.12157606
0.1215785
0.1215785
0.12157849
0.12158252
0.1215883
0.12159207
0.12159426
0.12159426
0.12159298
0.12159554
0.12159402
0.12159067
0.12159067
0.12159041
0.1215884
0.12158613
0.12158426
0.12158245
0.12158245
0.12158399
0.12158357
0.12158383
0.12158487
0.12158487
0.12158452
0.12158642
0.12158873
0.12159115
0.12159115
0.12158847
0.12159093
0.12159334
0.12159334
0.12159085
0.1215927
0.12159392
0.12159392
0.1215913
0.12159205
0.1215935
0.1215935
0.12159388
0.12159784
0.12159953
0.12159953
0.12160715
0.12135517
0.12135517
0.11791382
0.107799
)
;
    }
}


// ************************************************************************* //
