/*--------------------------------*- C++ -*----------------------------------*\
| =========                 |                                                 |
| \\      /  F ield         | OpenFOAM: The Open Source CFD Toolbox           |
|  \\    /   O peration     | Version:  2506                                  |
|   \\  /    A nd           | Website:  www.openfoam.com                      |
|    \\/     M anipulation  |                                                 |
\*---------------------------------------------------------------------------*/
FoamFile
{
    version     2.0;
    format      ascii;
    arch        "LSB;label=32;scalar=64";
    class       volScalarField;
    location    "3e-05";
    object      Ma;
}
// * * * * * * * * * * * * * * * * * * * * * * * * * * * * * * * * * * * * * //

dimensions      [0 0 0 0 0 0 0];

internalField   nonuniform List<scalar> 
192657
(
0.29959238
0.29959231
0.29959231
0.29959231
0.29959231
0.29959231
0.29959231
0.29959231
0.29959231
0.29959231
0.29959231
0.29959231
0.29959231
0.29959231
0.29959231
0.29959231
0.29959231
0.29959231
0.29959231
0.29959231
0.29959231
0.29959231
0.29959231
0.29959231
0.29959231
0.29959231
0.29959231
0.29959231
0.29959231
0.29959231
0.29959231
0.29959231
0.29959231
0.29959231
0.29959231
0.29959231
0.29959231
0.29959231
0.29959231
0.29959231
0.29959231
0.29959231
0.29959231
0.29959231
0.29959231
0.29959231
0.29959231
0.29959231
0.29959231
0.29959231
0.29959231
0.29959231
0.29959231
0.2995923
0.2995923
0.29959229
0.2995923
0.2995923
0.2995923
0.29959231
0.29959231
0.29959231
0.29959231
0.29959231
0.29959231
0.2995923
0.2995923
0.2995923
0.2995923
0.2995923
0.2995923
0.2995923
0.2995923
0.29959231
0.29959231
0.29959231
0.29959231
0.29959231
0.29959231
0.29959232
0.29959232
0.29959232
0.29959232
0.2995923
0.29959211
0.2995905
0.29958083
0.29954481
0.29945224
0.29927309
0.29901489
0.29886298
0.29920342
0.30031735
0.3017641
0.30294274
0.303827
0.30461892
0.30526768
0.30584403
0.30640191
0.30693669
0.3076959
0.30698698
0.3023502
0.30151656
0.30491092
0.30725024
0.30889524
0.31030257
0.31155645
0.31268819
0.31370052
0.3145913
0.31535775
0.31599687
0.31650446
0.31687376
0.31710342
0.3172082
0.31721179
0.31713435
0.31699312
0.31680631
0.31659095
0.31636107
0.31612413
0.31588188
0.31562819
0.31535113
0.31503791
0.31467602
0.31426387
0.31381548
0.31336273
0.31295202
0.31264191
0.31247904
0.31239841
0.31192804
0.3096302
0.3025445
0.28682908
0.26065145
0.2259402
0.18623052
0.14404173
0.09412371
0.033054547
0.29959239
0.29959231
0.29959231
0.29959231
0.29959231
0.29959231
0.29959231
0.29959231
0.29959231
0.29959231
0.29959231
0.29959231
0.29959231
0.29959231
0.29959231
0.29959231
0.29959231
0.29959231
0.29959231
0.29959231
0.29959231
0.29959231
0.29959231
0.29959231
0.29959231
0.29959231
0.29959231
0.29959231
0.29959231
0.29959231
0.29959231
0.29959231
0.29959231
0.29959231
0.29959231
0.29959231
0.29959231
0.29959231
0.29959231
0.29959231
0.29959231
0.29959231
0.29959231
0.29959231
0.29959231
0.29959231
0.29959231
0.29959231
0.29959231
0.29959231
0.29959231
0.29959231
0.29959231
0.29959231
0.2995923
0.2995923
0.29959229
0.29959229
0.29959229
0.2995923
0.2995923
0.2995923
0.2995923
0.2995923
0.2995923
0.2995923
0.2995923
0.2995923
0.29959231
0.29959231
0.29959231
0.29959231
0.29959231
0.29959231
0.29959231
0.29959231
0.29959231
0.29959231
0.29959231
0.29959231
0.29959231
0.29959231
0.29959231
0.2995923
0.29959208
0.29959042
0.29958172
0.29955057
0.29946603
0.29927284
0.29892884
0.29854496
0.29843059
0.29880686
0.29961862
0.30076677
0.3017328
0.30253395
0.30316794
0.30368467
0.30414671
0.30453223
0.304654
0.3026144
0.29748335
0.29646865
0.29973698
0.30151588
0.30264316
0.30354041
0.304292
0.30491821
0.30543509
0.30585225
0.30618206
0.30643165
0.30660406
0.30669238
0.30671216
0.30667958
0.30660887
0.30651154
0.30639925
0.30628679
0.30618783
0.30611232
0.30606414
0.30604017
0.30602871
0.30601172
0.30596816
0.30587566
0.30571969
0.30549712
0.30521783
0.304903
0.30457985
0.3042481
0.30376039
0.30249127
0.29873522
0.28935321
0.27095692
0.2428345
0.20804249
0.17008954
0.1310274
0.084938917
0.029421175
0.29959241
0.29959231
0.29959231
0.29959231
0.29959231
0.29959231
0.29959231
0.29959231
0.29959231
0.29959231
0.29959231
0.29959231
0.29959231
0.29959231
0.29959231
0.29959231
0.29959231
0.29959231
0.29959231
0.29959231
0.29959231
0.29959231
0.29959231
0.29959231
0.29959231
0.29959231
0.29959231
0.29959231
0.29959231
0.29959231
0.29959231
0.29959231
0.29959231
0.29959231
0.29959231
0.29959231
0.29959231
0.29959231
0.29959231
0.29959231
0.29959231
0.29959231
0.29959231
0.29959231
0.29959231
0.29959231
0.29959231
0.29959231
0.29959231
0.29959231
0.29959231
0.29959231
0.29959231
0.29959231
0.29959231
0.2995923
0.2995923
0.2995923
0.29959229
0.29959229
0.29959229
0.29959229
0.29959229
0.29959229
0.29959229
0.29959229
0.29959229
0.29959229
0.29959229
0.2995923
0.2995923
0.2995923
0.2995923
0.29959231
0.29959231
0.29959231
0.29959231
0.29959231
0.29959231
0.29959231
0.29959231
0.29959231
0.29959231
0.2995923
0.2995921
0.29959049
0.29958173
0.29954977
0.29946257
0.29925653
0.2988591
0.29833943
0.29796636
0.29790919
0.29822741
0.29884838
0.2995398
0.30013789
0.30063669
0.30104374
0.30143196
0.30177688
0.30208173
0.30064541
0.29532884
0.29374564
0.29701253
0.29875796
0.29987305
0.30079188
0.30157175
0.30223103
0.30277109
0.30320176
0.30354219
0.30380556
0.3040075
0.30417804
0.30432378
0.30443779
0.30452105
0.30458129
0.30462749
0.30467176
0.30472507
0.30479483
0.30488288
0.30498495
0.30508925
0.30517781
0.30523029
0.30522502
0.30514623
0.30498959
0.30476504
0.304493
0.30419966
0.30388927
0.30343936
0.30229925
0.29887382
0.29006932
0.27238156
0.24475135
0.20992432
0.17161778
0.13202227
0.085389288
0.029543076
0.29959243
0.29959231
0.29959231
0.29959231
0.29959231
0.29959231
0.29959231
0.29959231
0.29959231
0.29959231
0.29959231
0.29959231
0.29959231
0.29959231
0.29959231
0.29959231
0.29959231
0.29959231
0.29959231
0.29959231
0.29959231
0.29959231
0.29959231
0.29959231
0.29959231
0.29959231
0.29959231
0.29959231
0.29959231
0.29959231
0.29959231
0.29959231
0.29959231
0.29959231
0.29959231
0.29959231
0.29959231
0.29959231
0.29959231
0.29959231
0.29959231
0.29959231
0.29959231
0.29959231
0.29959231
0.29959231
0.29959231
0.29959231
0.29959231
0.29959231
0.29959231
0.29959231
0.29959231
0.29959231
0.29959231
0.29959231
0.29959231
0.2995923
0.2995923
0.2995923
0.2995923
0.2995923
0.29959229
0.29959229
0.29959229
0.29959229
0.29959229
0.29959229
0.29959229
0.29959229
0.29959229
0.2995923
0.2995923
0.2995923
0.2995923
0.29959231
0.29959231
0.29959231
0.29959231
0.29959231
0.29959231
0.29959231
0.29959231
0.2995923
0.29959216
0.29959087
0.29958306
0.29955219
0.29946546
0.29926127
0.29886007
0.2982978
0.29779137
0.29756404
0.2976602
0.29794223
0.29827993
0.29859373
0.2988679
0.29907569
0.29927653
0.29942368
0.29951314
0.2981463
0.29276378
0.29038897
0.2932168
0.29503962
0.29607879
0.29692753
0.29766305
0.29829589
0.29884413
0.29931045
0.29971053
0.30004838
0.30033118
0.30056396
0.30075336
0.300907
0.30103722
0.30115516
0.30127038
0.30139399
0.30153535
0.30170014
0.30188859
0.30209464
0.30230447
0.30249756
0.30265053
0.3027404
0.3027518
0.30267882
0.30252731
0.30231233
0.30205317
0.30174168
0.30123024
0.29991846
0.29617892
0.28698264
0.26889937
0.24091908
0.20595981
0.16790677
0.12901452
0.083473457
0.028838982
0.29959244
0.29959231
0.29959231
0.29959231
0.29959231
0.29959231
0.29959231
0.29959231
0.29959231
0.29959231
0.29959231
0.29959231
0.29959231
0.29959231
0.29959231
0.29959231
0.29959231
0.29959231
0.29959231
0.29959231
0.29959231
0.29959231
0.29959231
0.29959231
0.29959231
0.29959231
0.29959231
0.29959231
0.29959231
0.29959231
0.29959231
0.29959231
0.29959231
0.29959231
0.29959231
0.29959231
0.29959231
0.29959231
0.29959232
0.29959231
0.29959231
0.29959231
0.29959231
0.29959231
0.29959231
0.29959231
0.29959231
0.29959231
0.29959231
0.29959231
0.29959231
0.29959231
0.29959231
0.29959231
0.29959231
0.29959231
0.29959231
0.29959231
0.29959231
0.29959231
0.29959231
0.2995923
0.2995923
0.2995923
0.2995923
0.2995923
0.2995923
0.2995923
0.29959229
0.29959229
0.29959229
0.2995923
0.2995923
0.2995923
0.2995923
0.2995923
0.2995923
0.2995923
0.29959231
0.29959231
0.29959231
0.29959231
0.29959231
0.2995923
0.29959218
0.299591
0.29958354
0.2995534
0.29946809
0.2992706
0.2988913
0.29836052
0.29785814
0.29757829
0.2975547
0.29769628
0.29789101
0.29807502
0.29822878
0.29834408
0.29846744
0.29854764
0.29859141
0.29742341
0.29213211
0.28932114
0.29187843
0.29390646
0.29496088
0.2958167
0.2965648
0.29720928
0.29778798
0.29831022
0.29876917
0.29916436
0.29950249
0.29979046
0.30003631
0.30024802
0.3004368
0.30061278
0.30078428
0.30096088
0.30115085
0.30135893
0.30158458
0.30182142
0.30205684
0.3022728
0.30244763
0.30255877
0.3025902
0.30253587
0.30240155
0.30220236
0.3019581
0.30166356
0.30118095
0.29992885
0.29629494
0.28722453
0.26921408
0.24119806
0.20608286
0.16780894
0.12870277
0.083066221
0.028614166
0.29959246
0.29959231
0.29959231
0.29959231
0.29959231
0.29959231
0.29959231
0.29959231
0.29959231
0.29959231
0.29959231
0.29959231
0.29959231
0.29959231
0.29959231
0.29959231
0.29959231
0.29959231
0.29959231
0.29959231
0.29959231
0.29959231
0.29959231
0.29959231
0.29959231
0.29959231
0.29959231
0.29959231
0.29959231
0.29959231
0.29959231
0.29959231
0.29959231
0.29959231
0.29959231
0.29959231
0.29959231
0.29959231
0.29959232
0.29959231
0.29959231
0.29959231
0.29959231
0.29959231
0.29959231
0.29959231
0.29959231
0.29959231
0.29959231
0.29959231
0.29959231
0.29959231
0.29959231
0.29959231
0.29959231
0.29959231
0.29959231
0.29959231
0.29959231
0.29959231
0.29959231
0.29959231
0.29959231
0.29959231
0.29959231
0.29959231
0.29959231
0.2995923
0.2995923
0.2995923
0.2995923
0.2995923
0.2995923
0.2995923
0.2995923
0.2995923
0.2995923
0.2995923
0.2995923
0.29959231
0.29959231
0.29959231
0.29959231
0.2995923
0.29959219
0.29959108
0.29958391
0.29955443
0.2994704
0.29927728
0.29891425
0.29842379
0.29797394
0.29773682
0.29771299
0.29780517
0.29793396
0.29805107
0.29813146
0.29818153
0.29824586
0.29827908
0.29827798
0.29740781
0.29241995
0.28880705
0.29104615
0.29327151
0.29428084
0.29511442
0.29586204
0.29652202
0.2971128
0.29763215
0.29808504
0.2984746
0.29880793
0.29909246
0.29933796
0.29955441
0.29975066
0.29993676
0.30012125
0.3003135
0.30052169
0.30075032
0.30099862
0.30125983
0.30152052
0.30176114
0.30195919
0.30209252
0.30214543
0.30211159
0.30199621
0.30181365
0.30158262
0.30129684
0.30081923
0.29957952
0.29597584
0.28693068
0.26891242
0.24084862
0.20567432
0.16738972
0.12836881
0.082906162
0.028559331
0.29959248
0.29959231
0.29959231
0.29959231
0.29959231
0.29959231
0.29959231
0.29959231
0.29959231
0.29959231
0.29959231
0.29959231
0.29959231
0.29959231
0.29959231
0.29959231
0.29959231
0.29959231
0.29959231
0.29959231
0.29959231
0.29959231
0.29959231
0.29959231
0.29959231
0.29959231
0.29959231
0.29959231
0.29959231
0.29959231
0.29959231
0.29959231
0.29959231
0.29959231
0.29959231
0.29959231
0.29959231
0.29959231
0.29959231
0.29959231
0.29959231
0.29959231
0.29959231
0.29959231
0.29959231
0.29959231
0.29959231
0.29959231
0.29959231
0.29959231
0.29959231
0.29959231
0.29959231
0.29959231
0.29959231
0.29959231
0.29959231
0.29959231
0.29959231
0.29959231
0.29959231
0.29959231
0.29959231
0.29959231
0.29959231
0.29959231
0.29959231
0.29959231
0.29959231
0.29959231
0.29959231
0.29959231
0.29959231
0.29959231
0.29959231
0.29959231
0.29959231
0.29959231
0.29959231
0.29959231
0.29959231
0.29959231
0.29959231
0.2995923
0.2995922
0.29959115
0.29958425
0.29955534
0.29947205
0.29928097
0.29892833
0.29847134
0.29808022
0.297908
0.29793287
0.29805425
0.29819521
0.29831796
0.29839411
0.29844034
0.29850011
0.29853446
0.298545
0.29792738
0.29344652
0.28922842
0.29084451
0.29336427
0.29447605
0.29539024
0.29618476
0.29687397
0.29747025
0.29798844
0.29844244
0.29883968
0.29918582
0.29948442
0.29973944
0.29995572
0.30014582
0.30032241
0.30049475
0.30067181
0.30086183
0.3010698
0.30129564
0.30153334
0.30177023
0.30198798
0.30216543
0.30228095
0.30231897
0.30227345
0.30214999
0.30196355
0.30173354
0.30145482
0.30099181
0.29977654
0.29621772
0.2872489
0.26931312
0.24129045
0.20609747
0.16774673
0.12862908
0.083062338
0.028608561
0.2995925
0.29959231
0.29959231
0.29959231
0.29959231
0.29959231
0.29959231
0.29959231
0.29959231
0.29959231
0.29959231
0.29959231
0.29959231
0.29959231
0.29959231
0.29959231
0.29959231
0.29959231
0.29959231
0.29959231
0.29959231
0.29959231
0.29959231
0.29959231
0.29959231
0.29959231
0.29959231
0.29959231
0.29959231
0.29959231
0.29959231
0.29959231
0.29959231
0.29959231
0.29959231
0.29959231
0.29959231
0.29959231
0.29959231
0.29959231
0.29959231
0.29959231
0.29959231
0.29959231
0.29959231
0.29959231
0.29959231
0.29959231
0.29959231
0.29959231
0.29959231
0.29959231
0.29959231
0.29959231
0.29959231
0.29959231
0.29959231
0.29959231
0.29959231
0.29959231
0.29959231
0.29959231
0.29959231
0.29959231
0.29959231
0.29959231
0.29959231
0.29959231
0.29959231
0.29959231
0.29959231
0.29959231
0.29959231
0.29959231
0.29959231
0.29959231
0.29959231
0.29959231
0.29959231
0.29959231
0.29959231
0.29959231
0.29959231
0.2995923
0.29959221
0.29959122
0.29958458
0.29955623
0.29947332
0.29928394
0.29894443
0.29852022
0.29818299
0.29807725
0.29815969
0.29832647
0.29850218
0.29864996
0.29874456
0.29880731
0.29887916
0.29892545
0.29894547
0.29855858
0.2945963
0.28980011
0.29081504
0.29359332
0.29466897
0.29553799
0.29632541
0.29702554
0.29764628
0.29818666
0.29865078
0.29904429
0.29937534
0.29965327
0.29988796
0.30008922
0.30026693
0.30043319
0.30059785
0.30076887
0.30095384
0.30115737
0.30137904
0.30161263
0.30184566
0.30205981
0.30223384
0.30234608
0.30238113
0.30233305
0.30220789
0.30202119
0.30179322
0.30152018
0.30107102
0.29988392
0.29637282
0.2874791
0.2696268
0.24165081
0.20646693
0.16810929
0.12899248
0.083427826
0.028778982
0.29959252
0.29959231
0.29959231
0.29959231
0.29959231
0.29959231
0.29959231
0.29959231
0.29959231
0.29959231
0.29959231
0.29959231
0.29959231
0.29959231
0.29959231
0.29959231
0.29959231
0.29959231
0.29959231
0.29959231
0.29959231
0.29959231
0.29959231
0.29959231
0.29959231
0.29959231
0.29959231
0.29959231
0.29959231
0.29959231
0.29959231
0.29959231
0.29959231
0.29959231
0.29959231
0.29959231
0.29959231
0.29959231
0.29959231
0.29959231
0.29959231
0.29959231
0.29959231
0.29959231
0.29959231
0.29959231
0.29959231
0.29959231
0.29959231
0.29959231
0.29959231
0.29959231
0.29959231
0.29959231
0.29959231
0.29959231
0.29959231
0.29959231
0.29959231
0.29959231
0.29959231
0.29959231
0.29959231
0.29959231
0.29959231
0.29959231
0.29959231
0.29959231
0.29959231
0.29959231
0.29959231
0.29959231
0.29959231
0.29959231
0.29959231
0.29959232
0.29959231
0.29959231
0.29959231
0.29959231
0.29959231
0.29959231
0.29959231
0.29959231
0.29959222
0.29959129
0.29958491
0.29955712
0.29947466
0.29928752
0.2989584
0.29855842
0.29826622
0.29822148
0.29835763
0.29856766
0.29878381
0.29897216
0.29910067
0.2991969
0.29929763
0.29937204
0.29941313
0.29916761
0.29585054
0.29069157
0.29091587
0.29388309
0.29507665
0.29601608
0.29683916
0.29755101
0.29816546
0.29869323
0.29914544
0.29952955
0.29985223
0.30012082
0.30034305
0.30052794
0.30068525
0.300828
0.30096769
0.30111353
0.30127397
0.30145443
0.30165494
0.30186974
0.30208611
0.30228551
0.30244632
0.30254649
0.30257038
0.30251212
0.30237807
0.30218464
0.30195312
0.30168215
0.30124488
0.30008902
0.29663512
0.28780763
0.27000959
0.24207359
0.20690412
0.16854234
0.12941108
0.083810093
0.028953723
0.29959254
0.29959231
0.29959231
0.29959231
0.29959231
0.29959231
0.29959231
0.29959231
0.29959231
0.29959231
0.29959231
0.29959231
0.29959231
0.29959231
0.29959231
0.29959231
0.29959231
0.29959231
0.29959231
0.29959231
0.29959231
0.29959231
0.29959231
0.29959231
0.29959231
0.29959231
0.29959231
0.29959231
0.29959231
0.29959231
0.29959231
0.29959231
0.29959231
0.29959231
0.29959231
0.29959231
0.29959231
0.29959231
0.29959231
0.29959231
0.29959231
0.29959231
0.29959231
0.29959231
0.29959231
0.29959231
0.29959231
0.29959231
0.29959231
0.29959231
0.29959231
0.29959231
0.29959231
0.29959231
0.29959231
0.29959231
0.29959231
0.29959231
0.29959231
0.29959231
0.29959231
0.29959231
0.29959231
0.29959231
0.29959231
0.29959231
0.29959231
0.29959231
0.29959231
0.29959231
0.29959231
0.29959231
0.29959231
0.29959231
0.29959231
0.29959232
0.29959232
0.29959231
0.29959231
0.29959231
0.29959232
0.29959231
0.29959232
0.29959231
0.29959223
0.29959135
0.29958522
0.29955795
0.29947585
0.29928969
0.29896564
0.29858467
0.29833616
0.29835026
0.29854067
0.29879546
0.29905197
0.29927798
0.2994384
0.29956405
0.29969083
0.29979127
0.29985242
0.29974414
0.29702908
0.29159234
0.29104981
0.29409244
0.2953742
0.29632753
0.29717128
0.29790837
0.29854437
0.29908736
0.29954398
0.29992341
0.30023448
0.30048691
0.30069078
0.30085655
0.30099487
0.30111881
0.30124035
0.30136888
0.30151267
0.30167738
0.30186329
0.30206466
0.30226892
0.30245755
0.30260868
0.30269992
0.30271524
0.30264864
0.30250687
0.30230709
0.302072
0.30180195
0.30137444
0.30024675
0.29685444
0.28812959
0.2704501
0.24260136
0.20747514
0.16912411
0.12999847
0.084402121
0.029239324
0.29959256
0.29959231
0.29959231
0.29959231
0.29959231
0.29959231
0.29959231
0.29959231
0.29959231
0.29959231
0.29959231
0.29959231
0.29959231
0.29959231
0.29959231
0.29959231
0.29959231
0.29959231
0.29959231
0.29959231
0.29959231
0.29959231
0.29959231
0.29959231
0.29959231
0.29959231
0.29959231
0.29959231
0.29959231
0.29959231
0.29959231
0.29959231
0.29959231
0.29959231
0.29959231
0.29959231
0.29959231
0.29959231
0.29959231
0.29959231
0.29959231
0.29959231
0.29959231
0.29959231
0.29959231
0.29959231
0.29959231
0.29959231
0.29959231
0.29959231
0.29959231
0.29959231
0.29959231
0.29959231
0.29959231
0.29959231
0.29959231
0.29959231
0.29959231
0.29959231
0.29959231
0.29959231
0.29959231
0.29959231
0.29959231
0.29959231
0.29959231
0.29959231
0.29959231
0.29959231
0.29959231
0.29959231
0.29959231
0.29959231
0.29959231
0.29959232
0.29959232
0.29959231
0.29959232
0.29959231
0.29959232
0.29959232
0.29959232
0.29959231
0.29959224
0.29959141
0.29958551
0.29955864
0.2994764
0.29928908
0.29896687
0.29860253
0.29839515
0.29846668
0.29871118
0.29901223
0.29931031
0.29957626
0.29977091
0.29992857
0.30008526
0.30021494
0.30029938
0.30026722
0.29821036
0.29267316
0.29126385
0.29424352
0.29573062
0.29674078
0.29761277
0.29836678
0.29900759
0.29954901
0.29999905
0.30036862
0.30066614
0.30090206
0.30108673
0.3012313
0.30134703
0.30144768
0.30154643
0.30165341
0.30177705
0.30192333
0.3020928
0.30227988
0.3024719
0.30265004
0.30279197
0.30287461
0.30288137
0.30280592
0.30265517
0.30244713
0.30220582
0.30193381
0.30151299
0.30040931
0.29706941
0.28842744
0.27084175
0.24306735
0.20798406
0.16965178
0.13054254
0.084961198
0.029512891
0.29959258
0.29959231
0.29959231
0.29959231
0.29959231
0.29959231
0.29959231
0.29959231
0.29959231
0.29959231
0.29959231
0.29959231
0.29959231
0.29959231
0.29959231
0.29959231
0.29959231
0.29959231
0.29959231
0.29959231
0.29959231
0.29959231
0.29959231
0.29959231
0.29959231
0.29959231
0.29959231
0.29959231
0.29959231
0.29959231
0.29959231
0.29959231
0.29959231
0.29959231
0.29959231
0.29959231
0.29959231
0.29959231
0.29959231
0.29959231
0.29959231
0.29959231
0.29959231
0.29959231
0.29959231
0.29959231
0.29959231
0.29959231
0.29959231
0.29959231
0.29959231
0.29959231
0.29959231
0.29959231
0.29959231
0.29959231
0.29959231
0.29959231
0.29959231
0.29959231
0.29959231
0.29959231
0.29959231
0.29959231
0.29959231
0.29959231
0.29959231
0.29959231
0.29959231
0.29959231
0.29959231
0.29959231
0.29959231
0.29959231
0.29959231
0.29959232
0.29959232
0.29959231
0.29959232
0.29959231
0.29959232
0.29959232
0.29959232
0.29959231
0.29959224
0.29959146
0.29958579
0.29955924
0.29947627
0.29928593
0.2989623
0.29861112
0.29844202
0.29857043
0.29886935
0.29921819
0.29955962
0.29986641
0.30009613
0.30028632
0.3004727
0.30063071
0.30073891
0.30077189
0.29926416
0.29381136
0.29156928
0.29431753
0.29605017
0.2970928
0.29799246
0.29877526
0.29943596
0.29998862
0.30043967
0.30080216
0.30108593
0.30130346
0.30146618
0.30158718
0.30167929
0.30175594
0.30183141
0.30191714
0.30202155
0.30215074
0.30230546
0.30248014
0.30266191
0.30283156
0.3029661
0.30304162
0.30304072
0.30295661
0.30279638
0.30257883
0.30232944
0.30205303
0.30163561
0.30055095
0.29725519
0.28868394
0.27118025
0.24347733
0.20844548
0.17014765
0.13108071
0.085557913
0.029815901
0.2995926
0.29959231
0.29959231
0.29959231
0.29959231
0.29959231
0.29959231
0.29959231
0.29959231
0.29959231
0.29959231
0.29959231
0.29959231
0.29959231
0.29959231
0.29959231
0.29959231
0.29959231
0.29959231
0.29959231
0.29959231
0.29959231
0.29959231
0.29959231
0.29959231
0.29959231
0.29959231
0.29959231
0.29959231
0.29959231
0.29959231
0.29959231
0.29959231
0.29959231
0.29959231
0.29959231
0.29959231
0.29959231
0.29959231
0.29959232
0.29959231
0.29959231
0.29959231
0.29959231
0.29959231
0.29959231
0.29959231
0.29959231
0.29959231
0.29959231
0.29959231
0.29959231
0.29959231
0.29959231
0.29959231
0.29959231
0.29959231
0.29959231
0.29959231
0.29959231
0.29959231
0.29959231
0.29959231
0.29959231
0.29959231
0.29959231
0.29959231
0.29959231
0.29959231
0.29959231
0.29959231
0.29959231
0.29959231
0.29959231
0.29959231
0.29959232
0.29959232
0.29959231
0.29959232
0.29959231
0.29959232
0.29959232
0.29959232
0.29959231
0.29959225
0.29959152
0.29958605
0.29955977
0.29947566
0.29928039
0.29895145
0.29860931
0.29847676
0.29866188
0.29901646
0.2994143
0.29980127
0.30015051
0.30041771
0.30064201
0.30086103
0.30104758
0.30118154
0.3012536
0.30023922
0.29510994
0.29199714
0.2943305
0.29638199
0.29746672
0.29839537
0.29920412
0.29988
0.30043926
0.30088828
0.30124187
0.30151092
0.30170944
0.30185009
0.30194722
0.30201473
0.30206668
0.30211826
0.30218213
0.30226712
0.30237947
0.30252012
0.30268347
0.30285635
0.30301897
0.30314748
0.30321689
0.30320883
0.30311591
0.30294532
0.30271672
0.30245726
0.30217422
0.30175799
0.30069054
0.29743814
0.28893889
0.27152076
0.2438934
0.20891551
0.17065384
0.13163343
0.086181225
0.030135711
0.29959262
0.29959231
0.29959231
0.29959231
0.29959231
0.29959231
0.29959231
0.29959231
0.29959231
0.29959231
0.29959231
0.29959231
0.29959231
0.29959231
0.29959231
0.29959231
0.29959231
0.29959231
0.29959231
0.29959231
0.29959231
0.29959231
0.29959231
0.29959231
0.29959231
0.29959231
0.29959231
0.29959231
0.29959231
0.29959231
0.29959231
0.29959231
0.29959231
0.29959231
0.29959231
0.29959231
0.29959231
0.29959231
0.29959231
0.29959232
0.29959231
0.29959231
0.29959231
0.29959231
0.29959231
0.29959231
0.29959231
0.29959231
0.29959231
0.29959231
0.29959231
0.29959231
0.29959231
0.29959231
0.29959231
0.29959231
0.29959231
0.29959231
0.29959231
0.29959231
0.29959231
0.29959231
0.29959231
0.29959231
0.29959231
0.29959231
0.29959231
0.29959231
0.29959231
0.29959231
0.29959231
0.29959231
0.29959231
0.29959231
0.29959231
0.29959232
0.29959232
0.29959231
0.29959232
0.29959231
0.29959232
0.29959232
0.29959232
0.29959231
0.29959225
0.29959156
0.29958628
0.29956016
0.29947436
0.29927224
0.29893405
0.29859629
0.29849883
0.29874184
0.29915431
0.29960366
0.30003866
0.30043213
0.3007383
0.3009976
0.30125096
0.30146683
0.30162798
0.30173418
0.30108409
0.29644048
0.29254734
0.29431818
0.29669775
0.29782005
0.29878483
0.29962956
0.30033032
0.3009027
0.30135345
0.3016992
0.30195283
0.30213026
0.30224603
0.30231614
0.3023561
0.30238109
0.30240716
0.30244791
0.30251274
0.30260806
0.30273499
0.30288781
0.30305292
0.30320974
0.30333337
0.30339749
0.30338252
0.30328037
0.30309825
0.30285682
0.30258506
0.30229282
0.30187472
0.30082003
0.29760377
0.28916618
0.27182403
0.24426965
0.20935072
0.1711346
0.13217827
0.086833337
0.030479898
0.29959265
0.29959231
0.29959231
0.29959231
0.29959231
0.29959231
0.29959231
0.29959231
0.29959231
0.29959231
0.29959231
0.29959231
0.29959231
0.29959231
0.29959231
0.29959231
0.29959231
0.29959231
0.29959231
0.29959231
0.29959231
0.29959231
0.29959231
0.29959231
0.29959231
0.29959231
0.29959231
0.29959231
0.29959231
0.29959231
0.29959231
0.29959231
0.29959231
0.29959231
0.29959231
0.29959231
0.29959231
0.29959231
0.29959231
0.29959231
0.29959231
0.29959231
0.29959231
0.29959231
0.29959231
0.29959231
0.29959231
0.29959231
0.29959231
0.29959231
0.29959231
0.29959231
0.29959231
0.29959231
0.29959231
0.29959231
0.29959231
0.29959231
0.29959231
0.29959231
0.29959231
0.29959231
0.29959231
0.29959231
0.29959231
0.29959231
0.29959231
0.29959231
0.29959231
0.29959231
0.29959231
0.29959231
0.29959231
0.29959231
0.29959231
0.29959232
0.29959232
0.29959231
0.29959232
0.29959232
0.29959232
0.29959232
0.29959232
0.29959231
0.29959226
0.29959161
0.29958649
0.2995604
0.29947221
0.29926132
0.29890992
0.29857207
0.29850766
0.29881051
0.2992835
0.2997882
0.30027403
0.3007142
0.30105961
0.3013542
0.301643
0.3018885
0.3020774
0.30221097
0.30186336
0.29782451
0.29326645
0.29431101
0.29698829
0.29816721
0.29917672
0.30005796
0.30078441
0.30136981
0.30182299
0.30216148
0.30240031
0.30255695
0.30264796
0.30269096
0.30270304
0.30270058
0.30270065
0.30271806
0.30276294
0.30284189
0.30295612
0.30309976
0.30325864
0.30341124
0.30353139
0.30359123
0.30356977
0.30345812
0.30326345
0.30300748
0.30272118
0.30241717
0.30199433
0.30094905
0.29776473
0.28938428
0.27211589
0.24463741
0.20978404
0.17161945
0.13272998
0.08749546
0.030830077
0.29959267
0.29959231
0.29959231
0.29959231
0.29959231
0.29959231
0.29959231
0.29959231
0.29959231
0.29959231
0.29959231
0.29959231
0.29959231
0.29959231
0.29959231
0.29959231
0.29959231
0.29959231
0.29959231
0.29959231
0.29959231
0.29959231
0.29959231
0.29959231
0.29959231
0.29959231
0.29959231
0.29959231
0.29959231
0.29959231
0.29959231
0.29959231
0.29959231
0.29959231
0.29959231
0.29959231
0.29959231
0.29959231
0.29959231
0.29959231
0.29959231
0.29959231
0.29959231
0.29959231
0.29959231
0.29959231
0.29959231
0.29959231
0.29959231
0.29959231
0.29959231
0.29959231
0.29959231
0.29959231
0.29959231
0.29959231
0.29959231
0.29959231
0.29959231
0.29959231
0.29959231
0.29959231
0.29959231
0.29959231
0.29959231
0.29959231
0.29959231
0.29959231
0.29959231
0.29959231
0.29959231
0.29959231
0.29959231
0.29959231
0.29959231
0.29959232
0.29959232
0.29959232
0.29959232
0.29959232
0.29959232
0.29959232
0.29959232
0.29959231
0.29959226
0.29959165
0.29958668
0.2995605
0.29946933
0.2992476
0.29887868
0.29853619
0.29850305
0.29886813
0.29940398
0.29996662
0.30050582
0.30099374
0.30137862
0.30170882
0.30203295
0.30230885
0.30252701
0.3026857
0.30254003
0.29916083
0.29412534
0.29433326
0.29722976
0.29849802
0.29956513
0.300489
0.30124763
0.30184996
0.30230852
0.30264095
0.30286515
0.30300013
0.3030649
0.30307872
0.30306079
0.30302912
0.30300158
0.30299421
0.30301845
0.3030809
0.30318283
0.30331805
0.30347172
0.30362113
0.30373861
0.30379452
0.30376628
0.30364409
0.30343515
0.30316226
0.30285852
0.30253932
0.30210779
0.30106655
0.29790622
0.28957184
0.27236622
0.24495797
0.21017045
0.17206193
0.1332529
0.088166014
0.031195614
0.2995927
0.29959231
0.29959231
0.29959231
0.29959231
0.29959231
0.29959231
0.29959231
0.29959231
0.29959231
0.29959231
0.29959231
0.29959231
0.29959231
0.29959231
0.29959231
0.29959231
0.29959231
0.29959231
0.29959231
0.29959231
0.29959231
0.29959231
0.29959231
0.29959231
0.29959231
0.29959231
0.29959231
0.29959231
0.29959231
0.29959231
0.29959231
0.29959231
0.29959231
0.29959231
0.29959231
0.29959231
0.29959231
0.29959231
0.29959231
0.29959231
0.29959231
0.29959231
0.29959231
0.29959231
0.29959231
0.29959231
0.29959231
0.29959231
0.29959231
0.29959231
0.29959231
0.29959231
0.29959231
0.29959231
0.29959231
0.29959231
0.29959231
0.29959231
0.29959231
0.29959231
0.29959231
0.29959231
0.29959231
0.29959231
0.29959231
0.29959231
0.29959231
0.29959231
0.29959231
0.29959231
0.29959231
0.29959231
0.29959231
0.29959231
0.29959232
0.29959232
0.29959232
0.29959231
0.29959232
0.29959232
0.29959232
0.29959232
0.29959231
0.29959227
0.29959168
0.29958685
0.2995605
0.29946581
0.29923104
0.29883978
0.2984874
0.29848463
0.29891256
0.29951265
0.30013407
0.30072781
0.30126522
0.30169118
0.30205829
0.30241849
0.30272545
0.30297207
0.30315502
0.30315709
0.30049025
0.29511406
0.29443466
0.2974026
0.29881053
0.29994269
0.30091006
0.30170218
0.30232317
0.30278951
0.30311845
0.30333048
0.30344599
0.30348621
0.30347236
0.30342556
0.30336539
0.30331106
0.30327994
0.30328458
0.30333183
0.30342319
0.30355197
0.30370258
0.30385089
0.30396711
0.30401999
0.30398406
0.30384949
0.30362216
0.30332675
0.3029992
0.30265834
0.30221438
0.3011773
0.29804583
0.28976394
0.27262553
0.24528912
0.21056727
0.17251464
0.133787
0.088850572
0.031568957
0.29959272
0.29959231
0.29959231
0.29959231
0.29959231
0.29959231
0.29959231
0.29959231
0.29959231
0.29959231
0.29959231
0.29959231
0.29959231
0.29959231
0.29959231
0.29959231
0.29959231
0.29959231
0.29959231
0.29959231
0.29959231
0.29959231
0.29959231
0.29959231
0.29959231
0.29959231
0.29959231
0.29959231
0.29959231
0.29959231
0.29959231
0.29959231
0.29959231
0.29959231
0.29959231
0.29959231
0.29959231
0.29959231
0.29959231
0.29959231
0.29959231
0.29959231
0.29959231
0.29959231
0.29959231
0.29959231
0.29959231
0.29959231
0.29959231
0.29959231
0.29959231
0.29959231
0.29959231
0.29959231
0.29959231
0.29959231
0.29959231
0.29959231
0.29959231
0.29959231
0.29959231
0.29959231
0.29959231
0.29959231
0.29959231
0.29959231
0.29959231
0.29959231
0.29959231
0.29959231
0.29959231
0.29959231
0.29959231
0.29959231
0.29959231
0.29959231
0.29959232
0.29959232
0.29959231
0.29959232
0.29959232
0.29959232
0.29959232
0.29959231
0.29959227
0.29959172
0.29958699
0.29956033
0.29946152
0.29921144
0.29879277
0.29842439
0.29844936
0.29893965
0.29960348
0.3002825
0.30093119
0.30152108
0.30199172
0.30239794
0.30279562
0.30313454
0.30340836
0.30361691
0.30370755
0.30172933
0.2961671
0.2946139
0.29749124
0.29910767
0.30031066
0.30132467
0.30215289
0.30279471
0.30327072
0.30359749
0.30379829
0.30389473
0.30391038
0.30386855
0.30379247
0.30370359
0.30362214
0.30356696
0.30355208
0.30358481
0.30366666