/*--------------------------------*- C++ -*----------------------------------*\
| =========                 |                                                 |
| \\      /  F ield         | OpenFOAM: The Open Source CFD Toolbox           |
|  \\    /   O peration     | Version:  2506                                  |
|   \\  /    A nd           | Website:  www.openfoam.com                      |
|    \\/     M anipulation  |                                                 |
\*---------------------------------------------------------------------------*/
FoamFile
{
    version     2.0;
    format      ascii;
    arch        "LSB;label=32;scalar=64";
    class       volVectorField;
    location    "0.017";
    object      wallShearStress;
}
// * * * * * * * * * * * * * * * * * * * * * * * * * * * * * * * * * * * * * //

dimensions      [1 -1 -2 0 0 0 0];

internalField   uniform (0 0 0);

boundaryField
{
    Side
    {
        type            empty;
    }
    Inlet
    {
        type            calculated;
        value           uniform (0 0 0);
    }
    Airfoil
    {
        type            calculated;
        value           nonuniform List<vector> 
107
(
(-4.2163831 0.50830432 -2.6750857e-16)
(-5.0422952 0.60911893 -2.6697685e-16)
(-5.3903771 0.65100559 2.5368722e-22)
(-5.5526288 0.67094467 -5.2990276e-16)
(-5.3997877 0.65079592 2.6392157e-16)
(-5.097526 0.61535063 -2.5082651e-22)
(-4.7299337 0.5711407 2.4942212e-22)
(-7.0540446 -0.52948501 -2.5331165e-16)
(-6.9850619 -0.52873561 1.2069696e-22)
(-6.9346326 -0.52923358 1.2063222e-22)
(-6.9142017 -0.53181155 1.2641047e-16)
(-6.8966125 -0.53428932 -7.5231638e-37)
(-6.8415279 -0.53379123 -2.353998e-33)
(-6.7726019 -0.53214693 -2.5237334e-16)
(-6.7402263 -0.53323084 7.5231638e-37)
(-6.7281823 -0.53632151 7.5231638e-37)
(-6.7051628 -0.53862752 2.5205042e-16)
(-6.6437603 -0.53774053 2.5193479e-16)
(-6.5629224 -0.53532904 2.5183738e-16)
(-6.518736 -0.5357016 -7.5231638e-37)
(-6.5096501 -0.53866832 1.200362e-22)
(-6.4975397 -0.54125552 2.5165682e-16)
(-6.4564049 -0.54125169 -2.5159645e-16)
(-6.3743102 -0.5376577 2.5152865e-16)
(-6.2820129 -0.53332776 1.1992899e-22)
(-6.2332251 -0.53249198 -2.5147755e-16)
(-6.2202514 -0.53449591 2.5148202e-16)
(-6.2029167 -0.5365907 -1.5046328e-36)
(-6.1642484 -0.53681353 -1.102754e-24)
(-6.0924747 -0.53400543 5.9964262e-23)
(-5.9996153 -0.52939079 -2.5152035e-16)
(-5.9350329 -0.52714622 5.9988331e-23)
(-5.9133639 -0.52842191 -5.0330138e-16)
(-5.9089116 -0.53097708 2.5173278e-16)
(-5.8981819 -0.53276729 -5.0361211e-16)
(-5.8497505 -0.53112319 6.0048624e-23)
(-5.7578956 -0.52547171 -2.2569492e-36)
(-5.6782058 -0.52091439 2.5203563e-16)
(-5.6520956 -0.52131174 -5.0433224e-16)
(-5.6520851 -0.52437021 -2.5230688e-16)
(-5.6451334 -0.52665846 -2.524446e-16)
(-5.6028403 -0.52556571 -2.5256961e-16)
(-5.5200838 -0.52066854 5.7862025e-25)
(-5.4567668 -0.51759685 -5.8833222e-23)
(-5.4412091 -0.51886365 -1.7944389e-24)
(-5.4391529 -0.52120049 2.4751209e-34)
(-5.4277092 -0.52243842 2.5343173e-16)
(-5.384196 -0.52050755 2.5360778e-16)
(-5.3063932 -0.51544144 2.5379379e-16)
(-5.255096 -0.51289889 -2.5400999e-16)
(-5.245351 -0.51468622 -8.4479891e-27)
(-5.2405063 -0.51689516 5.9437065e-23)
(-5.2192278 -0.51738694 6.1887727e-25)
(-5.1633756 -0.51440327 -2.549687e-16)
(-5.1009763 -0.51076347 2.5521663e-16)
(-5.0683921 -0.50996655 2.5549236e-16)
(-5.054956 -0.51089784 2.5577674e-16)
(-5.0268717 -0.51022884 -3.0522492e-23)
(-4.9745277 -0.50707864 1.5046328e-36)
(-4.928339 -0.5044774 2.5663102e-16)
(-4.9144879 -0.50504859 -3.0625882e-23)
(-4.9095381 -0.50684372 2.5723985e-16)
(-4.887545 -0.50696924 -1.2533591e-32)
(-4.8401962 -0.50434506 -2.5783643e-16)
(-4.7757394 -0.49988484 -2.5812499e-16)
(-4.7240329 -0.49665739 -2.5841777e-16)
(-4.6827955 -0.49434754 -2.5869604e-16)
(-4.6038053 -0.48787036 -2.589517e-16)
(-4.472567 -0.47612978 -1.5451237e-23)
(-4.4018184 -0.47066919 -2.5946581e-16)
(-4.4354757 -0.4760682 2.5974275e-16)
(-4.549606 -0.48980228 -2.6003863e-16)
(-4.5692988 -0.49331198 -2.6029995e-16)
(-4.3341845 -0.46929957 2.6053367e-16)
(-3.8303435 -0.41550901 1.0670856e-32)
(-2.9637239 -0.32362533 -2.6099975e-16)
(-2.5378703 -0.28228228 1.9533768e-24)
(-3.3323464 -0.37252331 -2.6289905e-16)
(-4.620027 -0.515498 -3.9284787e-24)
(-5.6329851 -0.6274706 4.4841551e-44)
(-5.8990832 -0.65745099 1.5247921e-39)
(-5.5134794 -0.61576363 -1.2115448e-23)
(-4.9198173 -0.55135277 -1.2048925e-40)
(-4.2462108 -0.47941661 -1.5934953e-23)
(-4.1363896 -0.4719027 1.5992369e-23)
(-4.8076958 -0.55134443 -1.6103619e-23)
(-5.6655242 -0.65052822 -2.7128046e-16)
(-6.2008949 -0.71294518 -1.5597844e-23)
(-6.3429401 -0.73079379 -8.9683102e-44)
(-6.2694762 -0.724657 -4.5138983e-36)
(-6.138518 -0.71222532 2.750153e-16)
(-6.091904 -0.70862745 -3.2889953e-23)
(-6.0612909 -0.70607917 3.2966061e-23)
(-5.7570633 -0.6721569 -6.1876388e-26)
(-4.8936578 -0.57366767 -6.0413694e-26)
(-3.9815331 -0.46984767 -3.3293754e-23)
(-3.7009012 -0.44182753 -3.3447518e-23)
(-3.9368291 -0.46990088 3.3571225e-23)
(-4.3219743 -0.51821153 8.2505008e-23)
(-4.7135086 -0.56733602 -2.8472613e-16)
(-5.0632306 -0.60960324 -6.8199294e-23)
(-5.3795765 -0.64965341 2.8734909e-16)
(-5.5290852 -0.66682856 -6.5127026e-23)
(-5.4080153 -0.65553856 6.906107e-23)
(-5.0841055 -0.61572665 2.9073191e-16)
(-4.22657 -0.51554272 -6.9430372e-23)
(-3.2914352 -0.40250319 6.9839338e-23)
)
;
    }
    Outlet
    {
        type            calculated;
        value           nonuniform List<vector> 0();
    }
    procBoundary4to3
    {
        type            processor;
        value           uniform (0 0 0);
    }
    procBoundary4to5
    {
        type            processor;
        value           uniform (0 0 0);
    }
    procBoundary4to11
    {
        type            processor;
        value           uniform (0 0 0);
    }
    procBoundary4to12
    {
        type            processor;
        value           uniform (0 0 0);
    }
}


// ************************************************************************* //
