/*--------------------------------*- C++ -*----------------------------------*\
| =========                 |                                                 |
| \\      /  F ield         | OpenFOAM: The Open Source CFD Toolbox           |
|  \\    /   O peration     | Version:  2506                                  |
|   \\  /    A nd           | Website:  www.openfoam.com                      |
|    \\/     M anipulation  |                                                 |
\*---------------------------------------------------------------------------*/
FoamFile
{
    version     2.0;
    format      ascii;
    arch        "LSB;label=32;scalar=64";
    class       volScalarField;
    location    "0.3";
    object      Cp;
}
// * * * * * * * * * * * * * * * * * * * * * * * * * * * * * * * * * * * * * //

dimensions      [0 0 0 0 0 0 0];

internalField   nonuniform List<scalar> 
1376
(
0.019943993
0.020373673
0.020258795
0.020576469
0.021091712
0.021633667
0.022262383
0.022817433
0.023324615
0.023658192
0.024023211
0.024512936
0.024704981
0.024581945
0.024402324
0.023887128
0.023845288
0.023426178
0.023975036
0.024087727
0.026969114
0.024325786
0.019446464
0.019956541
0.020582557
0.021191161
0.021877165
0.022510693
0.023098825
0.023473443
0.023891318
0.024429492
0.024691457
0.024618869
0.024438071
0.023979414
0.023853616
0.023477245
0.023913427
0.024027775
0.026601664
0.024035573
0.019393833
0.020072851
0.020752828
0.021506208
0.022222236
0.022876262
0.023290926
0.023761439
0.024345471
0.024671069
0.024648708
0.024482559
0.024060812
0.023863536
0.023528207
0.023859647
0.024018881
0.026105971
0.024152062
0.01956827
0.020335457
0.021147021
0.021948632
0.0226507
0.023111499
0.023629858
0.024256573
0.024640811
0.024669601
0.0245211
0.02412264
0.02387157
0.023573488
0.023822601
0.024103071
0.025683802
0.025100252
0.020793691
0.021678731
0.022420942
0.022931088
0.023496568
0.024161345
0.024601283
0.024685538
0.02455543
0.024191577
0.023894573
0.023623027
0.023806917
0.024232129
0.02551961
0.026449029
0.021408221
0.022197444
0.022749478
0.02336262
0.02406287
0.024554752
0.024698053
0.024603398
0.024253116
0.023940532
0.023660672
0.023805292
0.024342941
0.025560948
0.027063051
0.021979136
0.022566425
0.023227356
0.023962674
0.02450411
0.024702634
0.024653686
0.024298709
0.023992898
0.023692326
0.023808413
0.024428173
0.02565323
0.02642841
0.022384532
0.023085067
0.023860221
0.02444951
0.024696008
0.024703276
0.024334453
0.024055046
0.023728941
0.023832869
0.024504571
0.025558383
0.026008069
0.022209225
0.022931721
0.023750118
0.024388146
0.024680751
0.024748261
0.024375865
0.024124962
0.023782921
0.023868299
0.024559638
0.025602495
0.025884621
0.022771833
0.023630469
0.024318614
0.024660686
0.024791722
0.024434695
0.024193249
0.023836356
0.023888025
0.024595513
0.025613637
0.025654252
0.023506267
0.024243022
0.024635848
0.024829384
0.024507592
0.024247185
0.02387033
0.023887444
0.024639168
0.025604941
0.025250614
0.024163053
0.024603406
0.02485032
0.024559883
0.024289219
0.023903952
0.023948977
0.024643238
0.025609401
0.025064178
0.024561903
0.024852761
0.024604684
0.024324551
0.023950577
0.024005837
0.024620263
0.025582546
0.024030622
0.024842858
0.024630884
0.024348416
0.023965935
0.024026713
0.024630819
0.02489328
0.023407306
0.024644711
0.024365678
0.023955126
0.024087254
0.024680207
0.024617427
0.023812768
0.024352979
0.0239843
0.024154672
0.024709152
0.024302067
0.024325384
0.024047178
0.024164437
0.024696322
0.024132656
0.024980344
0.02414242
0.024673921
0.024634727
0.025832615
0.024650737
0.025136185
0.025641258
0.025375987
0.025553912
0.066160759
0.062263828
0.05870878
0.054569585
0.051051142
0.048305708
0.045929062
0.043490503
0.041753682
0.040738588
0.040172545
0.039294629
0.038681676
0.038122343
0.037479921
0.036986222
0.03665206
0.03634226
0.03606882
0.035774811
0.035515791
0.035310014
0.03496344
0.065647742
0.061442218
0.058165515
0.054425959
0.05091979
0.047891484
0.045453003
0.043408518
0.041694706
0.040682908
0.040120519
0.039183827
0.038596103
0.038106895
0.037450733
0.036972535
0.036650364
0.036316869
0.036060819
0.035763587
0.035505621
0.035298247
0.034950629
0.064490368
0.060711323
0.058101587
0.054338491
0.050805766
0.047942904
0.045371864
0.043410371
0.041723683
0.040622484
0.04008803
0.039199111
0.038633782
0.03807787
0.037424494
0.03696271
0.036652127
0.036312536
0.036041412
0.035750034
0.035497223
0.035284647
0.034935029
0.063175166
0.059913615
0.057634553
0.053951132
0.050151661
0.047826674
0.045289454
0.043087973
0.0415556
0.040464578
0.040024607
0.039171302
0.038536144
0.038026049
0.037392999
0.036941877
0.036637984
0.036332324
0.036008773
0.035733195
0.035487718
0.035268037
0.034915737
0.062368658
0.059240057
0.056934508
0.053408568
0.04974971
0.047570294
0.045333038
0.04292194
0.041418055
0.04043988
0.039915923
0.03909496
0.038483615
0.03801966
0.037358626
0.036912207
0.036631322
0.036277131
0.03599903
0.035722803
0.035475638
0.035248725
0.034893587
0.061580697
0.058266021
0.055885817
0.052652428
0.04926717
0.047280539
0.044998929
0.042732297
0.041235675
0.040397996
0.039740565
0.039007192
0.03845148
0.037956724
0.037284957
0.036877496
0.036603054
0.036238577
0.035984458
0.035711795
0.035456557
0.035222357
0.034872819
0.060681214
0.057136158
0.054593249
0.051740489
0.048762208
0.046898693
0.044773339
0.042560591
0.041124056
0.040239978
0.039561455
0.0389357
0.038408268
0.037892757
0.037232359
0.03687265
0.036552957
0.036217235
0.035953562
0.035696605
0.035427948
0.035194665
0.03485146
0.059459987
0.055801409
0.053277928
0.050830353
0.048290538
0.046489634
0.044428848
0.04230862
0.040947772
0.040066819
0.039374299
0.03882938
0.038348905
0.037801804
0.037196681
0.036844547
0.03650614
0.036173055
0.035916984
0.035673455
0.035404219
0.035168165
0.034817581
0.060737702
0.057881
0.054334785
0.051954487
0.049943224
0.047789936
0.045966824
0.043973116
0.041946446
0.040732141
0.039901342
0.039209282
0.038730218
0.038278476
0.037713524
0.037151318
0.036810761
0.036459074
0.03612694
0.03587647
0.035639936
0.035381809
0.035135266
0.034778732
0.058844179
0.05607723
0.052690158
0.050672796
0.049144046
0.047228676
0.045314497
0.043396636
0.041542292
0.040498935
0.039707797
0.039046402
0.038614478
0.038183062
0.037607602
0.037100608
0.036776509
0.036407072
0.036072348
0.035828955
0.035608031
0.035350041
0.035094903
0.034733202
0.056643773
0.05404875
0.050927757
0.049455742
0.04834572
0.046491875
0.044484322
0.042719592
0.041137619
0.040236433
0.039472288
0.038855655
0.038481088
0.038061412
0.037482382
0.037040996
0.036736799
0.03634849
0.036009199
0.035778533
0.035571881
0.035308473
0.035047662
0.034681164
0.053670937
0.051809061
0.049208228
0.048212204
0.047351707
0.045464249
0.04346839
0.042007968
0.040720561
0.039910674
0.039191625
0.038643396
0.038324957
0.037908605
0.037337799
0.036969715
0.036686147
0.036277026
0.035939499
0.035729342
0.03552567
0.035258321
0.034995125
0.050220588
0.049461649
0.047390521
0.046904217
0.046073177
0.044140945
0.04237271
0.041353284
0.040252516
0.039497007
0.038883501
0.038437875
0.038143219
0.03771817
0.037169312
0.036892822
0.036623557
0.036189582
0.035863546
0.035681089
0.035466093
0.035200431
0.034936074
0.047330746
0.047065649
0.045662457
0.045593515
0.044558907
0.042620324
0.041378841
0.040738983
0.039704079
0.038994845
0.038609145
0.038244602
0.037925459
0.03748413
0.036984423
0.036812422
0.036547067
0.036082405
0.03578322
0.035631767
0.035392881
0.035134939
0.034869942
0.044016248
0.044810459
0.044302533
0.044019691
0.04400869
0.042498041
0.041251355
0.040705074
0.040012373
0.039013411
0.038479358
0.038379212
0.038026821
0.037684004
0.037202093
0.036811843
0.036726115
0.036445963
0.035957124
0.035704111
0.035577817
0.035305637
0.035064896
0.03479897
0.041907166
0.0419499
0.041463682
0.042214626
0.042072346
0.040656533
0.040333459
0.040049731
0.038982273
0.038225582
0.038074851
0.038039613
0.037736385
0.037416255
0.036874601
0.036689157
0.036615382
0.036299754
0.035832145
0.035634564
0.035505764
0.035202297
0.034991726
0.034722807
0.039770342
0.038977055
0.039286406
0.040047926
0.040168565
0.039480798
0.039324719
0.038910981
0.037908109
0.03764421
0.037646446
0.037473004
0.037390666
0.037138626
0.036557762
0.036564038
0.036457207
0.036090092
0.035731126
0.035574804
0.035399187
0.035085624
0.034913975
0.034638332
0.0372979
0.037456755
0.037853835
0.037636527
0.038204566
0.038268194
0.038211665
0.037547915
0.037181163
0.037370711
0.036898389
0.036959675
0.037106145
0.036734332
0.036306834
0.036389107
0.036239849
0.035787172
0.035678032
0.035518894
0.035262057
0.034964916
0.034825002
0.03453711
0.032926005
0.034881446
0.035787123
0.035621264
0.035989398
0.036197661
0.036895759
0.036639185
0.036492128
0.036553728
0.036635981
0.036319572
0.036698693
0.036732528
0.036223841
0.036090178
0.036153453
0.035965617
0.03555107
0.035548983
0.035431545
0.035087841
0.03485269
0.034718213
0.034406926
0.030555685
0.032371794
0.034067797
0.033496269
0.03465941
0.034939626
0.035275338
0.03516213
0.035818355
0.035795345
0.035746263
0.036107029
0.036317059
0.036213618
0.035805051
0.035761851
0.035793934
0.035543637
0.035463568
0.0353682
0.035278913
0.034892965
0.034744721
0.034593421
0.034248878
0.029296365
0.029951368
0.032087856
0.032285519
0.032876112
0.03373401
0.033999686
0.034337078
0.034883478
0.03501959
0.035338536
0.035618397
0.035532592
0.035432999
0.035356255
0.035433326
0.035464873
0.035197839
0.035213667
0.035214417
0.035075864
0.034717481
0.034630269
0.034444133
0.034070288
0.026263366
0.028500617
0.028562853
0.029873917
0.031425642
0.031764378
0.032451645
0.032877731
0.033267517
0.033870102
0.034459589
0.034591677
0.034889061
0.034666715
0.034627795
0.034993223
0.035080747
0.034990151
0.035030819
0.034983449
0.034971461
0.034766602
0.034576971
0.03449723
0.034260087
0.033887275
0.024544941
0.026977151
0.02798806
0.02841512
0.029866747
0.030600843
0.031053395
0.032250703
0.032465057
0.033052215
0.03384769
0.033728461
0.033983898
0.033927541
0.034086333
0.034485717
0.03457114
0.034623752
0.034602437
0.034712644
0.034669192
0.034474888
0.034463886
0.034327232
0.034042828
0.033709999
0.02391276
0.02541219
0.027278464
0.027494338
0.028464486
0.029870104
0.030072165
0.031109737
0.032169892
0.032307301
0.032839026
0.032982538
0.032973128
0.033397128
0.033613835
0.033961375
0.034012713
0.034284393
0.034247378
0.034296937
0.034315842
0.034283786
0.034276914
0.034070369
0.033797705
0.033537043
0.022968675
0.023783256
0.025049466
0.026612126
0.026636455
0.027364863
0.02884252
0.029713485
0.030164567
0.031101559
0.031563507
0.031753699
0.032283151
0.032305003
0.032829183
0.033033905
0.033405597
0.033637953
0.033699585
0.033892238
0.033917945
0.034028185
0.034091791
0.034006893
0.033767322
0.033557958
0.03336712
0.022272769
0.023222015
0.024204421
0.025632492
0.026641902
0.027293876
0.028241517
0.029040814
0.029478896
0.030001066
0.03043241
0.03078239
0.031427542
0.031883258
0.032363049
0.032490679
0.032744795
0.033180034
0.033212327
0.033462222
0.033575822
0.033749308
0.033786963
0.033670757
0.03347537
0.033304879
0.020516435
0.021772898
0.022793147
0.023816249
0.025160983
0.026317235
0.026933351
0.027632901
0.028253248
0.028570369
0.029100209
0.02961149
0.03014893
0.030676768
0.031232661
0.031787247
0.03209926
0.032206163
0.032604495
0.03271407
0.033034594
0.033245601
0.033353434
0.033445068
0.033302049
0.033185453
0.033051196
0.0209582
0.022035569
0.022901519
0.023678084
0.024686535
0.025562946
0.026089293
0.026686383
0.027445482
0.027853816
0.028272012
0.028982559
0.029615706
0.030127804
0.030614871
0.031118699
0.031549171
0.031688755
0.031979172
0.032290709
0.032627756
0.032856007
0.032921468
0.033006245
0.032951027
0.032884963
0.032750721
0.021223798
0.022050774
0.02276543
0.02335055
0.024075424
0.02478423
0.025362861
0.026021559
0.026679164
0.0272507
0.027858945
0.028480972
0.029027192
0.029531605
0.029937073
0.030452337
0.030967222
0.031117209
0.031443833
0.031878757
0.032329256
0.032419522
0.032468051
0.032476514
0.03251638
0.0325244
0.032459043
0.021033072
0.021762887
0.022466396
0.02305641
0.023727458
0.024385582
0.024961897
0.025674444
0.026298943
0.026838196
0.027422621
0.027924564
0.028462295
0.029048084
0.02943702
0.029798003
0.030376002
0.030624155
0.030968036
0.03139596
0.031705049
0.031926008
0.032033976
0.032037942
0.032150484
0.032122036
0.032140142
0.021190807
0.021772999
0.022388678
0.02296653
0.023608031
0.024225353
0.024762406
0.025382742
0.025937691
0.026445751
0.026976376
0.027450942
0.027948778
0.028518511
0.028999702
0.029445613
0.029937794
0.03015866
0.030400067
0.030801613
0.031046706
0.03129309
0.031500156
0.031653678
0.031747085
0.031862784
0.031746065
0.021604445
0.02207573
0.022575336
0.023083323
0.023608985
0.024158566
0.024642265
0.025175185
0.025690372
0.026138752
0.02662712
0.027065845
0.027508086
0.028028665
0.028519283
0.028933133
0.02935745
0.029698082
0.029911834
0.03014386
0.030403754
0.030722515
0.030997613
0.031264069
0.031252596
0.031405662
0.022070148
0.022472807
0.022877176
0.023295903
0.023725271
0.024196964
0.024645977
0.025103417
0.025573477
0.025989199
0.026436792
0.026832294
0.027199942
0.027633874
0.028011829
0.028396565
0.02878995
0.02910005
0.02939584
0.029708268
0.029850204
0.030040671
0.030382334
0.030637277
0.030866477
0.030840196
0.022625499
0.022969293
0.023317517
0.02368303
0.024052606
0.024422724
0.024797358
0.025163164
0.025542552
0.025897306
0.026252869
0.026599513
0.02690516
0.027244056
0.02755317
0.027856526
0.028216225
0.028535941
0.02873695
0.029040805
0.029385078
0.029480927
0.029687894
0.029959744
0.030258033
0.030318473
0.02312294
0.02341499
0.023710388
0.024012176
0.024304919
0.02459478
0.024878326
0.025156469
0.025448987
0.025739591
0.026032228
0.026319549
0.02658673
0.026861702
0.027128914
0.027388667
0.027641512
0.027903739
0.0281376
0.028320922
0.028662433
0.028945335
0.029037453
0.02920075
0.029406813
0.023546052
0.023758803
0.023970233
0.024187713
0.024406404
0.024628668
0.024852875
0.025077995
0.025315042
0.025550856
0.025783397
0.026005683
0.026209608
0.02641484
0.026619388
0.026833537
0.027074661
0.027287425
0.027497565
0.02769733
0.027899309
0.028136887
0.028280753
0.028396998
0.028583504
0.02383037
0.02398998
0.024149944
0.024318857
0.024495542
0.024679874
0.024869928
0.025054056
0.025238123
0.025419223
0.025590931
0.025755939
0.025904054
0.026049359
0.026188762
0.02632593
0.026468202
0.026608444
0.026781385
0.026952444
0.027078993
0.027223468
0.027385507
0.027520836
0.02766967
0.024150038
0.024272249
0.024397331
0.024522482
0.024644042
0.02475934
0.024873159
0.024982624
0.02508924
0.025194358
0.025296571
0.025403875
0.025504234
0.025599318
0.025685125
0.025759045
0.025842036
0.025918032
0.02600486
0.026146754
0.026290436
0.026422852
0.02657071
0.026698859
0.024591683
0.024659749
0.024718076
0.024767475
0.024808705
0.024845794
0.02487904
0.024909209
0.024937472
0.024966579
0.025000282
0.025031613
0.025058616
0.025081946
0.025111298
0.025151342
0.025211757
0.025278525
0.025330888
0.025387981
0.02547839
0.025575352
0.025676756
0.025820039
0.024709744
0.024705035
0.02469044
0.024668121
0.024642045
0.024616196
0.024591982
0.024568296
0.024545576
0.024524316
0.024506772
0.024496563
0.024491097
0.024500494
0.024518573
0.024536976
0.024566868
0.02459226
0.02464365
0.024733818
0.024819149
0.0249259
0.025056212
0.024540449
0.024492253
0.024440254
0.024388572
0.024338225
0.024286616
0.024233184
0.024183398
0.024138024
0.024100683
0.024073633
0.024052384
0.024033162
0.024018764
0.024019881
0.024029789
0.024059912
0.024111925
0.024170561
0.024265034
0.024372207
0.024465544
0.024363201
0.024313048
0.024253546
0.0241859
0.024110691
0.024036665
0.023967064
0.023903366
0.023851268
0.023807723
0.023777678
0.02375191
0.023727988
0.023715544
0.023718751
0.023737731
0.023764428
0.023812155
0.023874674
0.023945259
0.024032604
0.024133557
0.023818499
0.0237631
0.023713148
0.023666094
0.02361458
0.023576401
0.023535153
0.023509148
0.023489777
0.023473086
0.02346456
0.023466852
0.02347421
0.023482306
0.023496193
0.023542179
0.023608784
0.023664968
0.023740128
0.023843197
0.023923951
0.023821193
0.023783333
0.023743553
0.023724416
0.023691399
0.023655882
0.023635523
0.023617325
0.023619166
0.02363021
0.023647549
0.023670794
0.023699226
0.023730462
0.023760679
0.023800264
0.023868389
0.023946484
0.024027518
0.024130527
0.023381976
0.023339545
0.023324447
0.023328759
0.02334902
0.023372594
0.023421432
0.023482894
0.023548345
0.023619277
0.023698153
0.023781996
0.023876477
0.02398107
0.024093127
0.024212492
0.024345102
0.024491324
0.024637651
0.024051682
0.024118395
0.024180971
0.024258304
0.02433387
0.024406956
0.02447631
0.024551471
0.024623891
0.024709393
0.024813527
0.024924094
0.025037754
0.025166926
0.025315853
0.025479659
0.025662644
0.02422588
0.024486243
0.024824572
0.025147755
0.02539364
0.02552754
0.025525644
0.025454112
0.02536726
0.025313335
0.025346569
0.025480429
0.025682811
0.025927791
0.026187642
0.026414596
0.027316021
0.026868295
0.026425263
0.02585722
0.025464704
0.025363704
0.0259754
0.026751716
0.027370731
0.028002531
0.02804408
0.027887861
0.028036266
0.028258488
0.027016088
0.029732289
0.029167846
0.029185879
0.02847495
0.026536738
0.024545786
0.024843905
0.02552436
0.026357564
0.027967565
0.028298483
)
;

boundaryField
{
    Side
    {
        type            empty;
    }
    Inlet
    {
        type            calculated;
        value           nonuniform List<scalar> 
32
(
0.018957226
0.018855585
0.018894993
0.018875361
0.018882498
0.018972959
0.018991147
0.018804369
0.018725319
0.018759256
0.018765508
0.018699834
0.018562257
0.018444587
0.018542715
0.018669193
0.018741357
0.018789024
0.018784459
0.01880979
0.019255088
0.019534559
0.019605155
0.019589737
0.019474999
0.019232188
0.019061359
0.019000092
0.019078153
0.019263843
0.019470107
0.019637298
)
;
    }
    Airfoil
    {
        type            calculated;
        value           nonuniform List<scalar> 0();
    }
    Outlet
    {
        type            calculated;
        value           nonuniform List<scalar> 0();
    }
    procBoundary9to2
    {
        type            processor;
        value           nonuniform List<scalar> 
23
(
0.034967099
0.035315518
0.035522749
0.035781003
0.036071717
0.036333244
0.036639757
0.036987375
0.037497354
0.038162783
0.038659071
0.039186063
0.040117623
0.04078585
0.041903698
0.043442364
0.045699298
0.048143916
0.051371135
0.055332847
0.058807549
0.062432591
0.065762785
)
;
    }
    procBoundary9to8
    {
        type            processor;
        value           nonuniform List<scalar> 
75
(
0.019340423
0.019340423
0.018837783
0.019379396
0.019379396
0.018713785
0.018713785
0.018830947
0.018830947
0.01907289
0.019931621
0.019931621
0.020443062
0.020443062
0.021135072
0.021135072
0.021756083
0.021756083
0.021529356
0.02203558
0.02203558
0.022613627
0.022613627
0.023380112
0.023380112
0.024075914
0.024075914
0.02451366
0.02451366
0.024824185
0.024824185
0.024663796
0.024663796
0.024336974
0.024336974
0.024076956
0.024076956
0.024194963
0.024194963
0.024547638
0.024547638
0.025665598
0.025031967
0.072684823
0.071109803
0.069752178
0.068630209
0.06722505
0.065815979
0.064022859
0.062464292
0.062464292
0.06152332
0.05902201
0.056483923
0.054171926
0.05124533
0.047338718
0.047338718
0.044981125
0.042128965
0.038352452
0.035023229
0.035023229
0.032081599
0.030133178
0.02863657
0.02863657
0.023897812
0.023416558
0.023147915
0.023147915
0.02130145
0.020808466
0.020808466
)
;
    }
    procBoundary9to10
    {
        type            processor;
        value           nonuniform List<scalar> 
66
(
0.034462407
0.034446039
0.034432251
0.03441804
0.034399661
0.034379264
0.034349243
0.034310095
0.034271331
0.034229172
0.034183742
0.034621351
0.034621351
0.034554028
0.034481229
0.034402056
0.034312875
0.0342114
0.034099409
0.033979401
0.033854546
0.033722975
0.033581857
0.033424897
0.033246318
0.033037525
0.033133547
0.033133547
0.032859722
0.032579861
0.032308956
0.031988476
0.031612243
0.0313764
0.0313764
0.030821164
0.030165512
0.029459843
0.029459843
0.028627603
0.027806459
0.026863455
0.026863455
0.026044098
0.025213711
0.025213711
0.024597523
0.024597523
0.024252527
0.02398982
0.02398982
0.024243602
0.024243602
0.024792641
0.025871685
0.024792641
0.026091225
0.025871685
0.02663221
0.028452926
0.02663221
0.028578473
0.027984974
0.028452926
0.028697025
0.027984974
)
;
    }
}


// ************************************************************************* //
