/*--------------------------------*- C++ -*----------------------------------*\
| =========                 |                                                 |
| \\      /  F ield         | OpenFOAM: The Open Source CFD Toolbox           |
|  \\    /   O peration     | Version:  2506                                  |
|   \\  /    A nd           | Website:  www.openfoam.com                      |
|    \\/     M anipulation  |                                                 |
\*---------------------------------------------------------------------------*/
FoamFile
{
    version     2.0;
    format      ascii;
    arch        "LSB;label=32;scalar=64";
    class       volScalarField;
    location    "0.3";
    object      T;
}
// * * * * * * * * * * * * * * * * * * * * * * * * * * * * * * * * * * * * * //

dimensions      [0 0 0 1 0 0 0];

internalField   nonuniform List<scalar> 
1376
(
245.59326
245.59456
245.59325
245.59436
245.59671
245.59855
245.60044
245.60214
245.60466
245.6054
245.6066
245.60844
245.60856
245.60698
245.60554
245.60242
245.60055
245.60063
245.60076
245.5905
245.59076
245.46889
245.58961
245.59151
245.5942
245.59625
245.59839
245.60067
245.60335
245.60393
245.6055
245.60764
245.60807
245.60686
245.6055
245.60264
245.60055
245.60097
245.60051
245.59025
245.58906
245.46566
245.58882
245.59182
245.59407
245.59635
245.59924
245.60197
245.60246
245.60444
245.60679
245.60753
245.60673
245.60546
245.60279
245.60055
245.60118
245.60033
245.59027
245.58697
245.46541
245.58945
245.59195
245.59438
245.59776
245.60059
245.601
245.60343
245.60588
245.60697
245.60656
245.60541
245.60294
245.60046
245.60137
245.6002
245.59063
245.58525
245.47001
245.59251
245.59623
245.59924
245.5996
245.60242
245.60496
245.6064
245.60633
245.60533
245.60304
245.60038
245.60152
245.60014
245.59116
245.58471
245.47567
245.59465
245.59789
245.59833
245.60142
245.60406
245.60583
245.60603
245.6053
245.60305
245.60035
245.60158
245.60014
245.59172
245.5849
245.4766
245.59653
245.59721
245.60043
245.6032
245.60522
245.60569
245.60524
245.60296
245.60041
245.60159
245.60014
245.59213
245.58503
245.47419
245.59627
245.59946
245.60236
245.60456
245.60531
245.60521
245.60288
245.60048
245.60157
245.60011
245.5924
245.58493
245.47375
245.59548
245.59852
245.60154
245.60387
245.6049
245.60516
245.60278
245.60053
245.60142
245.60005
245.59264
245.58522
245.47126
245.59759
245.60073
245.60316
245.60449
245.60507
245.6027
245.60057
245.60111
245.59998
245.59288
245.58534
245.46841
245.59991
245.60245
245.60408
245.60493
245.60265
245.60052
245.60081
245.59992
245.59291
245.58532
245.46599
245.60175
245.60365
245.60474
245.60264
245.60031
245.60058
245.59966
245.5927
245.58514
245.46424
245.6032
245.60452
245.60248
245.60011
245.60005
245.59918
245.5925
245.58467
245.46053
245.6042
245.60229
245.59979
245.59947
245.59889
245.59235
245.58236
245.45664
245.60213
245.59935
245.59901
245.59844
245.59224
245.5804
245.45636
245.59905
245.59852
245.59761
245.59204
245.57965
245.45791
245.59805
245.59707
245.59164
245.57817
245.45955
245.59686
245.59105
245.58078
245.46273
245.59061
245.5833
245.461
245.58373
245.45872
246.29323
246.2267
246.18408
246.15814
246.13145
246.09774
246.06425
246.03598
246.01092
245.98618
245.96547
245.94911
245.93484
245.924
245.91279
245.90083
245.8901
245.88132
245.87462
245.86819
245.86021
245.85067
245.84045
246.26243
246.24324
246.21637
246.19596
246.18289
246.17578
246.16546
246.14625
246.12049
246.09638
246.08156
246.06989
246.05456
246.0388
246.02044
246.00133
245.98371
245.9667
245.9514
245.93729
245.92274
245.90805
245.89365
245.93313
245.92562
245.9056
245.89796
245.89895
245.90981
245.91991
245.91854
245.9159
245.91637
245.92474
245.9384
245.94338
245.94636
245.94697
245.94768
245.94703
245.94444
245.93972
245.9332
245.92528
245.91685
245.90795
245.82722
245.81408
245.78736
245.77684
245.77071
245.77463
245.78029
245.77539
245.77117
245.77108
245.77771
245.78914
245.79592
245.80253
245.81051
245.81908
245.82784
245.83525
245.84107
245.8459
245.84931
245.85106
245.85053
245.79344
245.7826
245.75783
245.74571
245.73609
245.73227
245.73186
245.72478
245.71651
245.71309
245.7161
245.7214
245.72473
245.72864
245.73458
245.74085
245.74791
245.75464
245.76134
245.76837
245.77427
245.7783
245.78038
245.77887
245.77083
245.74762
245.73368
245.72381
245.71871
245.71598
245.70787
245.69722
245.69316
245.69445
245.6966
245.69738
245.69883
245.70197
245.70558
245.70984
245.71449
245.7195
245.72475
245.72882
245.73129
245.7325
245.76668
245.76168
245.7426
245.72768
245.71855
245.7138
245.71016
245.70221
245.69068
245.68637
245.68703
245.6878
245.68777
245.68817
245.68918
245.69097
245.69343
245.69642
245.69993
245.7034
245.70549
245.70611
245.70594
245.7586
245.75456
245.73862
245.72354
245.7154
245.71156
245.70786
245.70021
245.68837
245.68485
245.68524
245.68533
245.68498
245.68485
245.68501
245.68565
245.68697
245.68893
245.69131
245.69361
245.69447
245.69388
245.69278
245.75737
245.75231
245.74839
245.73531
245.72042
245.71307
245.71006
245.70627
245.69873
245.68824
245.68592
245.68571
245.68501
245.68461
245.68445
245.68431
245.68438
245.68502
245.68636
245.68797
245.6894
245.68971
245.68877
245.68712
245.75183
245.74699
245.74314
245.73247
245.71759
245.71084
245.7087
245.70493
245.6977
245.68947
245.68781
245.68696
245.68537
245.68517
245.68519
245.68506
245.68483
245.68516
245.6861
245.68715
245.68793
245.68823
245.68727
245.68538
245.74878
245.7418
245.73636
245.72857
245.71656
245.71047
245.70744
245.70272
245.69647
245.69099
245.68941
245.68787
245.68589
245.6862
245.68646
245.68644
245.68606
245.68631
245.68701
245.68748
245.68795
245.68838
245.68746
245.68544
245.743
245.73496
245.72976
245.72428
245.71618
245.71205
245.70701
245.69968
245.69445
245.69185
245.69041
245.6883
245.68653
245.68736
245.68807
245.68804
245.68763
245.68795
245.68836
245.68829
245.68882
245.68924
245.68832
245.73197
245.72586
245.72681
245.72015
245.71208
245.71014
245.70468
245.69721
245.69384
245.69252
245.69071
245.68814
245.68716
245.68853
245.68952
245.68938
245.68904
245.68942
245.68954
245.68925
245.69019
245.69032
245.68931
245.71768
245.71951
245.72171
245.71251
245.70825
245.70647
245.69841
245.69345
245.69342
245.69269
245.69071
245.68844
245.68816
245.68982
245.69026
245.68989
245.68972
245.69023
245.69027
245.69011
245.6916
245.69142
245.69015
245.71357
245.70534
245.71126
245.7107
245.70618
245.70713
245.70274
245.69193
245.69076
245.69117
245.68969
245.68938
245.68916
245.68926
245.69074
245.69024
245.68962
245.68992
245.6906
245.69048
245.69059
245.69255
245.69224
245.69066
245.69882
245.69669
245.70108
245.69934
245.69896
245.70068
245.69488
245.68858
245.68921
245.68812
245.68614
245.68844
245.68904
245.68933
245.69016
245.68933
245.68888
245.69007
245.6907
245.69031
245.6907
245.69278
245.69234
245.69062
245.68564
245.69054
245.69111
245.68919
245.69071
245.69093
245.68703
245.68705
245.68625
245.68386
245.68349
245.6869
245.68696
245.68759
245.68825
245.68775
245.68784
245.69009
245.69014
245.68963
245.69065
245.69214
245.69152
245.69
245.67458
245.68247
245.68115
245.67864
245.68178
245.68204
245.68028
245.68299
245.6807
245.68026
245.68226
245.68344
245.68317
245.68513
245.68652
245.68606
245.68664
245.68881
245.68888
245.68844
245.69043
245.69077
245.69003
245.68892
245.66091
245.66055
245.66994
245.67026
245.67042
245.67348
245.67351
245.67416
245.6767
245.6743
245.67729
245.67965
245.67933
245.68032
245.68323
245.68356
245.68358
245.68552
245.68722
245.68699
245.68708
245.68938
245.68909
245.68834
245.68761
245.65109
245.65027
245.65495
245.66272
245.66319
245.66504
245.6666
245.66904
245.67066
245.67065
245.67291
245.67579
245.67602
245.67725
245.67919
245.67994
245.68158
245.684
245.68521
245.68493
245.68601
245.68784
245.68713
245.68652
245.68597
245.63961
245.64519
245.64572
245.65222
245.65643
245.65849
245.66194
245.66318
245.66558
245.66853
245.66998
245.67196
245.67252
245.67467
245.67578
245.67688
245.67952
245.68168
245.68217
245.68307
245.68505
245.68603
245.68544
245.68512
245.68435
245.62165
245.62979
245.64004
245.63987
245.64391
245.6529
245.65246
245.65612
245.65884
245.66102
245.66582
245.6669
245.66813
245.66952
245.67237
245.67315
245.67451
245.67681
245.67913
245.68024
245.68189
245.68429
245.68424
245.68382
245.6837
245.68264
245.61892
245.62288
245.63102
245.63803
245.63836
245.64442
245.64915
245.65197
245.6575
245.65806
245.66156
245.66306
245.66402
245.6651
245.66776
245.67036
245.67337
245.67597
245.67702
245.67881
245.68132
245.68315
245.68311
245.68266
245.68214
245.68083
245.61588
245.61855
245.62478
245.63466
245.63531
245.63767
245.64668
245.64831
245.65223
245.6556
245.65664
245.65916
245.66045
245.66295
245.66572
245.66862
245.67101
245.67358
245.67459
245.67749
245.68056
245.68152
245.68196
245.68169
245.6809
245.67947
245.60508
245.61389
245.61927
245.6215
245.62637
245.63161
245.63456
245.64082
245.6462
245.64736
245.65016
245.65301
245.65539
245.65793
245.66093
245.66424
245.66618
245.66885
245.67104
245.67274
245.67568
245.67833
245.68028
245.68097
245.68053
245.67955
245.6781
245.60213
245.60909
245.61601
245.61894
245.62437
245.63063
245.63283
245.63648
245.64082
245.64279
245.64587
245.64937
245.65217
245.6554
245.65828
245.66255
245.66471
245.66657
245.66865
245.67101
245.67366
245.67588
245.67858
245.67936
245.67905
245.67806
245.59668
245.60072
245.60655
245.61286
245.61692
245.62243
245.62822
245.63005
245.63285
245.63667
245.63855
245.64224
245.64611
245.64964
245.65333
245.65648
245.6592
245.66228
245.66352
245.66597
245.66883
245.67208
245.67428
245.67668
245.67747
245.67736
245.67658
245.59867
245.60229
245.60701
245.612
245.61502
245.61902
245.62359
245.62601
245.62865
245.63283
245.63614
245.63926
245.64301
245.64667
245.6504
245.65331
245.65635
245.65954
245.66139
245.66427
245.66694
245.67032
245.67276
245.67377
245.67533
245.67553
245.67499
245.59914
245.6025
245.6061
245.60996
245.61261
245.61582
245.61968
245.62259
245.62602
245.62999
245.63318
245.63685
245.64062
245.64369
245.64728
245.64999
245.65265
245.65633
245.65896
245.66264
245.66578
245.66849
245.67127
245.67127
245.67242
245.6736
245.67343
245.59702
245.60047
245.60401
245.60795
245.61096
245.6142
245.61802
245.62081
245.62428
245.62784
245.63044
245.63394
245.63758
245.64032
245.64412
245.64784
245.65
245.6534
245.65729
245.6603
245.6635
245.66562
245.66812
245.66916
245.67027
245.67155
245.67181
245.59735
245.60031
245.60335
245.6068
245.60983
245.61298
245.61647
245.6192
245.62228
245.6254
245.62799
245.63131
245.63474
245.63759
245.64132
245.64506
245.64783
245.65095
245.65449
245.65705
245.66025
245.66299
245.66501
245.66753
245.66874
245.66922
245.66929
245.5991
245.6015
245.60399
245.60669
245.60944
245.61201
245.61487
245.61739
245.62006
245.62306
245.62566
245.62883
245.63226
245.63524
245.63867
245.64232
245.64516
245.64802
245.65111
245.65398
245.65655
245.65953
245.66226
245.66493
245.66631
245.66675
245.6007
245.60273
245.60483
245.60698
245.60928
245.61147
245.61389
245.61633
245.61875
245.62151
245.62406
245.62695
245.63009
245.6329
245.63619
245.63928
245.64208
245.64499
245.64782
245.65036
245.65343
245.65591
245.65897
245.66088
245.66238
245.6636
245.60243
245.6042
245.60599
245.60773
245.60954
245.61143
245.61339
245.61556
245.61783
245.62035
245.62285
245.62533
245.62799
245.63044
245.6331
245.6358
245.63827
245.64116
245.64421
245.64674
245.64946
245.65224
245.6549
245.65696
245.65848
245.65968
245.60365
245.60511
245.60664
245.60823
245.60994
245.61169
245.61349
245.6154
245.61738
245.6195
245.62164
245.62377
245.62592
245.62805
245.63031
245.63267
245.63502
245.63747
245.63998
245.64296
245.64549
245.64811
245.65048
245.65198
245.65331
245.60588
245.60701
245.60821
245.60946
245.61082
245.61227
245.61382
245.61543
245.61705
245.61874
245.62045
245.62214
245.62389
245.62564
245.62755
245.62962
245.63174
245.63416
245.63651
245.63868
245.64099
245.6432
245.6453
245.64728
245.64847
245.60686
245.60826
245.60959
245.61081
245.61196
245.61307
245.61419
245.61538
245.6166
245.61786
245.61919
245.62055
245.62198
245.62345
245.62508
245.62681
245.62856
245.63043
245.63228
245.63419
245.6361
245.63783
245.63951
245.64146
245.64338
245.60773
245.60882
245.6099
245.61095
245.61197
245.61294
245.61385
245.61476
245.61568
245.61664
245.61768
245.61876
245.61994
245.62117
245.62241
245.6237
245.625
245.62645
245.62791
245.62936
245.63119
245.63307
245.63486
245.63661
245.6092
245.6099
245.61057
245.6112
245.6118
245.61238
245.61297
245.61358
245.61422
245.61489
245.61557
245.6163
245.61705
245.61784
245.61875
245.61985
245.62106
245.62233
245.62369
245.62509
245.62652
245.62813
245.62973
245.63127
245.60897
245.60931
245.60959
245.60983
245.61005
245.61028
245.61053
245.61083
245.61113
245.61144
245.61177
245.61213
245.61261
245.61321
245.61399
245.61494
245.61591
245.61709
245.6184
245.61991
245.6217
245.62352
245.62544
245.60704
245.6071
245.60717
245.60725
245.60732
245.60739
245.60747
245.60753
245.60762
245.60774
245.60789
245.60812
245.60847
245.6089
245.60945
245.61018
245.61107
245.61221
245.6137
245.61532
245.61724
245.61937
245.60554
245.60552
245.60544
245.60532
245.60518
245.60503
245.60494
245.6049
245.60487
245.60491
245.60491
245.60496
245.6051
245.60537
245.60585
245.60656
245.60761
245.60888
245.61038
245.61209
245.61389
245.61579
245.60222
245.60209
245.60198
245.60189
245.60174
245.60162
245.60151
245.60136
245.60122
245.60111
245.60106
245.60114
245.60132
245.60167
245.60228
245.60304
245.60404
245.60547
245.60698
245.60863
245.61068
245.60049
245.60032
245.60006
245.59989
245.59966
245.59929
245.5991
245.59894
245.59879
245.59882
245.59897
245.59926
245.59964
245.60016
245.60092
245.60195
245.60318
245.60472
245.60663
245.60863
245.60026
245.59997
245.59969
245.59946
245.5993
245.59919
245.5992
245.59931
245.59949
245.59976
245.60013
245.60068
245.6014
245.60227
245.60337
245.60472
245.60627
245.60799
245.60994
245.60098
245.60125
245.6015
245.60178
245.60202
245.6022
245.60232
245.60244
245.60258
245.60279
245.60303
245.60343
245.60399
245.60471
245.60564
245.60679
245.60823
245.59113
245.59215
245.59356
245.59499
245.59608
245.5967
245.59676
245.59654
245.59623
245.59602
245.59624
245.59669
245.59759
245.59873
245.59998
245.60119
245.59201
245.59003
245.58813
245.58568
245.58395
245.58358
245.58597
245.5895
245.59226
245.59537
245.5958
245.59572
245.59624
245.59737
245.48027
245.49079
245.48849
245.48919
245.48513
245.4783
245.47007
245.47291
245.47566
245.47874
245.48676
245.48876
)
;

boundaryField
{
    Side
    {
        type            empty;
    }
    Inlet
    {
        type            totalTemperature;
        gamma           1.4;
        T0              uniform 250;
        value           nonuniform List<scalar> 
32
(
245.56365
245.56318
245.56337
245.56328
245.5633
245.56372
245.56381
245.56294
245.56258
245.56274
245.56276
245.56246
245.56182
245.56127
245.56173
245.56232
245.56265
245.56287
245.56285
245.56297
245.56503
245.56634
245.56666
245.56659
245.56606
245.56493
245.56413
245.56384
245.56421
245.56507
245.56604
245.56682
)
;
    }
    Airfoil
    {
        type            zeroGradient;
    }
    Outlet
    {
        type            inletOutlet;
        inletValue      nonuniform List<scalar> 0();
        value           nonuniform List<scalar> 0();
    }
    procBoundary9to2
    {
        type            processor;
        value           nonuniform List<scalar> 
23
(
245.84052
245.84981
245.85896
245.86864
245.87893
245.88887
245.89646
245.90206
245.91017
245.92468
245.94354
245.96079
245.97128
245.98162
246.00223
246.03147
246.06279
246.09278
246.12452
246.15832
246.19504
246.2425
246.30537
)
;
    }
    procBoundary9to8
    {
        type            processor;
        value           nonuniform List<scalar> 
75
(
245.59107
245.59107
245.58752
245.58978
245.58978
245.58646
245.58646
245.58648
245.58648
245.58705
245.58993
245.58993
245.59077
245.59077
245.59306
245.59306
245.59523
245.59523
245.59398
245.59481
245.59481
245.59663
245.59663
245.59905
245.59905
245.60103
245.60103
245.60271
245.60271
245.60379
245.60379
245.60195
245.60195
245.59885
245.59885
245.59754
245.59754
245.59644
245.59644
245.5902
245.5902
245.58544
245.45733
246.36161
246.27039
245.93709
245.83752
245.80322
245.78391
245.77214
245.76372
245.76372
245.78446
245.77322
245.76055
245.74447
245.73293
245.72297
245.72297
245.71406
245.70357
245.68443
245.66847
245.66847
245.65081
245.63713
245.62892
245.62892
245.61816
245.61067
245.60622
245.60622
245.59927
245.59746
245.59746
)
;
    }
    procBoundary9to10
    {
        type            processor;
        value           nonuniform List<scalar> 
66
(
245.83014
245.87939
245.89833
245.84925
245.78193
245.7334
245.7055
245.69117
245.68475
245.68246
245.68217
245.6862
245.6862
245.68708
245.68776
245.68818
245.68827
245.68795
245.6871
245.68571
245.68392
245.68195
245.68018
245.67869
245.67742
245.67626
245.677
245.677
245.67586
245.67439
245.67263
245.6706
245.66823
245.66644
245.66644
245.66302
245.65894
245.65513
245.65513
245.6493
245.64435
245.63819
245.63819
245.63283
245.62753
245.62753
245.62139
245.62139
245.61784
245.61285
245.61285
245.61088
245.61088
245.61201
245.60985
245.61201
245.61162
245.60985
245.6024
245.59822
245.6024
245.59915
245.48893
245.59822
245.49185
245.48893
)
;
    }
}


// ************************************************************************* //
