/*--------------------------------*- C++ -*----------------------------------*\
| =========                 |                                                 |
| \\      /  F ield         | OpenFOAM: The Open Source CFD Toolbox           |
|  \\    /   O peration     | Version:  2506                                  |
|   \\  /    A nd           | Website:  www.openfoam.com                      |
|    \\/     M anipulation  |                                                 |
\*---------------------------------------------------------------------------*/
FoamFile
{
    version     2.0;
    format      ascii;
    arch        "LSB;label=32;scalar=64";
    class       volVectorField;
    location    "0.0025";
    object      wallShearStress;
}
// * * * * * * * * * * * * * * * * * * * * * * * * * * * * * * * * * * * * * //

dimensions      [1 -1 -2 0 0 0 0];

internalField   uniform (0 0 0);

boundaryField
{
    Side
    {
        type            empty;
    }
    Inlet
    {
        type            calculated;
        value           uniform (0 0 0);
    }
    Airfoil
    {
        type            calculated;
        value           nonuniform List<vector> 
65
(
(-14.237008 -1.7526597 9.3055186e-40)
(-14.244208 -1.7592991 -9.1933062e-34)
(-14.253442 -1.7659579 2.6202819e-16)
(-14.264185 -1.7725756 -2.4446431e-26)
(-14.277284 -1.7791899 -2.4593524e-26)
(-14.292202 -1.7862994 -6.3446134e-23)
(-14.302307 -1.7945458 2.6749012e-16)
(-14.309781 -1.8023514 2.6896825e-16)
(-14.317949 -1.8099771 -6.450094e-23)
(-14.326901 -1.8173119 -2.7204367e-16)
(-14.336691 -1.8244141 -6.5233746e-23)
(-14.347537 -1.8313436 6.5654386e-23)
(-14.359262 -1.8379722 -1.3851847e-16)
(-14.375114 -1.8447766 1.3940199e-16)
(-14.395273 -1.8517959 1.3378531e-22)
(-14.412099 -1.8603029 -1.3674887e-22)
(-14.424723 -1.8689671 1.0715242e-32)
(-14.436559 -1.8771149 1.4323464e-16)
(-14.448992 -1.8849395 -1.4427219e-16)
(-14.462174 -1.89246 -1.4534551e-16)
(-14.476885 -1.8997318 1.4645169e-16)
(-14.494069 -1.9068432 -1.4759936e-16)
(-14.515848 -1.9140755 1.4878536e-16)
(-14.543512 -1.9216843 1.5001429e-16)
(-14.56768 -1.9311109 -2.3641613e-24)
(-14.585945 -1.9403645 -1.4551618e-22)
(-14.60264 -1.9490301 1.4687471e-22)
(-14.620914 -1.9574642 -1.5046328e-36)
(-14.639711 -1.9655001 -1.5687968e-16)
(-14.660941 -1.9733718 -5.0754465e-26)
(-14.684393 -1.9810395 -3.200142e-16)
(-14.715468 -1.9891263 -1.5420408e-22)
(-14.748787 -1.998261 -1.5580117e-22)
(-14.774348 -2.0088529 -1.6520116e-16)
(-14.795067 -2.0183769 -5.8981605e-34)
(-14.818212 -2.0277399 1.6905361e-16)
(-14.840362 -2.0363484 0)
(-14.866096 -2.0447963 1.5046328e-36)
(-14.8942 -2.052884 1.7550356e-16)
(-14.932874 -2.0615968 0)
(-14.973322 -2.0714126 -1.7196976e-22)
(-15.005452 -2.0831913 1.8296376e-16)
(-15.031474 -2.0935431 -1.8571618e-16)
(-15.059922 -2.1034765 -1.7709904e-22)
(-15.090055 -2.1127328 1.8283482e-22)
(-15.125044 -2.1216904 1.6556614e-33)
(-15.167141 -2.1304856 -1.8916921e-22)
(-15.225588 -2.1407512 1.9106579e-22)
(-15.270429 -2.1528803 -1.0298904e-16)
(-15.307951 -2.1645719 2.101777e-16)
(-15.345025 -2.1754372 1.0733754e-16)
(-15.386853 -2.1860013 5.8991009e-33)
(-15.43321 -2.1961172 1.1237969e-16)
(-15.497172 -2.2073117 1.1522349e-16)
(-15.570086 -2.2204417 -1.1833288e-16)
(-15.624227 -2.2351785 1.2175187e-16)
(-15.66835 -2.2476572 -2.1052408e-24)
(-15.72267 -2.2601769 8.7900646e-33)
(-15.76696 -2.269247 -1.3450995e-16)
(-15.895414 -2.2875571 -5.3372033e-22)
(-15.974856 -2.3018874 5.5796334e-22)
(-16.023338 -2.3149094 7.6869633e-17)
(-16.230864 -2.3489262 3.0092655e-36)
(-15.921933 -2.3076644 -8.7392659e-17)
(-17.330091 -2.4985991 1.5112464e-21)
)
;
    }
    Outlet
    {
        type            calculated;
        value           nonuniform List<vector> 0();
    }
    procBoundary5to4
    {
        type            processor;
        value           uniform (0 0 0);
    }
    procBoundary5to6
    {
        type            processor;
        value           uniform (0 0 0);
    }
    procBoundary5to12
    {
        type            processor;
        value           uniform (0 0 0);
    }
    procBoundary5to13
    {
        type            processor;
        value           uniform (0 0 0);
    }
}


// ************************************************************************* //
