/*--------------------------------*- C++ -*----------------------------------*\
| =========                 |                                                 |
| \\      /  F ield         | OpenFOAM: The Open Source CFD Toolbox           |
|  \\    /   O peration     | Version:  2506                                  |
|   \\  /    A nd           | Website:  www.openfoam.com                      |
|    \\/     M anipulation  |                                                 |
\*---------------------------------------------------------------------------*/
FoamFile
{
    version     2.0;
    format      ascii;
    arch        "LSB;label=32;scalar=64";
    class       volScalarField;
    location    "1";
    object      T;
}
// * * * * * * * * * * * * * * * * * * * * * * * * * * * * * * * * * * * * * //

dimensions      [0 0 0 1 0 0 0];

internalField   nonuniform List<scalar> 
19257
(
245.59693
245.60069
245.59609
245.59187
245.58724
245.58526
245.5854
245.5857
245.58537
245.58622
245.58706
245.58743
245.58679
245.5862
245.58512
245.58333
245.58138
245.57878
245.58009
245.57649
245.57148
245.57079
245.56725
245.56231
245.55602
245.5518
245.5496
245.54305
245.53249
245.53224
245.53035
245.53087
245.53088
245.52593
245.51733
245.51308
245.51309
245.51948
245.52537
245.5326
245.52545
245.52052
245.50061
245.46784
245.12278
245.16626
245.16379
244.75771
244.1308
245.60182
245.60341
245.59653
245.59065
245.58776
245.58623
245.58618
245.58534
245.5864
245.58669
245.58771
245.58899
245.58837
245.5877
245.58633
245.58416
245.58385
245.58183
245.58214
245.5794
245.57477
245.5743
245.57184
245.56824
245.56331
245.55924
245.55907
245.55399
245.547
245.54463
245.54539
245.54905
245.55218
245.55054
245.5474
245.54598
245.54898
245.55702
245.57582
245.59169
245.61057
245.60103
245.61527
245.61125
245.57476
245.46693
245.23007
245.09489
244.17333
245.60382
245.59817
245.59278
245.58887
245.58839
245.58739
245.58729
245.58655
245.58765
245.58731
245.58873
245.5897
245.58945
245.58912
245.58759
245.58689
245.58682
245.58386
245.58378
245.58277
245.5788
245.57832
245.57753
245.57445
245.57129
245.5673
245.56784
245.56566
245.56163
245.55814
245.56074
245.56564
245.57224
245.57518
245.57537
245.57987
245.58602
245.60306
245.62913
245.65762
245.66658
245.68902
245.71004
245.74634
245.64925
245.66976
245.35547
245.33706
244.65189
245.60013
245.59432
245.58814
245.58783
245.5892
245.58855
245.58803
245.58819
245.58873
245.58869
245.5896
245.59025
245.59043
245.59027
245.58955
245.58893
245.58885
245.58544
245.58563
245.58637
245.58265
245.58261
245.58333
245.5807
245.57873
245.5752
245.57662
245.57782
245.57576
245.57192
245.57537
245.5834
245.59224
245.59815
245.60383
245.6127
245.62317
245.64463
245.67322
245.71347
245.7399
245.76532
245.80461
245.88748
245.91069
245.58021
245.72485
245.62818
244.89033
245.59596
245.59498
245.58595
245.58795
245.59065
245.58995
245.58911
245.58978
245.59033
245.59033
245.59035
245.59185
245.59197
245.59177
245.59102
245.59087
245.59118
245.58838
245.58877
245.58975
245.58741
245.58786
245.58889
245.58816
245.58601
245.58432
245.58666
245.58943
245.59003
245.58644
245.59098
245.60152
245.61281
245.62171
245.63108
245.64325
245.65882
245.68329
245.71921
245.76126
245.80873
245.82403
245.89363
245.98237
246.0436
245.93721
245.89497
245.9322
245.28645
245.60096
245.59651
245.58676
245.5886
245.5913
245.59072
245.59002
245.59081
245.59181
245.59206
245.59205
245.59339
245.59385
245.59337
245.59328
245.59361
245.59498
245.59329
245.59269
245.5937
245.59277
245.59293
245.59522
245.59585
245.59356
245.59364
245.59646
245.60103
245.60492
245.60177
245.60711
245.61953
245.63331
245.64491
245.65722
245.67389
245.69458
245.72433
245.76679
245.81321
245.86415
245.90167
245.9634
246.0666
246.11829
246.11703
246.2448
246.23435
245.60646
245.60609
245.59959
245.58905
245.58968
245.59138
245.59088
245.5906
245.5916
245.59284
245.59354
245.59423
245.59528
245.596
245.59554
245.5966
245.59748
245.5988
245.59813
245.59656
245.59683
245.59746
245.59854
245.60127
245.60271
245.60173
245.60233
245.60595
245.61294
245.6195
245.61866
245.62394
245.63738
245.65418
245.6684
245.68331
245.70245
245.72844
245.76244
245.80609
245.86213
245.91931
245.97413
246.03745
246.14405
246.25576
246.26544
246.39476
246.46043
246.03883
245.60477
245.59858
245.58955
245.59083
245.59137
245.59126
245.59116
245.5923
245.59357
245.59491
245.59613
245.59736
245.5985
245.59845
245.59957
245.60108
245.6012
245.6015
245.60034
245.59983
245.60194
245.60389
245.60687
245.60986
245.61016
245.61053
245.61555
245.6247
245.63375
245.63623
245.64144
245.65535
245.67464
245.69177
245.70874
245.73035
245.75989
245.79968
245.8462
245.91213
245.97019
246.04081
246.11531
246.22527
246.33323
246.43822
246.60473
246.77852
246.44288
245.60331
245.59942
245.59113
245.59167
245.59266
245.5921
245.5922
245.5935
245.59467
245.59632
245.59842
245.59962
245.60087
245.6014
245.60201
245.6033
245.60341
245.60533
245.60491
245.60428
245.60687
245.60928
245.61308
245.61762
245.61937
245.61963
245.62552
245.6359
245.64729
245.65356
245.65941
245.67346
245.69443
245.71475
245.73354
245.75756
245.78959
245.83383
245.88788
245.95114
246.02887
246.10119
246.18718
246.30409
246.44257
246.6294
246.79107
247.00455
246.83387
245.60739
245.60135
245.59158
245.59243
245.59328
245.59372
245.59419
245.59583
245.59683
245.59855
245.60057
245.60187
245.60308
245.60366
245.60434
245.60552
245.6068
245.60969
245.61034
245.60954
245.612
245.6151
245.61967
245.62533
245.62859
245.62916
245.63539
245.64677
245.65985
245.66959
245.67755
245.69177
245.71364
245.73705
245.75852
245.78365
245.81885
245.86478
245.92473
245.99108
246.07654
246.15091
246.25459
246.38689
246.54519
246.73834
246.94616
247.20896
247.22195
245.60955
245.60424
245.59257
245.59227
245.5937
245.59508
245.59634
245.59808
245.59915
245.60088
245.60271
245.60403
245.60503
245.60605
245.60703
245.60818
245.61047
245.61365
245.61556
245.61472
245.61717
245.62041
245.62565
245.63215
245.63681
245.6384
245.64499
245.65694
245.67148
245.68418
245.69522
245.71031
245.73266
245.75849
245.78277
245.80925
245.84603
245.89521
245.95765
246.03269
246.11562
246.20999
246.32487
246.45779
246.64737
246.8401
247.1157
247.42344
247.55975
245.6108
245.60633
245.59247
245.59267
245.59445
245.59652
245.59842
245.59965
245.60094
245.60259
245.60457
245.60598
245.60745
245.60853
245.61
245.6113
245.6137
245.61702
245.6201
245.61982
245.62224
245.62588
245.63157
245.63863
245.64466
245.64756
245.65431
245.66683
245.68262
245.69768
245.71179
245.72856
245.75139
245.77889
245.80576
245.83427
245.87173
245.92333
245.98887
246.06752
246.15562
246.25746
246.37516
246.52534
246.72055
246.94207
247.26647
247.57494
247.86254
245.61072
245.60701
245.59404
245.59489
245.59604
245.59797
245.59943
245.59979
245.60159
245.6039
245.60638
245.608
245.60976
245.61097
245.61305
245.61449
245.61661
245.62011
245.6241
245.62506
245.6273
245.63138
245.63751
245.64519
245.65249
245.65678
245.66346
245.67641
245.69314
245.71008
245.72687
245.74567
245.76939
245.798
245.8272
245.85752
245.89605
245.94926
246.01833
246.09905
246.1924
246.29876
246.42301
246.59019
246.78634
247.06506
247.35661
247.79688
248.13142
245.61239
245.60847
245.59376
245.59471
245.59524
245.59647
245.59785
245.59889
245.60168
245.60429
245.60728
245.60961
245.61213
245.61401
245.61612
245.61764
245.61961
245.62331
245.62791
245.63
245.63207
245.63644
245.643
245.65124
245.65966
245.6655
245.67224
245.68544
245.70289
245.72128
245.74032
245.76104
245.78584
245.81542
245.84661
245.87889
245.91849
245.97294
246.04412
246.1293
246.22451
246.334
246.46877
246.63908
246.8536
247.12695
247.48189
247.97973
248.35234
245.61236
245.6081
245.59158
245.59249
245.59424
245.59725
245.59906
245.60038
245.60225
245.60472
245.60805
245.6104
245.61328
245.61596
245.61841
245.62049
245.62235
245.62604
245.63103
245.6341
245.63627
245.64072
245.64771
245.6565
245.66567
245.6729
245.68003
245.69343
245.71147
245.7311
245.75201
245.77436
245.80013
245.83057
245.86363
245.898
245.93839
245.99408
246.06776
246.15453
246.25337
246.36547
246.50581
246.68171
246.90579
247.19485
247.58131
248.11829
248.55313
245.61425
245.60972
245.59106
245.59308
245.5953
245.598
245.60034
245.60177
245.60278
245.60487
245.60816
245.61066
245.61402
245.61755
245.62015
245.62255
245.62437
245.62799
245.63318
245.63717
245.63994
245.64452
245.65177
245.66101
245.67055
245.67878
245.68651
245.69991
245.71839
245.73912
245.76153
245.78531
245.81183
245.84288
245.87774
245.91411
245.95567
246.01189
246.08733
246.1764
246.27686
246.39282
246.53555
246.71786
246.95127
247.25369
247.65902
248.22462
248.70502
245.61631
245.61041
245.59067
245.59174
245.59298
245.59606
245.59907
245.60139
245.60289
245.60446
245.60738
245.61063
245.6145
245.61862
245.62142
245.62416
245.62617
245.62973
245.63503
245.63967
245.6431
245.64777
245.65511
245.66479
245.67456
245.68338
245.69171
245.70486
245.72343
245.74502
245.76855
245.79359
245.82069
245.8521
245.88827
245.9266
245.96927
246.02604
246.10242
246.19365
246.29421
246.41226
246.55914
246.74519
246.9836
247.29515
247.71962
248.29987
248.83566
245.61726
245.61144
245.5918
245.59223
245.59198
245.59479
245.59775
245.60074
245.60345
245.60528
245.60805
245.61129
245.61514
245.61944
245.62244
245.62556
245.6279
245.63134
245.63662
245.6416
245.64554
245.65023
245.65754
245.66752
245.67752
245.68671
245.69559
245.70837
245.72668
245.7489
245.77317
245.79917
245.82677
245.85838
245.89518
245.93508
245.97907
246.03658
246.11337
246.20507
246.30727
246.42569
246.57455
246.76642
247.00711
247.32682
247.75288
248.36682
248.92135
245.6167
245.61232
245.59336
245.59365
245.59209
245.59368
245.5967
245.60037
245.60373
245.60617
245.60904
245.61224
245.61589
245.62012
245.62321
245.62665
245.6294
245.63281
245.63796
245.64315
245.64761
245.65228
245.65947
245.66955
245.67961
245.68912
245.69857
245.71104
245.72918
245.75211
245.77688
245.80336
245.83145
245.86334
245.90047
245.94146
245.98704
246.04538
246.12229
246.21415
246.3168
246.43612
246.58734
246.78208
247.0273
247.3498
247.78184
248.40102
248.96899
245.61603
245.61275
245.59499
245.59445
245.59252
245.59345
245.59617
245.60003
245.60394
245.60657
245.60967
245.61323
245.61668
245.62055
245.62346
245.62691
245.6299
245.63338
245.63859
245.64383
245.64848
245.65316
245.66043
245.67048
245.68027
245.68998
245.7
245.71232
245.73039
245.75391
245.7788
245.80509
245.83337
245.86556
245.90254
245.9437
245.99058
246.04996
246.12657
246.21779
246.3204
246.43969
246.59172
246.78851
247.03553
247.35799
247.7928
248.42074
248.99944
245.6158
245.6125
245.59599
245.59512
245.59306
245.59396
245.59616
245.59958
245.6036
245.60689
245.61007
245.61368
245.61727
245.62109
245.62372
245.62693
245.62991
245.6334
245.63848
245.64352
245.6481
245.65275
245.65997
245.66969
245.67886
245.68849
245.69884
245.71089
245.72888
245.7528
245.77746
245.80296
245.83106
245.86357
245.9
245.94044
245.98813
246.04831
246.12398
246.21372
246.31545
246.43382
246.58551
246.78218
247.02821
247.34624
247.77607
248.40179
248.96145
245.61538
245.61165
245.59628
245.59581
245.59384
245.59436
245.59657
245.59932
245.60306
245.60723
245.6104
245.61355
245.6169
245.62041
245.62274
245.62588
245.62888
245.63243
245.63717
245.6421
245.64679
245.65145
245.65856
245.66785
245.6764
245.68594
245.6964
245.70814
245.72613
245.75018
245.77413
245.79834
245.82614
245.8589
245.89424
245.93348
245.98185
246.04264
246.11664
246.20413
246.30426
246.42092
246.57109
246.76666
247.00794
247.32287
247.74053
248.36779
248.90841
245.61456
245.61037
245.59556
245.59638
245.59486
245.5954
245.59726
245.59944
245.603
245.60734
245.61051
245.61328
245.61621
245.61909
245.62101
245.6241
245.62713
245.63065
245.63508
245.63988
245.64461
245.64926
245.65631
245.66512
245.67308
245.68246
245.69276
245.70422
245.72239
245.74638
245.76938
245.7922
245.81974
245.8526
245.88643
245.9243
245.97341
246.03468
246.10707
246.19251
246.29055
246.40507
246.55376
246.74493
246.98518
247.28491
247.70845
248.29388
248.82504
245.61332
245.60901
245.59473
245.5974
245.59674
245.59701
245.59764
245.59881
245.60285
245.60707
245.61012
245.61279
245.61557
245.61775
245.61913
245.62197
245.62486
245.6281
245.63218
245.63697
245.64162
245.64619
245.65305
245.66111
245.66831
245.67747
245.68743
245.69866
245.717
245.74046
245.76199
245.78336
245.81083
245.84321
245.87482
245.91149
245.96114
246.02242
246.09339
246.17663
246.27213
246.38394
246.52886
246.71616
246.94655
247.24201
247.63792
248.20222
248.68432
245.61203
245.60763
245.59347
245.59621
245.59545
245.59565
245.59647
245.59805
245.60192
245.60578
245.60883
245.61135
245.61399
245.61552
245.61683
245.61949
245.62213
245.62503
245.62877
245.63357
245.6379
245.64237
245.64887
245.6559
245.66226
245.67105
245.68047
245.69163
245.7101
245.73247
245.75204
245.77207
245.79953
245.83064
245.85949
245.89538
245.94562
246.00637
246.07502
246.15538
246.24768
246.35577
246.49683
246.67694
246.89952
247.18609
247.54291
248.07871
248.53304
245.61089
245.60662
245.5934
245.59614
245.59514
245.59449
245.59531
245.59726
245.60114
245.60476
245.60763
245.60987
245.61203
245.61273
245.6142
245.6165
245.61885
245.62149
245.62498
245.62975
245.63365
245.63805
245.64395
245.64984
245.65543
245.66369
245.67241
245.68369
245.70201
245.72263
245.74003
245.75905
245.7863
245.81505
245.84113
245.87686
245.92794
245.98725
246.05278
246.13001
246.21744
246.32122
246.45749
246.6291
246.84853
247.09909
247.48842
247.86723
248.32755
245.60882
245.60452
245.59195
245.59469
245.59593
245.59577
245.59637
245.5982
245.60153
245.60462
245.60709
245.60861
245.6102
245.61009
245.61144
245.61321
245.61514
245.6175
245.62097
245.62564
245.62897
245.63313
245.63811
245.64294
245.64807
245.65564
245.6636
245.67509
245.69267
245.71097
245.72641
245.74491
245.77124
245.79663
245.82056
245.85704
245.90847
245.96523
246.02733
246.10031
246.1816
246.28234
246.40845
246.57659
246.7829
247.02505
247.34874
247.79889
248.07934
245.60776
245.60413
245.59304
245.594
245.59487
245.59492
245.59619
245.59866
245.60128
245.60369
245.60625
245.6073
245.60807
245.60732
245.6088
245.61047
245.61179
245.61381
245.61698
245.62104
245.62391
245.6275
245.63135
245.63521
245.63992
245.64673
245.65409
245.6657
245.68184
245.69769
245.71176
245.7299
245.75413
245.77577
245.79876
245.83656
245.88714
245.94012
245.99851
246.06555
246.14236
246.23551
246.35514
246.51345
246.70718
246.96174
247.16933
247.66364
247.82713
245.60575
245.60188
245.59239
245.59467
245.59426
245.59359
245.5949
245.59756
245.60012
245.60229
245.60477
245.60535
245.60579
245.60537
245.6069
245.60838
245.60884
245.61051
245.6134
245.61638
245.61861
245.62152
245.62454
245.62741
245.63144
245.63741
245.64438
245.65571
245.6698
245.68345
245.69645
245.71374
245.73486
245.7533
245.77675
245.8153
245.86368
245.91164
245.96604
246.02682
246.09857
246.18271
246.29928
246.44423
246.62856
246.83528
247.10277
247.4043
247.53035
245.60568
245.60082
245.59223
245.59381
245.59377
245.59336
245.59455
245.59674
245.59921
245.60138
245.60325
245.60349
245.60318
245.60334
245.60478
245.60584
245.60564
245.60714
245.60984
245.6116
245.61296
245.61521
245.61728
245.61929
245.6228
245.62841
245.63499
245.6452
245.65679
245.66889
245.68068
245.6961
245.71379
245.73041
245.75489
245.79296
245.83714
245.88078
245.9298
245.98449
246.04845
246.12592
246.23587
246.37047
246.54961
246.70731
246.96991
247.21713
247.19133
245.60426
245.6011
245.59254
245.5941
245.59378
245.59351
245.59496
245.5962
245.59821
245.60025
245.6015
245.60158
245.60125
245.60128
245.602
245.60257
245.60277
245.60397
245.60595
245.60681
245.60706
245.60869
245.60962
245.61091
245.61389
245.61925
245.62571
245.63451
245.64351
245.65419
245.66414
245.67713
245.69207
245.70816
245.73274
245.76912
245.8081
245.84788
245.89024
245.94066
245.99519
246.07089
246.16678
246.28832
246.45646
246.60925
246.77567
247.048
246.85843
245.60421
245.60184
245.59197
245.59204
245.59203
245.59287
245.59475
245.59581
245.5975
245.59933
245.59975
245.59954
245.59911
245.5992
245.60036
245.59977
245.59949
245.6006
245.60184
245.60184
245.6013
245.60238
245.60233
245.60259
245.60489
245.61019
245.61618
245.62326
245.63028
245.63928
245.64675
245.65723
245.67042
245.68635
245.70989
245.74267
245.77745
245.81207
245.84852
245.88931
245.94203
246.01042
246.09992
246.21283
246.3379
246.48065
246.58198
246.7701
246.48562
245.60564
245.60026
245.59069
245.59018
245.59063
245.59248
245.59411
245.59531
245.59675
245.59812
245.59726
245.59785
245.59741
245.5973
245.59793
245.5976
245.59728
245.59763
245.59742
245.59664
245.59656
245.59545
245.59503
245.59548
245.59643
245.60122
245.60616
245.61133
245.61718
245.62389
245.62867
245.63736
245.64952
245.66415
245.68581
245.71539
245.74707
245.77389
245.80563
245.84154
245.8856
245.9477
246.03318
246.12938
246.23215
246.3398
246.39728
246.4032
246.01937
245.60638
245.6001
245.59252
245.59064
245.59089
245.59286
245.59348
245.59442
245.59568
245.59643
245.59531
245.59568
245.59537
245.59589
245.59585
245.59531
245.59482
245.59442
245.59396
245.59158
245.59195
245.58955
245.58781
245.5878
245.5895
245.59301
245.59591
245.59878
245.6039
245.60849
245.61072
245.61813
245.62919
245.64157
245.66057
245.68794
245.71341
245.73498
245.75666
245.78867
245.82899
245.88615
245.96115
246.03392
246.11688
246.18298
246.21363
246.22076
245.60372
245.60471
245.59964
245.59308
245.5914
245.59151
245.5929
245.59262
245.59335
245.59438
245.59455
245.59386
245.59301
245.59317
245.59475
245.59386
245.59207
245.59144
245.59051
245.58978
245.58699
245.58679
245.58277
245.58211
245.58066
245.58238
245.58516
245.58604
245.58676
245.59004
245.59278
245.59361
245.59979
245.60873
245.61832
245.63581
245.66103
245.67979
245.69195
245.71471
245.74084
245.76964
245.8236
245.88675
245.94763
245.97685
246.01036
246.00235
246.01855
245.1596
245.60208
245.59863
245.59118
245.59116
245.59145
245.59213
245.59142
245.5923
245.59272
245.5924
245.59218
245.59095
245.59104
245.59327
245.59252
245.59023
245.58906
245.58708
245.58498
245.58248
245.58194
245.57713
245.57565
245.57485
245.57562
245.57615
245.57645
245.57551
245.57661
245.57732
245.57674
245.58188
245.58771
245.59537
245.61225
245.63331
245.64194
245.65071
245.65895
245.67965
245.71197
245.75642
245.80183
245.82897
245.85746
245.83915
245.69502
245.66878
244.86809
245.60206
245.59616
245.58905
245.58991
245.59029
245.59046
245.58996
245.59106
245.59077
245.59038
245.59044
245.5897
245.58981
245.59086
245.59065
245.58886
245.58721
245.58514
245.58124
245.57971
245.57703
245.57278
245.56996
245.569
245.56985
245.56726
245.56615
245.56478
245.5634
245.56256
245.5609
245.56457
245.56604
245.57234
245.58888
245.60156
245.60341
245.61014
245.62456
245.62917
245.64253
245.6815
245.71927
245.7169
245.68108
245.626
245.44241
245.37024
244.48014
245.60491
245.59666
245.58767
245.58773
245.58818
245.5882
245.58801
245.58944
245.58928
245.58896
245.58868
245.58798
245.58881
245.58845
245.58729
245.58664
245.58528
245.58296
245.57796
245.57672
245.57264
245.56827
245.56509
245.56345
245.56321
245.5597
245.55566
245.55302
245.55092
245.54835
245.54545
245.54604
245.54521
245.55093
245.56532
245.5686
245.56136
245.56561
245.55225
245.55263
245.58653
245.60932
245.58969
245.56136
245.55242
245.47385
245.16641
244.99992
244.27929
245.60631
245.59913
245.58844
245.586
245.58621
245.58609
245.58621
245.58789
245.58801
245.5876
245.58728
245.58658
245.58807
245.58651
245.58492
245.58434
245.58329
245.57993
245.57508
245.57376
245.56902
245.56417
245.56052
245.55841
245.55651
245.55201
245.54619
245.54078
245.53847
245.53405
245.53081
245.5265
245.52412
245.53112
245.53776
245.52887
245.52554
245.52526
245.52819
245.47688
245.48784
245.50994
245.50574
245.41342
245.33868
245.26473
244.89683
244.80232
244.15939
247.12839
246.64188
246.30573
246.15942
246.03675
245.9626
245.91342
245.87272
245.83355
245.79474
245.76382
245.75391
245.71666
245.71125
245.68975
245.6534
245.63115
245.61936
245.61148
245.60256
245.59417
245.5873
245.58265
245.58142
245.57974
245.57878
245.57728
245.57546
245.5752
245.57441
245.57389
245.57372
245.57618
245.57808
245.5801
245.58292
245.58379
245.58428
245.58551
245.58669
245.5873
245.58752
245.58651
245.58625
245.58562
245.58579
245.58714
245.57601
245.55036
246.76424
246.24591
245.99759
245.885
245.85592
245.83072
245.80971
245.78629
245.76029
245.73458
245.71278
245.68313
245.66971
245.65633
245.63632
245.61998
245.61279
245.60596
245.59437
245.58268
245.57804
245.57572
245.57515
245.57546
245.57527
245.57478
245.57315
245.57173
245.57248
245.57221
245.572
245.57222
245.57528
245.57748
245.57958
245.58238
245.58339
245.58402
245.58532
245.5865
245.58727
245.58759
245.5867
245.58654
245.58593
245.58602
245.58737
245.57613
245.55046
246.48439
245.99809
245.78788
245.74715
245.72916
245.71928
245.7108
245.69194
245.67756
245.66559
245.65712
245.64862
245.63036
245.61301
245.60563
245.5985
245.59012
245.57818
245.5711
245.56744
245.56652
245.56623
245.56564
245.56577
245.56722
245.56792
245.56813
245.56797
245.56942
245.56992
245.56993
245.57075
245.57426
245.57678
245.57906
245.58181
245.58301
245.58372
245.58513
245.58629
245.58719
245.58766
245.58694
245.58673
245.58603
245.58617
245.58759
245.57625
245.55091
246.37443
245.80625
245.66525
245.58185
245.60215
245.58606
245.59292
245.59037
245.59117
245.59036
245.59161
245.58259
245.58246
245.58158
245.57029
245.56032
245.55676
245.55457
245.55315
245.55126
245.5516
245.55313
245.55436
245.55625
245.55957
245.56156
245.56335
245.56448
245.5667
245.56753
245.5681
245.56948
245.57325
245.57609
245.57852
245.58126
245.58267
245.58341
245.58494
245.58608
245.5871
245.58771
245.58713
245.58681
245.58597
245.58634
245.5877
245.57631
245.55155
246.15135
245.59935
245.47311
245.46076
245.4755
245.47644
245.49312
245.49941
245.51167
245.51611
245.52482
245.53312
245.53587
245.52892
245.53028
245.53106
245.53223
245.53145
245.53233
245.53339
245.53517
245.54054
245.54526
245.5484
245.55196
245.55529
245.55862
245.56094
245.56399
245.56519
245.5662
245.5683
245.57212
245.57528
245.57792
245.58074
245.58235
245.58309
245.58474
245.5859
245.58698
245.58775
245.58724
245.58694
245.58606
245.58646
245.58774
245.57627
245.55226
246.07447
245.44207
245.37705
245.34424
245.37265
245.36704
245.3885
245.40828
245.42873
245.43824
245.45624
245.46488
245.47593
245.48784
245.4951
245.50069
245.5044
245.50497
245.50917
245.5172
245.52281
245.52825
245.53489
245.53967
245.54407
245.54904
245.55397
245.55735
245.56114
245.56291
245.56424
245.56711
245.57094
245.57444
245.57726
245.58026
245.58207
245.58279
245.58454
245.58576
245.58686
245.58777
245.58737
245.587
245.58624
245.58646
245.58766
245.57615
245.55294
245.87739
245.28709
245.23247
245.23374
245.26118
245.27567
245.29873
245.32704
245.35498
245.37229
245.39747
245.41293
245.42964
245.43769
245.4493
245.4642
245.47751
245.48539
245.48874
245.49822
245.50969
245.51603
245.52337
245.5309
245.53789
245.54376
245.5495
245.55424
245.55853
245.56068
245.56245
245.56596
245.5698
245.5736
245.5766
245.57982
245.58183
245.5825
245.58435
245.58565
245.58676
245.58779
245.58745
245.58689
245.58628
245.58626
245.58751
245.57593
245.55348
245.80409
245.1455
245.15489
245.12848
245.16968
245.19518
245.21693
245.24683
245.27878
245.30422
245.3354
245.35049
245.37634
245.39808
245.41438
245.42965
245.44663
245.46439
245.47141
245.47772
245.49269
245.50534
245.51377
245.52225
245.53179
245.53896
245.54495
245.55097
245.55598
245.55837
245.56067
245.56483
245.56877
245.57275
245.57601
245.5794
245.5816
245.58224
245.58418
245.58558
245.58669
245.58781
245.58751
245.58689
245.58599
245.58611
245.58714
245.57564
245.55378
245.64659
245.07707
245.08613
245.03515
245.10172
245.11607
245.15174
245.17912
245.21758
245.24512
245.27823
245.29666
245.32957
245.35566
245.38165
245.3994
245.41297
245.43506
245.45623
245.4643
245.47549
245.49177
245.50515
245.51479
245.52462
245.53359
245.54088
245.54761
245.5534
245.55615
245.55898
245.5637
245.56792
245.572
245.57539
245.57906
245.58137
245.58198
245.58404
245.58554
245.58664
245.58782
245.58757
245.58688
245.58585
245.58592
245.58668
245.57529
245.55377
245.66094
244.92949
245.03275
244.94969
245.03124
245.02423
245.08061
245.1049
245.15579
245.18444
245.22461
245.24745
245.28486
245.31169
245.34645
245.37664
245.39402
245.40793
245.43036
245.45276
245.46376
245.47698
245.49448
245.50913
245.51839
245.5275
245.53737
245.54472
245.55061
245.55406
245.55749
245.5625
245.56718
245.57138
245.57478
245.57877
245.58113
245.58173
245.58393
245.58553
245.58662
245.58781
245.58764
245.58684
245.58569
245.58564
245.58609
245.57499
245.55318
245.43235
244.98411
244.88822
244.90273
244.92716
244.93825
245.01058
245.03335
245.09852
245.12552
245.17716
245.2096
245.25202
245.27566
245.30866
245.34327
245.37725
245.39174
245.40542
245.43273
245.45513
245.46758
245.48313
245.50194
245.51331
245.5222
245.53358
245.54216
245.54786
245.55193
245.55616
245.56136
245.56637
245.57085
245.57427
245.57844
245.58082
245.58149
245.58385
245.58554
245.58662
245.58778
245.58771
245.58678
245.58548
245.58534
245.58545
245.57465
245.55257
245.56311
244.83371
244.82257
244.83669
244.86816
244.88226
244.95619
244.97486
245.04343
245.06454
245.12421
245.16246
245.21476
245.24879
245.28024
245.30871
245.34657
245.37909
245.39376
245.41304
245.44
245.4611
245.47556
245.49249
245.50819
245.51863
245.53
245.53962
245.54545
245.54977
245.55495
245.56042
245.56549
245.57031
245.57388
245.57803
245.58045
245.58129
245.58378
245.58557
245.58664
245.58772
245.58777
245.58669
245.58532
245.58507
245.58485
245.57421
245.55207
245.25867
244.87702
244.75061
244.73351
244.82682
244.84323
244.90425
244.91471
244.99466
245.02036
245.08607
245.11862
245.16933
245.21723
245.26015
245.28807
245.31846
245.35397
245.38455
245.40274
245.42415
245.45161
245.47006
245.48604
245.50184
245.51583
245.52745
245.53685
245.54318
245.54798
245.55363
245.5596
245.56471
245.5697
245.57358
245.57757
245.58001
245.5811
245.58372
245.58559
245.58666
245.58763
245.5878
245.58662
245.58515
245.58478
245.58433
245.57386
245.55197
245.47773
244.51134
244.68378
244.65135
244.74582
244.77791
244.86136
244.85639
244.94339
244.9769
245.05686
245.08777
245.13171
245.17853
245.23003
245.27149
245.30348
245.33302
245.36669
245.39435
245.41619
245.43968
245.46325
245.48161
245.49722
245.51238
245.52514
245.53415
245.54102
245.54645
245.55223
245.55888
245.56402
245.56909
245.57334
245.57714
245.57956
245.58094
245.58366
245.58557
245.58668
245.58754
245.5878
245.58653
245.58489
245.5844
245.58393
245.57367
245.5529
244.96753
244.57814
244.60514
244.6238
244.73646
244.70053
244.81407
244.82929
244.90706
244.92885
245.00814
245.06109
245.11305
245.15377
245.20157
245.2472
245.28972
245.32293
245.34972
245.38237
245.40974
245.43192
245.45456
245.47691
245.49432
245.50905
245.52238
245.53159
245.53897
245.54502
245.5512
245.55803
245.56343
245.56864
245.57309
245.57682
245.57915
245.5808
245.5836
245.5855
245.58669
245.58747
245.58772
245.58639
245.58458
245.58403
245.58367
245.57375
245.55374
245.17374
244.44164
244.58816
244.49082
244.68698
244.6454
244.75234
244.789
244.88562
244.90196
244.96668
245.01981
245.0961
245.13826
245.18457
245.22929
245.27174
245.31219
245.34131
245.37098
245.40276
245.42496
245.44836
245.47226
245.49075
245.50631
245.51936
245.52894
245.53704
245.54385
245.55035
245.55707
245.56307
245.56824
245.57289
245.57652
245.57871
245.58066
245.58354
245.58538
245.58668
245.58738
245.58761
245.58626
245.58429
245.58375
245.58348
245.57411
245.55428
244.99723
244.34482
244.51522
244.48925
244.60002
244.615
244.74858
244.7318
244.83683
244.88574
244.95919
244.99437
245.06216
245.1195
245.17021
245.21913
245.26053
245.29831
245.33328
245.36558
245.39494
245.41787
245.44374
245.4689
245.48746
245.50303
245.51667
245.52656
245.53538
245.54282
245.54945
245.55639
245.56265
245.56798
245.57279
245.57599
245.57818
245.58049
245.58344
245.58526
245.5866
245.58723
245.58743
245.58618
245.58397
245.58341
245.5833
245.57437
245.55528
244.91287
244.27986
244.45309
244.44859
244.57869
244.54046
244.73171
244.71657
244.79977
244.82933
244.94209
244.99126
245.0464
245.10339
245.15871
245.20524
245.25092
245.28725
245.32553
245.36098
245.38939
245.41356
245.43964
245.46619
245.48515
245.50001
245.51419
245.52474
245.53401
245.54163
245.54881
245.55579
245.56208
245.56797
245.5725
245.57546
245.57775
245.58029
245.58326
245.58515
245.58652
245.58704
245.58721
245.58604
245.58366
245.58323
245.58317
245.57472
245.55703
244.84944
244.1813
244.47978
244.37352
244.55707
244.52961
244.65185
244.67582
244.79955
244.81954
244.90821
244.95694
245.03855
245.09849
245.14901
245.19259
245.23931
245.28257
245.32173
245.35421
245.38498
245.41188
245.43693
245.4631
245.4827
245.49817
245.51198
245.52311
245.53291
245.54057
245.54829
245.55531
245.56187
245.56788
245.57203
245.57528
245.57746
245.58009
245.58302
245.58505
245.58645
245.58696
245.58695
245.58588
245.58331
245.58309
245.58309
245.57542
245.55848
244.76897
244.2018
244.4194
244.37556
244.47566
244.51666
244.61134
244.62657
244.768
244.8241
244.89731
244.9376
245.02201
245.08316
245.13729
245.18872
245.23655
245.28124
245.3201
245.34981
245.38005
245.4093
245.43602
245.46108
245.47992
245.49646
245.51023
245.5218
245.5324
245.54009
245.54747
245.55511
245.56185
245.56735
245.57179
245.57517
245.57715
245.57986
245.58281
245.58494
245.58633
245.58691
245.58668
245.58571
245.58301
245.58294
245.58296
245.57616
245.55943
244.6425
244.06048
244.33989
244.25644
244.42788
244.44799
244.59779
244.64919
244.75048
244.79509
244.88692
244.94384
245.00571
245.06854
245.13334
245.18802
245.23466
245.27886
245.31652
245.35028
245.37798
245.40672
245.43499
245.46021
245.47887
245.49428
245.50885
245.52159
245.53252
245.5398
245.54682
245.55488
245.5621
245.56728
245.57114
245.57477
245.577
245.57961
245.58269
245.58481
245.58621
245.58685
245.58642
245.58553
245.58275
245.58286
245.5829
245.57715
245.55959
244.70823
243.87394
244.28327
244.1912