/*--------------------------------*- C++ -*----------------------------------*\
| =========                 |                                                 |
| \\      /  F ield         | OpenFOAM: The Open Source CFD Toolbox           |
|  \\    /   O peration     | Version:  2506                                  |
|   \\  /    A nd           | Website:  www.openfoam.com                      |
|    \\/     M anipulation  |                                                 |
\*---------------------------------------------------------------------------*/
FoamFile
{
    version     2.0;
    format      ascii;
    arch        "LSB;label=32;scalar=64";
    class       surfaceScalarField;
    location    "0.023";
    object      phi;
}
// * * * * * * * * * * * * * * * * * * * * * * * * * * * * * * * * * * * * * //

dimensions      [1 0 -1 0 0 0 0];

oriented        oriented;

internalField   nonuniform List<scalar> 
27187
(
0.016190995
-3.6509192
0.016950874
-3.8176422
0.01775409
3.9958782
-3.9966719
0.018603477
4.1887558
-4.1895971
0.019501497
4.3964939
-4.3973837
0.020449707
4.6199913
-4.6209317
0.02145104
4.8603107
-4.8613037
0.022506872
5.1178872
-5.118933
0.023613952
5.3933777
-5.394479
0.024778928
5.6871501
-5.6883129
0.026027725
6.0011014
-6.0023296
0.027377302
6.3375504
-6.3388378
0.02875591
6.708848
-6.7101997
7.0793375
0.0301284
-7.0807549
0.018646346
0.019537875
4.1878728
0.020480437
4.3955599
0.021475688
4.6190043
0.02252675
4.8592684
0.023634952
5.1167895
0.024796994
5.3922218
0.026019771
5.6859297
0.027330532
5.9998122
0.028747087
6.3361991
0.03019417
6.7074291
7.0778498
0.031634662
0.020519711
0.021509035
0.022553651
4.6179683
0.023656819
4.8581745
0.024820015
5.1156374
0.026039693
5.3910085
0.027323149
5.6846487
0.028698913
5.9984592
0.030185705
6.3347808
0.031704627
6.7059398
7.0762885
0.033216435
0.023685369
0.024843258
0.02606413
5.1144281
0.027344286
5.389735
0.02869137
5.6833042
0.030135375
5.9970391
0.031695891
6.3332923
0.033290203
6.7043765
7.0746498
0.034876839
0.027371013
0.028714667
0.030128563
5.681893
0.031644161
5.9955485
0.03328203
6.33173
0.034955497
6.7027356
7.07293
0.036620618
0.031637998
0.033228714
0.034947734
0.036704239
6.7010133
7.071125
0.038451753
0.03853996
1.4814667
0.041940533
-1.4932957
1.4694113
0.043672447
1.4571254
0.045483879
1.444605
0.047377972
1.431846
0.049359555
1.5990011
0.054854445
-1.6119381
1.5858164
0.056833133
1.5723796
0.058895666
1.5586864
0.061045312
1.724947
0.068981846
-1.7391096
1.7105133
0.071230425
1.6958037
0.073567625
0.075996767
1.8604071
0.084431286
-1.8759106
1.8446069
0.086974902
1.8285045
0.089612364
2.0059567
0.10133041
-2.0229345
1.988654
0.10419662
0.10716239
2.1624797
0.11982338
-2.1810783
2.1435251
0.12304258
2.3309704
0.14007557
-2.351353
0.14368129
2.5124548
0.16227618
-2.5348036
0.16630568
2.7079848
0.18664104
-2.7325041
0.19113575
2.9186894
0.21341514
-2.945608
0.2184212
3.1458307
0.24287566
-3.1754049
0.27533381
-3.4233566
0.31113232
-3.6911202
0.35064399
-3.980544
0.39426563
-4.293626
0.44241391
-4.6324684
0.49552891
-4.9993047
0.55409028
-5.3965142
0.61864861
-5.8265236
0.68985156
-6.2917486
0.76844765
-6.7946953
0.85527997
-7.3381306
0.95128492
-7.9251359
-8.5591378
-1.5009632
0.031262156
-0.023607494
-1.5087756
0.032586867
-0.024787863
-1.5167354
0.033973236
-0.026027461
-1.524845
0.035423699
-0.02732868
-1.5331071
0.036942049
-0.028695274
-1.5415242
0.038531355
-0.030130295
-1.5500988
0.040194558
-0.031636663
-1.5588336
0.041935861
-0.033218543
-1.5677312
0.043758902
-0.034879588
-1.5767943
0.045667438
-0.036623459
-1.5860256
0.047666079
-0.038454824
-1.5954278
0.049758908
-0.040377686
-1.6050035
0.05195041
-0.042396553
-1.6147556
0.05424579
-0.044516591
-1.6246869
0.056649994
-0.046742702
-1.6348001
0.059167993
-0.049079883
-1.645098
0.061805454
-0.051533795
-1.6555835
0.064568682
-0.054110698
-1.6662593
0.067463611
-0.056816498
-1.6771284
0.070496408
-0.059657431
-1.6881935
0.07367399
-0.062640332
-1.6994576
0.077003674
-0.065772541
-1.7109234
0.080492976
-0.069061614
-1.722594
0.084149216
-0.072514771
-1.734472
0.08798092
-0.076140656
-1.7465604
0.091996993
-0.079948104
-1.758862
0.096205943
-0.083945669
-1.7713797
0.10061767
-0.088143274
-1.7841163
0.10524207
-0.092550782
-1.7970746
0.11008951
-0.097178661
-1.8102574
0.11517117
-0.10203804
-1.8236674
0.12049836
-0.1071403
-1.8373074
0.12608324
-0.11249762
-1.8511801
0.13193873
-0.11812298
-1.865288
0.13807805
-0.12402965
-1.8796339
0.14451522
-0.13023168
-1.8942203
0.15126522
-0.1367441
-1.9090496
0.15834296
-0.14358191
-1.9241243
0.16576493
-0.15076168
-1.9394468
0.17354827
-0.15830062
-1.9550192
0.18171084
-0.16621666
-1.9708439
0.19027118
-0.17452842
-1.9869228
0.199249
-0.18325573
-2.0032581
0.20866514
-0.19241961
-2.0198514
0.2185416
-0.20204206
-2.0367046
0.22890048
-0.21214543
-2.0538194
0.23976613
-0.22275411
-2.071197
0.25116384
-0.23389363
-2.088839
0.26311954
-0.24559004
-2.1067463
0.2756611
-0.25787139
-2.1249199
0.2888178
-0.27076715
-2.1433606
0.30262004
-0.284308
-2.1620689
0.3170999
-0.29852614
-2.1810451
0.33229083
-0.31345533
-2.2002893
0.34822826
-0.32913121
-2.2198013
0.36494935
-0.34559126
-2.2395806
0.38249283
-0.36287448
-2.2596264
0.40089988
-0.38102233
-2.2799376
0.42021348
-0.40007819
-2.3005127
0.44047826
-0.42008701
-2.32135
0.46174187
-0.44109682
-2.3424472
0.48405401
-0.46315774
-2.3638017
0.50746689
-0.48632241
-2.3854104
0.53203529
-0.51064604
-2.4072698
0.55781646
-0.53618643
-2.4293759
0.58487098
-0.56300463
-2.451724
0.6132623
-0.59116469
-2.4743089
0.64305704
-0.62073376
-2.497125
0.67432505
-0.65178238
-2.5201657
0.70713974
-0.68438457
-2.543424
0.74157841
-0.7186184
-2.566892
0.77772199
-0.7545655
-2.5905611
0.81565532
-0.79231151
-2.6144217
0.85546786
-0.8319468
-2.6384637
0.89725311
-0.87356563
-2.6626757
0.9411094
-0.91726741
-2.6870454
0.98714056
-0.96315689
-2.7115597
1.0354551
-1.0113437
-2.736204
1.0861672
-1.0619431
-2.7609629
1.1393958
-1.1150752
-2.7858194
1.1952674
-1.1708678
-2.8107556
1.2539139
-1.2294541
-2.8357518
1.315474
-1.2909742
-2.8607872
1.3800927
-1.3555745
-2.8858393
1.4479237
-1.4234104
-2.910884
1.5191277
-1.4946441
-2.9358954
1.5938728
-1.5694457
-2.9608459
1.6723365
-1.6479942
-2.9857059
1.7547044
-1.7304774
-3.010444
1.8411727
-1.8170934
-3.0350263
1.9319456
-1.9080486
-3.0594171
2.0272393
-2.0035615
-3.083578
2.1272799
-2.1038606
-3.1074682
2.2323049
-2.2091859
-3.1310439
2.3425633
-2.3197893
-3.1542588
2.4583184
-2.4359365
-3.1770636
2.5798448
-2.5579054
-3.199406
2.7074314
-2.685988
-3.2212301
2.8413814
-2.8204909
-3.2424767
2.982014
-2.9617365
-3.2630827
3.1296633
-3.1100631
-3.2829814
3.2846813
-3.2658264
-3.3021019
3.4474367
-3.4293993
-3.3203689
3.6183162
-3.6011733
-3.337703
3.7977273
-3.7815607
-3.3540196
3.9860961
-3.9709926
-3.3692295
4.1838716
-4.1699235
-3.3832374
4.3915229
-4.3788286
-3.3959425
4.6095444
-4.5982083
-3.4072383
4.8384532
-4.8285866
-3.4170124
5.078791
-5.0705127
-3.4251463
5.3311251
-5.3245614
-3.4315146
5.5960497
-5.5913354
-3.4359854
5.874185
-5.8714638
-3.4384198
6.1661785
-6.1656036
-3.4386717
6.472704
-6.4744387
-3.4365888
6.7944608
-6.7986786
-3.4320125
7.1321758
-7.1390604
-3.4247781
7.486598
-7.4963435
-3.4147153
7.858501
-7.8713106
-3.4016494
8.2486801
-8.2647647
-3.3854024
8.6579527
-8.6775281
-3.3657937
9.0871549
-9.1104388
-3.3426422
9.5371465
-9.5643539
-3.3157671
10.008814
-10.04015
-3.2849881
10.503077
-10.538733
-3.2501217
11.020915
-11.061059
-3.2109742
11.563384
-11.608158
-3.1673295
12.131668
-12.181187
-3.1189299
12.727124
-12.781483
-3.0654511
13.351354
-13.410645
-3.0064708
14.006254
-14.070607
-2.9414534
14.694002
-14.763636
-2.8697711
15.416944
-15.492211
-2.7907771
16.177389
-16.258796
-2.7039131
16.977444
-17.065609
-2.6087739
17.819022
-17.914601
-2.5050609
18.703959
-18.807591
-2.3924926
19.634105
-19.746378
-2.2707059
20.611493
-20.732985
-2.139044
21.638562
-21.769943
-1.9980224
22.713989
-22.855473
-1.8453255
23.847769
-24.000439
-1.6824278
25.031522
-25.19563
-1.5056962
26.263952
-26.43988
-1.3180478
27.609681
-27.798558
-1.1129387
28.90058
-29.103823
-0.89855879
30.50431
-30.72167
31.704603
-31.937775
-1.6203566
0.039663418
-1.6289343
0.041146582
-1.6376738
0.042694122
-1.6465779
0.044308482
-1.6556495
0.045993466
-1.6648912
0.047752212
-1.6743061
0.049587634
-1.6838969
0.051504014
-1.6936665
0.053505006
-1.7036179
0.055594369
-1.7137541
0.057776741
-1.7240779
0.060056253
-1.7345925
0.062437405
-1.7453009
0.064925409
-1.756206
0.067525208
-1.767311
0.07024185
-1.778619
0.073080992
-1.790133
0.076048941
-1.8018562
0.07915162
-1.8137917
0.08239527
-1.8259427
0.085786788
-1.8383123
0.08933347
-1.8509037
0.093042879
-1.86372
0.096922267
-1.8767643
0.10098023
-1.8900399
0.1052256
-1.9035499
0.10966694
-1.9172974
0.11431412
-1.9312855
0.11917695
-1.9455174
0.12426588
-1.9599961
0.12959197
-1.9747246
0.13516655
-1.9897061
0.14100174
-2.0049434
0.14711038
-2.0204396
0.1535057
-2.0361975
0.16020158
-2.0522199
0.16721303
-2.0685096
0.17455484
-2.0850693
0.18224345
-2.1019016
0.19029589
-2.119009
0.19872994
-2.1363941
0.20756402
-2.154059
0.21681774
-2.1720062
0.22651187
-2.1902375
0.23666818
-2.208755
0.24730869
-2.2275605
0.2584576
-2.2466557
0.27014002
-2.266042
0.28238165
-2.2857207
0.29521024
-2.3056929
0.30865481
-2.3259594
0.32274558
-2.3465209
0.33751432
-2.3673778
0.35299427
-2.3885302
0.36922055
-2.4099779
0.38623007
-2.4317204
0.4040612
-2.4537569
0.42275476
-2.4760862
0.44235339
-2.4987068
0.46290133
-2.5216167
0.48444583
-2.5448135
0.50703611
-2.5682944
0.53072395
-2.592056
0.55556359
-2.6160944
0.58161177
-2.6404054
0.60892849
-2.6649838
0.63757661
-2.689824
0.66762213
-2.7149198
0.69913416
-2.7402642
0.73218545
-2.7658493
0.76685252
-2.7916668
0.8032155
-2.8177072
0.84135832
-2.8439603
0.88136964
-2.8704148
0.92334184
-2.8970586
0.96737241
-2.9238783
1.0135639
-2.9508596
1.0620239
-2.9779869
1.1128652
-3.0052433
1.1662055
-3.0326106
1.22217
-3.0600692
1.2808891
-3.0875979
1.3425
-3.1151741
1.407146
-3.1427735
1.4749793
-3.1703698
1.5461586
-3.197935
1.6208502
-3.2254392
1.6992296
-3.2528503
1.7814802
-3.2801341
1.867796
-3.3072538
1.9583789
-3.3341706
2.0534424
-3.3608426
2.1532101
-3.3872254
2.2579167
-3.4132714
2.3678083
-3.4389302
2.4831448
-3.464148
2.6041977
-3.4888677
2.7312525
-3.5130282
2.8646086
-3.5365649
3.0045813
-3.559409
3.1515005
-3.5814872
3.305714
-3.602722
3.4675856
-3.6230315
3.6374973
-3.6423286
3.8158513
-3.6605214
4.0030683
-3.6775121
4.1995911
-3.6931972
4.4058828
-3.7074676
4.6224308
-3.7202074
4.8497449
-3.7312951
5.088359
-3.7406021
5.3388319
-3.7479932
5.601749
-3.753326
5.8777207
-3.7564507
6.1673842
-3.7572109
6.471403
-3.7554427
6.7904646
-3.7509763
7.1252851
-3.7436354
7.4766025
-3.7332385
7.8451805
-3.7195993
8.2318061
-3.702528
8.6372904
-3.6818319
9.0624673
-3.657317
9.5081985
-3.6287868
9.9753773
-3.5960416
10.464939
-3.558872
10.977882
-3.5170505
11.51529
-3.4703158
12.078371
-3.4183537
12.668507
-3.3607731
13.2873
-3.2970826
13.936616
-3.2266879
14.618549
-3.1489252
15.335307
-3.0631382
16.089048
-2.9687755
16.881757
-2.8654332
17.715286
-2.7527915
18.591467
-2.6305223
19.512191
-2.49821
20.47951
-2.355212
21.495859
-2.2018141
22.560066
-2.0358902
23.681834
-1.8587241
24.853021
-1.6663698
26.072545
-1.4622003
27.404201
-1.2389415
28.679368
-1.0057625
30.267773
31.450663
-1.7483639
0.048891813
-1.7577934
0.05054918
-1.7674009
0.052273835
-1.7771895
0.054068352
-1.7871622
0.055936497
-1.7973223
0.057881462
-1.8076728
0.059906207
-1.8182168
0.062015045
-1.8289577
0.064211614
-1.8398985
0.066499763
-1.8510426
0.068884127
-1.8623933
0.071368854
-1.8739539
0.073958478
-1.8857276
0.076658239
-1.8977179
0.079473109
-1.9099282
0.082408137
-1.9223619
0.085468982
-1.9350223
0.088662027
-1.947913
0.091993151
-1.9610374
0.095468634
-1.9743989
0.099095356
-1.988001
0.10288063
-2.0018473
0.10683204
-2.0159411
0.11095683
-2.030286
0.11526356
-2.0448854
0.11976112
-2.0597429
0.12445799
-2.0748619
0.12936405
-2.0902457
0.1344891
-2.105898
0.13984356
-2.1218219
0.14543846
-2.138021
0.1512851
-2.1544985
0.15739552
-2.1712578
0.16378258
-2.188302
0.17045937
-2.2056345
0.17743982
-2.2232581
0.18473876
-2.2411762
0.19237098
-2.2593915
0.2003528
-2.277907
0.20870114
-2.2967256
0.21743375
-2.3158498
0.22656888
-2.3352823
0.23612603
-2.3550255
0.24612581
-2.3750818
0.2565899
-2.3954532
0.26754014
-2.4161419
0.27900052
-2.4371496
0.290996
-2.458478
0.30355215
-2.4801284
0.31669637
-2.5021023
0.33045756
-2.5244004
0.34486562
-2.5470236
0.35995212
-2.5699723
0.37574998
-2.5932466
0.39229402
-2.6168464
0.40962082
-2.6407713
0.42776843
-2.6650204
0.44677726
-2.6895924
0.4666896
-2.7144857
0.48754923
-2.7396982
0.50940296
-2.7652275
0.53229955
-2.7910704
0.55629023
-2.8172234
0.58142874
-2.8436824
0.6077712
-2.8704425
0.63537705
-2.8974986
0.66430846
-2.9248444
0.69463072
-2.9524733
0.72641225
-2.9803777
0.759725
-3.0085492
0.79464464
-3.0369787
0.83125041
-3.0656559
0.86962537
-3.0945699
0.9098571
-3.1237084
0.95203702
-3.1530582
0.99626145
-3.1826049
1.0426318
-3.212333
1.0912544
-3.2422255
1.1422405
-3.272264
1.1957069
-3.302429
1.2517768
-3.3326989
1.3105793
-3.363051
1.3722499
-3.3934606
1.4369302
-3.4239012
1.5047703
-3.4543443
1.5759272
-3.4847595
1.650565
-3.5151142
1.728857
-3.5453736
1.8109843
-3.5755002
1.8971384
-3.6054542
1.9875186
-3.6351932
2.0823357
-3.6646714
2.1818105
-3.6938405
2.2861743
-3.7226487
2.3956704
-3.751041
2.5105551
-3.7789588
2.6310961
-3.8063394
2.7575753
-3.8331166
2.8902881
-3.8592196
3.0295454
-3.8845734
3.1756728
-3.9090983
3.3290133
-3.9327099
3.4899256
-3.9553186
3.6587865
-3.9768299
3.8359926
-3.9971432
4.0219585
-4.0161526
4.2171206
-4.0337458
4.4219351
-4.0498039
4.636882
-4.064202
4.8624631
-4.0768081
5.0992039
-4.0874833
5.3476542
-4.0960811
5.6083895
-4.1024478
5.8820099
-4.106422
6.1691419
-4.1078346
6.4704368
-4.1065096
6.7865713
-4.1022638
7.1182493
-4.0949075
7.4661978
-4.084245
7.8311704
-4.0700754
8.2139454
-4.0521933
8.6153277
-4.0303893
9.0361485
-4.0044502
9.4772709
-3.9741581
9.9395957
-3.9392863
10.424072
-3.8995939
10.931718
-3.8548135
11.463642
-3.8046366
12.021079
-3.748694
12.605427
-3.6865348
13.218291
-3.6176087
13.861493
-3.5412726
14.537035
-3.456831
15.246987
-3.3636163
15.99336
-3.2610788
16.778025
-3.1488081
17.602765
-3.0264526
18.469394
-2.8936304
19.379821
-2.7498732
20.336138
-2.594511
21.340808
-2.4276567
22.392612
-2.2473149
23.501457
-2.0545751
24.658817
-1.8451307
25.86419
-1.6228979
27.18055
-1.3798352
28.438561
-1.126139
30.010312
31.174027
-1.8860833
0.059024902
-1.8964484
0.06087354
-1.9070094
0.062792748
-1.9177696
0.064785095
-1.9287323
0.066854397
-1.9399009
0.069003903
-1.951279
0.071236574
-1.96287
0.073556771
-1.9746775
0.075968189
-1.9867049
0.078474636
-1.998956
0.081080878
-2.0114343
0.083791004
-2.0241434
0.086609616
-2.0370871
0.089541983
-2.050269
0.092593095
-2.063693
0.095767986
-2.0773627
0.099072425
-2.0912819
0.1025127
-2.1054544
0.10609478
-2.1198841
0.10982494
-2.1345748
0.11371008
-2.1495302
0.11775747
-2.1647543
0.12197477
-2.1802509
0.12636916
-2.1960238
0.13094925
-2.2120769
0.13572385
-2.2284141
0.14070152
-2.2450391
0.14589207
-2.2619558
0.15130527
-2.2791679
0.1569515
-2.2966793
0.16284184
-2.3144935
0.16898745
-2.3326145
0.17540042
-2.3510458
0.18209347
-2.3697909
0.18907969
-2.3888535
0.19637294
-2.408237
0.20398791
-2.4279448
0.21193939
-2.4479802
0.2202436
-2.4683465
0.22891734
-2.4890467
0.2379782
-2.5100838
0.24744437
-2.5314609
0.25733522
-2.5531805
0.26767122
-2.5752454
0.27847382
-2.5976579
0.28976476
-2.6204203
0.30156782
-2.6435347
0.31390779
-2.6670029
0.32680994
-2.6908266
0.34030154
-2.7150073
0.35441114
-2.739546
0.36916848
-2.7644436
0.38460474
-2.7897007
0.40075258
-2.8153176
0.41764648
-2.8412942
0.43532267
-2.86763
0.45381877
-2.8943242
0.47317489
-2.9213756
0.49343276
-2.9487823
0.51463581
-2.9765422
0.53683025
-3.0046527
0.56006441
-3.0331104
0.58438889
-3.0619116
0.60985686
-3.0910517
0.63652382
-3.1205258
0.66444853
-3.150328
0.69369242
-3.1804518
0.72432004
-3.2108899
0.75639903
-3.2416341
0.79000042
-3.2726753
0.82519906
-3.3040037
0.86207312
-3.3356081
0.90070473
-3.3674765
0.94118034
-3.3995958
0.98359024
-3.4319516
1.0280295
-3.4645283
1.0745983
-3.4973089
1.1234016
-3.5302751
1.1745492
-3.5634069
1.2281563
-3.5966829
1.2843445
-3.63008
1.3432413
-3.6635731
1.4049803
-3.6971356
1.4697011
-3.7307385
1.537552
-3.764351
1.6086875
-3.79794
1.6832698
-3.8314698
1.7614696
-3.8649026
1.8434655
-3.8981976
1.9294464
-3.9313114
2.0196086
-3.9641976
2.1141601
-3.9968066
2.2133183
-4.0290855
2.3173115
-4.0609781
2.4263793
-4.0924242
2.5407741
-4.1233599
2.6607602
-4.1537172
2.7866149
-4.1834235
2.9186295
-4.212402
3.0571102
-4.240571
3.2023779
-4.2678435
3.3547701
-4.2941277
3.5146403
-4.3193262
3.6823598
-4.3433359
3.8583185
-4.3660476
4.0429247
-4.3873462
4.236608
-4.4071095
4.4398167
-4.4252088
4.6530229
-4.4415084
4.8767199
-4.4558653
5.1114239
-4.4681287
5.357675
-4.4781402
5.6160381
-4.4857334
5.8871025
-4.4907336
6.1714827
-4.4929582
6.4698187
-4.4922168
6.7827748
-4.4883116
7.1110432
-4.4810374
7.4553399
-4.4701826
7.8164084
-4.4555291
8.1950186
-4.4368536
8.5919697
-4.413927
9.0080906
-4.3865142
9.4442461
-4.3543718
9.9013448
-4.3172435
10.380349
-4.2748526
10.882296
-4.226889
11.408315
-4.1729942
11.959662
-4.1127415
12.537746
-4.0456175
13.144155
-3.971011
13.780656
-3.8882259
14.449149
-3.7965311
15.15157
-3.6952458
15.889797
-3.583821
16.665604
-3.4618377
17.480712
-3.3289112
18.336902
-3.1846053
19.236086
-3.0283946
20.180385
-2.8595525
21.172298
-2.6780642
22.210444
-2.4819966
23.305346
-2.2722475
24.447468
-2.0441042
25.637291
-1.8021224
26.937023
-1.537439
28.176359
-1.2613404
29.730007
30.872575
-2.0341217
0.070154844
-2.0455206
0.072213628
-2.057135
0.074346561
-2.0689686
0.07655626
-2.081025
0.078846577
-2.0933081
0.081220788
-2.1058216
0.083681926
-2.1185694
0.086234353
-2.1315553
0.088881791
-2.1447834
0.091628146
-2.1582575
0.094478118
-2.1719816
0.097435937
-2.1859599
0.10050618
-2.2001962
0.1036941
-2.2146948
0.1070048
-2.2294598
0.1104433
-2.2444952
0.11401536
-2.2598054
0.11772735
-2.2753943
0.1215852
-2.2912663
0.12559522
-2.3074256
0.12976434
-2.3238765
0.13409984
-2.3406231
0.13860929
-2.3576697
0.14330003
-2.3750205
0.14818052
-2.3926799
0.15325965
-2.4106521
0.15854592
-2.4289412
0.16404915
-2.4475516
0.16977908
-2.4664874
0.17574607
-2.4857527
0.18196112
-2.5053518
0.18843542
-2.5252886
0.19518092
-2.5455673
0.2022104
-2.5661918
0.20953679
-2.587166
0.21717392
-2.6084939
0.22513639
-2.6301791
0.23343892
-2.6522254
0.24209757
-2.6746364
0.25112911
-2.6974154
0.26055098
-2.720566
0.27038122
-2.7440913
0.28063906
-2.7679943
0.29134479
-2.792278
0.30251976
-2.8169451
0.31418548
-2.8419982
0.3263655
-2.8674396
0.33908441
-2.8932715
0.35236729
-2.9194957
0.36624108
-2.9461138
0.38073413
-2.9731272
0.3958758
-3.0005369
0.41169703
-3.0283437
0.42823011
-3.0565479
0.44550916
-3.0851495
0.46357003
-3.1141481
0.48244992
-3.143543
0.50218848
-3.1733327
0.52282695
-3.2035157
0.54440833
-3.2340894
0.5669782
-3.2650512
0.59058439
-3.2963976
0.61527682
-3.3281244
0.64110806
-3.3602271
0.66813292
-3.3927001
0.69640936
-3.4255373
0.7259981
-3.4587315
0.75696283
-3.492275
0.78937031
-3.5261589
0.8232906
-3.5603735
0.85879757
-3.5949079
0.89596841
-3.6297504
0.93488403
-3.6648878
0.97562974
-3.7003059
1.0182946
-3.7359891
1.0629723
-3.7719204
1.1097617
-3.8080815
1.158766
-3.8444524
1.2100938
-3.8810116
1.2638584
-3.9177356
1.3201797
-3.9545993
1.3791833
-3.9915755
1.4410008
-4.0286352
1.5057698
-4.065747
1.5736363
-4.1028772
1.6447525
-4.1399897
1.7192781
-4.1770459
1.7973812
-4.2140043
1.8792378
-4.2508207
1.9650335
-4.2874477
2.054962
-4.3238348
2.1492278
-4.3599279
2.2480449
-4.3956695
2.3516381
-4.4309981
2.4602429
-4.4658485
2.5741081
-4.5001508
2.6934934
-4.5338309
2.8186718
-4.5668099
2.9499298
-4.5990041
3.0875688
-4.6303243
3.231904
-4.6606762
3.3832678
-4.6899598
3.5420074
-4.7180689
3.7084878
-4.7448915
3.8830924
-4.7703089
4.0662222
-4.7941957
4.2582989
-4.8164193
4.4597629
-4.8368401
4.6710776
-4.8553104
4.8927267
-4.8716752
5.1252169
-4.8857708
5.3690774
-4.8974256
5.6248623
-4.9064588
5.8931491
-4.9126816
6.1745406
-4.9158962
6.4696644
-4.9158964
6.779173
-4.9124681
7.1037467
-4.9053891
7.4440908
-4.8944298
7.8009389
-4.8793537
8.1750535
-4.859917
8.5672284
-4.8358689
8.9782905
-4.80695
9.4091076
-4.7728885
9.8605949
-4.7333953
10.333728
-4.6881536
10.829557
-4.6368064
11.34923
-4.5789394
11.894011
-4.5140619
12.465305
-4.4415913
13.064669
-4.3608483
13.693799
-4.2710789
14.354488
-4.1715147
15.048545
-4.0614625
15.777736
-3.9403745
16.543756
-3.8078216
17.348279
-3.6633834
18.193051
-3.5065705
19.079964
-3.3367956
20.011151
-3.1532559
20.989123
-2.9558479
22.012277
-2.7426071
23.092066
-2.5142756
24.217393
-2.2656749
25.390135
-2.0021054
26.671773
-1.7138043
27.890753
-1.4132282
29.424747
30.543973
-2.1933855
0.082385633
-2.2059258
0.084675416
-2.2187032
0.08704331
-2.2317219
0.089491965
-2.2449858
0.092025271
-2.2584992
0.094646523
-2.2722663
0.097358846
-2.2862913
0.10016657
-2.3005784
0.10307356
-2.3151321
0.10608365
-2.3299566
0.10920167
-2.3450565
0.11243183
-2.360436
0.11577872
-2.3760998
0.11924772
-2.3920522
0.12284385
-2.408298
0.12657224
-2.4248416
0.13043864
-2.4416876
0.13444943
-2.4588407
0.13861059
-2.4763056
0.14292843
-2.4940867
0.14740987
-2.512189
0.15206226
-2.530617
0.15689312
-2.5493755
0.16190979
-2.5684692
0.16712078
-2.5879027
0.17253491
-2.6076807
0.17816073
-2.627808
0.18400795
-2.6482892
0.19008637
-2.6691289
0.1964063
-2.6903318
0.20297868
-2.7119024
0.20981467
-2.7338453
0.21692619
-2.756165
0.22432589
-2.7788658
0.23202671
-2.8019522
0.24004236
-2.8254284
0.24838736
-2.8492987
0.25707635
-2.8735671
0.26612528
-2.8982376
0.27555076
-2.923314
0.28537014
-2.9488003
0.29560132
-2.9746999
0.30626336
-3.0010162
0.31737636
-3.0277526
0.32896152
-3.0549121
0.34104008
-3.0824977
0.35363548
-3.1105119
0.36677198
-3.1389571
0.38047439
-3.1678355
0.39476948
-3.1971491
0.4096852
-3.2268993
0.42525062
-3.2570873
0.44149635
-3.2877142
0.4584543
-3.3187803
0.4761582
-3.3502858
0.49464343
-3.3822303
0.51394681
-3.4146131
0.53410745
-3.4474329
0.55516612
-3.4806878
0.57716517
-3.5143755
0.60014973
-3.5484929
0.62416687
-3.5830365
0.64926595
-3.6180019
0.67549873
-3.6533841
0.70291932
-3.6891773
0.7315849
-3.7253748
0.76155526
-3.7619689
0.79289323
-3.7989513
0.82566459
-3.8363125
0.85993839
-3.874042
0.8957874
-3.912128
0.93328766
-3.9505578
0.97251883
-3.9893171
1.013565
-4.0283907
1.0565138
-4.0677616
1.1014575
-4.1074114
1.1484933
-4.1473202
1.197723
-4.1874663
1.2492533
-4.2278263
1.3031956
-4.2683747
1.3596682
-4.3090843
1.4187943
-4.3499256
1.4807036
-4.3908669
1.5455313
-4.431874
1.613421
-4.4729103
1.6845225
-4.5139366
1.7589926
-4.5549107
1.8369967
-4.5957876
1.9187076
-4.636519
2.0043082
-4.6770533
2.0939884
-4.7173355
2.1879493
-4.7573069
2.2864014
-4.7969045
2.3895652
-4.8360617
2.4976725
-4.874707
2.6109674
-4.9127647
2.7297051
-4.9501539
2.8541538
-4.9867889
2.9845947
-5.0225781
3.1213236
-5.0574249
3.2646504
-5.0912264
3.4149008
-5.1238739
3.5724161
-5.1552519
3.7375539
-5.1852384
3.9106902
-5.2137044
4.0922185
-5.2405136
4.2825519
-5.2655219
4.482122
-5.2885773
4.6913826
-5.3095198
4.9108078
-5.3281806
5.1408932
-5.3443823
5.3821574
-5.3579383
5.6351425
-5.368653
5.9004144
-5.3763212
6.1785633
-5.3807288
6.4702049
-5.3816524
6.7759795
-5.3788599
7.096556
-5.3721103
7.4326292
-5.3611547
7.7849236
-5.3457354
8.1541941
-5.3255867
8.5412299
-5.3004333
8.9468564
-5.2699879
9.3719434
-5.2339471
9.817412
-5.1919835
10.284246
-5.143735
10.773506
-5.0887906
11.286345
-5.0266724
11.824025
-4.9568182
12.38793
-4.8785687
12.979568
-4.791171
13.600555
-4.6938118
14.252575
-4.5856878
14.937325
-4.4660982
15.656477
-4.3344968
16.411669
-4.1904379
17.204539
-4.0334596
18.036805
-3.8630174
18.910325
-3.6784575
19.827211
-3.4788892
20.789957
-3.2641561
21.796711
-3.0321348
22.860018
-2.7835035
23.966868
-2.512526
25.12089
-2.2253582
26.382789
-1.9112451
27.57951
-1.5839006
29.092209
30.185661
-2.364898
0.095836716
-2.3786997
0.098380714
-2.3927625
0.10100714
-2.4070909
0.10371878
-2.4216894
0.10651947
-2.4365626
0.10941261
-2.4517152
0.11240137
-2.4671517
0.11549011
-2.482877
0.11868273
-2.4988958
0.12198314
-2.5152129
0.1253962
-2.5318332
0.12892611
-2.5487617
0.13257761
-2.5660031
0.13635598
-2.5835626
0.14026638
-2.6014451
0.14431389
-2.6196557
0.14850438
-2.6381995
0.15284417
-2.6570815
0.15733931
-2.676307
0.16199611
-2.6958811
0.16682151
-2.7158089
0.17182287
-2.7360957
0.17700771
-2.7567466
0.1823834
-2.7777668
0.1879584
-2.7991616
0.19374158
-2.8209361
0.19974141
-2.8430955
0.20596767
-2.865645
0.21243006
-2.8885898
0.21913887
-2.9119348
0.22610501
-2.9356853
0.2333396
-2.9598462
0.24085452
-2.9844226
0.24866232
-3.0094193
0.25677589
-3.0348411
0.26520884
-3.0606929
0.27397562
-3.0869794
0.28309077
-3.113705
0.29257006
-3.1408742
0.30243006
-3.1684914
0.31268793
-3.1965607
0.32336141
-3.2250861
0.33446943
-3.2540716
0.34603188
-3.2835208
0.35806971
-3.3134371
0.37060406
-3.3438238
0.38365799
-3.3746838
0.39725559
-3.4060201
0.4114214
-3.4378348
0.42618182
-3.4701303
0.44156453
-3.5029083
0.45759826
-3.5361704
0.47431317
-3.5699175
0.49174086
-3.6041504
0.50991454
-3.6388693
0.52886925
-3.6740739
0.54864118
-3.7097636
0.56926898
-3.7459371
0.59079288
-3.7825924
0.61325455
-3.8197272
0.63669857
-3.8573382
0.66117123
-3.8954217
0.68672124
-3.9339731
0.71339955
-3.972987
0.74125943
-4.0124571
0.77035719
-4.0523763
0.80075171
-4.0927365
0.83250482
-4.1335286
0.86568121
-4.1747424
0.90034885
-4.2163666
0.9365793
-4.2583885
0.97444737
-4.3007942
1.0140314
-4.3435685
1.0554139
-4.3866948
1.0986813
-4.4301546
1.143924
-4.473928
1.1912378
-4.5179935
1.2407225
-4.5623275
1.292483
-4.6069045
1.3466287
-4.651697
1.4032758
-4.6966752
1.4625454
-4.7418072
1.5245646
-4.7870583
1.5894664
-4.8323916
1.6573915
-4.8777671
1.7284871
-4.9231421
1.8029071
-4.9684707
1.8808138
-5.0137039
1.9623768
-5.0587893
2.0477753
-5.1036704
2.1371958
-5.1482876
2.2308355
-5.1925766
2.3289009
-5.2364692
2.4316082
-5.2798925
2.5391846
-5.3227688
2.6518695
-5.3650157
2.7699131
-5.406545
2.8935782
-5.4472633
3.0231403
-5.4870713
3.1588894
-5.5258636
3.3011289
-5.5635283
3.4501778
-5.599947
3.6063702
-5.6349942
3.7700561
-5.6685374
3.9416037
-5.7004361
4.1213977
-5.7305418
4.3098422
-5.7586982
4.5073594
-5.7847401
4.7143928
-5.8084934
4.9314058
-5.8297749
5.1588829
-5.8483919
5.3973312
-5.8641421
5.6472808
-5.8768128
5.9092851
-5.8861818
6.1839221
-5.8920169
6.4717954
-5.8940758
6.773533
-5.8921069
7.089793
-5.8858487
7.4212594
-5.8750304
7.7686477
-5.8593718
8.1327058
-5.8385815
8.5142176
-5.8123566
8.9140063
-5.7803774
9.3329415
-5.7423031
9.7719471
-5.6977617
10.232009
-5.6463385
10.71419
-5.5875597
11.219637
-5.5208749
11.749595
-5.4456416
12.30541
-5.3611177
12.888531
-5.2664745
13.500486
-5.160842
14.142857
-5.0433894
14.817244
-4.9134149
15.525246
-4.7703724
16.268452
-4.6137885
17.048482
-4.4431493
17.867031
-4.25785
18.725917
-4.0571671
19.627208
-3.840115
20.57334
-3.6065109
21.562206
-3.3539244
22.607438
-3.0831244
23.694039
-2.7876713
24.827578
-2.4747058
26.067866
-2.1323667
27.240134
-1.7757249
28.729831
29.794826
-2.5497185
0.11064519
-2.5649162
0.11346924
-2.5804015
0.11638058
-2.5961794
0.11938192
-2.612255
0.12247725
-2.6286331
0.12566997
-2.6453191
0.12896336
-2.6623179
0.13236177
-2.6796349
0.13586918
-2.6972753
0.13948956
-2.7152444
0.14322776
-2.7335476
0.14708811
-2.7521904
0.15107531
-2.7711781
0.15519473
-2.7905162
0.15945155
-2.8102105
0.16385093
-2.8302663
0.16839869
-2.8506893
0.17310124
-2.8714852
0.17796463
-2.8926596
0.1829952
-2.9142183
0.18819994
-2.9361669
0.19358615
-2.9585113
0.19916144
-2.9812571
0.20493312
-3.0044101
0.21090973
-3.0279761
0.2171
-3.0519607
0.22351253
-3.0763699
0.23015697
-3.1012092
0.23704309
-3.1264843
0.24418109
-3.1522011
0.25158185
-3.178365
0.25925644
-3.2049816
0.26721668
-3.2320565
0.27547507
-3.2595952
0.2840444
-3.287603
0.29293821
-3.3160852
0.30217087
-3.345047
0.31175671
-3.3744935
0.32171154
-3.4044297
0.33205166
-3.4348603
0.34279411
-3.4657901
0.3539565
-3.4972235
0.36555754
-3.5291649
0.37761695
-3.5616183
0.39015541
-3.5945877
0.40319386
-3.6280768
0.41675513
-3.6620888
0.43086299
-3.696627
0.44554167
-3.7316941
0.4608173
-3.7672925
0.47671715
-3.8034245
0.49326958
-3.8400917
0.51050439
-3.8772954
0.52845269
-3.9150366
0.54714728
-3.9533155
0.56662259
-3.992132
0.58691441
-4.0314856
0.60806075
-4.0713749
0.6301012
-4.1117981
0.65307686
-4.1527525
0.67703148
-4.194235
0.70201076
-4.2362414
0.72806248
-4.2787668
0.75523684
-4.3218057
0.78358615
-4.3653512
0.81316582
-4.4093958
0.84403367
-4.4539307
0.87625045
-4.4989463
0.90987974
-4.5444314
0.94498827
-4.5903738
0.9816463
-4.6367599
1.0199273
-4.6835747
1.0599081
-4.7308018
1.1016698
-4.7784229
1.1452969
-4.8264184
1.1908786
-4.8747665
1.2385083
-4.9234438
1.2882842
-4.9724247
1.3403091
-5.0216817
1.3946903
-5.0711847
1.4515415
-5.1209015
1.5109815
-5.1707972
1.573135
-5.2208343
1.638132
-5.2709724
1.7061106
-5.3211683
1.7772149
-5.3713753
1.8515955
-5.4215435
1.9294114
-5.4716196
2.0108288
-5.5215463
2.0960229
-5.5712626
2.1851765
-5.620703
2.2784824
-5.6697978
2.3761426
-5.7184728
2.478369
-5.7666483
2.5853834
-5.8142401
2.6974203
-5.8611582
2.8147243
-5.9073066
2.9375521
-5.9525838
3.0661733
-5.9968817
3.2008712
-6.0400855
3.3419422
-6.0820738
3.4896981
-6.1227176
3.6444649
-6.1618805
3.8065846
-6.1994181
3.9764165
-6.2351779
4.1543362
-6.2689986
4.3407379
-6.3007099
4.5360336
-6.3301326
4.7406562
-6.3570774
4.9550575
-6.3813456
5.1797108
-6.4027275
5.4151105
-6.4210036
5.6617748
-6.4359435
5.9202446
-6.4473059
6.1910852
-6.4548389
6.4748875
-6.45828
6.772268
-6.4573559
7.0838729
-6.4517827
7.4103754
-6.4412654
7.7524819
-6.4254973
8.1109318
-6.4041586
8.4865029
-6.3769129
8.8800135
-6.343403
9.2923299
-6.3032435
9.7243727
-6.2560099
10.177124
-6.201225
10.651636
-6.1383427
11.149038
-6.0667307
11.670545
-5.9856579
12.217455
-5.8942952
12.791145
-5.7917392
13.393058
-5.6770702
14.024686