/*--------------------------------*- C++ -*----------------------------------*\
| =========                 |                                                 |
| \\      /  F ield         | OpenFOAM: The Open Source CFD Toolbox           |
|  \\    /   O peration     | Version:  2506                                  |
|   \\  /    A nd           | Website:  www.openfoam.com                      |
|    \\/     M anipulation  |                                                 |
\*---------------------------------------------------------------------------*/
FoamFile
{
    version     2.0;
    format      ascii;
    arch        "LSB;label=32;scalar=64";
    class       surfaceScalarField;
    location    "0.0175";
    object      phi;
}
// * * * * * * * * * * * * * * * * * * * * * * * * * * * * * * * * * * * * * //

dimensions      [1 0 -1 0 0 0 0];

oriented        oriented;

internalField   nonuniform List<scalar> 
27214
(
-1.2726944e-05
-5.2973745e-06
-1.343892e-05
-8.1740998e-06
-1.4213388e-05
-1.1664039e-05
-1.5068034e-05
-1.5876803e-05
-1.6023937e-05
-2.0943765e-05
-1.7105785e-05
-2.7015813e-05
-1.8342709e-05
-3.4282322e-05
-1.97687e-05
-4.2972201e-05
-2.1422479e-05
-5.3355866e-05
-2.3348086e-05
-6.578225e-05
-2.5593542e-05
-8.0683362e-05
-2.8209539e-05
-9.8626901e-05
-3.1245503e-05
-0.00012036672
-3.4741296e-05
-0.00014696809
-3.8708566e-05
-0.00017996201
-4.3089198e-05
-0.00022176116
-4.7643327e-05
-0.00027647824
-5.1626929e-05
-0.0003519838
-5.2830448e-05
-0.00046611177
-4.4713929e-05
-0.00066691155
-1.0107662e-05
-0.0011002184
7.3790625e-05
-0.0020941519
0.00020324833
-0.0038262446
-1.6829e-07
1.9243391e-07
-4.5778824e-07
6.053759e-07
-8.9815134e-07
1.0797671e-06
-1.4966645e-06
1.6132568e-06
-2.2872099e-06
2.2046341e-06
-3.2813916e-06
2.8497986e-06
-4.508748e-06
3.5319724e-06
-5.9749427e-06
4.2311488e-06
-7.6973049e-06
4.9189745e-06
-9.673177e-06
5.5722906e-06
-1.1912352e-05
6.1851399e-06
-1.4414028e-05
6.7513853e-06
-1.7187045e-05
7.2693678e-06
-2.0238355e-05
7.744554e-06
-2.3583299e-05
8.178163e-06
-2.723719e-05
8.5689622e-06
-3.1221319e-05
8.9128682e-06
-3.5558007e-05
9.2004538e-06
-4.0271084e-05
9.4162143e-06
-4.5389353e-05
9.5511448e-06
-5.0946675e-05
9.5899608e-06
-5.6977533e-05
9.505379e-06
-6.3521523e-05
9.2738876e-06
-7.0623354e-05
8.8648213e-06
-7.83282e-05
8.2378836e-06
-8.6694496e-05
7.3520756e-06
-9.577995e-05
6.1532341e-06
-0.00010565059
4.581231e-06
-0.00011638012
2.5634088e-06
-0.00012804831
1.1947259e-08
-0.00014075056
-3.1665595e-06
-0.00015458601
-7.1004294e-06
-0.00016966501
-1.1929216e-05
-0.00018611294
-1.7827266e-05
-0.00020406972
-2.5008928e-05
-0.00022368675
-3.3733235e-05
-0.0002451317
-4.4332925e-05
-0.00026858119
-5.7231189e-05
-0.0002942168
-7.2990944e-05
-0.00032221343
-9.2372949e-05
-0.00035272145
-0.0001164672
-0.00038581422
-0.00014688169
-0.00042138404
-0.00018621007
-0.00045888559
-0.00023900196
-0.0004966628
-0.00031423561
-0.00053007396
-0.00043272087
-0.000546106
-0.00065085478
-0.00051516089
-0.0011310339
-0.00041925911
-1.0111719e-07
2.9260923e-07
-4.109537e-07
9.2362593e-07
-9.7344984e-07
1.6536301e-06
-1.8245661e-06
2.4822441e-06
-3.0095822e-06
3.4114272e-06
-4.5747475e-06
4.4400972e-06
-6.5632523e-06
5.5484756e-06
-9.0143764e-06
6.711905e-06
-1.1955061e-05
7.8916236e-06
-1.5403759e-05
9.0543515e-06
-1.93751e-05
1.0192643e-05
-2.3883707e-05
1.1298557e-05
-2.89434e-05
1.2371303e-05
-3.4577407e-05
1.3424243e-05
-4.0813544e-05
1.4464467e-05
-4.7687665e-05
1.5497627e-05
-5.5241422e-05
1.6526414e-05
-6.3521841e-05
1.7545887e-05
-7.257688e-05
1.8542231e-05
-8.2465495e-05
1.9516866e-05
-9.3255264e-05
2.0463706e-05
-0.00010501541
2.1356613e-05
-0.00011782456
2.2181988e-05
-0.00013177101
2.2918484e-05
-0.0001469466
2.3529749e-05
-0.00016345772
2.398907e-05
-0.00018141633
2.4248237e-05
-0.00020094753
2.4260023e-05
-0.00022218841
2.3964213e-05
-0.00024529044
2.3287261e-05
-0.00027041026
2.2140877e-05
-0.00029772759
2.0420379e-05
-0.00032742977
1.7994114e-05
-0.00035972371
1.4707328e-05
-0.00039482917
1.0358883e-05
-0.00043295343
4.6771872e-06
-0.00047439336
-2.5807405e-06
-0.0005194959
-1.1788685e-05
-0.00056851603
-2.3601318e-05
-0.00062172264
-3.8765084e-05
-0.00067935488
-5.8398935e-05
-0.00074154796
-8.4213897e-05
-0.00080818848
-0.00011905045
-0.0008785761
-0.00016804214
-0.00095060108
-0.00024156931
-0.0010184982
-0.00036408018
-0.0010666215
2.4689443e-08
4.0188908e-07
-1.9984233e-07
1.274688e-06
-7.1127598e-07
2.292921e-06
-1.5785083e-06
3.4600364e-06
-2.8401265e-06
4.7838995e-06
-4.5702699e-06
6.2684041e-06
-6.8151449e-06
7.8928369e-06
-9.6400033e-06
9.6279858e-06
-1.3077577e-05
1.1422663e-05
-1.7163253e-05
1.3230504e-05
-2.1915902e-05
1.5040785e-05
-2.7361527e-05
1.6841634e-05
-3.3517401e-05
1.8632221e-05
-4.0416822e-05
2.0434822e-05
-4.8094355e-05
2.2263213e-05
-5.6597907e-05
2.4131697e-05
-6.5979526e-05
2.6050801e-05
-7.6300234e-05
2.8021471e-05
-8.7620053e-05
3.0031353e-05
-0.00010001402
3.209488e-05
-0.00011356672
3.4217426e-05
-0.00012836523
3.637373e-05
-0.00014450738
3.8562547e-05
-0.00016210336
4.0773705e-05
-0.00018126589
4.2974682e-05
-0.00020212626
4.5156497e-05
-0.00022482098
4.7277207e-05
-0.00024950251
4.9305001e-05
-0.00027633673
5.1193898e-05
-0.000305504
5.2884554e-05
-0.0003371992
5.4303697e-05
-0.00037163468
5.5364043e-05
-0.00040903434
5.5945671e-05
-0.00044964824
5.5920118e-05
-0.00049375301
5.5113034e-05
-0.00054165779
5.3285587e-05
-0.00059361715
5.0140944e-05
-0.00064984862
4.5269715e-05
-0.00071066376
3.8112605e-05
-0.00077631019
2.7860623e-05
-0.00084691767
1.3278598e-05
-0.00092274638
-7.212156e-06
-0.0010042313
-3.6278715e-05
-0.0010909357
-0.0011816385
-3.7182881e-08
4.6083109e-07
-1.9769129e-07
1.4699801e-06
-5.2052079e-07
2.6580584e-06
-1.037748e-06
4.033989e-06
-1.7986035e-06
5.6114775e-06
-2.8509127e-06
7.4010659e-06
-4.2509469e-06
9.3835604e-06
-6.0485766e-06
1.1528924e-05
-8.2896621e-06
1.37779e-05
-1.1005564e-05
1.6073124e-05
-1.4224966e-05
1.8399515e-05
-1.7969071e-05
2.0739305e-05
-2.2259459e-05
2.3091084e-05
-2.712085e-05
2.5480886e-05
-3.2583268e-05
2.7927701e-05
-3.8681706e-05
3.0450788e-05
-4.5456636e-05
3.3066571e-05
-5.2952211e-05
3.5779263e-05
-6.1213585e-05
3.8578127e-05
-7.0294528e-05
4.1485867e-05
-8.0256804e-05
4.4516771e-05
-9.1162296e-05
4.7644942e-05
-0.00010308026
5.0877594e-05
-0.00011608821
5.4212262e-05
-0.00013026449
5.7618145e-05
-0.00014569933
6.1097798e-05
-0.00016248539
6.4612616e-05
-0.00018072544
6.8140567e-05
-0.00020052923
7.1643714e-05
-0.00022201548
7.5071375e-05
-0.00024530977
7.8358262e-05
-0.0002705484
8.1427697e-05
-0.00029787319
8.4166316e-05
-0.0003274411
8.6461117e-05
-0.00035942381
8.8153708e-05
-0.0003940019
8.9014426e-05
-0.00043137655
8.8768267e-05
-0.00047176562
8.702297e-05
-0.00051541355
8.3246846e-05
-0.00056260755
-0.00061373966
-0.00066899283
1.7322798e-07
4.0522468e-07
4.5923876e-07
1.3046543e-06
8.6726963e-07
2.3769507e-06
1.3938514e-06
3.6342091e-06
2.0457954e-06
5.0932632e-06
2.8144496e-06
6.7686963e-06
3.6952094e-06
8.647135e-06
4.6704901e-06
1.0702891e-05
5.72663e-06
1.2880227e-05
6.8451653e-06
1.5121237e-05
8.0170333e-06
1.7406365e-05
9.2329835e-06
1.971436e-05
1.0489868e-05
2.2040455e-05
1.1786692e-05
2.4406576e-05
1.3126795e-05
2.6828838e-05
1.4514551e-05
2.9324463e-05
1.5957152e-05
3.1907836e-05
1.7462394e-05
3.4582186e-05
1.9040721e-05
3.7334287e-05
2.0703907e-05
4.0185803e-05
2.24672e-05
4.3147677e-05
2.4347533e-05
4.6192465e-05
2.6364412e-05
4.9324895e-05
2.8542043e-05
5.2538325e-05
3.0907071e-05
5.5799295e-05
3.3491672e-05
5.9105588e-05
3.6332391e-05
6.2414038e-05
3.9472894e-05
6.5696186e-05
4.2962519e-05
6.8908449e-05
4.6860204e-05
7.1991136e-05
5.1231796e-05
7.4872149e-05
5.6154282e-05
7.7464275e-05
6.1715425e-05
7.964351e-05
6.8014498e-05
8.1286113e-05
7.5165577e-05
8.2219519e-05
8.3293593e-05
9.2536927e-05
0.0001030397
3.4936131e-07
2.3074959e-07
1.0600594e-06
7.5612633e-07
2.2034691e-06
1.3960209e-06
3.8184996e-06
2.1607209e-06
5.9884584e-06
3.0639151e-06
8.766562e-06
4.1172794e-06
1.222787e-05
5.3145354e-06
1.6413836e-05
6.6385795e-06
2.1369769e-05
8.0503014e-06
2.7110635e-05
9.506128e-06
3.3664548e-05
1.098581e-05
4.1048333e-05
1.2469311e-05
4.9290515e-05
1.3947464e-05
5.8427573e-05
1.54289e-05
6.851054e-05
1.6918712e-05
7.9600657e-05
1.8421386e-05
9.1771864e-05
1.99401e-05
0.00010510678
2.1468641e-05
0.00011969134
2.2990544e-05
0.00013563091
2.4508429e-05
0.00015304737
2.6016375e-05
0.0001720667
2.7483437e-05
0.00019283385
2.8894794e-05
0.00021551271
3.0225846e-05
0.00024027605
3.1433456e-05
0.00026732546
3.2487658e-05
0.00029687635
0.00032917181
0.00036448168
0.00040310306
0.00044536354
0.00049162552
0.0005422793
0.00059776241
1.4685525e-07
8.440453e-07
2.1817863e-06
4.2937614e-06
7.2808402e-06
1.1293935e-05
1.6448257e-05
2.288158e-05
3.0681415e-05
3.9929226e-05
5.0682785e-05
6.3007569e-05
7.6957475e-05
9.2616622e-05
0.00011007699
0.00012945766
0.00015089071
0.00017452846
0.00020052317
0.0002290636
0.00026036186
0.00029463929
0.000332144
0.00037315646
0.00041796656
3.0278537e-08
3.2686372e-06
9.9933965e-08
1.0927555e-05
2.1887375e-07
2.0566795e-05
3.9877984e-07
3.2528406e-05
6.5303433e-07
4.72334e-05
9.9658979e-07
6.5037282e-05
1.4427912e-06
8.5850763e-05
2.0024335e-06
0.00010926615
2.6838753e-06
0.00013466455
3.4940166e-06
0.00016168355
4.4416538e-06
0.00019049744
5.5359496e-06
0.00022120428
6.7875573e-06
0.00025397147
8.2094526e-06
0.00028922372
9.8160791e-06
0.0003273314
1.1624144e-05
0.00036870415
1.3652457e-05
0.00041378304
1.5921391e-05
0.00046291586
1.8452e-05
0.00051628987
2.1269593e-05
0.00057461197
2.4401125e-05
0.00063856775
2.7875641e-05
0.00070837422
3.1725054e-05
0.00078479818
3.5985215e-05
0.00086859243
4.0692395e-05
0.00096018967
4.5889619e-05
0.001060702
5.1620991e-05
0.0011707326
5.7935211e-05
0.0012913639
6.4887294e-05
0.0014236581
7.2535897e-05
0.0015687215
8.0944428e-05
0.0017277507
9.0183855e-05
0.0019021576
0.00010032838
0.0020931015
0.00011146322
0.0023025738
0.00012368113
0.002532573
0.00013708188
0.0027847304
0.00015177711
0.0030615636
0.00016788658
0.0033653562
0.00018554392
0.0036989745
0.00020489318
0.0040654815
0.00022609521
0.0044689796
0.00024932563
0.0049135532
0.00027477719
0.0054049172
0.0003026651
0.005950307
0.00033322229
0.0065590085
0.00036670944
0.0072475566
0.00040341776
0.0080460318
0.00044363656
0.00902606
0.010371784
2.8335451e-08
3.252261e-06
9.6323697e-08
1.0872833e-05
2.1387049e-07
2.0463832e-05
3.9283193e-07
3.2365741e-05
6.4677006e-07
4.6997359e-05
9.9061228e-07
6.4713316e-05
1.4377663e-06
8.5425425e-05
1.9994985e-06
0.00010872851
2.6834614e-06
0.00013400698
3.4967906e-06
0.00016089921
4.4477902e-06
0.00018957815
5.5461488e-06
0.00022014066
6.8026711e-06
0.0002527529
8.2297852e-06
0.00028783808
9.8419122e-06
0.00032576455
1.165621e-05
0.0003669393
1.3691058e-05
0.00041180218
1.5967478e-05
0.00046069837
1.8507001e-05
0.00051381465
2.1333923e-05
0.00057185522
2.4476904e-05
0.00063550135
2.7964217e-05
0.00070497048
3.1828857e-05
0.00078102473
3.6105866e-05
0.00086441495
4.0833816e-05
0.00095557032
4.6054561e-05
0.0010555998
5.1812778e-05
0.0011651037
5.8159826e-05
0.001285158
6.5149255e-05
0.0014168228
7.2840521e-05
0.0015611985
8.129838e-05
0.0017194766
9.0593166e-05
0.0018930635
0.00010080171
0.0020831121
0.00011200816
0.0022916065
0.00012430592
0.0025205365
0.00013779617
0.0027715256
0.00015259055
0.0030470811
0.00016880987
0.0033494777
0.00018658821
0.0036815686
0.00020607115
0.0040464058
0.00022742042
0.0044480756
0.0002508121
0.0048906487
0.00027644118
0.0053798214
0.00030452428
0.0059228082
0.00033529551
0.0065288782
0.00036901994
0.0072145365
0.00040599016
0.0080098388
0.00044652084
0.0089863938
0.00049098058
0.010328303
0.00054004601
0.012270866
0.00059095994
0.01467329
0.00063643041
0.017295203
0.00066868776
0.019901696
0.00068431263
0.022371121
0.00068523193
0.024711418
0.0006761567
0.027013155
0.00066143717
0.029382811
0.00064362945
0.031899665
0.00062374857
0.034612048
0.00060201607
0.03755008
0.00057836784
0.040735204
0.00055264899
0.044190525
0.00052467664
0.047938912
0.00049424928
0.052003743
0.00046114414
0.056412697
0.00042512015
0.061194691
0.00038590958
0.066381277
0.00034321918
0.0720061
0.00029673811
0.078106237
0.00024612269
0.084721088
0.00019097845
0.091894349
0.00013088076
0.099673092
6.5394824e-05
0.10810869
-5.9868551e-06
0.11725451
-8.3809969e-05
0.12717177
-0.00016869809
0.13792384
-0.0002613273
0.14958021
-0.00036243466
0.16221761
-0.00047284668
0.17591769
-0.00059345351
0.19076802
-0.00072528108
0.20686406
-0.0008694368
0.22431047
-0.0010271518
0.2432193
-0.0011998107
0.26370962
-0.0013889616
0.28591498
-0.0015963016
0.3099744
-0.0018237439
0.33604247
-0.0020734059
0.36428317
-0.002347653
0.39487526
0.42801134
3.134944e-08
3.2360276e-06
1.0166358e-07
1.0818544e-05
2.2103085e-07
2.0361703e-05
4.007878e-07
3.2204234e-05
6.5473889e-07
4.6763059e-05
9.9761104e-07
6.439148e-05
1.4433447e-06
8.5002471e-05
2.0028842e-06
0.00010819355
2.6844749e-06
0.00013335209
3.4954782e-06
0.00016011716
4.4441406e-06
0.00018866102
5.5406633e-06
0.00021907845
6.7950206e-06
0.00025153593
8.2197581e-06
0.00028645407
9.8303378e-06
0.00032419839
1.1643199e-05
0.00036517488
1.3677508e-05
0.00040982073
1.5953428e-05
0.00045848015
1.8492821e-05
0.00051133821
2.1320526e-05
0.00056909621
2.446447e-05
0.00063243239
2.7954515e-05
0.00070156228
3.1822286e-05
0.0007772463
3.6104751e-05
0.00086023003
4.0838919e-05
0.00095094263
4.6068355e-05
0.0010504866
5.1838618e-05
0.0011594604
5.8199326e-05
0.0012789359
6.5205997e-05
0.0014099675
7.2917904e-05
0.001553652
8.1400857e-05
0.0017111743
9.0726365e-05
0.0018839353
0.00010097019
0.0020730838
0.00011221777
0.0022805945
0.00012456352
0.0025084482
0.000138109
0.0027582615
0.00015296581
0.0030325319
0.00016925727
0.0033335226
0.00018711622
0.0036640776
0.00020668957
0.0040272348
0.00022813978
0.0044270658
0.00025164379
0.0048676268
0.00027739836
0.005354595
0.00030561992
0.0058951657
0.00033654545
0.0064985884
0.00037043821
0.0071813433
0.00040759488
0.007973455
0.00044834651
0.0089465037
0.00049311365
0.010284515
0.00054255963
0.012222556
0.00059398571
0.014623178
0.00064020791
0.017250481
0.00067341886
0.019870184
0.00068999293
0.022356457
0.00069164671
0.024711893
0.00068303294
0.027024115
0.00066857451
0.029399833
0.00065092888
0.031920098
0.00063118059
0.034634821
0.00060958284
0.037574957
0.00058608114
0.040762261
0.00056052529
0.044219933
0.00053273404
0.047970878
0.00050250695
0.052038491
0.00046962547
0.056450473
0.00043384766
0.061235765
0.00039491221
0.066425943
0.00035252751
0.072054682
0.00030638585
0.078159078
0.00025614705
0.084778563
0.00020141915
0.091956882
0.00014176972
0.09974115
7.678876e-05
0.10818273
5.9790522e-06
0.11733509
-7.1249078e-05
0.12725948
-0.00015546214
0.13801932
-0.00024734876
0.14968416
-0.00034764152
0.1623308
-0.00045716111
0.17604097
-0.00057680468
0.1909023
-0.00070757317
0.20701035
-0.0008505672
0.22446988
-0.0010070157
0.24339304
-0.0011783005
0.26389902
-0.0013659478
0.2861215
-0.0015716556
0.31019965
-0.0017973194
0.3362882
-0.0020450717
0.36455133
-0.0023172478
0.39516794
-0.002616467
0.42833087
-0.0029456411
0.46424857
-0.0033079556
0.5031454
-0.0037069163
0.54526373
-0.0041463173
0.59086557
-0.0046302514
0.6402345
-0.0051630676
0.69367449
-0.0057492795
0.75151575
-0.0063935438
0.8141136
0.88185351
2.8940044e-08
3.2199519e-06
9.6551708e-08
1.0764843e-05
2.1278154e-07
2.0260584e-05
3.8910007e-07
3.2044316e-05
6.389558e-07
4.6531031e-05
9.7724205e-07
6.4072623e-05
1.4178924e-06
8.458301e-05
1.97192e-06
0.00010766266
2.6481197e-06
0.00013270116
3.4530023e-06
0.00015933986
4.3959768e-06
0.00018774818
5.4858695e-06
0.00021802149
6.7339011e-06
0.00025032386
8.1524959e-06
0.00028507475
9.7561483e-06
0.00032263762
1.1562046e-05
0.00036341582
1.358884e-05
0.00040784511
1.5857534e-05
0.00045626736
1.8389084e-05
0.0005088677
2.1209237e-05
0.00056634272
2.4346067e-05
0.00062936839
2.7828045e-05
0.00069815985
3.1688555e-05
0.00077347268
3.5963915e-05
0.00085604959
4.0691736e-05
0.0009463185
4.5915444e-05
0.0010453762
5.1680297e-05
0.0011538194
5.8037917e-05
0.0012727136
6.5042282e-05
0.001403111
7.275483e-05
0.001546101
8.1240497e-05
0.0017028652
9.0570854e-05
0.001874798
0.00010082339
0.0020630423
0.00011208381
0.0022695649
0.0001244466
0.0024963378
0.00013801378
0.0027449704
0.00015289877
0.0030179489
0.00016922306
0.0033175288
0.00018712236
0.0036465399
0.00020674329
0.0040080098
0.00022824876
0.004405994
0.00025181767
0.004844533
0.00027764505
0.0053292886
0.00030594984
0.0058674327
0.00033696796
0.0064681986
0.00037096453
0.007148039
0.00040823594
0.0079369498
0.00044912252
0.0089064732
0.0004940798
0.010240534
0.00054374629
0.012174031
0.0005954982
0.014572752
0.00064228797
0.017205211
0.00067629707
0.019837899
0.00069370134
0.022340994
0.00069600875
0.024711751
0.00068779196
0.02703472
0.0006735288
0.029416707
0.00065597613
0.031940491
0.00063628509
0.034657594
0.00061474257
0.037599841
0.00059130219
0.040789322
0.00056582029
0.044249339
0.00053811621
0.048002833
0.00050799284
0.052073218
0.00047523342
0.056488216
0.00043960222
0.061276791
0.00040083901
0.066470545
0.00035865729
0.072103181
0.00031275102
0.078211815
0.00026278248
0.084835907
0.00020836331
0.092019257
0.00014907413
0.099809019
8.4497423e-05
0.10825655
1.4133084e-05
0.11741539
-6.2561317e-05
0.12734686
-0.00014618447
0.13811442
-0.00023741072
0.14978768
-0.0003369767
0.1624435
-0.00044567085
0.17616369
-0.00056440205
0.19103596
-0.00069416209
0.20715594
-0.00083604477
0.22462849
-0.00099128691
0.24356589
-0.0011612334
0.26408742
-0.0013474141
0.28632689
-0.0015515207
0.31042362
-0.0017754456
0.3365325
-0.0020212953
0.36481787
-0.0022914307
0.39545882
-0.002588457
0.42864838
-0.0029152656
0.46459523
-0.003275065
0.50352397
-0.0036713617
0.54567724
-0.0041079693
0.59131731
-0.0045889859
0.64072807
-0.0051187696
0.69421382
-0.005701873
0.75210512
-0.0063429439
0.81475768
-0.007046614
0.88255735
-0.007817457
0.95591942
-0.0086598021
1.0352962
-0.0095777974
1.1211759
-0.010575546
1.2140895
1.3146169
2.7994726e-08
3.2041263e-06
9.4128891e-08
1.0711871e-05
2.0811975e-07
2.0160895e-05
3.8148987e-07
3.1886479e-05
6.2742023e-07
4.6301997e-05
9.6089027e-07
6.3757583e-05
1.3955651e-06
8.4168456e-05
1.9431144e-06
0.0001071371
2.6115273e-06
0.00013205679
3.4084387e-06
0.00015856924
4.3427575e-06
0.00018684262
5.4235772e-06
0.00021697212
6.6611286e-06
0.00024912069
8.0690407e-06
0.00028370442
9.6613894e-06
0.00032108635
1.1454809e-05
0.00036166731
1.3468403e-05
0.00040588062
1.5722679e-05
0.00045406678
1.8239333e-05
0.00050640973
2.1043e-05
0.0005636032
2.4162349e-05
0.00062631918
2.7626274e-05
0.0006947726
3.1468064e-05
0.00076971471
3.5723085e-05
0.00085188623
4.0430102e-05
0.00094171168
4.5632189e-05
0.0010402837
5.1375516e-05
0.0011481958
5.7709806e-05
0.0012665103
6.4692077e-05
0.001396272
7.2381954e-05
0.0015385679
8.0845121e-05
0.0016945735
9.0154292e-05
0.0018656765
0.00010038616
0.0020530158
0.00011162713
0.0022585486
0.00012397305
0.0024842379
0.00013752486
0.0027316879
0.00015239699
0.0030033716
0.00016871275
0.0033015359
0.00018660618
0.0036290003
0.00020622572
0.0039887779
0.00022773483
0.0043849098
0.0002513113
0.0048214226
0.00027715321
0.0053039582
0.00030547749
0.0058396705
0.00033652113
0.0064377735
0.0003705493
0.0071146933
0.00040785714
0.0079003986
0.00044878834
0.0088663897
0.00049380767
0.010196487
0.00054352096
0.012125459
0.00059539873
0.01452221
0.00064255359
0.017159593
0.00067718277
0.019805018
0.00069528534
0.022324863
0.00069815148
0.024711085
0.00069025961
0.027045042
0.00067612883
0.029433495
0.00065860174
0.031960908
0.00063889745
0.034680433
0.00061733306
0.037624804
0.00059387619
0.040816463
0.00056838519
0.044278822
0.00054068479
0.048034859
0.00051057961
0.05210801
0.00047785796
0.056526013
0.00044228228
0.06131786
0.00040359591
0.066515173
0.00036151714
0.072151685
0.00031574499
0.078264535
0.00026594901
0.08489321
0.0002117505
0.092081556
0.00015272423
0.09987678
8.8463373e-05
0.10833022
1.8475973e-05
0.11749551
-5.7781487e-05
0.12743399
-0.0001408981
0.13820922
-0.00023154675
0.14989084
-0.00033043956
0.16255578
-0.00043838441
0.17628592
-0.00055625928
0.19116904
-0.00068506272
0.20730085
-0.00082589201
0.22478635
-0.00097994801
0.24373787
-0.0011485995
0.26427483
-0.00133336
0.28653118
-0.001535894
0.31064634
-0.0017581138
0.3367754
-0.0020020992
0.36508281
-0.0022702182
0.3957479
-0.0025650596
0.42896388
-0.0028895353
0.46493964
-0.0032468397
0.50390001
-0.0036404876
0.54608791
-0.0040743041
0.59176587
-0.0045524083
0.64121809
-0.0050791727
0.69474921
-0.0056591585
0.75269012
-0.0062970188
0.81539692
-0.0069973971
0.88325588
-0.0077648002
0.95668271
-0.0086035052
1.0361302
-0.0095175098
1.122087
-0.010510702
1.2150847
-0.011587119
1.3157036
-0.012751755
1.4245779
-0.014011304
1.5424001
1.6699417
2.695182e-08
3.1885702e-06
9.1303565e-08
1.0659842e-05
2.0270629e-07
2.0062883e-05
3.723454e-07
3.1731384e-05
6.1351176e-07
4.6076658e-05
9.4074944e-07
6.3447621e-05
1.3680745e-06
8.3760008e-05
1.9066376e-06
0.0001066192
2.5654921e-06
0.00013142055
3.351919e-06
0.00015780756
4.2745478e-06
0.00018594709
5.3426221e-06
0.00021593372
6.5668831e-06
0.0002479289
7.9595969e-06
0.00028234725
9.5359423e-06
0.0003195489
1.1311693e-05
0.00035993414
1.3306432e-05
0.00040393248
1.5539893e-05
0.00045188434
1.8034703e-05
0.00050397074
2.0814631e-05
0.00056088436
2.3907943e-05
0.00062329273
2.7344936e-05
0.00069140878
3.1156703e-05
0.00076598302
3.538028e-05
0.0008477503
4.0054047e-05
0.00093713384
4.5220723e-05
0.001035222
5.092644e-05
0.0011426051
5.7221843e-05
0.0012603407
6.4163108e-05
0.0013894686
7.1810109e-05
0.0015310718
8.0229286e-05
0.0016863196
8.9492726e-05
0.0018565941
9.9678169e-05
0.0020430286
0.00011087181
0.0022475722
0.00012316904
0.0024721787
0.00013667301
0.0027184447
0.00015149671
0.0029888339
0.00016776364
0.0032855825
0.00018561001
0.0036114978
0.00020518253
0.0039695827
0.00022664642
0.00436386
0.00025017873
0.004798345
0.00027597712
0.0052786596
0.00030425911
0.0058119383
0.00033526013
0.0064073785
0.00036924158
0.0070813816
0.0004064953
0.0078638891
0.0004473534
0.008826368
0.00049225885
0.010152545
0.00054177847
0.01207708
0.00059351009
0.014471821
0.00064076379
0.017113891
0.00067578696
0.019771765
0.00069441819
0.022308231
0.00069773078
0.024710007
0.00069008453
0.027055156
0.00067601802
0.029450261
0.00065845143
0.031981411
0.00063866743
0.034703404
0.00061701248
0.037649914
0.00059346716
0.040843753
0.00056789484
0.044308453
0.00054012289
0.048067029
0.00050995913
0.052142938
0.00047719376
0.056563938
0.00044159338
0.061359045
0.00040290718
0.066559899
0.0003608563
0.072200268
0.00031514388
0.078317311
0.00026544559
0.084950541
0.00021138721
0.092143849
0.00015255269
0.099944495
8.8536905e-05
0.1084038
1.8857455e-05
0.11757548
-5.7024292e-05
0.12752094
-0.00013969944
0.13830378
-0.00022981758
0.14999368
-0.00032810454
0.16266768
-0.00043534445
0.17640768
-0.00055242424
0.19130157
-0.00068031948
0.20744514
-0.00082012647
0.22494347
-0.00097304976
0.243909
-0.0011404458
0.26446129
-0.0013238041
0.28673437
-0.0015248071
0.31086782
-0.0017453361
0.33701688
-0.0019875002
0.36534619
-0.0022536116
0.3960352
-0.0025463055
0.42927738
-0.0028684543
0.46528179
-0.0032232852
0.50427355
-0.0036142988
0.54649575
-0.0040453313
0.59221128
-0.0045205269
0.6417046
-0.0050442652
0.69528068
-0.0056211262
0.75327078
-0.0062557735
0.81603137
-0.0069528421
0.88394913
-0.007716808
0.95744023
-0.0085518612
1.036958
-0.0094618801
1.1229914
-0.010450529
1.2160727
-0.011521529
1.3167827
-0.012679526
1.4257559
-0.013930739
1.5436852
-0.015284903
1.6713418
-0.01675556
1.8095687
-0.018356166
1.9593269
2.121636
2.5436075e-08
3.1735704e-06
8.6977808e-08
1.0609584e-05
1.9395328e-07
1.9968176e-05
3.572889e-07
3.1581383e-05
5.8986359e-07
4.5858606e-05
9.0639879e-07
6.3146958e-05
1.3201359e-06
8.3363639e-05
1.843304e-06
0.00010611507
2.484262e-06
0.00013080047
3.2509129e-06
0.0001570638
4.1509887e-06
0.00018507212
5.195e-06
0.00021491726
6.3922495e-06
0.00024676185
7.7557363e-06
0.00028101686
9.2994341e-06
0.00031804148
1.1040179e-05
0.00035823316
1.2996035e-05
0.00040202022
1.5187877e-05
0.00044974029
1.7636562e-05
0.00050157443
2.0367391e-05
0.00055821092
2.3407806e-05
0.00062031521
2.6786029e-05
0.00068809949
3.0535726e-05
0.00076230887
3.4692706e-05
0.00084367613
3.9294597e-05
0.00093262271
4.4384132e-05
0.001030232
5.0007716e-05
0.0011370905
5.6216139e-05
0.0012542519
6.3063696e-05
0.0013827521
7.0612314e-05
0.0015236669
7.8927525e-05
0.001678162
8.8080843e-05
0.0018476137
9.8150406e-05
0.0020331487
0.00010922251
0.0022367082
0.00012139289
0.0024602366
0.00013476389
0.0027053244
0.00014944958
0.0029744233
0.00016557327
0.0032697609
0.00018327123
0.0035941316
0.00020269131
0.0039505271
0.00022399719
0.0043429548
0.00024736866
0.0047754142
0.00027300327
0.00525351
0.00030111928
0.0057843569
0.00033195394
0.0063771341
0.0003657708
0.0070482185
0.00040286348
0.0078275248
0.00044355597
0.0087864973
0.00048823259
0.01010882
0.00053738556
0.012029064
0.00058876496
0.014421789
0.00063591878
0.017068303
0.00067117331
0.0197383
0.00069022574
0.022291203
0.00069392199
0.024708576
0.00068649124
0.027065091
0.00067246595
0.029467028
0.00065483353
0.032002027
0.00063493589
0.034726539
0.00061315187
0.037675207
0.00058947279
0.040871235
0.00056376948
0.044338277
0.00053587264
0.04809939
0.00050559501
0.052178053
0.00047273214
0.056602041
0.00043705985
0.061400391
0.00039832738
0.066604772
0.00035626243
0.072248971
0.00031056614
0.078370181
0.00026091846
0.085007937
0.00020696135
0.092206169
0.00014828315
0.10001219
8.4473139e-05
0.10847733
1.5069019e-05
0.11765534
-6.0471718e-05
0.12760773
-0.0001427336
0.13839811
-0.00023236231
0.15009625
-0.00033006402
0.16277921
-0.00043665074
0.17652901
-0.00055294947
0.19143357
-0.00067997761
0.20758882
-0.00081879642
0.22509988
-0.0009706161
0.24407932
-0.0011367766
0.2646468
-0.0013187703
0.28693648
-0.0015182741
0.31108809
-0.0017371541
0.33725699
-0.0019774933
0.36560799
-0.0022416489
0.39632076
-0.0025321953
0.42958889
-0.0028520504
0.46562173
-0.0032044082
0.50464457
-0.0035927976
0.5469008
-0.0040210632
0.59265356
-0.0044933416
0.64218761
-0.0050140541
0.69580827
-0.0055877825
0.75384713
-0.0062191961
0.81666104
-0.0069129373
0.88463713
-0.0076734382
0.958192
-0.0085048356
1.0377794
-0.0094108473
1.123889
-0.010394961
1.2170535
-0.011460592
1.3178542
-0.012611982
1.4269261
-0.013854946
1.5449622
-0.015198789
1.6727337
-0.016657027
1.8110827
-0.018243631
1.960969
-0.019976706
2.1234097
-0.021839138
2.2996087
-0.023813444
2.4907617
2.6982836
2.393172e-08
3.1589768e-06
8.2955201e-08
1.0560654e-05
1.863433e-07
1.9875763e-05
3.4468899e-07
3.143497e-05
5.7087406e-07
4.5645428e-05
8.7887183e-07
6.2853194e-05
1.2829722e-06
8.2975144e-05
1.7941737e-06
0.00010562101
2.4218053e-06
0.00013019167
3.1730037e-06
0.0001563333
4.0563248e-06
0.00018421156
5.0807042e-06
0.0002139179
6.2567261e-06
0.00024561332
7.5960664e-06
0.00027970772
9.1131968e-06
0.00031655751
1.0823763e-05
0.00035655902
1.2746703e-05
0.0004001373
1.490172e-05
0.00044762923
1.7309901e-05
0.0004992145
1.9994942e-05
0.00055557886
2.2985643e-05
0.00061738269
2.6309755e-05
0.00068483926
3.0000181e-05
0.00075868858
3.4091516e-05
0.00083966182
3.8622117e-05
0.00092817667
4.3635228e-05
0.0010253117
4.9175053e-05
0.0011316527
5.5292942e-05
0.001248246
6.2043988e-05
0.0013761241
6.9487597e-05
0.0015163585
7.7690084e-05
0.0016701081
8.6723649e-05
0.0018387433
9.6664793e-05
0.0020233869
0.00010760029
0.0022259697
0.00011962484
0.0024484287
0.00013284142
0.002692346
0.00014736296
0.0029601638
0.00016331282
0.0032540992
0.00018082559
0.0035769359
0.0002000495
0.0039316522
0.0002211473
0.0043222414
0.00024429614
0.004752689
0.00026969185
0.0052285816
0.00029754803
0.0057570169
0.00032809529
0.006347158
0.00036158636
0.0070153618
0.00039829377
0.0077915265
0.00043851812
0.0087470766
0.00048265831
0.010065618
0.00053128793
0.011981564
0.00058227992
0.014372147
0.00062933201
0.017022828
0.00066477623
0.019704665
0.00068411973
0.02227391
0.00068798936
0.024707003
0.0006805085
0.027075113
0.00066625105
0.029484069
0.00064829462
0.032023012
0.0006280552
0.034750065
0.00060595025
0.037700874
0.00058198353
0.040899062
0.00055602956
0.044368413
0.00052791857
0.048132032
0.00049746612
0.052213413
0.0004644668
0.056640355
0.00042869529
0.061441917
0.00038990553
0.06664979
0.00034782614
0.072297786
0.00030215806
0.078423127
0.00025257881
0.085065374
0.00019873699
0.092268491
0.00014023548
0.10007985
7.6657023e-05
0.10855078
7.535793e-06
0.11773507
-6.7661661e-05
0.12769434
-0.00014951685
0.13849221
-0.00023864592
0.15019851
-0.00033578433
0.16289038
-0.00044169773
0.17664989
-0.00055725928
0.19156507
-0.00068341851
0.20773188
-0.00082127809
0.22525558
-0.00097202186
0.24424883
-0.0011369774
0.26483138
-0.001317635
0.28713753
-0.0015156476
0.31130715
-0.0017328985
0.33749574
-0.0019714582
0.36586825
-0.0022336515
0.39660455
-0.0025220906
0.42989844
-0.0028396556
0.46595945
-0.003189556
0.50501311
-0.0035753283
0.54730306
-0.0040008293
0.59309273
-0.0044702025
0.64266716
-0.0049878755
0.69633199
-0.0055584507
0.75441918
-0.0061866192
0.81728598
-0.0068770021
0.88531991
-0.007634024
0.95893806
-0.0084617425
1.0385947
-0.0093637592
1.1247799
-0.010343335
1.2180271
-0.011403619
1.3189181
-0.012548467
1.4280884
-0.013783243
1.546231
-0.015116867
1.6741174
-0.01656277
1.8125886
-0.018135419
1.962603
-0.019854421
2.1251756
-0.021705166
2.3015068
-0.023672219
2.4927897
-0.025702003
2.7004362
-0.027773501
2.9256293
3.1705571
2.3421191e-08
3.1435904e-06
8.3511456e-08
1.0509246e-05
1.8966949e-07
1.9779052e-05
3.5295798e-07
3.1281965e-05
5.8616268e-07
4.5423451e-05
9.0396777e-07
6.2547705e-05
1.3199081e-06
8.2572744e-05
1.845915e-06
0.00010510993
2.4906183e-06
0.00012956343
3.261269e-06
0.0001555808
4.1665724e-06
0.00018332628
5.2153889e-06
0.00021289117
6.4175556e-06
0.00024443549
7.7855834e-06
0.0002783665
9.3333309e-06
0.0003150393
1.1076882e-05
0.00035484801
1.3034388e-05
0.00039821563
1.5225871e-05
0.00044547723
1.7672155e-05