/*--------------------------------*- C++ -*----------------------------------*\
| =========                 |                                                 |
| \\      /  F ield         | OpenFOAM: The Open Source CFD Toolbox           |
|  \\    /   O peration     | Version:  2506                                  |
|   \\  /    A nd           | Website:  www.openfoam.com                      |
|    \\/     M anipulation  |                                                 |
\*---------------------------------------------------------------------------*/
FoamFile
{
    version     2.0;
    format      ascii;
    arch        "LSB;label=32;scalar=64";
    class       volScalarField;
    location    "0.003";
    object      rho;
}
// * * * * * * * * * * * * * * * * * * * * * * * * * * * * * * * * * * * * * //

dimensions      [1 -3 0 0 0 0 0];

internalField   nonuniform List<scalar> 
13761
(
0.66637203
0.66561588
0.66487347
0.67172797
0.67097138
0.67020769
0.66944303
0.66868862
0.66794651
0.66721501
0.66649508
0.66579587
0.67527728
0.67458569
0.6738782
0.67316372
0.67244146
0.67171007
0.67097868
0.67025644
0.66954434
0.66883969
0.66814656
0.66747252
0.66682316
0.67892054
0.67838215
0.6778102
0.67721511
0.67659057
0.67593886
0.675273
0.67459927
0.67391336
0.67321721
0.67252195
0.6718346
0.67115333
0.67047792
0.66981403
0.6691691
0.66854441
0.68129617
0.6809174
0.68050867
0.68005912
0.67956346
0.67903804
0.67848751
0.67790469
0.67729533
0.67667318
0.67603979
0.67539134
0.67473297
0.67407569
0.67342385
0.6727759
0.67213281
0.67150097
0.67088641
0.67028983
0.66970929
0.68300858
0.68281069
0.68257772
0.68228725
0.68195478
0.68159266
0.68118479
0.6807335
0.68025575
0.67974889
0.67920721
0.67864229
0.67806509
0.67747276
0.67686321
0.67624512
0.67562843
0.67501449
0.67440171
0.67379259
0.67319396
0.67261094
0.67204299
0.67148738
0.6709474
0.68408655
0.68405363
0.68398411
0.68386286
0.68371292
0.68352001
0.68327059
0.6829868
0.68266892
0.68230165
0.6818972
0.6814675
0.68100375
0.68050559
0.6799876
0.67945539
0.67890426
0.67833575
0.67776023
0.67718484
0.676609
0.67603166
0.67545752
0.674894
0.6743443
0.67380659
0.67327981
0.67276689
0.6722752
0.68465566
0.68474599
0.68480928
0.68482766
0.68483217
0.68479033
0.6847105
0.68460515
0.68444858
0.68424191
0.68400565
0.68372824
0.68340237
0.68304642
0.68266315
0.68224187
0.68178904
0.68131865
0.68083079
0.68032142
0.67979579
0.67926418
0.67873047
0.67819313
0.67765308
0.67711643
0.67658946
0.67607336
0.67556625
0.6750683
0.67458422
0.67411895
0.67367577
0.68484221
0.68501915
0.68514896
0.68528145
0.68540583
0.68549532
0.68555608
0.68559819
0.68558531
0.68554828
0.68548145
0.68536083
0.68520147
0.68501175
0.68477351
0.68449209
0.68418552
0.68384705
0.68346887
0.68306347
0.68264079
0.68219692
0.68173008
0.68124878
0.68076169
0.68026985
0.67977141
0.6792693
0.67877092
0.67828078
0.67779879
0.67732364
0.67685677
0.67640411
0.67597054
0.67555394
0.68482174
0.68502459
0.68520714
0.68540769
0.68558374
0.68572816
0.68590238
0.68604647
0.68617011
0.686276
0.6863495
0.68637213
0.68637631
0.68634082
0.68625746
0.686146
0.68599781
0.68579804
0.68556376
0.68530507
0.6850087
0.6846743
0.6843172
0.68394105
0.68353983
0.68311623
0.68268059
0.68223835
0.68178787
0.68132848
0.68086592
0.68040723
0.6799551
0.67950814
0.67906542
0.678631
0.67821063
0.67780642
0.67741682
0.67704083
0.68414974
0.68443174
0.68473942
0.68503267
0.68528679
0.6855048
0.68571349
0.68591672
0.68609393
0.68629832
0.68651292
0.68667186
0.68683541
0.68697823
0.68708104
0.68714316
0.68718889
0.68718277
0.6871401
0.68707368
0.68696322
0.68680544
0.68662108
0.68640763
0.68615209
0.6858636
0.68555544
0.68522416
0.68486542
0.68448666
0.68409755
0.68369925
0.68328913
0.68286952
0.68244791
0.68202964
0.68161513
0.68120276
0.68079399
0.68039355
0.68000638
0.67963406
0.6792735
0.6789209
0.68357629
0.68388261
0.68412291
0.6843294
0.68456049
0.68485171
0.68517046
0.68547615
0.68574235
0.68598446
0.68620649
0.68642581
0.68664775
0.6868936
0.68710243
0.68728484
0.68749413
0.68765964
0.68779631
0.6879077
0.68798598
0.68801343
0.68801246
0.68798347
0.68790701
0.68779373
0.68765701
0.68748369
0.68726867
0.68702761
0.68676643
0.68647742
0.68616112
0.68582844
0.68548525
0.68512935
0.68475946
0.68438105
0.68400157
0.68362422
0.68324726
0.68287002
0.68249599
0.68213043
0.68177715
0.68143508
0.68110087
0.68077608
0.68046474
0.68254822
0.68257672
0.682671
0.68293
0.68326254
0.68359731
0.68394227
0.68425735
0.68450696
0.6847248
0.684965
0.68526406
0.68559222
0.68590977
0.686191
0.68645149
0.68668946
0.68693511
0.68718057
0.6874228
0.68764701
0.68789645
0.68813899
0.68832134
0.68850041
0.6886523
0.68876141
0.68882638
0.68887018
0.68887471
0.68883248
0.68876494
0.68867155
0.68853623
0.68836496
0.68817243
0.68795549
0.6877074
0.68743515
0.68714911
0.68685022
0.68653511
0.68620573
0.68586945
0.68553215
0.68519392
0.68485322
0.68451181
0.68417372
0.68384384
0.6835241
0.6832127
0.6829079
0.68260953
0.68232416
0.68139104
0.68183626
0.68441569
0.68404772
0.68257909
0.68238981
0.6825521
0.68271417
0.68278197
0.68279891
0.68284535
0.68296832
0.6832577
0.68360788
0.68394894
0.68429819
0.68462267
0.68488268
0.68511139
0.68536097
0.68566828
0.68600523
0.6863337
0.68663093
0.68690509
0.68716783
0.68743471
0.68769741
0.6879691
0.68824411
0.68852328
0.6887608
0.68896922
0.68919484
0.68937604
0.68951567
0.68962784
0.68970933
0.68974756
0.68974194
0.68971724
0.68966025
0.68956161
0.68943565
0.68928878
0.68911177
0.68890385
0.68867647
0.6884358
0.68817857
0.68790298
0.68761451
0.68732081
0.68702503
0.68672535
0.68642122
0.68611567
0.68581391
0.68551942
0.68523267
0.68495116
0.68467298
0.68440347
0.68414769
0.6651483
0.66521555
0.66511144
0.66507746
0.66507146
0.66507066
0.66507056
0.66507055
0.66507055
0.66507055
0.66507055
0.66507055
0.66507055
0.66507055
0.66507055
0.66507055
0.66507055
0.66507055
0.66507055
0.66507055
0.66507055
0.66507055
0.66507055
0.66507055
0.66507055
0.66507055
0.66507055
0.66507055
0.66507055
0.66507055
0.66507055
0.66507277
0.66512476
0.66549661
0.66701339
0.67172969
0.68352055
0.70160291
0.70272208
0.68765194
0.68155768
0.68197986
0.68464805
0.6843136
0.68278319
0.68261799
0.68279935
0.68295923
0.68302581
0.68304582
0.68311121
0.68326566
0.68358109
0.68394505
0.68428865
0.68464163
0.68497774
0.68525008
0.68548665
0.68574778
0.68606282
0.68641008
0.68674844
0.68706057
0.68734872
0.68763583
0.68791759
0.68820707
0.68850653
0.68879877
0.68908016
0.68934504
0.68962023
0.6898766
0.69007348
0.69025094
0.69040952
0.69052507
0.69059518
0.69063537
0.69065132
0.69062532
0.69056501
0.69048516
0.69038025
0.69024102
0.69007487
0.68989294
0.68969515
0.68947696
0.68924056
0.68899368
0.68874214
0.68848575
0.68822248
0.68795371
0.68768439
0.68741872
0.68715912
0.68690429
0.68665162
0.68640366
0.6861636
0.6859349
0.66514855
0.66521543
0.66511152
0.66507749
0.66507147
0.66507066
0.66507056
0.66507055
0.66507055
0.66507055
0.66507055
0.66507055
0.66507055
0.66507055
0.66507055
0.66507055
0.66507055
0.66507055
0.66507055
0.66507055
0.66507055
0.66507055
0.66507055
0.66507055
0.66507055
0.66507055
0.66507055
0.66507055
0.66507055
0.66507055
0.66507056
0.66507268
0.66512331
0.66548894
0.66698747
0.67166487
0.68341975
0.70162485
0.70322948
0.68799254
0.68172169
0.68212706
0.68487543
0.68456772
0.68299419
0.68284241
0.68304068
0.68320291
0.68326819
0.68329004
0.68337278
0.6835582
0.68389461
0.68427052
0.68461292
0.68497501
0.68532021
0.68560792
0.6858527
0.68612262
0.68644865
0.68680574
0.68715257
0.68748186
0.68778465
0.68809071
0.68839089
0.68870913
0.68902631
0.68934182
0.68966176
0.68997635
0.69027631
0.69053218
0.69075406
0.69098025
0.69117258
0.6913113
0.69142455
0.69150712
0.69156148
0.69156473
0.69154513
0.6915071
0.69143729
0.69133408
0.69121069
0.69107233
0.69091347
0.69073228
0.69053524
0.69033011
0.69011909
0.68989983
0.68967168
0.68943892
0.68920636
0.68897702
0.68875088
0.68852617
0.68830294
0.68808288
0.68787172
0.6876726
0.66514876
0.66521532
0.6651116
0.66507752
0.66507147
0.66507066
0.66507056
0.66507055
0.66507055
0.66507055
0.66507055
0.66507055
0.66507055
0.66507055
0.66507055
0.66507055
0.66507055
0.66507055
0.66507055
0.66507055
0.66507055
0.66507055
0.66507055
0.66507055
0.66507055
0.66507055
0.66507055
0.66507055
0.66507055
0.66507055
0.66507056
0.66507262
0.66512221
0.66548316
0.66696832
0.67161854
0.68335617
0.70167843
0.70368689
0.68829981
0.68188169
0.68227604
0.68509963
0.6848103
0.68321035
0.68306235
0.68327505
0.68344338
0.6835088
0.68353171
0.68363032
0.68383983
0.6841942
0.68457878
0.68492562
0.68529327
0.68565301
0.68595213
0.68621029
0.68648723
0.68682145
0.68719187
0.68755004
0.68789112
0.68821287
0.68853536
0.68885753
0.68919663
0.68953147
0.68987786
0.69022327
0.69055174
0.69085972
0.69114787
0.69143269
0.69169504
0.69190313
0.69207344
0.69223362
0.69235769
0.69243786
0.69248118
0.69250538
0.69250305
0.69246338
0.69239795
0.69231828
0.69222015
0.69209723
0.69195308
0.69179652
0.69163211
0.69145858
0.69127384
0.6910803
0.69088326
0.69068667
0.69049131
0.69029644
0.69010111
0.6899056
0.68971581
0.68953545
0.6893624
0.66514893
0.66521524
0.66511166
0.66507754
0.66507148
0.66507066
0.66507056
0.66507055
0.66507055
0.66507055
0.66507055
0.66507055
0.66507055
0.66507055
0.66507055
0.66507055
0.66507055
0.66507055
0.66507055
0.66507055
0.66507055
0.66507055
0.66507055
0.66507055
0.66507055
0.66507055
0.66507055
0.66507055
0.66507055
0.66507055
0.66507056
0.66507258
0.66512144
0.66547923
0.66695583
0.67159064
0.68333024
0.70176637
0.7040954
0.68857277
0.68203841
0.68242681
0.68532351
0.68504365
0.68342721
0.68327711
0.68350326
0.68367945
0.68374605
0.68377174
0.68388072
0.6841087
0.68447571
0.68486942
0.68522252
0.68560127
0.68597248
0.68628675
0.68655375
0.68684187
0.68718475
0.68756352
0.68794013
0.6882917
0.68863305
0.6889679
0.68931525
0.68967168
0.69003005
0.69040264
0.69076627
0.69112169
0.69147012
0.691804
0.69211319
0.69237874
0.69260724
0.69282574
0.69302443
0.69316843
0.6932829
0.69337103
0.69343452
0.69346302
0.69345295
0.69342738
0.6933878
0.69332394
0.69323454
0.69312848
0.69301234
0.69288603
0.69274674
0.69259498
0.69243601
0.69227507
0.69211325
0.69195001
0.69178454
0.69161668
0.69145081
0.6912905
0.69113696
0.69098891
0.66514908
0.66521517
0.66511171
0.66507755
0.66507148
0.66507066
0.66507056
0.66507055
0.66507055
0.66507055
0.66507055
0.66507055
0.66507055
0.66507055
0.66507055
0.66507055
0.66507055
0.66507055
0.66507055
0.66507055
0.66507055
0.66507055
0.66507055
0.66507055
0.66507055
0.66507055
0.66507055
0.66507055
0.66507055
0.66507055
0.66507056
0.66507256
0.665121
0.66547709
0.66694989
0.67158076
0.68334129
0.70189027
0.70445452
0.68880992
0.6821917
0.68257891
0.68554888
0.68527365
0.68363659
0.68348637
0.6837265
0.68391057
0.68397909
0.68400732
0.68412437
0.68436287
0.68473849
0.68514059
0.68550663
0.68589714
0.68628098
0.68660881
0.68688588
0.68718512
0.68753819
0.68792402
0.68831667
0.68868389
0.68904446
0.68939459
0.68976245
0.69013321
0.6905184
0.69091059
0.69129584
0.69168136
0.69205203
0.69239804
0.69271835
0.69301553
0.69329939
0.69356173
0.69377775
0.69394434
0.69410302
0.69423398
0.6943287
0.69438612
0.69441516
0.69443117
0.69442544
0.6943907
0.69433545
0.69426864
0.69419069
0.69409839
0.6939906
0.69387161
0.69374763
0.69362084
0.69349047
0.69335591
0.69321749
0.69307798
0.69294018
0.69280777
0.69268121
0.66514918
0.66521512
0.66511174
0.66507757
0.66507148
0.66507066
0.66507056
0.66507055
0.66507055
0.66507055
0.66507055
0.66507055
0.66507055
0.66507055
0.66507055
0.66507055
0.66507055
0.66507055
0.66507055
0.66507055
0.66507055
0.66507055
0.66507055
0.66507055
0.66507055
0.66507055
0.66507055
0.66507055
0.66507055
0.66507055
0.66507056
0.66507256
0.66512088
0.6654767
0.66695033
0.67158896
0.68339188
0.70205457
0.70476376
0.6890105
0.68234167
0.68273202
0.68577688
0.68549971
0.68383655
0.6836911
0.68394567
0.68413586
0.68420636
0.68423737
0.68435986
0.68460389
0.68498331
0.68539506
0.68577519
0.68618356
0.68657972
0.68691564
0.68720853
0.68751695
0.68787974
0.68827912
0.68867739
0.68906789
0.68944168
0.6898162
0.69019987
0.69058802
0.69099513
0.69140459
0.69181637
0.69222464
0.69261535
0.69299083
0.69335025
0.69368813
0.6939972
0.69426534
0.69449518
0.69470399
0.69490311
0.69506345
0.69518072
0.69527255
0.69534399
0.69539741
0.69541934
0.69541231
0.69539266
0.69536247
0.69531743
0.69525489
0.69517758
0.69509209
0.69500216
0.69490688
0.69480501
0.69469742
0.6945863
0.69447377
0.69436431
0.6942593
0.6941549
0.66514926
0.66521509
0.66511177
0.66507757
0.66507148
0.66507066
0.66507056
0.66507055
0.66507055
0.66507055
0.66507055
0.66507055
0.66507055
0.66507055
0.66507055
0.66507055
0.66507055
0.66507055
0.66507055
0.66507055
0.66507055
0.66507055
0.66507055
0.66507055
0.66507055
0.66507055
0.66507055
0.66507055
0.66507055
0.66507055
0.66507056
0.66507258
0.66512107
0.66547809
0.66695737
0.67161572
0.68348188
0.70226072
0.7050225
0.68917354
0.6824876
0.68288505
0.68600766
0.68571679
0.68402856
0.68389124
0.68415966
0.68435274
0.68442615
0.68446042
0.68458817
0.68483357
0.68521509
0.68563331
0.68603451
0.68645617
0.68686956
0.68721303
0.68751564
0.68783757
0.68821076
0.68862423
0.68903438
0.6894368
0.68982854
0.69022661
0.69062432
0.69103708
0.69146155
0.69188915
0.69232275
0.69274964
0.69316533
0.69356794
0.69394769
0.69429916
0.69462164
0.69491793
0.69519398
0.69545121
0.69567256
0.69584981
0.69599652
0.69613148
0.69624191
0.69632114
0.69637194
0.69639909
0.69641601
0.6964169
0.69639897
0.69636376
0.69631752
0.69626525
0.69620632
0.69613839
0.69606219
0.69598034
0.69589488
0.69581001
0.69572698
0.695644
0.6651493
0.66521508
0.66511178
0.66507758
0.66507148
0.66507066
0.66507056
0.66507055
0.66507055
0.66507055
0.66507055
0.66507055
0.66507055
0.66507055
0.66507055
0.66507055
0.66507055
0.66507055
0.66507055
0.66507055
0.66507055
0.66507055
0.66507055
0.66507055
0.66507055
0.66507055
0.66507055
0.66507055
0.66507055
0.66507055
0.66507055
0.66507261
0.66512158
0.66548123
0.6669709
0.67166067
0.68361078
0.70250564
0.7052291
0.68929827
0.68262931
0.68303777
0.68624352
0.68592287
0.68421459
0.68408714
0.68436611
0.68455928
0.68463791
0.68467737
0.68481135
0.68505667
0.68543648
0.68586275
0.68628201
0.68672169
0.68714367
0.68750405
0.6878124
0.6881425
0.68853285
0.68895393
0.6893864
0.6897991
0.6902093
0.69061824
0.69103868
0.69147308
0.69191394
0.69236484
0.69281701
0.69326299
0.69370192
0.69412503
0.69452668
0.69490715
0.69526545
0.69559817
0.69590135
0.69616942
0.69640113
0.69660452
0.69679263
0.69696282
0.69709422
0.69719675
0.69727754
0.69734193
0.69739149
0.6974176
0.69742363
0.69741546
0.69740059
0.69737875
0.69734618
0.69730253
0.69725096
0.6971944
0.69713618
0.69707705
0.69701644
0.69695405
0.66514928
0.66521508
0.66511178
0.66507758
0.66507148
0.66507066
0.66507056
0.66507055
0.66507055
0.66507055
0.66507055
0.66507055
0.66507055
0.66507055
0.66507055
0.66507055
0.66507055
0.66507055
0.66507055
0.66507055
0.66507055
0.66507055
0.66507055
0.66507055
0.66507055
0.66507055
0.66507055
0.66507055
0.66507055
0.66507055
0.66507055
0.66507265
0.66512241
0.66548614
0.66699105
0.67172492
0.68378358
0.70279267
0.70538143
0.68938416
0.68276648
0.68318881
0.68648348
0.68611549
0.68439456
0.68427743
0.68456342
0.68475801
0.68484542
0.68489266
0.68503436
0.68527746
0.68565337
0.68608554
0.68652096
0.68697707
0.68741089
0.6877793
0.68809917
0.68844065
0.6888393
0.68927621
0.68972337
0.69015529
0.69058195
0.69100595
0.69144272
0.69189005
0.69235401
0.69282489
0.69329459
0.69376303
0.69422115
0.69466295
0.69508791
0.69549223
0.69586982
0.69621689
0.69653458
0.69682629
0.69709385
0.69733983
0.69756084
0.69774793
0.69789618
0.69803108
0.69814709
0.6982447
0.69831812
0.69836815
0.69840238
0.6984237
0.69843865
0.698441
0.69842983
0.69840863
0.69838123
0.69835034
0.69831604
0.69827863
0.69823814
0.66514925
0.6652151
0.66511176
0.66507757
0.66507148
0.66507066
0.66507056
0.66507055
0.66507055
0.66507055
0.66507055
0.66507055
0.66507055
0.66507055
0.66507055
0.66507055
0.66507055
0.66507055
0.66507055
0.66507055
0.66507055
0.66507055
0.66507055
0.66507055
0.66507055
0.66507055
0.66507055
0.66507055
0.66507055
0.66507055
0.66507055
0.66507271
0.66512357
0.66549284
0.66701768
0.67180682
0.68399306
0.7031201
0.70548243
0.68943368
0.68290309
0.68334387
0.68673077
0.68629371
0.68456709
0.68445767
0.684751
0.68495312
0.68505455
0.68511269
0.68526147
0.68550123
0.68586968
0.68630491
0.68675423
0.68722204
0.68766884
0.6880425
0.6883729
0.68872706
0.68913798
0.68959147
0.69004796
0.69050222
0.6909426
0.69138698
0.69183822
0.69230291
0.69278132
0.69326657
0.69375878
0.69424607
0.69472078
0.69518362
0.69562967
0.69605291
0.69645104
0.69682388
0.69717369
0.69749808
0.69779242
0.69805539
0.69828677
0.69848814
0.69866749
0.69883425
0.69898055
0.69909663
0.69918921
0.69926454
0.6993283
0.69937845
0.69941804
0.69943892
0.69944703
0.69944805
0.69944518
0.6994371
0.69942421
0.6994063
0.66514919
0.66521513
0.66511174
0.66507756
0.66507148
0.66507066
0.66507056
0.66507055
0.66507055
0.66507055
0.66507055
0.66507055
0.66507055
0.66507055
0.66507055
0.66507055
0.66507055
0.66507055
0.66507055
0.66507055
0.66507055
0.66507055
0.66507055
0.66507055
0.66507055
0.66507055
0.66507055
0.66507055
0.66507055
0.66507055
0.66507055
0.66507279
0.66512507
0.66550137
0.66705102
0.67190758
0.68424263
0.70348659
0.70552906
0.6894489
0.68303569
0.68349763
0.68698274
0.68645936
0.68473427
0.68462928
0.68493495
0.68515017
0.68527024
0.68533956
0.68549338
0.68572854
0.6860891
0.68652576
0.68698298
0.68745949
0.68791491
0.68829594
0.68863448
0.6890021
0.68942739
0.68989513
0.69037088
0.69083725
0.69129224
0.69175743
0.69222385
0.69270486
0.693198
0.69370157
0.69420917
0.69471077
0.69520573
0.69568748
0.69614972
0.69659101
0.69700905
0.69740307
0.69777201
0.69811086
0.69841865
0.69870061
0.69895904
0.69919458
0.69941003
0.69960075
0.69976285
0.6998934
0.70001329
0.70011827
0.70020937
0.7002837
0.70033896
0.70037974
0.70040938
0.70043395
0.70045225
0.70046294
0.70046742
0.66514909
0.66521519
0.6651117
0.66507755
0.66507148
0.66507066
0.66507056
0.66507055
0.66507055
0.66507055
0.66507055
0.66507055
0.66507055
0.66507055
0.66507055
0.66507055
0.66507055
0.66507055
0.66507055
0.66507055
0.66507055
0.66507055
0.66507055
0.66507055
0.66507055
0.66507055
0.66507055
0.66507055
0.66507055
0.66507055
0.66507055
0.6650729
0.66512691
0.66551178
0.66709124
0.67202755
0.68453155
0.70388957
0.70552178
0.68943047
0.68316551
0.68365326
0.68723959
0.6866096
0.68489371
0.68478777
0.68511753
0.68535362
0.68549805
0.68558095
0.68573058
0.68596038
0.68631374
0.68674921
0.68720973
0.6876914
0.6881507
0.68853884
0.68888735
0.6892675
0.68970592
0.69019191
0.69068233
0.69116327
0.69164033
0.69211242
0.69259632
0.69309753
0.69360446
0.69412293
0.69464525
0.69516396
0.69567504
0.69617191
0.69665206
0.6971112
0.69754599
0.69795847
0.69834573
0.69870437
0.69903822
0.69934949
0.69963357
0.69988922
0.70011703
0.70031742
0.700493
0.70064908
0.70079732
0.70092666
0.70103434
0.70112224
0.70119468
0.70125633
0.70131055
0.70135476
0.70139072
0.70141602
0.70143332
0.66514895
0.66521526
0.66511165
0.66507753
0.66507147
0.66507066
0.66507056
0.66507055
0.66507055
0.66507055
0.66507055
0.66507055
0.66507055
0.66507055
0.66507055
0.66507055
0.66507055
0.66507055
0.66507055
0.66507055
0.66507055
0.66507055
0.66507055
0.66507055
0.66507055
0.66507055
0.66507055
0.66507055
0.66507055
0.66507055
0.66507055
0.66507304
0.66512911
0.66552414
0.66713854
0.67216717
0.68486023
0.70432824
0.70545938
0.68937964
0.68329458
0.68381072
0.68749846
0.6867453
0.68504892
0.68493918
0.68529948
0.68555776
0.6857269
0.68581912
0.68596986
0.68620057
0.68655123
0.68697857
0.68743384
0.68791427
0.68837728
0.68877293
0.68913135
0.68952156
0.68997754
0.69047695
0.69098663
0.69148353
0.69197458
0.69246209
0.69296365
0.6934724
0.69399706
0.69453415
0.69506771
0.6955993
0.69612589
0.69663969
0.6971347
0.69760774
0.69806016
0.69849037
0.69889258
0.69926778
0.6996202
0.69994516
0.70023986
0.70050854
0.70075458
0.70097896
0.70118275
0.70136951
0.7015364
0.70167867
0.70179763
0.70190359
0.70199758
0.70208216
0.70215526
0.70221543
0.70226369
0.70230191
0.66514879
0.66521534
0.66511159
0.66507751
0.66507147
0.66507066
0.66507056
0.66507055
0.66507055
0.66507055
0.66507055
0.66507055
0.66507055
0.66507055
0.66507055
0.66507055
0.66507055
0.66507055
0.66507055
0.66507055
0.66507055
0.66507055
0.66507055
0.66507055
0.66507055
0.66507055
0.66507055
0.66507055
0.66507055
0.66507055
0.66507055
0.6650732
0.66513171
0.66553853
0.66719317
0.67232693
0.68522886
0.70479945
0.70534116
0.68929698
0.68342344
0.68397184
0.68775919
0.68686789
0.68520216
0.68508549
0.68547675
0.68575661
0.68595056
0.68605463
0.68621009
0.68644412
0.68679361
0.68721333
0.68765947
0.68813178
0.68859385
0.68899539
0.68936545
0.68976941
0.69024151
0.69075447
0.69128183
0.69179569
0.69230118
0.69280604
0.69331665
0.6938388
0.69438047
0.69492597
0.69547335
0.69602294
0.69656172
0.69708561
0.69759378
0.69808399
0.6985533
0.69899599
0.69941192
0.69980507
0.70017349
0.70051238
0.70082589
0.70111794
0.70138684
0.7016301
0.70184912
0.70204584
0.70221886
0.70237034
0.70250657
0.70263439
0.70274883
0.70284853
0.70293254
0.70300336
0.70306373
0.6651486
0.66521544
0.66511152
0.66507749
0.66507147
0.66507066
0.66507056
0.66507055
0.66507055
0.66507055
0.66507055
0.66507055
0.66507055
0.66507055
0.66507055
0.66507055
0.66507055
0.66507055
0.66507055
0.66507055
0.66507055
0.66507055
0.66507055
0.66507055
0.66507055
0.66507055
0.66507055
0.66507055
0.66507055
0.66507055
0.66507055
0.6650734
0.66513474
0.66555505
0.66725539
0.6725074
0.68563753
0.70529981
0.70516701
0.68918411
0.68355246
0.68413817
0.68801883
0.6869781
0.68535422
0.68522804
0.68564748
0.68594571
0.68616181
0.68628251
0.6864502
0.68669186
0.68704196
0.68745051
0.68787989
0.6883436
0.68880408
0.68921127
0.68959049
0.69000971
0.69049565
0.69103011
0.69156832
0.69210073
0.69261928
0.69313788
0.69366135
0.69420002
0.69474879
0.69530454
0.69586826
0.69642702
0.69697528
0.69751358
0.69803607
0.69853786
0.69901748
0.69947358
0.69990648
0.70031468
0.70069344
0.70104537
0.70137509
0.70168021
0.70195768
0.70220928
0.7024401
0.70265082
0.70284134
0.70301554
0.70317482
0.70332031
0.70344516
0.70355273
0.70364656
0.70372987
0.66514838
0.66521556
0.66511144
0.66507746
0.66507146
0.66507066
0.66507056
0.66507055
0.66507055
0.66507055
0.66507055
0.66507055
0.66507055
0.66507055
0.66507055
0.66507055
0.66507055
0.66507055
0.66507055
0.66507055
0.66507055
0.66507055
0.66507055
0.66507055
0.66507055
0.66507055
0.66507055
0.66507055
0.66507055
0.66507055
0.66507055
0.66507364
0.66513823
0.66557379
0.6673255
0.67270923
0.68608608
0.70582495
0.70493756
0.68904276
0.68368228
0.68431152
0.6882743
0.68707683
0.68550541
0.68536776
0.68580931
0.68612053
0.68635717
0.68650188
0.68669017
0.68694037
0.68729072
0.68768573
0.68809654
0.68854892
0.68900676
0.68941908
0.68981116
0.69024504
0.6907462
0.6912938
0.69185081
0.69239711
0.69292884
0.69346009
0.69399665
0.6945474
0.6951067
0.69567561
0.69624703
0.69681379
0.69737594
0.69792502
0.69845498
0.69896717
0.69945929
0.69992824
0.70037264
0.70079077
0.7011822
0.70155014
0.70189284
0.70220757
0.70249659
0.70276502
0.7030137
0.70323987
0.70344506
0.70363104
0.70379847
0.70394672
0.70407438
0.70419277
0.7042999
0.66514813
0.66521569
0.66511135
0.66507743
0.66507145
0.66507066
0.66507056
0.66507055
0.66507055
0.66507055
0.66507055
0.66507055
0.66507055
0.66507055
0.66507055
0.66507055
0.66507055
0.66507055
0.66507055
0.66507055
0.66507055
0.66507055
0.66507055
0.66507055
0.66507055
0.66507055
0.66507055
0.66507055
0.66507055
0.66507055
0.66507055
0.66507392
0.66514222
0.66559488
0.66740381
0.67293309
0.68657408
0.70636944
0.70465433
0.68887448
0.68381337
0.68449399
0.68852233
0.68716459
0.68565452
0.68550712
0.68596288
0.68628118
0.68653812
0.68671272
0.68692558
0.68718452
0.68753431
0.68791599
0.68830738
0.68874742
0.68920254
0.68962268
0.69002593
0.69047386
0.69099326
0.69155626
0.69212607
0.69268382
0.69323119
0.69377298
0.69432152
0.69488086
0.6954515
0.69603199
0.6966126
0.69719036
0.69775997
0.69831544
0.69885635
0.69937934
0.69987901
0.70035552
0.70080965
0.70123847
0.70164229
0.70202056
0.70237153
0.70269667
0.70299905
0.7032794
0.70353466
0.70376647
0.70397808
0.70417174
0.7043474
0.70450571
0.70464923
0.70478433
0.66514785
0.66521583
0.66511125
0.66507739
0.66507145
0.66507066
0.66507056
0.66507055
0.66507055
0.66507055
0.66507055
0.66507055
0.66507055
0.66507055
0.66507055
0.66507055
0.66507055
0.66507055
0.66507055
0.66507055
0.66507055
0.66507055
0.66507055
0.66507055
0.66507055
0.66507055
0.66507055
0.66507055
0.66507055
0.66507055
0.66507055
0.66507424
0.66514674
0.66561844
0.66749066
0.6731797
0.68710087
0.70692659
0.70431996
0.68868151
0.68394614
0.68468793
0.68875925
0.6872418
0.68579957
0.68564984
0.68611068
0.6864307
0.6867071
0.68691349
0.6871505
0.68741873
0.68776766
0.6881369
0.68851103
0.68893962
0.68939392
0.68982016
0.6902358
0.69070054
0.69123439
0.69181193
0.69239686
0.69296759
0.69352315
0.69407699
0.69463526
0.69520446
0.69578467
0.69637193
0.69696085
0.69754793
0.69812515
0.69868999
0.69923926
0.69976802
0.70027571
0.70076223
0.70122413
0.70165967
0.70207098
0.70245706
0.70281739
0.7031529
0.70346476
0.70375125
0.70401418
0.70425671
0.70448068
0.70468553
0.70487102
0.7050395
0.70519376
0.66514755
0.66521599
0.66511114
0.66507735
0.66507144
0.66507066
0.66507056
0.66507055
0.66507055
0.66507055
0.66507055
0.66507055
0.66507055
0.66507055
0.66507055
0.66507055
0.66507055
0.66507055
0.66507055
0.66507055
0.66507055
0.66507055
0.66507055
0.66507055
0.66507055
0.66507055
0.66507055
0.66507055
0.66507055
0.66507055
0.66507054
0.66507463
0.66515186
0.66564461
0.66758641
0.67344981
0.68766573
0.70748865
0.70393835
0.68846621
0.68408066
0.68489588
0.68898255
0.68730596
0.68593848
0.68579827
0.68625386
0.6865711
0.68686474
0.68710052
0.68736003
0.68763791
0.68798611
0.68834576
0.68870593
0.68912705
0.68958093
0.69001377
0.69044236
0.69092169
0.69147162
0.69206391
0.69266082
0.69324214
0.69381095
0.69437207
0.69493808
0.69551791
0.69610618
0.69669941
0.69729602
0.69788877
0.69847212
0.69904352
0.69959804
0.70013421
0.70065023
0.70114286
0.70160974
0.7020535
0.70247254
0.70286491
0.70323105
0.70357314
0.70389079
0.7041845
0.70445593
0.70470622
0.70493514
0.70514299
0.70533228
0.7055057
0.70566359
0.66514723
0.66521616
0.66511102
0.66507731
0.66507143
0.66507066
0.66507056
0.66507055
0.66507055
0.66507055
0.66507055
0.66507055
0.66507055
0.66507055
0.66507055
0.66507055
0.66507055
0.66507055
0.66507055
0.66507055
0.66507055
0.66507055
0.66507055
0.66507055
0.66507055
0.66507055
0.66507055
0.66507055
0.66507055
0.66507055
0.66507054
0.66507508
0.66515761
0.66567353
0.66769145
0.67374422
0.68826785
0.70804674
0.70351447
0.68823161
0.68421701
0.68512071
0.68919013
0.68735415
0.68607208
0.68594928
0.68639078
0.68670148
0.68700895
0.68726984
0.68755029
0.68783839
0.68818635
0.68854052
0.68889297
0.68930946
0.68976481
0.69020457
0.69064674
0.6911409
0.69170459
0.69230975
0.69291765
0.69351048
0.69408816
0.69465926
0.69523609
0.69581752
0.69641319
0.69701462
0.69761712
0.69821373
0.69880262
0.69937854
0.69993806
0.700479
0.70099914
0.70149617
0.70197043
0.70241973
0.70284221
0.70323868
0.70361152
0.70395986
0.70428276
0.70458135
0.70485729
0.70511126
0.70534394
0.70555727
0.7057534
0.70593294
0.66514689
0.66521635
0.6651109
0.66507727
0.66507142
0.66507065
0.66507056
0.66507055
0.66507055
0.66507055
0.66507055
0.66507055
0.66507055
0.66507055
0.66507055
0.66507055
0.66507055
0.66507055
0.66507055
0.66507055
0.66507055
0.66507055
0.66507055
0.66507055
0.66507055
0.66507055
0.66507055
0.66507055
0.66507055
0.66507055
0.66507055
0.6650756
0.66516405
0.66570539
0.66780619
0.67406371
0.6889063
0.70859142
0.70305382
0.6879807
0.68435476
0.68536506
0.68937711
0.68738858
0.68620888
0.68609765
0.68651864
0.68681924
0.68713677
0.68741961
0.68771991
0.68801787
0.6883675
0.68872151
0.68907182
0.68948824
0.68994624
0.6903941
0.69084842
0.69135767
0.69193488
0.69254949
0.69316823
0.69377037
0.69435653
0.69493634
0.69551908
0.69610997
0.69670821
0.69731223
0.69791918
0.69852195
0.69911534
0.69969456
0.70025817
0.70080324
0.70132647
0.70182711
0.70230395
0.70275581
0.70318256
0.70358479
0.7039612
0.70431107
0.70463626
0.70493875
0.70521905
0.70547714
0.70571405
0.70593144
0.7061303
0.66514653
0.66521654
0.66511076
0.66507722
0.66507141
0.66507065
0.66507056
0.66507055
0.66507055
0.66507055
0.66507055
0.66507055
0.66507055
0.66507055
0.66507055
0.66507055
0.66507055
0.66507055
0.66507055
0.66507055
0.66507055
0.66507055
0.66507055
0.66507055
0.66507055
0.66507055
0.66507055
0.66507055
0.66507055
0.66507055
0.66507055
0.66507621
0.66517125
0.66574034
0.66793106
0.67440907
0.68958001
0.70911337
0.70256169
0.68771689
0.68449305
0.6856317
0.68953828
0.68741356
0.68635579
0.68624855
0.68664179
0.6869261
0.68724899
0.68755162
0.6878699
0.68817687
0.68853104
0.68889004
0.68924378
0.68966318
0.69012644
0.69058128
0.69104853
0.69157056
0.69216019
0.69278585
0.69341191
0.69402181
0.69461627
0.69520287
0.69579186
0.69638869
0.69699189
0.69760177
0.69821001
0.6988126
0.69940868
0.69999138
0.70055789
0.70110457
0.70163027
0.70213354
0.70261254
0.70306665
0.70349567
0.70389901
0.70427648
0.70462918
0.70495801
0.70526267
0.7055435
0.70580217
0.70604069
0.70626011
0.66514615
0.66521675
0.66511062
0.66507718
0.66507141
0.66507065
0.66507056
0.66507055
0.66507055
0.66507055
0.66507055
0.66507055
0.66507055
0.66507055
0.66507055
0.66507055
0.66507055
0.66507055
0.66507055
0.66507055
0.66507055
0.66507055
0.66507055
0.66507055
0.66507055
0.66507055
0.66507055
0.66507055
0.66507055
0.66507055
0.66507055
0.66507691
0.66517927
0.66577859
0.66806648
0.67478104
0.69028783
0.70960386
0.70204255
0.68744402
0.68463045
0.68592366
0.68967008
0.68743278
0.68650723
0.68641023
0.68676906
0.6870298
0.6873512
0.68767065
0.68800242
0.68831863
0.68867996
0.68904805
0.68940995
0.68983592
0.6903029
0.69076851
0.69124452
0.69178086
0.69238107
0.69301446
0.69364896