/*--------------------------------*- C++ -*----------------------------------*\
| =========                 |                                                 |
| \\      /  F ield         | OpenFOAM: The Open Source CFD Toolbox           |
|  \\    /   O peration     | Version:  2506                                  |
|   \\  /    A nd           | Website:  www.openfoam.com                      |
|    \\/     M anipulation  |                                                 |
\*---------------------------------------------------------------------------*/
FoamFile
{
    version     2.0;
    format      ascii;
    arch        "LSB;label=32;scalar=64";
    class       volScalarField;
    location    "0.013";
    object      alphat;
}
// * * * * * * * * * * * * * * * * * * * * * * * * * * * * * * * * * * * * * //

dimensions      [1 -1 -1 0 0 0 0];

internalField   nonuniform List<scalar> 
13761
(
0.0014023109
0.0011767924
0.00096810768
0.00096860278
0.0011774012
0.0014029652
0.0016346306
0.0018735344
0.00096883444
0.001177706
0.0014033019
0.0016351602
0.0018740595
0.0021079613
0.0023460776
0.00096901502
0.0011779576
0.0014035913
0.001635638
0.0018745412
0.0021089548
0.0023468777
0.0025434496
0.0026850886
0.00096913226
0.0011781444
0.0014038218
0.0016360544
0.0018749693
0.0021099066
0.0023476277
0.0025435258
0.0026848578
0.002833061
0.0030351565
0.00096917305
0.0011782532
0.0014039799
0.0016363964
0.0018753306
0.0021108007
0.0023483114
0.0025435176
0.0026845467
0.0028332791
0.003036036
0.0032832907
0.0035495458
0.00096912261
0.0011782686
0.0014040497
0.001636647
0.001875608
0.0021116173
0.0023489089
0.0025434094
0.0026841428
0.00283344
0.0030368921
0.0032845462
0.003550909
0.003827841
0.0041430167
0.00096896348
0.0011781727
0.0014040125
0.0016367856
0.0018757804
0.0021123324
0.0023493975
0.002543183
0.0026836312
0.0028335319
0.0030377147
0.0032857878
0.0035522721
0.0038293088
0.0041451017
0.0045827053
0.0052393647
0.0059929591
0.00096867673
0.0011779458
0.0014038473
0.0016367892
0.0018758239
0.0021129194
0.0023497514
0.002542817
0.0026829949
0.0028335395
0.0030384926
0.0032870055
0.0035536259
0.0038307744
0.0041472095
0.0045864756
0.0052443512
0.0059944356
0.0063619314
0.0066969415
0.00096824027
0.0011775653
0.0014035301
0.0016366311
0.0018757107
0.0021133471
0.0023499406
0.0025422867
0.0026822139
0.0028334454
0.0030392102
0.0032881882
0.0035549579
0.0038322282
0.0041493316
0.0045902916
0.0052493661
0.0059958858
0.0063640827
0.0067014228
0.0073437698
0.0074310876
0.00096762962
0.001177006
0.0014030335
0.0016362813
0.0018754091
0.0021135801
0.0023499312
0.0025415641
0.0026812657
0.0028332291
0.0030398481
0.0032893187
0.0035562522
0.003833658
0.004151458
0.0045941407
0.0052543823
0.0059972828
0.0063663829
0.0067058668
0.0073383507
0.0074287273
0.0076792816
0.0083719567
0.00096681652
0.001176239
0.0014023265
0.0016357057
0.001874883
0.0021135784
0.0023496847
0.0025406169
0.0026801243
0.0028328675
0.003040384
0.0032903759
0.0035574897
0.0038350481
0.0041535748
0.0045980031
0.0052593509
0.0059985531
0.0063688147
0.0067102189
0.0073321373
0.0074260585
0.0076887788
0.008385666
0.0089521814
0.0089920172
0.00096576905
0.0011752312
0.0014013733
0.001634865
0.00187409
0.0021132958
0.0023491564
0.002539408
0.0026787592
0.0028323329
0.0030407913
0.0032913342
0.0035586471
0.0038363779
0.0041556618
0.0046018529
0.0052642251
0.0059996488
0.0063713259
0.0067144301
0.0073250315
0.0074230622
0.0076988135
0.008400366
0.0089614541
0.0089994327
0.0089700424
0.0089369954
0.0094385783
0.00096445054
0.0011739446
0.0014001327
0.0016337146
0.0018729821
0.0021126791
0.0023482955
0.0025378949
0.0026771362
0.0028315936
0.0030410392
0.0032921634
0.0035596963
0.003837622
0.0041576938
0.0046056554
0.0052689498
0.0060005229
0.0063738723
0.0067184182
0.007317006
0.0074198285
0.0077094343
0.0084161401
0.0089717617
0.0090078462
0.0089755438
0.008951832
0.0094783829
0.010717568
0.012293039
0.0009628204
0.001172337
0.0013985584
0.0016322038
0.0018715042
0.0021116684
0.0023470443
0.0025360293
0.0026752159
0.0028306136
0.0030410919
0.0032928286
0.0035606049
0.0038387509
0.0041596406
0.004609369
0.0052734585
0.0060011161
0.0063764027
0.0067220781
0.0073079547
0.007416344
0.0077207617
0.0084330906
0.0089832105
0.0090173464
0.0089819965
0.0089683168
0.0095217887
0.010786044
0.012360335
0.013695225
0.014627978
0.014575061
0.00096083191
0.0011703591
0.0013965967
0.0016302748
0.0018695932
0.002110195
0.0023453366
0.002533756
0.002672953
0.0028293509
0.0030409082
0.0032932893
0.0035613347
0.0038397294
0.0041614658
0.0046129422
0.0052776705
0.0060013529
0.0063788479
0.0067252847
0.0072977331
0.0074125561
0.0077328536
0.0084513239
0.0089958772
0.0090279408
0.0089894993
0.0089866241
0.0095691568
0.010860355
0.012433385
0.013745989
0.014635189
0.014529203
0.013102792
0.012280798
0.0085034388
0.0009584327
0.0011679556
0.0013941869
0.0016278608
0.0018671763
0.0021081805
0.0023430969
0.002531011
0.002670295
0.0028277572
0.00304044
0.003293498
0.0035618411
0.0038405162
0.0041631258
0.0046163132
0.0052814895
0.0060011403
0.0063811158
0.0067278887
0.0072861833
0.0074084099
0.0077457497
0.0084709565
0.0090098988
0.0090397397
0.0089980607
0.0090068597
0.0096208478
0.010941074
0.012512718
0.013801127
0.014643055
0.014479549
0.013040258
0.01219545
0.0085224819
0.00095556329
0.0011650625
0.0013912587
0.0016248861
0.0018641706
0.0021055352
0.0023402386
0.0025277212
0.0026671815
0.002825776
0.0030396315
0.0032933998
0.0035620721
0.0038410624
0.004164569
0.0046194083
0.0052848017
0.0060003642
0.0063830875
0.0067297122
0.007273131
0.007403844
0.0077594972
0.0084921191
0.0090254452
0.0090528995
0.0090077976
0.0090292302
0.0096773186
0.011028798
0.012598881
0.01386102
0.014651589
0.014425754
0.012971921
0.012113337
0.0085523822
0.00095215616
0.0011616073
0.0013877322
0.0016212634
0.0018604802
0.0021021566
0.0023366624
0.0025238017
0.0026635419
0.0028233425
0.0030384181
0.0032929304
0.0035619666
0.0038413106
0.0041657339
0.0046221395
0.0052874726
0.0059988848
0.0063846105
0.0067305425
0.0072583822
0.0073987853
0.0077741461
0.0085149569
0.0090427046
0.0090675895
0.0090188753
0.0090539951
0.0097390937
0.011124213
0.012692501
0.01392602
0.014660773
0.014367485
0.012897217
0.012035374
0.0085961755
0.00094813607
0.0011575077
0.0013835164
0.0016168933
0.0018559965
0.0020979283
0.0023322556
0.0025191559
0.0026592957
0.002820381
0.0030367243
0.0032920153
0.0035614533
0.0038411927
0.0041665471
0.0046244026
0.0052893443
0.0059965324
0.0063854915
0.0067301272
0.0072417233
0.007393146
0.007789745
0.008539626
0.0090618834
0.0090839944
0.0090314727
0.0090814335
0.0098067366
0.011228059
0.012794247
0.01399652
0.014670589
0.014304342
0.012815661
0.011962974
0.0086601958
0.0009434169
0.0011526701
0.0013785078
0.0016116635
0.0018505959
0.0020927182
0.002326889
0.0025136721
0.0026543489
0.002816805
0.0030344638
0.0032905681
0.0035604494
0.0038406301
0.0041669234
0.0046260771
0.0052902351
0.0059931024
0.0063854905
0.0067281701
0.0072229164
0.0073868207
0.0078063449
0.0085663046
0.0090832165
0.0091023239
0.0090457896
0.0091118572
0.009880878
0.011341157
0.01290485
0.014072954
0.014681015
0.014235853
0.012726642
0.011897329
0.0087524836
0.00093790243
0.0011469877
0.0013725883
0.0016054436
0.0018441358
0.002086375
0.0023204146
0.0025072212
0.0026485925
0.0028125122
0.0030315349
0.0032884889
0.0035588585
0.0038395296
0.0041667619
0.0046270228
0.0052899352
0.0059883473
0.0063843095
0.0067243217
0.0072016906
0.0073796798
0.0078240037
0.0085952024
0.0091069789
0.0091228243
0.0090620584
0.0091456265
0.0099622476
0.011464447
0.013025144
0.014155805
0.014692008
0.014161481
0.012629442
0.011839536
0.0088838516
0.00093148122
0.0011403381
0.0013656223
0.0015980871
0.0018364553
0.0020787262
0.002312662
0.0024996533
0.0026418989
0.0028073843
0.0030278201
0.0032856603
0.0035565673
0.003837782
0.0041659439
0.0046270755
0.0052882011
0.0059819691
0.0063815818
0.0067181721
0.0071777439
0.0073715672
0.0078427801
0.0086265559
0.0091334813
0.0091457751
0.0090805444
0.0091831443
0.010051652
0.01159895
0.013156018
0.014245566
0.014703492
0.014080646
0.012523335
0.011790511
0.0090655952
0.00092403029
0.0011325843
0.0013574578
0.0015894252
0.0018273698
0.0020695775
0.002303438
0.0024907961
0.0026341205
0.002801284
0.0030231827
0.0032819468
0.0035534441
0.0038352586
0.0041643291
0.0046260459
0.005284755
0.005973614
0.0063768628
0.0067092446
0.0071507414
0.0073622973
0.0078627366
0.0086606352
0.0091630782
0.0091714951
0.009101549
0.0092248618
0.010149989
0.01174579
0.013298431
0.014342741
0.014715356
0.013992726
0.012407593
0.011750906
0.0093098501
0.00091540683
0.0011235682
0.00134792
0.0015792688
0.0018166727
0.0020587061
0.0022925192
0.0024804493
0.0026250849
0.0027940497
0.003017463
0.0032771903
0.0035493354
0.0038318087
0.0041617538
0.0046237152
0.0052792788
0.0059628625
0.0063696176
0.0066969868
0.0071203032
0.0073516459
0.0078839458
0.0086977593
0.0091961801
0.0092003537
0.0091254208
0.0092712954
0.010258284
0.011906233
0.013453452
0.014447869
0.014727444
0.013897026
0.012281479
0.01172079
0.0096219453
0.00090545191
0.0011131125
0.0013368122
0.0015674002
0.0018041262
0.0020458617
0.0022796515
0.0024683808
0.00261459
0.0027854949
0.0030104759
0.003271206
0.0035440605
0.0038272537
0.0041580238
0.0046198297
0.0052714096
0.0059492216
0.0063592104
0.006680763
0.0070860066
0.0073393477
0.0079064871
0.0087382969
0.0092332574
0.0092327736
0.0091525554
0.0093230222
0.010377676
0.012081672
0.013622228
0.014561489
0.014739535
0.013792811
0.012144289
0.011699513
0.010003713
0.00089398293
0.001101015
0.0013239107
0.001553576
0.0017894656
0.0020307589
0.0022645434
0.0024543219
0.0026024012
0.0027753986
0.0030020039
0.0032637796
0.0035374093
0.0038213844
0.0041529119
0.0046140996
0.0052607383
0.0059321204
0.0063448962
0.0066598504
0.0070473755
0.0073250894
0.0079304585
0.0087826842
0.0092748534
0.0092692423
0.0091834061
0.0093806958
0.010509465
0.012273663
0.013806016
0.014684154
0.014751336
0.013679288
0.01199538
0.011685394
0.010440315
0.00088079333
0.0010870473
0.0013089624
0.0015375181
0.0017723882
0.002013077
0.0022468617
0.0024379592
0.0025882408
0.0027635055
0.002991795
0.0032546583
0.0035291333
0.0038139531
0.0041461503
0.0046061892
0.0052468017
0.005910902
0.0063258139
0.0066334314
0.0070038756
0.0073085056
0.0079559807
0.0088314365
0.0093215993
0.0093103245
0.0092184911
0.0094450532
0.010655097
0.012483944
0.014006192
0.014816415
0.014762458
0.013555621
0.011834156
0.011675915
0.0109171
0.00086564531
0.0010709502
0.0012916818
0.0015189141
0.0017525553
0.0019924519
0.0022262256
0.0024189298
0.0025717858
0.0027495115
0.0029795513
0.0032435493
0.0035189425
0.0038046669
0.0041374235
0.0045957164
0.0052290836
0.005884825
0.0063009844
0.0066005953
0.006954909
0.0072891769
0.007983209
0.0088851664
0.0093742252
0.0093566712
0.0092584009
0.0095169228
0.01081621
0.012714445
0.014224242
0.014958804
0.014772387
0.013420949
0.011660183
0.011667168
0.011405513
0.00084825712
0.0010524306
0.0012717451
0.0014974107
0.0017295836
0.0019684735
0.0022022003
0.0023968096
0.0025526528
0.0027330627
0.0029649257
0.003230105
0.0035064926
0.0037931794
0.0041263608
0.0045822411
0.0052070084
0.0058530636
0.006269317
0.0065603394
0.0068998044
0.0072666273
0.0080123492
0.0089446091
0.0094335842
0.0094090399
0.0093038111
0.0095972398
0.010994655
0.012967329
0.014461794
0.015111832
0.01478046
0.013274395
0.011473239
0.011652728
0.01188795
0.00082835734
0.0010311545
0.0012487869
0.0014726081
0.0017030405
0.0019406779
0.0021742887
0.0023711056
0.0025303912
0.0027137375
0.0029475069
0.0032139194
0.0034913786
0.0037790781
0.0041125235
0.0045652623
0.0051799424
0.0058147163
0.0062296187
0.0065115742
0.0068378128
0.007240332
0.0080436786
0.0090106483
0.0095006705
0.009468309
0.0093554914
0.0096870529
0.01119251
0.013244999
0.014720601
0.015275962
0.014785826
0.013115095
0.011273637
0.011623536
0.012353273
0.00080561552
0.0010067433
0.0012223932
0.0014440575
0.0016724406
0.0019085414
0.0021419254
0.0023412427
0.0025044674
0.0026910397
0.0029268113
0.0031945103
0.0034731183
0.0037618728
0.004095395
0.0045442054
0.0051471932
0.0057688211
0.006180625
0.0064531437
0.0067681019
0.007209723
0.0080775741
0.0090843431
0.0095766418
0.0095354953
0.0094143147
0.009787532
0.011412099
0.013550108
0.01500254
0.015451577
0.014787402
0.012942205
0.011062941
0.011564158
0.012776898
0.00077963609
0.00097876614
0.0011920951
0.0014112495
0.0016372338
0.0018714744
0.0021044664
0.0023065514
0.0024742501
0.0026643787
0.0029022648
0.0031713073
0.0034511385
0.0037409769
0.0040743623
0.0045184156
0.0051080112
0.0057143734
0.0061210287
0.0063838365
0.006689754
0.0071742119
0.0081145511
0.0091669684
0.0096628463
0.0096117736
0.0094812653
0.0098999754
0.011656017
0.0138856
0.015309599
0.015638957
0.014783833
0.012754851
0.010845681
0.011452713
0.013172814
0.00074996475
0.00094673364
0.0011573608
0.0013736111
0.0015968032
0.0018288103
0.0020611812
0.0022662532
0.0024389906
0.0026330509
0.0028731841
0.003143631
0.0034247537
0.0037156879
0.0040486979
0.0044871415
0.0050615919
0.005650356
0.0060495303
0.0063024214
0.0066017652
0.0071332094
0.0081553085
0.009260044
0.0097608403
0.0096984866
0.0095574374
0.010025801
0.011927115
0.014254638
0.015643829
0.015838234
0.014773457
0.012551913
0.010618534
0.011278205
0.013469437
0.00071608917
0.00091008912
0.0011175863
0.0013304904
0.0015504479
0.0017797982
0.0020112405
0.0022194455
0.002397799
0.0025962166
0.002838753
0.0031106667
0.0033931385
0.0036851585
0.0040175329
0.0044495168
0.0050070732
0.0055757594
0.0059648801
0.0062076644
0.0065030438
0.0070861642
0.0082007847
0.0093653809
0.0098724123
0.0097971575
0.0096440285
0.010166542
0.012228523
0.014660632
0.016007323
0.016049367
0.014754272
0.012331875
0.010376796
0.01102884
0.013643736
0.00067742992
0.00086819502
0.0010720803
0.0012811465
0.0014973731
0.0017235825
0.0019536996
0.0021650757
0.0023496134
0.0025528603
0.0027979829
0.0030714294
0.003355291
0.0036483578
0.0039798184
0.0044045298
0.0049435206
0.0054895955
0.0058659117
0.0060983465
0.0063923979
0.0070325909
0.0082522213
0.0094851184
0.0099995987
0.0099094911
0.0097423217
0.010323829
0.012563652
0.015107242
0.016402149
0.016272132
0.014723914
0.012092546
0.010114305
0.010690733
0.013597966
0.00063333071
0.00082032951
0.0010200572
0.0012247316
0.0014366727
0.0016591955
0.0018874899
0.002101928
0.0022931697
0.0025017597
0.0027496785
0.0030247184
0.0033099864
0.0036040272
0.0039342816
0.0043509857
0.0048699086
0.0053909073
0.005751578
0.0059732866
0.0062685463
0.006972117
0.0083112081
0.0096217204
0.010144646
0.010037325
0.0098536084
0.010499295
0.012936089
0.015598205
0.01683014
0.016506037
0.014679677
0.011830734
0.0098217261
0.01025079
0.013249518
0.00058305281
0.00076567478
0.00096062419
0.0011602827
0.0013673128
0.0015855424
0.0018114016
0.0020285987
0.0022269625
0.0024414299
0.0026923776
0.002969062
0.0032557176
0.0035506176
0.0038793623
0.0042874496
0.0047850778
0.0052787457
0.0056209375
0.0058313329
0.0061301064
0.0069045102
0.0083797115
0.0097779411
0.01030994
0.010182542
0.0099790796
0.010694465
0.013349477
0.016137162
0.017292586
0.016750185
0.014618766
0.01154174
0.0094882485
0.0096964573
0.012513687
0.00052575736
0.00070330596
0.0008927692
0.001086703
0.0012881159
0.0015013649
0.0017240656
0.0019434757
0.0021492003
0.0023700626
0.00262428
0.0029026339
0.0031906088
0.0034862038
0.0038131267
0.004212151
0.0046876482
0.0051520977
0.0054731003
0.005671325
0.0059755648
0.0068296716
0.0084600498
0.0099567154
0.010497857
0.010346921
0.010119633
0.010910545
0.013807313
0.016727376
0.017789607
0.017002239
0.014539591
0.011218196
0.0091057309
0.0090095364
0.011278908
0.00046049446
0.00063218465
0.00081534688
0.0010027489
0.0011977424
0.0014052393
0.0016239339
0.0018447166
0.002057757
0.0022854462
0.0025431512
0.0028231514
0.0031123082
0.0034083713
0.0037331484
0.004122859
0.004575884
0.0050097545
0.0053070956
0.0054920045
0.0058032234
0.0067475885
0.0085547652
0.010160918
0.010710478
0.010531855
0.010275574
0.011148088
0.014312577
0.017371262
0.018318573
0.017269111
0.014431773
0.010859587
0.0086534251
0.0081789129
0.0095162733
0.00038626411
0.00055114913
0.0007270722
0.00090701681
0.001094674
0.0012955446
0.0015092532
0.0017302326
0.0019501224
0.0021848704
0.0024461982
0.0027277332
0.0030178376
0.0033140622
0.0036363435
0.0040166863
0.0044474699
0.0048500781
0.0051216569
0.0052918609
0.0056110817
0.0066581791
0.0086663446
0.010392931
0.010949128
0.01073794
0.010446169
0.011406478
0.014867164
0.018069956
0.018874529
0.017557049
0.014285037
0.010450021
0.0081124493
0.0072081813
0.0072269381
0.00030242741
0.00045898527
0.00062653062
0.0007979399
0.00097720054
0.0011704395
0.0013780566
0.0015976674
0.0018233536
0.0020650137
0.0023299128
0.0026127167
0.0029033943
0.003199366
0.0035187406
0.0038898167
0.0042991736
0.0046706255
0.0049148579
0.0050688479
0.0053966178
0.0065610218
0.0087967024
0.010653955
0.011213665
0.010964354
0.010629061
0.011683183
0.015470994
0.018822904
0.01945638
0.01786277
0.014089949
0.0099652835
0.0074680509
0.0061276441
0.0047157957
0.00021089612
0.00035495167
0.0005123096
0.0006738218
0.00084341731
0.001027843
0.001228085
0.0014443826
0.0016740462
0.001921832
0.0021898927
0.0024734392
0.0027641082
0.0030592485
0.0033751765
0.0037371334
0.0041263696
0.0044675988
0.0046835837
0.004819947
0.005156419
0.0064548777
0.0089463389
0.010942931
0.01150142
0.011207944
0.0108195
0.011972658
0.01612072
0.019626683
0.020061592
0.018180101
0.01383473
0.0093761406
0.0066989404
0.0050214419
0.0027429038
0.00012130881
0.00024150252
0.00038385989
0.00053312479
0.0006913128
0.00086544089
0.0010568106
0.001267439
0.0014983332
0.0017504828
0.0020206809
0.0023040075
0.0025937607
0.0028872242
0.0031989103
0.0035517418
0.0039224049
0.0042350783
0.0044227636
0.0045404561
0.0048855826
0.006336973
0.0091130592
0.011255055
0.011805737
0.011461944
0.0110095
0.012264892
0.016807844
0.020472985
0.020686243
0.018498524
0.013506767
0.0086497795
0.0057804472
0.0039851639
0.0017997665
5.3244305e-05
0.00013194338
0.00024586205
0.00037640938
0.00051956454
0.00068096054
0.00086147872
0.001063756
0.0012919275
0.0015453459
0.0018156765
0.0020971313
0.0023845237
0.0026749957
0.0029811781
0.0033244027
0.0036778382
0.0039640578
0.0041243226
0.0042229744
0.0045767849
0.0062019457
0.0092901993
0.011579937
0.012114191
0.011714185
0.011186959
0.012543619
0.017516099
0.02134455
0.021327113
0.018800142
0.013096749
0.0077541374
0.0046993016
0.0030247693
0.0014436959
1.9356373e-05
5.3025137e-05
0.00011978612
0.00021515416
0.00033261305
0.00047460291
0.00064010197
0.00083015006
0.0010506696
0.0013003393
0.0015673183
0.0018441837
0.0021268898
0.0024122232
0.0027108266
0.0030430234
0.0033797197
0.0036414793
0.0037760472
0.003856174
0.0042191565
0.0060405759
0.0094643749
0.011899629
0.012406683
0.011944747
0.011334631
0.012784337
0.018218027
0.022209528
0.021979681
0.019059807
0.012604556
0.0066844453
0.0034943953
0.0021441874
0.0013060203
9.4678213e-06
1.7970547e-05
4.108041e-05
8.6179685e-05
0.00015772196
0.00026169337
0.00039866854
0.00056721231
0.00077225122
0.0010106923
0.0012679581
0.0015358477
0.0018100514
0.0020866598
0.0023742773
0.0026924967
0.0030112614
0.0032496447
0.0033607405
0.0034237055
0.0037973291
0.0058387789
0.0096133013
0.012187056
0.012655062
0.01212381
0.011427152
0.012952413
0.018872041
0.023030556
0.022611791
0.019251084
0.012021224
0.0055448405
0.0023712978
0.0015268367
0.0012855781
7.5827757e-06
9.2329098e-06
1.3803422e-05
2.4496955e-05
4.8116119e-05
9.513593e-05
0.00017628037
0.00029814185
0.00046675819
0.00067804485
0.00091501578
0.0011655433
0.0014237855
0.0016854186
0.0019565671
0.002255649
0.0025526859
0.0027668475
0.0028566408
0.0029042733
0.0032920511
0.0055786472
0.0097053985
0.012404051
0.01283183
0.012209779
0.011421364
0.013001514
0.019417804
0.023749276
0.023175109
0.019335657
0.011351787
0.0045223181
0.0016755452
0.0012881671
0.0013115753
6.9968128e-06
7.4654302e-06
8.4709974e-06
1.0054628e-05
1.3429119e-05
2.2698006e-05
4.6418558e-05
9.7700736e-05
0.00019197347
0.00033749913
0.0005253614
0.00073979028
0.00096799459
0.001202154
0.0014469742
0.0017180232
0.001985158
0.0021707416
0.0022409735
0.0022750942
0.0026860021
0.0052455857
0.0097051929
0.0125041
0.012897552
0.012152084
0.011264289
0.012872378
0.019771268
0.024278932
0.023598689
0.019262561
0.010612544
0.0037536713
0.0013978682
0.0012406915
0.001326703
6.75275e-06
6.8793126e-06
7.2014537e-06
7.713161e-06
8.3167108e-06
9.2870993e-06
1.1886125e-05
2.0094062e-05
4.3572306e-05
9.6728027e-05
0.00018985121
0.00032222584
0.0004832046
0.00066253057
0.00086185745
0.0010876434
0.0013059222
0.0014505283
0.0015025914
0.0015259526
0.0019852656
0.0048463093
0.0095853995
0.012438462
0.012794658
0.011894949
0.010894824
0.012493448
0.019820321
0.02449629
0.023782207
0.018967744
0.0098060586
0.0031999782
0.0012776041
0.0012115828
0.0013092462
6.7024265e-06
6.7304915e-06
6.7987389e-06
6.9608025e-06
7.2508712e-06
7.6147756e-06
7.9967622e-06
8.600155e-06
1.0527352e-05
1.6823628e-05
3.370156e-05
6.921383e-05
0.00012854666
0.00021100993
0.00032041017
0.00045710302
0.00058945473
0.00067209117
0.00070357866
0.00072452529
0.0012811831
0.0044247404
0.0093234757
0.012148092
0.012460152
0.011378289
0.01024847
0.011785232
0.019423684
0.024237825
0.023591832
0.018373944
0.0088982158
0.0027361276
0.0011609329
0.0011301701
0.0012434726
6.6907355e-06
6.700161e-06
6.7137393e-06
6.747433e-06
6.8322172e-06
6.974771e-06
7.1191185e-06
7.2799385e-06
7.5890066e-06
8.2065882e-06
9.1607015e-06
1.1231875e-05
1.6445738e-05
2.7467545e-05
4.8329631e-05
8.2161763e-05
0.0001165662
0.00013539615
0.00014387295
0.0001696123
0.00079107305
0.003997619
0.0088482451
0.011560394
0.011831025
0.010546162
0.0092661357
0.01067084
0.018420778
0.023313765
0.022864118
0.017376589
0.007837141
0.0022561163
0.00098929304
0.00097604273
0.0011216971
6.6857122e-06
6.6912847e-06
6.6942899e-06
6.6976897e-06
6.713618e-06
6.7502338e-06
6.801674e-06
6.8594781e-06
6.9776445e-06
7.2472966e-06
7.5459788e-06
7.7659691e-06
7.9533617e-06
8.288002e-06
8.9115637e-06
1.0250524e-05
1.1878833e-05
1.2743232e-05
1.3208131e-05
3.5901977e-05
0.00055975301
0.0034466583
0.008033426
0.010602668
0.010851404
0.009357981
0.0079077456
0.009096986
0.016675618
0.021567742
0.021432073
0.015857533
0.0065665793
0.0017063412
0.00074887311
0.00075518169
0.00094285204
6.6817451e-06
6.686428e-06
6.687675e-06
6.6858865e-06
6.6876456e-06
6.6953309e-06
6.7089833e-06
6.728489e-06
6.7680358e-06
6.8610451e-06
7.0263014e-06
7.2313665e-06
7.4829003e-06
7.6946889e-06
7.8188872e-06
7.9499568e-06
8.1148425e-06
8.1726432e-06
8.3143491e-06
2.3890919e-05
0.0004150524
0.0027984131
0.006882121
0.0092409838
0.0094812582
0.0078006019
0.0061727299
0.0070725639
0.014192724
0.018999046
0.019185363
0.013705979
0.0050623641
0.0011028975
0.0004693068
0.00049917056
0.00070851018
6.6780148e-06
6.6822209e-06
6.6831612e-06
6.6809296e-06
6.6806962e-06
6.6836588e-06
6.6884342e-06
6.6943323e-06
6.7048727e-06
6.7221547e-06
6.7543814e-06
6.8307726e-06
6.9921419e-06
7.2349685e-06
7.5294617e-06
7.8947142e-06
8.2683908e-06
8.4626613e-06
8.6506974e-06
1.7785286e-05
0.00027647499
0.0020726775
0.0054581321
0.0074894972
0.0076999117
0.0058974256
0.0041410635
0.004735173
0.011219233
0.015832148
0.016127165
0.010853886
0.003373345
0.00054826228
0.00021634099
0.00026610732
0.00043282416
6.6744741e-06
6.6780961e-06
6.6788926e-06
6.6766907e-06
6.6760306e-06
6.678316e-06
6.6820308e-06
6.6862471e-06
6.6924851e-06
6.6981901e-06
6.7012561e-06
6.7046235e-06
6.7231424e-06
6.7734486e-06
6.888906e-06
7.1015607e-06
7.4100742e-06
7.7592704e-06
8.2285598e-06
1.2769195e-05
0.00014718398
0.0012819566
0.0037675737
0.0053505722
0.0054921464
0.0037213879
0.0020836703
0.0024545954
0.0079500137
0.012167314
0.012274059
0.0073125088
0.0016543616
0.00016759253
6.9065375e-05
0.00010431419
0.00018505556
6.6711911e-06
6.6742222e-06
6.6748128e-06
6.6726586e-06
6.6715808e-06
6.6735624e-06
6.6770531e-06
6.6811097e-06
6.6869173e-06
6.6917964e-06
6.6931722e-06
6.6903598e-06
6.6914818e-06
6.6988293e-06
6.7117967e-06
6.7391486e-06
6.804727e-06
6.9401475e-06
7.173724e-06
8.5077561e-06
5.1179988e-05
0.00053915787
0.0018935226
0.0028476763
0.0028743281
0.0015121517
0.00057778239
0.00086532982
0.0042619968
0.0072903029
0.0073598705
0.003318769
0.00038513311
2.4174929e-05
1.6434216e-05
2.7887511e-05
4.6754791e-05
6.6681812e-06
6.6706425e-06
6.670969e-06
6.6687425e-06
6.6672064e-06
6.6690421e-06
6.6725657e-06
6.67663e-06
6.6821079e-06
6.686732e-06
6.6881348e-06
6.6851749e-06
6.68519e-06
6.688184e-06
6.6909643e-06
6.692101e-06
6.6961652e-06
6.7107666e-06
6.7402885e-06
6.8791759e-06
1.1555475e-05
8.9211078e-05
0.00038813876
0.00063212873
0.00061051995
0.00021111991
5.1795814e-05
0.00013647971
0.0010522056
0.0021180752
0.0020979969
0.00056930755
3.0958004e-05
7.9472798e-06
8.1310194e-06
9.7102932e-06
1.2006369e-05
6.6653457e-06
6.6672136e-06
6.6672695e-06
6.6650493e-06
6.6631338e-06
6.6648438e-06
6.6684108e-06
6.6724771e-06
6.677306e-06
6.6815236e-06
6.6830123e-06
6.6803243e-06
6.6805501e-06
6.6826025e-06
6.6846576e-06
6.6849277e-06
6.6855847e-06
6.688886e-06
6.693074e-06
6.6960401e-06
6.7719627e-06
8.5009111e-06
1.7880655e-05
2.7646016e-05
2.5719113e-05
1.128204e-05
7.4366635e-06
9.2868622e-06
4.2202704e-05
0.00010336409
0.0001007938
2.0574543e-05
7.1712339e-06
6.9532696e-06
7.0326718e-06
7.2266602e-06
7.4973218e-06
6.6626313e-06
6.6639031e-06
6.6637099e-06
6.6615219e-06
6.6594068e-06
6.6610147e-06
6.6646419e-06
6.6687044e-06
6.6726728e-06
6.6765057e-06
6.6783998e-06
6.6761066e-06
6.6767035e-06
6.6783118e-06
6.680013e-06
6.679972e-06
6.680496e-06
6.6828818e-06
6.6844933e-06
6.6826066e-06
6.6809772e-06
6.6786536e-06
6.7219206e-06
6.7986733e-06
6.8106502e-06
6.765992e-06
6.737304e-06
6.7280293e-06
6.7704519e-06
6.9640488e-06
7.0007048e-06
6.8330904e-06
6.7952794e-06
6.8050912e-06
6.8397278e-06
6.8678411e-06
6.8793228e-06
6.6600602e-06
6.6608039e-06
6.6604023e-06
6.6581675e-06
6.6560618e-06
6.6575646e-06
6.6611486e-06
6.6650782e-06
6.6682913e-06
6.6716958e-06
6.6739076e-06
6.6721445e-06
6.673185e-06
6.6746597e-06
6.6760026e-06
6.6757219e-06
6.6762985e-06
6.6784221e-06
6.6791069e-06
6.676644e-06
6.6738743e-06
6.6678751e-06
6.6758232e-06
6.7033613e-06
6.7226671e-06
6.7295649e-06
6.7245196e-06
6.7134384e-06
6.7101e-06
6.730812e-06
6.7518767e-06
6.7525005e-06
6.7470025e-06
6.7475941e-06
6.7769571e-06
6.7995358e-06
6.7963428e-06
6.6576543e-06
6.6579279e-06
6.6573102e-06
6.6550807e-06
6.6531709e-06
6.6544657e-06
6.6578204e-06
6.6614149e-06
6.6641406e-06
6.6671181e-06
6.6693695e-06
6.6682543e-06
6.6698225e-06
6.6712636e-06
6.6722984e-06
6.6718854e-06
6.6722877e-06
6.6741765e-06
6.6743357e-06
6.6717831e-06
6.6685353e-06
6.6628852e-06
6.6683385e-06
6.6937042e-06
6.7130276e-06
6.7197657e-06
6.7166977e-06
6.7082739e-06
6.7052951e-06
6.7191003e-06
6.7314238e-06
6.7280647e-06
6.7192926e-06
6.7160905e-06
6.7396686e-06
6.7726587e-06
6.7854678e-06
6.6553598e-06
6.6551716e-06
6.6543354e-06
6.652183e-06
6.6504312e-06
6.651545e-06
6.654688e-06
6.6579999e-06
6.6604831e-06
6.6632624e-06
6.6655524e-06
6.6649308e-06
6.6668488e-06
6.6681883e-06
6.6687844e-06
6.6679532e-06
6.6680728e-06
6.669816e-06
6.669721e-06
6.6676487e-06
6.6653161e-06
6.6609059e-06
6.666019e-06
6.6881593e-06
6.7053168e-06
6.710894e-06
6.7077945e-06
6.702046e-06
6.7005537e-06
6.7102204e-06
6.7173384e-06
6.7129018e-06
6.7026702e-06
6.698401e-06
6.7067309e-06
6.7383134e-06
6.7676161e-06
6.6530853e-06
6.6524425e-06
6.6514125e-06
6.6492877e-06
6.6476397e-06
6.6486566e-06
6.6516772e-06
6.654891e-06
6.6574156e-06
6.6600974e-06
6.6623524e-06
6.6618361e-06
6.6638471e-06
6.6651365e-06
6.6653252e-06
6.6641625e-06
6.6639308e-06
6.665618e-06
6.6657124e-06
6.6640371e-06
6.6630768e-06
6.660426e-06
6.6667498e-06
6.6854973e-06
6.6994562e-06
6.7032978e-06
6.7006419e-06
6.696776e-06
6.6956368e-06
6.7012539e-06
6.7055131e-06
6.7015384e-06
6.6933213e-06
6.6878626e-06
6.6854159e-06
6.7004613e-06
6.7289145e-06
6.6508579e-06
6.6497769e-06
6.6485864e-06
6.6464458e-06
6.6448294e-06
6.6457783e-06
6.6487647e-06
6.6520017e-06
6.6546906e-06
6.6573337e-06
6.6593588e-06
6.6589131e-06
6.6609216e-06
6.6621202e-06
6.6619716e-06
6.6604628e-06
6.6597752e-06
6.6612286e-06
6.6614896e-06
6.6603768e-06
6.6604114e-06
6.6606052e-06
6.6679748e-06
6.6830907e-06
6.6940157e-06
6.6967433e-06
6.6945475e-06
6.6913844e-06
6.6900077e-06
6.6933575e-06
6.6966159e-06
6.6937596e-06
6.6880779e-06
6.6809853e-06
6.6787768e-06
6.6829902e-06
6.6926215e-06
6.6487684e-06
6.6472578e-06
6.645836e-06
6.6436547e-06
6.6420781e-06
6.6429375e-06
6.6458844e-06
6.6490916e-06
6.6518329e-06
6.654392e-06
6.6563202e-06
6.656254e-06
6.6582796e-06
6.6593492e-06
6.6589614e-06
6.6572402e-06
6.6562269e-06
6.6573603e-06
6.6573208e-06
6.6564915e-06
6.6575146e-06
6.6602855e-06
6.6679926e-06
6.6798429e-06
6.6886262e-06
6.690915e-06
6.6892453e-06
6.6867839e-06
6.6855728e-06
6.6873408e-06
6.6891449e-06
6.6865744e-06
6.6833023e-06
6.6797341e-06
6.6784979e-06
6.6821365e-06
6.6882e-06
6.646831e-06
6.6449534e-06
6.6432331e-06
6.6409792e-06
6.6394373e-06
6.6401455e-06
6.6429548e-06
6.6460116e-06
6.6486833e-06
6.6511347e-06
6.6531584e-06
6.6537931e-06
6.6558587e-06
6.6567299e-06
6.6560457e-06
6.6542554e-06
6.6529932e-06
6.6536461e-06
6.6534876e-06
6.6528884e-06
6.654008e-06
6.6566472e-06
6.6634751e-06
6.6744255e-06
6.6827185e-06
6.6854198e-06
6.684713e-06
6.6828847e-06
6.6815734e-06
6.6821921e-06
6.6828778e-06
6.6807197e-06
6.6787074e-06
6.6771603e-06
6.6787668e-06
6.6846776e-06
6.6940861e-06
6.6450804e-06
6.6428888e-06
6.6407899e-06
6.638411e-06
6.6369129e-06
6.6375152e-06
6.6401278e-06
6.6429146e-06
6.6454288e-06
6.6478492e-06
6.6500964e-06
6.65133e-06
6.6534693e-06
6.6541777e-06
6.6532395e-06
6.6514329e-06
6.6499642e-06
6.6500202e-06
6.6499777e-06
6.6499376e-06
6.651236e-06
6.6534213e-06
6.6593296e-06
6.6694388e-06
6.6772709e-06
6.6803172e-06
6.6804511e-06
6.6793695e-06
6.6779807e-06
6.6780108e-06
6.6781034e-06
6.6765903e-06
6.6758304e-06
6.67536e-06
6.6775566e-06
6.6836351e-06
6.6928226e-06
6.643402e-06
6.6409884e-06