/*--------------------------------*- C++ -*----------------------------------*\
| =========                 |                                                 |
| \\      /  F ield         | OpenFOAM: The Open Source CFD Toolbox           |
|  \\    /   O peration     | Version:  2506                                  |
|   \\  /    A nd           | Website:  www.openfoam.com                      |
|    \\/     M anipulation  |                                                 |
\*---------------------------------------------------------------------------*/
FoamFile
{
    version     2.0;
    format      ascii;
    arch        "LSB;label=32;scalar=64";
    class       volScalarField;
    location    "1.15";
    object      Ma;
}
// * * * * * * * * * * * * * * * * * * * * * * * * * * * * * * * * * * * * * //

dimensions      [0 0 0 0 0 0 0];

internalField   nonuniform List<scalar> 
19257
(
0.29933225
0.29943402
0.29956922
0.29957066
0.29963151
0.29968542
0.29972446
0.29975638
0.29975499
0.29978221
0.29981405
0.29986754
0.29992786
0.29998626
0.30004211
0.30015375
0.30020821
0.30029935
0.30036462
0.30044004
0.3005508
0.30066862
0.30078903
0.30094032
0.30109756
0.30122745
0.30136936
0.3015104
0.30162443
0.30173026
0.30187701
0.30203049
0.30210567
0.3021655
0.30223188
0.30225584
0.30222935
0.30223325
0.30228499
0.30224972
0.30327152
0.30292402
0.30254286
0.30521984
0.30946405
0.3123087
0.31956805
0.32298419
0.34480172
0.29929378
0.29947243
0.29957855
0.2995736
0.29960774
0.29966875
0.29971558
0.29971849
0.29975769
0.29977901
0.29979492
0.29986685
0.29993919
0.29998688
0.30003822
0.30009457
0.30013006
0.30021024
0.30028046
0.30033322
0.30043212
0.30053598
0.30062251
0.30073144
0.30086597
0.30096954
0.30106445
0.30114592
0.30121887
0.30124539
0.30130034
0.30137424
0.30135719
0.30130179
0.30123115
0.30111639
0.30088964
0.30062873
0.30030128
0.30006464
0.29959807
0.29982987
0.29932353
0.30039317
0.30053201
0.30540642
0.31503592
0.31393203
0.33926763
0.29928062
0.29948028
0.29958083
0.29957568
0.29958753
0.29963879
0.29968108
0.29969411
0.29972794
0.29973313
0.2997783
0.29986037
0.2998856
0.29990737
0.2999471
0.29997068
0.30001459
0.30010481
0.30017957
0.30022069
0.30030227
0.3003819
0.30044967
0.30052578
0.30062313
0.3007021
0.30073693
0.3007698
0.30080318
0.3007713
0.30073186
0.30070637
0.30061442
0.30044601
0.3002526
0.29998241
0.29960041
0.29911894
0.29859391
0.29784028
0.29742959
0.29703648
0.29597966
0.29506264
0.29511253
0.29958667
0.30247657
0.30428147
0.33297557
0.29927104
0.29945607
0.29958962
0.29957878
0.29957919
0.29961571
0.29965603
0.29968712
0.29969314
0.29971004
0.29975285
0.2997858
0.29979705
0.29981635
0.29984261
0.29987513
0.29992838
0.3000052
0.30006111
0.30009613
0.30014943
0.30021333
0.3002673
0.30030075
0.30035851
0.3004069
0.30039923
0.30039175
0.30037053
0.30029065
0.30016728
0.30004571
0.2998705
0.29960349
0.29930733
0.29890773
0.29835913
0.29769406
0.29693136
0.29595176
0.29509527
0.29378284
0.2923793
0.29075978
0.28973057
0.29296716
0.29342088
0.29474514
0.32473824
0.29926589
0.29943255
0.29959705
0.29958336
0.29957348
0.29959622
0.29963947
0.29967688
0.29967091
0.29967836
0.29968911
0.29971431
0.29974748
0.29975645
0.29977298
0.29981138
0.29986396
0.29990382
0.29993968
0.29996192
0.29998921
0.30003687
0.30006569
0.30006558
0.30008892
0.30009712
0.30006474
0.30000352
0.29992319
0.29979455
0.2996049
0.29939335
0.29913411
0.29877515
0.29837566
0.29785664
0.29716893
0.29634623
0.29531529
0.29417347
0.2927558
0.2911846
0.28931401
0.287166
0.28487535
0.28580029
0.28448053
0.28537019
0.31067744
0.29925523
0.29942002
0.29960011
0.29958722
0.29956546
0.29957209
0.29960802
0.29963872
0.29964742
0.29963565
0.29964297
0.2996719
0.29971605
0.2997212
0.29972787
0.29975209
0.29978253
0.29979606
0.29982643
0.29983546
0.29983383
0.29985349
0.29986186
0.29983987
0.29981287
0.29978331
0.29971842
0.29960389
0.29946659
0.29928809
0.29903749
0.29874322
0.29840096
0.29795252
0.29743638
0.29681236
0.29599033
0.29499454
0.29380506
0.29240501
0.29072211
0.28871766
0.28615893
0.28354629
0.28054774
0.27875668
0.27585231
0.27642001
0.29770575
0.29921469
0.29940858
0.29958424
0.29957154
0.29954952
0.2995425
0.2995666
0.29960379
0.29961866
0.29960369
0.2996097
0.29963347
0.29965687
0.29966086
0.29965517
0.29965831
0.29967026
0.29968065
0.29969905
0.2996949
0.29966577
0.29964809
0.29963824
0.29959441
0.29952208
0.29945279
0.2993503
0.29919661
0.29900425
0.29876999
0.29846099
0.29809503
0.29767381
0.29713854
0.29650576
0.29578076
0.29484562
0.29370236
0.2923257
0.29073092
0.2887134
0.28628259
0.28343705
0.28025387
0.27633567
0.27255777
0.26803439
0.26615398
0.28127051
0.29916272
0.299376
0.29956871
0.29955453
0.29953286
0.29951715
0.29953459
0.29957733
0.29959739
0.29957981
0.29956069
0.29956677
0.29958013
0.29958392
0.29956609
0.29954857
0.29955128
0.29955337
0.29954705
0.29952725
0.29947947
0.29943026
0.29939656
0.29932603
0.29922162
0.29910908
0.29896966
0.29877852
0.29853637
0.29824667
0.29788172
0.29744975
0.29695477
0.29633533
0.2955959
0.29475235
0.29371786
0.29243512
0.29090983
0.28904451
0.28683191
0.28415715
0.28086262
0.2769119
0.27239528
0.26679179
0.26052566
0.25653308
0.26589596
0.29911762
0.29933998
0.29955578
0.29954482
0.29952203
0.2995024
0.29951149
0.29954831
0.29956944
0.2995495
0.29951501
0.29950081
0.29951115
0.29951229
0.29948777
0.29945192
0.29943851
0.29942728
0.29940048
0.29936229
0.29929796
0.29921992
0.29915693
0.29906146
0.29892275
0.29876401
0.29858407
0.29835568
0.29807019
0.29772764
0.29730617
0.29681031
0.29624793
0.29554923
0.29470727
0.29374303
0.29260385
0.29119396
0.28951703
0.28746627
0.28504618
0.28199898
0.27835185
0.27391505
0.26852752
0.26183924
0.253893
0.24685538
0.24949039
0.2990582
0.29931379
0.29954934
0.2995381
0.2995119
0.29948779
0.29948402
0.29950703
0.299525
0.29950704
0.29946444
0.29944039
0.29944162
0.2994337
0.29940446
0.29935882
0.29932948
0.29930455
0.29926189
0.29920613
0.29912591
0.29901927
0.2989174
0.29879626
0.29862816
0.29843175
0.29820806
0.29793856
0.29761245
0.29722065
0.29674244
0.29618198
0.29555601
0.29478901
0.29384837
0.29276891
0.29150514
0.29000274
0.28816512
0.28598148
0.28330917
0.28004622
0.27609381
0.27110298
0.26491379
0.25731211
0.24774935
0.23733766
0.23403768
0.29898016
0.29927789
0.29953287
0.29951324
0.29948363
0.29945588
0.29943724
0.29944865
0.29946715
0.2994591
0.29941918
0.29938256
0.2993715
0.29935552
0.29931796
0.2992631
0.29921876
0.29917744
0.29911755
0.29904118
0.29894442
0.29881461
0.29867953
0.2985324
0.29833807
0.29810994
0.29784479
0.2975319
0.29716416
0.29672724
0.29619438
0.29556946
0.2948815
0.2940598
0.29303345
0.29183856
0.29045765
0.28882959
0.28687836
0.28452557
0.28166875
0.27819049
0.27382103
0.26842306
0.26157796
0.25301648
0.24186449
0.22829843
0.21868262
0.29889723
0.29923154
0.29951872
0.29949303
0.29945985
0.29943058
0.29939433
0.29940002
0.29942117
0.29941609
0.2993811
0.29933615
0.29931228
0.29928914
0.29924287
0.2991768
0.29911103
0.29905014
0.29897242
0.29887784
0.29876564
0.29861572
0.29845032
0.29827597
0.29805714
0.29779905
0.29749678
0.29714063
0.29672873
0.2962492
0.29566754
0.29498173
0.29423091
0.29336434
0.29227261
0.29096918
0.28947192
0.28772273
0.28566049
0.2831504
0.28013747
0.27643775
0.27179429
0.26599451
0.25866429
0.2489128
0.23663614
0.21960757
0.20408051
0.29881399
0.29917845
0.29951156
0.29948271
0.2994432
0.29941677
0.29937089
0.29936862
0.2993901
0.29938588
0.29935071
0.29929271
0.29924989
0.29921627
0.29916276
0.29909061
0.29901444
0.29893591
0.29884041
0.29872799
0.29860024
0.29843377
0.29824004
0.29803489
0.29779074
0.29750441
0.29717028
0.29677505
0.29631975
0.29579858
0.29517407
0.29443243
0.29361696
0.29270755
0.29157227
0.29017812
0.28856024
0.28669774
0.2845182
0.28190421
0.27870603
0.27480467
0.26992363
0.2637039
0.25584966
0.24535435
0.23152197
0.21145853
0.19039223
0.29873494
0.2991216
0.29950034
0.29947214
0.29942082
0.29938338
0.29933278
0.29932345
0.2993461
0.29934494
0.29931307
0.29924843
0.29918554
0.29913778
0.29907987
0.29900178
0.29891558
0.29882516
0.29871806
0.29859073
0.29844569
0.29826223
0.29804396
0.29781038
0.2975419
0.29722981
0.29686812
0.29644039
0.29594752
0.2953874
0.29472514
0.29393534
0.29305622
0.29209865
0.29093336
0.28947382
0.28774527
0.285764
0.28347487
0.28075489
0.2774322
0.27334414
0.26821194
0.26166477
0.25321594
0.24225315
0.22670988
0.20414438
0.1776297
0.29865824
0.29907186
0.29949736
0.29946695
0.29940348
0.29934981
0.29929773
0.29927364
0.29928941
0.29928907
0.29926145
0.29920034
0.29912968
0.29907003
0.29900633
0.29892368
0.29882881
0.29872615
0.2986062
0.29846411
0.29830345
0.29810648
0.29786899
0.29761037
0.29731881
0.29698329
0.29659675
0.29614148
0.29561744
0.29502253
0.29432646
0.29349807
0.29256207
0.29155056
0.29035722
0.28885585
0.28703951
0.2849417
0.28254703
0.27972438
0.27629934
0.27204679
0.26671576
0.25988749
0.2510055
0.23932652
0.22268722
0.19754693
0.16604478
0.2985821
0.29902071
0.29950207
0.29947898
0.29940576
0.29933884
0.29928912
0.2992416
0.29924337
0.29924538
0.29922214
0.29916507
0.2990913
0.29902378
0.29895552
0.29886827
0.29876359
0.29864734
0.29851425
0.29835882
0.29818394
0.29797547
0.29772389
0.29744496
0.29713266
0.29677617
0.29636745
0.29588846
0.29533824
0.29471288
0.29398594
0.29312735
0.29214653
0.29108092
0.28985581
0.28832674
0.28644862
0.28425498
0.28175619
0.27884259
0.2753235
0.270956
0.26542554
0.25834071
0.24911048
0.23668085
0.21928559
0.19184185
0.15582736
0.29852137
0.29897168
0.29945796
0.29947695
0.29941115
0.29934018
0.29928695
0.2992287
0.29921025
0.29921101
0.29919121
0.29913741
0.29906161
0.29898767
0.29891469
0.29882504
0.29871622
0.29859204
0.29844846
0.2982808
0.29809238
0.29787258
0.29761013
0.29731599
0.29698737
0.29661414
0.29618721
0.29568971
0.29512003
0.29447083
0.29371732
0.29283538
0.29182398
0.29071264
0.28945397
0.28790518
0.28598868
0.28372509
0.28114012
0.27815148
0.27455327
0.27009279
0.26442235
0.25712442
0.24761481
0.23471779
0.21632076
0.18725185
0.14732016
0.2984701
0.29894101
0.29944138
0.29948667
0.29941184
0.29932109
0.29925306
0.29922255
0.29920915
0.29919376
0.29916271
0.29910824
0.29903311
0.29895463
0.29887605
0.29878295
0.2986726
0.29854797
0.29840177
0.29822806
0.29803135
0.29780334
0.29753312
0.29722849
0.2968879
0.29650222
0.29606182
0.29555211
0.29497093
0.29430637
0.29353334
0.29263556
0.29160735
0.290465
0.28917625
0.28761207
0.28567616
0.28337262
0.28072688
0.27767479
0.27402938
0.26950596
0.2637442
0.25630371
0.24656654
0.23337132
0.21433646
0.18405462
0.14093991
0.29843094
0.29891361
0.29944516
0.29950292
0.29941942
0.29930601
0.29922617
0.29919441
0.29920278
0.29919391
0.299162
0.29910486
0.2990262
0.29894076
0.298853
0.29875194
0.29863642
0.29851121
0.29836695
0.29819379
0.29799547
0.29776371
0.29748845
0.29717723
0.29682933
0.29643617
0.29598765
0.2954717
0.29488516
0.29421145
0.29342527
0.29251764
0.29148146
0.29032175
0.28901002
0.28743095
0.28548391
0.28316075
0.28047942
0.27738437
0.27370624
0.26915176
0.26333402
0.2558124
0.24596268
0.23257179
0.21319733
0.18213463
0.13711725
0.29841268
0.29890239
0.29944364
0.29951089
0.29942663
0.29931077
0.29923012
0.29917563
0.29917551
0.29918034
0.29916477
0.29911565
0.29903861
0.29894969
0.29885489
0.29874557
0.29862179
0.29849102
0.29834493
0.29817147
0.29797319
0.29774127
0.29746523
0.29715221
0.29680163
0.29640518
0.29595331
0.29543615
0.29484904
0.29417199
0.29338016
0.29246974
0.29143371
0.29026906
0.28894366
0.28735226
0.28540043
0.28307556
0.28038471
0.27727013
0.27357505
0.26900648
0.26316812
0.25562194
0.2457399
0.23227612
0.21270604
0.18118589
0.13526856
0.29842209
0.29891286
0.29943638
0.2995059
0.29943193
0.29932347
0.29923345
0.29920111
0.29917877
0.29917383
0.29916244
0.29912177
0.29904775
0.2989561
0.29885823
0.29875012
0.29863092
0.29850508
0.29836257
0.29819077
0.29799313
0.29776278
0.29748984
0.29718008
0.29683154
0.29643663
0.29598808
0.29547643
0.29489464
0.29422143
0.29343336
0.29252923
0.2915025
0.2903426
0.28901303
0.28741806
0.28547236
0.28316437
0.28049077
0.27738492
0.27369666
0.26913894
0.2633186
0.25581262
0.24599016
0.23260563
0.21314653
0.18196079
0.13688227
0.29844928
0.29892167
0.29948076
0.29951118
0.29943245
0.29932049
0.29923915
0.29921758
0.2991982
0.29917899
0.29916863
0.29913867
0.29906915
0.2989733
0.29887258
0.29876748
0.29865388
0.29853331
0.29839532
0.29822639
0.29803049
0.29780374
0.29753766
0.29723535
0.29689183
0.29650192
0.29606208
0.29556008
0.29498675
0.29432229
0.29354505
0.29265439
0.29164402
0.29049763
0.28917263
0.28758177
0.28565257
0.28337744
0.28074334
0.27766858
0.2740054
0.26947911
0.26371644
0.2563006
0.24663546
0.23339581
0.21426675
0.18366275
0.14073719
0.29849313
0.29896453
0.29951141
0.29950701
0.29942652
0.29932951
0.29926612
0.29925298
0.299229
0.29918873
0.29917942
0.29915799
0.29909425
0.29900064
0.29890347
0.29880341
0.29869584
0.29858297
0.29845269
0.29828953
0.29809836
0.29787833
0.29762248
0.2973311
0.29699605
0.29661641
0.2961912
0.29570273
0.29514227
0.29449277
0.29373344
0.29286324
0.29187683
0.29075408
0.28944475
0.28786664
0.28596159
0.28373174
0.28115306
0.27813054
0.27451759
0.27004784
0.26437094
0.25712729
0.2476722
0.23485193
0.21621533
0.18676303
0.14650506
0.29855755
0.29902128
0.29952487
0.29950395
0.29942738
0.29934955
0.29930389
0.29928119
0.29925121
0.29921419
0.29920197
0.29918017
0.2991235
0.29904093
0.29895239
0.29885839
0.29875741
0.29865381
0.2985328
0.29837789
0.29819554
0.29798629
0.2977442
0.29746687
0.29714456
0.29678209
0.29637739
0.29590653
0.29536511
0.29473826
0.29400498
0.29316389
0.2922106
0.29112124
0.28983973
0.28829033
0.28642973
0.2842635
0.28175488
0.27880936
0.27527077
0.27088606
0.26535683
0.25834679
0.24920853
0.23696344
0.21899039
0.19232755
0.15500181
0.2986316
0.29907594
0.29953378
0.29950543
0.29943348
0.29937125
0.29933849
0.29930736
0.29927141
0.29924583
0.29923784
0.29921878
0.29916942
0.29909617
0.29901397
0.29892599
0.29883401
0.29874149
0.29862965
0.29848472
0.29831515
0.29812077
0.29789604
0.29763557
0.29733087
0.29699248
0.29661215
0.29616277
0.29564683
0.29504907
0.29434828
0.29354421
0.29263287
0.29158344
0.29033831
0.28883041
0.28702857
0.28494041
0.28252887
0.27968282
0.2762244
0.27196456
0.26664484
0.25986269
0.25120261
0.23926614
0.22358893
0.19674456
0.16521253
0.29871572
0.2991291
0.29952985
0.29950121
0.29943776
0.29939071
0.29936352
0.29933754
0.29930755
0.29928868
0.29928962
0.29927741
0.29923158
0.29916034
0.29908362
0.29900431
0.29892411
0.29884364
0.29874175
0.29860902
0.29845545
0.29827969
0.29807443
0.29783208
0.29754928
0.2972403
0.29688687
0.29646385
0.29597952
0.2954157
0.29475268
0.29399293
0.29313008
0.29212605
0.2909215
0.2894644
0.28773763
0.28574421
0.28343945
0.28068088
0.27733605
0.27324885
0.26812272
0.26164686
0.25333091
0.24231258
0.22745684
0.20273498
0.17661334
0.29880187
0.29917858
0.29954254
0.29951406
0.29945244
0.29941496
0.2993944
0.29937806
0.29935435
0.29934235
0.29934992
0.29933862
0.29929551
0.29922969
0.29916142
0.29909171
0.29902499
0.2989569
0.29886581
0.29874738
0.29861265
0.29845678
0.29827142
0.29805022
0.297795
0.29751838
0.29719275
0.29680112
0.29635306
0.29582707
0.29520738
0.2944995
0.2936913
0.29273461
0.29157732
0.29018238
0.28853976
0.28665533
0.2844591
0.28179932
0.27862493
0.27470356
0.26979234
0.26368693
0.25567574
0.24595369
0.23080115
0.21369388
0.18998414
0.29889321
0.29923121
0.29955678
0.29953036
0.2994797
0.29944535
0.2994311
0.2994184
0.29939735
0.29939609
0.29940572
0.29939255
0.29935274
0.2992962
0.29923983
0.2991815
0.29912838
0.29907194
0.29899403
0.29889304
0.29877862
0.2986439
0.29848073
0.29828405
0.29805985
0.29781526
0.29751835
0.29716276
0.29675517
0.29627242
0.29570331
0.29505408
0.29430433
0.29339644
0.29229377
0.29097403
0.28943321
0.28766852
0.28557581
0.28304749
0.28004109
0.27629492
0.27169592
0.26591076
0.25859203
0.24920271
0.2360129
0.22409878
0.20563092
0.29896272
0.29927541
0.29956266
0.2995273
0.29948241
0.29946411
0.29946032
0.29944559
0.29942995
0.29943857
0.29944982
0.29943926
0.29940521
0.29936057
0.29931865
0.29927419
0.29923531
0.29919167
0.29912522
0.29904305
0.29894991
0.298838
0.29869999
0.29853154
0.29834153
0.29812939
0.2978634
0.29754692
0.29718189
0.29674703
0.29623478
0.29564889
0.29495553
0.29409991
0.29306128
0.29183579
0.29040477
0.28874583
0.28676344
0.28439812
0.28152176
0.27800725
0.27380627
0.26835295
0.26188479
0.25244437
0.24355664
0.22909901
0.22120071
0.29902987
0.29932001
0.29956771
0.29953314
0.29949981
0.2994883
0.29948147
0.29946656
0.29946349
0.29948204
0.29949732
0.299489
0.29946173
0.29942992
0.29940337
0.29937609
0.29935022
0.29931836
0.29926795
0.29920672
0.29913343
0.29904444
0.29893214
0.29879523
0.29864157
0.29846284
0.29823052
0.2979551
0.29763435
0.29725016
0.29679703
0.29627214
0.29563208
0.29483454
0.29387692
0.29275244
0.2914369
0.28989365
0.2880348
0.28584706
0.28313278
0.279911
0.27599638
0.27109432
0.26507864
0.25686742
0.25015337
0.23449384
0.23541595
0.2991038
0.29937048
0.29959745
0.29956361
0.29953428
0.29952227
0.2995126
0.29950622
0.29951312
0.29953291
0.29955522
0.2995478
0.29952385
0.29950362
0.29949071
0.29947976
0.29946738
0.2994449
0.29941219
0.29936948
0.29932341
0.29925788
0.29916721
0.29906215
0.29894363
0.29879835
0.29860487
0.29837607
0.29810451
0.29777312
0.29737785
0.29690933
0.29632511
0.29559394
0.29473556
0.29371478
0.29250648
0.29108913
0.28936664
0.2873584
0.28490948
0.28202577
0.27830464
0.27402983
0.26839548
0.26222611
0.25493788
0.24598345
0.24936754
0.29916347
0.29939918
0.2996188
0.2995832
0.29955928
0.29956226
0.29955581
0.29955632
0.29957153
0.29959812
0.29962035
0.29960635
0.29958509
0.29957737
0.29957417
0.29957749
0.29957747
0.29956482
0.2995461
0.29952087
0.29949966
0.29946079
0.29939578
0.29932012
0.29923329
0.29912079
0.29897352
0.29879697
0.29857666
0.29829775
0.29795972
0.29755066
0.29702842
0.2963792
0.2956182
0.29469487
0.2935892
0.29229536
0.29074657
0.28887064
0.28671534
0.28414675
0.28079495
0.27704123
0.27200968
0.26769548
0.25953885
0.26301812
0.26546495
0.29919332
0.29941802
0.29960563
0.2995725
0.2995571
0.29957569
0.29957759
0.29958897
0.29961706
0.29966052
0.29966916
0.29965411
0.29964102
0.29964816
0.29965622
0.29967273
0.29968826
0.29969463
0.29968248
0.29967799
0.29967549
0.29965629
0.29962121
0.29957513
0.2995207
0.29944088
0.29933868
0.29921542
0.29904478
0.29881503
0.2985362
0.29819019
0.29773917
0.29718554
0.29651398
0.29569454
0.29471776
0.29355062
0.29222098
0.29053649
0.28862437
0.28626414
0.28349492
0.28027384
0.27616238
0.27285713
0.26587249
0.27127437
0.2839621
0.29922252
0.29944642
0.29959595
0.29956216
0.29956119
0.29957624
0.29959193
0.29961006
0.29964527
0.2996953
0.2997027
0.29969325
0.29968953
0.29970816
0.29973394
0.29976395
0.29979421
0.29981601
0.29981971
0.29983964
0.29986388
0.2998542
0.29984571
0.29982749
0.29980879
0.29976639
0.29970663
0.29962999
0.29950365
0.29932309
0.29910931
0.29883272
0.2984586
0.29799007
0.29742116
0.29669638
0.29585149
0.29482698
0.2936648
0.29231201
0.29070694
0.28856887
0.28635069
0.28369765
0.28088535
0.27817703
0.27432505
0.27479093
0.30005044
0.29926146
0.2994808
0.29959862
0.29956705
0.29957625
0.29958679
0.29961445
0.29964075
0.29967345
0.29972728
0.29974127
0.29973238
0.29974826
0.29976845
0.29980576
0.29984367
0.29988282
0.29991181
0.29993969
0.29997811
0.30002869
0.30004927
0.30006797
0.30007174
0.3000861
0.30008535
0.30007134
0.30003335
0.2999505
0.29982657
0.29968095
0.29947492
0.29917781
0.29879548
0.29832492
0.29770657
0.29701269
0.29622106
0.29516204
0.29406356
0.29276682
0.29114773
0.2893664
0.28738045
0.28571749
0.28418546
0.28339147
0.28287351
0.31316593
0.29928509
0.29950152
0.29959431
0.29957668
0.29960103
0.29961077
0.2996352
0.29969736
0.29972126
0.29975914
0.29978513
0.29977988
0.29981102
0.29983318
0.299875
0.29992672
0.29996864
0.29999813
0.30005034
0.30011186
0.30016627
0.30022246
0.30027491
0.30031352
0.30034791
0.300389
0.30042874
0.30042156
0.30038608
0.30032697
0.30025336
0.30011893
0.29989671
0.2996166
0.29922459
0.29877866
0.29821929
0.2975926
0.29684761
0.29607544
0.29490889
0.29385896
0.29251887
0.29147838
0.29060787
0.29084469
0.29305862
0.29490455
0.32432858
0.29931209
0.29948234
0.29958049
0.29958293
0.29961774
0.29964065
0.29966063
0.29972483
0.29977541
0.29979285
0.29981203
0.29981896
0.2998416
0.29988925
0.29994304
0.30000574
0.3000547
0.30008613
0.30015952
0.3002563
0.30030891
0.30038298
0.30045832
0.3005411
0.30060221
0.30067704
0.30076872
0.30079876
0.30080818
0.3008207
0.30081671
0.30076034
0.3006288
0.30043015
0.30015568
0.29983786
0.29949651
0.29901507
0.2985708
0.29806801
0.29723821
0.29677703
0.29601425
0.29574195
0.295722
0.29759505
0.30289593
0.30529375
0.33595893
0.29934955
0.2994577
0.29956884
0.29958715
0.29962219
0.29965959
0.29969328
0.29972159
0.29980795
0.29983048
0.29981801
0.29983735
0.29987055
0.29993138
0.30000402
0.30005751
0.30012014
0.30017123
0.3002596
0.30038195
0.30045186
0.30054166
0.30063669
0.30074472
0.30085328
0.30096188
0.3010874
0.30116908
0.30123015
0.30130812
0.3013688
0.30138581
0.30136077
0.30127234
0.30115693
0.300969
0.30082059
0.30068548
0.30042536
0.30008632
0.29983842
0.29977134
0.29994389
0.30036964
0.30163551
0.30387165
0.31291448
0.31527035
0.34083175
0.2993799
0.29941687
0.29955155
0.29958513
0.29962764
0.2996606
0.29971906
0.29974462
0.29981048
0.29983086
0.29983148
0.29986043
0.29991638
0.29996999
0.30005028
0.30010261
0.3001686
0.30024447
0.30034925
0.30047155
0.30057077
0.30068847
0.30081285
0.30093561
0.30109321
0.30124813
0.30139474
0.30153351
0.30165918
0.30179534
0.30192277
0.30201962
0.30209383
0.30216328
0.3021391
0.30217364
0.30215132
0.30227871
0.30251291
0.30250363
0.30277134
0.30302549
0.30393022
0.30538291
0.30820937
0.30981686
0.32327112
0.32460467
0.344822
0.20878216
0.27087324
0.27785751
0.28272387
0.2841778
0.28643164
0.28816125
0.28973904
0.2911152
0.29245798
0.2935539
0.29456646
0.29557575
0.29634136
0.29683147
0.29758873
0.29829315
0.29875407
0.29905074
0.29926249
0.29952274
0.29986195
0.30007754
0.30018359
0.30022756
0.3002614
0.30026206
0.30026641
0.30025145
0.30021432
0.30017629
0.30013393
0.30009387
0.30006449
0.30002242
0.29998431
0.29996615
0.29993013
0.299889
0.2998625
0.29983755
0.29980432
0.29979327
0.29974745
0.29976493
0.29973606
0.29971721
0.29981665
0.29995092
0.24135178
0.28507635
0.28680762
0.28920293
0.28970962
0.29094417
0.29185089
0.29284653
0.29370434
0.29473265
0.29550827
0.29627761
0.29684749
0.29744139
0.29804884
0.29859917
0.29901736
0.29937985
0.29973397
0.29995935
0.3001265
0.30027743
0.30039636
0.30043787
0.30043494
0.30043199
0.300405
0.30038415
0.30034683
0.30029272
0.30024324
0.30019061
0.30013806
0.30010506
0.30005249
0.30000554
0.29997981
0.29994501
0.29990064
0.29987273
0.29984428
0.29981197
0.29979541
0.29975607
0.29976646
0.29974093
0.29972173
0.29981386
0.29994131
0.25363608
0.29344263
0.29354975
0.29489826
0.29479813
0.29554969
0.29581962
0.29628869
0.2965588
0.29716672
0.29762377
0.2981065
0.29850634
0.29890059
0.29910983
0.29942659
0.29980664
0.30018187
0.30041749
0.30055201
0.30060586
0.30061583
0.30065878
0.30067522
0.30065844
0.30062594
0.30057645
0.3005217
0.30045276
0.30037933
0.30031516
0.30024964
0.30018407
0.30014238
0.30008125
0.30002673
0.29999366
0.29995866
0.29991157
0.29988095
0.29985052
0.29981883
0.29979773
0.29976424
0.29976727
0.29974595
0.2997258
0.2998097
0.29993597
0.26111572
0.29974369
0.29912863
0.30041185
0.29955933
0.30000414
0.29968801
0.29970728
0.29944194
0.29961079
0.29974956
0.30001151
0.30010368
0.30033207
0.30052118
0.3006634
0.3008426
0.30102947
0.30110049
0.30111515
0.3011256
0.30108302
0.3010233
0.30096804
0.30091344
0.30083171
0.30074949
0.3006602
0.30055279
0.30046396
0.30038689
0.30030684
0.30022949
0.30017579
0.30011002
0.30004662
0.30000784
0.29997063
0.299921
0.29988933
0.29985597
0.2998251
0.29980105
0.299772
0.29976782
0.29975123
0.29972973
0.29980383
0.29993332
0.26966018
0.30562288
0.30409812
0.30513586
0.3037738
0.30399361
0.30321677
0.30308307
0.30240668
0.30220966
0.30197651
0.30203242
0.30184175
0.30191317
0.3020183
0.30194844
0.30181142
0.3018688
0.3018458
0.3017408
0.30165217
0.30154162
0.30139268
0.30124701
0.30114857
0.3010295
0.30090904
0.30078864
0.30065228
0.30054881
0.30045732
0.3003633
0.30027406
0.30020649
0.3001389
0.30006525
0.30002142
0.29998146
0.2999295
0.29989873
0.29986157
0.29983095
0.29980573
0.29978033
0.29976916
0.29975625
0.29973382
0.29979682
0.29993284
0.27465029
0.31012639
0.30788445
0.30910686
0.30738271
0.30745332
0.30640349
0.30615618
0.30526352
0.30483171
0.30421434
0.30409615
0.30374365
0.30352018
0.30332662
0.30315844
0.302806
0.30270512
0.30259298
0.30238283
0.30212632
0.30193257
0.30176499
0.30154996
0.30138401
0.30123091
0.30107157
0.30091306
0.30075322
0.30063322
0.30052113
0.30041768
0.30031737
0.30023588
0.30016606
0.30008442
0.30003409
0.29999132
0.29993796
0.29990803
0.29986754
0.29983631
0.29981142
0.29978796
0.2997708
0.29976014
0.29973811
0.29979099
0.29993559
0.28147274
0.3145971
0.31129683
0.31252085
0.31057409
0.31046597
0.30928987
0.30889453
0.30785324
0.30736635
0.30641308
0.30606803
0.30565157
0.30517031
0.30455459
0.30432174
0.30389279
0.30348516
0.30321762
0.30302341
0.30268895
0.30231982
0.30211768
0.30187965
0.30162427
0.30141174
0.30122715
0.30103406
0.30085053
0.30071457
0.30057836
0.30046938
0.30036025
0.30026715
0.3001897
0.30010485
0.30004667
0.30000052
0.29994815
0.29991676
0.29987359
0.29984136
0.29981783
0.2997945
0.29977308
0.29976264
0.29974278
0.299787
0.29994135
0.2842704
0.31829068
0.31449303
0.31559232
0.31363226
0.31347086
0.31229941
0.31172977
0.31041104
0.3097855
0.30857268
0.30784251
0.30732357
0.30676239
0.30577986
0.30527107
0.30497957
0.30441175
0.30379859
0.30351312
0.30325725
0.30277575
0.3024197
0.30217498
0.30187084
0.30157517
0.3013637
0.30115747
0.30095258
0.30079183
0.30063201
0.30051916
0.30040139
0.30030081
0.30021135
0.30012523
0.30006087
0.30001006
0.29996024
0.29992419
0.29988
0.29984626
0.29982436
0.29980016
0.29977649
0.29976419
0.29974783
0.29978387
0.29994523
0.28963509
0.32289692
0.3171889
0.31834894
0.31619771
0.31639629
0.31498923
0.31456917
0.31279111
0.3119066
0.31053782
0.30954381
0.30867014
0.3080831
0.3071352
0.30609025
0.30577694
0.30537977
0.30466201
0.30393142
0.3036451
0.30326475
0.30275037
0.30241768
0.30210722
0.30175728
0.30149043
0.30127503
0.30106074
0.30086528
0.30068377
0.30056819
0.30044073
0.3003339
0.30023478
0.30014466
0.30007737
0.30002095
0.29997201
0.29993057
0.29988672
0.29985111
0.29983034
0.29980476
0.29978028
0.29976549
0.29975332
0.29978107
0.29995157
0.2925069
0.32581709
0.31911857
0.32068899
0.31827955
0.31882136
0.31711752
0.31698322
0.31495915
0.31375575
0.31229142
0.3113671
0.31005102
0.30913641
0.30847395
0.30718511
0.30627718
0.30592031
0.30560759
0.30467522
0.30395093
0.3036312
0.3031323
0.30265194
0.30229966
0.30195305
0.30163194
0.30138273
0.30116501
0.3009377
0.3007369
0.30061571
0.30048172
0.30036326
0.30026025
0.30016511
0.30009549
0.3000328
0.29998133
0.29993635
0.29989314
0.29985616
0.29983583
0.29980863
0.29978426
0.29976719
0.29975914
0.29977931
0.29996176
0.29986084
0.32833421
0.32185335
0.32329361
0.32087484
0.3208627
0.31879664
0.31863525
0.31679133
0.31564303
0.31389663
0.31300535
0.31161664
0.31012808
0.30942485
0.30852877
0.30714026
0.30613385
0.30603509
0.3055403
0.30448066
0.30389463
0.30345815
0.30292538
0.30247812
0.30212745
0.30178902
0.30149489
0.30125779
0.30100838
0.3007937
0.30065779
0.30052386
0.30039094
0.3002839
0.30018867
0.30011462
0.30004416
0.29998736
0.29994141
0.2998996
0.29986141
0.29984093
0.29981197
0.29978854
0.29976936
0.29976438
0.29978186
0.29996923
0.30200564
0.32795425
0.32539139
0.32594015
0.32401423
0.32316306
0.32036999
0.31967642
0.31815374
0.31784163
0.31584842
0.31436714
0.31303486
0.31140034
0.31011752
0.30934968
0.30851015
0.30690761
0.3061127
0.30590164
0.30516927
0.30424902
0.30370173
0.30319379
0.30268998
0.30228156
0.30192864
0.30160747
0.30134253
0.30107852
0.30085389
0.30069416
0.3005596
0.30042349
0.30030442
0.30021258
0.30013436
0.30005449
0.29999165
0.29994641
0.29990622
0.29986623
0.29984568
0.29981474
0.29979299
0.29977158
0.2997684
0.29978624
0.29996015
0.30688198
0.33391177
0.32789649
0.32882438
0.32596068
0.3256163
0.32226826
0.32096287
0.31900688
0.31933212
0.31777368
0.31584148
0.31416119
0.31273563
0.31112709
0.30972716
0.30922058
0.3083953
0.30670283
0.30593733
0.30555642
0.30471689
0.30395109
0.3034095
0.30290607
0.30244258
0.30204526
0.30169727
0.30142167
0.30115443
0.30091556
0.30072899
0.30058528
0.30045939
0.30032515
0.30023434
0.30015138
0.30006416
0.29999629
0.29995129
0.29991165
0.29987041
0.29985024
0.29981685
0.29979765
0.29977379
0.29977123
0.29978897
0.29994752
0.30950783
0.33614951
0.33079871
0.33087345
0.32696046
0.32721262
0.32448622
0.32386855
0.32045761
0.31983291
0.31855981
0.317283
0.31540244
0.3138756
0.31245436
0.31045249
0.3094313
0.30903967
0.30776627
0.30625519
0.30568176
0.30505494
0.30424632
0.3036041
0.30307642
0.30259796
0.30216808
0.30176726
0.30148578
0.30123176
0.30097887
0.30076564
0.30060762
0.30048627
0.30034941
0.3002557
0.30016238
0.300072
0.30000288
0.29995496
0.29991458
0.29987438
0.29985464
0.29981824
0.29980257
0.29977628
0.29977291
0.29979034
0.29994098
0.31490002
0.33413887
0.33248595
0.33244932
0.32790028
0.32805603
0.32584872
0.32591899
0.32316772
0.32067853
0.31856802
0.31792847
0.31644833
0.31483349
0.31342417
0.31183955
0.30996094
0.30903924
0.30820305
0.3070157
0.30590922
0.30523166
0.30450375
0.30381364
0.30321325
0.3027113
0.3022947
0.30185245
0.30153641
0.30129321
0.30104156
0.30080251
0.30063573
0.30050244
0.30037288
0.30027928
0.30016959
0.30007693
0.30001145
0.29995759
0.29991606
0.29987878
0.29985863
0.29981944
0.29980777
0.299779
0.29977357
0.29979259
0.29993534
0.3127181
0.34084133
0.33362262
0.33462685
0.3299451
0.33017594
0.32681046
0.32658477
0.32458952
0.32283072
0.3197889
0.31814476
0.31682991
0.31539616
0.31397447
0.31277996
0.31099511
0.30903231
0.30830976
0.30743975
0.30635551
0.30538934
0.30468931
0.30400922
0.30335593
0.30279527