/*--------------------------------*- C++ -*----------------------------------*\
| =========                 |                                                 |
| \\      /  F ield         | OpenFOAM: The Open Source CFD Toolbox           |
|  \\    /   O peration     | Version:  2506                                  |
|   \\  /    A nd           | Website:  www.openfoam.com                      |
|    \\/     M anipulation  |                                                 |
\*---------------------------------------------------------------------------*/
FoamFile
{
    version     2.0;
    format      ascii;
    arch        "LSB;label=32;scalar=64";
    class       volVectorField;
    location    "1.15";
    object      wallShearStress;
}
// * * * * * * * * * * * * * * * * * * * * * * * * * * * * * * * * * * * * * //

dimensions      [1 -1 -2 0 0 0 0];

internalField   uniform (0 0 0);

boundaryField
{
    Side
    {
        type            empty;
    }
    Inlet
    {
        type            calculated;
        value           uniform (0 0 0);
    }
    Airfoil
    {
        type            calculated;
        value           nonuniform List<vector> 
117
(
(-4.4985726 -3.6674596 5.8955517e-19)
(-3.3354067 -4.0894453 -2.3415402e-19)
(-4.0340201 -5.4959207 5.4581051e-19)
(-4.5578955 -3.9212671 -8.9473338e-19)
(-3.4228306 -5.7838492 -1.9310251e-19)
(-4.2048365 -4.6805884 5.6712673e-19)
(-3.271832 -6.3605768 6.8349783e-20)
(-4.574424 -5.2840176 4.9882432e-19)
(-3.035094 -5.2420522 5.476757e-19)
(-3.684518 -5.5592898 2.3837256e-18)
(-3.0087191 -4.8835159 1.3832958e-19)
(-2.9061859 -5.0544405 8.0069979e-20)
(-3.834862 -5.8061587 -5.4496396e-18)
(-3.848764 -4.5085219 6.1022846e-18)
(-2.5098161 -3.1713008 -2.0728956e-19)
(-2.8465918 -4.9917618 7.0755186e-18)
(-2.8969973 -2.6439402 -8.2279658e-18)
(-1.5362595 -3.7891444 -2.7149968e-20)
(-3.1080491 -3.5257627 -9.3652166e-19)
(-1.6058213 -2.9439364 -5.5389947e-20)
(-2.5864915 -3.8324281 -1.1167608e-18)
(-1.5740706 -2.7253058 -2.8701213e-20)
(-1.5719495 -3.9039119 -1.8279754e-17)
(-1.8945933 -3.6665882 2.818324e-17)
(-2.434008 -4.2003964 -1.8388642e-17)
(-3.0907293 -1.5436914 1.7321273e-17)
(-1.1921884 -1.9780162 -7.631412e-18)
(-2.3496409 -2.9404628 5.7313918e-19)
(-1.7325038 -1.6597096 7.7037198e-34)
(-1.9148266 -2.0090172 -6.253221e-18)
(-2.1022022 -1.6330409 7.8425674e-20)
(-2.2319094 -1.059606 1.0117378e-17)
(-2.1261518 -0.83191352 -8.2770556e-18)
(-2.2478695 -0.57611705 6.5584572e-18)
(-2.4793296 -0.34270355 -3.2574119e-18)
(-2.7155546 0.021069494 0)
(-2.9064805 0.26135209 -2.0161849e-18)
(-3.1601398 0.44731668 1.6599294e-18)
(-3.4412547 0.63090711 -6.5998898e-19)
(6.0362046 3.1974132 -2.4475407e-18)
(5.8736775 -0.48482527 2.3843905e-18)
(5.2323854 -0.66114265 -2.4074124e-35)
(4.1954483 -0.61686589 1.1580844e-18)
(3.0169106 -0.53886914 -1.1138711e-18)
(1.9982548 -0.44640831 2.1906841e-18)
(1.1496533 -0.33704109 -2.1064859e-35)
(0.44451337 -0.20784605 3.4606554e-35)
(-0.021693076 -0.080234795 7.2810862e-19)
(-0.22066896 0.0062175063 -2.3006441e-19)
(-0.20814638 0.064377227 -2.7840723e-21)
(-0.047772096 0.10458235 -4.3935391e-19)
(0.25988538 0.10801551 7.2694828e-19)
(0.70055531 0.11258647 2.8066856e-19)
(1.2838227 0.072174438 -3.3983596e-19)
(1.8447596 -0.029250131 3.9250174e-19)
(2.1914451 -0.12475895 -3.4888835e-22)
(2.2344263 -0.17156495 -2.2906097e-19)
(2.1376435 -0.094920282 -2.4449354e-19)
(2.1623249 0.062644128 3.8611916e-19)
(2.4969857 0.11350658 -7.2339693e-20)
(2.938574 0.12387995 3.7263171e-36)
(3.3124219 0.082475792 3.5099116e-19)
(3.5495507 0.12008202 -1.8626683e-19)
(3.6210543 0.012148381 -3.7647514e-19)
(3.5914931 0.18463577 -1.974753e-19)
(3.6185757 0.16499293 -1.0295581e-19)
(3.727333 0.50422349 1.0845916e-19)
(4.0339349 0.7158558 -5.0963804e-19)
(4.1515297 2.3142423 -5.0087874e-19)
(5.7617487 3.6965911 -8.5352283e-19)
(6.5380724 2.7027258 3.0217209e-19)
(6.1099442 2.3570082 -1.9371499e-20)
(6.3566406 -0.32087043 1.2037062e-35)
(4.1116611 -2.9329606 8.7320379e-19)
(1.7657136 -5.3900306 -5.2115699e-19)
(-0.4244373 -5.4903666 -1.5754546e-20)
(-2.9391044 -3.415944 5.9680366e-19)
(-1.8046063 -5.1996873 -8.7800415e-19)
(-3.6719263 0.71011199 4.8148249e-35)
(-3.8757367 0.74266624 0)
(-4.044711 0.74255148 3.6008364e-19)
(-4.2302688 0.72660584 1.1448054e-20)
(-4.3856041 0.74619644 -6.4858987e-19)
(-4.518268 0.69264515 -3.2294428e-19)
(-4.6595079 0.64083855 -2.8275935e-21)
(-4.7968781 0.61533316 -2.8083882e-19)
(-4.9252387 0.56585345 2.7630061e-19)
(-5.0537274 0.50969652 2.6526006e-19)
(-5.1794183 0.46753588 -7.4116012e-23)
(-5.3005885 0.41051402 -2.4582358e-19)
(-5.418276 0.34837428 -1.1977298e-19)
(-5.5304242 0.29277019 -1.1123251e-19)
(-5.6399519 0.2360063 -2.6444786e-22)
(-5.7406449 0.17732275 -5.2843949e-20)
(-5.8292667 0.12708805 2.0324085e-19)
(-5.914 0.068493678 -1.9675843e-19)
(-5.9857724 0.017159857 4.8382103e-20)
(-6.0686482 -0.046206722 -3.7185178e-19)
(-6.1511533 -0.10308863 3.6087762e-19)
(-6.2166545 -0.14517459 5.3325552e-19)
(-6.296467 -0.20844935 -3.4349353e-19)
(-6.3828414 -0.26772562 -3.3421111e-19)
(-6.4626428 -0.29460277 3.2531533e-19)
(-6.5335347 -0.30828083 -5.2662147e-36)
(-6.5692134 -0.41476435 6.3667943e-19)
(-6.6388514 -0.46642813 -6.0472306e-19)
(-6.7168908 -0.4848333 5.9704397e-19)
(-6.7375774 -0.51271154 -5.9616907e-19)
(-6.771088 -0.62007295 2.8221496e-19)
(-6.8281386 -0.51152906 -1.3711886e-18)
(-6.8275414 -0.7608192 2.6527164e-19)
(-6.9213378 -0.68070148 1.0104275e-18)
(-6.9611614 -0.78885749 -9.7182524e-19)
(-7.0067047 -0.8230446 -4.6562104e-19)
(-7.0875018 -0.88437272 -1.3383513e-18)
(-7.1813033 -1.0719924 -1.6655179e-18)
(-7.817916 -0.91378622 -4.1012933e-19)
)
;
    }
    Outlet
    {
        type            calculated;
        value           uniform (0 0 0);
    }
}


// ************************************************************************* //
