/*--------------------------------*- C++ -*----------------------------------*\
| =========                 |                                                 |
| \\      /  F ield         | OpenFOAM: The Open Source CFD Toolbox           |
|  \\    /   O peration     | Version:  2506                                  |
|   \\  /    A nd           | Website:  www.openfoam.com                      |
|    \\/     M anipulation  |                                                 |
\*---------------------------------------------------------------------------*/
FoamFile
{
    version     2.0;
    format      ascii;
    arch        "LSB;label=32;scalar=64";
    class       volScalarField;
    location    "0.03";
    object      alphat;
}
// * * * * * * * * * * * * * * * * * * * * * * * * * * * * * * * * * * * * * //

dimensions      [1 -1 -1 0 0 0 0];

internalField   nonuniform List<scalar> 
13761
(
2.6461217e-06
2.6247706e-06
2.6259551e-06
2.6262777e-06
2.6252571e-06
2.6468043e-06
2.6679287e-06
2.6552057e-06
2.62642e-06
2.6253642e-06
2.6470319e-06
2.6685059e-06
2.6557063e-06
2.6173962e-06
2.5803371e-06
2.6265469e-06
2.6254519e-06
2.6472094e-06
2.6688554e-06
2.6562723e-06
2.617382e-06
2.5803895e-06
2.5621158e-06
2.552387e-06
2.6266876e-06
2.6255342e-06
2.647407e-06
2.6691536e-06
2.6568384e-06
2.6174673e-06
2.5806178e-06
2.5622693e-06
2.5520222e-06
2.5394487e-06
2.5082437e-06
2.6268219e-06
2.6256336e-06
2.6476175e-06
2.6694747e-06
2.6574373e-06
2.6175446e-06
2.5807223e-06
2.5625172e-06
2.5520642e-06
2.5380742e-06
2.508361e-06
2.4833245e-06
2.4570539e-06
2.6269657e-06
2.6257359e-06
2.6478333e-06
2.6697966e-06
2.6580653e-06
2.6177034e-06
2.5808572e-06
2.5626703e-06
2.552106e-06
2.5375243e-06
2.5085428e-06
2.4834018e-06
2.4571749e-06
2.4512908e-06
2.4616527e-06
2.6271034e-06
2.6258551e-06
2.648062e-06
2.6701237e-06
2.6587295e-06
2.6178998e-06
2.5809642e-06
2.5627703e-06
2.5521719e-06
2.5373102e-06
2.5088507e-06
2.483638e-06
2.4573751e-06
2.4514352e-06
2.4604109e-06
2.4741191e-06
2.3571521e-06
2.0286765e-06
2.6272407e-06
2.625981e-06
2.648298e-06
2.6704512e-06
2.6594294e-06
2.6181567e-06
2.5810825e-06
2.5628553e-06
2.5522442e-06
2.537316e-06
2.5091372e-06
2.4839132e-06
2.4575718e-06
2.4513976e-06
2.4597564e-06
2.4730685e-06
2.3636132e-06
2.0373339e-06
1.9720253e-06
2.7268944e-06
2.6273732e-06
2.6261242e-06
2.6485422e-06
2.6707732e-06
2.6601689e-06
2.6184662e-06
2.581193e-06
2.5629226e-06
2.5523225e-06
2.5373473e-06
2.509455e-06
2.4841814e-06
2.4577393e-06
2.451265e-06
2.4594405e-06
2.4718975e-06
2.3690745e-06
2.0473481e-06
1.9576087e-06
2.6937805e-06
3.9152035e-06
4.6269726e-06
2.6275061e-06
2.6262764e-06
2.6487919e-06
2.6710869e-06
2.6609482e-06
2.6188392e-06
2.5813149e-06
2.5629942e-06
2.5524129e-06
2.5374516e-06
2.5097924e-06
2.4844858e-06
2.4579411e-06
2.4510941e-06
2.4594257e-06
2.4710659e-06
2.3733987e-06
2.0591295e-06
1.946679e-06
2.6638001e-06
3.9173648e-06
4.6595077e-06
4.632867e-06
4.7115061e-06
2.6276285e-06
2.6264426e-06
2.6490508e-06
2.6713819e-06
2.6617675e-06
2.6192671e-06
2.5814428e-06
2.5630585e-06
2.5525104e-06
2.5375464e-06
2.5101593e-06
2.4848076e-06
2.4581368e-06
2.4508994e-06
2.4596089e-06
2.4706905e-06
2.3770017e-06
2.0727244e-06
1.9391458e-06
2.6344241e-06
3.9179137e-06
4.683554e-06
4.6900926e-06
4.8053606e-06
5.9935144e-06
2.351322e-05
2.6277394e-06
2.6266167e-06
2.6493217e-06
2.6716549e-06
2.6626225e-06
2.619752e-06
2.581586e-06
2.5631329e-06
2.5526131e-06
2.5376957e-06
2.5105519e-06
2.4851626e-06
2.4583772e-06
2.4506445e-06
2.4599836e-06
2.4705984e-06
2.3809323e-06
2.0882691e-06
1.9353877e-06
2.606039e-06
3.9072568e-06
4.6947016e-06
4.7442037e-06
4.9030544e-06
5.9502338e-06
2.226077e-05
8.5494332e-05
0.00019390594
0.00035415308
2.6278346e-06
2.6268005e-06
2.6496129e-06
2.6719033e-06
2.6635064e-06
2.6202762e-06
2.5817476e-06
2.5632074e-06
2.552719e-06
2.5378275e-06
2.5109818e-06
2.4855384e-06
2.4586308e-06
2.4503668e-06
2.4604405e-06
2.4706143e-06
2.3864332e-06
2.1059508e-06
1.9360526e-06
2.5788928e-06
3.8822617e-06
4.6891493e-06
4.7911047e-06
4.999983e-06
5.928709e-06
2.0973503e-05
8.222729e-05
0.00018831653
0.00034582086
0.0004279479
0.0025060613
2.6279172e-06
2.6269941e-06
2.6499331e-06
2.6721399e-06
2.6644108e-06
2.6208385e-06
2.5819291e-06
2.5632848e-06
2.5528264e-06
2.5379923e-06
2.5114453e-06
2.4859465e-06
2.4589341e-06
2.4500487e-06
2.4609593e-06
2.4705079e-06
2.39359e-06
2.1261491e-06
1.941788e-06
2.5530398e-06
3.8410529e-06
4.6634131e-06
4.8299915e-06
5.0866704e-06
5.9213597e-06
1.9691702e-05
7.8766324e-05
0.00018254271
0.00033705088
0.00041948035
0.0020837076
0.0063279487
0.0071843334
0.006930793
2.6279877e-06
2.6272007e-06
2.650291e-06
2.6724303e-06
2.665322e-06
2.6214244e-06
2.5821384e-06
2.5633581e-06
2.5529314e-06
2.5381441e-06
2.511962e-06
2.4863781e-06
2.4592646e-06
2.449716e-06
2.4614248e-06
2.4702862e-06
2.4014865e-06
2.1492792e-06
1.9532988e-06
2.5284699e-06
3.7836096e-06
4.6137241e-06
4.8541807e-06
5.1430053e-06
5.9228453e-06
1.8416982e-05
7.5089052e-05
0.00017656565
0.00032774327
0.00041393962
0.0016722797
0.006033874
0.0071010196
0.0068410606
0.004679468
0.00055878113
9.5948919e-05
2.6280509e-06
2.6274258e-06
2.6506812e-06
2.6728311e-06
2.6662313e-06
2.6220385e-06
2.5823786e-06
2.5634142e-06
2.5530354e-06
2.5383244e-06
2.5125213e-06
2.4868384e-06
2.459645e-06
2.4493527e-06
2.4616299e-06
2.4698936e-06
2.4094658e-06
2.1756451e-06
1.9710877e-06
2.5055065e-06
3.7091294e-06
4.537472e-06
4.8559361e-06
5.1777876e-06
5.9234898e-06
1.7152235e-05
7.1184887e-05
0.00017040726
0.00031782965
0.0004107474
0.0012978943
0.0057082236
0.0070050712
0.0067451572
0.0047263021
0.00056582915
0.00010786403
2.6281044e-06
2.6276719e-06
2.6511262e-06
2.6733491e-06
2.667117e-06
2.6226813e-06
2.5826649e-06
2.563459e-06
2.5531305e-06
2.538529e-06
2.5131414e-06
2.4873277e-06
2.4600675e-06
2.4489765e-06
2.4614902e-06
2.4696898e-06
2.4174645e-06
2.2052215e-06
1.995589e-06
2.4847259e-06
3.6159532e-06
4.4331704e-06
4.8294564e-06
5.1965717e-06
5.9117591e-06
1.589503e-05
6.7091786e-05
0.00016402252
0.000307282
0.00040931339
0.00098616186
0.0053501484
0.0068948715
0.0066411659
0.0047705419
0.00057458225
0.00011972244
2.6281442e-06
2.6279371e-06
2.6516711e-06
2.6739897e-06
2.6679489e-06
2.6233713e-06
2.5830054e-06
2.5634809e-06
2.5532332e-06
2.5387687e-06
2.5138108e-06
2.4878449e-06
2.460546e-06
2.4485858e-06
2.4611812e-06
2.4695693e-06
2.4255715e-06
2.2377928e-06
2.0268268e-06
2.4669423e-06
3.5028086e-06
4.3019869e-06
4.7729464e-06
5.201671e-06
5.8777011e-06
1.4648579e-05
6.2818212e-05
0.00015735276
0.00029609457
0.00040891492
0.0007527328
0.0049601828
0.0067684964
0.0065265057
0.0048073142
0.0005818096
0.00013385137
2.6281588e-06
2.6282069e-06
2.6522518e-06
2.6747508e-06
2.6686865e-06
2.624135e-06
2.5834209e-06
2.5635047e-06
2.5533363e-06
2.539056e-06
2.5145413e-06
2.4883988e-06
2.4610901e-06
2.4481964e-06
2.4606318e-06
2.4696724e-06
2.4341478e-06
2.272407e-06
2.0644031e-06
2.4525638e-06
3.3724889e-06
4.1468916e-06
4.6889298e-06
5.1916682e-06
5.8159851e-06
1.3417927e-05
5.8364667e-05
0.00015034821
0.00028430459
0.00040868609
0.00059758278
0.0045404644
0.0066237027
0.0063983795
0.0048334453
0.00058613658
0.00014998443
2.6281367e-06
2.6284638e-06
2.6528577e-06
2.6757279e-06
2.6692951e-06
2.6250027e-06
2.5839175e-06
2.563529e-06
2.5534565e-06
2.5393836e-06
2.5153251e-06
2.4889809e-06
2.4617102e-06
2.4477992e-06
2.4598681e-06
2.4697343e-06
2.4435272e-06
2.3085849e-06
2.107412e-06
2.4417094e-06
3.2328529e-06
3.9726001e-06
4.5826001e-06
5.1628922e-06
5.7265816e-06
1.2210641e-05
5.3736893e-05
0.00014297286
0.00027189251
0.00040744406
0.00050676249
0.0040955529
0.0064579563
0.0062537252
0.0048432403
0.00058795901
0.00016974276
2.6280688e-06
2.6286921e-06
2.6534788e-06
2.6769176e-06
2.6697647e-06
2.6259933e-06
2.584503e-06
2.5635825e-06
2.553587e-06
2.5397695e-06
2.5161655e-06
2.4895982e-06
2.4624255e-06
2.4474036e-06
2.4589423e-06
2.4692509e-06
2.4537366e-06
2.3460895e-06
2.154834e-06
2.4345412e-06
3.0940591e-06
3.7851198e-06
4.4587829e-06
5.1111957e-06
5.6119578e-06
1.1037425e-05
4.8946338e-05
0.00013515938
0.00025857804
0.00040411022
0.00046103703
0.0036331491
0.0062683601
0.0060892512
0.0048311866
0.00058818883
0.00019305834
2.6279536e-06
2.6288907e-06
2.6540688e-06
2.6780773e-06
2.6701353e-06
2.6271068e-06
2.5851576e-06
2.5636598e-06
2.5537442e-06
2.5402138e-06
2.5170353e-06
2.4902304e-06
2.4632462e-06
2.4469855e-06
2.4578835e-06
2.4681955e-06
2.4640512e-06
2.383441e-06
2.2058626e-06
2.4313459e-06
2.9640779e-06
3.5920112e-06
4.3195836e-06
5.0338866e-06
5.4733924e-06
9.9117348e-06
4.4018069e-05
0.00012674297
0.00024435274
0.00039745919
0.00044333004
0.0031651265
0.0060517068
0.0059015357
0.0047902066
0.00058684528
0.00022046246
2.6277946e-06
2.629067e-06
2.6545843e-06
2.6789724e-06
2.670473e-06
2.6283185e-06
2.5858612e-06
2.5637722e-06
2.5539334e-06
2.5407092e-06
2.5178928e-06
2.4908803e-06
2.464194e-06
2.4465711e-06
2.4566903e-06
2.4664298e-06
2.4730411e-06
2.41826e-06
2.2591729e-06
2.4321471e-06
2.8479485e-06
3.4008964e-06
4.1650389e-06
4.9291207e-06
5.3092785e-06
8.8474812e-06
3.8991644e-05
0.0001175386
0.00022934185
0.00038653563
0.00044096277
0.0027077131
0.0058044686
0.0056870637
0.0047136301
0.00058567746
0.00025147617
2.6275955e-06
2.6292432e-06
2.6550112e-06
2.6795987e-06
2.6707942e-06
2.6295846e-06
2.5865797e-06
2.5638963e-06
2.5541585e-06
2.5411805e-06
2.5187156e-06
2.4915569e-06
2.465273e-06
2.4461218e-06
2.4554085e-06
2.4635231e-06
2.4797502e-06
2.4492305e-06
2.3116173e-06
2.4363601e-06
2.7483876e-06
3.217256e-06
3.995697e-06
4.7950939e-06
5.1161345e-06
7.8556786e-06
3.3920581e-05
0.0001073707
0.00021370438
0.0003710968
0.00044500148
0.0022801246
0.005522736
0.0054422114
0.00459458
0.0005843819
0.00028561949
2.6273554e-06
2.6294475e-06
2.6553398e-06
2.6796078e-06
2.671062e-06
2.6308471e-06
2.5872995e-06
2.5640208e-06
2.5543989e-06
2.5415449e-06
2.5195342e-06
2.4922667e-06
2.4664892e-06
2.4456474e-06
2.4541581e-06
2.4601264e-06
2.4839774e-06
2.4745545e-06
2.3599546e-06
2.4428892e-06
2.6653488e-06
3.04401e-06
3.8151493e-06
4.6301494e-06
4.8909964e-06
6.9433737e-06
2.8878706e-05
9.6134445e-05
0.00019759973
0.00035163362
0.00044901175
0.0019006514
0.0052022881
0.0051633372
0.00442669
0.00058483712
0.00032213722
2.6270748e-06
2.6297041e-06
2.6555471e-06
2.6791296e-06
2.6711047e-06
2.6320569e-06
2.588012e-06
2.5641219e-06
2.5546304e-06
2.5417678e-06
2.5203765e-06
2.4931444e-06
2.4678085e-06
2.4451486e-06
2.4530816e-06
2.4573501e-06
2.4860242e-06
2.4935536e-06
2.4009153e-06
2.4502046e-06
2.596187e-06
2.8843094e-06
3.6299204e-06
4.4338432e-06
4.6333169e-06
6.1148165e-06
2.3952852e-05
8.3985632e-05
0.00018096953
0.00032869193
0.00044900208
0.00157996
0.0048385715
0.0048469004
0.0042060188
0.0005871236
0.00036023003
2.6267282e-06
2.6300005e-06
2.6555968e-06
2.6783759e-06
2.6710487e-06
2.6332127e-06
2.5887525e-06
2.5642148e-06
2.5548452e-06
2.5418979e-06
2.5212595e-06
2.4942766e-06
2.4692014e-06
2.444674e-06
2.4520757e-06
2.454924e-06
2.4859941e-06
2.5068196e-06
2.4315284e-06
2.456938e-06
2.538438e-06
2.7430904e-06
3.4476816e-06
4.2085496e-06
4.3463471e-06
5.3749886e-06
1.9272867e-05
7.1320983e-05
0.00016340118
0.00030318171
0.00044330504
0.0013155244
0.0044266974
0.0044896052
0.0039301583
0.00059251035
0.00039943439
2.6263057e-06
2.6302751e-06
2.655483e-06
2.6773033e-06
2.6709356e-06
2.6342645e-06
2.5895639e-06
2.564307e-06
2.5550431e-06
2.5420292e-06
2.5222222e-06
2.4957632e-06
2.4706083e-06
2.4441919e-06
2.451118e-06
2.4523914e-06
2.4843391e-06
2.5214982e-06
2.4514696e-06
2.462433e-06
2.4916699e-06
2.6255723e-06
3.2759332e-06
3.9614707e-06
4.0387438e-06
4.7310994e-06
1.5020272e-05
5.853402e-05
0.00014475284
0.00027571908
0.00043045819
0.0010931441
0.0039635595
0.0040888445
0.0036025956
0.00060127244
0.00043923964
2.6258118e-06
2.6304642e-06
2.6551496e-06
2.6759755e-06
2.6707312e-06
2.6351209e-06
2.5904676e-06
2.5644183e-06
2.555196e-06
2.5420055e-06
2.5233151e-06
2.4977308e-06
2.4719757e-06
2.4437356e-06
2.450336e-06
2.4497288e-06
2.4807768e-06
2.5358418e-06
2.4661665e-06
2.466984e-06
2.4562611e-06
2.5361511e-06
3.1222759e-06
3.7053089e-06
3.725712e-06
4.1899695e-06
1.1371612e-05
4.6150608e-05
0.00012487491
0.00024692375
0.00040989898
0.00089623822
0.0034469477
0.0036432134
0.0032300728
0.00061448621
0.00047960873
2.6252736e-06
2.6305264e-06
2.6545706e-06
2.674456e-06
2.6704784e-06
2.6361046e-06
2.591442e-06
2.5645514e-06
2.5552903e-06
2.542049e-06
2.5245797e-06
2.5003072e-06
2.4732354e-06
2.4433458e-06
2.4497157e-06
2.4472046e-06
2.4757405e-06
2.5479162e-06
2.4771855e-06
2.4709348e-06
2.4305491e-06
2.4780742e-06
2.9935094e-06
3.4552075e-06
3.4278275e-06
3.7537459e-06
8.4433365e-06
3.4786499e-05
0.00010404789
0.00021655161
0.00038253002
0.00071976903
0.002877081
0.0031536524
0.0028257622
0.00063237224
0.00052030736
2.6247627e-06
2.6304383e-06
2.6538163e-06
2.6728128e-06
2.6702467e-06
2.6374908e-06
2.5924208e-06
2.5647195e-06
2.5553356e-06
2.5424288e-06
2.5261997e-06
2.5036011e-06
2.4743564e-06
2.4430428e-06
2.4491443e-06
2.445231e-06
2.4701374e-06
2.5567856e-06
2.4843032e-06
2.4729613e-06
2.4124458e-06
2.4508396e-06
2.8921453e-06
3.2235982e-06
3.1654347e-06
3.4159333e-06
6.2552131e-06
2.497272e-05
8.2832291e-05
0.00018546774
0.00034898802
0.00057803249
0.0022607858
0.0026253742
0.0024054681
0.00065503045
0.000561009
2.624364e-06
2.6302052e-06
2.6529329e-06
2.6711156e-06
2.6700133e-06
2.6393489e-06
2.5932873e-06
2.5649391e-06
2.5553848e-06
2.5431355e-06
2.5283126e-06
2.5075691e-06
2.4753737e-06
2.4428088e-06
2.448559e-06
2.4439836e-06
2.4642111e-06
2.5603485e-06
2.4894706e-06
2.4738884e-06
2.4038966e-06
2.4485697e-06
2.8136423e-06
3.017401e-06
2.9513238e-06
3.161178e-06
4.7344367e-06
1.7062638e-05
6.2354886e-05
0.00015468955
0.00031100851
0.00048797733
0.0016216852
0.0020715612
0.0019838634
0.00068186699
0.00060184153
2.6240781e-06
2.6298413e-06
2.6518845e-06
2.6694384e-06
2.6697754e-06
2.6413659e-06
2.5939062e-06
2.5652591e-06
2.5555238e-06
2.543982e-06
2.5309285e-06
2.5119161e-06
2.4764081e-06
2.4427033e-06
2.4479282e-06
2.443465e-06
2.4578289e-06
2.5598346e-06
2.4941318e-06
2.4752746e-06
2.4019559e-06
2.4615573e-06
2.7495517e-06
2.8397131e-06
2.7875438e-06
2.9694887e-06
3.7516998e-06
1.1160357e-05
4.4234597e-05
0.00012424739
0.00026915285
0.00044373211
0.001027971
0.0015212337
0.0015745583
0.00071172023
0.00064191734
2.6238093e-06
2.6293704e-06
2.6506422e-06
2.6678139e-06
2.6697412e-06
2.6432956e-06
2.5942684e-06
2.5657008e-06
2.5557932e-06
2.5450488e-06
2.5338149e-06
2.5160328e-06
2.4776007e-06
2.4427404e-06
2.447251e-06
2.4435418e-06
2.4502055e-06
2.5564686e-06
2.4964964e-06
2.4756018e-06
2.3978546e-06
2.4798031e-06
2.6942978e-06
2.6930011e-06
2.6681147e-06
2.8223785e-06
3.1613377e-06
7.1566501e-06
2.9446611e-05
9.5146635e-05
0.00022559267
0.0004196974
0.00062735698
0.0010378064
0.0011994791
0.00074320488
0.00068042996
2.6234323e-06
2.6288141e-06
2.6491722e-06
2.6662461e-06
2.6700816e-06
2.6449723e-06
2.5945766e-06
2.5662267e-06
2.5561607e-06
2.5457821e-06
2.5366036e-06
2.5193431e-06
2.4790596e-06
2.4429774e-06
2.4465302e-06
2.4443545e-06
2.4399851e-06
2.5513825e-06
2.4966607e-06
2.4719605e-06
2.4009598e-06
2.4961649e-06
2.6441265e-06
2.5807964e-06
2.5847323e-06
2.7077543e-06
2.8284206e-06
4.7136722e-06
1.8411776e-05
6.8518833e-05
0.00018052726
0.00038841069
0.00049283986
0.00073132928
0.00091899609
0.00077478107
0.00071678522
2.6229705e-06
2.6281825e-06
2.6473162e-06
2.6647779e-06
2.6707656e-06
2.6465717e-06
2.5950389e-06
2.5667779e-06
2.5564327e-06
2.5459284e-06
2.5390225e-06
2.5218281e-06
2.4808282e-06
2.4433983e-06
2.4456729e-06
2.4456292e-06
2.4278571e-06
2.5378397e-06
2.4949105e-06
2.461307e-06
2.4136507e-06
2.5069318e-06
2.5902506e-06
2.5025342e-06
2.5300016e-06
2.6208144e-06
2.6457445e-06
3.3746453e-06
1.0953587e-05
4.5606752e-05
0.00013649265
0.00033773714
0.0004948827
0.0006378344
0.0007975463
0.00080337067
0.00075021703
2.6226534e-06
2.6275565e-06
2.645053e-06
2.663373e-06
2.6716543e-06
2.6483399e-06
2.5957316e-06
2.5673257e-06
2.5565651e-06
2.5458887e-06
2.5411042e-06
2.5237026e-06
2.4829391e-06
2.4439133e-06
2.4445412e-06
2.447066e-06
2.4163171e-06
2.5181647e-06
2.4910852e-06
2.4449806e-06
2.4285533e-06
2.5117715e-06
2.5301228e-06
2.4514387e-06
2.4983887e-06
2.5597917e-06
2.5411977e-06
2.7127385e-06
6.4135604e-06
2.7988945e-05
9.6906232e-05
0.00027431484
0.00049482165
0.00064094676
0.00078313805
0.00082376549
0.00077968228
2.6226513e-06
2.6272121e-06
2.6424953e-06
2.6617819e-06
2.6724236e-06
2.6506723e-06
2.5966698e-06
2.5678404e-06
2.5566004e-06
2.5459331e-06
2.5429221e-06
2.5252291e-06
2.4854535e-06
2.4444794e-06
2.4431334e-06
2.4484142e-06
2.4081716e-06
2.4967708e-06
2.484636e-06
2.4316288e-06
2.4485772e-06
2.5090597e-06
2.4649984e-06
2.4175835e-06
2.4874686e-06
2.5225293e-06
2.4761293e-06
2.4219676e-06
3.9368778e-06
1.5968675e-05
6.4239147e-05
0.00020331979
0.00044808813
0.0006300865
0.00077675685
0.00083272832
0.00080351144
2.623051e-06
2.6277134e-06
2.6400289e-06
2.6598784e-06
2.6728782e-06
2.653252e-06
2.5978643e-06
2.5682896e-06
2.5565965e-06
2.546139e-06
2.5445254e-06
2.5269111e-06
2.4884181e-06
2.4452704e-06
2.4414554e-06
2.4493231e-06
2.4051955e-06
2.4857415e-06
2.477751e-06
2.4215651e-06
2.4724038e-06
2.4711439e-06
2.4001094e-06
2.3983871e-06
2.4950382e-06
2.501553e-06
2.4348064e-06
2.3166054e-06
2.7533317e-06
8.6748887e-06
3.9095199e-05
0.00013900016
0.00036879566
0.0005756854
0.00073874566
0.00082771356
0.00081917719
2.623916e-06
2.6288327e-06
2.6381138e-06
2.6577597e-06
2.6727124e-06
2.6555355e-06
2.5993173e-06
2.5686723e-06
2.5565688e-06
2.5464187e-06
2.5458511e-06
2.528984e-06
2.4918608e-06
2.44659e-06
2.4395904e-06
2.449859e-06
2.4077156e-06
2.485333e-06
2.4750653e-06
2.4085762e-06
2.4714259e-06
2.4268161e-06
2.3657232e-06
2.4100828e-06
2.5135073e-06
2.4864207e-06
2.4112265e-06
2.2946799e-06
2.2769033e-06
4.7710709e-06
2.1429227e-05
8.7906614e-05
0.00027241251
0.00048889263
0.00067051476
0.00080428812
0.00082295708
2.6248964e-06
2.6298822e-06
2.6369225e-06
2.655502e-06
2.672349e-06
2.6572947e-06
2.6009483e-06
2.5690384e-06
2.5565239e-06
2.5467041e-06
2.5467666e-06
2.5310968e-06
2.4958579e-06
2.4486282e-06
2.437696e-06
2.449475e-06
2.407763e-06
2.4911195e-06
2.4819813e-06
2.396626e-06
2.4555258e-06
2.4300429e-06
2.415853e-06
2.4644905e-06
2.5337604e-06
2.4727462e-06
2.3999109e-06
2.3054833e-06
2.1456852e-06
2.9435329e-06
1.0838191e-05
5.008414e-05
0.00017716934
0.0003823202
0.00057866428
0.00075586342
0.00080968568
2.6259352e-06
2.6308566e-06
2.6359626e-06
2.6529289e-06
2.6721143e-06
2.6588085e-06
2.6026105e-06
2.5694026e-06
2.5564839e-06
2.547022e-06
2.5472437e-06
2.5334425e-06
2.5004125e-06
2.4512304e-06
2.4358853e-06
2.448804e-06
2.3958254e-06
2.4730896e-06
2.4922096e-06
2.4032261e-06
2.4657109e-06
2.4728651e-06
2.4815076e-06
2.5287457e-06
2.5446221e-06
2.4636398e-06
2.3931639e-06
2.3266992e-06
2.1669354e-06
2.2157976e-06
5.4591183e-06
2.555748e-05
0.00010090114
0.00026863144
0.00046688547
0.00067572794
0.00077283275
2.6265743e-06
2.6314659e-06
2.6346943e-06
2.6494007e-06
2.6711e-06
2.6599281e-06
2.6041323e-06
2.5697668e-06
2.5564911e-06
2.5475221e-06
2.547802e-06
2.5370999e-06
2.5053065e-06
2.4541141e-06
2.4338128e-06
2.4492e-06
2.3851297e-06
2.4206899e-06
2.4644227e-06
2.4272725e-06
2.4935027e-06
2.5084618e-06
2.5271764e-06
2.5823039e-06
2.5465697e-06
2.457019e-06
2.3895168e-06
2.3463003e-06
2.2306923e-06
2.0265372e-06
3.1181792e-06
1.2041974e-05
5.1034817e-05
0.0001628081
0.0003395024
0.00056485149
0.00070484051
2.6265342e-06
2.6312991e-06
2.6330954e-06
2.6452437e-06
2.6681218e-06
2.6597182e-06
2.6052573e-06
2.5701226e-06
2.556507e-06
2.5486135e-06
2.5491677e-06
2.5426738e-06
2.5102271e-06
2.4570876e-06
2.431386e-06
2.4494813e-06
2.3885898e-06
2.3898471e-06
2.455794e-06
2.4495863e-06
2.5037453e-06
2.5165777e-06
2.5605183e-06
2.6231005e-06
2.5447023e-06
2.4531063e-06
2.3908971e-06
2.360453e-06
2.2800023e-06
2.0779565e-06
2.2450686e-06
5.6706871e-06
2.3166818e-05
8.1840938e-05
0.00021085248
0.00042329435
0.00059864547
2.6257235e-06
2.6302465e-06
2.6306093e-06
2.6410756e-06
2.6638871e-06
2.6576751e-06
2.6058975e-06
2.5704549e-06
2.5566489e-06
2.5506531e-06
2.5512637e-06
2.5471453e-06
2.5152377e-06
2.4603603e-06
2.428907e-06
2.4479655e-06
2.3978928e-06
2.3763904e-06
2.4757812e-06
2.4696898e-06
2.4892639e-06
2.5037741e-06
2.5680535e-06
2.6278264e-06
2.5365708e-06
2.4485861e-06
2.3943713e-06
2.3634154e-06
2.3015152e-06
2.1892389e-06
2.0117854e-06
3.1676069e-06
9.970272e-06
3.4372249e-05
0.00010402518
0.00026360057
0.00045640736
2.6237285e-06
2.6280005e-06
2.6272348e-06
2.6368734e-06
2.6590902e-06
2.6546273e-06
2.6063437e-06
2.5706826e-06
2.5570314e-06
2.5520388e-06
2.552721e-06
2.5485277e-06
2.5208032e-06
2.4646382e-06
2.4268384e-06
2.4452155e-06
2.4057521e-06
2.3458599e-06
2.4824345e-06
2.488562e-06
2.4897001e-06
2.5054457e-06
2.5698177e-06
2.6205732e-06
2.5274657e-06
2.4464392e-06
2.400643e-06
2.3636398e-06
2.3130847e-06
2.2614246e-06
2.039574e-06
2.2471857e-06
4.7524471e-06
1.3301402e-05
3.8893348e-05
0.00012216523
0.00028413594
2.6210103e-06
2.6247754e-06
2.6233481e-06
2.6324285e-06
2.6536466e-06
2.651043e-06
2.6069484e-06
2.5707938e-06
2.5577402e-06
2.5527249e-06
2.55394e-06
2.5482553e-06
2.5271903e-06
2.4705681e-06
2.4249378e-06
2.4419601e-06
2.4164293e-06
2.3102854e-06
2.4649737e-06
2.4978188e-06
2.4869512e-06
2.5070626e-06
2.5731017e-06
2.6191495e-06
2.5285065e-06
2.4547359e-06
2.4135318e-06
2.3716974e-06
2.3254617e-06
2.2846787e-06
2.1539251e-06
1.9899081e-06
2.8616665e-06
5.7462331e-06
1.2868892e-05
3.8526684e-05
0.00012271545
2.6180845e-06
2.6210895e-06
2.6195411e-06
2.6281277e-06
2.6477059e-06
2.6470933e-06
2.6078836e-06
2.5712863e-06
2.5586682e-06
2.5536858e-06
2.5550179e-06
2.5498274e-06
2.5341445e-06
2.4779369e-06
2.4231599e-06
2.4389191e-06
2.433605e-06
2.3006682e-06
2.4377038e-06
2.4845108e-06
2.4741763e-06
2.5041746e-06
2.5757886e-06
2.620124e-06
2.5334383e-06
2.4680599e-06
2.426738e-06
2.3792199e-06
2.3323326e-06
2.2907649e-06
2.2350259e-06
2.0135061e-06
2.1846016e-06
3.2585962e-06
5.4255895e-06
1.0572512e-05
3.108713e-05
2.6153694e-06
2.6176957e-06
2.6162119e-06
2.6243575e-06
2.6423379e-06
2.6436183e-06
2.6092001e-06
2.5714554e-06
2.5598859e-06
2.5550624e-06
2.555537e-06
2.5521694e-06
2.5411047e-06
2.4863143e-06
2.4215564e-06
2.4351881e-06
2.4527673e-06
2.3320014e-06
2.4271992e-06
2.4681547e-06
2.4741692e-06
2.507733e-06
2.5830143e-06
2.6193359e-06
2.5343877e-06
2.4768363e-06
2.4361822e-06
2.382644e-06
2.3347529e-06
2.3000746e-06
2.2689076e-06
2.1173126e-06
2.0099927e-06
2.3984143e-06
3.2852582e-06
4.6365414e-06
7.7952993e-06
2.6131266e-06
2.6149027e-06
2.6135473e-06
2.6213161e-06
2.6384887e-06
2.6414972e-06
2.6113515e-06
2.5706058e-06
2.5608856e-06
2.5554723e-06
2.5554572e-06
2.5548304e-06
2.5470265e-06
2.4956405e-06
2.4201659e-06
2.4271136e-06
2.4652009e-06
2.3774221e-06
2.4187411e-06
2.4647659e-06
2.4802659e-06
2.5171912e-06
2.5992753e-06
2.6147853e-06
2.5339218e-06
2.4849203e-06
2.4473184e-06
2.3916099e-06
2.3438924e-06
2.3158854e-06
2.2822853e-06
2.1970176e-06
2.0410148e-06
2.1403758e-06
2.4782089e-06
2.9178601e-06
3.9506328e-06
2.6113932e-06
2.612622e-06
2.6113617e-06
2.618657e-06
2.6356148e-06
2.6403172e-06
2.6146408e-06
2.5717894e-06
2.5611166e-06
2.554267e-06
2.5546985e-06
2.5572038e-06
2.5517869e-06
2.506111e-06
2.4207898e-06
2.4182448e-06
2.4698443e-06
2.413726e-06
2.4037053e-06
2.4596492e-06
2.4855413e-06
2.5378394e-06
2.6112525e-06
2.6015631e-06
2.5354597e-06
2.4981754e-06
2.4652132e-06
2.4120939e-06
2.3617264e-06
2.3290044e-06
2.2979518e-06
2.249573e-06
2.1127534e-06
2.1432276e-06
2.2992369e-06
2.3033595e-06
2.6073378e-06
2.6099151e-06
2.6106836e-06
2.6093352e-06
2.6157382e-06
2.6322261e-06
2.6379871e-06
2.6175616e-06
2.5758331e-06
2.5614667e-06
2.5544372e-06
2.5537415e-06
2.5583911e-06
2.5562913e-06
2.5173576e-06
2.4251431e-06
2.4110515e-06
2.4669425e-06
2.4398423e-06
2.3954941e-06
2.4498525e-06
2.4951979e-06
2.5589187e-06
2.6101693e-06
2.5808559e-06
2.5367933e-06
2.5115451e-06
2.4827274e-06
2.4342451e-06
2.3821288e-06
2.3381813e-06
2.3132864e-06
2.2834229e-06
2.1930532e-06
2.1758423e-06
2.3329069e-06
2.2776186e-06
2.1684653e-06
2.6085095e-06
2.6089055e-06
2.6072867e-06
2.612676e-06
2.6277871e-06
2.6332395e-06
2.6187379e-06
2.5789083e-06
2.5597606e-06
2.554825e-06
2.5535253e-06
2.5587e-06
2.5605215e-06
2.5291242e-06
2.4334742e-06
2.4028742e-06
2.4530204e-06
2.4659213e-06
2.401287e-06
2.4411364e-06
2.5022925e-06
2.5828024e-06
2.5885317e-06
2.5613694e-06
2.5411609e-06
2.5232476e-06
2.4979901e-06
2.4552802e-06
2.405479e-06
2.3524906e-06
2.3243855e-06
2.3027841e-06
2.2486234e-06
2.1943919e-06
2.2851882e-06
2.3232146e-06
2.2230438e-06
2.6071612e-06
2.6072407e-06
2.6053997e-06
2.6097424e-06
2.622861e-06
2.6276842e-06
2.6159663e-06
2.5793998e-06
2.5583628e-06
2.5543213e-06
2.5524565e-06
2.5590226e-06
2.5636346e-06
2.5406212e-06
2.445855e-06
2.3934555e-06
2.4323241e-06
2.4774223e-06
2.4101949e-06
2.4249053e-06
2.5072075e-06
2.6118407e-06
2.561345e-06
2.542828e-06
2.5447203e-06
2.5329198e-06
2.5119452e-06
2.4811961e-06
2.4345244e-06
2.3781575e-06
2.3385318e-06
2.3143512e-06
2.2740295e-06
2.2358524e-06
2.2534221e-06
2.2735847e-06
2.2326074e-06
2.6058786e-06
2.6057185e-06
2.603747e-06
2.6070612e-06
2.618157e-06
2.6224028e-06
2.612099e-06
2.578135e-06
2.5591639e-06
2.5532828e-06
2.5517922e-06
2.5598865e-06
2.5652603e-06
2.5506184e-06
2.4669674e-06
2.3942166e-06
2.4166516e-06
2.4640848e-06
2.3981476e-06
2.4353205e-06
2.5314799e-06
2.6041928e-06
2.5432715e-06
2.5286014e-06
2.5402707e-06
2.5400606e-06
2.5228335e-06
2.5066971e-06
2.4701857e-06
2.4107736e-06
2.3548587e-06
2.3193367e-06
2.2939491e-06
2.2709939e-06
2.2693423e-06
2.2580563e-06
2.2412243e-06
2.6046789e-06
2.6044227e-06
2.6022723e-06
2.6048269e-06
2.6139839e-06
2.6174265e-06
2.6076172e-06
2.5772626e-06
2.5607919e-06
2.5530935e-06
2.553005e-06
2.5611217e-06
2.56595e-06
2.5584703e-06
2.488936e-06
2.4011873e-06
2.3982081e-06
2.4417375e-06
2.3796454e-06
2.4555655e-06
2.5708395e-06
2.5735451e-06
2.5324629e-06
2.5248753e-06
2.5323279e-06
2.5366555e-06
2.5289376e-06
2.5232043e-06
2.5026138e-06
2.4407177e-06
2.366551e-06
2.3218029e-06
2.3140662e-06
2.3037236e-06
2.300649e-06
2.2835126e-06
2.2748265e-06
2.6036721e-06
2.603394e-06
2.6010169e-06
2.6031277e-06
2.6104866e-06
2.6129692e-06
2.6032551e-06
2.5769039e-06
2.5617707e-06
2.5544448e-06
2.5544343e-06
2.5614488e-06
2.5659401e-06
2.563878e-06
2.5068182e-06
2.3927969e-06
2.3582079e-06
2.392448e-06
2.3776305e-06
2.4759686e-06
2.5847799e-06
2.5483988e-06
2.5242671e-06
2.5209625e-06
2.5254498e-06
2.5244732e-06
2.5232845e-06
2.5264018e-06
2.5196941e-06
2.4693182e-06
2.3839556e-06
2.332119e-06
2.3266693e-06
2.3273353e-06
2.3265716e-06
2.3242999e-06
2.3161348e-06
2.6028116e-06
2.6025389e-06
2.5999501e-06
2.6018348e-06
2.6077212e-06
2.6095246e-06
2.5998026e-06
2.5761822e-06
2.5617987e-06
2.5555836e-06
2.5542733e-06
2.5602201e-06
2.5655272e-06
2.5670292e-06
2.5284917e-06
2.3872747e-06
2.3090601e-06
2.3226937e-06
2.3777739e-06
2.490251e-06
2.5507325e-06
2.5205896e-06
2.5191204e-06
2.5229386e-06
2.5213427e-06
2.5143293e-06
2.5099409e-06
2.5130156e-06
2.5126931e-06
2.4875035e-06
2.4228546e-06
2.3633058e-06
2.3508617e-06
2.3538675e-06
2.3534755e-06
2.3586774e-06
2.3627212e-06
2.6019231e-06
2.6018103e-06
2.5990465e-06
2.6007534e-06
2.6054268e-06
2.6067584e-06
2.5969517e-06
2.5754508e-06
2.562244e-06
2.5562328e-06
2.5535281e-06
2.5592469e-06
2.5652419e-06
2.5680355e-06
2.549799e-06
2.4293308e-06
2.3148769e-06
2.2881443e-06
2.3842978e-06
2.4684317e-06
2.4995963e-06
2.4954478e-06
2.517432e-06
2.5308648e-06
2.5234334e-06
2.5099714e-06
2.5030049e-06
2.4974819e-06
2.4957375e-06
2.4940988e-06
2.4749506e-06
2.4330712e-06
2.4056675e-06
2.3954944e-06
2.3788066e-06
2.3718155e-06
2.3790631e-06
2.6009815e-06
2.6011155e-06
2.5982501e-06
2.5997168e-06
2.6032997e-06
2.6039638e-06
2.594321e-06
2.5750951e-06
2.562884e-06
2.5568949e-06
2.5536265e-06
2.5590151e-06
2.5651693e-06
2.5678474e-06
2.5609699e-06
2.4979707e-06
2.3952378e-06
2.3577007e-06
2.4137284e-06
2.4404034e-06
2.451514e-06
2.4707665e-06
2.5091584e-06
2.5335243e-06
2.5324384e-06
2.5155892e-06
2.5036842e-06
2.4997566e-06
2.501557e-06
2.5109998e-06
2.5234379e-06
2.5078068e-06
2.4671307e-06
2.4381545e-06
2.4211908e-06
2.4009966e-06
2.3886964e-06
2.6000464e-06
2.6003242e-06
2.5975914e-06
2.598812e-06
2.6014739e-06
2.6012326e-06
2.591932e-06
2.574596e-06
2.5632483e-06
2.5575433e-06
2.5538083e-06
2.5588639e-06
2.5647225e-06
2.5670372e-06
2.5633843e-06
2.5397881e-06
2.4803887e-06
2.4503158e-06
2.4426677e-06
2.4300522e-06
2.4258768e-06
2.4433585e-06
2.4852718e-06
2.5205048e-06
2.5371435e-06
2.5340968e-06
2.5255723e-06
2.5234634e-06
2.5255456e-06
2.5317698e-06
2.5421354e-06
2.545126e-06
2.5278454e-06
2.4969595e-06
2.4687178e-06
2.442401e-06
2.4158297e-06
2.5991537e-06
2.5994241e-06
2.5970521e-06
2.59804e-06
2.599969e-06
2.5988036e-06
2.5897766e-06
2.5740542e-06
2.5637984e-06
2.5581698e-06
2.5539513e-06
2.5582402e-06
2.5642408e-06
2.56636e-06
2.5625894e-06
2.5536418e-06
2.5241134e-06
2.4895823e-06
2.4588103e-06
2.4363755e-06
2.4205091e-06
2.4243011e-06
2.4505771e-06
2.4924478e-06
2.5249571e-06
2.5419136e-06
2.5456718e-06
2.5443886e-06
2.5432679e-06
2.5432221e-06
2.5453438e-06
2.5509087e-06
2.5543442e-06
2.5485853e-06
2.5283578e-06
2.5007725e-06
2.4647233e-06
2.5983739e-06
2.5985481e-06
2.5965644e-06
2.5973084e-06
2.5986913e-06
2.5965956e-06
2.5878057e-06
2.5734644e-06
2.5642571e-06
2.5587914e-06
2.5543256e-06
2.5579073e-06
2.5635766e-06
2.5663792e-06
2.5626535e-06
2.5549049e-06
2.5396055e-06
2.5128214e-06
2.4830665e-06
2.4506877e-06
2.4260987e-06
2.4186067e-06
2.4270301e-06
2.4553361e-06
2.4914837e-06
2.5249337e-06
2.5476024e-06
2.5553251e-06
2.5548945e-06
2.5517109e-06
2.5475388e-06
2.5445666e-06
2.5451892e-06
2.5515868e-06
2.5574992e-06
2.5556516e-06
2.5420832e-06
2.5977187e-06
2.5977392e-06
2.5960453e-06
2.5965288e-06
2.5975877e-06
2.5945889e-06
2.5858861e-06
2.5729243e-06
2.5645028e-06
2.5592506e-06
2.5544658e-06
2.5574573e-06
2.5630978e-06
2.5662188e-06
2.5639987e-06
2.5579132e-06
2.5484121e-06
2.5338336e-06
2.5105135e-06
2.4774401e-06