/*--------------------------------*- C++ -*----------------------------------*\
| =========                 |                                                 |
| \\      /  F ield         | OpenFOAM: The Open Source CFD Toolbox           |
|  \\    /   O peration     | Version:  2506                                  |
|   \\  /    A nd           | Website:  www.openfoam.com                      |
|    \\/     M anipulation  |                                                 |
\*---------------------------------------------------------------------------*/
FoamFile
{
    version     2.0;
    format      ascii;
    arch        "LSB;label=32;scalar=64";
    class       volScalarField;
    location    "0.0195";
    object      omega;
}
// * * * * * * * * * * * * * * * * * * * * * * * * * * * * * * * * * * * * * //

dimensions      [0 0 -1 0 0 0 0];

internalField   nonuniform List<scalar> 
13763
(
13841.952
13844.193
13845.785
13846.821
13847.482
13847.797
13848.073
13848.193
13848.383
13848.517
13848.068
13847.548
13846.813
13845.959
13845.328
13844.975
13844.602
13844.431
13844.344
13844.312
13844.127
13844.03
13843.881
13843.736
13843.835
13843.806
13843.474
13844.178
13842.253
13844.726
13840.717
13844.513
13841.777
13840.252
13843.168
13841.787
13845.017
13843.912
13845.923
13844.479
13845.204
13844.066
13844.064
13843.526
13843.217
13843.006
13843.013
13843.266
13842.57
13844.659
13846.239
13847.263
13847.906
13848.201
13848.452
13848.552
13848.716
13848.829
13848.373
13847.849
13847.117
13846.265
13845.631
13845.276
13844.896
13844.719
13844.621
13844.58
13844.387
13844.283
13844.132
13843.983
13844.083
13844.054
13843.732
13844.435
13842.534
13845
13841.026
13844.829
13842.085
13840.672
13843.521
13842.203
13845.416
13844.347
13846.345
13844.91
13845.619
13844.468
13844.436
13843.857
13843.491
13843.206
13843.113
13843.052
13843.418
13843.536
13842.679
13844.625
13846.192
13847.212
13847.846
13848.137
13848.377
13848.471
13848.623
13848.727
13848.277
13847.761
13847.044
13846.206
13845.583
13845.239
13844.867
13844.693
13844.595
13844.556
13844.364
13844.26
13844.109
13843.958
13844.058
13844.025
13843.705
13844.398
13842.507
13844.957
13841
13844.801
13842.043
13840.684
13843.498
13842.22
13845.436
13844.403
13846.414
13845.008
13845.731
13844.598
13844.574
13843.996
13843.614
13843.3
13843.155
13843.033
13843.225
13843.354
13843.797
13842.796
13844.605
13846.157
13847.173
13847.8
13848.087
13848.316
13848.404
13848.544
13848.638
13848.193
13847.684
13846.982
13846.161
13845.55
13845.219
13844.858
13844.69
13844.593
13844.558
13844.367
13844.264
13844.113
13843.96
13844.056
13844.02
13843.699
13844.38
13842.495
13844.927
13840.986
13844.779
13842.009
13840.69
13843.473
13842.228
13845.442
13844.441
13846.461
13845.084
13845.824
13844.716
13844.711
13844.152
13843.779
13843.464
13843.302
13843.147
13843.244
13843.39
13843.646
13843.83
13843.796
13842.925
13844.6
13846.133
13847.146
13847.768
13848.051
13848.271
13848.353
13848.48
13848.563
13848.123
13847.62
13846.935
13846.132
13845.537
13845.223
13844.876
13844.716
13844.623
13844.592
13844.405
13844.304
13844.149
13843.993
13844.083
13844.042
13843.715
13844.382
13842.497
13844.911
13840.981
13844.766
13841.981
13840.693
13843.447
13842.226
13845.434
13844.46
13846.483
13845.131
13845.884
13844.8
13844.815
13844.28
13843.928
13843.632
13843.48
13843.318
13843.386
13843.544
13843.729
13843.718
13843.698
13843.854
13843.788
13843.066
13844.611
13846.12
13847.13
13847.748
13848.028
13848.24
13848.319
13848.435
13848.507
13848.073
13847.577
13846.908
13846.127
13845.55
13845.257
13844.927
13844.777
13844.689
13844.664
13844.481
13844.38
13844.218
13844.058
13844.138
13844.091
13843.754
13844.403
13842.512
13844.909
13840.984
13844.76
13841.96
13840.692
13843.42
13842.214
13845.414
13844.458
13846.482
13845.147
13845.907
13844.84
13844.87
13844.355
13844.023
13843.75
13843.62
13843.468
13843.556
13843.707
13843.904
13843.833
13843.824
13843.789
13843.738
13843.766
13843.678
13843.222
13844.638
13846.12
13847.128
13847.744
13848.024
13848.23
13848.306
13848.413
13848.475
13848.048
13847.559
13846.909
13846.151
13845.594
13845.324
13845.013
13844.872
13844.789
13844.767
13844.586
13844.484
13844.308
13844.141
13844.208
13844.154
13843.805
13844.433
13842.531
13844.914
13840.989
13844.758
13841.942
13840.687
13843.389
13842.191
13845.383
13844.437
13846.458
13845.13
13845.893
13844.832
13844.869
13844.365
13844.045
13843.788
13843.676
13843.539
13843.667
13843.796
13844.043
13844.002
13843.987
13843.929
13843.882
13843.742
13843.667
13843.854
13843.917
13843.91
13843.401
13844.686
13846.137
13847.144
13847.759
13848.041
13848.244
13848.32
13848.42
13848.472
13848.051
13847.568
13846.935
13846.199
13845.661
13845.412
13845.121
13844.985
13844.903
13844.882
13844.699
13844.592
13844.398
13844.219
13844.273
13844.21
13843.85
13844.455
13842.54
13844.913
13840.984
13844.749
13841.916
13840.674
13843.347
13842.151
13845.332
13844.39
13846.404
13845.076
13845.834
13844.771
13844.806
13844.302
13843.985
13843.734
13843.632
13843.506
13843.673
13843.769
13844.065
13844.091
13844.051
13844.057
13843.993
13843.88
13843.802
13843.864
13843.937
13843.939
13843.883
13843.772
13843.603
13844.756
13846.172
13847.177
13847.794
13848.079
13848.28
13848.355
13848.449
13848.49
13848.073
13847.593
13846.971
13846.255
13845.733
13845.502
13845.226
13845.091
13845.006
13844.982
13844.794
13844.68
13844.464
13844.271
13844.311
13844.239
13843.868
13844.45
13842.521
13844.888
13840.953
13844.72
13841.866
13840.641
13843.279
13842.082
13845.25
13844.307
13846.31
13844.974
13845.721
13844.649
13844.675
13844.162
13843.839
13843.584
13843.481
13843.364
13843.559
13843.617
13843.943
13844.033
13843.956
13844.043
13843.946
13843.932
13843.828
13843.972
13844.034
13844.017
13843.922
13843.816
13843.825
13844.847
13846.222
13847.225
13847.843
13848.132
13848.329
13848.403
13848.489
13848.516
13848.098
13847.615
13846.999
13846.297
13845.785
13845.567
13845.303
13845.167
13845.074
13845.047
13844.851
13844.73
13844.49
13844.28
13844.307
13844.226
13843.846
13844.403
13842.46
13844.825
13840.882
13844.654
13841.779
13840.576
13843.173
13841.972
13845.125
13844.176
13846.163
13844.815
13845.546
13844.457
13844.469
13843.942
13843.607
13843.341
13843.231
13843.12
13843.33
13843.352
13843.685
13843.818
13843.704
13843.851
13843.717
13843.792
13843.653
13843.921
13843.951
13843.891
13843.943
13843.814
13844.054
13844.95
13846.28
13847.279
13847.897
13848.186
13848.38
13848.448
13848.525
13848.533
13848.111
13847.618
13846.999
13846.307
13845.799
13845.591
13845.337
13845.197
13845.097
13845.065
13844.862
13844.734
13844.469
13844.242
13844.257
13844.166
13843.777
13844.311
13842.354
13844.716
13840.764
13844.543
13841.644
13840.466
13843.02
13841.813
13844.947
13843.99
13845.959
13844.594
13845.307
13844.199
13844.194
13843.65
13843.301
13843.021
13842.899
13842.796
13843.008
13843.004
13843.322
13843.476
13843.333
13843.507
13843.343
13843.468
13843.296
13843.648
13843.642
13843.539
13843.719
13843.552
13844.276
13845.054
13846.335
13847.327
13847.944
13848.233
13848.42
13848.481
13848.546
13848.532
13848.1
13847.592
13846.964
13846.276
13845.769
13845.567
13845.322
13845.179
13845.071
13845.036
13844.827
13844.693
13844.405
13844.161
13844.164
13844.062
13843.662
13844.174
13842.202
13844.561
13840.599
13844.383
13841.459
13840.307
13842.82
13841.604
13844.72
13843.751
13845.702
13844.319
13845.015
13843.888
13843.868
13843.307
13842.944
13842.651
13842.519
13842.425
13842.631
13842.616
13842.904
13843.057
13842.901
13843.073
13842.895
13843.026
13842.835
13843.212
13843.182
13843.051
13843.277
13843.081
13844.48
13845.152
13846.381
13847.362
13847.976
13848.264
13848.443
13848.495
13848.549
13848.511
13848.066
13847.539
13846.895
13846.208
13845.699
13845.5
13845.264
13845.119
13845.005
13844.967
13844.754
13844.615
13844.305
13844.044
13844.033
13843.92
13843.509
13844.002
13842.014
13844.369
13840.394
13844.181
13841.233
13840.099
13842.582
13841.353
13844.453
13843.472
13845.407
13844.008
13844.69
13843.548
13843.516
13842.942
13842.571
13842.268
13842.128
13842.048
13842.243
13842.231
13842.484
13842.62
13842.467
13842.618
13842.441
13842.548
13842.356
13842.71
13842.675
13842.537
13842.74
13842.535
13844.661
13845.239
13846.413
13847.382
13847.993
13848.278
13848.451
13848.495
13848.535
13848.475
13848.016
13847.466
13846.803
13846.113
13845.599
13845.401
13845.172
13845.028
13844.907
13844.868
13844.651
13844.505
13844.176
13843.896
13843.873
13843.748
13843.324
13843.804
13841.801
13844.151
13840.161
13843.949
13840.978
13839.852
13842.319
13841.075
13844.163
13843.17
13845.095
13843.683
13844.357
13843.205
13843.168
13842.588
13842.214
13841.906
13841.763
13841.699
13841.88
13841.884
13842.101
13842.214
13842.075
13842.195
13842.031
13842.1
13841.92
13842.23
13842.203
13842.073
13842.22
13842.022
13844.82
13845.316
13846.433
13847.388
13847.996
13848.28
13848.447
13848.485
13848.513
13848.431
13847.958
13847.385
13846.698
13846.003
13845.481
13845.281
13845.058
13844.914
13844.787
13844.745
13844.522
13844.37
13844.023
13843.726
13843.689
13843.552
13843.117
13843.59
13841.573
13843.918
13839.914
13843.7
13840.709
13839.581
13842.049
13840.787
13843.869
13842.864
13844.786
13843.365
13844.039
13842.883
13842.847
13842.267
13841.894
13841.587
13841.444
13841.396
13841.564
13841.587
13841.773
13841.863
13841.743
13841.832
13841.685
13841.716
13841.552
13841.814
13841.803
13841.685
13841.774
13841.591
13844.962
13845.389
13846.446
13847.385
13847.991
13848.274
13848.437
13848.472
13848.488
13848.387
13847.901
13847.304
13846.59
13845.887
13845.352
13845.148
13844.926
13844.783
13844.648
13844.602
13844.373
13844.213
13843.851
13843.538
13843.489
13843.341
13842.896
13843.371
13841.343
13843.684
13839.664
13843.449
13840.44
13839.302
13841.784
13840.504
13843.586
13842.572
13844.495
13843.071
13843.749
13842.596
13842.566
13841.989
13841.621
13841.317
13841.175
13841.14
13841.298
13841.338
13841.5
13841.571
13841.466
13841.53
13841.398
13841.397
13841.247
13841.471
13841.474
13841.368
13841.409
13841.24
13845.093
13845.46
13846.456
13847.377
13847.98
13848.264
13848.424
13848.459
13848.463
13848.345
13847.847
13847.226
13846.484
13845.77
13845.219
13845.005
13844.782
13844.639
13844.495
13844.443
13844.206
13844.037
13843.665
13843.339
13843.281
13843.124
13842.672
13843.155
13841.118
13843.456
13839.423
13843.205
13840.181
13839.029
13841.534
13840.238
13843.324
13842.303
13844.233
13842.81
13843.496
13842.348
13842.325
13841.754
13841.39
13841.089
13840.949
13840.923
13841.073
13841.125
13841.268
13841.324
13841.231
13841.275
13841.154
13841.13
13840.99
13841.186
13841.199
13841.101
13841.109
13840.952
13845.215
13845.534
13846.467
13847.368
13847.968
13848.254
13848.412
13848.447
13848.441
13848.309
13847.799
13847.155
13846.383
13845.655
13845.085
13844.856
13844.627
13844.484
13844.329
13844.27
13844.025
13843.847
13843.472
13843.136
13843.072
13842.909
13842.451
13842.948
13840.905
13843.242
13839.196
13842.976
13839.938
13838.77
13841.305
13839.993
13843.087
13842.062
13844.002
13842.582
13843.278
13842.135
13842.119
13841.552
13841.192
13840.892
13840.752
13840.733
13840.876
13840.936
13841.063
13841.108
13841.022
13841.052
13840.937
13840.897
13840.764
13840.941
13840.962
13840.871
13840.856
13840.709
13845.327
13845.608
13846.48
13847.358
13847.956
13848.243
13848.402
13848.439
13848.424
13848.279
13847.759
13847.092
13846.289
13845.545
13844.952
13844.703
13844.464
13844.32
13844.155
13844.088
13843.835
13843.65
13843.277
13842.936
13842.869
13842.702
13842.24
13842.754
13840.706
13843.041
13838.983
13842.763
13839.714
13838.531
13841.096
13839.772
13842.876
13841.849
13843.799
13842.382
13843.088
13841.95
13841.939
13841.374
13841.015
13840.715
13840.574
13840.559
13840.696
13840.76
13840.875
13840.912
13840.83
13840.85
13840.741
13840.689
13840.563
13840.725
13840.755
13840.671
13840.641
13840.503
13845.42
13845.681
13846.493
13847.348
13847.943
13848.233
13848.392
13848.433
13848.41
13848.255
13847.726
13847.039
13846.204
13845.442
13844.824
13844.552
13844.299
13844.154
13843.977
13843.903
13843.642
13843.452
13843.088
13842.744
13842.676
13842.506
13842.041
13842.572
13840.519
13842.854
13838.785
13842.567
13839.506
13838.314
13840.907
13839.572
13842.688
13841.659
13843.62
13842.206
13842.918
13841.782
13841.774
13841.21
13840.85
13840.549
13840.405
13840.393
13840.526
13840.593
13840.698
13840.729
13840.652
13840.665
13840.562
13840.502
13840.384
13840.537
13840.576
13840.502
13840.46
13840.334
13845.482
13845.744
13846.505
13847.337
13847.929
13848.222
13848.383
13848.428
13848.4
13848.238
13847.702
13846.995
13846.131
13845.349
13844.704
13844.407
13844.136
13843.99
13843.803
13843.721
13843.455
13843.26
13842.908
13842.563
13842.494
13842.32
13841.852
13842.399
13840.341
13842.677
13838.598
13842.385
13839.314
13838.116
13840.735
13839.391
13842.519
13841.488
13843.458
13842.044
13842.761
13841.625
13841.618
13841.053
13840.692
13840.388
13840.243
13840.233
13840.363
13840.434
13840.532
13840.559
13840.489
13840.497
13840.403
13840.337
13840.23
13840.376
13840.426
13840.363
13840.312
13840.196
13845.498
13845.789
13846.512
13847.322
13847.911
13848.208
13848.371
13848.421
13848.39
13848.224
13847.684
13846.961
13846.07
13845.27
13844.597
13844.272
13843.981
13843.835
13843.637
13843.548
13843.275
13843.076
13842.738
13842.392
13842.32
13842.143
13841.672
13842.232
13840.17
13842.509
13838.422
13842.216
13839.136
13837.935
13840.577
13839.224
13842.363
13841.329
13843.306
13841.892
13842.611
13841.474
13841.467
13840.9
13840.538
13840.233
13840.088
13840.081
13840.209
13840.286
13840.379
13840.405
13840.345
13840.351
13840.267
13840.199
13840.103
13840.244
13840.305
13840.251
13840.193
13840.084
13845.458
13845.809
13846.51
13847.304
13847.89
13848.19
13848.355
13848.409
13848.377
13848.21
13847.668
13846.934
13846.019
13845.201
13844.502
13844.15
13843.838
13843.69
13843.482
13843.384
13843.106
13842.902
13842.576
13842.227
13842.152
13841.971
13841.498
13842.07
13840.005
13842.349
13838.255
13842.059
13838.969
13837.769
13840.43
13839.068
13842.216
13841.179
13843.161
13841.744
13842.465
13841.326
13841.319
13840.751
13840.389
13840.084
13839.94
13839.939
13840.068
13840.153
13840.245
13840.271
13840.222
13840.228
13840.156
13840.086
13840
13840.138
13840.207
13840.158
13840.091
13839.984
13845.36
13845.801
13846.501
13847.283
13847.866
13848.169
13848.335
13848.391
13848.36
13848.192
13847.651
13846.908
13845.974
13845.142
13844.419
13844.04
13843.706
13843.556
13843.336
13843.23
13842.944
13842.734
13842.418
13842.065
13841.987
13841.803
13841.328
13841.911
13839.845
13842.195
13838.096
13841.912
13838.811
13837.615
13840.29
13838.92
13842.076
13841.034
13843.019
13841.6
13842.321
13841.182
13841.175
13840.608
13840.247
13839.946
13839.805
13839.81
13839.942
13840.038
13840.131
13840.16
13840.122
13840.129
13840.066
13839.995
13839.916
13840.049
13840.12
13840.069
13839.994
13839.882
13845.213
13845.77
13846.486
13847.262
13847.843
13848.147
13848.313
13848.369
13848.337
13848.168
13847.628
13846.88
13845.931
13845.086
13844.341
13843.937
13843.583
13843.43
13843.197
13843.081
13842.786
13842.57
13842.26
13841.903
13841.824
13841.637
13841.164
13841.758
13839.691
13842.05
13837.946
13841.774
13838.66
13837.468
13840.156
13838.777
13841.939
13840.892
13842.881
13841.458
13842.182
13841.042
13841.038
13840.473
13840.117
13839.82
13839.685
13839.699
13839.836
13839.944
13840.039
13840.07
13840.042
13840.049
13839.993
13839.918
13839.839
13839.966
13840.033
13839.974
13839.889
13839.769
13845.034
13845.721
13846.469
13847.245
13847.823
13848.127
13848.291
13848.344
13848.31
13848.139
13847.599
13846.845
13845.883
13845.027
13844.263
13843.836
13843.464
13843.306
13843.06
13842.934
13842.629
13842.406
13842.102
13841.742
13841.662
13841.476
13841.005
13841.611
13839.544
13841.912
13837.801
13841.642
13838.513
13837.328
13840.026
13838.637
13841.805
13840.752
13842.745
13841.32
13842.048
13840.91
13840.911
13840.352
13840.001
13839.712
13839.584
13839.608
13839.75
13839.869
13839.967
13839.999
13839.976
13839.98
13839.924
13839.842
13839.758
13839.875
13839.934
13839.863
13839.77
13839.641
13844.848
13845.664
13846.452
13847.232
13847.809
13848.111
13848.271
13848.319
13848.28
13848.104
13847.562
13846.802
13845.829
13844.963
13844.181
13843.733
13843.343
13843.179
13842.921
13842.784
13842.47
13842.242
13841.943
13841.581
13841.503
13841.32
13840.854
13841.47
13839.404
13841.78
13837.662
13841.514
13838.368
13837.19
13839.898
13838.499
13841.674
13840.617
13842.615
13841.19
13841.923
13840.79
13840.798
13840.246
13839.904
13839.622
13839.503
13839.535
13839.682
13839.809
13839.906
13839.937
13839.914
13839.911
13839.848
13839.757
13839.662
13839.769
13839.818
13839.738
13839.637
13839.506
13844.674
13845.609
13846.438
13847.223
13847.798
13848.099
13848.254
13848.295
13848.25
13848.066
13847.519
13846.751
13845.766
13844.889
13844.091
13843.623
13843.217
13843.048
13842.776
13842.63
13842.31
13842.078
13841.785
13841.424
13841.351
13841.172
13840.711
13841.336
13839.269
13841.652
13837.525
13841.39
13838.225
13837.055
13839.772
13838.364
13841.547
13840.487
13842.493
13841.069
13841.812
13840.685
13840.702
13840.158
13839.825
13839.551
13839.439
13839.478
13839.626
13839.756
13839.849
13839.873
13839.844
13839.831
13839.757
13839.654
13839.549
13839.647
13839.689
13839.604
13839.501
13839.374
13844.528
13845.561
13846.425
13847.215
13847.788
13848.087
13848.238
13848.273
13848.22
13848.028
13847.474
13846.695
13845.696
13844.807
13843.992
13843.505
13843.086
13842.91
13842.626
13842.473
13842.148
13841.917
13841.631
13841.273
13841.206
13841.031
13840.574
13841.207
13839.137
13841.526
13837.39
13841.267
13838.082
13836.921
13839.651
13838.235
13841.429
13840.366
13842.382
13840.962
13841.715
13840.596
13840.623
13840.088
13839.763
13839.496
13839.388
13839.428
13839.574
13839.7
13839.783
13839.798
13839.757
13839.732
13839.646
13839.533
13839.421
13839.514
13839.556
13839.476
13839.374
13839.257
13844.414
13845.522
13846.413
13847.205
13847.777
13848.074
13848.22
13848.249
13848.189
13847.988
13847.426
13846.636
13845.621
13844.719
13843.886
13843.38
13842.949
13842.767
13842.473
13842.316
13841.99
13841.761
13841.484
13841.13
13841.069
13840.897
13840.442
13841.08
13839.007
13841.403
13837.256
13841.145
13837.942
13836.792
13839.536
13838.114
13841.32
13840.258
13842.287
13840.872
13841.636
13840.526
13840.562
13840.034
13839.714
13839.449
13839.34
13839.376
13839.514
13839.63
13839.701
13839.704
13839.65
13839.614
13839.52
13839.402
13839.29
13839.383
13839.433
13839.364
13839.268
13839.166
13844.333
13845.494
13846.4
13847.192
13847.761
13848.056
13848.199
13848.223
13848.157
13847.948
13847.379
13846.576
13845.545
13844.627
13843.775
13843.252
13842.81
13842.623
13842.32
13842.162
13841.837
13841.614
13841.346
13840.995
13840.938
13840.767
13840.312
13840.955
13838.879
13841.28
13837.124
13841.027
13837.806
13836.669
13839.43
13838.003
13841.226
13840.165
13842.207
13840.798
13841.575
13840.471
13840.515
13839.99
13839.67
13839.401
13839.285
13839.312
13839.439
13839.54
13839.597
13839.59
13839.527
13839.485
13839.39
13839.272
13839.168
13839.267
13839.33
13839.276
13839.188
13839.1
13844.279
13845.475
13846.388
13847.175
13847.739
13848.033
13848.172
13848.193
13848.121
13847.906
13847.33
13846.516
13845.468
13844.535
13843.664
13843.123
13842.671
13842.481
13842.172
13842.015
13841.693
13841.476
13841.216
13840.867
13840.812
13840.639
13840.183
13840.83
13838.751
13841.159
13836.995
13840.914
13837.678
13836.555
13839.336
13837.907
13841.147
13840.088
13842.145
13840.741
13841.527
13840.427
13840.474
13839.947
13839.621
13839.343
13839.214
13839.228
13839.342
13839.43
13839.476
13839.462
13839.397
13839.356
13839.268
13839.156
13839.066
13839.173
13839.251
13839.214
13839.133
13839.058
13844.243
13845.463
13846.375
13847.155
13847.714
13848.005
13848.141
13848.158
13848.082
13847.862
13847.282
13846.458
13845.394
13844.445
13843.556
13842.998
13842.538
13842.345
13842.031
13841.877
13841.559
13841.347
13841.093
13840.743
13840.688
13840.512
13840.055
13840.706
13838.626
13841.042
13836.872
13840.81
13837.56
13836.454
13839.257
13837.827
13841.085
13840.028
13842.098
13840.697
13841.489
13840.387
13840.43
13839.894
13839.557
13839.265
13839.122
13839.122
13839.225
13839.306
13839.346
13839.332
13839.274
13839.239
13839.164
13839.063
13838.988
13839.105
13839.198
13839.174
13839.1
13839.034
13844.219
13845.457
13846.364
13847.133
13847.685
13847.974
13848.106
13848.12
13848.04
13847.816
13847.234
13846.401
13845.324
13844.36
13843.454
13842.88
13842.414
13842.218
13841.901
13841.748
13841.434
13841.225
13840.975
13840.622
13840.565
13840.385
13839.926
13840.583
13838.505
13840.932
13836.759
13840.717
13837.454
13836.369
13839.193
13837.763
13841.039
13839.982
13842.062
13840.658
13841.45
13840.341
13840.374
13839.825
13839.472
13839.165
13839.008
13838.999
13839.097
13839.178
13839.221
13839.213
13839.168
13839.143
13839.085
13838.995
13838.935
13839.061
13839.165
13839.151
13839.081
13839.021
13844.201
13845.455
13846.353
13847.111
13847.654
13847.939
13848.068
13848.079
13847.995
13847.769
13847.185
13846.346
13845.257
13844.28
13843.358
13842.769
13842.298
13842.101
13841.779
13841.628
13841.315
13841.108
13840.858
13840.5
13840.441
13840.258
13839.799
13840.464
13838.391
13840.832
13836.657
13840.638
13837.363
13836.3
13839.146
13837.714
13841.005
13839.944
13842.028
13840.616
13841.402
13840.279
13840.298
13839.732
13839.364
13839.045
13838.88
13838.87
13838.969
13839.059
13839.112
13839.114
13839.085
13839.073
13839.03
13838.95
13838.902
13839.035
13839.147
13839.139
13839.072
13839.015
13844.184
13845.454
13846.345
13847.089
13847.623
13847.903
13848.027
13848.035
13847.948
13847.719
13847.136
13846.293
13845.194
13844.206
13843.269
13842.667
13842.191
13841.992
13841.665
13841.514
13841.2
13840.992
13840.741
13840.378
13840.317
13840.132
13839.676
13840.353
13838.288
13840.745
13836.57
13840.576
13837.287
13836.248
13839.112
13837.675
13840.976
13839.906
13841.989
13840.562
13841.336
13840.195
13840.199
13839.618
13839.24
13838.915
13838.75
13838.746
13838.854
13838.959
13839.025
13839.04
13839.027
13839.026
13838.996
13838.923
13838.883
13839.021
13839.138
13839.133
13839.068
13839.013
13844.167
13845.455
13846.339
13847.068
13847.591
13847.866
13847.985
13847.989
13847.899
13847.669
13847.086
13846.241
13845.133
13844.136
13843.186
13842.57
13842.091
13841.889
13841.555
13841.403
13841.086
13840.875
13840.623
13840.257
13840.196
13840.011
13839.561
13840.252
13838.198
13840.673
13836.498
13840.53
13837.224
13836.209
13839.085
13837.639
13840.945
13839.859
13841.934
13840.487
13841.246
13840.088
13840.08
13839.49
13839.109
13838.787
13838.63
13838.639
13838.761
13838.884
13838.963
13838.99
13838.99
13838.998
13838.976
13838.908
13838.874
13839.014
13839.134
13839.131
13839.066
13839.012
13844.15
13845.457
13846.334
13847.049
13847.559
13847.828
13847.941
13847.942
13847.848
13847.616
13847.036
13846.189
13845.074
13844.068
13843.106
13842.478
13841.994
13841.789
13841.447
13841.292
13840.97
13840.756
13840.504
13840.137
13840.079
13839.898
13839.458
13840.164
13838.124
13840.616
13836.441
13840.497
13837.17
13836.178
13839.059
13837.597
13840.9
13839.795
13841.856
13840.389
13841.135
13839.964
13839.95
13839.36
13838.985
13838.673
13838.531
13838.555
13838.692
13838.831
13838.922
13838.958
13838.968
13838.982
13838.966
13838.901
13838.869
13839.011
13839.132
13839.13
13839.065
13839.011
13844.14
13845.461
13846.332
13847.032
13847.529
13847.789
13847.895
13847.892
13847.794
13847.561
13846.984
13846.137
13845.016
13844.001
13843.027
13842.386
13841.899
13841.688
13841.337
13841.178
13840.852
13840.637
13840.387
13840.021
13839.971
13839.797
13839.368
13840.091
13838.064
13840.574
13836.396
13840.473
13837.118
13836.145
13839.024
13837.54
13840.836
13839.706
13841.756
13840.27
13841.009
13839.833
13839.823
13839.24
13838.878
13838.582
13838.455
13838.495
13838.646
13838.799
13838.898
13838.941
13838.957
13838.974
13838.961
13838.897
13838.867
13839.01
13839.132
13839.13
13839.065
13839.011
13844.157
13845.47
13846.334
13847.017
13847.499
13847.749
13847.848
13847.839
13847.738
13847.503
13846.929
13846.082
13844.956
13843.934
13842.947
13842.293
13841.802
13841.585
13841.224
13841.062
13840.733
13840.518
13840.274
13839.915
13839.875
13839.71
13839.294
13840.034
13838.019
13840.542
13836.357
13840.45
13837.059
13836.103
13838.972
13837.462
13840.748
13839.595
13841.637
13840.139
13840.879
13839.707
13839.709
13839.141
13838.795
13838.515
13838.403
13838.457
13838.618
13838.78
13838.886
13838.932
13838.951
13838.97
13838.959
13838.896
13838.867
13839.009
13839.132
13839.13
13839.065
13839.011
13844.248
13845.496
13846.341
13847.006
13847.471
13847.709
13847.799
13847.784
13847.678
13847.442
13846.872
13846.025
13844.893
13843.863
13842.865
13842.197
13841.701
13841.478
13841.107
13840.943
13840.614
13840.403
13840.17
13839.82
13839.794
13839.639
13839.236
13839.989
13837.983
13840.514
13836.315
13840.419
13836.984
13836.043
13838.896
13837.359
13840.639
13839.468
13841.51
13840.009
13840.76
13839.6
13839.618
13839.066
13838.736
13838.47
13838.371
13838.434
13838.602
13838.77
13838.879
13838.928
13838.949
13838.969
13838.958
13838.895
13838.866
13839.009
13839.132
13839.13
13839.065
13839.011
13844.527
13845.567
13846.362
13847
13847.445
13847.669
13847.747
13847.725
13847.614
13847.377
13846.81
13845.965
13844.827
13843.789
13842.778
13842.095
13841.595
13841.366
13840.988
13840.825
13840.499
13840.297
13840.077
13839.741
13839.729
13839.583
13839.19
13839.952
13837.949
13840.482
13836.262
13840.371
13836.886
13835.959
13838.797
13837.237
13840.517
13839.336
13841.388
13839.893
13840.661
13839.515
13839.552
13839.015
13838.698
13838.443
13838.352
13838.422
13838.593
13838.765
13838.876
13838.926
13838.948
13838.968
13838.957
13838.895
13838.866
13839.01
13839.132
13839.13
13839.065
13839.011
13845.233
13845.754
13846.415
13847.006
13847.423
13847.629
13847.694
13847.662
13847.546
13847.307
13846.744
13845.899
13844.757
13843.709
13842.686
13841.988
13841.485
13841.251
13840.869
13840.711
13840.391
13840.203
13839.999
13839.678
13839.68
13839.54
13839.153
13839.915
13837.909
13840.436
13836.188
13840.3
13836.761
13835.853
13838.68
13837.105
13840.395
13839.213
13841.282
13839.798
13840.586
13839.455
13839.508
13838.982
13838.676
13838.428
13838.342
13838.415
13838.589
13838.763
13838.875
13838.925
13838.948
13838.968
13838.957
13838.895
13838.866
13839.01
13839.132
13839.13
13839.065
13839.011
13846.838
13846.203
13846.543
13847.034
13847.408
13847.591
13847.638
13847.595
13847.472
13847.232
13846.671
13845.829
13844.681
13843.624
13842.589
13841.876
13841.372
13841.136
13840.753
13840.604
13840.296
13840.124
13839.938
13839.63
13839.643
13839.504
13839.116
13839.871
13837.853
13840.369
13836.09
13840.205
13836.614
13835.731
13838.558
13836.976
13840.286
13839.109
13841.2
13839.727
13840.535
13839.416
13839.481
13838.964
13838.663
13838.42
13838.337
13838.412
13838.587
13838.762
13838.875
13838.925
13838.948
13838.968
13838.957
13838.895
13838.867
13839.01
13839.132
13839.13
13839.065
13839.011
13850.2
13847.215
13846.844
13847.116
13847.411
13847.556
13847.58
13847.523
13847.391
13847.149
13846.593
13845.752
13844.6
13843.534
13842.487
13841.761
13841.259
13841.024
13840.644
13840.51
13840.217
13840.061
13839.892
13839.594
13839.612
13839.466
13839.07
13839.808
13837.775
13840.276
13835.967
13840.091
13836.455
13835.607
13838.443
13836.862
13840.198
13839.029
13841.143
13839.68
13840.503
13839.392
13839.466
13838.954
13838.657
13838.415
13838.334
13838.41
13838.586
13838.761
13838.874
13838.925
13838.948
13838.968
13838.957
13838.895
13838.867
13839.01
13839.133
13839.13
13839.065
13839.011
13856.751
13849.348
13847.517
13847.32
13847.452
13847.532
13847.522
13847.445
13847.303
13847.058
13846.507
13845.67
13844.515
13843.441
13842.384
13841.647
13841.15
13840.919
13840.547
13840.43
13840.153
13840.015
13839.857
13839.564
13839.579
13839.417
13839.005
13839.721
13837.672
13840.161
13835.828
13839.971
13836.296
13835.493
13838.346
13836.77
13840.136
13838.973
13841.108
13839.65
13840.486
13839.379
13839.459
13838.948
13838.653
13838.413
13838.332
13838.409
13838.585
13838.761
13838.874
13838.925
13838.948
13838.968
13838.957
13838.895
13838.867
13839.01
13839.133
13839.13
13839.065
13839.011
13868.707
13853.576
13848.948
13847.788
13847.583
13847.534
13847.468
13847.362
13847.206
13846.958
13846.413
13845.583
13844.427
13843.347
13842.283
13841.537
13841.05
13840.825
13840.465
13840.367
13840.105
13839.98
13839.828
13839.531
13839.534
13839.348
13838.915
13839.609
13837.548
13840.032
13835.685
13839.856
13836.151
13835.399
13838.274
13836.702
13840.097
13838.937
13841.088
13839.633
13840.477
13839.372
13839.455
13838.945
13838.651
13838.411
13838.331
13838.408
13838.584
13838.76
13838.874
13838.925
13838.948
13838.968
13838.957
13838.894
13838.867
13839.011
13839.133
13839.131
13839.065
13839.011
13889.281
13861.49
13851.839
13848.81
13847.916
13847.605
13847.431
13847.277
13847.102
13846.851
13846.313
13845.493
13844.339
13843.256
13842.188
13841.436
13840.962
13840.746
13840.398
13840.318
13840.067
13839.949
13839.793
13839.483
13839.468
13839.254
13838.802
13839.477
13837.414
13839.904
13835.552
13839.759
13836.028
13835.33
13838.226
13836.657
13840.076
13838.917
13841.08
13839.624
13840.473
13839.368
13839.454
13838.943
13838.65
13838.41
13838.33
13838.407
13838.583
13838.76
13838.874
13838.925
13838.948
13838.968
13838.957
13838.894
13838.867
13839.011
13839.134
13839.131
13839.065
13839.011
13922.884
13875.54
13857.387
13850.925
13848.682
13847.838
13847.447
13847.203
13846.994
13846.736
13846.209
13845.402
13844.255
13843.173
13842.105
13841.348
13840.89
13840.682
13840.344
13840.279
13840.031
13839.912
13839.744
13839.415
13839.377
13839.136
13838.671
13839.338