/*--------------------------------*- C++ -*----------------------------------*\
| =========                 |                                                 |
| \\      /  F ield         | OpenFOAM: The Open Source CFD Toolbox           |
|  \\    /   O peration     | Version:  2506                                  |
|   \\  /    A nd           | Website:  www.openfoam.com                      |
|    \\/     M anipulation  |                                                 |
\*---------------------------------------------------------------------------*/
FoamFile
{
    version     2.0;
    format      ascii;
    arch        "LSB;label=32;scalar=64";
    class       volScalarField;
    location    "0.0195";
    object      T;
}
// * * * * * * * * * * * * * * * * * * * * * * * * * * * * * * * * * * * * * //

dimensions      [0 0 0 1 0 0 0];

internalField   nonuniform List<scalar> 
13763
(
248.38292
246.45644
244.03321
243.5486
243.81902
244.34212
244.41969
243.75925
242.45189
242.3794
243.90799
245.0851
244.95261
244.04037
242.91947
242.95101
243.96642
245.0037
245.08738
244.66122
244.17388
244.24481
244.57037
244.85307
244.83963
244.79653
244.62175
244.60734
244.27043
244.53499
243.65013
245.15603
243.7887
247.20113
245.6889
247.74394
247.06045
248.1882
247.7093
247.73909
247.14238
246.69081
246.32305
246.07565
245.9282
245.8112
245.73509
245.66929
248.38355
246.46226
244.04237
243.55512
243.82746
244.35505
244.43605
243.78032
242.47128
242.39701
243.91556
245.09366
244.98032
244.07705
242.9435
242.97066
243.97461
245.0064
245.08903
244.66073
244.17208
244.24346
244.57037
244.85377
244.84027
244.7969
244.62183
244.60733
244.27015
244.53446
243.64939
245.15528
243.7879
247.20121
245.68896
247.74413
247.06156
248.18887
247.71022
247.73935
247.14246
246.69052
246.32286
246.07541
245.92801
245.81104
245.73496
245.66919
245.6103
245.57612
248.38456
246.46869
244.05189
243.56206
243.83631
244.36845
244.45326
243.80302
242.49192
242.4156
243.92338
245.10314
245.00758
244.11334
242.96816
242.99118
243.98336
245.00933
245.09079
244.66018
244.17014
244.242
244.57036
244.85451
244.84094
244.79728
244.62192
244.60732
244.26985
244.53389
243.64858
245.15451
243.78707
247.20138
245.68905
247.74431
247.0628
248.18954
247.7112
247.7396
247.14257
246.6902
246.32267
246.07515
245.92781
245.81087
245.73482
245.66908
245.6102
245.57604
245.56989
248.38574
246.47555
244.06186
243.56946
243.84558
244.38229
244.47138
243.82748
242.51394
242.43525
243.93144
245.11364
245.03428
244.14925
242.9935
243.01262
243.99272
245.01251
245.09268
244.65956
244.16804
244.24042
244.57032
244.85528
244.84164
244.79769
244.62202
244.60731
244.26953
244.53329
243.64773
245.1537
243.7862
247.2016
245.68915
247.74447
247.06415
248.19028
247.7123
247.73987
247.14271
246.68986
246.32248
246.07487
245.9276
245.81068
245.73468
245.66897
245.61009
245.57597
245.56982
245.56851
245.57421
248.387
246.48277
244.07237
243.57736
243.85525
244.39655
244.49051
243.85388
242.53746
242.45601
243.93973
245.1253
245.06098
244.18529
243.01974
243.03504
244.00273
245.01596
245.09469
244.65885
244.16577
244.23872
244.57026
244.85608
244.84237
244.79812
244.62213
244.6073
244.2692
244.53265
243.64684
245.15285
243.7853
247.20188
245.68931
247.74464
247.06562
248.19105
247.71343
247.74015
247.14286
246.68949
246.32229
246.07458
245.92737
245.81048
245.73452
245.66885
245.60998
245.5759
245.56975
245.56847
245.57417
245.60266
245.59654
248.38823
246.49037
244.08354
243.58582
243.86533
244.41119
244.51073
243.88237
242.56259
242.47799
243.94823
245.13833
245.08849
244.22209
243.04717
243.05856
244.01345
245.01969
245.09683
244.65804
244.16331
244.23687
244.57017
244.85692
244.84313
244.79857
244.62225
244.60729
244.26886
244.53199
243.64591
245.15193
243.78435
247.20212
245.68948
247.7448
247.06718
248.19189
247.71465
247.74047
247.14302
246.68911
246.32209
246.07427
245.92714
245.81026
245.73435
245.66873
245.60987
245.57582
245.56967
245.56843
245.57414
245.60263
245.59652
245.54093
245.5614
248.3894
246.49837
244.0955
243.59487
243.87577
244.42617
244.53215
243.91311
242.58948
242.50126
243.95694
245.15312
245.11736
244.26018
243.0761
243.08332
244.02491
245.02371
245.0991
244.65713
244.16066
244.23486
244.57003
244.85778
244.84392
244.79904
244.62237
244.60728
244.2685
244.53128
243.64494
245.15096
243.78339
247.2024
245.68969
247.74498
247.06883
248.19276
247.71591
247.74079
247.14317
246.68872
246.32188
246.07395
245.92689
245.81004
245.73418
245.6686
245.60975
245.57574
245.56959
245.56839
245.5741
245.6026
245.5965
245.54089
245.56137
245.80509
245.90693
245.64966
248.39052
246.50678
244.10838
243.60455
243.88652
244.44144
244.55494
243.94626
242.61827
242.52597
243.9658
245.17023
245.14782
244.2998
243.10707
243.10953
244.03718
245.02802
245.1015
244.65611
244.15779
244.23268
244.56985
244.85867
244.84474
244.79952
244.6225
244.60728
244.26813
244.53054
243.64395
245.14992
243.78238
247.20264
245.68989
247.74517
247.07057
248.19371
247.71725
247.74115
247.14332
246.68831
246.32165
246.07361
245.92663
245.80981
245.734
245.66846
245.60963
245.57565
245.56951
245.56834
245.57406
245.60257
245.59648
245.54084
245.56136
245.80513
245.90697
245.64957
245.31916
245.22541
248.39162
246.51562
244.12231
243.6149
243.89748
244.45693
244.57932
243.98199
242.64911
242.55217
243.97471
245.19039
245.17982
244.34147
243.14025
243.13738
244.05029
245.03262
245.10403
244.65497
244.15469
244.23031
244.56962
244.85959
244.84558
244.80001
244.62263
244.60727
244.26774
244.52975
243.64291
245.1488
243.78135
247.20289
245.69012
247.74539
247.07239
248.19469
247.71862
247.74152
247.14347
246.68789
246.3214
246.07326
245.92635
245.80956
245.73381
245.6683
245.6095
245.57555
245.56942
245.56829
245.57401
245.60254
245.59646
245.54078
245.56134
245.80518
245.907
245.64947
245.31907
245.22535
248.39274
246.52491
244.1374
243.62596
243.90855
244.4726
244.60557
244.0205
242.68214
242.57992
243.98355
245.21433
245.21322
244.38564
243.17591
243.16704
244.06431
245.03751
245.1067
244.65371
244.15135
244.22774
244.56933
244.86053
244.84644
244.80051
244.62275
244.60725
244.26734
244.52892
243.64183
245.14762
243.78027
247.20309
245.69029
247.74563
247.0743
248.19576
247.72007
247.74195
247.14361
246.68744
246.32114
246.07289
245.92607
245.8093
245.73361
245.66814
245.60937
245.57545
245.56933
245.56823
245.57396
245.60251
245.59643
245.54071
245.56132
245.80522
245.90702
245.64936
245.31898
245.22527
248.39392
246.53468
244.15374
243.63775
243.91959
244.48843
244.63401
244.06197
242.71753
242.60921
243.99206
245.24259
245.24784
244.43271
243.21431
243.19867
244.07926
245.04265
245.1095
244.65233
244.14777
244.22496
244.56897
244.8615
244.84732
244.801
244.62286
244.60722
244.26689
244.52804
243.64071
245.14636
243.77917
247.20331
245.6905
247.74591
247.0763
248.19688
247.72154
247.7424
247.14376
246.68698
246.32086
246.07251
245.92577
245.80903
245.7334
245.66796
245.60923
245.57535
245.56925
245.56816
245.5739
245.60248
245.5964
245.54065
245.5613
245.80527
245.90703
245.64924
245.31888
245.22519
248.39515
246.54497
244.17145
243.65033
243.93047
244.50448
244.66499
244.10656
242.75542
242.64012
244.00004
245.27473
245.2834
244.48303
243.2557
243.23244
244.09527
245.04808
245.11245
244.65081
244.14391
244.22196
244.56853
244.86249
244.84821
244.80147
244.62293
244.60718
244.26645
244.52711
243.63954
245.14501
243.77802
247.20347
245.69068
247.74621
247.0784
248.19808
247.72311
247.74295
247.14391
246.6865
246.32056
246.07212
245.92545
245.80875
245.73318
245.66777
245.60907
245.57523
245.56916
245.56807
245.57383
245.60245
245.59636
245.54058
245.56129
245.80533
245.90704
245.64912
245.31877
245.22511
248.39643
246.55586
244.19055
243.66372
243.94107
244.52089
244.69886
244.15443
242.796
242.67277
244.00728
245.3093
245.3196
244.53687
243.30027
243.26843
244.11234
245.05378
245.11558
244.64915
244.13979
244.2187
244.56802
244.86349
244.84911
244.80193
244.62295
244.60711
244.26596
244.52611
243.63832
245.14357
243.77684
247.20366
245.69092
247.74656
247.08055
248.19933
247.72471
247.74353
247.14406
246.68599
246.32024
246.0717
245.92512
245.80845
245.73295
245.66757
245.60892
245.57511
245.56907
245.56799
245.57377
245.60243
245.59633
245.5405
245.56128
245.80539
245.90705
245.649
245.31867
245.22503
248.39774
246.56742
244.21106
243.67795
243.95133
244.53791
244.73595
244.20574
242.83945
242.70743
244.01388
245.34405
245.35626
244.59435
243.34818
243.30672
244.13057
245.05985
245.11893
244.64736
244.13538
244.21521
244.56741
244.8645
244.85001
244.80235
244.62293
244.60699
244.26545
244.52506
243.63706
245.14204
243.7756
247.2038
245.69113
247.74694
247.08278
248.20068
247.72644
247.74423
247.14421
246.68547
246.3199
246.07127
245.92478
245.80813
245.73271
245.66735
245.60875
245.57498
245.56896
245.56789
245.57371
245.60241
245.59629
245.54042
245.56127
245.80546
245.90707
245.64888
245.31857
245.22493
248.39907
246.57973
244.23296
243.69303
243.96127
244.55588
244.7766
244.26066
242.88597
242.74434
244.0201
245.37671
245.39353
244.6554
243.39951
243.3473
244.14999
245.06627
245.12252
244.64543
244.13067
244.21144
244.5667
244.86552
244.85092
244.80276
244.62286
244.60681
244.26487
244.52393
243.63573
245.14039
243.77434
247.20401
245.6914
247.7474
247.08511
248.20206
247.72824
247.74495
247.14436
246.68492
246.31954
246.07083
245.92442
245.8078
245.73246
245.66711
245.60858
245.57484
245.56886
245.5678
245.57366
245.60239
245.59624
245.54034
245.56127
245.80552
245.90709
245.64875
245.31846
245.22483
248.40043
246.59286
244.25623
243.70895
243.971
244.57514
244.82113
244.31938
242.93582
242.78374
244.02656
245.40626
245.43204
244.71958
243.45431
243.39029
244.17082
245.07321
245.12643
244.64337
244.12566
244.20741
244.56589
244.86655
244.85182
244.80311
244.6227
244.60657
244.26425
244.52272
243.63437
245.13864
243.773
247.2041
245.69158
247.74789
247.08756
248.20354
247.73025
247.74577
247.14449
246.68435
246.31916
246.07036
245.92404
245.80746
245.73218
245.66686
245.60839
245.5747
245.56874
245.5677
245.57362
245.60237
245.59617
245.54024
245.56126
245.80559
245.90709
245.64861
245.31833
245.22473
248.40181
246.60684
244.28085
243.72562
243.9807
244.59607
244.8698
244.38205
242.98928
242.82567
244.03378
245.43333
245.47272
244.78608
243.51252
243.43572
244.19314
245.08063
245.13066
244.64114
244.12032
244.2031
244.56498
244.86758
244.85273
244.80343
244.62244
244.60623
244.26355
244.52142
243.63293
245.13676
243.77164
247.20417
245.69177
247.74847
247.09003
248.20509
247.73244
247.7466
247.14461
246.68377
246.31876
246.06988
245.92364
245.8071
245.7319
245.66661
245.6082
245.57455
245.56862
245.56761
245.57358
245.60234
245.59609
245.54013
245.56126
245.80565
245.90709
245.64847
245.31821
245.22462
248.40322
246.62173
244.30682
243.74293
243.99059
244.61899
244.92286
244.44876
243.04661
242.87032
244.04256
245.46011
245.51611
244.85424
243.57406
243.48372
244.2171
245.08876
245.13525
244.63878
244.11466
244.19848
244.56395
244.8686
244.85362
244.80368
244.62209
244.60582
244.2628
244.52003
243.63145
245.13474
243.77019
247.20409
245.69189
247.7491
247.09255
248.20681
247.73489
247.7475
247.14474
246.68316
246.31833
246.06937
245.92321
245.80672
245.73159
245.66634
245.608
245.57439
245.56848
245.56754
245.57353
245.6023
245.59601
245.54002
245.56126
245.80573
245.90708
245.64833
245.31808
245.22451
248.40465
246.63753
244.33411
243.76067
244.00082
244.64423
244.98038
244.51948
243.10812
242.91766
244.05352
245.4888
245.5621
244.92369
243.63887
243.53444
244.24298
245.09759
245.14017
244.6362
244.10863
244.19356
244.56283
244.86963
244.85451
244.80388
244.62164
244.6053
244.26195
244.51852
243.62988
245.13258
243.76874
247.20408
245.6921
247.74982
247.0952
248.20863
247.73743
247.74839
247.14486
246.68252
246.31787
246.06883
245.92276
245.80632
245.73127
245.66607
245.6078
245.57421
245.56834
245.56746
245.57346
245.60225
245.59592
245.53991
245.56127
245.80582
245.90707
245.64818
245.31795
245.22439
248.40612
246.65425
244.36265
243.77868
244.01151
244.67218
245.04231
244.59412
243.17403
242.96789
244.06783
245.5213
245.61011
244.9944
243.70694
243.58796
244.27103
245.10716
245.14546
244.63344
244.10222
244.18829
244.56157
244.87067
244.85538
244.80401
244.62109
244.6047
244.26104
244.51692
243.62827
245.13026
243.76722
247.20394
245.69225
247.75062
247.09813
248.21059
247.74012
247.74935
247.145
246.68185
246.31738
246.06827
245.92228
245.8059
245.73094
245.6658
245.60759
245.57401
245.56818
245.56737
245.57339
245.60221
245.59584
245.5398
245.56129
245.80592
245.90705
245.64802
245.31782
245.22427
248.40762
246.67185
244.39229
243.79683
244.02285
244.7034
245.1084
244.67247
243.24441
243.02082
244.08664
245.55761
245.65971
245.06674
243.77842
243.64449
244.30148
245.11742
245.15103
244.63039
244.09539
244.18269
244.56024
244.87175
244.85624
244.80404
244.62038
244.60396
244.26004
244.51517
243.62656
245.12776
243.76569
247.20382
245.69245
247.75154
247.10132
248.21263
247.74282
247.75033
247.14514
246.68114
246.31686
246.06767
245.92177
245.80546
245.73058
245.66552
245.60739
245.5738
245.56803
245.56727
245.57332
245.60214
245.59575
245.53969
245.56131
245.80603
245.90701
245.64786
245.31767
245.22415
248.40916
246.69032
244.42285
243.81506
244.03526
244.73861
245.17832
244.75425
243.31921
243.07644
244.11172
245.5971
245.71084
245.14143
243.85379
243.70427
244.33449
245.12824
245.15689
244.62712
244.08812
244.17671
244.5588
244.87286
244.85712
244.80404
244.61957
244.60312
244.25894
244.51331
243.62482
245.12507
243.76409
247.2035
245.69251
247.75259
247.10468
248.21483
247.74567
247.75144
247.14528
246.68039
246.31631
246.06703
245.92122
245.80499
245.73021
245.66523
245.60718
245.57358
245.5679
245.56716
245.57325
245.60206
245.59566
245.53957
245.56134
245.80613
245.90697
245.64769
245.31752
245.22403
248.41073
246.70964
244.45421
243.83347
244.04941
244.77859
245.25175
244.83925
243.39841
243.13398
244.1437
245.63802
245.76421
245.21956
243.93378
243.76787
244.37038
245.13959
245.16312
244.62361
244.08046
244.17039
244.55731
244.87405
244.858
244.80392
244.61853
244.60211
244.25775
244.51128
243.62295
245.12216
243.76254
247.20329
245.69265
247.75385
247.10809
248.21716
247.74859
247.75262
247.14542
246.67961
246.31574
246.06636
245.92063
245.80451
245.72982
245.66494
245.60698
245.57336
245.56779
245.56704
245.57318
245.60197
245.59559
245.53945
245.56137
245.80625
245.90692
245.64752
245.31735
245.22391
248.41235
246.72984
244.48638
243.85217
244.06606
244.82384
245.32843
244.92734
243.48163
243.193
244.18215
245.67886
245.82062
245.3023
244.01948
243.8353
244.40889
245.15162
245.16983
244.61995
244.07243
244.16379
244.5558
244.87534
244.85898
244.80376
244.61741
244.601
244.25643
244.50911
243.62107
245.11903
243.76093
247.20291
245.69265
247.75527
247.11156
248.21973
247.75177
247.75397
247.14555
246.67878
246.31513
246.06563
245.92
245.80399
245.7294
245.66463
245.60678
245.57312
245.56766
245.5669
245.57309
245.60187
245.59552
245.53932
245.5614
245.80638
245.90686
245.64733
245.31718
245.22379
248.41402
246.75097
244.51945
243.87142
244.08573
244.87437
245.40825
245.01845
243.56808
243.2527
244.22275
245.71843
245.88082
245.391
244.11211
243.90701
244.45028
245.16492
245.17736
244.6162
244.06418
244.15692
244.55432
244.87676
244.85995
244.80343
244.61604
244.59973
244.25505
244.50673
243.61902
245.11567
243.75932
247.2027
245.69279
247.7569
247.11508
248.22243
247.75506
247.75537
247.14565
246.67792
246.31448
246.06487
245.91934
245.80344
245.72896
245.66431
245.60655
245.57289
245.56748
245.56676
245.57299
245.60177
245.59545
245.53918
245.56139
245.80654
245.90678
245.64714
245.31699
245.22367
248.41576
246.77308
244.55352
243.8915
244.10861
244.92979
245.49122
245.11259
243.65669
243.31328
244.26028
245.75619
245.94524
245.4872
244.21325
243.98283
244.49435
245.17924
245.18576
244.61258
244.05593
244.15012
244.55301
244.87838
244.86113
244.80324
244.61472
244.59841
244.25356
244.50423
243.61698
245.11202
243.75756
247.20236
245.6927
247.75869
247.11874
248.22534
247.75866
247.75693
247.14573
246.67701
246.31379
246.06407
245.91864
245.80285
245.72851
245.66397
245.60626
245.57266
245.56725
245.56662
245.57288
245.60169
245.59536
245.53904
245.56139
245.80672
245.9067
245.64694
245.31679
245.22355
248.41759
246.79621
244.58863
243.91304
244.13494
244.98981
245.57745
245.20996
243.74695
243.37505
244.29095
245.79367
246.01355
245.59234
244.32473
244.06389
244.54218
245.19521
245.19522
244.60906
244.04765
244.14322
244.55191
244.8802
244.86233
244.80278
244.61319
244.597
244.25203
244.50147
243.61476
245.10808
243.75584
247.20208
245.69268
247.76068
247.1225
248.22835
247.76234
247.7585
247.14579
246.67607
246.31305
246.06324
245.9179
245.80223
245.72803
245.6636
245.60591
245.57239
245.56703
245.56647
245.57275
245.60162
245.59526
245.53891
245.56139
245.8069
245.90662
245.64673
245.31658
245.22343
248.41954
246.82032
244.6246
243.93689
244.1655
245.05476
245.66713
245.31057
243.83844
243.43919
244.31728
245.83374
246.08613
245.708
244.44775
244.15022
244.59396
245.21248
245.20556
244.60614
244.03966
244.1366
244.55118
244.88234
244.86387
244.80271
244.61184
244.59565
244.25047
244.49865
243.61255
245.10379
243.75412
247.20154
245.6925
247.76281
247.12639
248.23157
247.76627
247.76021
247.14585
246.67509
246.31225
246.06237
245.91713
245.80159
245.72755
245.66322
245.60553
245.57209
245.56685
245.56632
245.57263
245.60156
245.59515
245.53878
245.5614
245.80708
245.90652
245.64653
245.31635
245.2233
248.42154
246.84516
244.66128
243.96388
244.20133
245.12517
245.76043
245.41447
243.93077
243.50637
244.34402
245.87699
246.16504
245.83621
244.58331
244.24257
244.65073
245.23176
245.21714
244.60314
244.03121
244.1299
244.55082
244.88479
244.86555
244.80274
244.61058
244.59442
244.24888
244.49549
243.61014
245.09914
243.75267
247.20099
245.69223
247.76516
247.1304
248.235
247.77025
247.76193
247.14593
246.67406
246.31139
246.06145
245.91632
245.80093
245.72704
245.66282
245.60513
245.57176
245.56667
245.56614
245.57251
245.6015
245.59502
245.53866
245.56142
245.80724
245.90644
245.64632
245.3161
245.22317
248.42347
246.87036
244.69852
243.9944
244.2432
245.20151
245.85735
245.52158
244.02398
243.57824
244.37772
245.92349
246.25507
245.97991
244.7316
244.34011
244.71167
245.25257
245.22974
244.60044
244.02247
244.12293
244.55072
244.88762
244.86758
244.80296
244.60957
244.59323
244.2474
244.49239
243.60775
245.09411
243.75126
247.2001
245.69175
247.76759
247.13459
248.2388
247.77442
247.76384
247.14603
246.67297
246.31047
246.06048
245.91548
245.80027
245.72651
245.66241
245.60475
245.57146
245.56647
245.56595
245.57241
245.60143
245.59485
245.53854
245.56145
245.80738
245.90635
245.64611
245.31585
245.22303
248.42505
246.89559
244.73596
244.02829
244.29123
245.28404
245.95793
245.6318
244.11905
243.65505
244.42174
245.96734
246.36122
246.14179
244.8921
244.44266
244.77693
245.27545
245.24381
244.59761
244.01298
244.11565
244.55092
244.89083
244.87002
244.80362
244.60934
244.59254
244.24582
244.48886
243.60516
245.08876
243.74994
247.19904
245.69126
247.7703
247.13903
248.2429
247.77865
247.76584
247.14612
246.6718
246.30947
246.05945
245.9146
245.79958
245.72595
245.66197
245.60438
245.57117
245.56622
245.56575
245.57233
245.60134
245.59464
245.53842
245.56149
245.8075
245.90627
245.64591
245.31558
245.22289
248.42612
246.9208
244.77294
244.06545
244.34519
245.373
246.06273
245.74437
244.2176
243.7371
244.47633
246.0038
246.48573
246.32302
245.06693
244.54908
244.84512
245.29984
245.25903
244.5944
244.002
244.10733
244.55114
244.89429
244.87247
244.80428
244.60917
244.59225
244.24481
244.48557
243.60259
245.08301
243.74852
247.19774
245.6905
247.77316
247.14367
248.24733
247.78313
247.76803
247.14621
246.67056
246.30839
246.05834
245.91366
245.79886
245.72536
245.66149
245.60397
245.57088
245.56594
245.56556
245.57225
245.60122
245.59441
245.53833
245.56155
245.80759
245.90618
245.6457
245.3153
245.22274
248.42659
246.94614
244.80832
244.10488
244.40441
245.46907
246.17251
245.85833
244.32084
243.82112
244.53391
246.03415
246.62813
246.52282
245.25719
244.65852
244.91604
245.32653
245.27617
244.59111
243.99017
244.09816
244.55149
244.89795
244.87547
244.80571
244.60966
244.59241
244.24354
244.4818
243.59988
245.07692
243.7471
247.19654
245.68974
247.77637
247.14857
248.25202
247.78766
247.7703
247.14632
246.66925
246.30721
246.05716
245.91267
245.79809
245.72473
245.66095
245.60352
245.57057
245.56565
245.56539
245.57216
245.60109
245.59417
245.53824
245.56162
245.80766
245.90607
245.64547
245.31501
245.22259
248.42657
246.97162
244.8425
244.1455
244.4683
245.57275
246.28792
245.97301
244.42654
243.90445
244.5893
246.06356
246.78916
246.74159
245.46072
244.77055
244.98873
245.35476
245.29429
244.58616
243.97594
244.08764
244.55108
244.90157
244.87792
244.80677
244.61062
244.59298
244.24314
244.4784
243.59718
245.07035
243.74555
247.19505
245.68872
247.77978
247.15363
248.25698
247.79242
247.77279
247.14644
246.66789
246.30593
246.05592
245.91161
245.79726
245.72406
245.66036
245.60304
245.57023
245.56535
245.56522
245.57202
245.60096
245.59394
245.53814
245.56174
245.80772
245.90595
245.64521
245.31472
245.22244
248.42582
246.99665
244.87699
244.18846
244.5375
245.68449
246.40855
246.08867
244.53018
243.98591
244.63859
246.09274
246.96688
246.97657
245.67851
244.88236
245.06186
245.38504
245.31384
244.57943
243.95876
244.07453
244.54933
244.90432
244.88017
244.80841
244.61264
244.5942
244.24228
244.47449
243.59443
245.0633
243.74397
247.19346
245.68767
247.78359
247.15883
248.26206
247.79717
247.77537
247.14659
246.6665
246.30457
246.05462
245.9105
245.79636
245.72334
245.65976
245.60257
245.56987
245.56505
245.56504
245.57185
245.60083
245.59372
245.53802
245.56189
245.80777
245.90582
245.64493
245.31441
245.22228
248.42365
247.02038
244.91081
244.23414
244.6123
245.80437
246.53268
246.20417
244.62782
244.06794
244.68328
246.12592
247.15521
247.22811
245.9172
244.99603
245.13627
245.41768
245.33416
244.57236
243.94192
244.06009
244.54577
244.90535
244.88091
244.80958
244.61524
244.59617
244.24243
244.47091
243.59163
245.05562
243.74226
247.19188
245.68623
247.78761
247.16405
248.26731
247.80221
247.77822
247.14675
246.66503
246.3031
246.05328
245.90935
245.79539
245.72255
245.65914
245.60212
245.56947
245.56475
245.56482
245.57165
245.60072
245.5935
245.53787
245.56207
245.80783
245.90571
245.64463
245.31409
245.22211
248.41963
247.04284
244.94277
244.28126
244.6922
245.93267
246.65687
246.31571
244.71897
244.15293
244.72602
246.16683
247.35249
247.49635
246.17414
245.11173
245.21009
245.44982
245.35343
244.56973
243.93252
244.05038
244.54223
244.90523
244.88076
244.81014
244.6178
244.59814
244.24208
244.46684
243.58888
245.04739
243.74046
247.19054
245.68466
247.79174
247.16916
248.27265
247.8074
247.78117
247.14688
246.66352
246.30153
246.05184
245.90817
245.79438
245.72175
245.65849
245.60168
245.56903
245.56444
245.56455
245.57147
245.6006
245.59328
245.53771
245.56224
245.8079
245.90562
245.64432
245.31374
245.22193
248.41365
247.06439
244.97394
244.32947
244.77725
246.07109
246.77645
246.41414
244.80367
244.24158
244.76915
246.21435
247.56322
247.77701
246.42678
245.22592
245.28489
245.48362
245.37424
244.57104
243.93119
244.04762
244.54097
244.9049
244.88029
244.81005
244.62054
244.60056
244.24216
244.46278
243.58598
245.03849
243.73854
247.18895
245.68279
247.79598
247.1743
248.27836
247.81301
247.78436
247.14698
246.66195
246.29988
246.05035
245.90694
245.79333
245.72093
245.65784
245.6012
245.56857
245.56407
245.56428
245.57132
245.60044
245.59306
245.53757
245.56239
245.80798
245.90556
245.64399
245.31338
245.22174
248.40546
247.08506
245.00631
244.38041
244.86937
246.22263
246.88737
246.48679
244.87855
244.32963
244.81071
246.26141
247.79332
248.06713
246.64931
245.32519
245.35506
245.51744
245.39475
244.57907
243.9386
244.05122
244.54197
244.90487
244.87975
244.80974
244.62183
244.6013
244.24142
244.45815
243.58319
245.029
243.73649
247.18691
245.68087
247.80039
247.17951
248.2845
247.81884
247.7876
247.14702
246.66032
246.29814
246.04878
245.90563
245.79224
245.72009
245.65718
245.60065
245.56809
245.56365
245.56402
245.57118
245.60021
245.59285
245.53745
245.56245
245.808
245.90549
245.64367
245.313
245.22153
248.39475
247.10462
245.03996
244.43448
244.97088
246.38703
246.99226
246.52319
244.92592
244.41571
244.85512
246.3109
248.04528
248.3467
246.83618
245.40552
245.416
245.5463
245.41468
244.60187
243.96655
244.06982
244.54917
244.90607
244.87981
244.80878
244.62212
244.6017
244.2405
244.45298
243.58004
245.0187
243.73428
247.18388
245.67877
247.80521
247.18511
248.29146
247.82507
247.79108
247.14706
246.65859
246.29635
246.0471
245.90423
245.79111
245.7192
245.6565
245.60004
245.5676
245.56324
245.56379
245.57103
245.59991
245.59262
245.53739
245.56245
245.80799
245.9054
245.64333
245.31262
245.22132
248.38103
247.12274
245.0752
244.49264
245.08465
246.56165
247.09894
246.53854
244.93178
244.49809
244.90538
246.37161
248.30621
248.60159
246.98771
245.46472
245.46727
245.57863
245.43898
244.64093
244.02259
244.11362
244.57038
244.91157
244.88178
244.80847
244.62141
244.601
244.23889
244.44725
243.57692
245.00773
243.73187
247.17995
245.67665
247.81051
247.19101
248.29903
247.83141
247.79464
247.14707
246.65673
246.29448
246.0454
245.9027
245.78994
245.71823
245.65577
245.59936
245.56706
245.56284
245.56355
245.57087
245.59958
245.59241
245.53742
245.56249
245.80799
245.90529
245.64298
245.31221
245.22108
248.36366
247.13896
245.11188
244.55621
245.21256
246.74574
247.21429
246.5475
244.91366
244.57391
244.95948
246.45205
248.56756
248.83182
247.11136
245.50225
245.50291
245.60619
245.46116
244.69837
244.11591
244.1918
244.61259
244.92478
244.88807
244.8093
244.62118
244.60027
244.23659
244.44055
243.5733
244.99596
243.72945
247.17497
245.67431
247.81651
247.19753
248.30741
247.83811
247.79849
247.14709
246.65471
246.29254
246.04361
245.90109
245.78869
245.71722
245.65496
245.59865
245.56651
245.56244
245.56326
245.57071
245.59925
245.59215
245.53751
245.56256
245.80802
245.90517
245.6426
245.31179
245.22083
248.34163
247.15278
245.1511
244.6272
245.35674
246.94262
247.33199
246.5445
244.88783
244.6388
245.0098
246.55247
248.82379
249.03727
247.2058
245.52322
245.52584
245.62616
245.4818
244.79161
244.26431
244.31738
244.68313
244.94873
244.90014
244.81186
244.62077
244.59958
244.23448
244.43352
243.56975
244.98356
243.72689
247.16946
245.67186
247.82319
247.20457
248.31644
247.84502
247.80246
247.14705
246.65254
246.29046
246.04173
245.89944
245.78731
245.71616
245.65406
245.59794
245.56596
245.56202
245.56293
245.57054
245.59894
245.59184
245.53755
245.56256
245.80809
245.90506
245.64221
245.31134
245.22055
248.31355
247.16278
245.19203
244.70489
245.51703
247.15036
247.44217
246.50169
244.84443
244.68589
245.05279
246.67324
249.0695
249.22389
247.27965
245.52864
245.54186
245.64664
245.51028
244.96228
244.49467
244.51403
244.79067
244.98848
244.92125
244.81644
244.6198
244.59912
244.23234
244.42575
243.56579
244.97033
243.72442
247.16378
245.66914
247.83065
247.21226
248.32627
247.85254
247.80678
247.14696
246.65024
246.28817
246.03971
245.8977
245.78586
245.71505
245.65309
245.59724
245.56537
245.56154
245.56257
245.57033
245.59866
245.59154
245.53753
245.5625
245.80816
245.90496
245.64181
245.31087
245.22025
248.28041
247.16786
245.23216
244.78798
245.69304
247.36274
247.5409
246.40684
244.77401
244.71205
245.09402
246.81135
249.30972
249.41133
247.3472
245.52447
245.55018
245.66558
245.56587
245.20935
244.84785
244.78826
244.9474
245.05242
244.95107
244.8189
244.61806
244.59912
244.23124
244.4181
243.56214
244.95623
243.72159
247.15858
245.66647
247.83889
247.22041
248.33673
247.86045
247.81118
247.1468
246.64779
246.28571
246.0375
245.89582
245.78436
245.71386
245.65212
245.59654
245.5647
245.56103
245.56221
245.57003
245.59837
245.59137
245.5375
245.5624
245.80822
245.90486
245.6414
245.31038
245.21993
248.24303
247.16723
245.2665
244.8697
245.87794
247.56964
247.63373
246.27241
244.67649
244.69601
245.13324
246.96309
249.55659
249.6181
247.43489
245.52496
245.55784
245.68548
245.63584
245.50079
245.32731
245.15814
245.16519
245.15108
244.96807
244.8125
244.6144
244.59889
244.23036
244.40993
243.5582
244.94123
243.71873
247.15389
245.66372
247.8478
247.2288
248.34777
247.86868
247.81568
247.14659
246.64513
246.28305
246.03509
245.89385
245.78278
245.71259
245.65113
245.59579
245.56397
245.56054
245.56192
245.56966
245.59803
245.59128
245.53747
245.56228
245.80828
245.90476
245.64097
245.30987
245.21959
248.20315
247.16077
245.28685
244.94083
246.06086
247.76622
247.73012
246.12632
244.54796
244.65008
245.16991
247.12687
249.80694
249.82535
247.55627
245.53968
245.55633
245.68167
245.70234
245.86234
245.85766
245.65861
245.45898
245.28131
244.97062
244.79789
244.60943
244.59844
244.23068
244.40242
243.5547
244.92514
243.71542
247.14982
245.66115
247.85692
247.2373
248.35948
247.87724
247.82031
247.14627
246.64223
246.28023
246.03259
245.89177
245.78113
245.71128
245.65011
245.59495
245.56317
245.56003
245.56166
245.56927
245.59762
245.59122
245.53742
245.56216
245.80835
245.90466
245.64052
245.30932
245.21922
248.16115
247.15002
245.29008
244.985
246.22157
247.94835
247.83121
246.0007
244.38921
244.56849
245.19793
247.30217
250.05128
250.01187
247.63991
245.53666
245.54346
245.67017
245.75331
246.21856
246.46268
246.25967
245.8566
245.44444
244.96696
244.77834
244.6041
244.59869
244.23142
244.39431
243.55101
244.90806
243.71194
247.14576
245.65855
247.86605
247.24601
248.37192
247.88623
247.82527
247.14588
246.63917
246.27735
246.03004
245.88959
245.77938
245.70991
245.64903
245.59405
245.56238
245.55942
245.56134
245.5689
245.59718
245.59116
245.53732
245.56203
245.80844
245.90457
245.64004
245.30875
245.21882
248.11245
247.13426
245.27351
244.98844
246.32914
248.10419
247.94039
245.92148
244.20469
244.44411
245.21272
247.48908
250.28466
250.18403
247.68468
245.50606
245.52777
245.65613
245.80219
246.58553
247.07331
246.88659
246.33558
245.6509
244.97563