/*--------------------------------*- C++ -*----------------------------------*\
| =========                 |                                                 |
| \\      /  F ield         | OpenFOAM: The Open Source CFD Toolbox           |
|  \\    /   O peration     | Version:  2506                                  |
|   \\  /    A nd           | Website:  www.openfoam.com                      |
|    \\/     M anipulation  |                                                 |
\*---------------------------------------------------------------------------*/
FoamFile
{
    version     2.0;
    format      ascii;
    arch        "LSB;label=32;scalar=64";
    class       volScalarField;
    location    "0.0125";
    object      T;
}
// * * * * * * * * * * * * * * * * * * * * * * * * * * * * * * * * * * * * * //

dimensions      [0 0 0 1 0 0 0];

internalField   nonuniform List<scalar> 
13761
(
246.39937
247.08131
247.40288
247.31998
247.3071
247.2255
247.21863
247.21439
247.22034
247.23015
247.23573
247.23954
247.24027
247.24009
247.23959
247.23972
247.24022
247.24123
247.24252
247.244
247.24578
247.24759
247.24942
247.25095
247.252
247.25248
247.25247
247.25245
247.25302
247.2549
247.25884
247.26557
247.27602
247.2912
247.31241
247.34111
247.37867
247.42637
247.48488
247.54923
247.60596
247.6414
247.655
247.65548
247.65122
247.64668
247.64366
247.64239
247.64252
247.64347
247.64534
247.64833
247.65268
247.65556
247.65365
247.64942
247.56152
246.75523
246.10082
246.43458
247.12127
247.30245
247.26178
247.24704
247.26701
247.33127
247.41865
247.48844
247.52773
247.54447
247.54762
247.54704
247.55005
247.55363
247.53986
247.51625
247.49109
247.46722
247.43665
247.40204
247.37886
247.3646
247.30324
247.25642
247.30316
247.30594
247.09399
246.79136
246.85017
247.37167
247.82496
247.81127
247.54122
247.13511
246.87237
246.73151
246.64878
246.57551
246.51134
246.44598
246.38464
246.32015
246.24872
246.16924
246.07751
245.98691
245.93296
245.88678
245.83915
245.80376
245.75515
245.69666
245.65846
245.61287
245.5721
245.55794
245.53956
245.52111
245.44625
245.40882
245.42756
245.3852
245.46231
245.4535
245.41131
245.56545
245.52837
245.40476
245.53599
245.65008
245.44273
245.31276
245.38041
245.5016
245.55946
245.54583
245.51084
245.49039
247.80224
247.7991
247.79336
247.78585
247.77283
247.75511
247.73189
247.70524
247.67671
247.64899
247.62295
247.5999
247.57942
247.56191
247.54675
247.53403
247.52335
247.51475
247.50794
247.50275
247.49891
247.49637
247.49495
247.4946
247.4952
247.49672
247.49907
247.50222
247.50609
247.51065
247.51583
247.52158
247.52781
247.53444
247.54133
247.54825
247.55489
247.5608
247.56547
247.5685
247.57142
247.57623
247.58283
247.59102
247.60042
247.6106
247.62119
247.6319
247.64267
247.65455
247.66733
247.68028
247.69248
247.70268
247.71384
247.70508
247.52894
246.66336
246.44955
246.99508
247.42109
247.39193
247.25102
247.2204
247.25118
247.33196
247.41707
247.48408
247.52386
247.54161
247.54754
247.55309
247.5509
247.54717
247.5382
247.51845
247.48923
247.45572
247.42841
247.40068
247.37588
247.35552
247.29518
247.25508
247.30355
247.29948
247.07632
246.77934
246.85599
247.39134
247.83602
247.81261
247.5337
247.12509
246.86435
246.72518
246.64285
246.56993
246.50617
246.44133
246.38075
246.31646
246.24472
246.16512
246.07295
245.9831
245.93044
245.88468
245.83681
245.80117
245.75239
245.69374
245.65618
245.61095
245.57027
245.55651
245.53786
245.51925
245.44474
245.40768
245.42766
245.38461
245.46227
245.45398
245.41077
245.56559
245.52862
245.40408
245.53609
245.65018
245.44203
245.31196
245.37988
245.50204
245.56012
245.54651
245.51117
245.49051
247.58298
247.5818
247.57902
247.57511
247.56957
247.56309
247.55544
247.54762
247.53979
247.53291
247.52693
247.52225
247.51857
247.516
247.51425
247.51333
247.51303
247.51334
247.51411
247.51533
247.51693
247.51892
247.52125
247.52392
247.5269
247.5302
247.5338
247.53769
247.54189
247.5464
247.55126
247.5565
247.56219
247.56842
247.57535
247.58294
247.59118
247.60005
247.60958
247.61976
247.63055
247.64189
247.65372
247.66599
247.6787
247.69183
247.70546
247.71981
247.7351
247.75155
247.76948
247.7893
247.81133
247.83497
247.86492
247.89092
247.76551
247.13125
247.06749
247.53322
247.65863
247.49316
247.27426
247.21105
247.24083
247.32523
247.41212
247.48114
247.52357
247.54502
247.55893
247.56376
247.55915
247.54753
247.53326
247.51728
247.48957
247.45293
247.42018
247.39518
247.37441
247.35212
247.28775
247.24958
247.30278
247.29815
247.06942
246.76972
246.84692
247.39516
247.84333
247.82115
247.53666
247.1231
246.86081
246.72106
246.63841
246.56548
246.50215
246.43792
246.37802
246.31382
246.24177
246.16191
246.06937
245.98009
245.92848
245.88313
245.83498
245.79886
245.75004
245.69135
245.65441
245.60945
245.5687
245.55524
245.53631
245.51754
245.44356
245.40663
245.42776
245.38382
245.4621
245.45451
245.40985
245.56577
245.52899
245.40324
245.53561
245.65045
245.44167
245.31086
245.37897
245.50226
245.56101
245.54698
245.5114
245.49061
247.46727
247.46756
247.46821
247.46927
247.47078
247.47276
247.4752
247.47804
247.48115
247.48441
247.48769
247.49095
247.49414
247.49729
247.50039
247.50348
247.50658
247.50973
247.51295
247.5163
247.51979
247.52343
247.52725
247.53125
247.53547
247.53991
247.54461
247.5496
247.5549
247.56055
247.56658
247.57304
247.57995
247.58738
247.59534
247.60391
247.61314
247.6231
247.63386
247.64546
247.65797
247.67138
247.68569
247.70083
247.71672
247.73333
247.75066
247.76885
247.78812
247.80887
247.83145
247.8562
247.88354
247.91329
247.95502
247.98754
247.84985
247.50444
247.74611
248.03155
247.84862
247.51337
247.27225
247.22764
247.27446
247.36872
247.45224
247.51745
247.55777
247.57735
247.58315
247.5783
247.56875
247.55321
247.53298
247.51104
247.48379
247.44971
247.41547
247.387
247.36879
247.34845
247.28088
247.24277
247.29987
247.29519
247.05898
246.75778
246.84219
247.40402
247.85336
247.82716
247.53709
247.11879
246.85539
246.71563
246.63284
246.55989
246.4972
246.43365
246.37458
246.3105
246.23816
246.15819
246.06528
245.97678
245.92639
245.88125
245.83275
245.79623
245.74706
245.68857
245.65233
245.60766
245.56688
245.55395
245.53443
245.51587
245.4421
245.40536
245.42814
245.38286
245.46206
245.45528
245.40876
245.56584
245.52965
245.40221
245.53526
245.65088
245.44132
245.30994
245.37806
245.50245
245.56173
245.54778
245.51178
247.52499
247.52509
247.52525
247.52548
247.52578
247.5262
247.5268
247.52767
247.52884
247.53038
247.53227
247.5345
247.53704
247.53987
247.54297
247.54633
247.54993
247.55377
247.55784
247.56214
247.56666
247.57141
247.57638
247.5816
247.58706
247.59278
247.59878
247.60508
247.6117
247.61868
247.62604
247.63383
247.6421
247.65089
247.66024
247.67023
247.68089
247.69227
247.70441
247.71731
247.73099
247.74539
247.76046
247.77612
247.79232
247.80906
247.82643
247.84462
247.86395
247.88488
247.90796
247.93378
247.96352
247.99946
248.04566
248.07544
247.9732
248.12166
248.43094
248.31641
247.94545
247.51939
247.36833
247.37435
247.42935
247.49318
247.54617
247.59034
247.61842
247.62124
247.60742
247.59064
247.57597
247.55733
247.53378
247.50715
247.47577
247.44266
247.41096
247.38173
247.36195
247.34251
247.27489
247.23776
247.2963
247.29095
247.04876
246.74629
246.83597
247.41156
247.86316
247.83446
247.53784
247.11495
246.85022
246.71009
246.62734
246.55426
246.49227
246.4297
246.37132
246.30716
246.23452
246.1542
246.06103
245.97352
245.92437
245.87945
245.83057
245.79362
245.74433
245.68606
245.65041
245.60593
245.56517
245.55253
245.53282
245.51401
245.44074
245.40434
245.42821
245.38207
245.46187
245.45576
245.40796
245.56611
245.52994
245.40135
245.53494
245.65113
245.44096
245.30885
245.37732
245.50267
245.56258
245.54827
245.51204
247.56757
247.56664
247.56491
247.56241
247.55963
247.55674
247.55426
247.55241
247.55155
247.55168
247.55279
247.55469
247.55727
247.56038
247.56392
247.56781
247.57199
247.57642
247.58106
247.58589
247.59091
247.5961
247.60147
247.60703
247.61278
247.61875
247.62495
247.63141
247.63816
247.64524
247.65268
247.66051
247.66878
247.67753
247.6868
247.69663
247.70706
247.71809
247.72975
247.74202
247.75488
247.76826
247.78209
247.7963
247.81083
247.82571
247.84105
247.85717
247.87446
247.89342
247.91466
247.93903
247.96834
248.00581
248.05018
248.09632
248.21129
248.73437
248.71449
248.34471
247.87204
247.5232
247.50482
247.56928
247.62718
247.65386
247.66279
247.67073
247.67159
247.65317
247.6236
247.6007
247.58066
247.5586
247.53242
247.50285
247.46858
247.43408
247.40281
247.37476
247.3549
247.33454
247.26687
247.23212
247.29309
247.28589
247.03608
246.73299
246.82973
247.42002
247.87361
247.84163
247.53809
247.11029
246.8444
246.70392
246.62112
246.54784
246.48665
246.4251
246.3675
246.30329
246.23037
246.15002
246.05655
245.97012
245.92215
245.87728
245.82804
245.79063
245.74101
245.6832
245.64815
245.60401
245.56322
245.55119
245.53088
245.5122
245.43918
245.40305
245.42862
245.38091
245.46186
245.45653
245.40671
245.56619
245.53059
245.40015
245.53454
245.65162
245.44061
245.30778
245.37657
245.50282
245.56339
245.5491
245.51243
247.60465
247.6039
247.60239
247.60013
247.59732
247.59413
247.59095
247.5881
247.58596
247.58465
247.58422
247.58458
247.58564
247.58729
247.58944
247.59202
247.59497
247.59825
247.60183
247.60569
247.60981
247.61418
247.6188
247.62368
247.62881
247.6342
247.63988
247.64585
247.65214
247.65877
247.66576
247.67314
247.68095
247.6892
247.69794
247.70719
247.71697
247.72731
247.7382
247.74963
247.76157
247.77396
247.78674
247.79982
247.81317
247.82679
247.84069
247.85499
247.87005
247.8864
247.90475
247.92608
247.95337
247.99034
248.02923
248.16629
248.68938
249.0377
248.67363
248.03284
247.76819
247.72374
247.77411
247.81189
247.81019
247.78762
247.75948
247.73044
247.70301
247.66977
247.63542
247.60746
247.58287
247.55805
247.52689
247.49595
247.46086
247.42641
247.39469
247.36617
247.34714
247.32677
247.25822
247.22569
247.28961
247.28134
247.02338
246.71895
246.82294
247.42877
247.88412
247.84881
247.5381
247.1053
246.83822
246.69738
246.61484
246.5414
246.48097
246.42073
246.36372
246.29932
246.22598
246.14539
246.05185
245.96678
245.92005
245.87518
245.82553
245.78792
245.7377
245.68054
245.64602
245.60219
245.5614
245.54959
245.52904
245.51021
245.43769
245.40199
245.42873
245.38006
245.46169
245.45698
245.4059
245.5665
245.53081
245.39926
245.53429
245.65186
245.44021
245.30674
245.37597
245.50307
245.56423
245.54961
247.5611
247.56108
247.56122
247.56155
247.56215
247.56305
247.56424
247.56572
247.56742
247.56934
247.5714
247.57362
247.57595
247.57841
247.581
247.58373
247.5866
247.58963
247.59283
247.5962
247.59977
247.60352
247.60748
247.61165
247.61604
247.62068
247.62556
247.6307
247.63613
247.64186
247.6479
247.65427
247.66101
247.66811
247.6756
247.68347
247.69174
247.70037
247.70932
247.71852
247.72789
247.7373
247.74662
247.75572
247.7645
247.77288
247.78095
247.78882
247.79687
247.80526
247.81438
247.82541
247.84128
247.87178
247.98069
248.36331
248.99127
248.56887
247.80411
247.59565
247.7353
247.92161
247.958
247.9471
247.90961
247.86515
247.81388
247.76045
247.71842
247.68044
247.64154
247.60899
247.5807
247.54838
247.51656
247.48582
247.45076
247.41639
247.38482
247.35594
247.33734
247.31799
247.2491
247.21741
247.28447
247.2757
247.00969
246.70386
246.8153
247.43764
247.89497
247.85609
247.53749
247.09961
246.83152
246.6903
246.60774
246.53421
246.47476
246.41572
246.35937
246.29483
246.22118
246.14058
246.04703
245.96334
245.91759
245.87273
245.82261
245.78465
245.73405
245.67754
245.6437
245.60001
245.55929
245.54816
245.52693
245.50831
245.43601
245.40065
245.42907
245.3788
245.46172
245.45774
245.40457
245.5667
245.53142
245.39801
245.53395
245.65229
245.43985
245.30547
245.37526
245.50323
245.56512
245.55045
247.57232
247.57195
247.57123
247.57015
247.56875
247.56706
247.56523
247.56339
247.56177
247.56051
247.55972
247.55941
247.55955
247.56011
247.56104
247.56231
247.56387
247.56571
247.56779
247.57009
247.5726
247.57531
247.57821
247.5813
247.58456
247.588
247.59162
247.59542
247.59939
247.60355
247.60788
247.61238
247.61705
247.62187
247.62683
247.63188
247.63699
247.64211
247.64715
247.65203
247.65662
247.66083
247.66454
247.66766
247.67014
247.67197
247.67317
247.67378
247.67386
247.67356
247.67346
247.67562
247.68778
247.7529
248.01354
248.57827
248.51548
247.08921
247.09333
247.49599
247.87231
248.03932
248.03715
248.00546
247.95425
247.89985
247.83814
247.77281
247.72262
247.68216
247.64219
247.60359
247.5665
247.53441
247.50369
247.47404
247.43976
247.40526
247.37377
247.34564
247.32751
247.30863
247.23948
247.2091
247.2792
247.26972
246.99527
246.68838
246.80763
247.44687
247.90562
247.8629
247.53641
247.09346
246.82428
246.6828
246.60066
246.52698
246.46843
246.4109
246.35495
246.29014
246.21599
246.13527
246.04204
245.95996
245.91525
245.87026
245.81984
245.78149
245.73068
245.67472
245.64141
245.59812
245.5573
245.54644
245.52499
245.5062
245.4344
245.39955
245.42907
245.37793
245.46156
245.4582
245.40374
245.56701
245.53164
245.39711
245.53376
245.65247
245.43939
245.30444
245.37451
245.50351
245.56595
245.55097
247.44449
247.44516
247.44662
247.44898
247.45212
247.45611
247.46068
247.46571
247.47082
247.47583
247.48048
247.48476
247.48861
247.49211
247.49528
247.49818
247.50085
247.50334
247.50569
247.50792
247.51008
247.51218
247.51424
247.51629
247.51834
247.5204
247.52248
247.52458
247.5267
247.52884
247.53099
247.53312
247.53521
247.53722
247.5391
247.54081
247.54226
247.54338
247.54407
247.54423
247.54376
247.54257
247.54056
247.5377
247.53395
247.52932
247.52381
247.51746
247.51037
247.50295
247.49673
247.49576
247.52037
247.65805
248.05396
248.3949
246.70835
246.31072
247.02195
247.61245
247.97644
248.06258
248.0393
248.00323
247.95489
247.90212
247.83827
247.76595
247.70199
247.6609
247.61918
247.57797
247.54403
247.51439
247.48534
247.45774
247.42537
247.39109
247.35963
247.33331
247.31688
247.29846
247.22832
247.199
247.2731
247.26278
246.97941
246.67169
246.79956
247.45654
247.91664
247.86987
247.53487
247.0866
246.8166
246.67458
246.59253
246.51918
246.4615
246.40527
246.35001
246.28488
246.21042
246.12971
246.03686
245.95646
245.91261
245.86728
245.81641
245.77788
245.7267
245.67173
245.63896
245.59561
245.55513
245.54479
245.52269
245.50419
245.43258
245.39827
245.42948
245.37662
245.46162
245.45894
245.40234
245.56733
245.53215
245.39583
245.53347
245.65283
245.439
245.30307
245.37374
245.50371
245.56689
247.36483
247.36606
247.36851
247.37232
247.37725
247.38328
247.38997
247.39701
247.40377
247.40993
247.41522
247.41968
247.42333
247.4263
247.4287
247.43063
247.43218
247.43343
247.43444
247.43527
247.43596
247.43655
247.43704
247.43748
247.43785
247.43817
247.43844
247.43864
247.43876
247.43878
247.43868
247.43841
247.43794
247.43722
247.43619
247.43479
247.43295
247.43058
247.42761
247.42396
247.41956
247.41436
247.40834
247.40149
247.39383
247.38541
247.37628
247.36654
247.35644
247.34682
247.34025
247.34312
247.38698
247.58269
247.90822
247.1672
245.57668
246.13414
247.0639
247.6779
247.91266
247.93409
247.90787
247.89464
247.86944
247.82946
247.77994
247.71817
247.6581
247.61403
247.58111
247.54934
247.51989
247.49197
247.46518
247.43945
247.40927
247.37615
247.34517
247.32047
247.30597
247.28826
247.21624
247.18859
247.26721
247.25576
246.96265
246.6541
246.79144
247.46678
247.92748
247.87628
247.53273
247.07917
246.80842
246.66614
246.58444
246.51129
246.45462
246.39965
246.34481
246.27935
246.20424
246.12363
246.03167
245.95313
245.90996
245.86441
245.81318
245.7745
245.72293
245.66873
245.63634
245.59374
245.55293
245.54291
245.52064
245.50197
245.43086
245.39699
245.42953
245.37568
245.46147
245.45933
245.40143
245.56764
245.53231
245.39491
245.5333
245.65291
245.4385
245.30198
245.37296
245.50401
245.5677
247.42134
247.42077
247.41959
247.41771
247.41512
247.41179
247.40784
247.40341
247.39876
247.39413
247.38971
247.3856
247.38186
247.37846
247.3754
247.37263
247.37012
247.36784
247.36576
247.36383
247.36203
247.36034
247.35871
247.35711
247.35553
247.35393
247.35228
247.35055
247.3487
247.34669
247.34449
247.34206
247.33933
247.33627
247.33281
247.32888
247.32443
247.31939
247.3137
247.30731
247.30018
247.29232
247.28375
247.27448
247.26456
247.25402
247.24289
247.23126
247.21935
247.20797
247.19966
247.2009
247.24153
247.383
247.35728
245.86165
245.07313
245.95555
246.97043
247.57766
247.68194
247.72474
247.72686
247.73374
247.73614
247.72468
247.70265
247.66598
247.61248
247.56378
247.53371
247.50968
247.48473
247.46163
247.43944
247.41687
247.38933
247.35822
247.32882
247.30606
247.29352
247.2767
247.20292
247.17676
247.26051
247.24794
246.94482
246.63533
246.78279
247.47769
247.93918
247.88296
247.52988
247.07102
246.79976
246.65668
246.57522
246.50292
246.44723
246.39336
246.33909
246.27332
246.19776
246.11726
246.02638
245.9496
245.90693
245.86089
245.80948
245.77059
245.71897
245.66553
245.63376
245.59111
245.55066
245.54098
245.51812
245.49984
245.4289
245.39576
245.42988
245.37433
245.46157
245.4601
245.39994
245.56814
245.53285
245.39359
245.53312
245.65326
245.43808
245.30051
245.37215
245.50423
245.56872
247.30017
247.30011
247.30007
247.30006
247.30008
247.30011
247.30009
247.29996
247.29964
247.2991
247.29831
247.2973
247.2961
247.29474
247.29322
247.29157
247.28981
247.28795
247.28598
247.28391
247.28175
247.2795
247.27714
247.27467
247.27208
247.26936
247.26649
247.26344
247.2602
247.25674
247.25301
247.24899
247.24463
247.23987
247.23464
247.22891
247.22262
247.21575
247.20826
247.20015
247.19141
247.18209
247.17222
247.16186
247.15106
247.1398
247.12804
247.11563
247.10246
247.0886
247.07484
247.06409
247.06632
247.0843
246.729
245.15912
244.60117
245.46148
246.54392
247.19064
247.4785
247.60163
247.60968
247.61977
247.62834
247.62401
247.61423
247.59426
247.54749
247.49948
247.4756
247.46297
247.4471
247.4303
247.41305
247.3941
247.36924
247.34083
247.31325
247.2916
247.28082
247.26445
247.18861
247.16512
247.2538
247.23942
246.92589
246.6158
246.77374
247.48869
247.95081
247.88955
247.52659
247.06214
246.79096
246.64746
246.56591
246.49446
246.43994
246.38695
246.333
246.26674
246.19077
246.11049
246.02112
245.94622
245.90398
245.85765
245.80592
245.76689
245.71498
245.66251
245.63105
245.58898
245.54829
245.53902
245.51591
245.49758
245.42701
245.39437
245.4299
245.37336
245.46142
245.46053
245.39896
245.56848
245.53304
245.39266
245.53298
245.65337
245.43757
245.29933
245.37136
245.50458
245.56951
247.26529
247.26556
247.26586
247.26616
247.26607
247.26552
247.26418
247.26211
247.25926
247.25587
247.25208
247.2481
247.24401
247.2399
247.23582
247.2318
247.22784
247.22395
247.22014
247.2164
247.21272
247.20909
247.20547
247.20185
247.1982
247.19451
247.19074
247.18687
247.18289
247.17875
247.17444
247.16992
247.16518
247.16019
247.15495
247.14941
247.14355
247.13734
247.13076
247.12382
247.1165
247.10882
247.10078
247.09236
247.08353
247.07418
247.06407
247.05291
247.04027
247.02562
247.00834
246.9875
246.95831
246.88533
246.43025
244.93404
244.15241
244.79683
246.0791
246.95514
247.32768
247.44622
247.44484
247.44961
247.46461
247.47054
247.47345
247.47067
247.45351
247.42343
247.40511
247.40569
247.40453
247.39598
247.38479
247.37036
247.34803
247.32237
247.29686
247.27616
247.26671
247.25113
247.17369
247.15247
247.24655
247.23007
246.90557
246.59537
246.76448
247.50038
247.96314
247.89642
247.52314
247.05235
246.78104
246.63735
246.55569
246.48538
246.43215
246.37981
246.32628
246.25975
246.18352
246.10368
246.0157
245.94242
245.90036
245.85359
245.80178
245.7627
245.71094
245.65933
245.62822
245.5861
245.546
245.53687
245.51319
245.49525
245.42487
245.39322
245.4303
245.3719
245.46155
245.46121
245.39742
245.5691
245.53346
245.39129
245.53279
245.65377
245.4372
245.29777
245.37053
245.50481
247.21804
247.21705
247.21523
247.21247
247.2091
247.20513
247.20095
247.19673
247.19286
247.18941
247.18646
247.1839
247.18169
247.17971
247.1779
247.17618
247.17452
247.17287
247.17117
247.16939
247.16752
247.16554
247.16346
247.16127
247.15898
247.15657
247.15406
247.15143
247.14869
247.14582
247.14283
247.1397
247.13642
247.13298
247.12937
247.12558
247.12159
247.1174
247.113
247.10839
247.10356
247.09852
247.09326
247.08774
247.0819
247.07562
247.06873
247.06089
247.05158
247.03999
247.02479
247.00327
246.9668
246.88099
246.45902
245.10329
244.00656
244.38004
245.60907
246.73384
247.08334
247.16074
247.15504
247.17406
247.21144
247.24339
247.27604
247.31434
247.34382
247.34858
247.3465
247.35579
247.36816
247.36657
247.3605
247.34971
247.32889
247.30503
247.28145
247.2613
247.25259
247.23723
247.15839
247.14012
247.23902
247.22017
246.88413
246.5738
246.75452
247.51194
247.97533
247.903
247.5195
247.04242
246.77086
246.62731
246.54551
246.47624
246.42446
246.37246
246.31891
246.25196
246.17564
246.09662
246.01061
245.939
245.8971
245.84984
245.79759
245.75872
245.7069
245.65611
245.6253
245.58383
245.54349
245.53476
245.51074
245.49297
245.42285
245.39174
245.43032
245.37089
245.46143
245.46167
245.39641
245.56947
245.53369
245.39032
245.53268
245.65396
245.43664
245.29655
245.36977
245.50526
247.05115
247.05322
247.05749
247.0641
247.07281
247.08335
247.09506
247.10717
247.1188
247.12937
247.13857
247.14641
247.15295
247.15833
247.1627
247.16621
247.16897
247.17111
247.17271
247.17389
247.1747
247.1752
247.17544
247.17547
247.17533
247.17506
247.17468
247.17423
247.17373
247.1732
247.17267
247.17216
247.17169
247.17129
247.17098
247.17079
247.17075
247.17091
247.17129
247.17195
247.17292
247.17423
247.17591
247.17793
247.18027
247.18285
247.18555
247.18818
247.19046
247.19186
247.19146
247.18707
247.17134
247.11086
246.87319
246.04061
244.53845
244.40598
245.38173
246.58701
246.94675
246.85653
246.82079
246.85631
246.94201
247.03218
247.11032
247.18626
247.25239
247.2902
247.31056
247.32544
247.34046
247.34259
247.3397
247.3311
247.31071
247.28741
247.26487
247.24625
247.23819
247.2228
247.14276
247.12678
247.23094
247.20995
246.86235
246.55187
246.74452
247.52382
247.98775
247.90968
247.51541
247.0317
246.75953
246.61639
246.53479
246.46649
246.41635
246.36452
246.31093
246.24381
246.16765
246.08957
246.00535
245.93491
245.89293
245.8455
245.7934
245.75445
245.7027
245.65293
245.62232
245.58094
245.54092
245.53238
245.50786
245.49053
245.42058
245.39063
245.43069
245.3694
245.46163
245.46229
245.3949
245.57021
245.53401
245.38891
245.53252
245.65433
245.43609
245.29496
245.36896
245.50553
247.17554
247.17564
247.17594
247.17655
247.1778
247.17978
247.18266
247.1863
247.19056
247.19509
247.19972
247.20428
247.20868
247.21288
247.21688
247.22066
247.22425
247.22765
247.23091
247.23402
247.23703
247.23996
247.24284
247.24569
247.24854
247.25144
247.2544
247.25746
247.26067
247.26407
247.26769
247.2716
247.27585
247.28051
247.28564
247.29134
247.29767
247.30475
247.31265
247.32146
247.33125
247.34207
247.35393
247.36681
247.38069
247.39554
247.41139
247.42833
247.44648
247.46598
247.48688
247.50875
247.53132
247.53574
247.43844
247.02649
245.90904
245.56098
246.11488
246.90419
247.03854
246.79445
246.70393
246.73801
246.8443
246.96036
247.05566
247.14159
247.21564
247.26765
247.3003
247.31722
247.32723
247.32884
247.32572
247.31694
247.29588
247.27171
247.24877
247.23083
247.22364
247.20831
247.12684
247.11311
247.222
247.19882
246.83948
246.52895
246.73435
247.53595
247.99983
247.91576
247.51098
247.02121
246.74818
246.60511
246.52433
246.4568
246.40796
246.35636
246.30204
246.23482
246.15919
246.08235
246.00036
245.93116
245.88898
245.84119
245.78874
245.75009
245.69868
245.64977
245.61935
245.57821
245.53839
245.53019
245.50519
245.48801
245.41845
245.38911
245.43068
245.36833
245.46153
245.46274
245.3939
245.57062
245.53418
245.3879
245.53252
245.65446
245.43545
245.29367
245.36824
247.36547
247.36422
247.36162
247.35765
247.35264
247.34686
247.34095
247.33541
247.33083
247.32737
247.32514
247.324
247.32386
247.32454
247.32597
247.32803
247.33065
247.33376
247.33732
247.34129
247.34566
247.35039
247.35549
247.36094
247.36677
247.37297
247.37959
247.38663
247.39416
247.40221
247.41084
247.42012
247.43013
247.44094
247.45266
247.46538
247.47919
247.4942
247.51049
247.52811
247.54708
247.56739
247.58897
247.61176
247.63567
247.66074
247.68707
247.71496
247.74485
247.77738
247.81324
247.8531
247.89951
247.96613
247.95556
247.72769
247.12424
247.16478
247.66533
247.80338
247.43879
246.91394
246.70414
246.72795
246.83611
246.95933
247.05716
247.13793
247.2099
247.26203
247.29643
247.31587
247.32346
247.32168
247.31534
247.30451
247.28225
247.25675
247.23209
247.21455
247.20842
247.19338
247.11065
247.0988
247.2132
247.18802
246.81637
246.50541
246.72405
247.54863
248.01235
247.9219
247.50543
247.00962
246.73632
246.59289
246.5131
246.44695
246.39903
246.34749
246.29266
246.22539
246.15052
246.07515
245.99523
245.92693
245.88438
245.83652
245.78411
245.7456
245.69444
245.64653
245.61634
245.57533
245.53556
245.52753
245.50217
245.48563
245.41608
245.38803
245.43103
245.36684
245.46177
245.46328
245.39242
245.57143
245.53452
245.38644
245.5323
245.65477
245.43484
245.29212
245.36752
247.43072
247.43011
247.42885
247.42691
247.42448
247.42164
247.41882
247.41635
247.41469
247.41402
247.41442
247.41584
247.41818
247.42133
247.42522
247.42976
247.43488
247.44056
247.44674
247.45341
247.46055
247.46815
247.47622
247.48477
247.4938
247.50335
247.51343
247.52409
247.53535
247.54728
247.55991
247.57329
247.58746
247.60248
247.61843
247.63538
247.65339
247.67252
247.69278
247.71417
247.73665
247.76017
247.78465
247.81
247.83619
247.86329
247.89153
247.92127
247.95306
247.98749
248.02537
248.06804
248.11879
248.20841
248.30501
248.31843
248.34255
248.53558
248.61769
248.1465
247.4665
247.05282
246.91344
246.96546
247.06693
247.16166
247.21763
247.24688
247.2739
247.29835
247.31208
247.3225
247.3237
247.32167
247.31085
247.29524
247.27005
247.2428
247.21611
247.19765
247.19253
247.17752
247.09277
247.0832
247.2038
247.17673
246.79254
246.48147
246.71412
247.56172
248.02448
247.92764
247.49962
246.99762
246.72426
246.58064
246.50193
246.43706
246.38987
246.33806
246.28224
246.21523
246.14141
246.06781
245.99048
245.92283
245.87987
245.83167
245.77913
245.74093
245.69021
245.64316
245.61319
245.57247
245.53289
245.5252
245.49921
245.48287
245.41385
245.38652
245.43101
245.36565
245.46168
245.46373
245.39141
245.57186
245.5346
245.38538
245.53235
245.65492
245.43413
245.29071
245.36685
247.53198
247.53115
247.52951
247.52703
247.52395
247.52046
247.51695
247.51379
247.51137
247.50985
247.50933
247.50975
247.51106
247.51317
247.51603
247.51956
247.52372
247.52847
247.53378
247.53962
247.54597
247.55281
247.56014
247.56794
247.57623
247.585
247.59426
247.60402
247.61431
247.62516
247.63659
247.64869
247.66156
247.67523
247.68974
247.70514
247.72145
247.7387
247.7569
247.77605
247.7961
247.81699
247.83863
247.86093
247.88389
247.90756
247.93217
247.95807
247.98575
248.01593
248.04952
248.08815
248.13756
248.23697
248.50856
248.93447
249.30342
249.20134
248.82955
248.15049
247.34758
247.16155
247.27333
247.36823
247.42158
247.44474
247.43872
247.41121
247.3868
247.37318
247.36136
247.34998
247.3392
247.32568
247.30773
247.28615
247.25671
247.22713
247.19907
247.1805
247.17617
247.16117
247.07459
247.06678
247.19414
247.16488
246.76759
246.45709
246.70458
247.57639
248.03745
247.93315
247.49265
246.98459
246.71159
246.56755
246.49003
246.42712
246.38024
246.32801
246.27153
246.20471
246.13242
246.06046
245.98538
245.91815
245.87488
245.8267
245.77422
245.73647
245.68598
245.63981
245.61001
245.56944
245.52994
245.5223
245.49613
245.4804
245.41136
245.38542
245.43132
245.3642
245.4621
245.4642
245.38998
245.57275
245.53491
245.38387
245.53223
245.65522
245.43343
245.28918
247.57871
247.57687
247.57357
247.56893
247.56376
247.55817
247.55305
247.54848
247.54502
247.5425
247.54106
247.5405
247.54079
247.5418
247.5435
247.54579
247.54865
247.55203
247.55592
247.56027
247.56508
247.57033
247.57603
247.58216
247.58873
247.59575
247.60323
247.61118
247.61963
247.62859
247.63809
247.64812
247.65868
247.66978
247.68144
247.69365
247.7064
247.71965
247.73331
247.74728
247.76139
247.77541
247.78915
247.80244
247.81516
247.82729
247.83894
247.85045
247.86251
247.87638
247.89473
247.92498
247.9966
248.22902
248.79184
249.3939
249.42816
248.66654
247.94479
247.70441
247.47839
247.53352
247.62941
247.64972
247.63369
247.59766
247.55291
247.49887
247.45196
247.41854
247.39191
247.37078
247.34988
247.32692
247.29988
247.27354
247.24101
247.20917
247.18021
247.16214
247.15877
247.1435
247.05494
247.05012
247.18435
247.152
246.74091
246.43183
246.69511
247.59179
248.05089
247.9387
247.48514
246.97076
246.69858
246.5547
246.47796
246.41683
246.37029
246.31683
246.25978
246.19342
246.12281
246.05335
245.98065
245.91353
245.86964
245.82163
245.76906
245.73143
245.68172
245.63656
245.60675
245.56653
245.52716
245.51987
245.49293
245.47756
245.409
245.38392
245.43129
245.36301
245.46213
245.46454
245.38898
245.57324
245.53495
245.38277
245.5323
245.6554
245.43254
245.28775
247.49853
247.49943
247.50108
247.50343
247.50598
247.50881
247.51139
247.51383
247.51583
247.51766
247.51922
247.52073
247.52219
247.52373
247.52536
247.52715
247.52911
247.53127
247.53365
247.53626
247.53909
247.54217
247.54548
247.54904
247.55284
247.55687
247.56112
247.5656
247.57027
247.57512
247.58012
247.58524
247.59044
247.59565
247.60081
247.60582
247.61058
247.61495
247.61878
247.62189
247.62412
247.6253
247.62533
247.62414
247.62175
247.61827
247.61399
247.60952
247.60625
247.60719
247.62093
247.67296
247.85033
248.30727
248.93568
248.89427
247.63585
247.09684
247.11465
247.45286
247.76862
247.77526
247.75866
247.71931
247.68065
247.63511
247.58763
247.52912
247.47285
247.43328
247.40289
247.37643
247.34594
247.311
247.28008
247.25354
247.22037
247.18843
247.15967
247.14298
247.14064
247.12528
247.03508
247.03297
247.1742
247.13825
246.71307
246.40583
246.68597
247.60853
248.06507
247.94445
247.47715
246.95589
246.68436
246.54109
246.46574
246.40646
246.36001
246.30512
246.24758
246.18212
246.11323