/*--------------------------------*- C++ -*----------------------------------*\
| =========                 |                                                 |
| \\      /  F ield         | OpenFOAM: The Open Source CFD Toolbox           |
|  \\    /   O peration     | Version:  2506                                  |
|   \\  /    A nd           | Website:  www.openfoam.com                      |
|    \\/     M anipulation  |                                                 |
\*---------------------------------------------------------------------------*/
FoamFile
{
    version     2.0;
    format      ascii;
    arch        "LSB;label=32;scalar=64";
    class       surfaceScalarField;
    location    "0.00026";
    object      phi;
}
// * * * * * * * * * * * * * * * * * * * * * * * * * * * * * * * * * * * * * //

dimensions      [1 0 -1 0 0 0 0];

oriented        oriented;

internalField   nonuniform List<scalar> 
6721
(
0.028947276
-0.0022377774
0.043779365
-0.0024583162
0.057643461
-0.0027132339
0.054803338
-0.0029751316
-0.079782454
-0.003159439
-0.2436717
-0.0024972481
-0.2756108
-0.0025123847
-0.0027219781
-0.0095414157
-0.0018203175
0.0097634879
-0.0020019391
0.029872089
-0.0022333138
0.044337138
-0.0024526829
0.057891645
-0.0027073765
0.052051708
-0.0029714457
-0.085883134
-0.0031461484
-0.24758244
-0.0024898177
-0.27756459
-0.0025130795
-0.280772
-0.0027228964
-0.2797724
-0.0029625252
-0.27391177
-0.0032431864
-0.27058509
-0.0035375101
-0.26841559
-0.0038543176
-0.26928752
-0.0041907562
-0.27252649
-0.0045296486
-0.27530518
-0.0048865717
-0.27689037
-0.0052982225
-0.27334341
-0.0057581895
-0.27102763
-0.0062581661
-0.27124641
-0.006778219
-0.2739994
-0.0073739102
-0.27421072
-0.0080488151
-0.0087162045
-0.054083217
-0.001252255
-0.045161748
-0.0013703011
-0.03379328
-0.001505613
-0.0228443
-0.0016550816
-0.011559632
-0.0018180574
0.0075738166
-0.0019988899
0.027128939
-0.0022255777
0.042049099
-0.0024447349
0.056916273
-0.0027025938
0.051983212
-0.0029723776
-0.087023509
-0.003148776
-0.25033623
-0.0024885029
-0.2796634
-0.0025153858
-0.28251417
-0.002725435
-0.28139212
-0.00296326
-0.27637669
-0.0032408567
-0.27299978
-0.0035354923
-0.27068681
-0.0038548857
-0.27153441
-0.0041914224
-0.27433743
-0.0045292679
-0.27721438
-0.0048866622
-0.27896594
-0.0052995634
-0.27547697
-0.0057568519
-0.2731009
-0.0062581749
-0.27330851
-0.0067792485
-0.27604411
-0.0073737387
-0.27632997
-0.0080478588
-0.27865453
-0.0087160653
-0.28153678
-0.0093795588
-0.2878391
-0.010147997
-0.010894576
-0.064196035
-0.0011472208
-0.057094719
-0.0012533224
-0.048077592
-0.0013707031
-0.035940132
-0.0015053859
-0.024003629
-0.0016562198
-0.012750222
-0.0018192543
0.0054025085
-0.0019986605
0.024544077
-0.0022271715
0.040198331
-0.0024468051
0.056787945
-0.0027058135
0.054084722
-0.0029770327
-0.085105138
-0.0031612611
-0.2514069
-0.002494249
-0.28169451
-0.0025169102
-0.28420842
-0.0027269239
-0.28286167
-0.0029628274
-0.27843956
-0.0032380958
-0.27530486
-0.0035331079
-0.27294697
-0.0038545591
-0.27378991
-0.0041910535
-0.27617207
-0.0045269063
-0.27907883
-0.0048849896
-0.28097128
-0.0052992127
-0.27753552
-0.0057546618
-0.27513088
-0.0062559312
-0.27533772
-0.0067777888
-0.27806984
-0.0073713659
-0.27840547
-0.008045074
-0.2807374
-0.0087136687
-0.28363465
-0.009377619
-0.28999237
-0.010144862
-0.071877468
-0.0010520619
-0.064707395
-0.0011500683
-0.057916068
-0.0012565551
-0.049642245
-0.0013740997
-0.03822859
-0.0015077818
-0.026163686
-0.0016577258
-0.014384105
-0.0018217625
0.0047025484
-0.0020034671
0.024683
-0.0022312152
0.040542958
-0.0024511987
0.057099191
-0.0027127473
0.054941278
-0.0029884614
-0.084634451
-0.0031559528
-0.25271061
-0.002485916
-0.28370182
-0.0025179831
-0.28615603
-0.0027280361
-0.28479687
-0.0029637308
-0.2804687
-0.0032385102
-0.27737498
-0.0035325561
-0.27500025
-0.0038538885
-0.27581225
-0.0041901809
-0.27816355
-0.0045274643
-0.28109969
-0.0048853445
-0.28299809
-0.0052987301
-0.27957133
-0.0057526322
-0.27715693
-0.006254596
-0.27736638
-0.0067764819
-0.28011834
-0.0073696679
-0.28048006
-0.0080432535
-0.28282829
-0.0087126545
-0.28574001
-0.0093775597
-0.010143495
-0.080940127
-0.00096584188
-0.074497121
-0.0010551567
-0.067767744
-0.0011525893
-0.060464213
-0.0012593695
-0.051313254
-0.0013781264
-0.039750429
-0.0015123339
-0.028085914
-0.0016614493
-0.015665837
-0.0018253035
0.0033573719
-0.002005841
0.02256773
-0.0022308868
0.038891448
-0.0024513319
0.05738606
-0.0027139868
0.051430955
-0.0029951277
-0.094019179
-0.0030950094
-0.2592485
-0.0024456036
-0.28591008
-0.0025190768
-0.2879503
-0.0027299201
-0.28630035
-0.0029640918
-0.2823911
-0.0032365187
-0.27956565
-0.0035300059
-0.27719816
-0.0038540557
-0.277861
-0.0041906236
-0.27999967
-0.0045275171
-0.28296246
-0.004884722
-0.28504293
-0.0052992113
-0.28163679
-0.0057506467
-0.27914017
-0.0062538201
-0.27933458
-0.0067763968
-0.28208165
-0.0073690092
-0.28247634
-0.0080428834
-0.28482255
-0.0087137529
-0.28775345
-0.009379814
-0.010144967
-0.08688268
-0.0008892014
-0.081618304
-0.00097015167
-0.075421426
-0.0010597173
-0.06862299
-0.0011576142
-0.061568686
-0.0012645983
-0.052793422
-0.0013838304
-0.041146638
-0.0015184748
-0.028811094
-0.0016695737
-0.016735572
-0.0018344212
0.002181075
-0.002013138
0.022012235
-0.0022385575
0.038678158
-0.0024574005
0.057799873
-0.0027206199
0.036704366
-0.0030041078
-0.11888648
-0.0030329484
-0.26997025
-0.0024100143
-0.28804722
-0.0025176752
-0.28974882
-0.0027290896
-0.28808747
-0.0029625765
-0.2844385
-0.0032346233
-0.28169782
-0.0035280684
-0.27921842
-0.0038529037
-0.27970389
-0.0041884364
-0.28172934
-0.0045238955
-0.28483184
-0.0048822148
-0.28708174
-0.0052970784
-0.2836757
-0.0057479004
-0.28108243
-0.0062510057
-0.2812667
-0.0067742662
-0.28401293
-0.0073662546
-0.2844358
-0.0080407239
-0.28677362
-0.0087132884
-0.28971951
-0.0093800737
-0.010145104
-0.090569204
-0.00081966783
-0.086119027
-0.00089377194
-0.08104116
-0.00097616821
-0.075417038
-0.0010671488
-0.069032729
-0.0011667807
-0.061294824
-0.0012754695
-0.051430802
-0.0013955858
-0.039063181
-0.0015316196
-0.025477662
-0.0016840565
-0.013320048
-0.0018486681
0.0043937707
-0.0020247012
0.023014193
-0.0022510278
0.039447252
-0.0024697136
0.058871729
-0.0027325162
0.032368998
-0.003014332
-0.12681542
-0.0029990185
-0.27391342
-0.0023955491
-0.29007147
-0.0025142463
-0.29170144
-0.0027246844
-0.28998215
-0.0029595611
-0.28625949
-0.0032339347
-0.2835278
-0.003527945
-0.28097701
-0.003851529
-0.28165021
-0.0041855902
-0.28366822
-0.004519277
-0.28679308
-0.0048786912
-0.28895525
-0.0052935163
-0.28548975
-0.0057458048
-0.28293711
-0.0062470128
-0.28313446
-0.0067694903
-0.28592251
-0.007361999
-0.28634892
-0.008036522
-0.28873148
-0.0087095652
-0.29169614
-0.0093766733
-0.010140509
-0.094910681
-0.00075131827
-0.090326207
-0.00081704451
-0.084555943
-0.00089118167
-0.077280275
-0.00097498338
-0.06884752
-0.0010675653
-0.060370065
-0.001168836
-0.052494786
-0.0012784395
-0.04329781
-0.0013982284
-0.031005276
-0.0015343966
-0.018713395
-0.0016851598
-0.0077837511
-0.0018502182
0.0094666055
-0.0020322903
0.028244398
-0.0022625086
0.043334516
-0.0024844214
0.059104555
-0.0027415349
0.022931326
-0.0030100105
-0.13851217
-0.0029975606
-0.27680982
-0.0024013303
-0.29153658
-0.002510517
-0.2940426
-0.0027207072
-0.29288885
-0.0029581395
-0.28804643
-0.0032372909
-0.28471327
-0.0035311603
-0.2824163
-0.0038490716
-0.28337678
-0.0041832882
-0.28595854
-0.0045174227
-0.28888918
-0.004877795
-0.2907317
-0.0052904865
-0.28721688
-0.0057452412
-0.28480884
-0.0062453449
-0.28503158
-0.0067665859
-0.28786519
-0.0073583319
-0.28827254
-0.0080326904
-0.29071782
-0.0087048306
-0.29368699
-0.0093705326
-0.010134474
-0.1004687
-0.00068962646
-0.096381735
-0.00074860368
-0.091194592
-0.00081378127
-0.085016347
-0.00088747237
-0.076950076
-0.00097124043
-0.067792668
-0.0010645888
-0.058613361
-0.0011664591
-0.050443693
-0.0012766182
-0.041539579
-0.0013960572
-0.03096443
-0.0015306827
-0.02088801
-0.0016776246
-0.009882943
-0.0018414281
0.0095895537
-0.0020270349
0.030083319
-0.0022628831
0.045369506
-0.0024859278
0.06047616
-0.0027424224
0.03063815
-0.003005791
-0.12932255
-0.003014558
-0.27574349
-0.0024072717
-0.29326441
-0.0025099789
-0.296088
-0.0027202362
-0.29504076
-0.0029585946
-0.28973015
-0.0032390029
-0.28617675
-0.0035328563
-0.28400235
-0.0038486892
-0.28486781
-0.0041831873
-0.28799298
-0.0045193568
-0.29085859
-0.0048796747
-0.29266291
-0.0052919974
-0.28904308
-0.0057484523
-0.28658697
-0.0062470855
-0.28682103
-0.0067668404
-0.28975092
-0.0073589984
-0.29013866
-0.0080336157
-0.29264043
-0.0087040987
-0.29561142
-0.0093655899
-0.01013136
-0.10520215
-0.00063103933
-0.10174325
-0.00068458803
-0.097356573
-0.00074174056
-0.091882936
-0.00080612174
-0.085337564
-0.00087970511
-0.076709998
-0.00096379166
-0.066598562
-0.0010570315
-0.056593822
-0.0011583959
-0.048206472
-0.0012687109
-0.039993376
-0.0013895166
-0.030953222
-0.0015233904
-0.022154892
-0.0016657208
-0.010992972
-0.0018267011
0.0097479159
-0.0020125711
0.031479336
-0.0022495596
0.046965505
-0.0024731209
0.061402868
-0.0027277884
0.028985294
-0.0029878211
-0.13309416
-0.0029835738
-0.27768687
-0.0024026777
-0.29497678
-0.0025102125
-0.29793402
-0.0027204856
-0.29699392
-0.0029595159
-0.29141316
-0.0032406505
-0.28780126
-0.0035349397
-0.28574288
-0.0038503215
-0.28665034
-0.0041852035
-0.28983969
-0.0045214115
-0.29264475
-0.0048819504
-0.29444499
-0.005294811
-0.29084409
-0.005752146
-0.2884197
-0.0062507032
-0.28865434
-0.0067712855
-0.29158003
-0.0073633593
-0.29201305
-0.0080372113
-0.29451883
-0.0087077123
-0.29749387
-0.0093674061
-0.010132836
-0.10851654
-0.0005770296
-0.10528181
-0.00062739317
-0.10172096
-0.0006810381
-0.097154497
-0.00073952126
-0.09178947
-0.00080444015
-0.085591776
-0.00087751342
-0.077156213
-0.00096002545
-0.06680187
-0.0010513131
-0.056238656
-0.0011517308
-0.046474506
-0.0012613576
-0.036901898
-0.0013819398
-0.028745645
-0.0015168909
-0.021659966
-0.0016610279
-0.010793975
-0.0018218971
0.01012177
-0.0020043262
0.031649749
-0.0022347315
0.046975863
-0.0024542799
0.061612113
-0.0027077239
0.02491551
-0.0029712262
-0.1405609
-0.0029721219
-0.28016142
-0.0024017002
-0.29654173
-0.0025109684
-0.29963283
-0.0027216188
-0.29891324
-0.0029616702
-0.29286023
-0.0032436347
-0.28911148
-0.0035368444
-0.28730195
-0.0038509292
-0.28824511
-0.0041859949
-0.29161212
-0.0045267553
-0.29438799
-0.0048854129
-0.29614998
-0.00529682
-0.29254975
-0.0057551601
-0.29012745
-0.0062546415
-0.29036766
-0.0067750253
-0.29333503
-0.0073672728
-0.29378249
-0.0080418772
-0.29632439
-0.0087120286
-0.29931314
-0.0093702202
-0.10847969
-0.00052792643
-0.10671498
-0.00057455276
-0.1045687
-0.00062471719
-0.10163652
-0.00067845953
-0.097686544
-0.0007368386
-0.092648468
-0.0008016201
-0.08653209
-0.00087408635
-0.079083898
-0.00095524985
-0.070590758
-0.0010450493
-0.061863089
-0.0011434231
-0.053209311
-0.0012509158
-0.042996703
-0.0013701111
-0.030342831
-0.0015058495
-0.018413423
-0.0016551618
-0.0073029428
-0.0018176911
0.010445704
-0.0019965854
0.02940053
-0.0022226227
0.044570871
-0.0024404033
0.060428053
-0.0026941564
0.029388838
-0.0029620943
-0.13379506
-0.0028867657
-0.28116159
-0.0023863633
-0.29837949
-0.0025137584
-0.30113063
-0.0027246601
-0.30015702
-0.0029629086
-0.29496341
-0.0032428541
-0.2913005
-0.0035363268
-0.28904309
-0.0038533836
-0.28981674
-0.0041887259
-0.29298667
-0.0045293013
-0.29596782
-0.0048874651
-0.29795326
-0.0053000654
-0.29434491
-0.005756951
-0.29179459
-0.0062575343
-0.29203649
-0.0067785949
-0.29503934
-0.0073700938
-0.29553703
-0.0080441904
-0.29807871
-0.0087152866
-0.0093730939
-0.11023901
-0.00048476919
-0.1090293
-0.00052659562
-0.10724861
-0.00057299226
-0.10495795
-0.00062317489
-0.10196893
-0.00067695861
-0.098088796
-0.00073559672
-0.093275161
-0.00080000452
-0.087524019
-0.0008720174
-0.080407532
-0.00095267766
-0.072096999
-0.0010415383
-0.063454501
-0.0011396273
-0.054788312
-0.001246975
-0.044771626
-0.0013657293
-0.032977071
-0.0014991018
-0.021546663
-0.0016433549
-0.0097711275
-0.0018039422
0.0092599266
-0.0019863732
0.029037209
-0.0022156487
0.044382923
-0.0024334441
0.061165159
-0.002686854
-0.0002788611
-0.0029538516
-0.17362716
-0.0027274979
-0.29036238
-0.0023559982
-0.30016448
-0.0025141897
-0.30263911
-0.002725516
-0.30157858
-0.0029632918
-0.29663814
-0.0032425005
-0.2930605
-0.0035363381
-0.2906704
-0.0038546313
-0.2914334
-0.0041894465
-0.29439818
-0.0045289963
-0.29753711
-0.0048889226
-0.29964003
-0.0053027376
-0.29603171
-0.0057589604
-0.29342565
-0.0062588749
-0.29367528
-0.0067800885
-0.29670843
-0.0073708821
-0.29723127
-0.0080451268
-0.29978769
-0.0087167691
-0.0093739429
-0.1106122
-0.00041167488
-0.1104861
-0.00044678558
-0.11021203
-0.00048571949
-0.10933498
-0.00052881068
-0.10740938
-0.00057648891
-0.10435843
-0.00062708494
-0.10119067
-0.00068062338
-0.097183228
-0.0007375689
-0.092470809
-0.00080117001
-0.087115633
-0.00087332322
-0.079965045
-0.00095470926
-0.070943095
-0.0010449903
-0.061571925
-0.0011432527
-0.052455941
-0.0012510653
-0.043011892
-0.0013712178
-0.034093854
-0.0015055989
-0.025862572
-0.001650128
-0.013649933
-0.0018124319
0.008008003
-0.0019942542
0.029226752
-0.0022177775
0.045097099
-0.0024347102
0.061644735
-0.002688156
-0.019698664
-0.0029508844
-0.19810183
-0.0026257516
-0.29441383
-0.0023453982
-0.30168323
-0.0025141592
-0.3040722
-0.0027255397
-0.30303433
-0.0029632176
-0.29824383
-0.0032423349
-0.29479767
-0.0035361656
-0.29242804
-0.0038542486
-0.29337822
-0.004188443
-0.29602201
-0.0045261646
-0.2991753
-0.0048886086
-0.3011985
-0.0053029314
-0.29764966
-0.0057572152
-0.29513115
-0.0062583136
-0.29538706
-0.0067795308
-0.29839536
-0.0073691221
-0.29894227
-0.0080429643
-0.30152512
-0.0087153377
-0.0093730019
-0.11199958
-0.00035198202
-0.11127738
-0.00038162176
-0.11039628
-0.00041395695
-0.10943546
-0.00044940139
-0.10805819
-0.00048822025
-0.10631623
-0.00053055129
-0.10423137
-0.00057697248
-0.10168686
-0.00062716
-0.098371813
-0.00068139431
-0.094742803
-0.00073999762
-0.090611149
-0.00080477289
-0.085737562
-0.00087747643
-0.0791403
-0.00095903001
-0.071354197
-0.0010495141
-0.062727552
-0.0011486972
-0.053440569
-0.0012573025
-0.041700863
-0.0013773925
-0.027831028
-0.0015134473
-0.014460068
-0.0016612381
-0.0030093974
-0.0018242476
0.012242327
-0.0020024395
0.028813913
-0.0022233924
0.043331964
-0.0024405323
0.058930299
-0.0026916695
-0.035601199
-0.0029489094
-0.21512432
-0.0025838976
-0.29717772
-0.0023422793
-0.30326326
-0.0025140679
-0.30559918
-0.0027253477
-0.30454543
-0.002962842
-0.29981488
-0.0032417687
-0.29644041
-0.0035356106
-0.29414749
-0.0038530541
-0.29498478
-0.0041869467
-0.2978032
-0.0045253849
-0.30081159
-0.0048884805
-0.30281532
-0.0053031699
-0.29930701
-0.0057562544
-0.2968021
-0.0062563015
-0.29706328
-0.0067772898
-0.30009274
-0.0073669706
-0.30064826
-0.0080401091
-0.30324001
-0.0087126172
-0.0093710234
-0.098579873
-0.00020814165
-0.11218976
-0.00027655874
-0.11339249
-0.00030183195
-0.11308688
-0.00032643045
-0.11245465
-0.00035295042
-0.1119686
-0.0003822506
-0.11141342
-0.0004141706
-0.11086536
-0.00044951561
-0.10997691
-0.00048838625
-0.10872954
-0.00053089913
-0.10713391
-0.00057745519
-0.10485026
-0.00062771432
-0.10136503
-0.00068185197
-0.097061617
-0.00074050332
-0.0917414
-0.00080525546
-0.085292587
-0.00087805842
-0.077034396
-0.00095995475
-0.067145834
-0.0010511816
-0.057244724
-0.0011513153
-0.048134854
-0.0012605388
-0.038561392
-0.001380305
-0.027861922
-0.0015149082
-0.017904034
-0.0016606052
-0.0070622195
-0.0018218256
0.011606851
-0.0020029986
0.031756677
-0.0022326105
0.046827722
-0.0024529832
0.059931446
-0.002703004
-0.038337535
-0.0029565929
-0.21900288
-0.0025994982
-0.29839652
-0.0023430496
-0.30463236
-0.0025129172
-0.30724788
-0.0027243969
-0.30657164
-0.0029635141
-0.30138863
-0.0032443631
-0.29771248
-0.0035373215
-0.29578863
-0.0038523522
-0.29659064
-0.0041865336
-0.29961079
-0.0045281738
-0.30233363
-0.0048882705
-0.3043761
-0.0053014173
-0.30102314
-0.0057561539
-0.29855067
-0.0062552227
-0.2987854
-0.006776537
-0.30173285
-0.0073644588
-0.302353
-0.0080372121
-0.30493396
-0.0087113318
-0.009370528
-0.099988212
-0.00020885223
-0.11387926
-0.0002772687
-0.11504927
-0.00030247564
-0.11477875
-0.00032685487
-0.11409262
-0.00035332613
-0.11355963
-0.00038244803
-0.11296178
-0.00041420026
-0.11247823
-0.00044946859
-0.11169583
-0.00048846443
-0.11040154
-0.0005311864
-0.10820081
-0.00057814415
-0.10552744
-0.00062853171
-0.10210057
-0.00068217587
-0.097704483
-0.00074038878
-0.092467249
-0.00080511422
-0.086516467
-0.00087815638
-0.078736309
-0.00096031726
-0.06917593
-0.0010516291
-0.059313721
-0.0011519792
-0.049748514
-0.0012616907
-0.039583796
-0.0013825436
-0.029208221
-0.0015167655
-0.019871109
-0.0016595873
-0.0086967932
-0.0018202245
0.010924933
-0.0020026844
0.031456912
-0.0022333035
0.046643222
-0.0024542515
0.061218622
-0.0027061246
-0.032126555
-0.0029595236
-0.21472154
-0.0025901895
-0.29962275
-0.0023430668
-0.30616758
-0.0025126405
-0.30875546
-0.0027233862
-0.30818023
-0.0029622874
-0.30311246
-0.0032442575
-0.29923765
-0.0035388949
-0.29715758
-0.0038537539
-0.29795119
-0.0041863347
-0.30089996
-0.00452648
-0.30394361
-0.004888963
-0.30604066
-0.0053011565
-0.302657
-0.0057534368
-0.30010818
-0.0062544409
-0.30034476
-0.0067748764
-0.30334908
-0.0073634048
-0.30396397
-0.0080359012
-0.30658842
-0.0087095591
-0.0093681595
-0.10053495
-0.00020908359
-0.11438749
-0.00027769989
-0.11551814
-0.00030293519
-0.11516868
-0.00032727165
-0.11479957
-0.00035361257
-0.11416171
-0.00038241726
-0.1138009
-0.00041414053
-0.11353931
-0.00044934695
-0.11294869
-0.00048851328
-0.11181252
-0.00053148554
-0.10969008
-0.00057869884
-0.1067545
-0.00062938901
-0.10309186
-0.00068319828
-0.098411264
-0.00074153697
-0.092851587
-0.00080626732
-0.086738398
-0.00087938504
-0.078853557
-0.00096178837
-0.068883995
-0.0010533042
-0.05854244
-0.0011538294
-0.048590553
-0.0012639211
-0.038600761
-0.0013853951
-0.02945425
-0.0015195962
-0.021333139
-0.0016615842
-0.010011173
-0.0018217236
0.010588384
-0.0020048492
0.031864745
-0.0022352495
0.047408633
-0.0024566312
0.060583277
-0.0027076184
-0.043686918
-0.0029531746
-0.22750052
-0.0025391508
-0.30193102
-0.0023390154
-0.30770363
-0.0025118959
-0.31033715
-0.0027223582
-0.30986272
-0.0029614558
-0.30471536
-0.0032431391
-0.30070658
-0.0035381636
-0.29860987
-0.0038525351
-0.29936466
-0.0041848622
-0.30229272
-0.004525051
-0.30544915
-0.00488834
-0.30766794
-0.0053013319
-0.30425912
-0.0057529009
-0.3016465
-0.0062534338
-0.30188605
-0.0067740333
-0.30491932
-0.00736329
-0.30557033
-0.0080352935
-0.30820959
-0.0087084001
-0.0093661494
-0.10061555
-0.00020875606
-0.11463755
-0.00027747293
-0.1158294
-0.00030267497
-0.11556969
-0.00032708135
-0.11499677
-0.00035337753
-0.11447436
-0.00038236646
-0.11393168
-0.00041397632
-0.113536
-0.00044913017
-0.11279783
-0.00048813257
-0.11140996
-0.00053123586
-0.10897281
-0.00057844223
-0.10596193
-0.00062902011
-0.10220482
-0.00068263768
-0.097426897
-0.00074092411
-0.091976693
-0.00080546399
-0.085814158
-0.00087829961
-0.077651241
-0.00096068387
-0.06759045
-0.0010519525
-0.056976019
-0.0011522457
-0.046610927
-0.001262598
-0.035868249
-0.0013847733
-0.026378697
-0.0015198118
-0.01822242
-0.0016624677
-0.0072094889
-0.0018228454
0.012339978
-0.0020064453
0.032765106
-0.0022353596
0.047734532
-0.0024565115
0.058896172
-0.0027063849
-0.053418767
-0.0029467545
-0.23709647
-0.0025209207
-0.30367442
-0.00233794
-0.30895025
-0.0025111611
-0.31167672
-0.0027215701
-0.31146272
-0.0029612623
-0.30622874
-0.0032436914
-0.30202538
-0.0035382858
-0.30017259
-0.0038512923
-0.3009411
-0.0041832692
-0.30391381
-0.0045244022
-0.30693805
-0.0048880195
-0.30905901
-0.0053003899
-0.30576207
-0.0057540566
-0.30325521
-0.0062542542
-0.30348389
-0.0067755342
-0.30645904
-0.0073632577
-0.30717581
-0.0080358875
-0.30982948
-0.0087096421
-0.0093669657
-0.10106657
-0.00020757891
-0.11529769
-0.00027630389
-0.11644483
-0.00030149778
-0.1161415
-0.00032587697
-0.1155179
-0.00035228291
-0.11496454
-0.00038137491
-0.11441104
-0.0004130918
-0.11406124
-0.0004482206
-0.11345007
-0.00048703977
-0.11215025
-0.00052948163
-0.10971868
-0.00057622193
-0.10638079
-0.00062648866
-0.10260406
-0.00068016874
-0.097894289
-0.00073867078
-0.092509463
-0.00080323013
-0.086309958
-0.00087582202
-0.077990196
-0.00095752838
-0.06784771
-0.0010482128
-0.057150034
-0.0011480135
-0.04662463
-0.0012577493
-0.035706557
-0.001379223
-0.026129952
-0.001514235
-0.018005391
-0.0016577164
-0.0070067889
-0.0018179419
0.012546125
-0.0019984241
0.032890191
-0.0022249966
0.047922035
-0.0024448212
0.059652376
-0.0026944739
-0.05139814
-0.0029370786
-0.23628215
-0.0025197645
-0.30505528
-0.0023379427
-0.31038121
-0.0025109286
-0.31310471
-0.0027213213
-0.31292315
-0.0029609847
-0.30769277
-0.0032438819
-0.30341705
-0.0035378582
-0.30158639
-0.0038500867
-0.30241657
-0.0041813536
-0.30546996
-0.0045240469
-0.30847287
-0.0048876534
-0.31052899
-0.0052995644
-0.30720447
-0.0057536312
-0.30472481
-0.0062535732
-0.30496835
-0.0067749698
-0.30796337
-0.0073630969
-0.30870558
-0.0080346205
-0.31138744
-0.0087093987
-0.0093669926
-0.10025498
-0.00020675867
-0.11435229
-0.00027575753
-0.11560098
-0.0003010352
-0.1152859
-0.00032567986
-0.11467671
-0.00035240313
-0.11408281
-0.00038156137
-0.11350984
-0.00041331048
-0.11297904
-0.00044844342
-0.11213076
-0.00048729283
-0.1107983
-0.00053002343
-0.10862081
-0.00057685528
-0.10597466
-0.00062722177
-0.10243628
-0.00068075468
-0.097858803
-0.00073876606
-0.092464679
-0.00080300239
-0.086200845
-0.0008750644
-0.078358726
-0.00095602809
-0.069044937
-0.0010457249
-0.059063937
-0.0011443797
-0.049017883
-0.0012531031
-0.038149249
-0.0013741158
-0.027109605
-0.0015101577
-0.017220238
-0.0016563147
-0.0060895165
-0.001818937
0.012500448
-0.0019991911
0.03228815
-0.0022229791
0.04727992
-0.0024406379
0.059234041
-0.0026903043
-0.053010577
-0.0029323548
-0.23864201
-0.0025021545
-0.30665172
-0.0023375396
-0.31184167
-0.0025122818
-0.31437693
-0.0027225682
-0.31408285
-0.0029616246
-0.30919235
-0.0032436396
-0.30510139
-0.0035376014
-0.30317321
-0.0038505661
-0.30394032
-0.004181491
-0.30683759
-0.0045243479
-0.30988628
-0.0048878944
-0.31200975
-0.0053003123
-0.30870375
-0.0057541665
-0.30620557
-0.0062534567
-0.30645226
-0.0067750935
-0.30944877
-0.0073619093
-0.31022142
-0.008033495
-0.31292614
-0.0087083635
-0.0093646914
-0.10000767
-0.00020707484
-0.11446158
-0.00027638168
-0.11570024
-0.00030167412
-0.11531046
-0.00032622635
-0.11458149
-0.00035272797
-0.11388861
-0.00038217438
-0.11310147
-0.00041416279
-0.11238422
-0.00044945911
-0.11134408
-0.00048848156
-0.1097698
-0.00053110902
-0.10730568
-0.00057803111
-0.10407632
-0.00062872071
-0.10071163
-0.00068250649
-0.096630947
-0.00074105751
-0.092057419
-0.00080564482
-0.086777975
-0.00087789866
-0.080030448
-0.00095898792
-0.071647988
-0.0010486335
-0.062205424
-0.0011472683
-0.052031438
-0.0012564295
-0.039925907
-0.0013780997
-0.02699655
-0.0015139854
-0.015048007
-0.0016581296
-0.0032653171
-0.0018200007
0.013737751
-0.0020017238
0.031511228
-0.0022249855
0.045842836
-0.00244233
0.057751736
-0.0026928969
-0.058240203
-0.0029225512
-0.24397168
-0.0024581227
-0.30825888
-0.0023355979
-0.31323025
-0.0025137615
-0.31564006
-0.0027243007
-0.31522866
-0.002962521
-0.31057765
-0.0032429202
-0.30676631
-0.0035386167
-0.30457851
-0.0038531658
-0.30532345
-0.0041838262
-0.30810895
-0.0045241405
-0.31125324
-0.0048899505
-0.31336767
-0.0053030287
-0.31007673
-0.0057546538
-0.30760637
-0.0062554702
-0.30786855
-0.0067771752
-0.3108715
-0.0073632541
-0.31166735
-0.0080343234
-0.31438844
-0.00870942
-0.0093659589
-0.10034606
-0.00020892706
-0.1147067
-0.0002783273
-0.1158779
-0.00030349867
-0.11557111
-0.00032780178
-0.11492071
-0.00035382499
-0.11434849
-0.00038275435
-0.11379309
-0.00041430611
-0.11344244
-0.00044972515
-0.11279472
-0.00048906657
-0.11146652
-0.000531993
-0.10909443
-0.00057930571
-0.10574096
-0.00062993412
-0.10201866
-0.0006837539
-0.097418568
-0.00074257745
-0.092238811
-0.00080768905
-0.086385842
-0.00088090437
-0.078575661
-0.00096319024
-0.068807288
-0.0010547499
-0.058412464
-0.0011559053
-0.047910524
-0.0012674027
-0.037059391
-0.0013913661
-0.027390319
-0.0015264162
-0.019087587
-0.0016672022
-0.0075856432
-0.0018229295
0.012147246
-0.0020056339
0.032339953
-0.002231968
0.047918597
-0.0024527409
0.055343151
-0.0027034198
-0.075154004
-0.002900502
-0.25894626
-0.0023938603
-0.31017616
-0.0023316978
-0.31449629
-0.0025121857
-0.31701224
-0.0027222141
-0.31672761
-0.0029614687
-0.31184464
-0.0032442943
-0.30769928
-0.0035402493
-0.30578166
-0.0038530099
-0.30657849
-0.0041836452
-0.3094719
-0.0045243935
-0.31252798
-0.0048907621
-0.31465016
-0.0053039461
-0.31143324
-0.0057552259
-0.30894031
-0.0062559457
-0.30919628
-0.0067770706
-0.31222256
-0.0073641295
-0.31302663
-0.0080353943
-0.31575962
-0.0087118176
-0.009368275
-0.10317457
-0.00021162875
-0.11696302
-0.00028111695
-0.11816909
-0.00030617596
-0.11783865
-0.00033011782
-0.11724973
-0.0003558996
-0.11675046
-0.00038431065
-0.11626639
-0.00041547144
-0.11593009
-0.00045099987
-0.11499763
-0.00049076511
-0.11346269
-0.00053456452
-0.11131625
-0.00058257558
-0.10844393
-0.00063357404
-0.10386797
-0.00068786719
-0.098327171
-0.00074699453
-0.092108666
-0.00081197015
-0.085729578
-0.00088519765
-0.077476193
-0.00096774352
-0.066248722
-0.0010597097
-0.053619323
-0.0011617575
-0.040797132
-0.0012754925
-0.028235302
-0.0014032552
-0.019168936
-0.0015415853
-0.013937704
-0.0016838052
-0.0042004329
-0.0018383036
0.015659144
-0.0020254196
0.035680294
-0.002250572
0.051151897
-0.002472236
0.049360202
-0.0027199896
-0.095587858
-0.0028853941
-0.27324963
-0.0023560841
-0.3121959
-0.0023301694
-0.31577868
-0.0025104306
-0.31865506
-0.0027205043
-0.31878647
-0.0029610881
-0.31318353
-0.0032456884
-0.30861847
-0.0035406591
-0.30697648
-0.0038500786
-0.30794612
-0.0041810171
-0.31117634
-0.0045235856
-0.31391534
-0.0048896275
-0.3159717
-0.0053016593
-0.31289
-0.005755504
-0.31040013
-0.0062540241
-0.31062114
-0.0067748098
-0.31359903
-0.0073623401
-0.31442255
-0.0080343509
-0.31714197
-0.0087111684
-0.009369291
-0.10222346
-0.00021330798
-0.11634746
-0.00028358524
-0.11756242
-0.00030866205
-0.11719407
-0.00033223705
-0.1165684
-0.00035724055
-0.11603045
-0.00038455835
-0.11554897
-0.0004148979
-0.11538863
-0.0004497093
-0.11478106
-0.00049007119
-0.11337729
-0.00053588039
-0.11042771
-0.00058539317
-0.1059819
-0.00063729889
-0.10052765
-0.00069104852
-0.094848825
-0.00074798467
-0.089237547
-0.00081145177
-0.083613431
-0.00088406876
-0.076054373
-0.00096670732
-0.065747551
-0.0010583988
-0.053168973
-0.0011597372
-0.038401117
-0.0012740441
-0.022358223
-0.0014071846
-0.010963471
-0.00155265
-0.0054118387
-0.0016988797
0.0022825737
-0.0018553976
0.019233535
-0.0020388002
0.03734002
-0.0022590124
0.051218629
-0.0024804724
0.046330682
-0.0027287986
-0.10131638
-0.0029085674
-0.27678469
-0.0023891025
-0.31338879
-0.0023320267
-0.31669631
-0.0025098054
-0.31963786
-0.0027196043
-0.32005921
-0.002960967
-0.31450267
-0.0032462581
-0.31007467
-0.0035408525
-0.30853233
-0.0038496634
-0.30949601
-0.0041807409
-0.31266238
-0.0045239859
-0.31524321
-0.004888282
-0.31718686
-0.0052989838
-0.31426112
-0.0057545526
-0.311853
-0.0062531894
-0.31206011
-0.006775093
-0.31492129
-0.0073599137
-0.31582209
-0.0080328313
-0.31856244
-0.0087129485
-0.10648015
-0.00021419109
-0.12078811
-0.00028394281
-0.12167006
-0.00030884101
-0.12094755
-0.00033210786
-0.11998269
-0.00035702576
-0.11912874
-0.00038416324
-0.11840462
-0.00041451699
-0.11827092
-0.00044958869
-0.11779609
-0.00048993958
-0.1160873
-0.0005354971
-0.11244243
-0.00058529705
-0.10713895
-0.00063745288
-0.10157107
-0.00069091143
-0.095635964
-0.00074781048
-0.090140149
-0.00081118312
-0.085307141
-0.00088380888
-0.079011298
-0.00096627671
-0.069638355
-0.0010575545
-0.057166419
-0.0011585086
-0.041581248
-0.0012727826
-0.022964246
-0.0014065472
-0.0085561544
-0.0015532509
-0.0006616305
-0.001700459
0.0080711894
-0.0018572236
0.02376911
-0.0020409278
0.039600066
-0.0022606818
0.052296468
-0.0024817375
0.056459853
-0.0027291067
-0.077547421
-0.0029460011
-0.26295747
-0.002465166
-0.31434766
-0.0023348065
-0.31806784
-0.00250862
-0.32113582
-0.0027179583
-0.32171804
-0.0029595094
-0.31610585
-0.0032467321
-0.31131877
-0.0035421563
-0.3096049
-0.0038500247
-0.31058507
-0.0041785898
-0.31385932
-0.0045214658
-0.31677476
-0.0048883148
-0.31866923
-0.0052981571
-0.31557289
-0.0057520857
-0.31309177
-0.0062522209
-0.3133161
-0.0067725482
-0.31630549
-0.0073595922
-0.31714385
-0.0080321588
-0.0087098105
-0.10491731
-0.00021435642
-0.11913921
-0.00028448278
-0.12015417
-0.00030930428
-0.11955413
-0.00033239038
-0.11874553
-0.00035726199
-0.11796124
-0.00038437887
-0.11741911
-0.00041463589
-0.1173512
-0.0004495713
-0.11680851
-0.00049010246
-0.11525335
-0.00053579195
-0.11193446
-0.00058577386
-0.10690856
-0.00063800055
-0.10136232
-0.00069190592
-0.095363563
-0.00074927073
-0.08961223
-0.00081297553
-0.08445598
-0.00088550169
-0.077874959
-0.00096762574
-0.068278238
-0.0010582804
-0.055658494
-0.0011589952
-0.039961383
-0.0012735643
-0.021739603
-0.0014085911
-0.0081358493
-0.0015568467
-0.0010951806
-0.0017052218
0.0070106748
-0.0018622313
0.022880995
-0.0020454916
0.039323918
-0.0022636134
0.05219855
-0.0024843145
0.059616079
-0.002729941
-0.063102945
-0.002969185
-0.25188005
-0.0026532272
-0.31502823
-0.0023553735
-0.31930268
-0.0025093636
-0.32232493
-0.0027177749
-0.32294943
-0.0029585545
-0.31759213
-0.0032443495
-0.31279455
-0.0035409689
-0.31106243
-0.0038481343
-0.3119725
-0.0041763741
-0.31518793
-0.0045191792
-0.31820814
-0.0048878479
-0.3201309
-0.0052984458
-0.31697196
-0.0057509346
-0.31444602
-0.0062514196
-0.31466985
-0.0067718189
-0.31767529
-0.0073589227
-0.31852212
-0.0080297218
-0.0087072112
-0.10639414
-0.00021289253