/*--------------------------------*- C++ -*----------------------------------*\
| =========                 |                                                 |
| \\      /  F ield         | OpenFOAM: The Open Source CFD Toolbox           |
|  \\    /   O peration     | Version:  2506                                  |
|   \\  /    A nd           | Website:  www.openfoam.com                      |
|    \\/     M anipulation  |                                                 |
\*---------------------------------------------------------------------------*/
FoamFile
{
    version     2.0;
    format      ascii;
    arch        "LSB;label=32;scalar=64";
    class       volScalarField;
    location    "3e-05";
    object      rho;
}
// * * * * * * * * * * * * * * * * * * * * * * * * * * * * * * * * * * * * * //

dimensions      [1 -3 0 0 0 0 0];

internalField   nonuniform List<scalar> 
13761
(
0.61598808
0.61596931
0.61592811
0.61585745
0.61575659
0.61562169
0.6154684
0.61531432
0.61518618
0.61508198
0.61499851
0.61492692
0.61486545
0.61481141
0.61476682
0.61473259
0.61471222
0.6147084
0.61472621
0.6147702
0.614847
0.61496332
0.61512804
0.61535086
0.6156443
0.61602226
0.61650151
0.61709948
0.61783496
0.61872501
0.61978271
0.6210071
0.62237443
0.62382712
0.62526542
0.62656258
0.62760102
0.62830684
0.62865337
0.62865232
0.62833125
0.62779319
0.61634782
0.61632316
0.61626911
0.61617794
0.61604876
0.61587876
0.61568877
0.61550502
0.61535621
0.615238
0.61514428
0.61506543
0.61499869
0.61494126
0.61489436
0.61485886
0.6148379
0.61483395
0.61485182
0.61489588
0.6149725
0.61508806
0.61525115
0.61547117
0.61576033
0.61613232
0.61660377
0.61719231
0.61791688
0.61879501
0.61984019
0.6210522
0.6224076
0.62384792
0.62527381
0.6265618
0.627599
0.62831457
0.62867898
0.61650762
0.61648223
0.61642639
0.61633195
0.61619732
0.61601963
0.61582069
0.61562994
0.61547566
0.61535295
0.61525499
0.61517246
0.61510229
0.61504194
0.61499203
0.61495359
0.61492952
0.61492217
0.61493622
0.61497597
0.61504767
0.61515761
0.6153143
0.61552721
0.61580888
0.6161734
0.61663773
0.61722025
0.61794104
0.61881847
0.61986606
0.6210823
0.62244291
0.62389013
0.62532703
0.62663397
0.61695246
0.61692162
0.61685319
0.61673735
0.61657057
0.61635025
0.61610149
0.61586273
0.61566881
0.61551564
0.61539373
0.61529163
0.61520474
0.61512966
0.61506666
0.61501613
0.6149808
0.61496281
0.61496688
0.61499737
0.61506069
0.61516333
0.61531409
0.61552265
0.61580132
0.61616455
0.6166312
0.61722117
0.61795556
0.61885486
0.61993419
0.61736877
0.61732613
0.61723432
0.61708307
0.61687184
0.61660074
0.61630169
0.61601649
0.61578688
0.61560746
0.61546761
0.61535238
0.61525595
0.61517336
0.6151046
0.61504937
0.61501042
0.61498991
0.61499293
0.61502446
0.61509205
0.61520411
0.61537216
0.61560932
0.61579853
0.70987465
0.70990473
0.70996385
0.71004336
0.71009623
0.71012257
0.71013865
0.71014953
0.71015801
0.7101658
0.71017526
0.7101871
0.71020258
0.71022137
0.71024296
0.71026651
0.7102903
0.71031244
0.71032975
0.71033889
0.71033455
0.71031016
0.71025657
0.71016281
0.71001572
0.70980097
0.70950041
0.70909395
0.70855629
0.70785989
0.70697696
0.70589297
0.70462523
0.7032473
0.70190594
0.70080395
0.7001389
0.6999686
0.7001
0.70024942
0.70047441
0.70094274
0.70146763
0.70202012
0.70262577
0.70203644
0.70156877
0.70181812
0.70105987
0.69862956
0.69580408
0.69477721
0.69452295
0.68841489
0.68292916
0.68915154
0.70145681
0.7013187
0.686564
0.673022
0.66689276
0.66530134
0.66508872
0.66507204
0.66507068
0.66507055
0.66507054
0.66507053
0.66507055
0.66507056
0.66507056
0.66507055
0.70955516
0.70959159
0.70966305
0.70975941
0.70982639
0.70986232
0.70988538
0.70990172
0.70991467
0.70992628
0.70993906
0.70995379
0.7099718
0.70999283
0.71001639
0.71004165
0.7100669
0.71009022
0.71010845
0.71011814
0.710114
0.71008945
0.71003544
0.70994108
0.70979335
0.70957816
0.70927758
0.70887184
0.70833601
0.7076431
0.70676587
0.70568973
0.70443124
0.70306289
0.70173022
0.70063456
0.69997246
0.69980116
0.69992915
0.70007557
0.70029785
0.70076366
0.70128791
0.7018395
0.70244093
0.70185384
0.70138813
0.7016376
0.70088154
0.698456
0.69565296
0.69461042
0.69434981
0.6883043
0.68282108
0.68895317
0.70117924
0.70115135
0.68654285
0.67304444
0.66690555
0.66530428
0.66508907
0.66507208
0.66507068
0.66507055
0.66507054
0.66507053
0.66507055
0.66507056
0.66507056
0.66507055
0.66507054
0.66507054
0.66507054
0.66507054
0.66507054
0.66507054
0.66507055
0.66507055
0.66507055
0.66507055
0.70920461
0.70924479
0.70932419
0.70943231
0.70951017
0.70955391
0.709583
0.70960433
0.70962152
0.70963697
0.70965324
0.70967125
0.70969236
0.70971634
0.70974274
0.70977074
0.70979874
0.7098248
0.70984573
0.7098581
0.70985668
0.70983488
0.70978367
0.70969208
0.70954698
0.70933429
0.70903607
0.70863257
0.70809927
0.70740978
0.70653767
0.70546944
0.70422231
0.70286803
0.70154926
0.70046322
0.69980308
0.69962716
0.69975147
0.69990001
0.70012297
0.70058265
0.7011054
0.70165634
0.70225122
0.70167091
0.70120645
0.70145513
0.70070371
0.69829005
0.6955074
0.69445906
0.69419391
0.68820441
0.68274172
0.68881119
0.70096915
0.70100508
0.68650479
0.6730509
0.66691285
0.66530636
0.66508939
0.66507212
0.66507069
0.66507056
0.66507054
0.66507053
0.66507055
0.66507056
0.66507056
0.66507055
0.66507054
0.66507054
0.66507054
0.66507054
0.66507054
0.66507054
0.66507055
0.66507055
0.66507055
0.66507055
0.66507055
0.66507055
0.66507055
0.66507055
0.66507054
0.66507054
0.70915118
0.70918327
0.70924651
0.70933167
0.70938949
0.70941956
0.70943863
0.70945202
0.7094627
0.70947245
0.70948371
0.70949717
0.70951412
0.70953422
0.70955701
0.70958163
0.70960644
0.70962948
0.70964763
0.70965746
0.70965369
0.70962975
0.70957664
0.70948355
0.70933754
0.70912483
0.70882778
0.70842686
0.70789761
0.70721363
0.70634841
0.70528781
0.704048
0.70269989
0.701386
0.70030322
0.69964391
0.69946477
0.6995822
0.69972509
0.69994602
0.70040308
0.700921
0.70147478
0.70207075
0.70149586
0.70103424
0.70128485
0.70053963
0.69813487
0.69537194
0.69431503
0.69405154
0.68811347
0.68266056
0.68865633
0.70074874
0.70086139
0.68647526
0.67306289
0.66692246
0.66530887
0.66508975
0.66507218
0.6650707
0.66507056
0.66507054
0.66507053
0.66507055
0.66507056
0.66507056
0.66507055
0.66507055
0.66507054
0.66507054
0.66507054
0.66507054
0.66507054
0.66507055
0.66507055
0.66507055
0.66507055
0.66507055
0.66507055
0.66507055
0.66507055
0.66507054
0.66507054
0.66507055
0.66507055
0.66507055
0.66507055
0.70888783
0.70892413
0.70899539
0.70909144
0.70915827
0.70919427
0.70921749
0.70923394
0.70924691
0.70925846
0.70927114
0.70928572
0.7093035
0.7093242
0.70934739
0.70937222
0.70939706
0.70941996
0.7094378
0.70944719
0.7094429
0.70941839
0.70936479
0.70927134
0.70912521
0.70891271
0.70861635
0.70821678
0.70768986
0.70700956
0.70614976
0.70509647
0.70386559
0.70252724
0.70122247
0.70014604
0.69948876
0.6993072
0.69942071
0.69956132
0.69978052
0.70023426
0.70075032
0.70130357
0.70189707
0.70132667
0.70086765
0.70111861
0.70037581
0.69798252
0.69523861
0.69417664
0.69390991
0.68802265
0.68258656
0.68851607
0.70054318
0.70071753
0.68643854
0.67307046
0.66693018
0.66531097
0.66509004
0.66507221
0.6650707
0.66507056
0.66507054
0.66507053
0.66507055
0.66507056
0.66507056
0.66507055
0.66507055
0.66507054
0.66507054
0.66507054
0.66507054
0.66507054
0.66507055
0.66507055
0.66507055
0.66507055
0.66507055
0.66507055
0.66507055
0.66507055
0.66507054
0.66507054
0.66507055
0.66507055
0.66507055
0.66507055
0.66507054
0.66507054
0.66507055
0.70876343
0.70879543
0.70885848
0.7089436
0.70900187
0.70903182
0.70905053
0.7090634
0.7090734
0.70908235
0.70909263
0.70910496
0.70912062
0.70913926
0.70916046
0.70918333
0.70920625
0.70922725
0.70924324
0.70925086
0.7092449
0.70921891
0.70916411
0.70906989
0.70892354
0.70871154
0.70841654
0.70801929
0.70749573
0.70681978
0.70596529
0.70491804
0.70369358
0.70236149
0.70106209
0.69998916
0.69933223
0.69914724
0.69925527
0.69939239
0.69961039
0.70006084
0.70057347
0.70112873
0.70172261
0.7011567
0.70070201
0.70095236
0.70021436
0.69783322
0.69510299
0.69403654
0.69376909
0.68793151
0.68250788
0.68836731
0.70032975
0.70057311
0.68640618
0.6730821
0.66693973
0.66531339
0.66509034
0.66507225
0.66507071
0.66507056
0.66507054
0.66507053
0.66507055
0.66507056
0.66507056
0.66507055
0.66507055
0.66507054
0.66507054
0.66507054
0.66507054
0.66507054
0.66507055
0.66507055
0.66507055
0.66507055
0.66507055
0.66507055
0.66507055
0.66507055
0.66507054
0.66507054
0.66507055
0.66507055
0.66507055
0.66507055
0.66507054
0.66507055
0.66507055
0.66507055
0.66507055
0.70845594
0.70849242
0.70856434
0.70866169
0.7087305
0.70876793
0.70879213
0.70880931
0.70882287
0.70883486
0.70884782
0.70886255
0.70888038
0.70890104
0.7089241
0.70894873
0.70897332
0.70899593
0.70901352
0.70902271
0.70901835
0.70899401
0.70894092
0.70884848
0.70870399
0.70849392
0.70820095
0.70780595
0.70728507
0.70661267
0.70576309
0.70472259
0.70350673
0.70218436
0.70089407
0.69982732
0.69917192
0.69898443
0.69908965
0.69922594
0.69944333
0.69989054
0.70040276
0.70095616
0.70154804
0.70098549
0.7005333
0.70078205
0.70004804
0.69768076
0.69496573
0.69389811
0.6936265
0.68783864
0.68243339
0.68823124
0.70012863
0.70043022
0.68636674
0.6730872
0.66694682
0.66531545
0.66509064
0.66507229
0.66507071
0.66507056
0.66507054
0.66507053
0.66507055
0.66507056
0.66507056
0.66507055
0.66507055
0.66507054
0.66507054
0.66507054
0.66507054
0.66507054
0.66507055
0.66507055
0.66507055
0.66507055
0.66507055
0.66507055
0.66507055
0.66507055
0.66507054
0.66507054
0.66507055
0.66507055
0.66507055
0.66507055
0.66507054
0.66507055
0.66507055
0.66507055
0.66507055
0.66507055
0.66507055
0.7083103
0.70834231
0.70840565
0.70849147
0.708551
0.70858182
0.70860115
0.70861463
0.70862519
0.70863473
0.70864562
0.7086586
0.70867491
0.7086942
0.70871606
0.70873965
0.70876332
0.70878515
0.70880207
0.70881071
0.70880596
0.70878139
0.70872832
0.70863624
0.70849256
0.70828389
0.70799308
0.70760108
0.70708412
0.70641652
0.70557259
0.70453828
0.70332871
0.70201199
0.70072601
0.6996617
0.69900601
0.69881538
0.69891609
0.69904959
0.6992658
0.69970985
0.70021944
0.70077393
0.70136526
0.7008079
0.7003612
0.70060649
0.69987744
0.69752532
0.69482574
0.69375525
0.69347872
0.68774383
0.68235204
0.68807802
0.69990857
0.70028015
0.68633253
0.67309895
0.66695683
0.66531814
0.66509104
0.66507234
0.66507072
0.66507056
0.66507054
0.66507053
0.66507055
0.66507056
0.66507056
0.66507055
0.66507055
0.66507054
0.66507054
0.66507054
0.66507054
0.66507054
0.66507055
0.66507055
0.66507055
0.66507055
0.66507055
0.66507055
0.66507055
0.66507055
0.66507054
0.66507054
0.66507055
0.66507055
0.66507055
0.66507055
0.66507054
0.66507055
0.66507055
0.66507055
0.66507055
0.66507055
0.66507055
0.66507055
0.66507055
0.70803305
0.70806872
0.70813902
0.70823431
0.70830164
0.70833792
0.70836115
0.70837756
0.7083904
0.70840172
0.70841408
0.70842823
0.70844548
0.70846557
0.70848807
0.70851216
0.70853625
0.7085584
0.70857559
0.70858448
0.70857999
0.70855574
0.7085031
0.70841163
0.70826877
0.70806117
0.70777175
0.70738162
0.70686724
0.70620336
0.70536476
0.7043378
0.7031375
0.70183113
0.70055486
0.69949723
0.6988434
0.69865035
0.69874802
0.69888058
0.69909588
0.69953615
0.70004466
0.70059722
0.70118498
0.70063224
0.70019046
0.70043099
0.69970554
0.69736876
0.69468638
0.69361433
0.69333128
0.6876472
0.68227617
0.68793977
0.69970083
0.70012721
0.68628869
0.67310327
0.66696387
0.66532023
0.66509136
0.66507239
0.66507072
0.66507056
0.66507054
0.66507053
0.66507055
0.66507056
0.66507056
0.66507055
0.66507055
0.66507054
0.66507054
0.66507054
0.66507054
0.66507054
0.66507055
0.66507055
0.66507055
0.66507055
0.66507055
0.66507055
0.66507055
0.66507055
0.66507054
0.66507054
0.66507055
0.66507055
0.66507055
0.66507055
0.66507054
0.66507055
0.66507055
0.66507055
0.66507055
0.66507055
0.66507055
0.66507055
0.66507055
0.66507055
0.7078877
0.70791931
0.70798203
0.70806725
0.70812687
0.70815771
0.70817692
0.70819021
0.70820055
0.70820983
0.70822032
0.70823276
0.70824842
0.70826696
0.70828797
0.70831059
0.70833325
0.708354
0.70836987
0.70837754
0.70837197
0.70834687
0.70829367
0.70820209
0.70805963
0.70785295
0.70756538
0.70717807
0.70666756
0.70600866
0.70517602
0.70415578
0.70296264
0.7016632
0.70039253
0.69933806
0.69868401
0.69848745
0.69858051
0.69871004
0.69892336
0.69935927
0.69986559
0.70041912
0.70100714
0.70045826
0.70002343
0.70025833
0.69953949
0.69721561
0.69454918
0.69347379
0.69318698
0.68755144
0.68219589
0.68779546
0.69948076
0.69997396
0.68625042
0.67311285
0.66697315
0.66532269
0.66509168
0.66507243
0.66507073
0.66507056
0.66507054
0.66507053
0.66507055
0.66507056
0.66507056
0.66507055
0.66507055
0.66507054
0.66507054
0.66507054
0.66507054
0.66507054
0.66507055
0.66507055
0.66507055
0.66507055
0.66507055
0.66507055
0.66507055
0.66507055
0.66507054
0.66507054
0.66507055
0.66507055
0.66507055
0.66507055
0.66507054
0.66507055
0.66507055
0.66507055
0.66507055
0.66507055
0.66507055
0.66507055
0.66507055
0.66507055
0.66507055
0.66507055
0.70760963
0.70764494
0.70771488
0.70781035
0.70787901
0.70791589
0.70793931
0.70795584
0.70796868
0.70797987
0.707992
0.7080058
0.70802258
0.70804207
0.70806387
0.70808714
0.70811034
0.70813155
0.70814781
0.70815582
0.70815059
0.70812587
0.70807316
0.7079822
0.70784053
0.70763489
0.70734867
0.70696314
0.70645509
0.70579977
0.70497237
0.70395951
0.70277589
0.70148736
0.70022716
0.69917994
0.69852777
0.69832802
0.69841729
0.69854602
0.69875874
0.69919072
0.69969537
0.70024836
0.70083289
0.70028803
0.69985681
0.7000884
0.69937312
0.69706392
0.69441219
0.69333605
0.69304444
0.6874553
0.682122
0.68766448
0.69927847
0.69982305
0.68620477
0.6731152
0.66697959
0.66532462
0.66509194
0.66507246
0.66507073
0.66507056
0.66507054
0.66507053
0.66507055
0.66507056
0.66507056
0.66507055
0.66507055
0.66507054
0.66507054
0.66507054
0.66507054
0.66507054
0.66507055
0.66507055
0.66507055
0.66507055
0.66507055
0.66507055
0.66507055
0.66507055
0.66507054
0.66507054
0.66507055
0.66507055
0.66507055
0.66507055
0.66507054
0.66507055
0.66507055
0.66507055
0.66507055
0.66507055
0.66507055
0.66507055
0.66507055
0.66507055
0.66507055
0.66507055
0.66507055
0.70747202
0.70750336
0.70756572
0.70765085
0.70771115
0.70774241
0.70776178
0.70777507
0.70778537
0.70779454
0.70780485
0.70781703
0.70783232
0.70785039
0.70787084
0.7078928
0.70791474
0.70793472
0.70794983
0.70795679
0.70795067
0.70792524
0.70787204
0.7077809
0.70763944
0.70743452
0.7071498
0.70676676
0.70626237
0.70561186
0.70479021
0.70378354
0.70260625
0.70132368
0.70006827
0.69902414
0.69837262
0.69817038
0.69825508
0.69837987
0.69859025
0.69901986
0.69952126
0.70007387
0.70065942
0.70011772
0.69969324
0.69992014
0.6992112
0.69691527
0.69427867
0.69319809
0.69290554
0.68736191
0.68204269
0.68752274
0.6990679
0.69967454
0.68616664
0.67312271
0.66698814
0.66532697
0.66509224
0.6650725
0.66507074
0.66507056
0.66507054
0.66507053
0.66507055
0.66507056
0.66507056
0.66507055
0.66507055
0.66507054
0.66507054
0.66507054
0.66507054
0.66507054
0.66507055
0.66507055
0.66507055
0.66507055
0.66507055
0.66507055
0.66507055
0.66507055
0.66507054
0.66507054
0.66507055
0.66507055
0.66507055
0.66507055
0.66507054
0.66507055
0.66507055
0.66507055
0.66507055
0.66507055
0.66507055
0.66507055
0.66507055
0.66507055
0.66507055
0.66507055
0.66507055
0.66507055
0.70718381
0.70721921
0.70728961
0.70738628
0.70745714
0.7074956
0.70752007
0.70753744
0.70755091
0.70756268
0.70757522
0.70758932
0.70760631
0.70762587
0.70764767
0.70767083
0.70769389
0.70771494
0.7077311
0.70773914
0.70773415
0.70770994
0.7076581
0.70756843
0.70742857
0.70722535
0.70694243
0.70656133
0.70605919
0.7054116
0.70459405
0.70359332
0.70242419
0.70115156
0.6999061
0.69886906
0.69821945
0.69801425
0.69809572
0.69822074
0.69843054
0.6988559
0.69935493
0.69990705
0.70048708
0.69995086
0.69952986
0.69975348
0.69904933
0.69676628
0.69414575
0.69306308
0.69276763
0.68726907
0.68197008
0.68739261
0.69887036
0.69952649
0.68612161
0.67312549
0.66699479
0.66532906
0.66509258
0.66507255
0.66507074
0.66507056
0.66507054
0.66507053
0.66507055
0.66507056
0.66507056
0.66507055
0.66507055
0.66507054
0.66507054
0.66507054
0.66507054
0.66507054
0.66507055
0.66507055
0.66507055
0.66507055
0.66507055
0.66507055
0.66507055
0.66507055
0.66507054
0.66507054
0.66507055
0.66507055
0.66507055
0.66507055
0.66507054
0.66507055
0.66507055
0.66507055
0.66507055
0.66507055
0.66507055
0.66507055
0.66507055
0.66507055
0.66507055
0.66507055
0.66507055
0.66507055
0.66507055
0.70702939
0.70706142
0.70712551
0.70721378
0.70727797
0.70731192
0.70733312
0.70734798
0.70735959
0.70736986
0.70738115
0.70739415
0.70741017
0.70742884
0.7074498
0.70747218
0.70749452
0.70751491
0.7075305
0.70753807
0.70753277
0.70750843
0.70745665
0.70736726
0.70722799
0.70702583
0.70674475
0.70636656
0.70586862
0.70522644
0.70441517
0.7034209
0.70225804
0.70099097
0.69974976
0.69871546
0.69806688
0.69786053
0.69793832
0.69805955
0.6982672
0.6986908
0.69918558
0.6997364
0.7003176
0.6997846
0.69936963
0.69958936
0.69889151
0.69662028
0.69401275
0.69292794
0.69263053
0.68717872
0.68189602
0.68725643
0.69866845
0.69938037
0.68608069
0.67313019
0.66700218
0.66533127
0.66509293
0.6650726
0.66507075
0.66507056
0.66507054
0.66507053
0.66507055
0.66507056
0.66507056
0.66507055
0.66507055
0.66507054
0.66507054
0.66507054
0.66507054
0.66507054
0.66507055
0.66507055
0.66507055
0.66507055
0.66507055
0.66507055
0.66507055
0.66507055
0.66507054
0.66507054
0.66507055
0.66507055
0.66507055
0.66507055
0.66507054
0.66507055
0.66507055
0.66507055
0.66507055
0.66507055
0.66507055
0.66507055
0.66507055
0.66507055
0.66507055
0.66507055
0.66507055
0.66507055
0.66507055
0.66507055
0.70675319
0.70678897
0.70686033
0.70695873
0.70703178
0.70707207
0.70709794
0.70711644
0.70713095
0.70714366
0.70715706
0.70717192
0.70718954
0.70720967
0.70723194
0.70725553
0.70727899
0.70730044
0.70731708
0.70732571
0.70732153
0.7072984
0.70724796
0.70716009
0.70702254
0.70682237
0.70654363
0.70616833
0.70567402
0.70503636
0.70423058
0.70324285
0.70208747
0.70082827
0.69959411
0.69856447
0.69791709
0.69770852
0.69778317
0.6979029
0.69810925
0.69853011
0.69902222
0.69957183
0.7001508
0.69962197
0.69921118
0.69942847
0.69873362
0.69647468
0.69388413
0.69279309
0.69249254
0.68708636
0.68182762
0.68712946
0.69847071
0.69922557
0.68603201
0.67313489
0.66700987
0.66533345
0.66509321
0.66507264
0.66507075
0.66507056
0.66507054
0.66507053
0.66507055
0.66507056
0.66507056
0.66507055
0.66507055
0.66507054
0.66507054
0.66507054
0.66507054
0.66507054
0.66507055
0.66507055
0.66507055
0.66507055
0.66507055
0.66507055
0.66507055
0.66507055
0.66507054
0.66507054
0.66507055
0.66507055
0.66507055
0.66507055
0.66507054
0.66507055
0.66507055
0.66507055
0.66507055
0.66507055
0.66507055
0.66507055
0.66507055
0.66507055
0.66507055
0.66507055
0.66507055
0.66507055
0.66507055
0.66507055
0.66507055
0.70649138
0.7065279
0.70660171
0.70670428
0.70678197
0.70682571
0.70685425
0.70687513
0.7068919
0.70690673
0.70692212
0.70693888
0.70695836
0.70698026
0.70700425
0.7070295
0.70705456
0.70707756
0.7070957
0.70710579
0.70710306
0.70708136
0.70703239
0.70694607
0.70681017
0.70661182
0.70633513
0.7059622
0.70547074
0.70483685
0.70403625
0.7030556
0.70190922
0.70066025
0.69943603
0.69841359
0.69776867
0.6975582
0.69763051
0.6977502
0.69795566
0.69837297
0.69886351
0.69941081
0.6999859
0.69946329
0.69905355
0.69926848
0.69857488
0.69632903
0.69375596
0.69266158
0.69235482
0.68699089
0.68176272
0.68701526
0.69828537
0.6990695
0.68597475
0.67313338
0.66701581
0.66533529
0.66509346
0.66507266
0.66507076
0.66507056
0.66507054
0.66507053
0.66507055
0.66507056
0.66507056
0.66507055
0.66507055
0.66507054
0.66507054
0.66507054
0.66507054
0.66507054
0.66507055
0.66507055
0.66507055
0.66507055
0.66507055
0.66507055
0.66507055
0.66507055
0.66507054
0.66507054
0.66507055
0.66507055
0.66507055
0.66507055
0.66507054
0.66507055
0.66507055
0.66507055
0.66507055
0.66507055
0.66507055
0.66507055
0.66507055
0.66507055
0.66507055
0.66507055
0.66507055
0.66507055
0.66507055
0.66507055
0.66507055
0.66507055
0.70622853
0.70626724
0.70634533
0.70645419
0.70653793
0.70658598
0.70661766
0.70664108
0.70665998
0.70667669
0.70669379
0.70671218
0.7067332
0.70675658
0.70678201
0.70680865
0.7068351
0.70685949
0.70687906
0.70689061
0.70688943
0.70686939
0.7068222
0.70673777
0.70660389
0.70640766
0.70613328
0.70576297
0.70527467
0.70464475
0.70384925
0.70287524
0.7017372
0.7004977
0.6992825
0.69826626
0.69762309
0.69741027
0.69747967
0.69759906
0.69780379
0.69821738
0.69870617
0.69925202
0.69982457
0.69930611
0.69889841
0.69911136
0.69842079
0.69618735
0.6936307
0.69253206
0.69222291
0.68690101
0.68169581
0.6868983
0.69810319
0.69892162
0.68592176
0.67312907
0.66701966
0.66533675
0.66509372
0.66507271
0.66507076
0.66507056
0.66507054
0.66507053
0.66507055
0.66507056
0.66507056
0.66507055
0.66507055
0.66507054
0.66507054
0.66507054
0.66507054
0.66507054
0.66507055
0.66507055
0.66507055
0.66507055
0.66507055
0.66507055
0.66507055
0.66507055
0.66507054
0.66507054
0.66507055
0.66507055
0.66507055
0.66507055
0.66507054
0.66507055
0.66507055
0.66507055
0.66507055
0.66507055
0.66507055
0.66507055
0.66507055
0.66507055
0.66507055
0.66507055
0.66507055
0.66507055
0.66507055
0.66507055
0.66507055
0.66507055
0.66507055
0.70606166
0.70609825
0.70617259
0.70627654
0.70635659
0.70640215
0.70643207
0.7064542
0.70647212
0.70648807
0.7065046
0.70652251
0.70654311
0.70656613
0.70659123
0.70661757
0.70664372
0.70666782
0.7066871
0.70669835
0.70669688
0.70667656
0.70662917
0.70654468
0.70641099
0.7062153
0.70594201
0.70557353
0.70508806
0.70446217
0.70367202
0.70270462
0.70157407
0.70034224
0.69913385
0.69812253
0.69748122
0.69726672
0.69733254
0.69744929
0.69765248
0.6980637
0.69854969
0.69909418
0.69966688
0.69915144
0.6987481
0.69895906
0.6982713
0.69605014
0.6935084
0.69240446
0.69209507
0.68681377
0.68162614
0.68677685
0.6979204
0.69878129
0.68587603
0.6731275
0.66702389
0.6653382
0.66509394
0.66507278
0.66507078
0.66507056
0.66507054
0.66507053
0.66507055
0.66507056
0.66507056
0.66507055
0.66507055
0.66507054
0.66507054
0.66507054
0.66507054
0.66507054
0.66507055
0.66507055
0.66507055
0.66507055
0.66507055
0.66507055
0.66507055
0.66507055
0.66507054
0.66507054
0.66507055
0.66507055
0.66507055
0.66507055
0.66507054
0.66507055
0.66507055
0.66507055
0.66507055
0.66507055
0.66507055
0.66507055
0.66507055
0.66507055
0.66507055
0.66507055
0.66507055
0.66507055
0.66507055
0.66507055
0.66507055
0.66507055
0.66507055
0.66507055
0.70583491
0.70587362
0.70595196
0.70606171
0.70614729
0.70619666
0.70622909
0.7062531
0.70627247
0.70628955
0.70630696
0.70632558
0.70634675
0.70637023
0.70639569
0.7064223
0.70644865
0.70647288
0.70649223
0.70650352
0.70650205
0.70648178
0.70643451
0.70635035
0.70621722
0.70602232
0.70575026
0.70538355
0.70490053
0.70427814
0.70349288
0.70253201
0.70140943
0.70018637
0.69898625
0.69798076
0.69734112
0.6971239
0.69718576
0.69730115
0.69750399
0.69791259
0.69839577
0.69893856
0.69950902
0.69899627
0.69859884
0.69880736
0.69812325
0.69591358
0.69338657
0.69227876
0.69196885
0.68672793
0.68155783
0.68665729
0.69774043
0.6986439
0.68583161
0.67312633
0.66702893
0.66533986
0.66509411
0.6650728
0.66507079
0.66507057
0.66507054
0.66507053
0.66507055
0.66507056
0.66507056
0.66507055
0.66507055
0.66507054
0.66507054
0.66507054
0.66507054
0.66507054
0.66507055
0.66507055
0.66507055
0.66507055
0.66507055
0.66507055
0.66507055
0.66507055
0.66507054
0.66507054
0.66507055
0.66507055
0.66507055
0.66507055
0.66507054
0.66507055
0.66507055
0.66507055
0.66507055
0.66507055
0.66507055
0.66507055
0.66507055
0.66507055
0.66507055
0.66507055
0.66507055
0.66507055
0.66507055
0.66507055
0.66507055
0.66507055
0.66507055
0.66507055
0.66507055
0.70568669
0.70572294
0.70579678
0.70590034
0.70598094
0.70602695
0.70605703
0.70607921
0.70609717
0.7061131
0.70612954
0.70614728
0.70616768
0.70619045
0.70621526
0.70624124
0.70626699
0.7062906
0.70630931
0.70631992
0.70631774
0.70629675
0.7062488
0.7061641
0.70603074
0.70583603
0.7055648
0.70519977
0.70471951
0.70410109
0.7033211
0.70236652
0.70125063
0.70003397
0.6988394
0.69783802
0.69720024
0.69698167
0.69703969
0.69715203
0.69735392
0.69776173
0.69824186
0.69878136
0.69935001
0.69883898
0.69845035
0.69865496
0.6979776
0.69577802
0.69326601
0.69215415
0.6918426
0.68664124
0.68148781
0.68653918
0.69755626
0.69850803
0.68579095
0.67312867
0.66703541
0.66534201
0.6650944
0.6650728
0.66507079
0.66507057
0.66507054
0.66507053
0.66507054
0.66507056
0.66507056
0.66507055
0.66507055
0.66507054
0.66507054
0.66507054
0.66507054
0.66507054
0.66507055
0.66507055
0.66507055
0.66507055
0.66507055
0.66507055
0.66507055
0.66507055
0.66507054
0.66507054
0.66507055
0.66507055
0.66507055
0.66507055
0.66507054
0.66507055
0.66507055
0.66507055
0.66507055
0.66507055
0.66507055
0.66507055
0.66507055
0.66507055
0.66507055
0.66507055
0.66507055
0.66507055
0.66507055
0.66507055
0.66507055
0.66507055
0.66507055
0.66507055
0.66507055
0.66507055
0.70546474
0.70550286
0.70558023
0.70568918
0.70577544
0.70582502
0.70585733
0.70588113
0.70590019
0.70591699
0.70593409
0.70595238
0.70597322
0.70599631
0.70602137
0.70604754
0.70607343
0.70609713
0.70611589
0.70612652
0.70612436
0.70610342
0.70605558
0.70597114
0.70583821
0.70564419
0.70537397
0.7050104
0.70453226
0.70391682
0.70314092
0.70219166
0.70108219
0.69987256
0.69868466
0.69768833
0.69705274
0.69683318
0.69688893
0.69700037
0.69720185
0.69760738
0.6980853
0.69862228
0.69918862
0.69867993
0.69829878
0.69850007
0.69782724
0.69563817
0.69314199
0.69202784
0.6917131
0.68655207
0.68141721
0.68642108
0.69737264
0.69836866
0.68574709
0.67313037
0.66704153
0.665344
0.66509475
0.66507284
0.66507078
0.66507057
0.66507054
0.66507053
0.66507054
0.66507056
0.66507056
0.66507055
0.66507055
0.66507054
0.66507054
0.66507054
0.66507054
0.66507054
0.66507055
0.66507055
0.66507055
0.66507055
0.66507055
0.66507055
0.66507055
0.66507055
0.66507054
0.66507054
0.66507055
0.66507055
0.66507055
0.66507055
0.66507054
0.66507055
0.66507055
0.66507055
0.66507055
0.66507055
0.66507055
0.66507055
0.66507055
0.66507055
0.66507055
0.66507055
0.66507055
0.66507055
0.66507055
0.66507055
0.66507055
0.66507055
0.66507055
0.66507055
0.66507055
0.66507055
0.70527949
0.70531623
0.70539137
0.70549743
0.70558179
0.70563014
0.70566157
0.70568471
0.70570333
0.70571972
0.7057365
0.70575449
0.70577502
0.70579783
0.7058226
0.70584849
0.70587411
0.70589756
0.70591611
0.70592657
0.7059243
0.70590336
0.70585569
0.70577165
0.70563946
0.70544658
0.70517802
0.70481666
0.70434135
0.70372942
0.70295784
0.70201371
0.70091001
0.69970641
0.69852418
0.69753219
0.69689853
0.69667814
0.69673183
0.69684233
0.69704332
0.69744689
0.69792198
0.69845719
0.69902332
0.69851723
0.69814285
0.69834088
0.69767127
0.69549338
0.69301378
0.69189752
0.69157781
0.68646044
0.68134466
0.68629714
0.69718024
0.69822289
0.68570136
0.67313271
0.66704819
0.66534599
0.66509505
0.66507289
0.66507079
0.66507057
0.66507054
0.66507053
0.66507054
0.66507056
0.66507056
0.66507055
0.66507055
0.66507054
0.66507054
0.66507054
0.66507054
0.66507054
0.66507055
0.66507055
0.66507055
0.66507055
0.66507055
0.66507055
0.66507055
0.66507055
0.66507054
0.66507054
0.66507055
0.66507055
0.66507055
0.66507055
0.66507054
0.66507055
0.66507055
0.66507055
0.66507055
0.66507055
0.66507055
0.66507055
0.66507055
0.66507055
0.66507055
0.66507055
0.66507055
0.66507055
0.66507055
0.66507055
0.66507055
0.66507055
0.66507055
0.66507055
0.66507055
0.66507055
0.66507055
0.70505228
0.70509076
0.70516908
0.70527975
0.70536861
0.70542002
0.70545338
0.70547799
0.70549774
0.70551496
0.70553243
0.70555095
0.70557194
0.70559511
0.70562019
0.70564632
0.70567215
0.70569577
0.70571449
0.70572512
0.70572306
0.7057024
0.70565515
0.70557171
0.70544038
0.70524864
0.70498156
0.70462212
0.7041493
0.70354069
0.70277355
0.7018352
0.70073852
0.6995426
0.69836757
0.69738075
0.69674888
0.69652713
0.69657867
0.69668872
0.69688927
0.69728971
0.69776235
0.69829557
0.69886089
0.69835723
0.69798762
0.69818302
0.69751654
0.69535032
0.69288644
0.6917691
0.69144546
0.68636993
0.68127371
0.68617658
0.69699247
0.6980761
0.68565221
0.67313216
0.66705379
0.6653478
0.66509526
0.66507293
0.6650708
0.66507057
0.66507054
0.66507053
0.66507054
0.66507056
0.66507056
0.66507055
0.66507055
0.66507054
0.66507054
0.66507054
0.66507054
0.66507054
0.66507055
0.66507055
0.66507055
0.66507055
0.66507055
0.66507055
0.66507055
0.66507055
0.66507054
0.66507054
0.66507055
0.66507055
0.66507055
0.66507055
0.66507054
0.66507055
0.66507055
0.66507055
0.66507055
0.66507055
0.66507055
0.66507055
0.66507055
0.66507055
0.66507055
0.66507055
0.66507055
0.66507055
0.66507055
0.66507055
0.66507055
0.66507055
0.66507055
0.66507055
0.66507055
0.66507055
0.66507055
0.66507055
0.70490358
0.70493946
0.70501311
0.70511734
0.70520112
0.70524901
0.70527986
0.70530243
0.70532045
0.70533637
0.70535259
0.70537002
0.70538997
0.70541217
0.70543631
0.70546153
0.70548648
0.70550923
0.70552711
0.70553692
0.70553412
0.7055128
0.70546507
0.70538145
0.70525035
0.70505931
0.7047935
0.70443595
0.70396571
0.70336052
0.70259784
0.70166508
0.70057487
0.69938576
0.69821686
0.69723428
0.69660336
0.69637928
0.69642758
0.69653624
0.69673651
0.69713405
0.69760331
0.69813533
0.69870053
0.69819862
0.6978349
0.69802787
0.69736571
0.69521038
0.69276056
0.69164163
0.69131547
0.68628211
0.68120097
0.68605361
0.69680428
0.69793224
0.6856061
0.67313319
0.66706009
0.66534986
0.66509553
0.66507295
0.66507081
0.66507057
0.66507054
0.66507053
0.66507054
0.66507056
0.66507056
0.66507055
0.66507055
0.66507054
0.66507054
0.66507054
0.66507054
0.66507054
0.66507055
0.66507055
0.66507055
0.66507055
0.66507055
0.66507055
0.66507055
0.66507055
0.66507054
0.66507054
0.66507055
0.66507055
0.66507055
0.66507055
0.66507054
0.66507055
0.66507055
0.66507055
0.66507055
0.66507055
0.66507055
0.66507055
0.66507055
0.66507055
0.66507055
0.66507055
0.66507055
0.66507055
0.66507055
0.66507055
0.66507055
0.66507055
0.66507055
0.66507055
0.66507055
0.66507055
0.66507055
0.66507055
0.70468641
0.70472413