/*--------------------------------*- C++ -*----------------------------------*\
| =========                 |                                                 |
| \\      /  F ield         | OpenFOAM: The Open Source CFD Toolbox           |
|  \\    /   O peration     | Version:  2506                                  |
|   \\  /    A nd           | Website:  www.openfoam.com                      |
|    \\/     M anipulation  |                                                 |
\*---------------------------------------------------------------------------*/
FoamFile
{
    version     2.0;
    format      ascii;
    arch        "LSB;label=32;scalar=64";
    class       volScalarField;
    location    "0.0005";
    object      Co;
}
// * * * * * * * * * * * * * * * * * * * * * * * * * * * * * * * * * * * * * //

dimensions      [0 0 0 0 0 0 0];

internalField   nonuniform List<scalar> 
13761
(
0.0056632741
0.0057731616
0.0058784164
0.0059790277
0.0060750083
0.006166346
0.0062528661
0.0063341183
0.0064097975
0.0064888823
0.0066022275
0.0067750726
0.0069658616
0.0071236128
0.0072324298
0.0073526357
0.0074910255
0.0076044928
0.0076786922
0.0077848725
0.0079007361
0.0079863307
0.0080581473
0.0081244985
0.008184863
0.0082623283
0.0083382492
0.008413894
0.0084764876
0.0085285987
0.0085735761
0.0086246987
0.0086775655
0.0087338445
0.0087869411
0.008844651
0.0089028225
0.0089613565
0.0090118988
0.0090592717
0.0091029617
0.0091502443
0.0092013943
0.009252274
0.0093069941
0.0093674837
0.0094312191
0.0094959524
0.0095620895
0.0096293914
0.0096974695
0.009766544
0.009836388
0.0099073241
0.0099804387
0.010056545
0.010135837
0.010218007
0.01030249
0.010388481
0.010474825
0.010560161
0.010643048
0.010721538
0.010793648
0.010857382
0.010910395
0.010948874
0.010958015
0.010909176
0.010820111
0.010721427
0.010616522
0.010503423
0.01038207
0.010253165
0.01011797
0.009977402
0.0098319835
0.0096819279
0.0095273413
0.0093674396
0.0092022003
0.0090303879
0.0088512409
0.0086641671
0.0084672629
0.008259592
0.0080405337
0.0078080375
0.0075601587
0.0072949823
0.0070101929
0.0067028059
0.0063692494
0.0060036859
0.00559762
0.0051399552
0.0046146406
0.0040034649
0.0033004759
0.0025350084
0.0017632964
0.0010252526
0.00033655622
0.0056297485
0.0057424497
0.0058505146
0.0059539144
0.0060526453
0.0061466803
0.0062358214
0.0063195365
0.006397303
0.0064792847
0.0065970794
0.0067712787
0.0069629007
0.007122807
0.0072353203
0.0073571139
0.007496593
0.007613919
0.0076920577
0.0077992671
0.007918222
0.0080073597
0.0080805186
0.0081489733
0.008202907
0.0082709972
0.0083466924
0.0084223264
0.0084854264
0.0085374192
0.0085816786
0.0086318396
0.0086834943
0.0087387593
0.0087908873
0.0088476374
0.0089040291
0.0089600559
0.0090071736
0.0090507811
0.0090906719
0.0091335669
0.0091792994
0.0092241234
0.0092724137
0.0093251081
0.0093794065
0.0094333313
0.0094871206
0.0095402463
0.0095922772
0.009643259
0.0096928512
0.0097415173
0.0097903309
0.0098399916
0.0098907264
0.0099425787
0.0099956321
0.010050036
0.010105978
0.010163777
0.010223924
0.010286751
0.010352706
0.010422294
0.010495531
0.010569703
0.01062612
0.010628066
0.010593689
0.010549472
0.010495905
0.010431629
0.010357462
0.010274365
0.010183502
0.01008558
0.0099809272
0.0098696278
0.009751751
0.0096263985
0.0094936618
0.009352167
0.0092011564
0.0090400844
0.00886662
0.0086796943
0.0084786309
0.008260608
0.0080228733
0.0077626996
0.0074767868
0.0071609435
0.0068104963
0.00641782
0.0059725897
0.0054633243
0.004873934
0.0041881356
0.0034063043
0.0025689416
0.0017458412
0.00098753341
0.00031494183
0.0057103449
0.0058212303
0.0059274386
0.0060289488
0.006125718
0.0062175249
0.0063037583
0.0063836833
0.0064685272
0.0065901866
0.0067658575
0.0069583924
0.007120177
0.0072363042
0.0073599395
0.0075006933
0.0076213049
0.0077035176
0.0078122079
0.0079340893
0.00802641
0.0081012012
0.0081718334
0.0082231792
0.0082836822
0.0083556027
0.008431223
0.008495008
0.0085472881
0.0085911833
0.008640309
0.008691513
0.0087459359
0.0087961708
0.0088520076
0.0089069126
0.0089610054
0.009005426
0.0090458288
0.0090819339
0.0091204046
0.0091612149
0.0092004425
0.0092424606
0.0092880599
0.0093343884
0.0093793531
0.0094230808
0.0094650257
0.0095047073
0.0095421203
0.0095769272
0.0096096386
0.0096413711
0.009672896
0.0097044697
0.009736131
0.009767898
0.0097997696
0.0098316714
0.0098635202
0.0098952394
0.0099265313
0.0099570788
0.0099865289
0.01001402
0.010035469
0.010029422
0.0099613064
0.0098619455
0.0097586941
0.0096497972
0.0095331237
0.0094094229
0.0092801669
0.0091468606
0.0090105371
0.0088717868
0.0087308682
0.0085878573
0.0084422743
0.0082939534
0.0081420311
0.0079858073
0.0078246134
0.0076569658
0.0074817866
0.007298069
0.0071038148
0.0068968374
0.0066746723
0.0064342528
0.0061716401
0.0058819749
0.0055581493
0.0051902956
0.0047658327
0.0042681018
0.003680432
0.0030028584
0.0022748331
0.0015589218
0.00089374104
0.00028864333
0.0056768454
0.0057905563
0.0058995882
0.006003902
0.0061034377
0.0061979499
0.006286749
0.0063688882
0.0064565317
0.0065815142
0.0067587312
0.0069522297
0.0071158672
0.0072354864
0.0073611374
0.0075033264
0.0076268467
0.0077131649
0.0078236985
0.0079483678
0.0080435762
0.0081201648
0.0081930463
0.0082471652
0.008303308
0.0083667754
0.0084405667
0.0085050018
0.0085581033
0.0086107466
0.0086787973
0.0087417939
0.0087967824
0.0088415538
0.0088872279
0.0089299648
0.0089706377
0.0090065069
0.0090439434
0.0090765717
0.0091110416
0.0091474641
0.0091818249
0.0092185324
0.0092581594
0.0092979005
0.0093356526
0.009371475
0.0094048554
0.0094353406
0.0094629408
0.0094873899
0.0095093285
0.0095299753
0.0095502051
0.0095703593
0.0095905743
0.0096109696
0.0096316562
0.0096527006
0.0096741788
0.0096961707
0.0097186104
0.0097414086
0.0097644406
0.0097870345
0.0098047972
0.0097944405
0.0097224337
0.0096243583
0.0095235887
0.0094165361
0.0093014772
0.0091794835
0.0090521111
0.0089207694
0.0087863904
0.0086494921
0.0085102827
0.0083688008
0.0082246368
0.0080775933
0.0079269204
0.0077719763
0.0076121203
0.00744605
0.0072727442
0.0070912137
0.0068996514
0.006696013
0.0064779469
0.0062425144
0.0059859197
0.0057034062
0.0053881147
0.0050304858
0.0046181139
0.0041347341
0.0035642335
0.0029071564
0.0022023939
0.0015097867
0.00086574202
0.00027934433
0.0056419541
0.0057584903
0.0058703559
0.0059774932
0.0060798239
0.006177077
0.0062684866
0.0063528939
0.0064432454
0.0065711094
0.0067499223
0.0069443977
0.0071099295
0.0072328439
0.0073606952
0.0075044033
0.0076306379
0.0077210259
0.0078336828
0.0079610865
0.0080588835
0.0081373986
0.0082126303
0.008269304
0.0083281877
0.008386042
0.008451067
0.0085152367
0.0085773563
0.0086464709
0.0087243973
0.0087904754
0.0088482814
0.0088958835
0.0089446547
0.0089906075
0.0090347018
0.0090675655
0.0090948992
0.0091167912
0.009139667
0.0091632926
0.0091832471
0.0092053237
0.0092353562
0.009269978
0.0093022517
0.0093321813
0.0093593166
0.0093832467
0.009404015
0.0094214313
0.0094362504
0.009449759
0.0094628949
0.0094760226
0.0094892999
0.0095028474
0.0095167624
0.0095310838
0.0095458354
0.0095610025
0.0095764344
0.0095919183
0.0096071694
0.0096212975
0.0096292849
0.0096063715
0.0095210403
0.009413112
0.0093038282
0.0091887128
0.0090661237
0.0089372255
0.008803673
0.0086668804
0.0085277878
0.0083869174
0.0082444795
0.0081004885
0.007954617
0.0078066005
0.0076558082
0.0075016064
0.0073433369
0.0071798959
0.0070102579
0.0068333714
0.0066476105
0.0064510599
0.0062414317
0.0060158459
0.0057705653
0.0055008136
0.0051998755
0.0048583215
0.0044635978
0.0039994257
0.0034497797
0.0028153395
0.0021346965
0.0014657607
0.00084480796
0.00027483018
0.0056056786
0.0057250346
0.0058397391
0.0059497149
0.0060548646
0.0061548907
0.0062489524
0.006335679
0.0064286261
0.0065590042
0.0067394257
0.0069348908
0.0071023907
0.0072283755
0.0073586001
0.0075038964
0.0076327461
0.0077271225
0.0078420997
0.0079722579
0.0080723595
0.0081528996
0.0082305852
0.0082896449
0.008351145
0.0084122558
0.0084732341
0.0085348639
0.008608576
0.0086870483
0.0087682053
0.0088372286
0.0088977644
0.0089480405
0.0089997151
0.0090486619
0.009095835
0.0091316925
0.009162075
0.0091870233
0.0092131678
0.0092404176
0.0092640479
0.0092885664
0.0093146305
0.0093391513
0.009359973
0.0093771685
0.0093905287
0.0093997981
0.0094052338
0.0094069289
0.0094057702
0.009403123
0.0094044038
0.0094117619
0.0094208217
0.0094303088
0.009440308
0.0094508534
0.0094619592
0.0094735841
0.0094855763
0.0094977062
0.0095096572
0.0095204542
0.0095246274
0.0094964115
0.0094061733
0.0092957507
0.00918431
0.0090669539
0.0089422448
0.0088114416
0.0086762435
0.008538046
0.0083977739
0.0082559463
0.0081127753
0.0079682657
0.0078221458
0.0076741259
0.0075236447
0.0073700942
0.0072128076
0.0070507875
0.0068830195
0.0067084232
0.0065254726
0.0063323083
0.0061266768
0.0059057245
0.0056657474
0.0054019601
0.0051077103
0.0047736532
0.004387162
0.0039319865
0.0033921954
0.0027685975
0.0020996834
0.0014428963
0.00083387517
0.00027223292
0.0055680305
0.0056901958
0.0058077393
0.005920564
0.0060285526
0.00613138
0.0062281318
0.0063172273
0.0064126433
0.0065452306
0.0067272295
0.0069237135
0.007093269
0.0072220883
0.0073548221
0.0075018182
0.0076332064
0.0077314474
0.0078488981
0.0079818859
0.00808404
0.0081666661
0.0082469104
0.0083082561
0.0083723904
0.008436718
0.0085009874
0.0085654545
0.0086433329
0.0087257764
0.0088102756
0.0088820575
0.008945228
0.0089980371
0.009052384
0.0091040786
0.0091540724
0.009192666
0.0092257596
0.0092535583
0.0092827142
0.0093132764
0.0093402355
0.0093682527
0.0093979446
0.0094261513
0.0094505639
0.0094712191
0.0094878797
0.0095002581
0.0095085945
0.0095129628
0.0095143204
0.009514094
0.0095133066
0.0095123212
0.0095112143
0.0095099738
0.0095085463
0.0095068131
0.009504643
0.0095018693
0.0094982305
0.0094933972
0.0094869687
0.0094779795
0.0094618614
0.0094203694
0.0093257279
0.0092124919
0.0090983652
0.0089783295
0.008851095
0.0087179771
0.0085807136
0.0084406935
0.0082988401
0.0081556755
0.0080114139
0.0078660552
0.0077193761
0.0075710633
0.0074206161
0.0072674355
0.0071108506
0.0069499472
0.0067837116
0.0066110314
0.0064304562
0.0062401782
0.0060379504
0.0058209412
0.0055854648
0.0053267079
0.0050380616
0.0047102117
0.0043304519
0.0038824942
0.0033503885
0.0027349603
0.0020757801
0.0014321944
0.00083124054
0.00027082496
0.0056539849
0.0057743627
0.0058900421
0.0060008851
0.0061065383
0.0062060148
0.0062975269
0.0063952752
0.0065298246
0.0067133131
0.0069108721
0.0070825748
0.0072140001
0.0073493248
0.0074981959
0.0076320435
0.0077339838
0.0078540233
0.0079899744
0.0080939619
0.0081786962
0.0082616088
0.0083251834
0.0083919529
0.0084594701
0.0085273458
0.0085948059
0.0086761385
0.0087624959
0.0088504872
0.0089249959
0.0089907435
0.0090458985
0.0091026742
0.0091568863
0.0092095201
0.0092506688
0.0092862928
0.0093167514
0.0093487255
0.0093824212
0.0094124841
0.0094437323
0.0094767934
0.0095083886
0.0095360615
0.0095598092
0.0095793792
0.0095944397
0.0096052259
0.0096118122
0.0096152056
0.0096169153
0.0096180142
0.0096188958
0.009619651
0.0096202802
0.0096207407
0.00962092
0.0096206884
0.0096198848
0.0096182402
0.009615427
0.0096110299
0.0096039874
0.0095889678
0.0095415909
0.0094355508
0.0093101287
0.0091814964
0.0090456625
0.0089019672
0.0087520462
0.0085978448
0.008440944
0.0082824647
0.008123135
0.0079633797
0.007805491
0.0076535976
0.0075050555
0.0073546129
0.007201675
0.0070455648
0.0068854367
0.0067202721
0.0065489339
0.00637002
0.0061817535
0.0059819085
0.0057676426
0.0055352656
0.0052799426
0.0049950827
0.0046713878
0.0042960592
0.0038527558
0.0033271817
0.0027226464
0.0020744859
0.0014338416
0.00083096237
0.00027037454
0.0056164155
0.0057396178
0.0058581528
0.0059718616
0.0060803613
0.0061825937
0.0062765679
0.0063765041
0.0065128222
0.0066976471
0.0068963697
0.0070703043
0.0072041414
0.0073420754
0.0074930501
0.0076292746
0.0077347184
0.0078574237
0.0079965292
0.0081021468
0.0081889829
0.0082746821
0.0083404454
0.0084098544
0.008480599
0.0085520612
0.0086229191
0.0087073079
0.0087972322
0.0088887876
0.0089660784
0.0090343361
0.0090916251
0.0091505949
0.0092071243
0.0092622652
0.0093058665
0.0093439228
0.0093769315
0.0094116149
0.0094483533
0.0094813919
0.0095157124
0.0095519949
0.0095868135
0.0096175669
0.0096442078
0.009666476
0.009683997
0.0096970018
0.0097055646
0.0097107396
0.0097141161
0.0097168254
0.009719299
0.0097216467
0.0097238808
0.0097259707
0.0097278094
0.0097292716
0.0097302054
0.0097303331
0.0097293239
0.0097267482
0.0097214503
0.0097077343
0.0096607998
0.0095555039
0.0094307403
0.0093023888
0.0091665837
0.0090226915
0.0088723531
0.0087174792
0.0085596299
0.0083999072
0.0082390287
0.0080774162
0.0079152784
0.0077525988
0.0075892521
0.0074249304
0.0072591934
0.0070914926
0.0069210721
0.0067470007
0.0065681996
0.0063833027
0.006190547
0.0059876927
0.0057718533
0.0055392685
0.0052849896
0.0050022683
0.0046815875
0.0043098519
0.0038703263
0.0033464998
0.0027385936
0.0020843572
0.0014389229
0.00083278
0.00027060578
0.0055775052
0.0057035173
0.0058249045
0.0059414858
0.0060528488
0.0061578648
0.0062543442
0.006356319
0.0064942448
0.0066802199
0.0068802089
0.0070564434
0.0071925544
0.0073330509
0.0074863876
0.00762491
0.0077336523
0.0078590628
0.0080015507
0.0081086115
0.0081975246
0.0082861296
0.0083540489
0.0084261234
0.0085001399
0.0085751465
0.008649561
0.0087370044
0.0088301773
0.0089252053
0.0090053209
0.0090759921
0.0091352055
0.0091961484
0.0092548283
0.0093123947
0.0093584102
0.0093988661
0.0094343913
0.0094717422
0.0095114962
0.0095474512
0.0095847598
0.009624183
0.0096621421
0.0096958841
0.0097253141
0.0097501699
0.0097700319
0.0097851262
0.0097955241
0.0098023296
0.009807213
0.0098113703
0.0098152735
0.0098190527
0.0098227332
0.0098262939
0.009829633
0.0098326278
0.0098351314
0.0098368566
0.0098374653
0.0098365128
0.0098327632
0.0098202332
0.009773895
0.0096694285
0.0095452371
0.0094171349
0.0092813738
0.0091373382
0.0089866652
0.0088312309
0.0086725732
0.008511774
0.0083495366
0.0081862752
0.0080222055
0.007857295
0.0076914524
0.0075243534
0.0073555745
0.0071846028
0.0070106589
0.0068328337
0.0066500932
0.0064610495
0.0062639277
0.006056486
0.0058358602
0.0055982948
0.0053388442
0.0050507452
0.0047244416
0.0043468621
0.0039012387
0.0033710785
0.0027567689
0.0020964872
0.0014460085
0.00083615014
0.00027149183
0.0055372741
0.0056660763
0.005790307
0.0059097633
0.0060240026
0.0061318264
0.006230851
0.0063347108
0.0064740913
0.0066610457
0.0068623858
0.0070409731
0.0071792838
0.0073222357
0.0074781975
0.0076189537
0.0077308037
0.0078589188
0.0080050219
0.0081133679
0.0082043213
0.0082959446
0.0083659916
0.0084407767
0.0085181143
0.0085966419
0.0086746349
0.0087652026
0.0088614599
0.0089598237
0.0090427322
0.0091156931
0.0091766106
0.0092393221
0.0093000244
0.0093599823
0.0094084283
0.0094513058
0.0094893708
0.0095293957
0.0095721804
0.009611035
0.0096512875
0.0096938094
0.0097348668
0.0097715476
0.0098037064
0.0098310849
0.0098532161
0.0098703206
0.0098824653
0.0098908049
0.009897092
0.0099025904
0.009907816
0.0099129217
0.0099179447
0.0099228744
0.0099276141
0.0099320422
0.0099360148
0.0099392347
0.0099413576
0.0099419246
0.0099396331
0.0099283012
0.0098828478
0.0097794256
0.0096558672
0.0095281339
0.0093925904
0.0092486177
0.009097844
0.0089421101
0.0087829283
0.0086213532
0.0084580649
0.0082934638
0.0081277713
0.0079609407
0.0077929032
0.0076233279
0.0074518147
0.0072778785
0.0071007191
0.006919459
0.0067331004
0.0065402398
0.0063391016
0.0061274516
0.0059024156
0.0056602298
0.0053959699
0.0051028295
0.0047712073
0.0043880231
0.0039364744
0.0033999851
0.0027789938
0.0021120764
0.0014556462
0.00084093128
0.00027277055
0.0056273143
0.0057543754
0.0058767046
0.0059938291
0.0061044814
0.006206088
0.0063116755
0.0064523543
0.006640157
0.0068428917
0.0070238789
0.0071643683
0.0073096201
0.007468456
0.007611419
0.0077261974
0.0078569798
0.0080069144
0.0081164299
0.0082093801
0.0083041208
0.0083762676
0.0084538194
0.0085345452
0.0086165739
0.0086981375
0.0087918461
0.0088911216
0.0089927172
0.0090783217
0.009153414
0.009215805
0.0092800987
0.0093427302
0.0094050876
0.009456027
0.0095013902
0.0095420576
0.0095847935
0.0096306475
0.0096724059
0.0097155731
0.009761163
0.0098052874
0.009844869
0.0098797096
0.0099095591
0.0099339035
0.009952957
0.0099667809
0.0099765809
0.0099841924
0.0099909503
0.0099974169
0.010003769
0.010010058
0.010016283
0.010022351
0.010028141
0.01003351
0.010038149
0.010041706
0.010043707
0.0100428
0.010032677
0.009988332
0.0098860967
0.0097631793
0.0096358634
0.0095006255
0.0093568329
0.0092060996
0.0090502305
0.0088907123
0.0087285662
0.0085644434
0.0083987279
0.0082316333
0.0080630875
0.0078930461
0.007721168
0.0075470656
0.0073702815
0.0071900049
0.0070053822
0.0068154585
0.006618823
0.0064136988
0.0061978627
0.0059684588
0.0057217389
0.0054527868
0.0051547765
0.0048180711
0.0044295803
0.0039724192
0.0034299178
0.0028024572
0.0021289047
0.0014664157
0.00084669697
0.00027451481
0.0055872527
0.0057171262
0.0058423216
0.0059623363
0.0060758343
0.0061800563
0.0062872102
0.006429026
0.0066175896
0.0068217133
0.0070051511
0.0071478343
0.0072952015
0.0074571261
0.0076023298
0.0077198532
0.0078532385
0.0080071935
0.0081178109
0.0082127115
0.0083106505
0.0083848646
0.0084652418
0.0085494487
0.0086349545
0.0087200829
0.0088169054
0.0089191587
0.0090239199
0.0091120853
0.0091891123
0.0092527414
0.0093184501
0.0093829523
0.0094477534
0.0095012862
0.0095492286
0.0095925848
0.0096380813
0.0096870484
0.0097317157
0.0097777626
0.0098263807
0.0098735315
0.0099159676
0.0099534358
0.0099857014
0.010012201
0.010033143
0.010048583
0.010059777
0.010068642
0.010076588
0.010084225
0.010091758
0.010099252
0.010106717
0.010114063
0.010121167
0.010127887
0.010133904
0.010138853
0.01014225
0.010142705
0.010133856
0.010090873
0.0099900114
0.0098678095
0.0097410346
0.0096062701
0.0094628582
0.0093123996
0.0091566674
0.0089971178
0.0088347398
0.0086701514
0.0085037059
0.0083356031
0.008165746
0.0079941022
0.0078203123
0.0076439985
0.0074647312
0.0072816872
0.0070940374
0.0069008662
0.006700757
0.0064919349
0.006272195
0.0060386848
0.0057876381
0.0055141543
0.005211379
0.0048696244
0.0044757791
0.004012876
0.0034640694
0.0028296439
0.0021487554
0.0014792893
0.00085350786
0.00027649842
0.0055459164
0.0056785797
0.0058066304
0.0059295358
0.006045893
0.0061527606
0.0062613163
0.0064041043
0.0065933774
0.0067988368
0.0069847838
0.0071296996
0.0072789885
0.0074441574
0.007591715
0.0077117838
0.0078476926
0.0080058223
0.0081175245
0.0082143292
0.0083155267
0.0083917672
0.0084750228
0.0085628352
0.0086517879
0.008740484
0.0088403691
0.0089455588
0.009053435
0.0091440007
0.0092227324
0.0092873636
0.0093543411
0.0094206872
0.0094880062
0.0095442598
0.0095948894
0.0096410283
0.0096893325
0.0097414453
0.0097890123
0.009837883
0.0098894661
0.0099395797
0.0099848048
0.010024831
0.010059445
0.010088034
0.010110798
0.010127786
0.010140306
0.010150357
0.010159421
0.010168164
0.010176817
0.01018546
0.010194114
0.01020269
0.010211066
0.010219096
0.010226447
0.010232744
0.010237489
0.010239271
0.010231729
0.010190291
0.010090911
0.0099694131
0.0098432038
0.0097089764
0.0095660355
0.0094159658
0.0092605127
0.0091011056
0.0089386994
0.0087738736
0.0086069493
0.0084381003
0.0082671926
0.008094196
0.0079187282
0.0077404128
0.0075588368
0.007373162
0.007182582
0.0069862227
0.0067826655
0.006570148
0.0063464714
0.006108805
0.0058534164
0.0055754128
0.0052679217
0.0049212189
0.0045221659
0.0040536968
0.0034987934
0.0028575508
0.0021693311
0.0014928511
0.00086099447
0.00027883493
0.0055033332
0.0056387589
0.0057696492
0.0058954418
0.0060146682
0.0061242075
0.0062339969
0.0063775909
0.0065675481
0.0067742526
0.0069627698
0.0071099739
0.0072610014
0.007429493
0.0075796022
0.0077019949
0.0078403484
0.0080027627
0.0081155805
0.0082142459
0.008318739
0.0083969556
0.0084831279
0.0085747074
0.0086670684
0.0087593467
0.0088622279
0.0089703054
0.0090812429
0.0091740229
0.009254205
0.0093196077
0.0093877297
0.0094559204
0.0095258516
0.0095849681
0.0096383951
0.0096874039
0.009738546
0.0097938123
0.0098442429
0.0098958491
0.0099503015
0.010003286
0.01005121
0.010093705
0.010130583
0.010161184
0.010185696
0.010204162
0.010217938
0.010229102
0.010239216
0.010248997
0.010258708
0.010268445
0.010278239
0.010288005
0.010297617
0.010306927
0.010315587
0.01032321
0.010329288
0.010332401
0.010326245
0.010286579
0.010188847
0.010068104
0.0099425546
0.0098089985
0.0096666944
0.009517213
0.0093622761
0.0092032917
0.0090411782
0.0088764784
0.0087094744
0.008540309
0.0083688081
0.008194926
0.0080182455
0.0078383898
0.0076549521
0.007467072
0.0072739688
0.007074795
0.0068681258
0.0066522088
0.0064248709
0.0061832842
0.0059237068
0.0056412744
0.0053290871
0.0049773745
0.0045729723
0.0040987018
0.0035373263
0.0028887401
0.0021925098
0.0015081822
0.00086932567
0.00028134938
0.0054595337
0.00559769
0.0057313999
0.0058600719
0.0059821739
0.0060944076
0.0062052595
0.0063494887
0.0065401187
0.0067479625
0.0069391016
0.007088661
0.007241269
0.0074130712
0.0075660062
0.007690486
0.0078312225
0.007997974
0.0081119825
0.0082124697
0.0083202735
0.0084004092
0.0084895138
0.0085850573
0.0086807813
0.0087766683
0.008882467
0.0089933753
0.0091073065
0.0092020857
0.0092834467
0.009349402
0.009418566
0.0094886242
0.0095612731
0.009623399
0.0096797216
0.0097316669
0.0097856479
0.0098440384
0.0098972603
0.0099514762
0.010008665
0.010064395
0.010114903
0.010159756
0.0101988
0.010231323
0.0102575
0.010277368
0.010292326
0.01030453
0.010315619
0.010326366
0.010337068
0.010347837
0.010358714
0.010369616
0.010380414
0.010390955
0.010400874
0.010409774
0.010417134
0.010421539
0.010416797
0.010379063
0.010283075
0.01016306
0.010038179
0.0099053429
0.0097637519
0.0096149602
0.0094606709
0.0093022759
0.0091406664
0.008976345
0.008809554
0.0086403996
0.0084686526
0.0082942454
0.0081167218
0.0079356797
0.0077507069
0.0075609201
0.0073655392
0.0071637476
0.006954123
0.0067349178
0.0065039664
0.0062584756
0.0059947312
0.0057078772
0.0053910075
0.0050343196
0.0046246166
0.0041446069
0.0035768409
0.0029209298
0.0022165881
0.00152428
0.00087832245
0.00028419327
0.005555402
0.0056919068
0.0058234464
0.0059484265
0.006063374
0.0061751154
0.006319801
0.0065110983
0.0067199806
0.0069137688
0.007065761
0.007219828
0.007394833
0.0075509289
0.0076772515
0.007820339
0.0079914166
0.0081067237
0.0082089992
0.0083201111
0.0084021109
0.0084941357
0.0085938607
0.0086929047
0.008792435
0.0089010617
0.009014736
0.0091315725
0.0092281032
0.0093103623
0.0093766694
0.0094467936
0.0095187583
0.0095942322
0.0096595063
0.0097187994
0.0097737145
0.0098304955
0.0098919341
0.0099478323
0.010004488
0.01006424
0.010122558
0.010175505
0.010222584
0.010263678
0.010298021
0.010325773
0.010346959
0.010363022
0.01037619
0.010388176
0.010399816
0.010411441
0.010423177
0.010435076
0.010447059
0.010458991
0.01047071
0.010481838
0.010491958
0.010500542
0.010506189
0.010502865
0.010467189
0.010373014
0.010253661
0.010129402
0.0099972752
0.0098564082
0.0097083358
0.0095547534
0.0093970427
0.0092360731
0.009072317
0.0089059758
0.0087371172
0.0085654567
0.0083908917
0.0082129095
0.0080310756
0.007844962
0.0076536412
0.0074563326
0.0072522369
0.0070399155
0.0068176158
0.0065832057
0.0063339054
0.0060660066
0.0057746731
0.0054530055
0.0050911894
0.0046760044
0.0041900481
0.0036157193
0.0029522605
0.0022398176
0.0015399556
0.0008873777
0.00028720221
0.0055119265
0.0056511976
0.0057855886
0.0059134456
0.0060311224
0.0061435809
0.0062885284
0.0064804929
0.0066903306
0.0068867597
0.0070412708
0.0071967137
0.0073747249
0.007534353
0.0076622828
0.007807724
0.0079830493
0.0080997851
0.0082038212
0.0083182284
0.0084020511
0.0084969587
0.0086010703
0.0087034094
0.0088066182
0.0089179757
0.0090343404
0.00915397
0.0092519728
0.0093348479
0.0094013273
0.0094723488
0.009546269
0.0096246671
0.0096932097
0.0097555128
0.0098133873
0.0098728819
0.0099372381
0.0099956486
0.010054529
0.010116626
0.010177337
0.010232548
0.010281697
0.010324705
0.010360748
0.010389971
0.010412385
0.010429468
0.010443515
0.010456316
0.010468768
0.010481239
0.010493872
0.010506728
0.010519731
0.010532744
0.010545593
0.010557886
0.010569188
0.010578965
0.010585843
0.010583993
0.010550559
0.010458372
0.010339731
0.010216162
0.010084844
0.0099448263
0.0097976242
0.0096449289
0.0094881211
0.0093280611
0.0091652
0.0089997088
0.0088316156
0.008660581
0.0084864607
0.0083086839
0.0081267684
0.0079402477
0.0077481454
0.0075496599
0.0073439919
0.007129681
0.0069049799
0.0066677576
0.0064152426
0.0061437523
0.0058484885
0.0055225358
0.005156034
0.0047357484
0.0042442048
0.0036633939
0.0029923797
0.0022707883
0.0015607012
0.00089842022
0.00029036911
0.0054673006
0.0056093048
0.005746527
0.005877256
0.0059976746
0.0061106805
0.0062556687
0.0064483128
0.006659042
0.006858066
0.0070151903
0.0071719625
0.0073527068
0.0075162453
0.0076455736
0.0077934024
0.0079728372
0.008091136
0.0081969111
0.0083146007
0.0084002299
0.0084979685
0.0086066141
0.0087122564
0.0088191733
0.0089331633
0.0090521275
0.0091744112
0.0092735785
0.0093567935
0.009423289
0.0094951625
0.0095710915
0.0096524948
0.0097243969
0.0097897052
0.0098504769
0.0099125436
0.0099796249
0.01004033
0.010101168
0.010165349
0.010228217
0.010285483
0.010336517
0.010381274
0.010418874
0.010449439
0.010472969
0.010490969
0.010505794
0.010519308
0.010532473
0.010545694
0.010559132
0.010572858
0.010586798
0.010600807
0.010614704
0.010628075
0.010640469
0.01065134
0.010659353
0.010658919
0.010627764
0.010537603
0.010419597
0.010296629
0.010166049
0.010026824
0.0098804421
0.0097285991
0.0095726874
0.0094135681
0.0092516851
0.0090871871
0.00892007
0.0087499476
0.0085766317
0.0083994778
0.0082179487
0.0080315288
0.0078391705
0.0076400291
0.0074332772
0.0072174155
0.0069906725
0.0067509104
0.006495363
0.0062203465
0.0059210744
0.0055906212
0.0052191102
0.0047932749
0.0042954978
0.0037076542
0.0030283738
0.0022978095
0.0015791527
0.00090902893
0.00029385325
0.0054215618
0.005566262
0.0057062911
0.0058398833
0.0059630532
0.0060764452
0.0062212128
0.0064145703
0.0066261408
0.0068276801
0.0069875151
0.007145605
0.0073287556
0.0074965532
0.0076271166
0.007777389
0.0079607529
0.008080736
0.0081882324
0.0083092009
0.008396651
0.008497174
0.0086104025
0.0087193877
0.0088300378
0.0089465689
0.0090680184
0.009192788
0.0092927901
0.0093760817
0.0094424622
0.0095151582
0.0095931462
0.009677609
0.0097529244
0.0098211816
0.0098847282
0.0099491647
0.010018711
0.010081436
0.010143913
0.010209867
0.010274614
0.010333684
0.010386377
0.01043268
0.010471651
0.010503389
0.010527882
0.010546658
0.010562123
0.010576212
0.010589955
0.010603796
0.010617914
0.010632387
0.010647145
0.010662039
0.010676872
0.010691215
0.010704598
0.010716469
0.010725538
0.01072649
0.010697684
0.010609683
0.01049238
0.010370058
0.010240268
0.010101893
0.0099563981
0.0098054863
0.0096505681
0.0094925228
0.0093317987
0.0091685384
0.0090027247
0.0088339314
0.0086619283
0.0084860168
0.0083055925
0.0081200717
0.0079283234
0.0077294416
0.0075225527
0.0073060883
0.0070782249
0.0068367935
0.0065790079
0.0063011748
0.0059985275
0.0056641239
0.0052880595
0.0048570509
0.0043533818
0.0037586315
0.0030711995
0.0023308845
0.0016016477
0.00092152706
0.00029771044
0.0055221057
0.0056649136
0.0058013565
0.0059272841
0.006040916
0.006185149
0.00637928
0.0065916493
0.0067956015
0.0069582411
0.0071176695
0.0073028676
0.0074752079
0.0076069062
0.0077596872
0.0079467837
0.008068537
0.00817774
0.0083020029
0.008391314
0.0084946037
0.0086123449
0.0087247162
0.0088391362
0.0089581304
0.0090819193
0.0092089735
0.0093094668
0.0093925887
0.0094587484
0.0095322526
0.0096123397
0.0096998812
0.009778619
0.009849712
0.0099158457
0.0099823837
0.010054064
0.010118472
0.010182214
0.010249581
0.010315874
0.010376446
0.010430518
0.010478107
0.010518201
0.010550878
0.010576116
0.010595464
0.010611367
0.010625826
0.01063994
0.010654198
0.010668797
0.010683825
0.010699214
0.010714805
0.010730387
0.01074551
0.010759683
0.010772341
0.010782242
0.010784353
0.010757708
0.010671746
0.01055501
0.010433162
0.010303981
0.010166279
0.01002149
0.0098713264
0.0097172278
0.0095601006
0.0094004116
0.0092383185
0.0090737982
0.0089064059
0.0087358863
0.0085614887
0.0083825529
0.0081984284
0.0080078962
0.0078099666
0.0076036806
0.0073873836
0.0071591704
0.0069168018
0.0066574378
0.006377346
0.0060717279
0.0057336282
0.0053531319
0.0049169516
0.0044073182
0.0038056794
0.0031100278
0.0023605077
0.0016221659
0.00093360959
0.00030179793
0.0054768807
0.0056224356
0.0057617131
0.0058904028
0.0060041563
0.0061474694
0.0063424584
0.0065555905
0.0067618416
0.0069273645
0.0070881837
0.0072750623
0.0074521367
0.0075849446
0.0077402868
0.0079309352
0.0080544927
0.0081653889
0.0082929848
0.0083842074
0.0084902953
0.0086123686
0.0087281319
0.0088463843
0.0089677806
0.0090937249
0.0092228234
0.0093234602
0.0094061853
0.0094720455
0.0095463548
0.0096285638
0.0097191621
0.0098012815
0.0098750375
0.0099435003
0.010011803
0.010085212
0.010150904
0.01021548
0.010283838
0.010351275
0.010412976
0.010468073
0.010516602
0.010557482
0.010590768
0.010616441
0.010636065
0.010652105
0.010666621
0.010680785
0.010695135
0.010709893
0.010725159
0.010740868
0.010756857
0.010772898
0.010788524
0.010803222
0.010816414
0.01082691
0.010829963
0.010805291
0.010721283
0.010605081
0.010483644
0.010354992
0.010217877
0.010073707
0.0099242115
0.009770863
0.0096146031
0.0094559351
0.0092950396
0.0091319111
0.008966113
0.0087973796
0.0086249402
0.0084480905
0.0082661287
0.0080777655
0.0078819234
0.0076775548
0.0074628941
0.0072359236
0.0069942976
0.0067350664
0.0064544028
0.0061474297
0.0058071115
0.0054234511
0.0049831024
0.0044682081
0.0038599669
0.0031561046
0.0023965838
0.0016472239
0.00094789203
0.00030635766
0.005430631
0.0055788977
0.00572099
0.005852444
0.0059663248
0.006108127
0.0063041155
0.0065179801
0.0067264156
0.0068948791
0.0070571695
0.0072453695
0.0074272635
0.0075612376
0.0077191587
0.0079132268
0.0080385576
0.0081511325
0.0082821251
0.008375299
0.0084842669
0.008610419
0.0087295311
0.0088516799
0.0089754402