/*--------------------------------*- C++ -*----------------------------------*\
| =========                 |                                                 |
| \\      /  F ield         | OpenFOAM: The Open Source CFD Toolbox           |
|  \\    /   O peration     | Version:  2506                                  |
|   \\  /    A nd           | Website:  www.openfoam.com                      |
|    \\/     M anipulation  |                                                 |
\*---------------------------------------------------------------------------*/
FoamFile
{
    version     2.0;
    format      ascii;
    arch        "LSB;label=32;scalar=64";
    class       volScalarField;
    location    "0.0005";
    object      Ma;
}
// * * * * * * * * * * * * * * * * * * * * * * * * * * * * * * * * * * * * * //

dimensions      [0 0 0 0 0 0 0];

internalField   nonuniform List<scalar> 
13761
(
0.29958969
0.29958969
0.29958969
0.29958969
0.29958948
0.29958212
0.29948735
0.29887138
0.29645011
0.29014027
0.28269119
0.2821084
0.285748
0.28769
0.28918293
0.28616795
0.28829661
0.29060142
0.29289237
0.29641789
0.29784066
0.2962742
0.29951681
0.30201217
0.30381563
0.30474512
0.30613639
0.30710835
0.30779382
0.30871654
0.30996116
0.31157099
0.31349934
0.315527
0.31746724
0.31917684
0.32067257
0.32195173
0.3230539
0.32401667
0.32485824
0.32563843
0.32636257
0.32701621
0.32765128
0.32827781
0.32890942
0.32949955
0.3300386
0.33051688
0.33091628
0.33129974
0.33165201
0.33203796
0.33245113
0.33289117
0.33328191
0.33361319
0.33393033
0.33427689
0.33467632
0.33509141
0.33551971
0.33596532
0.33654037
0.33713817
0.3378067
0.3384234
0.33897132
0.33923038
0.33854889
0.33619894
0.33270426
0.32885056
0.32480627
0.32063565
0.31637724
0.31205822
0.30769444
0.30329428
0.298855
0.294368
0.28982025
0.28519783
0.28048261
0.27565437
0.27068957
0.26555838
0.26022869
0.25466105
0.24880906
0.24261004
0.23597932
0.22878315
0.22078578
0.21171213
0.2011634
0.18854298
0.17301503
0.15354208
0.12939783
0.10130466
0.071584388
0.042248152
0.014025632
0.29958969
0.29958969
0.29958969
0.29958969
0.29958951
0.29958251
0.2994888
0.29888065
0.29647183
0.29019938
0.28259328
0.28200053
0.28512599
0.28716752
0.28825772
0.28602142
0.2878725
0.28990624
0.29225257
0.29617984
0.2973311
0.29573951
0.29942946
0.30162847
0.30346302
0.30428235
0.3055102
0.30647228
0.30699686
0.30770908
0.30896526
0.31083034
0.31300959
0.31531781
0.31748374
0.31935629
0.32094898
0.3222719
0.32338524
0.32434723
0.32518705
0.3259624
0.32667266
0.32728895
0.32788867
0.32847693
0.32906508
0.32959689
0.33006827
0.33048301
0.3308258
0.33115762
0.33148709
0.33185099
0.33220715
0.33254985
0.3328365
0.33307377
0.33330761
0.33357076
0.33386514
0.33417912
0.33449915
0.33480435
0.33498586
0.33498768
0.3350967
0.3353578
0.33552746
0.33522017
0.33355408
0.33016864
0.32606901
0.32169122
0.31714713
0.31249298
0.30776507
0.30298938
0.29818037
0.29334447
0.28847935
0.28357771
0.27862585
0.27360646
0.26849662
0.2632696
0.25789347
0.25232799
0.24652784
0.240437
0.23398574
0.22708272
0.2196141
0.21142927
0.20233429
0.19207231
0.1802928
0.16651362
0.15011434
0.13043549
0.10734891
0.08214704
0.056984539
0.033124736
0.01082485
0.29958969
0.29958969
0.29958969
0.29958953
0.29958291
0.29949157
0.29887874
0.29643853
0.2900943
0.28229874
0.28131958
0.28448784
0.2871113
0.28760122
0.28566974
0.28729954
0.28968321
0.2917534
0.29551356
0.29686055
0.29505996
0.29872081
0.30098249
0.30311824
0.30411285
0.30532045
0.30632373
0.30682883
0.30740271
0.30850651
0.31013675
0.31214387
0.31434875
0.31645801
0.31830862
0.31991539
0.32126165
0.32243987
0.32345774
0.32436591
0.32520042
0.32597362
0.32664206
0.32728649
0.32789992
0.32849967
0.32903244
0.32948116
0.32986264
0.33018354
0.33050272
0.33082194
0.33114601
0.33143415
0.33169448
0.33190641
0.33207876
0.33225301
0.33244173
0.33264915
0.33286727
0.33308955
0.3332855
0.33357923
0.33393499
0.33426595
0.33445761
0.33450918
0.33400841
0.33205308
0.32847238
0.32427139
0.31982555
0.31523225
0.31054228
0.30578831
0.30099336
0.29616898
0.29132007
0.28644367
0.28153226
0.27657252
0.27154743
0.26643477
0.26120902
0.25583988
0.25029006
0.24451944
0.23847762
0.23210004
0.22530049
0.21796743
0.20994823
0.20105029
0.19101261
0.17947057
0.16592191
0.14972716
0.13023454
0.10735187
0.082341014
0.057247562
0.033336298
0.010909604
0.29958969
0.29958969
0.29958969
0.29958955
0.29958337
0.29949423
0.29888698
0.29644206
0.29003556
0.28215183
0.2809734
0.28422303
0.28667469
0.28697459
0.28537521
0.28689443
0.28932882
0.29104339
0.29523529
0.29670262
0.29463865
0.29810105
0.30031393
0.30251571
0.30355026
0.30482826
0.30594937
0.30643401
0.30698398
0.3082379
0.31000365
0.31210712
0.31434877
0.31646263
0.31832259
0.31989422
0.32122583
0.32237167
0.32335524
0.32423821
0.32502957
0.32576572
0.32639995
0.32700528
0.32757085
0.3281434
0.32862235
0.32902221
0.3293483
0.32962569
0.32990631
0.33017305
0.33043259
0.33065553
0.33084425
0.3309917
0.33110962
0.33122812
0.33135494
0.3314963
0.33164452
0.33178114
0.33186825
0.33188532
0.33205489
0.3321778
0.33227908
0.33226398
0.33171264
0.32969703
0.3260771
0.32181327
0.3172823
0.31258575
0.30778089
0.30290579
0.29798568
0.29303322
0.28805468
0.28304824
0.27800706
0.27291817
0.26776501
0.26252539
0.25717329
0.25167736
0.2459984
0.24009293
0.23390869
0.22738203
0.22043239
0.21296086
0.20483913
0.19589165
0.18587114
0.1744278
0.16107437
0.1451845
0.12611392
0.10377874
0.079444084
0.05512483
0.032039347
0.010462756
0.29958969
0.29958969
0.29958969
0.29958957
0.29958375
0.29949682
0.29888966
0.29642402
0.2899413
0.28191009
0.28030958
0.28351723
0.28618384
0.28664446
0.28500578
0.28626492
0.28893463
0.29059347
0.29466577
0.29612217
0.29410306
0.29755349
0.29999116
0.30221253
0.30327184
0.304426
0.30562438
0.30594376
0.3063758
0.30746238
0.30911401
0.31122362
0.31350991
0.31566528
0.31757593
0.31920062
0.32058224
0.32176425
0.32279096
0.32369674
0.32451973
0.32526834
0.32591667
0.32652345
0.32709204
0.32765772
0.32812869
0.32850462
0.32879769
0.32904635
0.32929273
0.3295332
0.32975827
0.32994283
0.33008542
0.33018627
0.33027535
0.33036162
0.33045485
0.3305594
0.33066442
0.33075686
0.33090737
0.33112467
0.33124768
0.33132608
0.33137688
0.33130534
0.33070409
0.32862875
0.32497382
0.32069427
0.31614533
0.31142686
0.30659576
0.30169007
0.29673637
0.29174921
0.28673583
0.28169531
0.27662176
0.27150336
0.26632422
0.261063
0.25569504
0.25019009
0.24451015
0.23861254
0.23244432
0.22593928
0.21901242
0.21155809
0.20343644
0.19446605
0.18439986
0.17289317
0.15946911
0.14351874
0.12443049
0.1021675
0.078032417
0.05402618
0.031332155
0.010204166
0.29958969
0.29958969
0.29958969
0.29958958
0.2995841
0.29949916
0.29889279
0.29642233
0.28988162
0.28169879
0.27984342
0.28325537
0.28575707
0.28638987
0.28447787
0.28570928
0.28873698
0.29009755
0.29415974
0.29575609
0.29363581
0.29676657
0.29931032
0.30159122
0.3027919
0.30413828
0.30542607
0.30567258
0.30613938
0.30724581
0.30893204
0.31098909
0.31321092
0.31532194
0.31720129
0.31880917
0.32017791
0.32135914
0.32238833
0.32329425
0.32411737
0.32487149
0.32552509
0.32613242
0.32670328
0.32723949
0.32770425
0.32806238
0.32831736
0.32853816
0.32875905
0.32898463
0.32918084
0.3293246
0.32942832
0.32949109
0.32954678
0.32960834
0.32968332
0.32977193
0.32986693
0.32997662
0.33006856
0.33014325
0.33025535
0.33035756
0.33043127
0.33037268
0.32974748
0.32766265
0.32401057
0.31972663
0.31516564
0.31042588
0.30556385
0.30061931
0.29561939
0.29057951
0.2855076
0.2804031
0.2752608
0.27006918
0.26481352
0.25947321
0.25402425
0.24843785
0.2426779
0.23670469
0.23046931
0.22391011
0.2169461
0.20947419
0.20135734
0.19241649
0.18240532
0.17097953
0.15766065
0.14184016
0.1229045
0.10082443
0.076908336
0.053162958
0.030774075
0.0099992497
0.29958969
0.29958969
0.29958969
0.29958958
0.29958442
0.29950137
0.29889588
0.29641334
0.2898035
0.28142593
0.27925653
0.28263914
0.285037
0.2861828
0.28398411
0.28525991
0.28815351
0.28958774
0.29370984
0.29532154
0.2932614
0.29613248
0.29902186
0.30110486
0.30225479
0.30366617
0.30492108
0.30501415
0.30548572
0.30652611
0.30819057
0.31029578
0.31259231
0.31475229
0.31668428
0.31832447
0.31973223
0.32093251
0.32197308
0.32288115
0.32371265
0.32447421
0.32513444
0.32574924
0.32633313
0.32687
0.32732488
0.32767219
0.327909
0.32809563
0.32828237
0.32846507
0.32863596
0.32875613
0.32884822
0.32889804
0.32894238
0.32899002
0.32904757
0.32911814
0.32921697
0.32936932
0.32952392
0.32964287
0.32973371
0.32982449
0.32988995
0.32982752
0.32921198
0.32714655
0.32351246
0.31923583
0.31467781
0.30993905
0.3050759
0.30012747
0.29512157
0.29007388
0.28499263
0.27987759
0.27472366
0.26951966
0.26425107
0.25889771
0.25343582
0.24783616
0.24206201
0.23607273
0.22981748
0.22323295
0.21623751
0.20872921
0.20057184
0.19158822
0.1815347
0.17006965
0.15671897
0.14088003
0.12195388
0.09993242
0.076141388
0.05257474
0.030397565
0.0098595799
0.29958969
0.29958969
0.29958958
0.29958469
0.29950349
0.29889995
0.29641049
0.28974356
0.28116598
0.27875899
0.28227321
0.28464236
0.28609231
0.28334278
0.28468022
0.28777034
0.28932576
0.29321647
0.29476609
0.29253706
0.29548379
0.29868119
0.30064929
0.30188203
0.30342709
0.30464123
0.30466162
0.30523742
0.30625572
0.30785219
0.30992149
0.31217672
0.31431293
0.31621281
0.31784542
0.31922834
0.32040654
0.32144159
0.32233776
0.32317934
0.32394565
0.32462637
0.32524787
0.32584135
0.32640332
0.3268801
0.32724478
0.32749591
0.32767473
0.32785345
0.32802271
0.32818853
0.32829818
0.32839622
0.32845103
0.32849891
0.32854756
0.32861039
0.32868981
0.3288005
0.3288886
0.32897176
0.32907981
0.32919329
0.32930414
0.3293933
0.32936123
0.32878604
0.32677303
0.32317301
0.3189148
0.3143695
0.30963631
0.30477222
0.2998165
0.29479648
0.28972827
0.28462126
0.27947649
0.27428979
0.26905038
0.26374327
0.25834813
0.25284187
0.2471965
0.24137631
0.23534139
0.22904283
0.22241912
0.21539014
0.20785453
0.19967803
0.19068442
0.18063048
0.16917501
0.15584466
0.14003934
0.12116324
0.099216094
0.075530115
0.052100089
0.030088322
0.0097444637
0.29958969
0.29958969
0.29958959
0.29958492
0.29950549
0.29890537
0.29640898
0.28967663
0.28087578
0.27824495
0.28170156
0.28397328
0.28580552
0.28267243
0.28423485
0.28721839
0.28899289
0.29266454
0.29438104
0.29227359
0.29480605
0.29812785
0.30000411
0.30121171
0.30288809
0.30415155
0.30412741
0.30483607
0.30574637
0.30727862
0.30931964
0.31159743
0.31373139
0.31564957
0.31727878
0.31867328
0.31987791
0.32093652
0.32187056
0.32273721
0.32353371
0.32422647
0.32485528
0.32546056
0.3260237
0.32649322
0.3268653
0.32712473
0.32730719
0.32748815
0.32765291
0.32781358
0.32791469
0.32801642
0.32807378
0.32812445
0.3281834
0.32826305
0.32835784
0.32845919
0.32856819
0.32869885
0.32881093
0.32891695
0.32902535
0.32911558
0.32908945
0.32853314
0.32655636
0.32298098
0.31872855
0.31418369
0.30945013
0.30458474
0.29962638
0.29460249
0.28952919
0.28441481
0.27925986
0.27406012
0.26880592
0.26348427
0.25807648
0.25255953
0.2469048
0.24107625
0.23503395
0.22872785
0.22209513
0.21505482
0.20750516
0.19931034
0.19029302
0.18021015
0.16872105
0.15535536
0.13951731
0.12062343
0.098690283
0.075067427
0.051740283
0.029855252
0.0096563293
0.29958969
0.29958969
0.29958959
0.29958511
0.29950738
0.29891137
0.29641167
0.28961793
0.28059072
0.27780823
0.28118133
0.28364725
0.28564999
0.28210359
0.2837476
0.28658779
0.28870869
0.29223938
0.29380557
0.29167506
0.29420791
0.29788308
0.29968711
0.30081802
0.3026527
0.30375855
0.30368616
0.3044448
0.30527955
0.30675973
0.30878379
0.31105892
0.31319875
0.31512056
0.31675271
0.31816633
0.31938009
0.32044841
0.32141473
0.32229627
0.32311635
0.32381802
0.32445843
0.32506245
0.32562832
0.32610286
0.32647609
0.32673506
0.32691256
0.32709842
0.32726201
0.32742357
0.32753613
0.32765752
0.32773098
0.32778413
0.32784437
0.32792156
0.32801596
0.3281273
0.32825693
0.32838043
0.32850646
0.32863338
0.32876301
0.32887395
0.32886946
0.3283525
0.32645365
0.32294426
0.31872902
0.31420872
0.30948832
0.3046257
0.29966083
0.29462254
0.28952904
0.28439116
0.27921147
0.27398701
0.26870868
0.26336352
0.25793245
0.25239216
0.24671486
0.24086534
0.23480388
0.22848224
0.2218377
0.21478941
0.2072345
0.19903811
0.19002282
0.17994582
0.16846685
0.15511475
0.13929344
0.1204173
0.098501567
0.074890599
0.051581498
0.029735378
0.0096048449
0.29958969
0.29958969
0.2995896
0.29958528
0.2995092
0.29891745
0.29641605
0.28956178
0.28029404
0.27739304
0.28052423
0.28308376
0.28516678
0.28153162
0.28316513
0.28600328
0.28847149
0.29163283
0.29330997
0.29132353
0.29350604
0.29730625
0.29906749
0.30007771
0.30212109
0.3032324
0.30322213
0.30404872
0.3048459
0.30629951
0.30829931
0.31053062
0.31263301
0.31453632
0.31616823
0.31758223
0.31880557
0.31990069
0.32087873
0.32178107
0.32262878
0.32336207
0.32402839
0.3246631
0.32525609
0.32575499
0.32612789
0.32640057
0.32657485
0.32676543
0.32694021
0.32712608
0.32726225
0.32739588
0.32748824
0.3275572
0.32763779
0.32772648
0.32782824
0.32796775
0.32811223
0.32824161
0.32837509
0.32850879
0.32864226
0.3287538
0.32874904
0.32824252
0.326385
0.32291804
0.31872798
0.31422781
0.30952411
0.3046745
0.29971797
0.29468236
0.28958501
0.28443696
0.27924185
0.27399724
0.26869473
0.263322
0.25786199
0.25229452
0.2465923
0.24071985
0.23463681
0.22829273
0.22162507
0.21455322
0.20697468
0.1987535
0.18971129
0.17960439
0.16809242
0.15470521
0.1388491
0.11994884
0.098035414
0.074472405
0.051251645
0.029520312
0.0095238775
0.29958969
0.2995896
0.29958544
0.29951097
0.29892359
0.29642027
0.28951071
0.28000422
0.27699635
0.27986832
0.28274534
0.28489479
0.28118478
0.28257875
0.2853453
0.28803766
0.29105467
0.29294907
0.2909836
0.29296978
0.29683937
0.29862254
0.29947548
0.30176359
0.30283313
0.30286305
0.30363532
0.30437624
0.3058039
0.30773457
0.30990239
0.31199176
0.31389742
0.31555455
0.31701843
0.3182958
0.3194406
0.3204574
0.32140195
0.3222764
0.32303375
0.3237223
0.32437311
0.32498485
0.32550873
0.32590892
0.32620096
0.32638357
0.32656424
0.32673135
0.32691271
0.32705094
0.32719077
0.32729434
0.32737728
0.32747559
0.32759089
0.32771408
0.32783953
0.32797492
0.32812655
0.32827655
0.32842038
0.32856051
0.32867929
0.32868847
0.32821482
0.32642232
0.32301098
0.31885354
0.31438029
0.30969962
0.3048691
0.29992787
0.29490325
0.2898125
0.28466608
0.27946779
0.27421612
0.26890357
0.26351846
0.25804327
0.25245643
0.24673112
0.2408329
0.23472218
0.22835071
0.22165627
0.21455842
0.20695319
0.19870686
0.1896422
0.17951751
0.16799081
0.15459269
0.13873014
0.11982494
0.09790479
0.074333464
0.051115856
0.029412686
0.0094763793
0.29958969
0.29958961
0.29958558
0.29951268
0.29893004
0.29642411
0.28946134
0.2797206
0.27657079
0.279174
0.28226718
0.28431904
0.28079039
0.28186345
0.28485283
0.28762126
0.29054571
0.29243306
0.29038169
0.29217217
0.29622235
0.29810159
0.29885016
0.3012681
0.30232099
0.30247887
0.30320948
0.3039331
0.30532503
0.30718557
0.30934239
0.3114257
0.31333041
0.31500879
0.31649195
0.31779565
0.31896447
0.32001853
0.32099223
0.32189945
0.32268096
0.32339415
0.32405002
0.32467893
0.32521864
0.32563252
0.32592837
0.32613504
0.32632324
0.3265118
0.32671419
0.32688119
0.32703396
0.32714621
0.32723253
0.32733021
0.32744349
0.32757548
0.32773997
0.32790995
0.32807065
0.32822519
0.32837534
0.32852485
0.32865455
0.32867635
0.3282303
0.32649744
0.32314174
0.31901678
0.31457031
0.30991266
0.30510113
0.30017401
0.29515845
0.29007137
0.28492277
0.2797164
0.27445171
0.26912266
0.26371772
0.25821958
0.25260756
0.24685512
0.24092835
0.23478845
0.22838679
0.22166103
0.21453185
0.20689748
0.19862075
0.18952206
0.17935816
0.16778744
0.15434138
0.1384294
0.11948438
0.097550781
0.07400789
0.050854607
0.029239449
0.0094096714
0.29958969
0.29958962
0.29958572
0.29951431
0.29893678
0.29642937
0.28941395
0.27944642
0.27611809
0.27849483
0.28189069
0.28396363
0.28065184
0.28115124
0.28433842
0.28711676
0.28983207
0.2920021
0.2901518
0.29167344
0.29560503
0.29753993
0.29822603
0.30073451
0.30191359
0.30212926
0.30284515
0.30350538
0.30482584
0.30663365
0.30872701
0.31076457
0.31267411
0.3143718
0.31589166
0.31725173
0.3184661
0.31956502
0.3205812
0.32152798
0.32235593
0.32310269
0.32379202
0.32444931
0.32501218
0.32545157
0.32576202
0.32599132
0.32618597
0.32637336
0.32658577
0.32677119
0.32694557
0.32707214
0.32717829
0.32729232
0.32742154
0.32755786
0.32770905
0.32787258
0.32803892
0.32820717
0.32837489
0.32853726
0.32867874
0.32871496
0.32830574
0.32664995
0.32336508
0.3192801
0.31486628
0.31023855
0.30545463
0.30055279
0.29555904
0.29048961
0.28535395
0.28015545
0.27489263
0.26955941
0.26414611
0.25863719
0.25301267
0.24724652
0.24130495
0.23514853
0.22872954
0.22198558
0.21483636
0.20717832
0.19887713
0.1897544
0.17956767
0.16797465
0.15450745
0.13857452
0.11960286
0.097629042
0.074032302
0.050832423
0.029198086
0.0093840864
0.29958969
0.29958962
0.29958586
0.29951586
0.29894358
0.29643737
0.28937114
0.27917654
0.27563986
0.27781725
0.28142702
0.28348042
0.28025471
0.28029789
0.28384505
0.28655541
0.28930306
0.29148754
0.28965311
0.29090973
0.29487192
0.29699654
0.29777104
0.30030122
0.30155666
0.30174719
0.30243011
0.30306859
0.30428289
0.30602913
0.30807906
0.31012059
0.31204202
0.31379246
0.31536379
0.31678342
0.318052
0.3192133
0.32028154
0.32126252
0.32212647
0.32290171
0.32361137
0.32428869
0.32486807
0.32533321
0.32565097
0.3258907
0.32609621
0.32628861
0.32650019
0.32668066
0.32686175
0.32699566
0.32711488
0.32724037
0.32737967
0.32753287
0.32771665
0.32790548
0.32809506
0.32827795
0.32845328
0.32862506
0.32878115
0.32883435
0.32845726
0.32685712
0.32362573
0.31956981
0.31518141
0.31057768
0.30581672
0.30093626
0.29596231
0.29091055
0.2857893
0.28060054
0.2753415
0.27000522
0.26458174
0.25905629
0.25341024
0.24761828
0.24164755
0.2354598
0.22900721
0.22222721
0.21504026
0.20734334
0.19900112
0.18983386
0.17959899
0.16795584
0.1544347
0.13844602
0.11942707
0.097429579
0.073845038
0.050684022
0.029101691
0.0093474563
0.29958969
0.29958963
0.29958599
0.29951738
0.29895028
0.29644743
0.28933487
0.27891011
0.27514357
0.27716853
0.2809675
0.28316542
0.28000409
0.27964693
0.28337566
0.28603898
0.28873343
0.29093263
0.28939702
0.29045223
0.29422574
0.29640778
0.29716605
0.29966633
0.30105741
0.30128818
0.30198757
0.30265589
0.30376761
0.30543224
0.30743686
0.30946576
0.31141507
0.31319165
0.31480357
0.31625499
0.31756604
0.31877361
0.31987254
0.32089816
0.32179884
0.32260078
0.32334205
0.32403804
0.32465086
0.32513927
0.32548974
0.32575233
0.32597912
0.32617834
0.32640729
0.32660812
0.32680741
0.32695884
0.32708645
0.32721822
0.32737137
0.32753406
0.32771375
0.32789228
0.32807038
0.32824685
0.3284304
0.32860986
0.32877323
0.32883844
0.32849914
0.32698171
0.3238299
0.31981581
0.31546022
0.31088597
0.30615239
0.30129783
0.29634775
0.29131769
0.28621593
0.28104468
0.27580098
0.27047722
0.26506226
0.25953998
0.25389111
0.24809119
0.24210864
0.23590536
0.22943492
0.22263529
0.21542705
0.20770636
0.19933875
0.19014597
0.17988608
0.16821742
0.15467204
0.13865813
0.11960422
0.097552555
0.073897179
0.050676252
0.029067771
0.0093256198
0.29958963
0.29958612
0.29951888
0.29895692
0.29645807
0.2893045
0.27864889
0.27463177
0.2765489
0.28042395
0.28280066
0.27948332
0.278806
0.28276129
0.28546178
0.28825282
0.29032324
0.28893868
0.28979023
0.29340327
0.29573922
0.29666587
0.2992391
0.30072927
0.30096054
0.30164175
0.30221472
0.30321805
0.30478781
0.30673678
0.30875738
0.31072812
0.31255267
0.31421532
0.31574922
0.31713361
0.31839893
0.31955758
0.32062641
0.32156985
0.32240431
0.32318155
0.32389048
0.32452042
0.32501928
0.32539314
0.32565702
0.32590032
0.32612363
0.32637517
0.32659048
0.32680213
0.32696577
0.32710142
0.32723804
0.32739285
0.32755922
0.32775737
0.32797263
0.3281919
0.32840482
0.32860369
0.32879623
0.32897076
0.32905037
0.32874079
0.32729389
0.32421446
0.32023928
0.31591569
0.31137269
0.3066701
0.30184604
0.2969258
0.29192462
0.28685031
0.28170472
0.27648477
0.2711835
0.26579006
0.26028846
0.254659
0.24887683
0.24290965
0.23672025
0.23026239
0.2234759
0.21628177
0.20857977
0.2002354
0.1910695
0.18083732
0.1692011
0.15569008
0.13970503
0.12065059
0.098531005
0.07469266
0.051217565
0.029354222
0.0094045873
0.29958964
0.29958625
0.29952037
0.29896367
0.29646868
0.28927721
0.27839426
0.27410745
0.27595197
0.27983919
0.28249733
0.2790364
0.27830004
0.28234186
0.28498254
0.28792609
0.28977913
0.28843159
0.28917022
0.29268435
0.29510378
0.29612837
0.29870109
0.30024965
0.30047939
0.30110498
0.30162398
0.30259562
0.30411129
0.30602844
0.30805776
0.31006445
0.31195185
0.31367836
0.31527471
0.31670811
0.31802929
0.31923693
0.32034516
0.32131659
0.32217243
0.32295644
0.32368097
0.32432347
0.32482982
0.32521509
0.32549685
0.32574829
0.32598384
0.3262376
0.32646677
0.32668886
0.32687247
0.32703594
0.32720102
0.32738375
0.3275744
0.32778303
0.32798788
0.32818811
0.32838648
0.32859126
0.32879356
0.32898019
0.32907944
0.32881532
0.327468
0.32449143
0.3205752
0.31629579
0.31179177
0.30712465
0.30233415
0.29744566
0.29247427
0.28742683
0.28230437
0.27710258
0.2718129
0.26642346
0.26091854
0.25527905
0.24947985
0.24348755
0.23726359
0.23075966
0.22391302
0.21664208
0.20884278
0.20037808
0.19107078
0.18067628
0.16884968
0.1551213
0.13890927
0.11966594
0.097463326
0.073736785
0.050508593
0.028937264
0.0092671234
0.29958964
0.29958637
0.29952184
0.2989706
0.29647983
0.28925101
0.27814392
0.2735759
0.27535348
0.27921214
0.28216894
0.27845486
0.2776415
0.28167655
0.28441767
0.28739064
0.28921706
0.28791533
0.28840844
0.29196037
0.29445699
0.29551152
0.29812522
0.29984847
0.30018075
0.30068269
0.30119776
0.30207082
0.30351228
0.3053731
0.30738476
0.30939729
0.3113141
0.31308838
0.3147256
0.31621199
0.31757284
0.31882703
0.31996772
0.32098478
0.32186753
0.32268882
0.32343573
0.32410857
0.32463509
0.32505021
0.32534928
0.32560827
0.32584929
0.32612341
0.32636656
0.32659664
0.32678275
0.32694896
0.32711528
0.32730145
0.32750123
0.32772457
0.32796251
0.32820463
0.32844028
0.32866353
0.32887929
0.32907803
0.32919085
0.32895401
0.32767094
0.32476989
0.32089972
0.31665713
0.31218827
0.30755575
0.30280016
0.29794713
0.29301204
0.28800152
0.28291549
0.27774839
0.27249013
0.26712736
0.26164222
0.25601437
0.25021914
0.24422433
0.23799245
0.23147567
0.22461219
0.21732084
0.20949799
0.20100574
0.19166316
0.18122591
0.16935659
0.15559308
0.13935582
0.12009308
0.097876161
0.074098013
0.050789265
0.029114591
0.0093300453
0.29958965
0.29958649
0.2995233
0.29897769
0.29649227
0.28922643
0.27789546
0.27304053
0.27473632
0.27858759
0.28187158
0.27792847
0.2772361
0.28120086
0.28398236
0.2870359
0.28876482
0.28732732
0.28766564
0.29113549
0.29375657
0.29490375
0.29755876
0.29937731
0.29984104
0.30012914
0.30060717
0.30137317
0.30275695
0.30457467
0.3065931
0.30866101
0.31064934
0.31250046
0.31421693
0.31577811
0.31719554
0.31849395
0.31967745
0.32071499
0.32161868
0.32244723
0.32319512
0.32387488
0.3244201
0.3248359
0.32514338
0.32540547
0.325658
0.32594022
0.32619965
0.32644776
0.32664763
0.32681573
0.32698292
0.32717047
0.3273725
0.32760092
0.3278359
0.32806872
0.32829939
0.32853269
0.32876263
0.32897721
0.32911171
0.32891564
0.32771538
0.32490327
0.32108203
0.3168712
0.31242653
0.30781314
0.30307345
0.29823461
0.29331314
0.28831655
0.28324562
0.27809536
0.2728553
0.26751112
0.26204302
0.25642793
0.2506375
0.24463662
0.23838647
0.23183792
0.22492775
0.21757387
0.20967147
0.20108178
0.19162575
0.18105835
0.16903612
0.15509838
0.13868047
0.11926917
0.096994399
0.073323157
0.050225915
0.028792981
0.0092304084
0.29958661
0.29952474
0.29898488
0.29650612
0.28920572
0.27764965
0.27250294
0.27409571
0.27797238
0.2815733
0.27736188
0.2766495
0.28045942
0.28342521
0.2863642
0.28824872
0.28669124
0.28687085
0.29033235
0.29315536
0.29434928
0.29698679
0.29889259
0.29941648
0.29964294
0.30010531
0.30081549
0.30211591
0.30392268
0.30595061
0.30804651
0.31007264
0.31196569
0.31371333
0.31530672
0.3167566
0.31808685
0.31928558
0.32035461
0.32126285
0.32209045
0.32284997
0.32352729
0.32407596
0.32449569
0.3248041
0.32508115
0.32533582
0.32562866
0.32589616
0.32615527
0.32637569
0.32657186
0.32676945
0.32698341
0.32720847
0.32744937
0.32769635
0.32794458
0.32818644
0.32841868
0.32864252
0.32884959
0.32897948
0.32879582
0.32765638
0.3249349
0.32117803
0.31701794
0.31262015
0.30805129
0.30335371
0.29855558
0.29367386
0.28871759
0.28368789
0.27858052
0.27338571
0.2680899
0.26267446
0.25711717
0.25139101
0.24546082
0.23928678
0.2328194
0.22599566
0.21873353
0.2109309
0.20245118
0.19311384
0.18266979
0.17078511
0.15699199
0.14070234
0.12134442
0.098959786
0.07493499
0.051344886
0.029413137
0.0094192347
0.29958672
0.29952616
0.29899212
0.29652103
0.28919044
0.27741
0.27196053
0.27343596
0.27737141
0.28125019
0.27682128
0.27613763
0.27995144
0.2830762
0.28592835
0.2877877
0.2861858
0.28601869
0.2894759
0.29245127
0.29367566
0.29644514
0.2984681
0.29891614
0.29922926
0.2995715
0.30015898
0.30135616
0.30311447
0.30515557
0.30728998
0.30935857
0.31131378
0.31312128
0.31479002
0.31627421
0.3176539
0.3188727
0.31995015
0.32087784
0.32171014
0.32246883
0.32315261
0.32371658
0.32414815
0.32447548
0.32475883
0.325022
0.32531572
0.32559183
0.32586589
0.32609671
0.32629451
0.32649005
0.32670009
0.32692642
0.32718303
0.32745288
0.3277203
0.32798307
0.32824329
0.32849725
0.32873567
0.32889962
0.32876312
0.32770232
0.3250639
0.32134956
0.31721951
0.31285064
0.30831041
0.30364171
0.29887241
0.2940193
0.28909119
0.28408962
0.27901084
0.27384525
0.26857916
0.26319297
0.25766256
0.25195754
0.2460393
0.23986468
0.23338026
0.22651894
0.21919457
0.21130013
0.20269538
0.19320256
0.18258254
0.17049175
0.15646894
0.13994757
0.12040303
0.097942068
0.074015165
0.050646648
0.028987042
0.0092729331
0.29958683
0.29952756
0.29899944
0.29653663
0.28917999
0.27717863
0.27140539
0.27275324
0.27677327
0.28087483
0.27630544
0.27552686
0.279277
0.28251004
0.28516672
0.28723307
0.28560056
0.28508644
0.28870005
0.29183912
0.29299075
0.29592245
0.29797231
0.29841425
0.29871449
0.29897659
0.29947538
0.30065058
0.30239317
0.30446045
0.30664203
0.3087687
0.31078214
0.31263871
0.31433854
0.31585409
0.31724821
0.31848516
0.31958162
0.32050608
0.32132638
0.32206915
0.32273698
0.32328751
0.32370488
0.32401054
0.32428747
0.3245426
0.32484119
0.32512413
0.32540656
0.32565431
0.32586817
0.32608838
0.32632782
0.32658207
0.3268527
0.3271305
0.32740961
0.32768428
0.32795248
0.32821213
0.32845582
0.32862891
0.32851926
0.32753293
0.3249932
0.32133779
0.31724799
0.31291658
0.30841306
0.30378126
0.29904929
0.29423464
0.28934639
0.2843858
0.2793484
0.27422323
0.26899548
0.26364443
0.25814569
0.2524696
0.24657828
0.24042928
0.23396938
0.2271318
0.21982958
0.21195447
0.20336436
0.19387586
0.18324254
0.17113049
0.15708327
0.14053614
0.12096446
0.098477671
0.074493808
0.051030819
0.029237494
0.0093632572
0.29952894
0.29900681
0.29655266
0.28917184
0.27695173
0.2708259
0.27204067
0.27619591
0.28047428
0.27584756
0.27494048
0.27870599
0.28206493
0.28468399
0.28680743
0.28515313
0.28438258
0.28803962
0.29124276
0.29229957
0.29530265
0.29731853
0.29802297
0.29815439
0.29841869
0.29885305
0.29994723
0.30164711
0.30370584
0.30591502
0.3080721
0.31011584
0.31199216
0.31372142
0.31526096
0.31666561
0.31790948
0.31900371
0.31992142
0.32074727
0.32148757
0.32215878
0.32271282
0.32313902
0.32345082
0.32372814
0.32399092
0.32428886
0.32457516
0.32485372
0.32510257
0.32532164
0.32554507
0.32578232
0.32603468
0.3263151
0.32661096
0.32690497
0.32719292
0.32747506
0.32774854
0.32800557
0.32819564
0.32811748
0.32719809
0.3247466
0.32114557
0.31708657
0.31277605
0.30828779
0.30366761
0.29894435
0.29413611
0.2892529
0.2842972
0.27926657
0.27415223
0.26894109
0.26361336
0.25814482
0.25250405
0.24664976
0.24053481
0.23410026
0.2272736
0.21996414
0.21206092
0.20342036
0.19386063
0.18313708
0.17090809
0.15672084
0.14002717
0.12033782
0.097812161
0.073924272
0.050633026
0.029022103
0.0093012339
0.29953029
0.29901415
0.29656867
0.28916308
0.2767229
0.27021964
0.27131402
0.27566499
0.28006473
0.27539311
0.27426687
0.2780519
0.28147572
0.28393766
0.28610295
0.28441307
0.28360814
0.2872301
0.29056728
0.2916342
0.29471036
0.29671988
0.29765215
0.29763741
0.29779279
0.29816939
0.29916961
0.30084167
0.30292819
0.30518549
0.30738209
0.30947648
0.31140323
0.31317226
0.31473087
0.31616013
0.3174109
0.3184951
0.31941351
0.32022041
0.32094211
0.32160444
0.3221458
0.32256064
0.32285747
0.3231229
0.32337416
0.32365451
0.32392793
0.32420396
0.32445392
0.32467017
0.32488835
0.32512528
0.32538236
0.32565944
0.32594731
0.32623691
0.32652298
0.32680388
0.32707741
0.32733636
0.32753211
0.32746866
0.32658973
0.32420888
0.32067367
0.3166649
0.31239633
0.30794571
0.30336106
0.29867271
0.2938991
0.28905041
0.28412823
0.27912872
0.27404143
0.26885199
0.26354007
0.25808127
0.25244854
0.24660797
0.24052065
0.23413528
0.22738524
0.22018402
0.21242425
0.20395512
0.19458474
0.18405697
0.17202646
0.15802602
0.14148521
0.12187931
0.09932561
0.075237276
0.051618935
0.029621481
0.009505214
0.2995316
0.29902143
0.29658478
0.28915461
0.2764958
0.26960674
0.27059846
0.27516169
0.27961982
0.27492511
0.27361044
0.27748394
0.28097062
0.28341495
0.28560282
0.28392434
0.28314487
0.28655392
0.28991051
0.29098112
0.2941061
0.29615574
0.29709881
0.2971738
0.29722906
0.29756189
0.29853238
0.30017499
0.30224315
0.30449522
0.30671079
0.30882059
0.31073887
0.31251085
0.31407124
0.31548204
0.31672058
0.31779641
0.31869392
0.31948557
0.32018873
0.32083394
0.32136869
0.32177813
0.32207908
0.32233035
0.32257333
0.32284524
0.32311834
0.32338668
0.32362694
0.32382805
0.32403752
0.32426139
0.32450227
0.32476776
0.32504998
0.32533291
0.32561256
0.32588827
0.32615767
0.32641255
0.32660547
0.32654276
0.32567117
0.32330241
0.31977587
0.31577158
0.31150327
0.30704941
0.30245978
0.2977664
0.29298919
0.28813959
0.28322092
0.27823129
0.27316202
0.26800035
0.26272634
0.25731542
0.25173349
0.24593885
0.23989004
0.23353378
0.22680331
0.21961084
0.21184133
0.20334336
0.19392717
0.18333754
0.17122888
0.15713787
0.14050732
0.1208515
0.098334664
0.074420727
0.051051724
0.029309114
0.0094124872
0.29953295
0.29902927
0.29660401