/*--------------------------------*- C++ -*----------------------------------*\
| =========                 |                                                 |
| \\      /  F ield         | OpenFOAM: The Open Source CFD Toolbox           |
|  \\    /   O peration     | Version:  2506                                  |
|   \\  /    A nd           | Website:  www.openfoam.com                      |
|    \\/     M anipulation  |                                                 |
\*---------------------------------------------------------------------------*/
FoamFile
{
    version     2.0;
    format      ascii;
    arch        "LSB;label=32;scalar=64";
    class       volScalarField;
    location    "0.0005";
    object      nut;
}
// * * * * * * * * * * * * * * * * * * * * * * * * * * * * * * * * * * * * * //

dimensions      [0 2 -1 0 0 0 0];

internalField   nonuniform List<scalar> 
13761
(
5.0828456e-05
5.0827235e-05
5.082735e-05
5.0825185e-05
5.0833298e-05
5.0842066e-05
5.083007e-05
5.0802537e-05
5.0783417e-05
5.1058683e-05
5.182078e-05
5.2617493e-05
5.2701263e-05
5.2214966e-05
5.201348e-05
5.2437376e-05
5.2857502e-05
5.2574038e-05
5.2122824e-05
5.1918368e-05
5.1517285e-05
5.1835079e-05
5.1861941e-05
5.169018e-05
5.178043e-05
5.1932733e-05
5.1950104e-05
5.1906768e-05
5.1832172e-05
5.1697496e-05
5.1544177e-05
5.1392902e-05
5.1264168e-05
5.1165114e-05
5.1097669e-05
5.106218e-05
5.1045536e-05
5.1043971e-05
5.1054789e-05
5.1077263e-05
5.1107214e-05
5.1146641e-05
5.1190746e-05
5.1233086e-05
5.1275532e-05
5.1322896e-05
5.1371586e-05
5.1419242e-05
5.1459462e-05
5.149204e-05
5.1514818e-05
5.1562972e-05
5.1620053e-05
5.1668913e-05
5.1724747e-05
5.1764505e-05
5.1817471e-05
5.1877129e-05
5.1940213e-05
5.1993827e-05
5.2051482e-05
5.210514e-05
5.2179325e-05
5.2265757e-05
5.2357738e-05
5.2456572e-05
5.256223e-05
5.2696868e-05
5.3135745e-05
5.6413551e-05
7.6986835e-05
0.00013425989
0.00020625944
0.0002681008
0.00031524419
0.0003491863
0.00037209228
0.00038581297
0.0003917941
0.00039104097
0.00038420691
0.00037233877
0.00035665729
0.00033804192
0.00031719939
0.00029472681
0.00027113258
0.0002468419
0.00022221544
0.00019759744
0.00017335293
0.00014981606
0.000127258
0.00010577992
8.5463116e-05
6.6482605e-05
4.9115972e-05
3.3745832e-05
2.0821218e-05
1.0820411e-05
4.2095434e-06
1.0283525e-06
1.2762251e-07
7.2147136e-09
2.3602166e-09
5.082819e-05
5.0827284e-05
5.0827325e-05
5.0825352e-05
5.0828868e-05
5.0842819e-05
5.0835589e-05
5.0826793e-05
5.082358e-05
5.1056821e-05
5.1793829e-05
5.2578954e-05
5.2693241e-05
5.2210217e-05
5.2022832e-05
5.2442572e-05
5.2869154e-05
5.2583779e-05
5.2122937e-05
5.1930696e-05
5.1514421e-05
5.1845828e-05
5.1875736e-05
5.1691792e-05
5.1786586e-05
5.1949531e-05
5.1964288e-05
5.1913253e-05
5.1843252e-05
5.1716591e-05
5.1557399e-05
5.1403345e-05
5.1274517e-05
5.117456e-05
5.1103001e-05
5.10635e-05
5.1046802e-05
5.1045982e-05
5.1056517e-05
5.1079035e-05
5.1109398e-05
5.1149613e-05
5.1194773e-05
5.1238687e-05
5.1283311e-05
5.1331582e-05
5.1380212e-05
5.1427291e-05
5.1470426e-05
5.1506938e-05
5.1537964e-05
5.1572485e-05
5.1627687e-05
5.1673539e-05
5.1725771e-05
5.1769768e-05
5.1828774e-05
5.1887541e-05
5.1950849e-05
5.20041e-05
5.2061753e-05
5.2124906e-05
5.2207372e-05
5.2295764e-05
5.2386825e-05
5.2485408e-05
5.2597214e-05
5.2793781e-05
5.3788077e-05
6.118891e-05
9.5786469e-05
0.00016570454
0.00023756479
0.00029427174
0.00033571893
0.00036425676
0.00038206562
0.00039090793
0.00039224169
0.00038729334
0.0003771459
0.00036274821
0.00034495944
0.00032455336
0.00030222849
0.00027860772
0.0002542348
0.00022956704
0.00020498836
0.00018089609
0.00015754572
0.00013516519
0.00011396439
9.4045216e-05
7.5589618e-05
5.8727588e-05
4.3518515e-05
3.0059326e-05
1.8572532e-05
9.5147436e-06
3.5630245e-06
8.2818137e-07
9.8906757e-08
5.2000028e-09
1.4171097e-09
5.0827588e-05
5.082707e-05
5.0825489e-05
5.0826167e-05
5.0839768e-05
5.0839281e-05
5.0842667e-05
5.0863512e-05
5.1064232e-05
5.17761e-05
5.2534644e-05
5.2670856e-05
5.2201804e-05
5.2028121e-05
5.2445361e-05
5.2880147e-05
5.2594534e-05
5.2134793e-05
5.1943999e-05
5.1511455e-05
5.1853627e-05
5.189033e-05
5.169432e-05
5.1792672e-05
5.1965949e-05
5.1980431e-05
5.192334e-05
5.1860213e-05
5.1740192e-05
5.1569687e-05
5.1410694e-05
5.12821e-05
5.1181261e-05
5.1106725e-05
5.1064521e-05
5.1046432e-05
5.1045473e-05
5.105538e-05
5.107848e-05
5.1109977e-05
5.114996e-05
5.1195418e-05
5.1241182e-05
5.1287816e-05
5.1337522e-05
5.1387793e-05
5.1435203e-05
5.1481294e-05
5.1519877e-05
5.1549984e-05
5.1575987e-05
5.1631392e-05
5.1676468e-05
5.172911e-05
5.1775026e-05
5.1835881e-05
5.1894583e-05
5.1957264e-05
5.2009827e-05
5.206992e-05
5.2136634e-05
5.2221697e-05
5.2313484e-05
5.2410104e-05
5.251154e-05
5.2625385e-05
5.2836331e-05
5.3970954e-05
6.2559184e-05
0.00010089306
0.00017336157
0.00024443771
0.00029952175
0.00033948296
0.00036674335
0.00038346493
0.00039139001
0.00039195802
0.00038637595
0.00037570564
0.00036088296
0.00034275771
0.00032209477
0.00029958481
0.00027584747
0.00025143343
0.00022682133
0.00020243918
0.00017854741
0.00015537373
0.00013311145
0.0001119304
9.2036298e-05
7.3595988e-05
5.6737162e-05
4.1595788e-05
2.8340858e-05
1.7230521e-05
8.6836076e-06
3.2098675e-06
7.4146446e-07
8.8568339e-08
4.7951219e-09
1.4363295e-09
5.0827871e-05
5.0826803e-05
5.082598e-05
5.0825143e-05
5.0833823e-05
5.084147e-05
5.0852775e-05
5.0896684e-05
5.1088707e-05
5.1766451e-05
5.249876e-05
5.262708e-05
5.2188394e-05
5.2029614e-05
5.2451922e-05
5.2891924e-05
5.2603117e-05
5.214318e-05
5.1958114e-05
5.1510581e-05
5.1863053e-05
5.1904931e-05
5.1696273e-05
5.1798871e-05
5.19823e-05
5.1997041e-05
5.1935889e-05
5.1878054e-05
5.1767523e-05
5.1586633e-05
5.1423026e-05
5.1291809e-05
5.1188639e-05
5.1113494e-05
5.1066962e-05
5.1047171e-05
5.1046151e-05
5.1055782e-05
5.1079424e-05
5.1111649e-05
5.115167e-05
5.1197342e-05
5.1244134e-05
5.1291873e-05
5.1342829e-05
5.1394768e-05
5.1442761e-05
5.1493454e-05
5.1534477e-05
5.1564597e-05
5.1587412e-05
5.1636678e-05
5.1681859e-05
5.173417e-05
5.1779358e-05
5.184085e-05
5.1901683e-05
5.1966836e-05
5.2019879e-05
5.2081735e-05
5.2150308e-05
5.2236357e-05
5.232715e-05
5.2421805e-05
5.2522926e-05
5.2639011e-05
5.2854938e-05
5.4072935e-05
6.3245572e-05
0.00010293939
0.00017588026
0.0002463684
0.00030080149
0.00034026901
0.0003671639
0.00038362383
0.00039137629
0.00039184978
0.00038624604
0.0003756203
0.00036089722
0.00034290816
0.00032239593
0.00030002938
0.0002764076
0.0002520634
0.00022745954
0.00020300476
0.00017905315
0.00015589197
0.00013371516
0.0001126726
9.2884761e-05
7.4462877e-05
5.7527894e-05
4.2237291e-05
2.8787106e-05
1.7475801e-05
8.7704063e-06
3.2195841e-06
7.3821516e-07
8.7711264e-08
4.663933e-09
1.3253852e-09
5.0828087e-05
5.0826729e-05
5.082675e-05
5.0825035e-05
5.0828794e-05
5.0843263e-05
5.0858953e-05
5.0921793e-05
5.1128512e-05
5.1764513e-05
5.2473951e-05
5.257952e-05
5.2167208e-05
5.2023498e-05
5.2458658e-05
5.2903237e-05
5.2612567e-05
5.21528e-05
5.1972201e-05
5.1510536e-05
5.1873467e-05
5.191859e-05
5.16979e-05
5.1805273e-05
5.1998927e-05
5.201525e-05
5.1950246e-05
5.1894894e-05
5.1792568e-05
5.1603258e-05
5.1436129e-05
5.1301573e-05
5.1195563e-05
5.1118661e-05
5.107031e-05
5.1048395e-05
5.1046782e-05
5.1057076e-05
5.1081826e-05
5.1115042e-05
5.1155881e-05
5.1201792e-05
5.1248471e-05
5.129597e-05
5.1347104e-05
5.1399486e-05
5.1454082e-05
5.1507497e-05
5.1549695e-05
5.1581419e-05
5.1608847e-05
5.1639899e-05
5.1684919e-05
5.1741399e-05
5.1800211e-05
5.1862951e-05
5.1911971e-05
5.1972625e-05
5.2025568e-05
5.2088158e-05
5.2158365e-05
5.2247542e-05
5.2342867e-05
5.2441639e-05
5.2544652e-05
5.2664379e-05
5.2900226e-05
5.4234795e-05
6.3983565e-05
0.00010501652
0.00017817197
0.00024782618
0.00030132988
0.00034002944
0.0003663569
0.00038239635
0.00038984533
0.00039009915
0.00038435102
0.00037365057
0.00035892254
0.00034098799
0.00032057982
0.00029836196
0.00027492256
0.00025077754
0.00022636652
0.00020207679
0.00017823889
0.00015512082
0.00013293391
0.00011187395
9.209241e-05
7.3717719e-05
5.6891201e-05
4.1737995e-05
2.8425769e-05
1.7235878e-05
8.6308811e-06
3.1579204e-06
7.2167213e-07
8.5549305e-08
4.5226634e-09
1.2628785e-09
5.0828218e-05
5.0826778e-05
5.0827034e-05
5.0825229e-05
5.0826051e-05
5.0842333e-05
5.0862254e-05
5.0939506e-05
5.1172675e-05
5.1782946e-05
5.2458517e-05
5.2539379e-05
5.2130164e-05
5.200932e-05
5.2466692e-05
5.2913395e-05
5.2622573e-05
5.216203e-05
5.1986161e-05
5.151153e-05
5.1884383e-05
5.1931468e-05
5.1699092e-05
5.1812031e-05
5.2015447e-05
5.2032942e-05
5.1959127e-05
5.1916236e-05
5.1816874e-05
5.1621436e-05
5.145287e-05
5.1311038e-05
5.1201693e-05
5.1123389e-05
5.1073871e-05
5.1050219e-05
5.1047934e-05
5.105992e-05
5.108593e-05
5.111927e-05
5.115986e-05
5.1205549e-05
5.1252179e-05
5.130008e-05
5.1352821e-05
5.1408192e-05
5.1471651e-05
5.152326e-05
5.1565791e-05
5.1600654e-05
5.163759e-05
5.1668488e-05
5.1711733e-05
5.1782168e-05
5.184935e-05
5.1911778e-05
5.1957891e-05
5.2013979e-05
5.2065879e-05
5.2134456e-05
5.2212016e-05
5.2306609e-05
5.2403673e-05
5.250504e-05
5.2612517e-05
5.2736287e-05
5.2973663e-05
5.4287829e-05
6.3962662e-05
0.00010485176
0.00017774803
0.00024711011
0.00030028922
0.00033865864
0.00036479569
0.00038074642
0.00038819281
0.00038851884
0.00038288811
0.00037233486
0.00035778318
0.00034004976
0.00031985587
0.00029785175
0.00027462551
0.00025068922
0.00022647933
0.0002023745
0.00017869415
0.00015570233
0.0001335937
0.00011254206
9.2713122e-05
7.4258468e-05
5.7322448e-05
4.204744e-05
2.8620351e-05
1.7337136e-05
8.6696316e-06
3.1657905e-06
7.2192299e-07
8.5434975e-08
4.4770526e-09
1.2147117e-09
5.0827958e-05
5.0827058e-05
5.0827087e-05
5.0825376e-05
5.0825133e-05
5.0838676e-05
5.086428e-05
5.0950861e-05
5.1210857e-05
5.1820337e-05
5.2454564e-05
5.251038e-05
5.2089696e-05
5.1984521e-05
5.2473471e-05
5.2921925e-05
5.2634864e-05
5.2170452e-05
5.2000844e-05
5.1513042e-05
5.18957e-05
5.1944875e-05
5.1700988e-05
5.1819195e-05
5.2031889e-05
5.2044622e-05
5.1970486e-05
5.1943132e-05
5.1838855e-05
5.1640837e-05
5.1474633e-05
5.1323002e-05
5.1209546e-05
5.1129077e-05
5.1078296e-05
5.1053519e-05
5.1050725e-05
5.1063818e-05
5.1089499e-05
5.1123163e-05
5.1167947e-05
5.1217941e-05
5.1267702e-05
5.1319147e-05
5.1374996e-05
5.1431371e-05
5.1491578e-05
5.1540383e-05
5.158275e-05
5.1620591e-05
5.1659276e-05
5.1701285e-05
5.1748836e-05
5.1819311e-05
5.1883772e-05
5.1947572e-05
5.2000348e-05
5.2062851e-05
5.2118089e-05
5.2188593e-05
5.2267642e-05
5.2363852e-05
5.2464097e-05
5.2569155e-05
5.2678962e-05
5.2805443e-05
5.3046339e-05
5.4371166e-05
6.4088078e-05
0.00010490165
0.00017683909
0.00024544632
0.00029827424
0.00033652571
0.00036255337
0.00037843994
0.00038588397
0.00038624897
0.00038069521
0.0003702422
0.00035577805
0.00033814632
0.00031810386
0.00029627471
0.00027321787
0.00024943623
0.00022536045
0.000201367
0.00017777961
0.00015487682
0.00013286116
0.00011191575
9.219858e-05
7.3850065e-05
5.700753e-05
4.1808047e-05
2.8439955e-05
1.7205878e-05
8.5858506e-06
3.1269451e-06
7.1141135e-07
8.4072526e-08
4.3942756e-09
1.1824134e-09
5.0827296e-05
5.0827026e-05
5.0825955e-05
5.0825139e-05
5.0834176e-05
5.0865303e-05
5.095717e-05
5.123899e-05
5.186613e-05
5.246514e-05
5.2490406e-05
5.2054397e-05
5.1948302e-05
5.2476127e-05
5.292843e-05
5.2649676e-05
5.2179121e-05
5.2016549e-05
5.1514832e-05
5.1906664e-05
5.1958841e-05
5.1701997e-05
5.1826301e-05
5.2048812e-05
5.2048919e-05
5.1978769e-05
5.1977205e-05
5.1857581e-05
5.1659499e-05
5.1496427e-05
5.133607e-05
5.1217118e-05
5.1135157e-05
5.1082465e-05
5.1057017e-05
5.1053936e-05
5.1066897e-05
5.1096378e-05
5.1136414e-05
5.1185559e-05
5.1238564e-05
5.1289806e-05
5.1341087e-05
5.1394888e-05
5.1450438e-05
5.1507956e-05
5.1558158e-05
5.1600962e-05
5.1641311e-05
5.1679086e-05
5.1725361e-05
5.1775985e-05
5.1846976e-05
5.1910405e-05
5.1976752e-05
5.2033716e-05
5.2100004e-05
5.2156741e-05
5.2227979e-05
5.2307582e-05
5.2404987e-05
5.2506868e-05
5.2613936e-05
5.272614e-05
5.2854409e-05
5.3092507e-05
5.4363173e-05
6.3727576e-05
0.00010343457
0.00017478882
0.0002432528
0.0002959056
0.00033403482
0.00036005457
0.00037604569
0.00038355409
0.00038405932
0.00037868079
0.00036843541
0.00035421485
0.00033681294
0.00031693701
0.00029525994
0.00027236446
0.00024875141
0.00022484205
0.00020100835
0.00017756679
0.00015479046
0.00013287579
0.00011200287
9.2324898e-05
7.3982585e-05
5.7120978e-05
4.1891472e-05
2.8492211e-05
1.7231277e-05
8.5925095e-06
3.1258227e-06
7.1026179e-07
8.3852916e-08
4.3627641e-09
1.1559041e-09
5.082748e-05
5.0826886e-05
5.0826687e-05
5.082538e-05
5.083046e-05
5.086443e-05
5.0960491e-05
5.1257464e-05
5.1910182e-05
5.2497709e-05
5.2476954e-05
5.2026638e-05
5.1903903e-05
5.2467471e-05
5.2930771e-05
5.2666528e-05
5.2189172e-05
5.2033776e-05
5.1517328e-05
5.1915448e-05
5.197449e-05
5.1702859e-05
5.1832491e-05
5.2067404e-05
5.2059915e-05
5.1983189e-05
5.2016613e-05
5.1875372e-05
5.1679602e-05
5.1517494e-05
5.1350828e-05
5.1226223e-05
5.1140169e-05
5.108623e-05
5.1059823e-05
5.1057364e-05
5.1075915e-05
5.1109114e-05
5.1149417e-05
5.1197713e-05
5.1250925e-05
5.1302742e-05
5.1354503e-05
5.1407662e-05
5.1465191e-05
5.1524651e-05
5.1576143e-05
5.1620231e-05
5.1662529e-05
5.1700906e-05
5.1748094e-05
5.180152e-05
5.1873467e-05
5.1936401e-05
5.2004678e-05
5.2065307e-05
5.2133268e-05
5.2190181e-05
5.2261397e-05
5.2342567e-05
5.2442867e-05
5.2546732e-05
5.2656194e-05
5.2770069e-05
5.289974e-05
5.3136206e-05
5.4371112e-05
6.3438566e-05
0.00010227841
0.0001728245
0.00024100345
0.00029350875
0.0003315365
0.00035747914
0.00037341264
0.00038104702
0.00038163041
0.00037634114
0.00036620856
0.00035213205
0.00033491374
0.00031525927
0.00029379795
0.000271089
0.0002476306
0.00022385293
0.00020012941
0.0001767806
0.00015408622
0.00013224495
0.00011144112
9.1833285e-05
7.3565531e-05
5.6781212e-05
4.1628023e-05
2.8298648e-05
1.7099741e-05
8.5147695e-06
3.091728e-06
7.0133372e-07
8.2714344e-08
4.2991476e-09
1.1356027e-09
5.0827597e-05
5.0826866e-05
5.0826912e-05
5.0825543e-05
5.082817e-05
5.086099e-05
5.0962943e-05
5.1268124e-05
5.1946009e-05
5.2549775e-05
5.2493127e-05
5.2007413e-05
5.1855891e-05
5.2442936e-05
5.2927397e-05
5.2684169e-05
5.2200473e-05
5.2053448e-05
5.152121e-05
5.1922215e-05
5.1992158e-05
5.1703216e-05
5.1838949e-05
5.2089927e-05
5.2076988e-05
5.2003611e-05
5.2052225e-05
5.1891651e-05
5.1700128e-05
5.1535805e-05
5.1364803e-05
5.1236206e-05
5.1146601e-05
5.1093047e-05
5.1067445e-05
5.1066043e-05
5.1085319e-05
5.1116988e-05
5.115788e-05
5.1207952e-05
5.1263203e-05
5.1316289e-05
5.136936e-05
5.1422924e-05
5.1482443e-05
5.1542959e-05
5.1595387e-05
5.1640345e-05
5.1684576e-05
5.1723934e-05
5.1771721e-05
5.1827493e-05
5.1900584e-05
5.1963877e-05
5.2033981e-05
5.2098157e-05
5.2166877e-05
5.2224054e-05
5.2296148e-05
5.2378586e-05
5.2480088e-05
5.2585608e-05
5.2697189e-05
5.2813042e-05
5.2944146e-05
5.3177092e-05
5.4356097e-05
6.3022856e-05
0.00010066177
0.00017025282
0.00023824787
0.00029073521
0.00032878119
0.00035477097
0.00037078332
0.00037849268
0.00037927111
0.00037418809
0.00036427012
0.00035040257
0.00033339836
0.00031395679
0.00029270827
0.0002702181
0.00024697927
0.00022339891
0.00019984581
0.00017663847
0.00015405587
0.00013229518
0.00011154391
9.1961143e-05
7.3698121e-05
5.6904969e-05
4.1732183e-05
2.8378603e-05
1.7154943e-05
8.5475185e-06
3.1058582e-06
7.0490978e-07
8.3146466e-08
4.307504e-09
1.123858e-09
5.0827358e-05
5.0826922e-05
5.0826937e-05
5.0826299e-05
5.0827208e-05
5.0855686e-05
5.0963414e-05
5.1273786e-05
5.1971819e-05
5.2604907e-05
5.2529624e-05
5.1995155e-05
5.1814053e-05
5.2403033e-05
5.2918764e-05
5.2699887e-05
5.2213933e-05
5.2075024e-05
5.1526139e-05
5.1928076e-05
5.2010682e-05
5.1702311e-05
5.1846003e-05
5.2116499e-05
5.2083777e-05
5.2021514e-05
5.2080159e-05
5.1909782e-05
5.1722829e-05
5.1553137e-05
5.1379542e-05
5.1247925e-05
5.1156014e-05
5.1101715e-05
5.1076289e-05
5.1074782e-05
5.1092157e-05
5.1125945e-05
5.1169623e-05
5.1221344e-05
5.1278242e-05
5.1332513e-05
5.1386383e-05
5.1440073e-05
5.1500738e-05
5.1562205e-05
5.1616523e-05
5.1662306e-05
5.1707245e-05
5.1747652e-05
5.1796918e-05
5.1854313e-05
5.1928439e-05
5.1992317e-05
5.2063777e-05
5.2131073e-05
5.2199886e-05
5.2257132e-05
5.2329848e-05
5.2413768e-05
5.2517809e-05
5.2626471e-05
5.2740133e-05
5.285846e-05
5.2991677e-05
5.322231e-05
5.4354824e-05
6.2675102e-05
9.9202984e-05
0.000167798
0.00023553273
0.00028795927
0.00032598245
0.00035195036
0.0003679371
0.00037563188
0.00037646045
0.00037162706
0.00036200532
0.00034841455
0.00033165387
0.00031244751
0.00029142806
0.00026913211
0.00024604311
0.00022259723
0.00019916824
0.00017606896
0.00015357147
0.00013187281
0.00011116876
9.1630871e-05
7.3411285e-05
5.6660511e-05
4.1531653e-05
2.8223121e-05
1.7044962e-05
8.4809278e-06
3.0762781e-06
6.9706446e-07
8.2134221e-08
4.2499109e-09
1.1049104e-09
5.0827258e-05
5.0826802e-05
5.0826972e-05
5.0827032e-05
5.0850802e-05
5.0961869e-05
5.1277745e-05
5.198725e-05
5.2652776e-05
5.2585656e-05
5.1994113e-05
5.1782863e-05
5.2352959e-05
5.2900317e-05
5.2709746e-05
5.2228132e-05
5.2095627e-05
5.1532189e-05
5.1932332e-05
5.2028695e-05
5.170114e-05
5.185108e-05
5.214413e-05
5.2085678e-05
5.2039289e-05
5.2101593e-05
5.1928214e-05
5.1747004e-05
5.1570452e-05
5.1395384e-05
5.1260697e-05
5.1167196e-05
5.1110809e-05
5.1083398e-05
5.1081545e-05
5.1101275e-05
5.1137133e-05
5.1182416e-05
5.1235221e-05
5.1293503e-05
5.1348883e-05
5.1403271e-05
5.145769e-05
5.1518968e-05
5.1581577e-05
5.1638205e-05
5.1685428e-05
5.1729925e-05
5.1771264e-05
5.1822176e-05
5.1880853e-05
5.1955741e-05
5.2020593e-05
5.2093183e-05
5.2162846e-05
5.2233115e-05
5.2291768e-05
5.2364547e-05
5.2449033e-05
5.2554977e-05
5.2666082e-05
5.2781601e-05
5.2902421e-05
5.3037681e-05
5.3265656e-05
5.4340439e-05
6.2228951e-05
9.7450983e-05
0.00016493728
0.00023242361
0.00028484644
0.00032293566
0.00034899711
0.00036508953
0.00037289774
0.0003738178
0.00036901785
0.00035950305
0.0003461182
0.00032961395
0.0003106639
0.0002898824
0.00026783277
0.00024499913
0.00022179106
0.00019856706
0.00017563422
0.0001532886
0.00013172162
0.00011112615
9.1667977e-05
7.3501889e-05
5.6780749e-05
4.165956e-05
2.8339248e-05
1.713382e-05
8.5348341e-06
3.0988492e-06
7.0258437e-07
8.2790156e-08
4.2678407e-09
1.0939401e-09
5.0827544e-05
5.082658e-05
5.0827189e-05
5.0827142e-05
5.0847705e-05
5.095876e-05
5.1279024e-05
5.1995877e-05
5.268913e-05
5.2646613e-05
5.2020516e-05
5.1764912e-05
5.2301624e-05
5.286602e-05
5.2710371e-05
5.224007e-05
5.2118219e-05
5.153947e-05
5.1939395e-05
5.2044131e-05
5.1701212e-05
5.1852e-05
5.2167832e-05
5.208781e-05
5.205827e-05
5.2119911e-05
5.1952351e-05
5.1771147e-05
5.1588671e-05
5.1411946e-05
5.1274042e-05
5.117839e-05
5.1119627e-05
5.1091676e-05
5.1090026e-05
5.1111328e-05
5.1148753e-05
5.1195585e-05
5.1249526e-05
5.1309341e-05
5.1366093e-05
5.1420617e-05
5.147578e-05
5.1537157e-05
5.1600267e-05
5.1659055e-05
5.1708335e-05
5.175185e-05
5.1794077e-05
5.1846801e-05
5.1907069e-05
5.1982203e-05
5.2047599e-05
5.2120798e-05
5.2191196e-05
5.2263021e-05
5.2323013e-05
5.239598e-05
5.2481385e-05
5.2589474e-05
5.2703467e-05
5.2822199e-05
5.2946803e-05
5.3084671e-05
5.331162e-05
5.4334787e-05
6.1835789e-05
9.5857766e-05
0.0001622844
0.00022950091
0.00028186937
0.00031996609
0.00034606673
0.00036220883
0.00037005929
0.00037100938
0.00036624991
0.00035684971
0.00034369145
0.00032744193
0.00030871874
0.00028816235
0.00026632228
0.00024367847
0.00022064101
0.00019757021
0.0001747779
0.00015255657
0.00013109024
0.00011058034
9.119869e-05
7.3103414e-05
5.6449215e-05
4.1393519e-05
2.8137927e-05
1.6995942e-05
8.4552299e-06
3.0654101e-06
6.9410585e-07
8.1724534e-08
4.2108653e-09
1.0780875e-09
5.0827776e-05
5.0826519e-05
5.0827218e-05
5.082725e-05
5.08462e-05
5.0954352e-05
5.1277136e-05
5.200154e-05
5.2714964e-05
5.2701654e-05
5.2059467e-05
5.17576e-05
5.2259328e-05
5.2825841e-05
5.2699526e-05
5.2246298e-05
5.2139915e-05
5.154781e-05
5.1946815e-05
5.2056603e-05
5.1704161e-05
5.1851727e-05
5.2181843e-05
5.2096481e-05
5.207698e-05
5.2137041e-05
5.1978811e-05
5.1794887e-05
5.1608607e-05
5.1429712e-05
5.12881e-05
5.1189361e-05
5.1129204e-05
5.1101618e-05
5.1100196e-05
5.1122693e-05
5.1161685e-05
5.1209812e-05
5.1264646e-05
5.1325602e-05
5.1383695e-05
5.1438586e-05
5.1494249e-05
5.1555385e-05
5.1618533e-05
5.1678927e-05
5.1730364e-05
5.1772987e-05
5.1815617e-05
5.186991e-05
5.1932009e-05
5.2007111e-05
5.2073044e-05
5.2147764e-05
5.2219005e-05
5.2293523e-05
5.2355404e-05
5.2428123e-05
5.2512999e-05
5.26226e-05
5.2738997e-05
5.2861143e-05
5.2989221e-05
5.312933e-05
5.3351739e-05
5.4315863e-05
6.1401592e-05
9.4167279e-05
0.00015955661
0.00022659066
0.00027896402
0.00031709166
0.00034324609
0.00035946996
0.0003674301
0.00036850954
0.00036387938
0.00035455841
0.00034143853
0.00032530338
0.00030680447
0.00028651408
0.00026494582
0.00024255984
0.00021976128
0.00019691353
0.00017432216
0.00015227142
0.00013095831
0.00011057614
9.1290054e-05
7.3257823e-05
5.6636688e-05
4.1586296e-05
2.8311178e-05
1.7129391e-05
8.5377331e-06
3.1008754e-06
7.0298189e-07
8.28002e-08
4.2501176e-09
1.0719559e-09
5.082792e-05
5.0826563e-05
5.0827123e-05
5.0827638e-05
5.0845645e-05
5.0949411e-05
5.1273317e-05
5.2005371e-05
5.273348e-05
5.2746481e-05
5.2105923e-05
5.1759292e-05
5.223252e-05
5.2786381e-05
5.26778e-05
5.2242589e-05
5.2158263e-05
5.1556262e-05
5.1953358e-05
5.2067241e-05
5.1725726e-05
5.1853642e-05
5.2185162e-05
5.2122987e-05
5.2094328e-05
5.215411e-05
5.2006532e-05
5.1819018e-05
5.1630491e-05
5.1448793e-05
5.1303152e-05
5.1201468e-05
5.1140567e-05
5.111287e-05
5.1111902e-05
5.1135402e-05
5.1175439e-05
5.1224488e-05
5.1280124e-05
5.1341864e-05
5.1400991e-05
5.1456075e-05
5.1511634e-05
5.1572138e-05
5.1634742e-05
5.16957e-05
5.1749628e-05
5.1792148e-05
5.1835509e-05
5.1890923e-05
5.1954487e-05
5.2028633e-05
5.2094539e-05
5.2171343e-05
5.224264e-05
5.232043e-05
5.238402e-05
5.2456821e-05
5.2540945e-05
5.265201e-05
5.2770767e-05
5.2897217e-05
5.3028734e-05
5.3171224e-05
5.3390319e-05
5.4313553e-05
6.1039618e-05
9.264866e-05
0.00015706534
0.00022398665
0.0002764137
0.00031457592
0.00034074473
0.00035697796
0.00036495049
0.00036604301
0.00036141992
0.00035209707
0.00033897806
0.00032288642
0.00030455777
0.0002845109
0.00026321504
0.00024109039
0.00021852774
0.00019588209
0.00017345869
0.00015154835
0.00013034592
0.00011005261
9.0840418e-05
7.2867407e-05
5.6303298e-05
4.1312796e-05
2.8101179e-05
1.6984846e-05
8.4547652e-06
3.0665307e-06
6.9443564e-07
8.1742913e-08
4.1987767e-09
1.0624543e-09
5.0827714e-05
5.0826896e-05
5.0826975e-05
5.0828261e-05
5.0845479e-05
5.0944911e-05
5.1267835e-05
5.2003802e-05
5.2747513e-05
5.2780663e-05
5.2153734e-05
5.1783458e-05
5.2222741e-05
5.2753877e-05
5.2647161e-05
5.2226299e-05
5.2167409e-05
5.1563048e-05
5.1960606e-05
5.2077564e-05
5.1747851e-05
5.1857701e-05
5.2188625e-05
5.2138861e-05
5.21093e-05
5.2172506e-05
5.203411e-05
5.1844876e-05
5.1654146e-05
5.1468648e-05
5.1319331e-05
5.1215679e-05
5.1154108e-05
5.1125818e-05
5.1124753e-05
5.1147896e-05
5.1188171e-05
5.123777e-05
5.1294162e-05
5.1356652e-05
5.1416809e-05
5.1471653e-05
5.1525964e-05
5.1584352e-05
5.1645844e-05
5.1707938e-05
5.1763993e-05
5.1807611e-05
5.1851773e-05
5.1907973e-05
5.1972765e-05
5.2045639e-05
5.2111695e-05
5.2190997e-05
5.2263965e-05
5.2345042e-05
5.2410685e-05
5.2483389e-05
5.2567294e-05
5.2678879e-05
5.2800123e-05
5.2930227e-05
5.3065972e-05
5.321059e-05
5.3427833e-05
5.4288779e-05
6.0549586e-05
9.0623278e-05
0.00015378637
0.00022068242
0.00027337144
0.00031177641
0.00033813984
0.00035452896
0.00036263871
0.00036386855
0.00035939824
0.00035024372
0.0003372867
0.00032129694
0.00030295452
0.0002828764
0.00026161504
0.00023963744
0.00021729838
0.00019490642
0.00017273636
0.0001510508
0.0001300453
0.00010991231
9.0838701e-05
7.2988962e-05
5.6505734e-05
4.1546225e-05
2.8318714e-05
1.7152062e-05
8.5567811e-06
3.1100573e-06
7.0537887e-07
8.3082818e-08
4.2496015e-09
1.0568559e-09
5.0827246e-05
5.0826948e-05
5.0828419e-05
5.0845434e-05
5.0941485e-05
5.1261049e-05
5.1999459e-05
5.2758218e-05
5.2806321e-05
5.2196939e-05
5.1832477e-05
5.2225364e-05
5.2731748e-05
5.2611632e-05
5.2197368e-05
5.2162632e-05
5.1565789e-05
5.1967944e-05
5.2089647e-05
5.1766211e-05
5.1862964e-05
5.2193271e-05
5.2157029e-05
5.2123181e-05
5.2193704e-05
5.2061602e-05
5.1872756e-05
5.1678643e-05
5.1488934e-05
5.1336679e-05
5.1231513e-05
5.1169176e-05
5.1139504e-05
5.113708e-05
5.1159034e-05
5.119878e-05
5.1248533e-05
5.1305188e-05
5.1367809e-05
5.1428426e-05
5.1482503e-05
5.1536003e-05
5.1593931e-05
5.1655158e-05
5.1719049e-05
5.177665e-05
5.1821759e-05
5.1866326e-05
5.1922864e-05
5.198859e-05
5.206052e-05
5.2127079e-05
5.220885e-05
5.2284081e-05
5.2367868e-05
5.2435435e-05
5.2508944e-05
5.2592995e-05
5.2704654e-05
5.2828194e-05
5.2962241e-05
5.310165e-05
5.3249422e-05
5.3463458e-05
5.4272744e-05
6.0046853e-05
8.8453081e-05
0.00015009872
0.00021682135
0.00026975066
0.00030843816
0.00033506791
0.00035168874
0.00035999058
0.00036137791
0.00035704698
0.00034803577
0.00033524857
0.00031946111
0.00030131677
0.00028141386
0.00026029117
0.00023840614
0.00021615162
0.00019387314
0.00017185982
0.00015036152
0.00012956425
0.00010963218
9.0719612e-05
7.2979162e-05
5.6567316e-05
4.1647799e-05
2.8437446e-05
1.7266029e-05
8.6435252e-06
3.1544016e-06
7.1819102e-07
8.4813729e-08
4.3367991e-09
1.0736907e-09
5.0827529e-05
5.0826998e-05
5.0828419e-05
5.0845459e-05
5.0939141e-05
5.1253538e-05
5.1993007e-05
5.2765448e-05
5.2826002e-05
5.223332e-05
5.1884323e-05
5.2242983e-05
5.2720484e-05
5.2575997e-05
5.2157799e-05
5.2146112e-05
5.1561695e-05
5.1972605e-05
5.2107427e-05
5.178275e-05
5.186944e-05
5.2195523e-05
5.2174815e-05
5.2137786e-05
5.2213673e-05
5.2088417e-05
5.1901802e-05
5.1703625e-05
5.1509935e-05
5.1354982e-05
5.1247835e-05
5.1183808e-05
5.1151929e-05
5.1147749e-05
5.116947e-05
5.1207905e-05
5.1257124e-05
5.1313182e-05
5.1375129e-05
5.1436498e-05
5.1492084e-05
5.1546325e-05
5.1604515e-05
5.1665336e-05
5.1730427e-05
5.1788978e-05
5.1835089e-05
5.1879849e-05
5.1936695e-05
5.2002934e-05
5.2074501e-05
5.2141708e-05
5.2225626e-05
5.230379e-05
5.2390301e-05
5.2459521e-05
5.2533661e-05
5.2617363e-05
5.272882e-05
5.2854417e-05
5.2992089e-05
5.3135456e-05
5.3286182e-05
5.349902e-05
5.4243186e-05
5.955896e-05
8.642034e-05
0.00014657208
0.00021300884
0.00026605585
0.00030491854
0.00033173957
0.00034854397
0.00035699817
0.0003584822
0.00035417623
0.00034511528
0.00033222203
0.00031632946
0.0002982034
0.00027844153
0.00025751844
0.00023584108
0.00021377174
0.00019166348
0.00016980918
0.00014846182
0.00012781755
0.00010804514
8.9313975e-05
7.1771644e-05
5.5573301e-05
4.0874163e-05
2.787688e-05
1.689676e-05
8.4333995e-06
3.06553e-06
6.9481395e-07
8.1750044e-08
4.1811115e-09
1.0411345e-09
5.08277e-05
5.0827268e-05
5.0828294e-05
5.0845553e-05
5.0937465e-05
5.1246355e-05
5.1984886e-05
5.2769599e-05
5.2841594e-05
5.2262674e-05
5.1929815e-05
5.2287021e-05
5.2720108e-05
5.254727e-05
5.211234e-05
5.2119724e-05
5.1546976e-05
5.1973392e-05
5.2131519e-05
5.1796657e-05
5.1873664e-05
5.2194615e-05
5.2191991e-05
5.2154734e-05
5.2230953e-05
5.2114935e-05
5.193208e-05
5.1729554e-05
5.1531823e-05
5.1373892e-05
5.1264086e-05
5.119689e-05
5.1163021e-05
5.1158062e-05
5.1180269e-05
5.1219029e-05
5.1267934e-05
5.1323697e-05
5.1385794e-05
5.1447061e-05
5.1503022e-05
5.155757e-05
5.1615743e-05
5.1675821e-05
5.1742098e-05
5.1801448e-05
5.1848507e-05
5.1893497e-05
5.1950564e-05
5.2016935e-05
5.2088009e-05
5.2156425e-05
5.2242063e-05
5.2323013e-05
5.2412308e-05
5.2483392e-05
5.2559069e-05
5.264343e-05
5.2755398e-05
5.2882797e-05
5.302386e-05
5.3171207e-05
5.3325446e-05
5.3537631e-05
5.4249671e-05
5.9204937e-05
8.4762841e-05
0.00014353316
0.00020965892
0.00026277674
0.00030174904
0.00032870171
0.00034566855
0.00035431496
0.00035600736
0.00035190542
0.00034302375
0.00033026674
0.00031444777
0.00029629499
0.00027645396
0.00025548811
0.00023386156
0.00021191937
0.00018996332
0.00016827604
0.00014710311
0.00012664458
0.00010706248
8.8511669e-05
7.1150199e-05
5.5118296e-05
4.0561879e-05
2.7676397e-05
1.6778566e-05
8.3737498e-06
3.0423038e-06
6.8956973e-07
8.1198574e-08
4.1690127e-09
1.0529874e-09
5.0827535e-05
5.0827484e-05
5.0828058e-05
5.0845417e-05
5.0936055e-05
5.1240265e-05
5.1975698e-05
5.2771427e-05
5.285407e-05
5.2285964e-05
5.1969073e-05
5.2343462e-05
5.2728116e-05
5.2535078e-05
5.2067822e-05
5.2090024e-05
5.1519153e-05
5.1970119e-05
5.2157097e-05
5.1807549e-05
5.187985e-05
5.2194793e-05
5.2210194e-05
5.2174584e-05
5.2246748e-05
5.2141183e-05
5.1962117e-05
5.1755513e-05
5.1554208e-05
5.1393337e-05
5.1280109e-05
5.1209088e-05
5.1174048e-05
5.116942e-05
5.1190793e-05
5.1229263e-05
5.1278307e-05
5.1334342e-05
5.1397091e-05
5.1458894e-05
5.1514964e-05
5.1569123e-05
5.1627157e-05
5.1686938e-05
5.1753882e-05
5.181376e-05
5.1861908e-05
5.1907241e-05
5.1964394e-05
5.2030958e-05
5.2102283e-05
5.217255e-05
5.2259926e-05
5.2343632e-05
5.2435906e-05
5.2508864e-05
5.2585913e-05
5.2670655e-05
5.2782412e-05
5.2911285e-05
5.3055478e-05
5.3206787e-05
5.336462e-05
5.3577582e-05
5.4252047e-05
5.8954994e-05
8.3482622e-05
0.00014114762
0.00020716978
0.00026049664
0.00029961361
0.00032663474
0.0003436281
0.0003522939
0.0003540216
0.00034997729
0.00034117105
0.00032849164
0.00031273147
0.000294598
0.00027472199
0.00025366924
0.0002319408
0.00020996662
0.00018805913
0.00016647228
0.0001454293
0.00012512749
0.00010571074
8.7330109e-05
7.014082e-05
5.427905e-05
3.9895783e-05
2.7184177e-05
1.6449525e-05
8.185904e-06
2.9637745e-06
6.6942063e-07
7.8614419e-08
4.0411424e-09
1.02865e-09
5.0827645e-05
5.0827942e-05
5.0845081e-05
5.0934737e-05
5.1235292e-05
5.1966159e-05
5.2770865e-05
5.2863994e-05
5.2304215e-05
5.200052e-05
5.2394508e-05
5.2757427e-05
5.254784e-05
5.203475e-05
5.2058526e-05
5.1480164e-05
5.1959915e-05
5.2176116e-05
5.1814643e-05
5.1887252e-05
5.2198726e-05
5.2230203e-05
5.2195582e-05
5.226222e-05
5.216687e-05
5.1991089e-05
5.1781971e-05
5.1578125e-05
5.1414072e-05
5.1296388e-05
5.1221921e-05
5.1186304e-05
5.1180863e-05
5.120183e-05
5.1240068e-05
5.1289535e-05
5.1346157e-05
5.140971e-05
5.1471891e-05
5.1527908e-05
5.1581621e-05