/*--------------------------------*- C++ -*----------------------------------*\
| =========                 |                                                 |
| \\      /  F ield         | OpenFOAM: The Open Source CFD Toolbox           |
|  \\    /   O peration     | Version:  2506                                  |
|   \\  /    A nd           | Website:  www.openfoam.com                      |
|    \\/     M anipulation  |                                                 |
\*---------------------------------------------------------------------------*/
FoamFile
{
    version     2.0;
    format      ascii;
    arch        "LSB;label=32;scalar=64";
    class       volScalarField;
    location    "0.0305";
    object      rho;
}
// * * * * * * * * * * * * * * * * * * * * * * * * * * * * * * * * * * * * * //

dimensions      [1 -3 0 0 0 0 0];

internalField   nonuniform List<scalar> 
192657
(
0.66473508
0.66702291
0.66423557
0.66480427
0.66188609
0.66165849
0.66139281
0.6658436
0.66782805
0.66647525
0.66222654
0.66305088
0.66480583
0.66313963
0.66229469
0.66347238
0.66241553
0.66210469
0.66226486
0.66148772
0.66139633
0.66097127
0.6604722
0.66004144
0.65947684
0.6590809
0.65863213
0.65817666
0.65763726
0.65706047
0.65648989
0.65585803
0.65511993
0.65430278
0.65344651
0.65253935
0.65159627
0.65061209
0.64958352
0.64850688
0.64737354
0.64617886
0.64491736
0.64358531
0.64218083
0.64070249
0.63915019
0.63752407
0.63582604
0.63405786
0.63222384
0.63032843
0.62837816
0.62638029
0.62434366
0.62227795
0.62019388
0.61810269
0.61601602
0.61394557
0.61190237
0.6098968
0.60793888
0.60603674
0.60419764
0.6024275
0.60073054
0.59911018
0.59756814
0.59610515
0.5947213
0.59341513
0.59218481
0.59102832
0.58994281
0.58892506
0.58797165
0.58707918
0.58624439
0.58546385
0.58473425
0.58405212
0.58341501
0.58281946
0.58226305
0.58174261
0.58125581
0.58080075
0.58037555
0.5799784
0.57960722
0.57926076
0.57893805
0.57863835
0.57836126
0.57810727
0.57787771
0.57767389
0.57749067
0.57728485
0.57682435
0.57500054
0.57082168
0.56710685
0.56471518
0.56316273
0.56214325
0.56148329
0.56107436
0.5608441
0.56074202
0.56073191
0.56078731
0.56088861
0.56102122
0.5611742
0.5613394
0.56151074
0.56168369
0.56185492
0.56202203
0.56218332
0.56233762
0.56248416
0.56262247
0.56275228
0.56287349
0.56298609
0.56309015
0.56318576
0.563273
0.56335198
0.5634227
0.56348516
0.56353925
0.56358484
0.56362164
0.56364933
0.56366747
0.56367571
0.56367376
0.56366183
0.56364095
0.563614
0.56358625
0.56356425
0.56355139
0.56354644
0.56354592
0.66473202
0.66703178
0.66423844
0.66481902
0.66189832
0.6616614
0.66137396
0.66581602
0.66782022
0.66650653
0.66224272
0.66303272
0.66480399
0.66315542
0.66228933
0.66347115
0.66242352
0.66210357
0.66226833
0.66149116
0.66139802
0.66097699
0.66047799
0.66004815
0.65948221
0.659085
0.65863664
0.65818208
0.65764411
0.65706855
0.65649971
0.6558701
0.65513419
0.65431881
0.65346438
0.65255909
0.65161779
0.65063539
0.64960842
0.64853332
0.64740168
0.64620876
0.64494902
0.64361864
0.64221564
0.64073849
0.63918701
0.6375612
0.63586286
0.63409359
0.63225758
0.63035912
0.62840459
0.62640111
0.62435742
0.62228309
0.62018878
0.61808574
0.6159856
0.61390015
0.61184053
0.60981725
0.60784053
0.60591867
0.60405916
0.60226815
0.60055007
0.59890854
0.59734549
0.59586183
0.59445781
0.59313213
0.59188309
0.59070881
0.58960654
0.58857319
0.58760543
0.58669999
0.58585371
0.58506324
0.58432528
0.58363681
0.58299506
0.58239711
0.58184016
0.58132184
0.58083961
0.5803916
0.57997602
0.5795911
0.57923476
0.57890563
0.57860246
0.57832385
0.5780682
0.57783376
0.57761796
0.57741544
0.57720954
0.57693502
0.57631556
0.57427758
0.56995909
0.56610902
0.56360028
0.56191141
0.56073281
0.5598941
0.55929118
0.55885644
0.55854413
0.55832236
0.55816841
0.55806579
0.55800227
0.55796866
0.55795791
0.55796459
0.5579844
0.55801396
0.55805056
0.55809205
0.55813669
0.5581831
0.55823017
0.55827701
0.55832292
0.55836732
0.55840979
0.55844996
0.55848756
0.55852239
0.55855427
0.55858307
0.55860871
0.55863112
0.55865028
0.55866619
0.55867891
0.55868857
0.55869542
0.55869982
0.55870238
0.55870391
0.55870535
0.55870714
0.55870886
0.55870992
0.55871023
0.66472885
0.66704098
0.66424157
0.66483458
0.66191142
0.66166463
0.66135401
0.66578649
0.6678117
0.66653963
0.66226023
0.6630134
0.66480185
0.66317228
0.66228364
0.66346975
0.66243202
0.66210236
0.66227198
0.66149483
0.66139977
0.660983
0.66048408
0.66005527
0.65948796
0.65908938
0.65864144
0.65818782
0.65765134
0.65707701
0.65650998
0.6558827
0.6551491
0.65433556
0.65348302
0.65257965
0.65164016
0.65065968
0.64963422
0.64856085
0.64743097
0.64623985
0.64498194
0.64365328
0.64225183
0.64077593
0.63922533
0.63759989
0.63590129
0.63413099
0.63229304
0.63039155
0.62843278
0.6264237
0.62437293
0.62228994
0.62018534
0.61807033
0.6159566
0.61385597
0.61177972
0.60973848
0.60774266
0.60580076
0.60392049
0.60210823
0.60036861
0.59870551
0.59712103
0.59561629
0.59419171
0.59284615
0.59157808
0.59038573
0.5892665
0.58821743
0.58723531
0.58631698
0.5854594
0.58465937
0.58391374
0.58321957
0.58257402
0.58197435
0.58141788
0.58090218
0.58042503
0.57998444
0.57957849
0.57920524
0.57886277
0.57854932
0.57826338
0.57800337
0.57776758
0.57755448
0.57736229
0.57718735
0.57701598
0.57678699
0.57623057
0.57432493
0.57016732
0.56634769
0.5638948
0.56228842
0.56121253
0.56049077
0.56001372
0.55970916
0.5595274
0.55943347
0.55940228
0.55941566
0.55946034
0.55952661
0.55960727
0.55969703
0.55979194
0.55988909
0.55998634
0.56008212
0.56017532
0.56026515
0.56035106
0.5604327
0.56050985
0.56058238
0.56065025
0.56071345
0.56077202
0.56082602
0.56087548
0.56092045
0.56096098
0.56099711
0.56102884
0.56105619
0.56107912
0.56109763
0.56111173
0.56112156
0.56112737
0.56112981
0.56113
0.56112935
0.56112884
0.56112872
0.56112885
0.6647255
0.66705049
0.66424476
0.66485055
0.66192497
0.66166813
0.66133373
0.66575604
0.66780273
0.66657344
0.66227856
0.66299362
0.66479946
0.66318971
0.6622779
0.6634682
0.66244081
0.66210115
0.66227568
0.66149864
0.66140153
0.66098913
0.66049031
0.66006258
0.6594939
0.65909391
0.65864636
0.65819368
0.6576587
0.65708562
0.6565204
0.6558955
0.65516424
0.65435257
0.65350195
0.65260055
0.65166288
0.65068435
0.64966048
0.64858887
0.64746079
0.64627153
0.64501549
0.64368863
0.64228881
0.64081426
0.63926463
0.6376397
0.63594098
0.63416981
0.63233009
0.63042577
0.62846297
0.62644851
0.62439088
0.62229945
0.62018477
0.61805802
0.61593088
0.61381524
0.61172249
0.60966339
0.60764851
0.60568659
0.60378551
0.6019519
0.60019062
0.59850576
0.59689962
0.59537353
0.5939281
0.59256234
0.5912749
0.59006413
0.5889276
0.58786247
0.58686567
0.58593417
0.58506506
0.58425524
0.58350167
0.5828015
0.58215197
0.5815504
0.58099417
0.58048076
0.58000789
0.57957352
0.57917558
0.57881199
0.57848068
0.57817966
0.57790712
0.57766119
0.57743985
0.57724118
0.57706289
0.5769006
0.57673953
0.57651677
0.57596488
0.57412917
0.57009332
0.56619457
0.56364639
0.56195701
0.56080545
0.56001196
0.55946561
0.55909384
0.55884726
0.55869142
0.55860176
0.55856053
0.5585548
0.55857501
0.55861404
0.55866646
0.55872817
0.55879598
0.55886748
0.5589408
0.55901451
0.55908753
0.55915904
0.55922843
0.55929525
0.55935917
0.55941998
0.5594775
0.55953167
0.55958242
0.55962972
0.55967357
0.55971399
0.55975098
0.55978459
0.55981481
0.55984168
0.5598652
0.5598854
0.55990233
0.55991603
0.55992657
0.55993408
0.55993887
0.55994149
0.55994263
0.55994293
0.66472197
0.66706031
0.66424804
0.66486702
0.66193908
0.66167194
0.66131299
0.66572442
0.66779323
0.66660814
0.66229788
0.66297323
0.66479676
0.66320782
0.66227207
0.66346649
0.66244995
0.66209993
0.66227946
0.66150263
0.66140332
0.66099541
0.66049671
0.66007014
0.65950008
0.65909861
0.65865144
0.65819971
0.65766624
0.65709441
0.65653103
0.65590855
0.65517968
0.65436993
0.65352128
0.65262187
0.65168611
0.65070946
0.6496873
0.6486175
0.64749127
0.64630392
0.64504981
0.64372481
0.64232669
0.64085357
0.63930503
0.63768071
0.63598199
0.63421008
0.63236873
0.63046174
0.62849507
0.6264754
0.62441108
0.62231139
0.6201868
0.61804844
0.61590801
0.61377745
0.61166826
0.60959132
0.60755737
0.60557534
0.60365335
0.60179824
0.60001509
0.59830821
0.59668014
0.59513239
0.59366575
0.59227943
0.59097222
0.58974265
0.58858841
0.58750681
0.58649491
0.5855498
0.5846687
0.5838486
0.58308655
0.58237976
0.58172549
0.58112108
0.58056389
0.58005133
0.57958103
0.57915082
0.57875847
0.57840169
0.57807819
0.57778575
0.57752237
0.57728597
0.57707438
0.57688558
0.57671724
0.57656509
0.57641476
0.57620485
0.57567815
0.57395765
0.57011342
0.56617188
0.56355226
0.56182377
0.56065604
0.55986171
0.55932403
0.55896668
0.55873771
0.55860098
0.55853082
0.55850852
0.55852071
0.55855763
0.55861201
0.55867846
0.55875288
0.55883219
0.55891409
0.55899682
0.55907908
0.5591599
0.55923858
0.55931461
0.55938761
0.55945734
0.55952365
0.55958643
0.55964565
0.5597013
0.55975338
0.5598019
0.5598469
0.55988843
0.55992649
0.5599611
0.55999225
0.56001989
0.56004398
0.56006445
0.56008117
0.56009403
0.56010299
0.5601084
0.56011116
0.56011228
0.56011258
0.66471825
0.66707045
0.6642514
0.66488399
0.66195374
0.66167606
0.66129183
0.66569162
0.66778318
0.66664369
0.66231823
0.66295226
0.66479375
0.66322663
0.66226617
0.66346459
0.66245944
0.6620987
0.66228331
0.6615068
0.66140513
0.66100183
0.66050327
0.66007794
0.65950652
0.6591035
0.65865668
0.65820589
0.65767397
0.65710339
0.65654187
0.65592185
0.65519544
0.65438763
0.65354099
0.65264361
0.65170983
0.65073503
0.64971467
0.64864673
0.64752239
0.646337
0.64508488
0.64376181
0.64236546
0.64089387
0.63934649
0.63772289
0.6360243
0.63425178
0.63240896
0.63049946
0.62852908
0.62650437
0.62443355
0.62232578
0.62019143
0.61804162
0.61588803
0.61374267
0.61161711
0.60952236
0.60746933
0.60546715
0.60352414
0.60164737
0.59984216
0.59811304
0.59646275
0.59489301
0.59340482
0.59199756
0.59067016
0.58942132
0.58824889
0.5871503
0.58612274
0.58516341
0.58426963
0.58343846
0.58266703
0.58195257
0.58129234
0.58068365
0.5801238
0.5796101
0.57914005
0.57871131
0.5783215
0.57796813
0.57764873
0.57736088
0.5771024
0.57687107
0.57666454
0.57648066
0.57631701
0.57616929
0.57602366
0.57582173
0.57532253
0.57372163
0.57006046
0.56605691
0.56332475
0.5615154
0.56028864
0.559449
0.55887527
0.55848809
0.55823371
0.55807495
0.55798569
0.55794632
0.5579434
0.557967
0.55800973
0.55806601
0.55813167
0.55820352
0.5582791
0.55835657
0.55843453
0.55851193
0.55858796
0.55866205
0.55873376
0.55880277
0.55886887
0.5589319
0.5589918
0.5590485
0.55910201
0.55915229
0.55919938
0.5592433
0.55928407
0.55932169
0.55935614
0.55938736
0.55941528
0.55943975
0.55946052
0.55947718
0.5594893
0.55949689
0.55950081
0.55950239
0.55950276
0.66471433
0.66708093
0.66425484
0.66490146
0.66196898
0.66168053
0.66127026
0.66565759
0.66777255
0.66668008
0.66233967
0.66293069
0.66479039
0.66324616
0.6622602
0.66346248
0.6624693
0.66209746
0.66228722
0.66151115
0.66140696
0.66100839
0.66051001
0.66008598
0.65951322
0.65910858
0.6586621
0.65821224
0.65768188
0.65711257
0.65655292
0.6559354
0.6552115
0.65440569
0.65356109
0.65266579
0.651734
0.65076112
0.64974261
0.64867657
0.64755418
0.64637078
0.64512071
0.64379962
0.64240513
0.64093514
0.63938903
0.63776625
0.63606791
0.63429492
0.63245076
0.6305389
0.62856499
0.62653542
0.62445826
0.62234257
0.62019864
0.61803753
0.61587092
0.61371084
0.61156898
0.60945645
0.60738433
0.60536194
0.60339781
0.60149924
0.59967176
0.59792014
0.59624735
0.5946553
0.59314518
0.59171655
0.59036851
0.58909992
0.58790875
0.58679256
0.58574865
0.58477434
0.583867
0.58302377
0.5822418
0.58151831
0.58085055
0.58023578
0.5796712
0.57915402
0.57868158
0.5782514
0.57786095
0.57750757
0.57718861
0.57690153
0.57664401
0.57641372
0.57620823
0.57602532
0.57586259
0.57571595
0.57557268
0.57537922
0.57491585
0.57345082
0.56999229
0.56593575
0.56308334
0.56119291
0.55991338
0.559039
0.55844231
0.55803998
0.55777562
0.55761017
0.55751616
0.55747391
0.55746923
0.55749176
0.55753386
0.55758986
0.55765551
0.55772762
0.5578037
0.55788179
0.55796055
0.55803894
0.55811616
0.55819163
0.5582649
0.55833563
0.55840361
0.55846866
0.5585307
0.55858968
0.55864558
0.55869837
0.55874808
0.55879472
0.55883831
0.55887883
0.55891625
0.55895048
0.55898142
0.55900883
0.55903235
0.55905142
0.55906536
0.55907406
0.55907852
0.55908028
0.55908069
0.6647102
0.66709176
0.66425838
0.66491946
0.66198483
0.66168537
0.66124828
0.66562228
0.6677613
0.6667173
0.66236227
0.66290854
0.66478666
0.66326642
0.66225419
0.66346016
0.66247954
0.66209623
0.6622912
0.66151571
0.66140882
0.66101511
0.66051692
0.66009429
0.65952019
0.65911387
0.65866769
0.65821876
0.65768998
0.65712194
0.65656418
0.65594922
0.65522788
0.65442411
0.65358159
0.65268841
0.65175865
0.65078774
0.64977113
0.64870704
0.64758664
0.64640529
0.64515731
0.64383827
0.6424457
0.64097741
0.63943265
0.6378108
0.63611282
0.63433948
0.63249413
0.63058007
0.62860278
0.62656851
0.6244852
0.62236176
0.6202084
0.61803614
0.61585663
0.61368195
0.61152386
0.60939358
0.60730235
0.60525969
0.60327433
0.6013538
0.59950385
0.59772949
0.5960339
0.59441919
0.59288676
0.59143634
0.59006718
0.58877828
0.58756777
0.5864333
0.58537228
0.58438209
0.58346018
0.58260371
0.58180983
0.58107577
0.58039871
0.57977585
0.57920428
0.57868112
0.57820356
0.577769
0.57737476
0.57701807
0.57669615
0.57640636
0.57614628
0.5759135
0.57570556
0.57552018
0.57535499
0.57520613
0.57506211
0.57487506
0.57444858
0.5731226
0.56987981
0.56578004
0.56278767
0.56079966
0.55945357
0.55853199
0.55790078
0.55747246
0.55718802
0.55700667
0.55689977
0.5568469
0.55683332
0.55684833
0.55688402
0.55693455
0.55699553
0.55706368
0.55713647
0.557212
0.55728881
0.55736579
0.5574421
0.55751709
0.55759029
0.55766132
0.55772987
0.55779577
0.55785891
0.55791922
0.55797667
0.55803121
0.55808285
0.5581316
0.55817746
0.5582204
0.55826037
0.55829728
0.55833097
0.55836117
0.55838741
0.55840896
0.5584249
0.55843492
0.55844006
0.55844208
0.55844253
0.66470585
0.66710294
0.66426199
0.664938
0.66200131
0.6616906
0.66122593
0.6655856
0.66774944
0.66675531
0.66238609
0.66288582
0.66478253
0.66328744
0.66224814
0.6634576
0.66249017
0.66209499
0.66229523
0.66152048
0.66141069
0.66102198
0.66052401
0.66010286
0.65952744
0.65911936
0.65867346
0.65822547
0.65769828
0.65713152
0.65657567
0.6559633
0.65524459
0.6544429
0.6536025
0.65271148
0.6517838
0.6508149
0.64980025
0.64873815
0.64761978
0.64644052
0.64519469
0.64387776
0.64248718
0.64102066
0.63947735
0.63785653
0.63615903
0.63438547
0.63253906
0.63062295
0.62864244
0.62660365
0.62451434
0.62238332
0.62022071
0.61803744
0.61584516
0.61365597
0.61148171
0.60933371
0.60722337
0.60516038
0.60315367
0.60121103
0.59933841
0.59754105
0.59582235
0.59418464
0.5926295
0.59115683
0.58976604
0.58845628
0.58722577
0.58607229
0.58499331
0.58398627
0.58304866
0.58217767
0.58137043
0.58062411
0.57993587
0.57930281
0.57872196
0.5781903
0.57770495
0.57726316
0.57686218
0.57649913
0.57617117
0.57587556
0.57560985
0.57537159
0.57515827
0.57496764
0.57479735
0.57464383
0.57449698
0.574315
0.5739256
0.57273941
0.5697288
0.5656098
0.5624657
0.56037156
0.55895447
0.55798384
0.55731793
0.55686456
0.55656168
0.55636646
0.5562489
0.55618763
0.5561673
0.55617676
0.55620785
0.55625452
0.55631228
0.55637774
0.55644834
0.55652213
0.55659763
0.55667368
0.55674942
0.55682418
0.55689743
0.55696879
0.55703798
0.55710478
0.55716906
0.55723072
0.55728968
0.55734591
0.55739937
0.55745007
0.557498
0.55754313
0.55758536
0.55762458
0.55766062
0.55769316
0.55772166
0.55774522
0.55776277
0.55777382
0.55777949
0.5577817
0.55778219
0.66470127
0.6671145
0.66426568
0.66495708
0.66201844
0.66169626
0.66120321
0.66554749
0.66773693
0.6667941
0.66241119
0.66286252
0.66477797
0.66330923
0.66224207
0.66345478
0.66250121
0.66209377
0.66229932
0.66152547
0.6614126
0.661029
0.66053128
0.66011169
0.65953499
0.65912507
0.65867943
0.65823235
0.65770679
0.65714131
0.65658738
0.65597765
0.65526163
0.65446206
0.65362382
0.65273502
0.65180943
0.65084263
0.64982997
0.64876991
0.64765362
0.6464765
0.64523287
0.64391811
0.64252959
0.64106491
0.63952314
0.63790346
0.63620655
0.6344329
0.63258556
0.63066754
0.62868398
0.62664082
0.62454568
0.62240725
0.62023553
0.6180414
0.61583648
0.61363288
0.61144251
0.60927682
0.60714735
0.60506397
0.60303582
0.6010709
0.59917539
0.59735478
0.59561267
0.5939516
0.59237334
0.59087796
0.58946502
0.58813379
0.58688261
0.58570934
0.58461151
0.58358662
0.58263214
0.58174528
0.58092315
0.58016287
0.57946154
0.5788162
0.5782238
0.57768123
0.57718552
0.57673386
0.57632342
0.57595128
0.57561452
0.57531038
0.57503639
0.57479008
0.57456894
0.5743707
0.57419309
0.57403279
0.57388109
0.57370221
0.57334755
0.57229677
0.56953112
0.56542361
0.56211567
0.55990326
0.55840661
0.55738051
0.55667483
0.55619232
0.5558676
0.55565569
0.55552506
0.55545334
0.55542447
0.55542683
0.55545191
0.55549347
0.55554685
0.55560858
0.55567603
0.55574718
0.55582053
0.55589489
0.55596936
0.55604323
0.55611596
0.55618714
0.55625645
0.55632365
0.55638858
0.55645111
0.55651115
0.55656863
0.55662351
0.55667577
0.55672538
0.55677229
0.55681642
0.55685762
0.55689571
0.55693031
0.55696082
0.55698623
0.55700528
0.55701735
0.55702354
0.55702596
0.55702648
0.66469644
0.66712643
0.66426946
0.66497672
0.66203626
0.66170236
0.66118016
0.66550787
0.66772377
0.66683364
0.66243765
0.66283868
0.66477296
0.66333181
0.66223601
0.66345168
0.66251266
0.66209255
0.66230346
0.6615307
0.66141452
0.66103618
0.66053874
0.66012081
0.65954286
0.65913102
0.6586856
0.65823943
0.6577155
0.65715131
0.65659933
0.65599228
0.65527901
0.65448161
0.65364558
0.65275905
0.65183555
0.65087098
0.64986032
0.64880234
0.64768817
0.64651324
0.64527186
0.64395932
0.64257293
0.64111018
0.63957003
0.63795158
0.63625537
0.63448175
0.63263362
0.63071384
0.62872737
0.62668001
0.6245792
0.62243352
0.62025285
0.61804801
0.61583056
0.61361266
0.61140626
0.60922289
0.60707427
0.60497045
0.60292073
0.60093338
0.59901478
0.59717066
0.59540482
0.59372002
0.59211823
0.59059967
0.58916404
0.58781074
0.5865382
0.58534435
0.58422677
0.58318297
0.58221045
0.58130639
0.58046785
0.57969193
0.57897566
0.57831603
0.57770993
0.57715419
0.57664576
0.57618181
0.57575946
0.57537577
0.57502781
0.57471278
0.57442822
0.57417167
0.57394062
0.57373282
0.57354604
0.57337725
0.57321898
0.57304123
0.57271791
0.57179529
0.56928403
0.56522728
0.56174852
0.55940691
0.55782376
0.55673773
0.55598935
0.55547577
0.55512803
0.55489874
0.55475472
0.55467244
0.55463507
0.55463041
0.55464961
0.55468614
0.55473521
0.55479322
0.55485746
0.55492589
0.55499694
0.55506942
0.5551424
0.55521516
0.55528712
0.55535785
0.55542702
0.55549437
0.55555968
0.55562284
0.55568371
0.55574221
0.55579827
0.55585186
0.55590293
0.55595141
0.5559972
0.55604015
0.55608002
0.55611641
0.55614866
0.55617566
0.556196
0.55620895
0.55621561
0.55621821
0.55621877
0.66469135
0.66713875
0.6642733
0.66499693
0.66205478
0.66170895
0.6611568
0.66546664
0.66770991
0.66687393
0.66246553
0.66281432
0.66476746
0.66335518
0.66222998
0.66344826
0.66252455
0.66209135
0.66230764
0.66153618
0.66141647
0.66104351
0.66054639
0.66013021
0.65955105
0.65913721
0.65869197
0.65824671
0.65772444
0.65716154
0.65661151
0.6560072
0.65529673
0.65450156
0.65366777
0.65278356
0.65186215
0.65089998
0.64989131
0.64883546
0.64772345
0.64655075
0.64531167
0.64400141
0.64261722
0.64115648
0.63961804
0.63800091
0.63630551
0.63453204
0.63268326
0.63076186
0.62877263
0.62672121
0.62461491
0.62246214
0.62027267
0.61805725
0.61582741
0.61359529
0.61137291
0.6091719
0.60700412
0.60487978
0.6028084
0.60079845
0.59885654
0.59698864
0.59519877
0.59348988
0.59186413
0.59032191
0.58886305
0.58748707
0.58619248
0.58497726
0.58383904
0.58277531
0.58178359
0.58086101
0.58000462
0.57921146
0.57847851
0.57780272
0.57718094
0.57660995
0.57608669
0.57560828
0.57517185
0.57477446
0.57441317
0.57408521
0.57378811
0.57351944
0.57327669
0.57305766
0.57286013
0.57268132
0.57251492
0.57233616
0.57203974
0.57123525
0.56898234
0.56502079
0.56136938
0.55888637
0.55720867
0.5560572
0.55526212
0.55471449
0.55434148
0.5540931
0.55393439
0.55384059
0.55379395
0.55378169
0.55379451
0.55382559
0.55386994
0.55392383
0.55398448
0.55404977
0.55411812
0.55418829
0.55425935
0.55433056
0.55440132
0.55447119
0.55453982
0.5546069
0.55467224
0.55473566
0.55479703
0.55485622
0.55491316
0.5549678
0.55502006
0.55506986
0.55511708
0.55516154
0.55520298
0.55524098
0.55527479
0.55530325
0.5553248
0.55533858
0.55534568
0.55534844
0.55534904
0.66468599
0.66715148
0.66427723
0.66501772
0.66207403
0.66171605
0.66113316
0.66542374
0.66769533
0.66691494
0.6624949
0.66278947
0.66476144
0.66337936
0.66222401
0.66344452
0.66253688
0.66209017
0.66231186
0.66154193
0.66141845
0.661051
0.66055423
0.6601399
0.65955958
0.65914365
0.65869857
0.65825419
0.65773361
0.65717201
0.65662394
0.6560224
0.65531481
0.65452191
0.65369042
0.65280858
0.65188929
0.6509296
0.64992294
0.64886927
0.64775948
0.64658905
0.64535232
0.6440444
0.64266248
0.64120381
0.63966717
0.63805147
0.63635698
0.63458378
0.63273446
0.63081158
0.62881975
0.62676444
0.62465279
0.62249308
0.62029497
0.61806912
0.61582699
0.61358075
0.61134247
0.60912384
0.60693687
0.60479195
0.60269878
0.60066607
0.59870064
0.59680869
0.59499447
0.59326112
0.591611
0.59004465
0.58856203
0.58716276
0.58584543
0.58460808
0.58344833
0.58236371
0.58135168
0.58040937
0.57953377
0.5787219
0.57797069
0.57727705
0.5766378
0.57604974
0.57550975
0.57501499
0.57456258
0.57414961
0.57377317
0.5734305
0.57311915
0.57283674
0.57258076
0.57234903
0.5721394
0.57194925
0.5717733
0.57159141
0.57131701
0.57061884
0.56862238
0.56480364
0.56098587
0.55834881
0.55656851
0.55534635
0.55450087
0.55391651
0.55351628
0.55324744
0.5530731
0.55296713
0.55291083
0.5528907
0.55289696
0.55292247
0.55296199
0.55301163
0.55306852
0.55313048
0.55319588
0.55326349
0.55333233
0.55340165
0.55347087
0.55353951
0.55360722
0.55367369
0.55373868
0.55380202
0.55386355
0.55392313
0.55398066
0.55403605
0.55408924
0.55414011
0.55418852
0.55423427
0.55427708
0.5543165
0.55435173
0.55438151
0.55440419
0.55441875
0.55442627
0.5544292
0.55442983
0.66468034
0.66716462
0.66428122
0.66503911
0.66209404
0.6617237
0.66110929
0.66537909
0.66767997
0.66695669
0.66252586
0.66276417
0.66475487
0.66340434
0.66221813
0.66344041
0.66254966
0.66208902
0.66231611
0.66154795
0.66142046
0.66105866
0.66056227
0.66014989
0.65956846
0.65915036
0.6587054
0.6582619
0.65774302
0.65718271
0.65663662
0.65603791
0.65533325
0.65454267
0.65371352
0.65283411
0.65191715
0.65095968
0.64995527
0.6489038
0.64779627
0.64662817
0.64539383
0.64408831
0.64270871
0.6412522
0.63971744
0.63810325
0.63640978
0.63463696
0.63278724
0.63086302
0.62886872
0.62680967
0.62469284
0.62252635
0.62031975
0.61808359
0.6158293
0.61356903
0.6113149
0.60907867
0.6068725
0.60470694
0.60259187
0.60053623
0.59854706
0.5966308
0.5947919
0.59303373
0.59135882
0.58976786
0.58826095
0.58683779
0.58549707
0.58423684
0.58305475
0.58194831
0.58091497
0.57995182
0.5790558
0.5782239
0.57745303
0.57674006
0.57608181
0.57547507
0.57491675
0.574404
0.57393399
0.57350384
0.57311069
0.57275179
0.57242474
0.57212718
0.57185666
0.57161097
0.57138804
0.5711854
0.57099859
0.57081149
0.57055401
0.56994914
0.56820109
0.56457235
0.56060445
0.55779981
0.55590835
0.5546099
0.55370996
0.55308584
0.55265613
0.55236514
0.55217394
0.55205493
0.55198834
0.55195993
0.55195935
0.55197908
0.5520136
0.55205885
0.55211181
0.55217024
0.55223248
0.55229724
0.55236354
0.55243064
0.55249795
0.55256499
0.55263138
0.55269683
0.55276109
0.55282397
0.55288528
0.55294488
0.55300265
0.55305848
0.55311229
0.55316393
0.55321327
0.55326006
0.55330401
0.55334463
0.55338109
0.55341205
0.55343574
0.55345102
0.55345893
0.55346201
0.55346267
0.66467438
0.6671782
0.66428528
0.6650611
0.66211484
0.66173195
0.66108521
0.66533261
0.66766376
0.66699917
0.66255848
0.66273844
0.66474771
0.66343014
0.66221238
0.66343591
0.6625629
0.66208791
0.66232037
0.66155427
0.66142251
0.66106647
0.66057051
0.66016019
0.65957772
0.65915736
0.65871247
0.65826983
0.65775268
0.65719366
0.65664956
0.65605371
0.65535206
0.65456386
0.65373709
0.65286018
0.65194558
0.65099038
0.64998833
0.64893907
0.64783385
0.64666811
0.64543622
0.64413315
0.64275595
0.64130166
0.63976886
0.63815628
0.63646394
0.63469161
0.63284161
0.63091618
0.62891957
0.62685692
0.62473505
0.62256194
0.62034698
0.61810066
0.61583432
0.61356012
0.61129019
0.60903639
0.60681098
0.60462471
0.60248762
0.60040889
0.59839576
0.59645492
0.59459103
0.59280766
0.59110754
0.58949151
0.58795979
0.58651218
0.58514743
0.58386363
0.58265844
0.58152935
0.5804738
0.57948882
0.57857134
0.57771829
0.57692656
0.57619303
0.5755145
0.57488777
0.57430977
0.57377769
0.57328874
0.57284009
0.57242893
0.57205254
0.57170855
0.57139467
0.57110845
0.57084773
0.57061046
0.5703943
0.57019549
0.57000123
0.56975566
0.56923054
0.56771717
0.56432182
0.56023186
0.55724573
0.55523429
0.55385386
0.55289536
0.55222838
0.55176685
0.55145197
0.55124264
0.55110969
0.55103222
0.55099515
0.55098751
0.55100133
0.55103079
0.55107158
0.55112056
0.55117539
0.55123433
0.55129608
0.55135963
0.55142425
0.55148933
0.55155442
0.55161914
0.55168318
0.5517463
0.55180831
0.55186902
0.55192825
0.55198589
0.55204182
0.55209591
0.55214804
0.552198
0.55224558
0.55229043
0.55233204
0.55236955
0.55240155
0.55242616
0.55244212
0.55245041
0.55245364
0.55245432
0.66466811
0.66719222
0.66428941
0.66508371
0.66213645
0.66174081
0.66106099
0.66528423
0.66764659
0.66704241
0.66259286
0.66271233
0.66473991
0.66345673
0.66220681
0.66343098
0.66257661
0.66208684
0.66232465
0.66156089
0.66142459
0.66107445
0.66057896
0.6601708
0.65958736
0.65916465
0.6587198
0.65827799
0.65776259
0.65720487
0.65666276
0.65606983
0.65537125
0.65458549
0.65376115
0.65288678
0.65197463
0.65102169
0.65002216
0.64897509
0.64787223
0.6467089
0.64547951
0.64417894
0.6428042
0.6413522
0.63982145
0.63821057
0.63651945
0.63474774
0.63289757
0.63097106
0.62897227
0.62690619
0.62477943
0.62259983
0.62037667
0.61812031
0.61584204
0.61355398
0.61126832
0.60899696
0.6067523
0.60454525
0.60238602
0.60028402
0.59824671
0.59628101
0.59439182
0.59258288
0.59085714
0.58921558
0.58765854
0.58618593
0.58479656
0.58348856
0.58225958
0.58110711
0.58002855
0.57902093
0.57808111
0.57720601
0.57639249
0.5756374
0.57493758
0.57428985
0.57369113
0.57313867
0.57262974
0.57216155
0.57173134
0.57133645
0.57097455
0.57064338
0.57034054
0.57006388
0.56981139
0.56958084
0.569369
0.56916582
0.5689274
0.56846855
0.56717128
0.56404543
0.559874
0.55669291
0.55455236
0.55308409
0.55206271
0.55134959
0.55085372
0.55051304
0.55028414
0.55013623
0.55004716
0.55000095
0.54998596
0.54999374
0.55001807
0.5500544
0.55009941
0.55015063
0.55020623
0.55026487
0.55032555
0.55038748
0.5504501
0.55051293
0.55057563
0.5506379
0.55069949
0.55076022
0.5508199
0.55087836
0.55093546
0.55099108
0.55104509
0.55109732
0.55114758
0.55119561
0.55124107
0.55128341
0.55132173
0.55135457
0.55137995
0.55139649
0.55140511
0.55140847
0.55140918
0.6646615
0.6672067
0.66429359
0.66510695
0.66215891
0.66175035
0.66103667
0.66523386
0.66762837
0.66708643
0.66262911
0.66268586
0.66473143
0.66348412
0.66220146
0.66342558
0.6625908
0.66208583
0.66232894
0.66156785
0.66142672
0.66108259
0.66058762
0.66018172
0.65959741
0.65917226
0.65872739
0.65828641
0.65777277
0.65721635
0.65667625
0.65608627
0.65539083
0.65460756
0.6537857
0.65291394
0.65200429
0.65105368
0.65005672
0.64901191
0.64791143
0.64675057
0.64552371
0.64422571
0.64285348
0.64140386
0.63987523
0.63826615
0.63657633
0.63480534
0.63295513
0.63102768
0.62902685
0.62695746
0.62482597
0.62264004
0.62040881
0.61814254
0.61585244
0.61355062
0.61124928
0.60896037
0.60669643
0.60446852
0.60228702
0.60016158
0.59809987
0.59610904
0.59419421
0.59235935
0.59060758
0.58894004
0.5873572
0.58585907
0.58444452
0.58311173
0.58185836
0.58068188
0.57957967
0.57854874
0.57758591
0.57668808
0.57585206
0.57507474
0.57435293
0.57368347
0.57306332
0.57248975
0.5719601
0.57147164
0.57102166
0.57060753
0.57022699
0.56987782
0.56955764
0.56926435
0.56899595
0.5687503
0.5685246
0.56831095
0.56807537
0.56766988
0.56656649
0.56373614
0.5595358
0.55614837
0.55386935
0.55230719
0.55121852
0.55045587
0.54992302
0.5495545
0.5493045
0.54914048
0.54903901
0.54898313
0.54896048
0.54896205
0.54898122
0.54901314
0.54905425
0.54910193
0.54915427
0.54920985
0.54926761
0.54932678
0.54938678
0.54944716
0.54950758
0.54956775
0.54962745
0.54968651
0.54974475
0.549802
0.54985814
0.54991303
0.54996653
0.55001849
0.55006868
0.55011683
0.55016258
0.55020535
0.55024422
0.55027769
0.55030369
0.55032069
0.55032957
0.55033302
0.55033376
0.66465454
0.66722166
0.66429782
0.66513083
0.66218224
0.66176061
0.66101232
0.66518142
0.66760899
0.66713124
0.66266736
0.66265905
0.66472221
0.6635123
0.66219639
0.66341969
0.66260547
0.66208489
0.66233321
0.66157514
0.66142889
0.6610909
0.66059649
0.66019297
0.65960788
0.6591802
0.65873527
0.65829507
0.65778323
0.6572281
0.65669002
0.65610304
0.65541081
0.65463009
0.65381076
0.65294166
0.65203458
0.65108653
0.65009185
0.64904959
0.64795148
0.64679312
0.64556886
0.64427347
0.64290382
0.64145664
0.63993021
0.63832301
0.63663461
0.63486445
0.63301431
0.63108604
0.6290833
0.62701075
0.62487466
0.62268254
0.62044338
0.61816733
0.61586551
0.61355
0.61123303
0.60892659
0.60664333
0.60439448
0.6021906
0.60004154
0.59795519
0.59593896
0.59399818
0.59213702
0.59035881
0.58866487
0.58705576
0.58553161
0.58409137
0.58273327
0.58145497
0.58025395
0.57912759
0.57807284
0.57708653
0.57616551
0.57530659
0.57450662
0.57376244
0.57307089
0.57242895
0.57183391
0.57128316
0.57077403
0.57030387
0.56987009
0.56947047
0.56910285
0.56876489
0.56845451
0.56816974
0.5679085
0.5676683
0.56744296
0.56720647
0.56684237
0.56590844
0.56338759
0.55922043
0.55561988
0.5531927
0.55153042
0.55036995
0.54955427
0.54898171
0.54858321
0.54831046
0.54812908
0.54801429
0.54794812
0.54791742
0.54791258
0.54792653
0.54795408
0.54799141
0.54803572
0.54808496
0.54813761
0.54819257
0.54824903
0.5483064
0.54836423
0.5484222
0.54848005
0.54853757
0.54859461
0.54865102
0.54870664
0.54876137
0.54881508
0.54886764