/*--------------------------------*- C++ -*----------------------------------*\
| =========                 |                                                 |
| \\      /  F ield         | OpenFOAM: The Open Source CFD Toolbox           |
|  \\    /   O peration     | Version:  2506                                  |
|   \\  /    A nd           | Website:  www.openfoam.com                      |
|    \\/     M anipulation  |                                                 |
\*---------------------------------------------------------------------------*/
FoamFile
{
    version     2.0;
    format      ascii;
    arch        "LSB;label=32;scalar=64";
    class       volScalarField;
    location    "0.9";
    object      omega;
}
// * * * * * * * * * * * * * * * * * * * * * * * * * * * * * * * * * * * * * //

dimensions      [0 0 -1 0 0 0 0];

internalField   nonuniform List<scalar> 
1376
(
241.60538
241.44212
227.87477
214.86583
202.47889
190.88868
180.13948
170.11867
160.68242
151.64087
143.02189
240.71447
226.91293
213.34983
200.41669
188.55589
177.78116
167.77968
158.32747
149.19773
140.80884
215.79245
205.27676
194.18418
183.3251
173.42158
164.48983
156.08119
147.96573
139.76948
132.89117
168.915
163.69115
157.54183
151.10363
144.99989
139.34684
133.82869
128.34555
122.23181
118.06039
125.53545
123.46923
120.78538
117.70929
114.52841
111.42756
108.32731
105.28762
101.24826
99.736615
97.139845
96.177008
94.870205
93.178828
91.170441
89.117458
87.16981
85.472836
82.675817
82.805028
79.713035
79.177075
78.379664
77.141155
75.434332
73.646763
72.12699
70.992408
69.144374
69.527187
68.359296
68.059036
67.492055
66.404174
64.739536
63.012713
61.706328
60.852873
59.510239
59.858169
60.345033
60.18009
59.723716
58.681688
57.020729
55.373695
54.264301
53.605338
52.5523
52.808912
54.280586
54.162318
53.736888
52.706591
51.100567
49.623723
48.7368
48.235124
47.366127
47.532567
49.402581
49.277299
48.839425
47.834217
46.375759
45.161896
44.50632
44.130473
43.382252
43.468055
45.343049
45.309417
45.152923
44.697498
43.768579
42.554673
41.654462
41.205018
40.921848
40.254388
40.265561
41.908641
41.842968
41.647066
41.195743
40.405193
39.493669
38.891061
38.594282
38.370358
37.797295
37.683834
39.097989
38.981436
38.750239
38.334752
37.720504
37.098924
36.717469
36.509173
36.314141
35.818585
35.605893
36.899282
36.733387
36.488269
36.131335
35.683941
35.275563
35.015966
34.838648
34.645303
34.205324
33.939152
35.289873
35.089772
34.842494
34.540229
34.210505
33.918559
33.700967
33.513716
33.301052
32.90393
32.622519
34.176922
33.956964
33.712636
33.446378
33.176382
32.927053
32.706529
32.489752
32.24892
31.887531
31.616798
33.424454
33.196264
32.95539
32.705797
32.455988
32.212189
31.973736
31.727687
31.464063
31.129369
30.870196
32.907249
32.677289
32.438861
32.194825
31.948345
31.699565
31.446145
31.182031
30.906485
30.590627
30.332974
32.540368
32.31147
32.075001
31.832624
31.585412
31.332459
31.07196
30.801063
30.521878
30.21814
29.954773
32.275374
32.048564
31.814127
31.572908
31.325395
31.071148
30.809133
30.537628
30.258543
29.96213
29.691129
32.084344
31.859833
31.627491
31.387784
31.141098
30.887451
30.626254
30.356212
30.078417
29.786877
29.509612
31.948713
31.726194
31.495772
31.257842
31.012706
30.760399
30.500519
30.232218
29.95614
29.668593
29.387497
31.853434
31.632325
31.403779
31.167937
30.924738
30.673933
30.415307
30.148627
29.874476
29.590525
29.307627
31.786801
31.566708
31.339801
31.105999
30.864774
30.615567
30.358308
30.093287
29.821174
29.540488
29.257199
31.949775
31.738306
31.519855
31.294607
31.06243
30.822849
30.575423
30.320149
30.057395
29.787676
29.510055
29.227328
31.911086
31.701622
31.485294
31.262043
31.031663
30.793918
30.548621
30.29575
30.035516
29.768208
29.493371
29.211775
31.882816
31.674795
31.460167
31.238677
31.010106
30.774366
30.531415
30.281182
30.023639
29.758788
29.486456
29.206508
31.862769
31.656644
31.443775
31.223941
30.99713
30.763361
30.522608
30.274771
30.019723
29.757318
29.487598
29.209535
31.847788
31.643387
31.432454
31.214705
30.990031
30.758388
30.519774
30.274184
30.021579
29.761797
29.49503
29.219434
31.839039
31.636255
31.427018
31.211281
30.988824
30.759489
30.523184
30.279904
30.029708
29.772499
29.50866
29.235708
32.030278
31.835587
31.63471
31.42756
31.214006
30.993782
30.766772
30.532927
30.292224
30.044691
29.79015
29.529144
29.258734
32.031713
31.838841
31.639761
31.43447
31.222992
31.005157
30.780783
30.549664
30.311654
30.066821
29.815047
29.557051
29.289373
32.039529
31.848669
31.651792
31.448734
31.239378
31.023671
30.801611
30.57315
30.338159
30.096546
29.847984
29.593268
29.328514
32.237871
32.054674
31.865765
31.671002
31.470226
31.263277
31.050131
30.830742
30.605076
30.37304
30.134544
29.889245
29.638037
29.376511
32.26097
32.079603
31.892702
31.700067
31.501519
31.297028
31.08656
30.87006
30.647454
30.418617
30.183466
29.941628
29.694013
29.435696
32.296026
32.116465
31.931499
31.741011
31.544859
31.342967
31.135319
30.921842
30.702448
30.476975
30.245262
30.006852
29.762821
29.5079
32.517665
32.345347
32.167843
31.984978
31.796694
31.602998
31.403862
31.199206
30.988876
30.772692
30.550464
30.322119
30.087273
29.84728
29.596329
32.583386
32.412826
32.237276
32.056607
31.870769
31.679755
31.483488
31.281843
31.074653
30.861739
30.642923
30.418199
30.187249
29.951505
29.704522
32.836224
32.672044
32.503149
32.329468
32.150948
31.967552
31.779225
31.585862
31.387325
31.183428
30.973983
30.758821
30.537942
30.310999
30.079507
29.83652
33.111035
32.952678
32.789947
32.622786
32.451148
32.274982
32.094213
31.90872
31.71834
31.522888
31.322186
31.116066
30.904414
30.687289
30.464345
30.23726
29.998593
33.263454
33.106383
32.945244
32.779955
32.610425
32.436562
32.258255
32.075355
31.887685
31.695063
31.497332
31.294421
31.086314
30.873166
30.654623
30.432377
30.198409
33.619105
33.46716
33.311442
33.151818
32.988157
32.820355
32.648317
32.471938
32.291092
32.105666
31.915568
31.720735
31.52118
31.316882
31.107931
30.893844
30.676303
30.446851
34.037197
33.889281
33.737794
33.582619
33.423646
33.260783
33.093957
32.923102
32.748136
32.568968
32.385539
32.197827
32.00584
31.809629
31.609146
31.404372
31.194702
30.981908
30.757172
34.546968
34.401802
34.253264
34.101248
33.945663
33.786459
33.623593
33.457026
33.286729
33.112685
32.934875
32.7533
32.56795
32.378815
32.185855
31.988979
31.788161
31.582802
31.374752
31.154819
35.330883
35.189817
35.04569
34.898441
34.748023
34.59438
34.437432
34.277166
34.113624
33.946833
33.776825
33.603622
33.427213
33.247555
33.064569
32.878186
32.688316
32.494849
32.297766
32.096448
31.892829
31.67731
36.198891
36.056441
35.91125
35.763273
35.61249
35.458889
35.302446
35.143162
34.981041
34.816125
34.648471
34.478125
34.305088
34.129307
33.950689
33.769113
33.584467
33.396675
33.205649
33.011405
32.813319
32.613366
32.40181
37.615067
37.470617
37.323888
37.17489
37.023607
36.86996
36.713907
36.555425
36.39449
36.231145
36.065419
35.897316
35.726883
35.554135
35.379039
35.201515
35.021476
34.838829
34.653507
34.465486
34.274696
34.081216
33.88432
33.686641
33.47578
40.395041
40.25365
40.11158
39.969715
39.828283
39.686366
39.542587
39.395853
39.245602
39.091867
38.935368
38.777124
38.617892
38.459018
38.301135
38.143751
37.985601
37.824762
37.659344
37.489151
37.316002
37.142276
36.969359
36.798506
36.622095
36.460843
36.211892
134.88243
132.40131
124.30298
110.02066
93.105048
77.76609
65.768086
57.003613
50.575638
45.729603
41.970671
38.98985
36.585012
34.649294
33.113003
31.925325
31.039076
30.390378
29.922679
29.590299
29.357276
29.197249
29.090479
29.021525
28.979074
28.955416
28.945336
28.943891
28.951019
28.964904
28.985113
29.011964
29.046444
29.089342
29.141305
29.204425
29.280868
29.373862
29.486396
29.62284
29.789576
29.994096
30.246774
30.56145
30.963134
31.48891
32.214507
33.288174
36.048544
127.69083
125.0235
116.75012
102.89969
87.13607
73.148531
62.327372
54.399021
48.547471
44.104122
40.63378
37.868677
35.643009
33.855736
32.442637
31.35597
30.549595
29.965988
29.548754
29.253861
29.048643
28.909122
28.817079
28.758613
28.723956
28.706714
28.701752
28.704319
28.715644
28.733403
28.75745
28.788094
28.826259
28.872697
28.928291
28.995025
29.075309
29.172162
29.28832
29.428519
29.599036
29.807088
30.062825
30.380584
30.784667
31.311826
32.03596
33.106199
35.888853
121.30858
118.46601
110.05509
96.635045
81.904807
69.114745
59.320862
52.131204
46.794057
42.71298
39.503074
36.930905
34.856323
33.191712
31.876611
30.864155
30.112073
29.572604
29.19303
28.929282
28.748711
28.62775
28.549138
28.500397
28.473285
28.462479
28.461392
28.468355
28.483565
28.504956
28.532642
28.566951
28.608655
28.658513
28.717583
28.787848
28.87179
28.972208
29.091882
29.235744
29.409838
29.621149
29.879821
30.200538
30.606777
31.135032
31.857248
32.923848
35.730134
115.5988
112.56499
104.04018
91.050924
77.268174
65.543028
56.6395
50.094717
45.211227
41.453009
38.477557
36.079472
34.137621
32.577433
31.34533
30.398011
29.696409
29.197544
28.852086
28.61639
28.457798
28.353298
28.286762
28.247129
28.227457
28.221999
28.224687
28.235878
28.254645
28.279454
28.310576
28.348365
28.393443
28.446603
28.509003
28.582658
28.670029
28.773796
28.896935
29.044322
29.221755
29.436143
29.697672
30.021146
30.42931
30.958465
31.678425
32.741248
35.572154
110.38304
107.15042
98.539493
85.977649
73.058947
62.268418
54.129491
48.140634
43.653966
40.185207
37.427583
35.198421
33.390854
31.939563
30.797405
29.92511
29.284559
28.832847
28.523194
28.314374
28.175655
28.085737
28.030041
27.998973
27.986405
27.984865
27.991659
28.006701
28.028805
28.056885
28.091267
28.132332
28.180601
28.236909
28.302494
28.379384
28.46998
28.576973
28.703505
28.854232
29.034782
29.252136
29.516425
29.842382
30.252256
30.782155
31.499606
32.558415
35.415459
105.53146
102.10424
93.440933
81.303063
69.1677
59.189149
51.700708
46.184901
42.042095
38.834305
36.285404
34.230683
32.57294
31.25117
30.220375
29.441693
28.875308
28.477635
28.205503
28.022546
27.901932
27.82504
27.779174
27.756126
27.749266
27.751263
27.762109
27.780677
27.805969
27.837194
27.874676
27.918828
27.970129
28.029431
28.098053
28.178027
28.271724
28.381856
28.511639
28.665501
28.848974
29.069173
29.336123
29.66429
30.075641
30.606158
31.320881
32.375356
35.259761
100.99164
97.373426
88.685957
76.969562
65.551445
56.286127
49.357219
44.24703
40.403965
37.433078
35.08557
33.210975
31.717385
30.543036
29.639881
28.965535
28.477896
28.134992
27.89918
27.740287
27.636113
27.570952
27.534064
27.518268
27.515514
27.521232
27.535824
27.557706
27.586074
27.620326
27.660787
27.707874
27.762053
27.82419
27.895721
27.978666
28.075363
28.18852
28.321343
28.478151
28.664399
28.88731
29.156776
29.486877
29.899526
30.430512
31.142248
32.192325
35.108655
96.75786
92.949944
84.256417
72.958686
62.210977
53.59208
47.163862
42.416996
38.84562
36.093975
33.937646
32.237952
30.905724
29.875976
29.095709
28.51865
28.10211
27.807858
27.604263
27.466848
27.377437
27.322912
27.294351
27.284776
27.284942
27.294653
27.312727
27.337786
27.369118
27.40626
27.449568
27.49945
27.556365
27.621213
27.695541
27.781357
27.880937
27.99696
28.132616
28.292194
28.48109
28.706557
28.978338
29.310145
29.723955
30.255184
30.96365
32.009429
34.959643
92.825613
88.839282
80.156372
69.273805
59.161883
51.145386
45.183416
40.777687
37.462936
34.917098
32.9366
31.393082
30.200265
29.291489
28.611128
28.111578
27.751482
27.496575
27.319965
27.201204
27.124982
27.080274
27.059451
27.054447
27.057921
27.071425
27.092794
27.120897
27.155049
27.194931
27.240936
27.293465
27.353003
27.420476
27.497508
27.58608
27.688398
27.807109
27.945421
28.107624
28.299039
28.526854
28.800666
29.134012
29.548887
30.080092
30.785026
31.826604
34.810349
89.171013
85.041648
76.401775
65.933722
56.423345
48.968231
43.441801
39.357251
36.283934
33.927837
32.102941
30.690388
29.608191
28.791114
28.184338
27.741548
27.423658
27.199472
27.045063
26.942366
26.877958
26.842442
26.828706
26.827001
26.834369
26.851448
26.875955
26.906952
26.943768
26.986236
27.034785
27.089819
27.151877
27.221909
27.301557
27.39274
27.497636
27.618877
27.75971
27.924399
28.118141
28.348048
28.623645
28.958403
29.374224
29.905085
30.606301
31.643631
34.661021
85.757442
81.537484
72.993337
62.945591
53.998658
47.05636
41.925975
38.133642
35.278782
33.091244
31.40016
30.095475
29.100228
28.352472
27.800168
27.399545
27.11393
26.914284
26.778415
26.689673
26.636042
26.609229
26.601229
26.60264
26.614203
26.634669
26.662147
26.695853
26.735174
26.780069
26.831
26.8884
26.95287
27.025399
27.107554
27.201219
27.308541
27.432174
27.575408
27.742403
27.938271
28.170028
28.447206
28.783249
29.199839
29.730001
30.427307
31.460336
34.514163
82.555012
78.292106
69.902453
60.283961
51.860826
45.378105
40.597944
37.062699
34.398687
32.357145
30.780516
29.566585
28.64312
27.951701
27.443367
27.076972
26.818008
26.639074
26.519194
26.442849
26.399211
26.380352
26.376566
26.381766
26.397346
26.420998
26.451264
26.487485
26.529154
26.576349
26.629522
26.689143
26.755908
26.830829
26.915378
27.01139
27.121014
27.246931
27.392423
27.561523
27.759307
27.992725
28.271327
28.608491
29.025609
29.554694
30.247946
31.276784
34.373583
36.101583
33.602777
31.687824
30.210732
29.076063
28.215572
27.573804
27.104389
26.768378
26.533094
26.372544
26.266906
26.201835
26.167531
26.155703
26.15494
26.164534
26.183776
26.210345
26.243171
26.281735
26.325633
26.374991
26.430263
26.491983
26.560918
26.638097
26.724923
26.823166
26.934987
27.06308
27.210674
27.381678
27.581174
27.8161
28.096005
28.434121
28.851457
29.379096
30.068201
31.093031
34.234595
25.9668
25.941167
25.934452
25.937031
25.95091
25.973418
26.002637
26.037803
26.078517
26.124502
26.175912
26.233183
26.296886
26.367851
26.447141
26.536105
26.636473
26.750407
26.880557
27.030079
27.202801
27.40385
27.640157
27.921236
28.260124
28.677388
29.203287
29.888178
30.909241
34.096989
25.877775
25.925713
25.979061
26.038233
26.103816
26.176682
26.257931
26.348904
26.451299
26.56723
26.699295
26.850584
27.024892
27.22736
27.464917
27.747034
28.0865
28.503466
29.027427
29.708019
30.725414
33.959709
26.163358
26.267644
26.385433
26.519277
26.672191
26.847951
27.051722
27.290434
27.573427
27.91329
28.329806
28.851736
29.527907
30.541628
33.822689
26.494901
26.67202
26.876994
27.116728
27.400446
27.740569
28.156529
28.676412
29.348003
30.35784
33.687245
27.228149
27.56842
27.983775
28.501587
29.168403
30.174053
33.552423
27.811652
28.327311
28.989146
29.990382
33.421686
28.810149
29.806842
33.294841
33.17263
)
;

boundaryField
{
    Side
    {
        type            empty;
    }
    Inlet
    {
        type            fixedValue;
        value           uniform 60.24606;
    }
    Airfoil
    {
        type            omegaWallFunction;
        blending        binomial;
        n               2;
        value           nonuniform List<scalar> 0();
    }
    Outlet
    {
        type            inletOutlet;
        inletValue      nonuniform List<scalar> 0();
        value           nonuniform List<scalar> 0();
    }
    procBoundary10to2
    {
        type            processor;
        value           uniform 255.89328;
    }
    procBoundary10to3
    {
        type            processor;
        value           nonuniform List<scalar> 
23
(
143.2238
151.8627
160.8451
170.22405
180.22785
190.94446
202.42883
214.72878
227.83253
227.83253
239.49689
134.97288
127.62955
121.136
115.38987
110.19365
105.38706
100.90168
96.724013
92.837191
89.201915
85.779616
82.556689
)
;
    }
    procBoundary10to9
    {
        type            processor;
        value           nonuniform List<scalar> 
66
(
255.74783
254.93319
225.74733
173.22191
127.03106
97.825503
80.093487
68.536216
60.399609
54.297517
49.420156
49.420156
45.336666
41.919386
39.144436
37.017298
35.462411
34.382851
33.644523
33.130358
32.762077
32.494632
32.301153
32.163472
32.067127
31.999809
31.999809
32.154042
32.113663
32.084389
32.062403
32.04578
32.035319
32.035319
32.218758
32.218309
32.2244
32.2244
32.415397
32.436852
32.470299
32.470299
32.685004
32.749115
32.749115
32.995817
32.995817
33.265106
33.416552
33.416552
33.767403
33.767403
34.181652
34.181652
34.827617
34.688867
34.688867
35.468974
35.468974
36.475706
36.33864
36.33864
37.897027
37.757218
37.757218
40.534964
)
;
    }
    procBoundary10to11
    {
        type            processor;
        value           nonuniform List<scalar> 
58
(
79.553168
75.276429
67.087317
57.901501
49.96318
43.889051
39.414586
39.414586
35.217945
32.864891
31.062339
29.674387
28.611427
27.808485
27.212491
26.779118
26.471201
26.257673
26.113894
26.021298
26.021298
25.737586
25.719602
25.716521
25.723006
25.740707
25.766125
25.797765
25.835071
25.835071
25.679504
25.729253
25.784404
25.845369
25.91274
25.987408
26.0705
26.0705
25.979509
26.085539
26.205036
26.340501
26.340501
26.318728
26.497112
26.703207
26.943851
26.943851
27.056623
27.396957
27.396957
27.640218
28.153557
28.153557
28.631291
29.623474
29.623474
33.051618
)
;
    }
}


// ************************************************************************* //
