/*--------------------------------*- C++ -*----------------------------------*\
| =========                 |                                                 |
| \\      /  F ield         | OpenFOAM: The Open Source CFD Toolbox           |
|  \\    /   O peration     | Version:  2506                                  |
|   \\  /    A nd           | Website:  www.openfoam.com                      |
|    \\/     M anipulation  |                                                 |
\*---------------------------------------------------------------------------*/
FoamFile
{
    version     2.0;
    format      ascii;
    arch        "LSB;label=32;scalar=64";
    class       volScalarField;
    location    "1.3";
    object      Co;
}
// * * * * * * * * * * * * * * * * * * * * * * * * * * * * * * * * * * * * * //

dimensions      [0 0 0 0 0 0 0];

internalField   nonuniform List<scalar> 
1376
(
0.024637577
0.032261551
0.033400442
0.034727527
0.035483065
0.036194321
0.036673062
0.037020986
0.037193563
0.037326953
0.037475995
0.037666094
0.037517249
0.037094064
0.036886596
0.036786519
0.036653047
0.036487257
0.036295538
0.036070206
0.035847243
0.035632208
0.035433635
0.035239814
0.035050628
0.034879035
0.034719126
0.031044424
0.039314739
0.040810254
0.041735061
0.041720507
0.041855106
0.041648309
0.041475349
0.041254697
0.041083293
0.040793593
0.040429014
0.040145937
0.040137486
0.040041796
0.039797259
0.03950372
0.039214434
0.038940272
0.038702199
0.038483251
0.038261381
0.038036988
0.037812411
0.037587192
0.037357907
0.037126383
0.036896595
0.036670708
0.033193473
0.038860591
0.038918674
0.03943379
0.039892609
0.040387765
0.040801127
0.041223893
0.04147235
0.041700195
0.041790951
0.041950536
0.041976593
0.041768406
0.041451823
0.041243837
0.041070147
0.040900968
0.040721191
0.04048892
0.040223263
0.039960483
0.039691629
0.039408651
0.039121037
0.038841501
0.038561617
0.038276504
0.037992455
0.0377041
0.037244475
0.043539527
0.044082665
0.044859873
0.044917159
0.045155748
0.044999977
0.044942368
0.04475277
0.044598186
0.04433567
0.044023593
0.043638489
0.043491193
0.043419451
0.043249339
0.043006852
0.042729661
0.042430504
0.042129848
0.041830152
0.041512875
0.041185175
0.040857811
0.040528429
0.040192544
0.039848467
0.039494788
0.039136845
0.038775068
0.038405205
0.039189185
0.044987047
0.044512234
0.044884932
0.044928931
0.045193586
0.04529837
0.045529035
0.045555951
0.045678039
0.045656695
0.045744808
0.045773606
0.045603655
0.045234063
0.044900884
0.044577651
0.044263568
0.043946104
0.043605823
0.043255155
0.042896489
0.04252303
0.042141136
0.041749607
0.041350857
0.040942359
0.04052237
0.040095373
0.039661028
0.039212396
0.038754455
0.038284557
0.04270011
0.0489135
0.048602275
0.049199507
0.04899795
0.049127342
0.048829102
0.048698267
0.048350826
0.048150609
0.047814725
0.047490548
0.047038818
0.046745841
0.04654016
0.046311917
0.046019944
0.045698407
0.045347415
0.044970507
0.044579265
0.044163325
0.043727701
0.043282948
0.042830875
0.042366758
0.041891325
0.041400551
0.040897016
0.04038606
0.039857529
0.039315878
0.038761677
0.038190335
0.044544044
0.050643236
0.04941773
0.049770665
0.049556303
0.049710241
0.049544667
0.049617507
0.04945505
0.049502724
0.049345204
0.049275492
0.049116778
0.048831073
0.048395425
0.047999853
0.047578271
0.047146559
0.046705391
0.046249628
0.045785019
0.045303542
0.044804651
0.044296254
0.043778973
0.043246666
0.042701382
0.042139715
0.04156046
0.040971552
0.040363288
0.039737455
0.039098951
0.038439616
0.037761325
0.047976861
0.054196758
0.052909199
0.053501006
0.052950094
0.053064237
0.052621303
0.052492312
0.052073757
0.051832167
0.051389326
0.05102214
0.050500457
0.050079272
0.049685275
0.049316124
0.048892085
0.048425738
0.047948981
0.04745166
0.046926088
0.046381134
0.045817578
0.045238646
0.044652746
0.044049713
0.043429849
0.042793126
0.04213501
0.041463968
0.040774655
0.040065113
0.039341928
0.038595688
0.037828709
0.037038492
0.050500639
0.05701527
0.054619837
0.055209022
0.05462311
0.054800856
0.05433999
0.054342886
0.053993574
0.053859575
0.053513412
0.05326997
0.052867228
0.052446083
0.051901441
0.051397923
0.050875313
0.050303115
0.04971833
0.049131613
0.048512807
0.047876731
0.047228392
0.046560312
0.045882785
0.045188653
0.04447342
0.043740314
0.042985521
0.042212738
0.041421856
0.040609558
0.039781536
0.038929678
0.038056384
0.037161011
0.053951436
0.060726145
0.058416795
0.058792798
0.057791516
0.057951448
0.057319083
0.057210897
0.056621161
0.05621292
0.055606543
0.055125772
0.05445296
0.053896798
0.053310325
0.052739455
0.052168448
0.05154321
0.050878656
0.050211138
0.049513873
0.048798139
0.048075021
0.047331051
0.04657385
0.045802507
0.045007739
0.044192308
0.043357876
0.042502095
0.041627749
0.040733347
0.039821728
0.038886923
0.037931195
0.036955041
0.035964621
0.055856302
0.062132956
0.059129276
0.059832396
0.059473868
0.059629469
0.058899897
0.058748489
0.058078914
0.057712357
0.057102315
0.056650629
0.05601721
0.055439158
0.05476822
0.054070699
0.053385217
0.052709167
0.051967894
0.051211805
0.050440636
0.049644334
0.048842905
0.048025846
0.047186744
0.046332041
0.045457719
0.044559424
0.043643691
0.042706981
0.041749883
0.040774127
0.039781046
0.038766079
0.037731784
0.036678945
0.03561446
0.034535899
0.061478116
0.066697265
0.064181715
0.063697532
0.062270314
0.062120606
0.06136196
0.061164497
0.060365103
0.059871264
0.0590449
0.058478282
0.057715192
0.056999892
0.056270608
0.055528675
0.054714236
0.05392498
0.053103408
0.052246882
0.051390695
0.050511328
0.049615435
0.048714735
0.047792482
0.046848217
0.045888549
0.044905055
0.043903042
0.042882301
0.041840416
0.040780955
0.039705172
0.038609984
0.037498297
0.036370089
0.035233323
0.034087391
0.0329333
0.064358696
0.070923318
0.066847664
0.066119631
0.064422264
0.064629267
0.063980453
0.063785377
0.062908964
0.062436737
0.061512257
0.060898507
0.0600954
0.059283451
0.058399393
0.057571579
0.056667214
0.055758828
0.054834687
0.053854486
0.052877493
0.05189313
0.050881357
0.049868091
0.048834768
0.047773407
0.046698203
0.045603045
0.044487903
0.043355758
0.042203622
0.041035973
0.039854001
0.038656185
0.0374467
0.03622394
0.03499628
0.033766735
0.032533035
0.031301439
0.065802807
0.073317297
0.070240974
0.070321777
0.068268532
0.067831144
0.066652262
0.066149697
0.065051318
0.064526253
0.063506109
0.062674622
0.061653534
0.060780891
0.059760752
0.058778266
0.057798475
0.056793193
0.055792944
0.054731351
0.053650906
0.052576716
0.0514736
0.050370105
0.049249371
0.048100221
0.046935298
0.045754528
0.044555815
0.043341021
0.04210833
0.040863411
0.039606376
0.03833683
0.037060778
0.035775558
0.034487648
0.033204804
0.03192218
0.030646251
0.029381763
0.06767298
0.072313749
0.070551365
0.070501316
0.069459383
0.069534258
0.068365112
0.06790549
0.066698371
0.066144162
0.065107286
0.06425579
0.063166881
0.062254903
0.061147686
0.060024091
0.058941466
0.057811086
0.056689638
0.055563826
0.054397145
0.053226538
0.052031515
0.050833322
0.04961901
0.048381949
0.04712775
0.045858401
0.044574679
0.043277652
0.041965098
0.040644132
0.039314538
0.037976006
0.036635927
0.035292763
0.033949146
0.032617099
0.031291338
0.029976546
0.028679788
0.02739967
0.06943434
0.076343871
0.07403899
0.074577586
0.073111502
0.073092757
0.07152433
0.070830412
0.069406234
0.068523364
0.067256947
0.066280833
0.065054581
0.063998947
0.062784435
0.061567988
0.060379822
0.059121259
0.057850149
0.056612959
0.055344447
0.054066828
0.052768654
0.051457197
0.05013201
0.048791511
0.047436174
0.046066254
0.044684343
0.043294793
0.041893859
0.040488033
0.039078073
0.037664349
0.036254104
0.034848169
0.033445863
0.032061113
0.030689607
0.02933454
0.028004509
0.026696813
0.025413272
0.074294705
0.081914118
0.077889904
0.077910032
0.075767903
0.075676811
0.074037382
0.073500567
0.072199489
0.071318735
0.069855418
0.06864812
0.067299383
0.066047102
0.064692178
0.063346214
0.062002967
0.06064881
0.059266476
0.05788901
0.056478335
0.055065904
0.05365038
0.05221376
0.050764628
0.049304847
0.047833393
0.046352568
0.044861671
0.04336888
0.041871994
0.040374054
0.038876623
0.037382616
0.035898224
0.034425578
0.032963163
0.031524158
0.030105766
0.028710901
0.027347775
0.026013008
0.024708828
0.023442133
0.077342108
0.083214474
0.079465197
0.080234007
0.078512896
0.078490898
0.076599642
0.075884915
0.074367337
0.073282231
0.071781516
0.070506054
0.068970247
0.067483599
0.066009913
0.064562994
0.063051257
0.061570195
0.060093875
0.058619565
0.057096655
0.055566777
0.054047923
0.052509233
0.050961757
0.049407622
0.047842041
0.046274211
0.044700916
0.043128549
0.041559889
0.039994837
0.038434082
0.03688336
0.035348464
0.033831158
0.032331143
0.03085931
0.029413932
0.027998451
0.026619604
0.025274151
0.023964762
0.022697058
0.021473474
0.080495443
0.086172795
0.083136936
0.084104729
0.082054523
0.081322562
0.079273441
0.078383843
0.076511746
0.075110319
0.073456885
0.072129901
0.070562456
0.068962364
0.067349388
0.065756213
0.06412699
0.062527172
0.060920696
0.0593231
0.057688239
0.056048358
0.05442208
0.052775504
0.051124148
0.049474252
0.047815714
0.046159645
0.044505839
0.042854802
0.041214567
0.039584755
0.037963869
0.036359173
0.034777161
0.033219049
0.031685704
0.030185239
0.028716959
0.02728513
0.025894384
0.024542322
0.023231577
0.021966345
0.020748783
0.019572631
0.085696221
0.09088536
0.087027077
0.087006989
0.084662647
0.084009089
0.081924059
0.081052307
0.078954425
0.077354423
0.075640337
0.074045139
0.072241315
0.070552515
0.068871042
0.067091786
0.065334787
0.063635173
0.061897349
0.060150739
0.058375759
0.056610441
0.054864268
0.053105992
0.051344433
0.049586654
0.047828992
0.046078035
0.044338
0.042604577
0.040888029
0.039189995
0.037507773
0.035847657
0.034217495
0.032618768
0.031052309
0.029524079
0.028034307
0.026587546
0.025185957
0.023828971
0.022518508
0.02125678
0.020046488
0.018880839
0.017769661
0.090074527
0.097513278
0.09087961
0.091339688
0.088776215
0.087764342
0.085405612
0.084155472
0.081890993
0.080340026
0.078485921
0.076534466
0.074499993
0.072573993
0.070741168
0.06881277
0.066898014
0.065022511
0.063115746
0.061215758
0.05930227
0.057393078
0.055498284
0.053603413
0.051715414
0.049831269
0.047958125
0.046096894
0.044256098
0.042430429
0.04062812
0.038852586
0.037102581
0.03538114
0.033697821
0.032055009
0.030452095
0.028894254
0.027381496
0.025918245
0.024504602
0.02314214
0.021831611
0.020573011
0.019370151
0.018214785
0.017117779
0.01606718
0.015082972
0.095248201
0.10112242
0.095105363
0.094757678
0.091788804
0.090824488
0.088216854
0.086636713
0.08423064
0.082383926
0.080177932
0.078194071
0.076273048
0.074221221
0.072143672
0.070008261
0.067908301
0.065854546
0.063812038
0.061777796
0.059752735
0.057717971
0.055691687
0.053697898
0.051720155
0.049737789
0.04777237
0.045826492
0.043909562
0.042017197
0.040151411
0.038319578
0.036524071
0.034762735
0.033046336
0.031378738
0.0297577
0.028186927
0.026665686
0.025198936
0.023785857
0.022429523
0.02112945
0.019883247
0.018695969
0.017558108
0.016480949
0.015450673
0.014487534
0.099120713
0.10339793
0.09980651
0.098533599
0.095079372
0.093565345
0.090771833
0.088950938
0.086556342
0.084579633
0.082298137
0.080073438
0.077852146
0.075471268
0.073301924
0.071160918
0.06899413
0.066791754
0.064642513
0.062495364
0.060376295
0.058210339
0.05603144
0.053902844
0.051806136
0.049728457
0.047665414
0.045622663
0.043617442
0.041649827
0.039715642
0.037821343
0.035975168
0.0341718
0.032419615
0.030723815
0.029082529
0.027498515
0.025969216
0.024499732
0.023088236
0.021737972
0.02044822
0.01921466
0.018043109
0.016922783
0.015865164
0.014856189
0.013915186
0.10215948
0.10753618
0.10232431
0.10213801
0.098339159
0.096808857
0.094146486
0.091641477
0.089360036
0.087081997
0.084401129
0.081999224
0.079832278
0.07715947
0.074858768
0.07252562
0.070201583
0.067915821
0.065587976
0.063248919
0.06095271
0.058660791
0.056376621
0.054099984
0.051854631
0.049656265
0.047493122
0.045367915
0.043276275
0.041233442
0.039240613
0.037291728
0.035398996
0.03355855
0.031775828
0.030057066
0.028399835
0.026806821
0.025273891
0.023805589
0.022399028
0.021057737
0.019780548
0.018562048
0.017408048
0.016306982
0.015269844
0.014282898
0.013364759
0.10713884
0.11239581
0.10685944
0.10580106
0.10185165
0.10005133
0.097691348
0.094831993
0.09241697
0.089337068
0.086857503
0.08405788
0.081696765
0.079029998
0.07641722
0.073905541
0.071486039
0.069041708
0.066467414
0.063920858
0.06146319
0.059047179
0.056640372
0.054246172
0.051882156
0.049563014
0.047288768
0.045064553
0.042894071
0.040784454
0.038732388
0.036734402
0.034799415
0.032926677
0.031118358
0.029380576
0.027710784
0.026112376
0.02457998
0.023116376
0.021718465
0.020389109
0.019126591
0.01792521
0.01679045
0.015710368
0.014694535
0.013730483
0.0128358
0.11223094
0.11860046
0.11301529
0.11116388
0.10643508
0.10387735
0.10139142
0.097688357
0.095352328
0.091909519
0.089707992
0.086385986
0.083812977
0.081185358
0.078392887
0.075583716
0.072648789
0.070016763
0.067380843
0.064704916
0.06207571
0.05948805
0.056924765
0.054396111
0.051912059
0.049465907
0.047092649
0.044776506
0.042518053
0.040328328
0.038216503
0.036173497
0.034198253
0.032295314
0.030465192
0.028711178
0.027031684
0.025429236
0.023898428
0.022440956
0.021053108
0.01973701
0.018490496
0.017307335
0.016192395
0.015134353
0.014140618
0.01319926
0.012327443
0.11905203
0.12421362
0.1175053
0.11506198
0.11100016
0.10808931
0.1055529
0.10106512
0.098647232
0.09455495
0.092137124
0.088796034
0.085846131
0.082990391
0.079989692
0.077132652
0.074021503
0.07111629
0.068261846
0.065400825
0.062572483
0.059760483
0.057022089
0.054351245
0.051764591
0.049223389
0.0467576
0.044369476
0.042057957
0.039806753
0.037637991
0.035557189
0.033551843
0.031628088
0.029786139
0.02802288
0.026338997
0.024737941
0.02321269
0.021765425
0.020392858
0.019093538
0.017865652
0.016702858
0.015609528
0.014574752
0.013604082
0.012686858
0.011838668
0.12484711
0.12844264
0.12264408
0.11942147
0.11561132
0.11161243
0.10887074
0.10411281
0.10174244
0.09770149
0.094746073
0.091164289
0.087713544
0.084403549
0.081117886
0.078133248
0.075113038
0.071981189
0.068804695
0.065720188
0.062760573
0.05986182
0.057011625
0.054212633
0.051508085
0.048884061
0.046341077
0.043874821
0.041499593
0.039206982
0.036997501
0.034885226
0.032858759
0.030920886
0.02907406
0.027309769
0.025628935
0.024035545
0.022522978
0.021090426
0.019735983
0.018456895
0.017250925
0.016111338
0.015041562
0.014031638
0.013085396
0.012192984
0.011368163
0.13195766
0.13419288
0.12808348
0.12478211
0.12082076
0.11565698
0.11220582
0.10819212
0.10558215
0.10075648
0.097208602
0.093418912
0.089890188
0.086542339
0.082996869
0.079379619
0.07584612
0.072522152
0.069317098
0.066151326
0.063036735
0.059984342
0.056991312
0.054077054
0.051256232
0.048520391
0.045882495
0.043348742
0.040915284
0.038581813
0.036337167
0.034193253
0.032147524
0.030199872
0.028351396
0.02659073
0.024920343
0.02333761
0.02184007
0.020425382
0.019091026
0.017833466
0.016650472
0.015535555
0.014490359
0.013505956
0.01258487
0.01171821
0.010917228
0.13932123
0.14167197
0.13461407
0.13025093
0.12645523
0.11984378
0.11603415
0.11145969
0.10753367
0.10275286
0.099215807
0.095537985
0.091580156
0.087749002
0.084011253
0.080433645
0.076839649
0.073327954
0.069854225
0.066452544
0.06312191
0.059894676
0.056779422
0.053756407
0.050843243
0.048036201
0.045336135
0.042748408
0.040271552
0.037899315
0.035631228
0.033471852
0.0314165
0.029459412
0.14707909
0.1478651
0.13963654
0.13454911
0.13121295
0.12371265
0.12026188
0.11435336
0.11022112
0.10608828
0.10181412
0.097781719
0.093456359
0.089328487
0.085307714
0.081377699
0.077567428
0.073801413
0.070108197
0.066525988
0.063059951
0.154642
0.1548171
0.14631792
0.14044656
0.13768751
0.12961988
0.12564513
0.11879663
0.11406285
0.10935094
0.10424052
0.16344716
0.16284012
0.029494068
0.02999973
0.030801204
0.030279254
0.030019651
0.03019397
0.028942303
0.027590197
0.026961963
0.038411905
0.036375472
0.035295728
0.032735011
0.03133765
0.030524782
0.039554727
0.037252625
0.036037218
0.033408255
0.032205889
0.031464899
0.040105328
0.037816243
0.036388166
0.033515978
0.032471812
0.031725912
0.040512898
0.038093162
0.036496686
0.033491554
0.032610396
0.031822297
0.040791222
0.038361071
0.036626571
0.033610802
0.0328581
0.031926726
0.040909906
0.038541608
0.036682669
0.033793936
0.033039452
0.031899192
0.041005439
0.038699543
0.036706579
0.03402381
0.033168878
0.031841318
0.040989775
0.038773169
0.036649699
0.034244622
0.033226757
0.040988563
0.038844212
0.03658021
0.034455591
0.033236825
0.041029649
0.038799035
0.036496002
0.034587631
0.033211151
0.041256703
0.038631459
0.036458734
0.034658724
0.033188587
0.041078565
0.038353714
0.036431647
0.034701471
0.033188725
0.040717783
0.038344937
0.036468133
0.034733019
0.033175367
0.04049534
0.038262793
0.036439367
0.034684681
0.04035893
0.038188488
0.036404473
0.034644708
0.040212611
0.038118167
0.036336356
0.034587919
0.040018718
0.038049865
0.036249545
0.034543744
0.039849574
0.038023045
0.036163818
0.039690286
0.037911701
0.036050777
0.039521829
0.037749002
0.035947992
0.039355509
0.037604391
0.039206345
0.037458028
0.039047916
0.037314754
0.038869829
0.038693501
)
;

boundaryField
{
    Side
    {
        type            empty;
    }
    Inlet
    {
        type            zeroGradient;
    }
    Airfoil
    {
        type            zeroGradient;
    }
    Outlet
    {
        type            zeroGradient;
    }
    procBoundary8to1
    {
        type            processor;
        value           nonuniform List<scalar> 8(0.025444363 0.026749322 0.027912268 0.029817158 0.029817158 0.033939605 0.036121964 0.038817062);
    }
    procBoundary8to7
    {
        type            processor;
        value           nonuniform List<scalar> 
53
(
0.027615249
0.025869336
0.024213218
0.022644377
0.021164609
0.019770293
0.018458152
0.017224263
0.01606546
0.014976162
0.013955966
0.01299732
0.012101519
0.01126049
0.010483543
0.059705683
0.05646928
0.053356814
0.050356907
0.047479436
0.044723508
0.042089092
0.039575656
0.03718371
0.034903441
0.032732636
0.030676557
0.027615249
0.028726078
0.099705035
0.0952991
0.090947819
0.086661066
0.082399303
0.078225797
0.0742183
0.070364113
0.066654792
0.059705683
0.06305542
0.15489511
0.14600143
0.14128367
0.13348891
0.1294647
0.12271501
0.1171495
0.11157831
0.099705035
0.10646369
0.17491373
0.15489511
0.17133193
)
;
    }
    procBoundary8to9
    {
        type            processor;
        value           nonuniform List<scalar> 
75
(
0.034562512
0.038515308
0.034562512
0.034414677
0.036447915
0.036447915
0.037413173
0.037413173
0.038030278
0.038030278
0.0376459
0.037802863
0.037802863
0.037601839
0.037601839
0.03705923
0.03705923
0.036231858
0.036249611
0.036249611
0.034956764
0.034956764
0.033446628
0.033446628
0.031775516
0.031775516
0.030074225
0.030074225
0.028128745
0.028128745
0.026138149
0.026138149
0.024161776
0.024161776
0.022215555
0.022215555
0.020287898
0.020287898
0.018447391
0.018447391
0.016702703
0.016702703
0.015701019
0.025979096
0.028930934
0.029647729
0.029720148
0.02982547
0.02995234
0.029998374
0.030039271
0.031778903
0.031778903
0.031717727
0.031671021
0.03163028
0.031597971
0.031549789
0.033107248
0.033107248
0.033056508
0.033009494
0.032961395
0.034491403
0.034491403
0.034414308
0.034325592
0.03586623
0.03586623
0.035771436
0.035671825
0.037172311
0.037172311
0.037020902
0.038515308
)
;
    }
}


// ************************************************************************* //
