/*--------------------------------*- C++ -*----------------------------------*\
| =========                 |                                                 |
| \\      /  F ield         | OpenFOAM: The Open Source CFD Toolbox           |
|  \\    /   O peration     | Version:  2506                                  |
|   \\  /    A nd           | Website:  www.openfoam.com                      |
|    \\/     M anipulation  |                                                 |
\*---------------------------------------------------------------------------*/
FoamFile
{
    version     2.0;
    format      ascii;
    arch        "LSB;label=32;scalar=64";
    class       volScalarField;
    location    "0.0055";
    object      T;
}
// * * * * * * * * * * * * * * * * * * * * * * * * * * * * * * * * * * * * * //

dimensions      [0 0 0 1 0 0 0];

internalField   nonuniform List<scalar> 
13761
(
232.74169
232.35634
231.98448
235.20278
234.77886
234.36055
233.95085
233.55038
233.15904
232.77791
232.41046
232.05655
236.853
236.42984
236.00791
235.58921
235.1737
234.76353
234.36151
233.96797
233.58265
233.20823
232.84677
232.49878
232.16263
238.84157
238.44396
238.04039
237.63198
237.22124
236.80927
236.39788
235.98894
235.58287
235.18172
234.78838
234.4028
234.02488
233.65713
233.30207
232.95984
232.63005
240.26081
239.90361
239.53524
239.15804
238.77239
238.38082
237.98483
237.58569
237.18518
236.78545
236.38746
235.99173
235.60091
235.21737
234.84071
234.47143
234.11226
233.76507
233.42997
233.10645
232.7937
241.50213
241.19694
240.87711
240.54518
240.20083
239.84552
239.48125
239.10928
238.73107
238.34761
237.96102
237.57275
237.18475
236.79815
236.41325
236.03297
235.65951
235.29237
234.93214
234.5816
234.24269
233.91545
233.59922
233.29399
233.00048
242.53557
242.28667
242.02146
241.7422
241.44946
241.14222
240.82263
240.49079
240.14892
239.79752
239.43804
239.07265
238.70254
238.32899
237.95375
237.57886
237.20439
236.83148
236.46331
236.10133
235.74484
235.39497
235.05444
234.72481
234.40614
234.09802
233.79994
233.51266
233.23672
243.37276
243.17771
242.96825
242.74329
242.50607
242.25225
241.98537
241.70527
241.41045
241.10394
240.78594
240.45754
240.11977
239.77477
239.4234
239.06696
238.70687
238.34482
237.98262
237.62051
237.25968
236.9033
236.55252
236.20678
235.86739
235.5371
235.21738
234.90813
234.60854
234.31865
234.04043
233.77724
233.52667
244.03238
243.88033
243.71979
243.54541
243.35973
243.15971
242.94537
242.71892
242.47639
242.22194
241.95354
241.67144
241.37832
241.07318
240.75815
240.43391
240.10222
239.76461
239.42201
239.07545
238.72741
238.37904
238.03004
237.68254
237.33949
237.00137
236.6677
236.33999
236.02079
235.71146
235.41196
235.12171
234.84059
234.56978
234.31052
234.06493
244.54523
244.43229
244.30796
244.17667
244.03382
243.88263
243.71743
243.54184
243.35152
243.14889
242.93316
242.70284
242.46056
242.20453
241.93575
241.65529
241.36375
241.06254
240.75229
240.43495
240.11147
239.78306
239.45084
239.11689
238.78199
238.44629
238.11202
237.78178
237.45587
237.13393
236.81776
236.51007
236.21206
235.92318
235.6425
235.37048
235.10972
234.86329
234.62953
234.40224
245.03072
244.95141
244.86184
244.76955
244.66769
244.56106
244.44409
244.32028
244.18544
244.04241
243.88587
243.71982
243.53866
243.3463
243.1413
242.92217
242.69183
242.44791
242.19145
241.92388
241.64608
241.35826
241.0619
240.75872
240.45003
240.13574
239.8174
239.49782
239.17691
238.855
238.53485
238.21858
237.90606
237.59717
237.29369
236.99808
236.71138
236.43313
236.16274
235.9008
235.64916
235.40848
235.17904
234.96249
245.35395
245.31267
245.25224
245.19783
245.12601
245.05061
244.96749
244.88051
244.78597
244.68591
244.57711
244.4608
244.33477
244.20053
244.05325
243.89694
243.72605
243.54443
243.35066
243.14295
242.92508
242.69285
242.44922
242.19522
241.93058
241.65639
241.37413
241.08496
240.78997
240.48961
240.18608
239.8811
239.5743
239.26659
238.96052
238.65784
238.35841
238.06203
237.77086
237.48778
237.21346
236.94671
236.68678
236.43493
236.19392
235.9663
235.75039
235.54016
235.33371
245.64136
245.6173
245.60073
245.55131
245.52168
245.47671
245.4272
245.39418
245.33823
245.28863
245.22329
245.15192
245.07522
244.99315
244.9057
244.81184
244.71029
244.60073
244.4829
244.35602
244.21716
244.06966
243.90822
243.73687
243.55294
243.35674
243.15001
242.92935
242.69861
242.457
242.20559
241.94507
241.67656
241.40199
241.12203
240.83623
240.54733
240.2568
239.96399
239.67043
239.3787
239.0902
238.80444
238.52151
238.24381
237.97372
237.71138
237.45586
237.20703
236.96643
236.73617
236.51594
236.30446
236.10339
235.91267
245.85128
245.86676
245.85602
245.82397
245.78055
245.74667
245.73315
245.7239
245.70867
245.69201
245.68001
245.65787
245.62589
245.58392
245.5492
245.50383
245.47718
245.42499
245.3768
245.31748
245.24872
245.17875
245.10132
245.0211
244.93326
244.8394
244.73726
244.62772
244.50878
244.37949
244.24128
244.08949
243.92916
243.75568
243.57153
243.37577
243.16755
242.94896
242.72054
242.48237
242.2353
241.98064
241.71998
241.45334
241.18124
240.90689
240.63063
240.35224
240.07329
239.79604
239.52165
239.24947
238.97961
238.71492
238.458
238.20852
237.96498
237.72742
237.49782
237.27849
237.07107
236.8742
236.68235
236.49324
245.49972
245.55491
245.53148
245.49645
245.48391
245.48088
245.48019
245.48004
245.48001
245.48
245.48
245.48
245.48
245.48
245.48
245.48
245.48
245.48
245.48
245.48
245.48
245.48
245.48001
245.48018
245.48292
245.50193
245.58042
245.82965
246.4586
247.60009
248.68119
247.59313
246.93416
246.5461
246.55659
246.4336
246.25012
246.07305
245.91054
245.87562
245.88883
245.90507
245.89281
245.85859
245.81351
245.78056
245.77146
245.76494
245.7542
245.74412
245.73948
245.71916
245.69509
245.64504
245.62544
245.58092
245.55344
245.50886
245.46352
245.41255
245.3473
245.28468
245.21184
245.13809
245.05582
244.96903
244.87316
244.77125
244.65948
244.53866
244.40858
244.26594
244.11538
243.95178
243.77839
243.59341
243.39662
243.19013
242.97436
242.7487
242.51488
242.27373
242.02746
241.77496
241.51762
241.25842
240.99676
240.73258
240.4679
240.20502
239.94479
239.68616
239.42979
239.17906
238.93567
238.69846
238.4665
238.2407
238.02317
237.81574
237.61728
237.42519
237.24107
237.06702
245.4998
245.55484
245.53156
245.49653
245.48393
245.48089
245.48019
245.48004
245.48001
245.48
245.48
245.48
245.48
245.48
245.48
245.48
245.48
245.48
245.48
245.48
245.48
245.48
245.48001
245.48017
245.48282
245.50138
245.57851
245.82478
246.44981
247.59904
248.72608
247.64372
246.98639
246.57419
246.5845
246.47666
246.29266
246.11143
245.94244
245.91094
245.92553
245.94252
245.92873
245.89169
245.84565
245.81426
245.80915
245.80693
245.79892
245.79745
245.7971
245.78279
245.75648
245.71479
245.69508
245.65248
245.62952
245.59605
245.55041
245.50501
245.44233
245.38547
245.31754
245.24952
245.17347
245.09358
245.00456
244.91096
244.8067
244.69517
244.574
244.44133
244.3007
244.1478
243.98537
243.81157
243.62613
243.43245
243.22867
243.01589
242.79532
242.56788
242.33515
242.09615
241.85316
241.60782
241.35965
241.10948
240.85908
240.61066
240.36453
240.11934
239.87646
239.63935
239.40919
239.18461
238.96478
238.75081
238.54485
238.34827
238.16173
237.9845
237.81215
237.64177
245.49987
245.55477
245.53163
245.4966
245.48395
245.48089
245.48019
245.48004
245.48001
245.48
245.48
245.48
245.48
245.48
245.48
245.48
245.48
245.48
245.48
245.48
245.48
245.48
245.48001
245.48017
245.48274
245.50092
245.57694
245.82086
246.44307
247.60061
248.76846
247.69319
247.03641
246.60184
246.61201
246.51942
246.33397
246.14842
245.97451
245.94626
245.96178
245.97909
245.96343
245.92455
245.87827
245.84841
245.84662
245.84967
245.84483
245.85062
245.85466
245.84442
245.81782
245.78737
245.75713
245.72992
245.70584
245.67753
245.63326
245.59533
245.53798
245.48738
245.42531
245.36248
245.29251
245.21859
245.13618
245.04952
244.95226
244.84912
244.73541
244.61187
244.48032
244.337
244.18471
244.02079
243.84678
243.66474
243.47258
243.27261
243.06447
242.85045
242.63135
242.4057
242.17655
241.9455
241.71186
241.47608
241.24018
241.00631
240.77404
240.54215
240.3129
240.0898
239.87295
239.66056
239.4526
239.25078
239.05709
238.87289
238.69664
238.52476
238.35834
238.2016
245.49992
245.55471
245.53169
245.49666
245.48397
245.4809
245.48019
245.48004
245.48001
245.48
245.48
245.48
245.48
245.48
245.48
245.48
245.48
245.48
245.48
245.48
245.48
245.48
245.48001
245.48016
245.48267
245.50055
245.5757
245.81786
246.43831
247.60456
248.80885
247.7411
247.08377
246.6291
246.63932
246.5621
246.37383
246.18408
246.00717
245.98126
245.99762
246.01447
245.99801
245.95791
245.9121
245.88335
245.88394
245.8928
245.89411
245.90332
245.91208
245.90423
245.87997
245.85386
245.82138
245.80834
245.77419
245.75605
245.7204
245.68555
245.63138
245.58457
245.52739
245.46924
245.40556
245.3378
245.26251
245.18323
245.09399
244.99957
244.89414
244.78068
244.65873
244.52532
244.38353
244.22997
244.06791
243.89725
243.71716
243.52935
243.3339
243.1334
242.92691
242.71484
242.50031
242.2831
242.06282
241.84034
241.61811
241.39816
241.17913
240.96017
240.74455
240.53512
240.33098
240.13073
239.93478
239.74486
239.56283
239.38916
239.22344
239.06548
238.91266
238.76178
245.49997
245.55465
245.53174
245.49671
245.48398
245.4809
245.48019
245.48004
245.48001
245.48
245.48
245.48
245.48
245.48
245.48
245.48
245.48
245.48
245.48
245.48
245.48
245.48
245.48001
245.48016
245.48261
245.50027
245.57478
245.81578
246.43553
247.61109
248.84797
247.78732
247.12832
246.65599
246.66725
246.60414
246.41195
246.21847
246.04002
246.01591
246.0324
246.04947
246.03337
245.99241
245.94701
245.91997
245.92264
245.93679
245.94473
245.95685
245.9696
245.96279
245.94238
245.91839
245.89031
245.87645
245.84537
245.83725
245.80393
245.76911
245.7229
245.68106
245.63056
245.57743
245.52039
245.45801
245.38961
245.31687
245.23463
245.14775
245.04975
244.94508
244.83127
244.70713
244.57454
244.43083
244.27962
244.11969
243.95106
243.77495
243.59202
243.40433
243.21045
243.0117
242.81001
242.60578
242.39875
242.19002
241.98253
241.77693
241.57108
241.36547
241.1638
240.9678
240.77613
240.58786
240.40395
240.22618
240.05609
239.89461
239.74009
239.58832
239.43961
245.5
245.55459
245.53178
245.49676
245.48399
245.4809
245.4802
245.48004
245.48001
245.48
245.48
245.48
245.48
245.48
245.48
245.48
245.48
245.48
245.48
245.48
245.48
245.48
245.48001
245.48016
245.48258
245.50007
245.57416
245.81459
246.43477
247.62024
248.88633
247.83155
247.16983
246.68265
246.6951
246.64551
246.44875
246.25162
246.07308
246.04991
246.06659
246.08525
246.07023
246.02852
245.98285
245.95866
245.96407
245.98213
245.99641
246.01051
246.02602
246.0208
246.0036
245.98221
245.95919
245.94195
245.92619
245.91005
245.88056
245.8538
245.8163
245.77463
245.72953
245.6795
245.62896
245.5718
245.51109
245.44475
245.37046
245.29177
245.20205
245.10678
245.00166
244.8874
244.76429
244.63117
244.49111
244.34204
244.18475
244.02045
243.85015
243.67443
243.49302
243.30727
243.11892
242.92828
242.7347
242.53964
242.34576
242.15282
241.95908
241.76609
241.5775
241.3942
241.21458
241.03806
240.86573
240.69938
240.54069
240.38944
240.24375
240.1037
239.96942
245.50002
245.55454
245.53181
245.49679
245.484
245.48091
245.4802
245.48004
245.48001
245.48
245.48
245.48
245.48
245.48
245.48
245.48
245.48
245.48
245.48
245.48
245.48
245.48
245.48001
245.48015
245.48255
245.49995
245.57385
245.81429
246.43624
247.63211
248.92417
247.87339
247.20807
246.70899
246.7228
246.68644
246.48366
246.28348
246.10645
246.08309
246.10101
246.12314
246.10897
246.06628
246.02047
245.99942
246.00804
246.02982
246.0483
246.06452
246.08142
246.07794
246.06299
246.04548
246.02523
246.00752
246.00211
245.98163
245.96356
245.93922
245.90473
245.86516
245.82859
245.78276
245.73951
245.68767
245.63412
245.57319
245.50648
245.4342
245.35182
245.26457
245.16679
245.06104
244.94659
244.82325
244.69319
244.554
244.40759
244.25476
244.09596
243.93226
243.76303
243.58949
243.41416
243.2363
243.05472
242.87247
242.69207
242.51196
242.33082
242.15124
241.97629
241.80564
241.63776
241.4728
241.31218
241.15767
241.01046
240.87055
240.73613
240.60338
245.50003
245.55449
245.53182
245.49682
245.48401
245.48091
245.4802
245.48004
245.48001
245.48
245.48
245.48
245.48
245.48
245.48
245.48
245.48
245.48
245.48
245.48
245.48
245.48
245.48001
245.48015
245.48254
245.49992
245.57385
245.81495
246.43956
247.64679
248.96166
247.91244
247.24282
246.73498
246.75066
246.72677
246.5162
246.31428
246.13955
246.11586
246.13688
246.16316
246.14959
246.1058
246.05964
246.04346
246.05415
246.07932
246.10029
246.11863
246.13601
246.13455
246.121
246.10723
246.08891
246.07547
246.07168
246.05394
246.04393
246.01728
245.99132
245.9584
245.92598
245.88204
245.84413
245.7972
245.75034
245.69543
245.63666
245.57121
245.49745
245.41835
245.32881
245.23247
245.12728
245.01423
244.89421
244.76524
244.62992
244.48845
244.34119
244.18905
244.03147
243.87059
243.70794
243.54152
243.3723
243.20402
243.03689
242.86868
242.69948
242.53228
242.36929
242.21006
242.05349
241.89969
241.74996
241.6063
241.47004
241.3399
241.21258
241.0887
245.50002
245.55444
245.53183
245.49683
245.48401
245.48091
245.4802
245.48004
245.48001
245.48
245.48
245.48
245.48
245.48
245.48
245.48
245.48
245.48
245.48
245.48
245.48
245.48
245.48001
245.48015
245.48254
245.49996
245.57414
245.81646
246.44479
247.66443
248.99913
247.94864
247.27416
246.76062
246.77909
246.76628
246.54607
246.34436
246.17199
246.14888
246.17444
246.20474
246.1914
246.14753
246.10024
246.09049
246.10237
246.13016
246.1522
246.17217
246.18995
246.19044
246.17837
246.16679
246.15069
246.14342
246.13885
246.12991
246.12004
246.09599
246.07837
246.04794
246.01808
245.98136
245.94987
245.90887
245.86838
245.81924
245.76748
245.70791
245.64127
245.56855
245.48637
245.39814
245.30101
245.19719
245.0859
244.96639
244.84161
244.71045
244.57415
244.43321
244.28686
244.13799
243.98712
243.83248
243.67631
243.52086
243.36508
243.2079
243.05048
242.89564
242.74514
242.59789
242.45246
242.30942
242.17079
242.03867
241.91323
241.79273
241.67567
245.5
245.5544
245.53182
245.49684
245.48401
245.48091
245.4802
245.48004
245.48001
245.48
245.48
245.48
245.48
245.48
245.48
245.48
245.48
245.48
245.48
245.48
245.48
245.48
245.48001
245.48016
245.48256
245.50008
245.57472
245.81882
246.45223
247.68527
249.03681
247.98194
247.30217
246.78586
246.8085
246.80462
246.57384
246.37393
246.2032
246.18265
246.21303
246.24677
246.23402
246.19032
246.14399
246.13876
246.15212
246.18142
246.20435
246.22477
246.24308
246.24525
246.23527
246.22395
246.21108
246.20873
246.2055
246.20317
246.19374
246.17945
246.16003
246.13287
246.10974
246.08136
246.05107
246.01462
245.97914
245.93598
245.89133
245.83794
245.77914
245.71371
245.64006
245.56067
245.47262
245.37832
245.27603
245.16661
245.05237
244.93172
244.80621
244.67585
244.54085
244.40397
244.26406
244.12069
243.97642
243.83218
243.68758
243.5422
243.39679
243.25399
243.11502
242.97836
242.84304
242.7102
242.58209
242.46038
242.34476
242.23307
245.49997
245.55436
245.5318
245.49683
245.48401
245.48091
245.4802
245.48004
245.48001
245.48
245.48
245.48
245.48
245.48
245.48
245.48
245.48
245.48
245.48
245.48
245.48
245.48
245.48001
245.48016
245.48259
245.50028
245.5756
245.82212
246.46183
247.70948
249.07494
248.01213
247.32676
246.81045
246.83889
246.84138
246.60041
246.40262
246.23328
246.2173
246.25197
246.28823
246.27695
246.23398
246.18988
246.18816
246.20266
246.23206
246.25612
246.27631
246.29545
246.2989
246.29104
246.27934
246.27032
246.27051
246.27258
246.27375
246.26642
246.25816
246.23869
246.22268
246.20155
246.17647
246.14972
246.12185
246.09144
246.05487
246.01609
245.96815
245.91617
245.85669
245.79053
245.71836
245.63792
245.55162
245.45728
245.35743
245.25256
245.14123
245.02591
244.90576
244.78158
244.6555
244.52637
244.39439
244.2616
244.12921
243.99654
243.86206
243.72716
243.59544
243.46757
243.34128
243.21583
243.09324
242.97599
242.86508
242.75892
245.49993
245.55433
245.53178
245.49682
245.48401
245.48091
245.4802
245.48004
245.48001
245.48
245.48
245.48
245.48
245.48
245.48
245.48
245.48
245.48
245.48
245.48
245.48
245.48
245.48001
245.48016
245.48263
245.50057
245.5768
245.82637
246.47359
247.73657
249.11333
248.03918
247.34803
246.83453
246.87037
246.87654
246.62606
246.43012
246.26295
246.25259
246.29038
246.32849
246.31954
246.27813
246.23732
246.23719
246.25301
246.2824
246.30686
246.32643
246.34634
246.35159
246.34539
246.33331
246.32852
246.33068
246.33752
246.34205
246.33931
246.33352
246.31861
246.30815
246.28645
246.26814
246.24865
246.22576
246.19703
246.16647
246.1323
246.09077
246.04604
245.99363
245.93623
245.87182
245.79984
245.72212
245.63673
245.54672
245.45113
245.34951
245.2441
245.13396
245.02049
244.90497
244.786
244.66461
244.5431
244.42177
244.29869
244.17324
244.04893
243.92905
243.8121
243.69527
243.57921
243.46662
243.35954
243.25788
243.1597
245.49988
245.5543
245.53174
245.4968
245.484
245.48091
245.4802
245.48004
245.48001
245.48
245.48
245.48
245.48
245.48
245.48
245.48
245.48
245.48
245.48
245.48
245.48
245.48
245.48001
245.48017
245.48269
245.50093
245.57831
245.83161
246.48797
247.76769
249.15178
248.06277
247.36576
246.85789
246.90253
246.91006
246.6509
246.45628
246.29284
246.28798
246.32711
246.36748
246.36082
246.32202
246.28488
246.28523
246.30255
246.33147
246.35628
246.37609
246.39557
246.40239
246.39758
246.3866
246.38501
246.39017
246.40012
246.40817
246.41145
246.40637
246.39913
246.38969
246.37152
246.36215
246.3433
246.32453
246.30267
246.27966
246.24976
246.215
246.17617
246.13035
246.0798
246.02124
245.95638
245.88563
245.80814
245.7267
245.63908
245.54621
245.4502
245.34942
245.24583
245.14018
245.0313
244.92054
244.80977
244.69838
244.58454
244.46951
244.35722
244.24864
244.14081
244.03227
243.92529
243.8228
243.72572
243.63307
245.49981
245.55427
245.5317
245.49677
245.48399
245.4809
245.4802
245.48004
245.48001
245.48
245.48
245.48
245.48
245.48
245.48
245.48
245.48
245.48
245.48
245.48
245.48
245.48
245.48001
245.48017
245.48276
245.50138
245.58013
245.83774
246.50413
247.8013
249.19074
248.08344
247.38041
246.88131
246.93546
246.94178
246.67462
246.48035
246.32285
246.32261
246.36252
246.40423
246.40028
246.36407
246.33119
246.33186
246.35059
246.37912
246.40415
246.42417
246.44311
246.4524
246.44801
246.43879
246.43933
246.44791
246.46126
246.47293
246.48045
246.47771
246.47682
246.46763
246.45906
246.44946
246.4319
246.42092
246.4056
246.38582
246.35958
246.33162
246.2986
246.26017
246.21638
246.16487
246.10833
246.04561
245.97703
245.90439
245.82492
245.74132
245.65446
245.56307
245.46931
245.37309
245.27355
245.1728
245.07214
244.96983
244.8651
244.76029
244.65817
244.55824
244.45809
244.35808
244.26096
244.16823
244.07988
245.49974
245.55425
245.53164
245.49673
245.48398
245.4809
245.4802
245.48004
245.48001
245.48
245.48
245.48
245.48
245.48
245.48
245.48
245.48
245.48
245.48
245.48
245.48
245.48
245.48001
245.48018
245.48285
245.50191
245.58227
245.84484
246.52258
247.83839
249.22936
248.10098
247.39178
246.90417
246.96893
246.97211
246.69715
246.50311
246.35293
246.35512
246.39556
246.43894
246.43608
246.40361
246.37524
246.3761
246.39681
246.42496
246.45053
246.46992
246.48901
246.5007
246.49687
246.49054
246.49268
246.50372
246.52018
246.53606
246.54643
246.54803
246.55065
246.54365
246.54148
246.53184
246.5251
246.51811
246.5037
246.48963
246.47212
246.45079
246.42275
246.39037
246.35163
246.30613
246.25618
246.19986
246.13872
246.07282
246.00052
245.92554
245.84703
245.76399
245.6792
245.59191
245.50166
245.41074
245.31915
245.22538
245.12957
245.0342
244.94163
244.85072
244.7595
244.66893
244.58099
244.49691
245.49965
245.55423
245.53158
245.49669
245.48396
245.4809
245.48019
245.48004
245.48001
245.48
245.48
245.48
245.48
245.48
245.48
245.48
245.48
245.48
245.48
245.48
245.48
245.48
245.48001
245.48018
245.48295
245.50253
245.58474
245.85293
246.54328
247.87844
249.2676
248.11575
247.4002
246.92711
247.00289
247.00015
246.71816
246.52484
246.38343
246.38591
246.42592
246.47009
246.46794
246.43919
246.41605
246.41861
246.44001
246.46941
246.49501
246.51323
246.53305
246.54671
246.54448
246.54089
246.54536
246.55866
246.57786
246.59755
246.61028
246.61654
246.62096
246.6194
246.61996
246.61311
246.614
246.60658
246.59977
246.59177
246.57968
246.56142
246.53828
246.51192
246.47877
246.44056
246.39812
246.34936
246.2963
246.23785
246.17381
246.10771
246.03722
245.9629
245.8871
245.80813
245.72672
245.64485
245.56165
245.47584
245.38836
245.30242
245.21927
245.13666
245.053
244.96975
244.88936
245.49955
245.55421
245.5315
245.49663
245.48395
245.48089
245.48019
245.48004
245.48001
245.48
245.48
245.48
245.48
245.48
245.48
245.48
245.48
245.48
245.48
245.48
245.48
245.48
245.48001
245.48019
245.48307
245.50324
245.58756
245.86203
246.5663
247.92166
249.30517
248.12786
247.40558
246.94992
247.03717
247.02598
246.73802
246.54524
246.41215
246.41455
246.4532
246.49825
246.4951
246.4717
246.45323
246.45843
246.48186
246.51065
246.53698
246.55569
246.57542
246.58939
246.58961
246.58946
246.59701
246.6129
246.63499
246.6581
246.6734
246.68378
246.68955
246.69372
246.69608
246.69581
246.69844
246.69446
246.6972
246.69259
246.68374
246.67171
246.65601
246.63482
246.60644
246.57442
246.53754
246.49446
246.44756
246.39484
246.3381
246.2795
246.21592
246.14947
246.0817
246.01072
245.93783
245.86416
245.78857
245.71033
245.63147
245.5548
245.48004
245.40444
245.32735
245.2517
245.49944
245.5542
245.53142
245.49657
245.48393
245.48089
245.48019
245.48004
245.48001
245.48
245.48
245.48
245.48
245.48
245.48
245.48
245.48
245.48
245.48
245.48
245.48
245.48
245.48001
245.4802
245.48321
245.50405
245.59072
245.87216
246.59167
247.96795
249.34162
248.1376
247.40785
246.9727
247.07187
247.04973
246.75655
246.56461
246.43947
246.44106
246.47797
246.5221
246.52081
246.50056
246.48852
246.49565
246.52158
246.54971
246.57521
246.59644
246.61743
246.6309
246.63202
246.63478
246.64545
246.66539
246.69187
246.71792
246.73601
246.74982
246.75788
246.76615
246.77097
246.77602
246.78028
246.78427
246.78861
246.7851
246.784
246.77764
246.76536
246.74825
246.72559
246.70035
246.66925
246.63309
246.59335
246.54778
246.49944
246.44845
246.39214
246.33402
246.27407
246.21058
246.14569
246.07978
246.01116
245.94016
245.86957
245.80131
245.73365
245.66404
245.59382
245.49932
245.55419
245.53133
245.4965
245.48391
245.48088
245.48019
245.48004
245.48001
245.48
245.48
245.48
245.48
245.48
245.48
245.48
245.48
245.48
245.48
245.48
245.48
245.48
245.48001
245.48022
245.48336
245.50495
245.59426
245.88337
246.61945
248.01727
249.37663
248.14523
247.4078
246.99563
247.10718
247.07175
246.77407
246.58318
246.4655
246.46584
246.50011
246.54458
246.5441
246.52898
246.52084
246.53125
246.55796
246.58809
246.61014
246.63389
246.65743
246.67124
246.67329
246.67846
246.69158
246.71513
246.74575
246.77481
246.79689
246.81399
246.82482
246.83603
246.84488
246.85311
246.86057
246.87014
246.87457
246.88007
246.88386
246.87984
246.87406
246.86298
246.84714
246.82684
246.79984
246.76916
246.73459
246.69463
246.65311
246.60769
246.55755
246.50689
246.45368
246.39725
246.33969
246.2804
246.21827
246.15468
246.09245
246.03196
245.97057
245.90711
245.84412
245.4992
245.55419
245.53123
245.49643
245.48388
245.48087
245.48019
245.48004
245.48001
245.48
245.48
245.48
245.48
245.48
245.48
245.48
245.48
245.48
245.48
245.48
245.48
245.48
245.48001
245.48023
245.48354
245.50597
245.59817
245.89567
246.64966
248.06957
249.40969
248.1509
247.40495
247.01841
247.14296
247.09203
246.79076
246.60076
246.49083
246.48988
246.52186
246.56572
246.5676
246.55609
246.55139
246.56337
246.59314
246.6231
246.64396
246.66917
246.69444
246.70957
246.7134
246.72094
246.7369
246.76392
246.79759
246.82932
246.85495
246.87471
246.88873
246.90285
246.91589
246.92668
246.93887
246.95126
246.95916
246.97193
246.97531
246.97785
246.97732
246.97087
246.95891
246.94319
246.92154
246.89765
246.86904
246.83636
246.80221
246.76289
246.72044
246.67733
246.63055
246.58091
246.53039
246.47745
246.42151
246.36515
246.31053
246.25649
246.2003
246.14222
245.49906
245.55418
245.53113
245.49634
245.48386
245.48087
245.48019
245.48004
245.48001
245.48
245.48
245.48
245.48
245.48
245.48
245.48
245.48
245.48
245.48
245.48
245.48
245.48
245.48001
245.48025
245.48373
245.50709
245.60248
245.9091
246.68234
248.12481
249.44033
248.15481
247.3998
247.04116
247.17924
247.11028
246.80713
246.61722
246.51641
246.51511
246.54498
246.58712
246.59098
246.58264
246.57931
246.59452
246.62464
246.65587
246.67575
246.70219
246.73015
246.74597
246.75067
246.76131
246.78115
246.81197
246.84849
246.88299
246.91158
246.93395
246.95079
246.96743
246.98423
246.99804
247.01474
247.02932
247.04319
247.0589
247.06515
247.07775
247.0792
247.07609
247.07107
247.06044
247.04462
247.02564
247.0011
246.97403
246.94458
246.90995
246.87389
246.83661
246.79513
246.75184
246.70736
246.65968
246.61005
246.56111
246.51351
246.46496
246.41344
245.49892
245.55418
245.53102
245.49626
245.48383
245.48086
245.48019
245.48004
245.48001
245.48
245.48
245.48
245.48
245.48
245.48
245.48
245.48
245.48
245.48
245.48
245.48
245.48
245.48001
245.48026
245.48396
245.50832
245.60721
245.9237
246.7175
248.18291
249.46802
248.1572
247.39258
247.06394
247.2161
247.12615
246.82362
246.6329
246.54326
246.54281
246.5706
246.6094
246.61373
246.60798
246.60652
246.62303
246.65486
246.68557
246.7067
246.73289
246.76287
246.78067
246.78776
246.8005
246.82282
246.85741
246.89768
246.93566
246.96691
246.99179
247.01129
247.03085
247.0509
247.0684
247.08842
247.10609
247.12491
247.14199
247.15473
247.1704
247.17257
247.17707
247.17535
247.16841
247.15753
247.14386
247.12523
247.10467
247.08067
247.05244
247.02372
246.99211
246.95644
246.91978
246.88087
246.83861
246.79531
246.75316
246.71138
246.66701
245.49876
245.55419
245.5309
245.49616
245.4838
245.48085
245.48018
245.48004
245.48001
245.48
245.48
245.48
245.48
245.48
245.48
245.48
245.48
245.48
245.48
245.48
245.48
245.48
245.48001
245.48028
245.4842
245.50968
245.61236
245.93951
246.75519
248.24379
249.4923
248.15824
247.38365
247.0867
247.25349
247.1395
246.84034
246.64812
246.57143
246.5726
246.59829
246.63234
246.63616
246.63208
246.63221
246.64982
246.68372
246.71301
246.73639
246.76194
246.79415
246.81307
246.82295
246.83798
246.86364
246.9024
246.94539
246.98578
247.0195
247.04745
247.06983
247.09214
247.1148
247.13635
247.15908
247.18044
247.20289
247.22275
247.24107
247.25707
247.26561
247.27771
247.27763
247.27623
247.2721
247.26277
247.24931
247.2328
247.21239
247.18917
247.1652
247.13732
247.1068
247.07539
247.04089
247.00381
246.96703
246.93118
246.8939
245.49861
245.5542
245.53077
245.49606
245.48377
245.48085
245.48018
245.48004
245.48001
245.48
245.48
245.48
245.48
245.48
245.48
245.48
245.48
245.48
245.48
245.48
245.48
245.48
245.48001
245.48031
245.48448
245.51117
245.61797
245.95654
246.79541
248.30736
249.51268
248.15812
247.37334
247.10923
247.29118
247.15058
246.85693
246.66284
246.5998
246.60312
246.6269
246.65562
246.65793
246.65494
246.65649
246.67587
246.71073
246.74013
246.76359
246.79015
246.82385
246.8441
246.85715
246.87363
246.90291
246.94575
246.99164
247.03508
247.07142
247.10156
247.12616
247.15088
247.1763
247.2021
247.2269
247.25211
247.27755
247.30098
247.32333
247.34181
247.35666
247.3695
247.37322
247.37887
247.37687
247.37088
247.36267
247.35127
247.337
247.31997
247.30091
247.27796
247.25361
247.22754
247.19765
247.16625
247.13561
247.10466
245.49844
245.5542
245.53064
245.49596
245.48374
245.48084
245.48018
245.48004
245.48001
245.48
245.48
245.48
245.48
245.48
245.48
245.48
245.48
245.48
245.48
245.48
245.48
245.48
245.48001
245.48034
245.48478
245.51279
245.62405
245.97485
246.83819
248.37351
249.52872
248.15701
247.36206
247.13122
247.32913
247.15963
246.87278
246.67729
246.62773
246.63389
246.65551
246.67871
246.67867
246.67703
246.67998
246.70079
246.73828
246.76557
246.78982
246.81765
246.85172
246.87455
246.88956
246.90764
246.94151
246.98762
247.03623
247.0828
247.12146
247.15369
247.18119
247.20851
247.23632
247.26565
247.29282
247.32177
247.34998
247.37687
247.40257
247.42455
247.44373
247.45821
247.46903
247.47923
247.47982
247.47968
247.47685
247.4702
247.45971
247.44604
247.42994
247.41094
247.39104
247.36813
247.34223
247.31646
247.29107
245.49827
245.55422
245.5305
245.49585
245.48371
245.48083
245.48018
245.48004
245.48001
245.48
245.48
245.48
245.48
245.48
245.48
245.48
245.48
245.48
245.48
245.48
245.48
245.48
245.48001
245.48037
245.48511
245.51456
245.63061
245.99446
246.88352
248.4421
249.53996
248.15501
247.35028
247.15235
247.36776
247.16699
246.8875
246.69197
246.65577
246.66453
246.6834
246.70133
246.69913
246.6983
246.70278
246.72718
246.76395
246.79259
246.81379
246.84423
246.87945
246.90354
246.91991
246.94125
246.9795
247.02739
247.07955
247.12894
247.1694
247.20415
247.23468
247.26381
247.29385
247.32676
247.35685
247.38898
247.42003
247.44987
247.47881
247.50406
247.52637
247.54461
247.56032
247.57045
247.57596
247.58123
247.5806
247.57738
247.57135
247.56291
247.55216
247.53896
247.52366
247.50468
247.48402
247.46385
247.44259
245.4981
245.55423
245.53036
245.49574
245.48368
245.48082
245.48017
245.48003
245.48001
245.48
245.48
245.48
245.48
245.48
245.48
245.48
245.48
245.48
245.48
245.48
245.48
245.48
245.48001
245.4804
245.48548
245.51647
245.63769
246.01541
246.93139
248.51304
249.54603
248.15218
247.33854
247.17233
247.40738
247.17307
246.90115
246.70662
246.68394
246.69405
246.71042
246.7239
246.71946
246.71963
246.72608
246.75339
246.79124
246.81702
246.83916
246.86997
246.9057
246.93184
246.94918
246.97401
247.01546
247.06643
247.12226
247.17285
247.21576
247.25326
247.28608
247.3171
247.34967
247.38566
247.41859
247.45347
247.48766
247.52024
247.55221
247.58013
247.60604
247.62804
247.64672
247.66012
247.67188
247.68014
247.68364
247.68511
247.683
247.67826
247.67079
247.66092
247.64791
247.63215
247.61597
247.59976
245.49792
245.55425
245.53021
245.49563
245.48365
245.48081