/*--------------------------------*- C++ -*----------------------------------*\
| =========                 |                                                 |
| \\      /  F ield         | OpenFOAM: The Open Source CFD Toolbox           |
|  \\    /   O peration     | Version:  2506                                  |
|   \\  /    A nd           | Website:  www.openfoam.com                      |
|    \\/     M anipulation  |                                                 |
\*---------------------------------------------------------------------------*/
FoamFile
{
    version     2.0;
    format      ascii;
    arch        "LSB;label=32;scalar=64";
    class       volScalarField;
    location    "0.1";
    object      T;
}
// * * * * * * * * * * * * * * * * * * * * * * * * * * * * * * * * * * * * * //

dimensions      [0 0 0 1 0 0 0];

internalField   nonuniform List<scalar> 
1375
(
245.66458
245.66484
245.66515
245.66405
245.66408
245.6643
245.66456
245.66483
245.66518
245.66561
245.66607
245.66654
245.66411
245.66394
245.66408
245.66429
245.66454
245.66488
245.66532
245.66584
245.6664
245.66694
245.66752
245.66813
245.66874
245.66933
245.6699
245.66481
245.66434
245.66437
245.66448
245.66468
245.66498
245.6654
245.66592
245.66653
245.66718
245.66793
245.66873
245.66956
245.6704
245.67124
245.67206
245.67292
245.67383
245.67483
245.66669
245.66587
245.66572
245.66563
245.66568
245.66586
245.66619
245.66667
245.66729
245.66804
245.66888
245.66981
245.67082
245.67188
245.67299
245.67412
245.67533
245.67662
245.67803
245.67955
245.68127
245.68327
245.68567
245.67011
245.66889
245.6685
245.66819
245.66802
245.66802
245.66817
245.66851
245.66904
245.66975
245.6706
245.67158
245.67268
245.6739
245.67525
245.67671
245.67826
245.67993
245.6817
245.68356
245.6856
245.68791
245.69061
245.69367
245.69744
245.70186
245.70683
245.67525
245.67362
245.67292
245.67233
245.6719
245.67167
245.67163
245.67176
245.67211
245.67269
245.67346
245.67439
245.67549
245.6768
245.67828
245.67994
245.68175
245.68369
245.68572
245.68783
245.69016
245.69271
245.69561
245.69903
245.70284
245.70714
245.712
245.71723
245.7226
245.72787
245.68189
245.67995
245.67901
245.67817
245.67749
245.67701
245.67674
245.67668
245.6768
245.67714
245.67773
245.67853
245.67953
245.68076
245.68223
245.68395
245.68585
245.68791
245.69006
245.69239
245.69486
245.69767
245.70077
245.70415
245.708
245.71235
245.7171
245.72209
245.72709
245.73183
245.73608
245.73955
245.7422
245.68951
245.68743
245.68634
245.68532
245.68443
245.68371
245.68319
245.68291
245.68285
245.68301
245.68337
245.68397
245.68482
245.68594
245.68732
245.68888
245.69069
245.69267
245.69486
245.6973
245.70006
245.70297
245.70618
245.70983
245.71381
245.71809
245.72251
245.72699
245.73144
245.73558
245.73918
245.74207
245.74412
245.74549
245.74611
245.69742
245.69527
245.69414
245.69306
245.69207
245.69123
245.69056
245.69007
245.6898
245.68976
245.68994
245.69036
245.69104
245.69195
245.6931
245.69451
245.69616
245.69805
245.70032
245.70288
245.70572
245.70894
245.71234
245.71579
245.71939
245.72324
245.72724
245.73131
245.73534
245.73905
245.74215
245.74455
245.74609
245.74678
245.74675
245.7461
245.74455
245.74224
245.70562
245.70338
245.70211
245.70091
245.69983
245.6989
245.69814
245.69755
245.69715
245.69696
245.69695
245.69717
245.69765
245.69836
245.69942
245.70076
245.70229
245.70416
245.70642
245.70911
245.71194
245.71479
245.71782
245.72106
245.72458
245.72825
245.73208
245.73595
245.73959
245.74279
245.74533
245.74715
245.74811
245.74827
245.74769
245.7464
245.74434
245.74142
245.73819
245.73528
245.7137
245.71157
245.71015
245.70875
245.70752
245.7065
245.70562
245.70486
245.70429
245.70393
245.70378
245.70386
245.70419
245.7048
245.70562
245.70679
245.70824
245.7101
245.7123
245.71465
245.71732
245.72038
245.72364
245.72701
245.73051
245.73408
245.73765
245.74099
245.74408
245.74681
245.74888
245.75017
245.75061
245.75033
245.74927
245.74743
245.74491
245.74176
245.73844
245.7356
245.7335
245.73205
245.72109
245.71922
245.71775
245.7163
245.71494
245.71361
245.71238
245.71132
245.71054
245.71005
245.7098
245.70968
245.70974
245.71008
245.71081
245.71165
245.71295
245.7146
245.71664
245.71922
245.72216
245.7253
245.72858
245.73193
245.73532
245.73882
245.74223
245.74544
245.74831
245.7507
245.75254
245.75365
245.75394
245.75344
245.75212
245.75003
245.74724
245.74377
245.74007
245.73702
245.73501
245.73359
245.73345
245.7275
245.726
245.72459
245.72304
245.72148
245.71998
245.71857
245.7173
245.71616
245.71517
245.71437
245.71382
245.71361
245.71379
245.7139
245.71434
245.71524
245.71676
245.71872
245.72105
245.72382
245.727
245.73049
245.7341
245.73761
245.74107
245.74463
245.74817
245.75132
245.75407
245.75624
245.75764
245.75814
245.75776
245.75641
245.75418
245.75126
245.7477
245.74375
245.74019
245.73791
245.73639
245.73584
245.73604
245.73798
245.73259
245.73139
245.73018
245.72873
245.72712
245.72542
245.72367
245.72194
245.72028
245.71874
245.71737
245.71612
245.71505
245.71419
245.71407
245.71447
245.71522
245.71643
245.71813
245.7203
245.72302
245.72624
245.72991
245.73384
245.73776
245.74166
245.74566
245.74966
245.75336
245.75663
245.75934
245.76133
245.76238
245.76236
245.7612
245.75892
245.75575
245.75205
245.74801
245.74398
245.74101
245.73949
245.73849
245.7392
245.74098
245.73972
245.73668
245.73574
245.73433
245.73269
245.73082
245.72875
245.72659
245.72436
245.72203
245.71967
245.71741
245.71556
245.71425
245.7133
245.71263
245.71232
245.7126
245.71337
245.71453
245.71642
245.71915
245.72254
245.72654
245.73107
245.73587
245.74069
245.7455
245.75021
245.75465
245.75854
245.7617
245.76407
245.76546
245.76576
245.76476
245.76237
245.75895
245.75509
245.75113
245.74722
245.7438
245.74231
245.7415
245.74173
245.74403
245.74277
245.7515
245.73777
245.73736
245.73605
245.7344
245.73237
245.72999
245.72738
245.72463
245.72187
245.71918
245.7166
245.71414
245.71185
245.70995
245.70844
245.70745
245.70704
245.70719
245.708
245.70973
245.71249
245.71624
245.72081
245.72607
245.73183
245.73777
245.7437
245.74938
245.75454
245.75907
245.76278
245.76544
245.76692
245.76707
245.76584
245.76324
245.75969
245.75576
245.75203
245.74863
245.74535
245.74363
245.74354
245.7429
245.74604
245.74453
245.75356
245.74344
245.75117
245.73778
245.73787
245.73654
245.73476
245.73246
245.72978
245.72689
245.72379
245.7206
245.7174
245.71422
245.71105
245.70796
245.70512
245.70268
245.70078
245.69938
245.69879
245.69926
245.70093
245.70366
245.70757
245.71273
245.719
245.72592
245.73316
245.74035
245.74718
245.7533
245.75836
245.76211
245.76451
245.76557
245.7653
245.76382
245.76133
245.75814
245.75472
245.75156
245.74892
245.74645
245.74462
245.74478
245.74399
245.74736
245.74602
245.7562
245.74623
245.75395
245.73495
245.73598
245.73514
245.73363
245.73138
245.72852
245.72517
245.72146
245.71758
245.71369
245.70989
245.70622
245.70268
245.69919
245.69597
245.69331
245.69131
245.69004
245.68982
245.69061
245.69293
245.69729
245.70313
245.71001
245.71798
245.72651
245.73482
245.74268
245.74964
245.7552
245.75919
245.76159
245.76244
245.76207
245.76072
245.75869
245.75626
245.75364
245.75117
245.74905
245.74715
245.7456
245.74546
245.74558
245.74872
245.74794
245.75765
245.74837
245.75704
245.72856
245.73034
245.73064
245.73015
245.72864
245.7263
245.72311
245.7192
245.71479
245.71008
245.70534
245.70076
245.69643
245.69237
245.68865
245.68537
245.68291
245.68142
245.68096
245.68188
245.684
245.68717
245.69253
245.70019
245.70902
245.71816
245.72735
245.73595
245.74316
245.74886
245.75296
245.75531
245.75627
245.75633
245.75569
245.75452
245.75296
245.75117
245.74941
245.74801
245.74677
245.74564
245.74548
245.74663
245.74923
245.74828
245.75763
245.74865
245.75984
245.71997
245.72219
245.72307
245.72346
245.72315
245.72199
245.71978
245.71658
245.71249
245.70775
245.7025
245.69699
245.69159
245.68654
245.68199
245.67814
245.67514
245.67328
245.67275
245.67353
245.67594
245.67998
245.68503
245.69141
245.69984
245.70958
245.71924
245.72777
245.73514
245.741
245.74494
245.74744
245.7489
245.74953
245.74961
245.74918
245.7482
245.74696
245.74583
245.74517
245.74482
245.74454
245.7447
245.74604
245.74883
245.74757
245.75636
245.74769
245.76167
245.70936
245.71231
245.71351
245.71463
245.71504
245.71486
245.71408
245.71226
245.70933
245.70532
245.70045
245.69501
245.68915
245.68331
245.67791
245.6731
245.66907
245.66643
245.66561
245.66629
245.66874
245.67307
245.67915
245.68611
245.6933
245.70156
245.71091
245.71987
245.72727
245.7329
245.737
245.73976
245.74158
245.7428
245.74352
245.74362
245.7431
245.74224
245.74146
245.7412
245.74137
245.74172
245.74244
245.7436
245.74681
245.74521
245.7539
245.74536
245.75786
245.69654
245.7001
245.7019
245.70368
245.70499
245.70579
245.70593
245.70537
245.70402
245.70159
245.69805
245.69348
245.68814
245.68224
245.67613
245.67055
245.66587
245.66228
245.66045
245.66066
245.66276
245.66691
245.67282
245.68031
245.68867
245.69662
245.70399
245.71187
245.71938
245.72526
245.72948
245.7324
245.73461
245.73622
245.73731
245.73786
245.73786
245.73736
245.73692
245.73686
245.73737
245.73816
245.73894
245.73983
245.74287
245.74165
245.75061
245.74133
245.74978
245.68218
245.68576
245.68822
245.69056
245.69265
245.69428
245.69554
245.69626
245.69619
245.69529
245.69348
245.6906
245.68663
245.68179
245.67641
245.67091
245.666
245.66209
245.65941
245.65853
245.65977
245.66313
245.66839
245.67519
245.68299
245.69105
245.69858
245.70492
245.71071
245.71669
245.72167
245.72515
245.72768
245.72964
245.73107
245.73196
245.73236
245.73237
245.73232
245.73242
245.73307
245.73422
245.73503
245.73572
245.7387
245.73699
245.74632
245.73704
245.74574
245.66874
245.67166
245.67421
245.67667
245.67901
245.6812
245.68315
245.68476
245.68592
245.68642
245.6862
245.68524
245.68332
245.68041
245.67667
245.67244
245.66791
245.66379
245.66081
245.65961
245.6602
245.66272
245.66693
245.67247
245.67899
245.68584
245.69252
245.69845
245.70352
245.70807
245.71278
245.71717
245.72052
245.72298
245.72482
245.72616
245.72699
245.72737
245.72752
245.72775
245.72842
245.72978
245.73138
245.73198
245.73501
245.73264
245.7427
245.73319
245.74005
245.65752
245.65972
245.66205
245.66444
245.66692
245.6693
245.67143
245.67324
245.67487
245.67628
245.67727
245.67768
245.67758
245.67697
245.67563
245.67348
245.6711
245.66829
245.66558
245.66382
245.6636
245.66492
245.66786
245.67219
245.67693
245.68199
245.68705
245.69185
245.69628
245.70014
245.70394
245.70815
245.71237
245.71584
245.71851
245.72046
245.72185
245.72272
245.72312
245.7237
245.72448
245.72552
245.72754
245.72836
245.73102
245.72879
245.73897
245.72916
245.73412
245.64866
245.65054
245.65225
245.65406
245.656
245.65814
245.66044
245.66277
245.66491
245.66674
245.66817
245.66934
245.6704
245.67129
245.67196
245.67227
245.67209
245.67197
245.67149
245.67075
245.6703
245.67077
245.67221
245.67428
245.67711
245.68012
245.68297
245.68609
245.68921
245.69236
245.69555
245.69896
245.70304
245.70751
245.71137
245.71438
245.71671
245.71837
245.7195
245.72052
245.72155
245.72247
245.72357
245.72449
245.72702
245.72495
245.73479
245.72492
245.73227
245.64085
245.64239
245.64378
245.64535
245.64701
245.64886
245.65082
245.65287
245.65495
245.65708
245.65911
245.66092
245.66259
245.66436
245.66635
245.6686
245.67089
245.67297
245.67531
245.67717
245.67835
245.67897
245.67945
245.67997
245.68029
245.68087
245.68179
245.68245
245.68361
245.6852
245.68725
245.68996
245.69329
245.69757
245.70267
245.7075
245.71124
245.71403
245.71617
245.7178
245.719
245.71995
245.72053
245.72141
245.72371
245.7215
245.73118
245.72077
245.72755
245.63481
245.6358
245.63689
245.63802
245.63924
245.64065
245.64218
245.64383
245.64558
245.64741
245.64951
245.65193
245.6544
245.65691
245.65973
245.66312
245.66718
245.67162
245.67591
245.6804
245.68434
245.68693
245.68784
245.68746
245.68637
245.68473
245.68304
245.68203
245.68112
245.6806
245.6808
245.68183
245.68403
245.68784
245.69298
245.69905
245.70468
245.70898
245.71222
245.71453
245.71625
245.71748
245.71854
245.71929
245.72126
245.7194
245.72853
245.71787
245.72259
245.63386
245.6349
245.63599
245.63722
245.63859
245.64023
245.64221
245.64488
245.64834
245.65245
245.65712
245.66234
245.66813
245.67433
245.68024
245.68586
245.69061
245.69365
245.69439
245.69315
245.69063
245.68767
245.68462
245.68189
245.67964
245.67758
245.67675
245.67729
245.67913
245.6833
245.68926
245.69608
245.70243
245.70724
245.71057
245.71299
245.71476
245.71648
245.71729
245.71938
245.71784
245.72613
245.71494
245.7167
245.63155
245.6333
245.6357
245.63899
245.64346
245.64912
245.65573
245.66317
245.67107
245.67897
245.68608
245.69198
245.69632
245.69856
245.69858
245.69665
245.69357
245.68992
245.68586
245.68155
245.67765
245.67394
245.67146
245.67178
245.67428
245.67893
245.6857
245.69341
245.70064
245.70602
245.70959
245.71203
245.71398
245.71491
245.71697
245.71534
245.72309
245.71243
245.71743
245.6401
245.64749
245.65616
245.66562
245.67524
245.68421
245.69172
245.69708
245.70015
245.70121
245.70059
245.69853
245.69571
245.69219
245.68751
245.68166
245.67546
245.67031
245.66705
245.66706
245.67066
245.67573
245.68295
245.69101
245.69888
245.70469
245.70827
245.7106
245.71184
245.71447
245.71244
245.72071
245.712
245.71448
245.67825
245.68736
245.69458
245.69933
245.7015
245.70176
245.70082
245.69901
245.69631
245.69275
245.68798
245.68156
245.67424
245.6683
245.6652
245.66469
245.66806
245.67294
245.68023
245.68858
245.69684
245.70305
245.70694
245.70913
245.71159
245.70957
245.71756
245.70932
245.71366
245.69876
245.69931
245.69872
245.69698
245.69437
245.69089
245.68639
245.68067
245.67402
245.66773
245.66424
245.66367
245.66647
245.67104
245.67834
245.68677
245.69512
245.70189
245.70596
245.70883
245.70749
245.71447
245.70512
245.71031
245.6918
245.68989
245.68706
245.68348
245.67909
245.67347
245.66772
245.66389
245.66338
245.66599
245.67104
245.67795
245.68577
245.69363
245.70013
245.70496
245.70514
245.71182
245.70166
245.70501
245.67986
245.67705
245.67276
245.66791
245.66465
245.66462
245.66646
245.67102
245.67687
245.68363
245.69061
245.69725
245.70013
245.70889
245.69996
245.70287
245.67419
245.67026
245.66656
245.66553
245.66633
245.66923
245.67424
245.68059
245.68723
245.69032
245.70065
245.69546
245.70128
245.67216
245.66878
245.66804
245.6699
245.67358
245.67833
245.68042
245.68911
245.68403
245.69045
245.67669
245.67495
245.67653
245.67665
245.68346
245.67467
245.67879
245.69113
245.68604
245.6891
245.67634
245.67452
245.69582
245.68968
)
;

boundaryField
{
    Side
    {
        type            empty;
    }
    Inlet
    {
        type            totalTemperature;
        gamma           1.4;
        T0              uniform 250;
        value           nonuniform List<scalar> 
25
(
245.58853
245.58765
245.5874
245.58739
245.58744
245.58768
245.58809
245.58856
245.589
245.58929
245.58952
245.58979
245.59018
245.59048
245.59042
245.58999
245.58956
245.58939
245.58917
245.58869
245.5885
245.58928
245.59016
245.58886
245.58348
)
;
    }
    Airfoil
    {
        type            zeroGradient;
    }
    Outlet
    {
        type            inletOutlet;
        inletValue      nonuniform List<scalar> 0();
        value           nonuniform List<scalar> 0();
    }
    procBoundary5to4
    {
        type            processor;
        value           nonuniform List<scalar> 
64
(
245.66543
245.66566
245.66598
245.66547
245.66547
245.66582
245.66619
245.66655
245.6669
245.66697
245.66697
245.66742
245.66783
245.6682
245.66854
245.66884
245.67041
245.67041
245.67095
245.67151
245.67212
245.67592
245.67592
245.67729
245.67892
245.68096
245.68861
245.68861
245.69212
245.69621
245.70112
245.71227
245.71227
245.71798
245.72372
245.73277
245.73277
245.73692
245.7403
245.7442
245.7442
245.7456
245.74619
245.74619
245.74545
245.74363
245.73934
245.73934
245.73669
245.73302
245.73302
245.73155
245.73184
245.73184
245.73313
245.73313
245.73529
245.73569
245.73569
245.74752
245.74752
245.74053
245.74053
245.74755
)
;
    }
    procBoundary5to6
    {
        type            processor;
        value           nonuniform List<scalar> 
61
(
245.62986
245.63042
245.63124
245.63209
245.63298
245.63298
245.62779
245.62822
245.62876
245.62945
245.63036
245.63036
245.62358
245.62478
245.62683
245.62993
245.6343
245.6343
245.63114
245.6384
245.64727
245.65734
245.6679
245.6679
245.66936
245.67868
245.68643
245.69236
245.69647
245.69647
245.68962
245.69155
245.6926
245.69271
245.69271
245.68433
245.68423
245.68365
245.68227
245.68227
245.67822
245.67782
245.67693
245.67693
245.67777
245.67798
245.67614
245.67614
245.68382
245.68343
245.68057
245.68057
245.69676
245.69532
245.69532
245.71434
245.71373
245.71448
245.71448
245.71895
245.72581
)
;
    }
    procBoundary5to12
    {
        type            processor;
        value           nonuniform List<scalar> 
30
(
245.66404
245.66409
245.66481
245.66672
245.67016
245.67528
245.6819
245.68946
245.69737
245.70564
245.71366
245.72104
245.72748
245.73254
245.7366
245.73768
245.73771
245.73489
245.72854
245.71999
245.70939
245.69656
245.6822
245.66877
245.65755
245.6487
245.64088
245.63482
245.66438
245.66438
)
;
    }
}


// ************************************************************************* //
