/*--------------------------------*- C++ -*----------------------------------*\
| =========                 |                                                 |
| \\      /  F ield         | OpenFOAM: The Open Source CFD Toolbox           |
|  \\    /   O peration     | Version:  2506                                  |
|   \\  /    A nd           | Website:  www.openfoam.com                      |
|    \\/     M anipulation  |                                                 |
\*---------------------------------------------------------------------------*/
FoamFile
{
    version     2.0;
    format      ascii;
    arch        "LSB;label=32;scalar=64";
    class       volScalarField;
    location    "0.0285";
    object      Co;
}
// * * * * * * * * * * * * * * * * * * * * * * * * * * * * * * * * * * * * * //

dimensions      [0 0 0 0 0 0 0];

internalField   nonuniform List<scalar> 
13761
(
0.011558664
0.011778352
0.011987397
0.010074844
0.010330485
0.010580298
0.010823219
0.011058429
0.01128482
0.011500998
0.011706395
0.011901307
0.0090301863
0.0092953114
0.0095570709
0.0098148738
0.010067694
0.010314456
0.010554009
0.010785515
0.011008198
0.011221017
0.011423421
0.011615457
0.011797262
0.0076924703
0.0079618309
0.0082293771
0.0084947023
0.0087576935
0.0090181077
0.0092756913
0.0095294267
0.0097778718
0.010019801
0.010254247
0.010480725
0.010698404
0.010905897
0.011102995
0.011290496
0.011468862
0.006658034
0.0069215001
0.0071851788
0.007448497
0.0077110527
0.0079726199
0.008232892
0.0084915385
0.0087480111
0.0090016505
0.0092508247
0.0094939297
0.0097301509
0.0099588168
0.010179303
0.01039068
0.010592282
0.010784733
0.010968498
0.011143129
0.011308178
0.0056662713
0.0059153329
0.0061669296
0.0064201229
0.0066742959
0.0069290089
0.0071841287
0.0074394252
0.0076945437
0.0079488752
0.0082017284
0.0084521372
0.0086989069
0.0089403405
0.0091753402
0.0094033845
0.0096239541
0.0098367772
0.010041358
0.010237175
0.010424513
0.010603659
0.010774331
0.010935995
0.011087863
0.0047527506
0.0049824638
0.0052163955
0.005453994
0.0056946421
0.0059378164
0.006182938
0.0064297539
0.0066780481
0.0069276032
0.0071777705
0.0074278128
0.0076767456
0.007923474
0.0081668211
0.008405795
0.0086391481
0.0088660596
0.0090864598
0.0093003231
0.0095070927
0.0097056956
0.0098957131
0.010078008
0.01025277
0.010418645
0.01057457
0.010720523
0.010857705
0.0039222212
0.0041281601
0.0043394472
0.0045556266
0.0047762248
0.0050008289
0.0052290836
0.0054605541
0.0056948592
0.0059316081
0.006170511
0.0064110741
0.0066526674
0.0068943833
0.0071353165
0.0073742808
0.0076104009
0.0078429843
0.0080712903
0.0082941936
0.0085114089
0.0087232774
0.0089290266
0.0091273442
0.0093178449
0.0095011242
0.0096775206
0.0098457768
0.010004501
0.010154335
0.010296193
0.010430114
0.010554761
0.0031886636
0.0033692251
0.0035558169
0.0037481361
0.0039459654
0.0041490043
0.0043569146
0.0045693422
0.0047860017
0.0050065814
0.005230674
0.0054579061
0.0056877849
0.0059197007
0.0061529678
0.0063869109
0.0066205744
0.0068529828
0.0070832951
0.0073111064
0.0075356244
0.0077559648
0.0079714299
0.0081820047
0.0083872329
0.0085857208
0.0087770288
0.0089616904
0.0091395839
0.0093098022
0.0094715224
0.0096249729
0.0097711574
0.0099094176
0.010038627
0.010158246
0.0025526425
0.0027071253
0.0028677
0.0030343009
0.0032068566
0.0033852422
0.0035691701
0.0037585059
0.003952942
0.0041521994
0.0043559039
0.0045637617
0.004775393
0.0049903382
0.00520807
0.0054279229
0.0056492522
0.0058714917
0.0060939002
0.0063154865
0.0065356026
0.0067537925
0.0069694434
0.0071815766
0.0073897455
0.0075935682
0.007792565
0.0079860125
0.0081733371
0.0083548052
0.0085303614
0.0086990631
0.0088603729
0.0090144011
0.0091610694
0.0093000429
0.0094300455
0.0095509673
0.0096633364
0.0097674459
0.0018899149
0.0020131733
0.0021423357
0.0022776385
0.0024188251
0.0025659909
0.0027190703
0.0028780292
0.0030428331
0.0032133514
0.0033893117
0.0035706099
0.0037568748
0.0039478388
0.0041430881
0.0043423794
0.0045453035
0.0047513882
0.0049600798
0.0051708719
0.0053832181
0.0055965167
0.0058099767
0.0060229104
0.0062349059
0.0064453415
0.0066534141
0.0068584542
0.0070602092
0.007257978
0.0074510638
0.00763915
0.0078219236
0.0079991458
0.0081701746
0.0083342204
0.0084911366
0.0086408501
0.0087827208
0.008916645
0.0090422403
0.0091601685
0.0092706266
0.0093735667
0.0013701539
0.0014652008
0.0015655084
0.001671185
0.0017822855
0.0018990722
0.0020215057
0.0021498532
0.0022838863
0.0024237111
0.0025691774
0.0027202525
0.0028769475
0.0030391033
0.0032064439
0.0033788794
0.0035559612
0.0037374471
0.0039228923
0.0041120916
0.00430454
0.0044997915
0.0046973098
0.0048966337
0.0050970467
0.0052979085
0.0054985966
0.0056985411
0.0058971357
0.0060935936
0.0062872609
0.0064775932
0.0066641633
0.006846194
0.0070231713
0.0071949496
0.0073610644
0.0075212212
0.0076751781
0.0078227263
0.0079641004
0.0080994408
0.0082285534
0.0083517872
0.0084688023
0.0085797429
0.0086842298
0.0087821936
0.0088776024
0.0008436179
0.00090643653
0.00097333303
0.0010445837
0.0011202439
0.0012004327
0.0012853066
0.0013747936
0.0014692597
0.0015688277
0.001673589
0.0017837916
0.0018993588
0.0020205661
0.0021472371
0.0022794462
0.0024169557
0.0025598323
0.0027081444
0.002861715
0.0030202395
0.0031836877
0.0033515264
0.0035235871
0.003699426
0.0038789122
0.0040615669
0.0042469794
0.004434674
0.0046241239
0.0048147584
0.0050060709
0.005197665
0.0053889017
0.0055793249
0.0057684169
0.0059557729
0.0061409929
0.0063238224
0.0065039223
0.0066811143
0.0068556304
0.0070271023
0.0071955319
0.0073605403
0.0075216949
0.0076784138
0.0078301119
0.0079753977
0.0081133997
0.0082420864
0.0083601753
0.0084656759
0.008556821
0.0086310111
0.0004016833
0.00043386788
0.00046828127
0.00050504742
0.00054434688
0.00058645795
0.00063153746
0.00067977182
0.00073132812
0.00078630822
0.00084502158
0.00090756556
0.00097426636
0.0010451139
0.0011201917
0.0011996875
0.0012835361
0.0013720569
0.0014653754
0.0015636678
0.0016671993
0.0017758276
0.0018897238
0.0020089245
0.002133467
0.0022629483
0.0023975208
0.002537321
0.0026821302
0.0028316586
0.002985976
0.0031443687
0.0033066903
0.0034724728
0.0036417258
0.0038138705
0.0039884778
0.0041649916
0.0043430086
0.0045219532
0.0047013534
0.0048805556
0.0050590057
0.0052359804
0.005411023
0.0055830858
0.0057517343
0.0059158378
0.0060748315
0.0062274103
0.0063734437
0.0065114374
0.0066411332
0.0067613726
0.0068717907
0.0069716868
0.0070611639
0.0071395215
0.0072072901
0.0072640521
0.0073107241
0.0073473667
0.0073745809
0.0073931002
1.5930613e-05
1.6827929e-05
1.8364925e-05
1.991602e-05
2.1603888e-05
2.3435373e-05
2.5415066e-05
2.7538219e-05
2.9782053e-05
3.2133539e-05
3.4799714e-05
3.8035331e-05
4.1628626e-05
4.53274e-05
4.9092233e-05
5.2920749e-05
5.7108407e-05
6.2182608e-05
6.7573391e-05
7.3275684e-05
7.9386179e-05
8.5972718e-05
9.3218434e-05
0.00010105499
0.00010954556
0.00011871287
0.00012864133
0.00013939842
0.0001510212
0.000163609
0.00017721087
0.00019185431
0.00020765638
0.00022471256
0.00024318788
0.0002630106
0.00028431438
0.00030737908
0.00033222025
0.00035886101
0.00038751031
0.00041836342
0.00045149631
0.00048702261
0.0005251032
0.00056590496
0.00060959215
0.00065627508
0.00070613898
0.00075932685
0.00081601711
0.00087648869
0.000940813
0.0010092315
0.0010819057
0.0011588303
0.0012401565
0.0013261948
0.0014169895
0.0015125375
0.0016131319
0.0017188172
0.0018297121
0.0019455137
0.0020664653
0.0021926508
0.0023238666
0.0024600777
0.0026010122
0.0027467095
0.0028967893
0.0030512246
0.0032095294
0.0033714619
0.0035365656
0.0037045007
0.0038747547
0.0040469015
0.0042204692
0.0043948324
0.0045697049
0.0047442801
0.0049183311
0.0050908443
0.0052618289
0.0054300837
0.0055960185
0.005758456
0.005918082
0.0060736026
0.0062265407
0.006375462
0.006522183
0.0066655879
0.0068075627
0.0069475078
0.0070876397
0.0072273765
0.0073691452
0.0075126433
0.0076603608
0.007812067
0.007968296
0.0081298209
1.6530378e-05
1.7480489e-05
1.9074494e-05
2.0685369e-05
2.243836e-05
2.4340518e-05
2.6396681e-05
2.8602362e-05
3.0934522e-05
3.3380156e-05
3.6150413e-05
3.950858e-05
4.3235099e-05
4.7074664e-05
5.09863e-05
5.496232e-05
5.93116e-05
6.4596031e-05
7.0200169e-05
7.6126088e-05
8.2471013e-05
8.9249198e-05
9.6763852e-05
0.00010493189
0.00011375685
0.00012325715
0.00013352283
0.00014470916
0.00015670629
0.0001697902
0.00018399038
0.00019917319
0.00021572211
0.00023342979
0.00025265158
0.00027324266
0.0002954748
0.00031975461
0.00034588143
0.00037355945
0.00040307306
0.0004349089
0.0004692676
0.0005062306
0.00054593105
0.00058844223
0.0006340002
0.00068261923
0.00073452752
0.000789892
0.00084869254
0.00091146498
0.00097799611
0.0010487793
0.0011241782
0.0012040143
0.0012884707
0.0013779432
0.0014725019
0.0015718036
0.0016761467
0.001785782
0.0019010463
0.0020211084
0.002146242
0.002277139
0.0024133385
0.0025546256
0.002700602
0.0028516296
0.0030068742
0.0031669478
0.003331143
0.0034993717
0.0036707979
0.0038451875
0.0040220909
0.0042009547
0.0043813482
0.0045622223
0.0047436428
0.0049243143
0.0051044044
0.005282186
0.0054580221
0.0056298203
0.0057981436
0.005960497
0.0061172397
0.0062651756
0.0064049876
0.0065330336
0.0066499964
0.006752517
0.006841024
0.0069128918
0.0069689649
0.0070075485
0.0070302633
0.0070367141
0.0070298522
0.0070127997
0.0069885211
0.006963451
1.7726429e-05
1.8782094e-05
2.0489808e-05
2.2219888e-05
2.4102767e-05
2.6145888e-05
2.8354557e-05
3.0724771e-05
3.3233064e-05
3.5866325e-05
3.8845256e-05
4.2448138e-05
4.6440383e-05
5.0559217e-05
5.4760203e-05
5.9029108e-05
6.369558e-05
6.939887e-05
7.5429766e-05
8.1792003e-05
8.85534e-05
9.5759765e-05
0.00010381598
0.00011257656
0.00012207273
0.00013229727
0.00014334154
0.00015538865
0.00016829578
0.00018237139
0.00019762944
0.00021392752
0.0002316935
0.00025067965
0.00027132289
0.00029345082
0.00031728572
0.00034330186
0.00037132204
0.00040101508
0.0004326756
0.00046683821
0.00050370006
0.00054333789
0.00058588734
0.00063143227
0.0006802396
0.00073230779
0.0007878945
0.00084715902
0.00091005431
0.00097718254
0.0010483097
0.0011239203
0.0012044482
0.001289729
0.0013798061
0.0014751622
0.0015759135
0.0016816625
0.0017927354
0.0019093125
0.0020318226
0.0021595341
0.0022925123
0.0024313894
0.002575793
0.0027256384
0.0028804078
0.0030404914
0.0032051567
0.0033747852
0.0035488204
0.00372709
0.00390909
0.0040943233
0.00428263
0.0044732573
0.004666235
0.0048603454
0.0050559191
0.0052516887
0.0054480876
0.0056437203
0.0058391203
0.0060328984
0.0062257098
0.006416336
0.006605044
0.0067906335
0.0069734098
0.0071521399
0.0073263298
0.0074950213
0.0076584789
0.0078158329
0.0079645854
0.008103149
0.0082286992
0.0083384803
0.0084241984
0.0084888465
0.0085298366
0.0085442788
1.8915588e-05
2.0076739e-05
2.1897563e-05
2.3746128e-05
2.5758179e-05
2.794149e-05
3.0301794e-05
3.2835526e-05
3.5518762e-05
3.8338487e-05
4.1526181e-05
4.5373085e-05
4.9629478e-05
5.4024835e-05
5.8512323e-05
6.3072328e-05
6.8055997e-05
7.4174329e-05
8.0631022e-05
8.7426708e-05
9.4599278e-05
0.00010229349
0.00011089794
0.00012023107
0.00013036528
0.00014130518
0.00015312993
0.00016602874
0.00017984113
0.00019489752
0.00021119912
0.00022860179
0.00024757263
0.0002678413
0.00028988201
0.00031352275
0.00033896433
0.00036672139
0.00039661491
0.0004282928
0.00046208143
0.00049856238
0.00053791777
0.00058021271
0.00062558423
0.00067412459
0.00072613569
0.00078162498
0.00084086032
0.0009039851
0.00097094506
0.0010423778
0.0011180415
0.0011984192
0.0012839815
0.0013745803
0.0014701773
0.001571317
0.0016781262
0.0017901922
0.0019078481
0.0020312726
0.002160875
0.0022960426
0.0024366547
0.0025833321
0.0027357467
0.0028938496
0.0030570645
0.0032256647
0.0033990382
0.0035772953
0.0037600343
0.0039468675
0.0041374199
0.0043309851
0.0045273659
0.0047257144
0.0049259277
0.0051269948
0.0053287629
0.0055303209
0.0057313418
0.0059311508
0.0061291479
0.0063248879
0.006517713
0.0067078254
0.0068939214
0.0070763551
0.0072539712
0.0074275776
0.0075957662
0.0077581156
0.0079131326
0.0080622007
0.008203903
0.0083385861
0.0084658006
0.0085901185
0.0087065629
0.0088129582
0.0089072913
0.0089882214
2.0098717e-05
2.136539e-05
2.3298831e-05
2.5265216e-05
2.7405792e-05
2.9728595e-05
3.2239782e-05
3.493615e-05
3.7793268e-05
4.0798426e-05
4.4195353e-05
4.8285659e-05
5.2804857e-05
5.747402e-05
6.2245065e-05
6.7095e-05
7.2396742e-05
7.8924141e-05
8.5804703e-05
9.3032849e-05
0.00010062415
0.00010886824
0.00011802006
0.00012790592
0.00013864997
0.00015029406
0.00016289698
0.00017663748
0.00019135098
0.00020737568
0.00022470906
0.00024320596
0.00026336948
0.00028491683
0.00030834249
0.00033348998
0.00036054063
0.00039002263
0.00042176322
0.00045540595
0.00049131212
0.00053009512
0.00057192591
0.00061686128
0.00066503586
0.00071655542
0.00077173333
0.00083059056
0.00089342128
0.00096037095
0.0010313735
0.0011070774
0.0011872579
0.0012723829
0.0013629213
0.0014587588
0.0015598096
0.0016666541
0.0017794249
0.0018977083
0.0020218405
0.0021520242
0.0022885963
0.0024311304
0.0025793807
0.0027339629
0.0028945788
0.0030612475
0.0032333925
0.0034112287
0.0035943032
0.0037825331
0.0039756693
0.0041732163
0.0043748844
0.0045799003
0.0047880583
0.0049985326
0.0052110102
0.0054247066
0.0056392311
0.0058539929
0.0060682173
0.0062817423
0.0064936218
0.0067036997
0.0069107468
0.0071153988
0.0073163692
0.0075139641
0.0077067776
0.0078951696
0.0080780743
0.0082555111
0.0084261024
0.008590103
0.008747352
0.0088976594
0.009040857
0.0091761733
0.0093037366
0.0094235223
0.0095351169
2.1276715e-05
2.2649042e-05
2.4694715e-05
2.6778331e-05
2.904685e-05
3.1508539e-05
3.4169978e-05
3.702823e-05
4.0058289e-05
4.3247981e-05
4.6855012e-05
5.1188158e-05
5.5969036e-05
6.090937e-05
6.5960873e-05
7.110007e-05
7.6722249e-05
8.3650833e-05
9.0951234e-05
9.8611628e-05
0.00010664887
0.00011548307
0.00012516873
0.00013559522
0.00014693647
0.00015927876
0.00017265362
0.00018722591
0.00020283069
0.00021981059
0.00023816389
0.00025775085
0.00027910155
0.00030192007
0.00032671932
0.00035336208
0.00038201853
0.00041321594
0.00044678362
0.00048237561
0.00052038968
0.00056146324
0.00060575545
0.00065331322
0.0007042746
0.00075874546
0.00081706702
0.0008792693
0.00094565018
0.0010163787
0.0010913969
0.0011713351
0.00125599
0.0013458311
0.0014413252
0.0015423708
0.0016488335
0.001761298
0.0018799078
0.0020042561
0.0021346359
0.0022712808
0.0024144277
0.0025637917
0.0027190287
0.002880713
0.003048589
0.0032226867
0.0034024286
0.0035879488
0.0037788936
0.0039750469
0.0041762627
0.0043820697
0.0045922094
0.0048059343
0.0050229
0.0052423979
0.0054638099
0.0056864176
0.0059094731
0.0061325876
0.0063545295
0.0065751195
0.0067933432
0.0070092958
0.0072214345
0.0074299736
0.0076341659
0.0078347105
0.0080306233
0.0082215818
0.0084074158
0.0085887844
0.008764886
0.0089348601
0.0090980124
0.0092540334
0.0094027909
0.0095429278
0.0096736054
0.0097947594
0.0099069573
2.2450527e-05
2.392873e-05
2.6086352e-05
2.8286737e-05
3.0682695e-05
3.3282764e-05
3.6093925e-05
3.9113416e-05
4.2315592e-05
4.5689062e-05
4.9507484e-05
5.4082959e-05
5.9124588e-05
6.4333591e-05
6.9662309e-05
7.5090195e-05
8.1037521e-05
8.8358218e-05
9.60716e-05
0.00010416451
0.00011268738
0.00012211694
0.00013232615
0.00014329656
0.00015523446
0.00016827108
0.00018240787
0.00019779993
0.00021428543
0.00023221066
0.000251572
0.0002722455
0.0002947806
0.00031885859
0.00034502472
0.00037315851
0.00040341415
0.00043631797
0.00047169517
0.00050922016
0.00054932888
0.00059268023
0.00063941497
0.00068957534
0.00074330586
0.00080072196
0.00086216577
0.00092769468
0.00099760309
0.0010720484
0.0011510045
0.001235101
0.0013241441
0.0014185965
0.0015189417
0.0016251351
0.0017370333
0.0018551927
0.0019797431
0.0021103187
0.0022471595
0.0023905149
0.0025405221
0.0026970133
0.0028595969
0.0030287985
0.0032044253
0.0033865229
0.0035745289
0.0037684678
0.0039680356
0.0041729244
0.0043830046
0.0045978317
0.004817176
0.0050404442
0.0052672603
0.0054971638
0.0057294599
0.0059636167
0.006198624
0.0064342537
0.0066691421
0.006902842
0.0071339287
0.0073625454
0.0075874122
0.0078078914
0.0080225902
0.008232203
0.0084368815
0.0086358899
0.0088283239
0.0090148249
0.0091961492
0.0093721857
0.0095415447
0.0097031955
0.0098576237
0.01000458
0.010142975
0.010271174
2.362112e-05
2.5205529e-05
2.7474906e-05
2.9791748e-05
3.2314717e-05
3.5052751e-05
3.801321e-05
4.1193418e-05
4.4567015e-05
4.8123651e-05
5.2155177e-05
5.6972522e-05
6.2274141e-05
6.7749501e-05
7.3352081e-05
7.9067718e-05
8.534815e-05
9.3051165e-05
0.00010116827
0.00010969435
0.00011873583
0.00012873541
0.00013947671
0.00015100972
0.00016355278
0.00017727556
0.00019216251
0.00020836497
0.0002257215
0.0002445826
0.00026494369
0.00028669997
0.00031041448
0.00033574602
0.00036327124
0.00039289302
0.00042473937
0.00045933563
0.000496509
0.00053595535
0.00057816071
0.00062379089
0.00067296415
0.00072570646
0.00078216801
0.00084249478
0.00090703629
0.00097586753
0.0010492942
0.0011274679
0.0012103528
0.0012985835
0.0013919894
0.0014909965
0.001596052
0.0017071463
0.0018241745
0.0019477117
0.0020778627
0.0022143045
0.0023572582
0.0025069714
0.0026634634
0.0028266141
0.0029959832
0.0031720475
0.0033546401
0.0035438258
0.0037391269
0.0039405524
0.0041478488
0.0043605783
0.0045785344
0.0048012058
0.0050282199
0.0052589876
0.0054930131
0.0057300133
0.005969293
0.0062106135
0.0064529334
0.0066961267
0.0069389686
0.0071811137
0.0074209362
0.007658083
0.0078917315
0.0081214479
0.0083452679
0.0085624327
0.0087733696
0.0089783479
0.0091763445
0.0093665045
0.0095494718
0.0097270296
0.0098992898
0.010064575
0.010222177
0.010372383
0.01051583
0.010651388
2.4789497e-05
2.6480552e-05
2.8861577e-05
3.1294689e-05
3.394431e-05
3.6820013e-05
3.9929482e-05
4.3270016e-05
4.6814471e-05
5.0553815e-05
5.4800577e-05
5.9859394e-05
6.5420372e-05
7.116001e-05
7.7033049e-05
8.3034853e-05
8.9660272e-05
9.773536e-05
0.00010624574
0.00011520593
0.00012476844
0.00013531322
0.00014660653
0.00015873183
0.00017189675
0.00018629461
0.00020191887
0.00021892141
0.00023714063
0.00025693034
0.00027828982
0.00030112601
0.00032600985
0.00035258889
0.00038146889
0.00041258089
0.00044601499
0.0004822923
0.00052124729
0.00056260012
0.00060688281
0.00065476925
0.00070636967
0.00076169289
0.00082088202
0.00088409368
0.00095169501
0.0010237858
0.0011006832
0.0011825449
0.0012693525
0.0013617245
0.0014595397
0.0015631931
0.0016730846
0.0017892057
0.0019114255
0.0020403439
0.0021760909
0.002318375
0.0024674272
0.0026235513
0.0027867196
0.0029568408
0.0031333688
0.0033166882
0.0035066111
0.0037031583
0.0039059018
0.0041148596
0.0043299621
0.004550826
0.0047772529
0.0050087405
0.0052448285
0.0054849064
0.0057282195
0.0059744234
0.0062226392
0.0064727486
0.0067237999
0.0069757513
0.0072274969
0.007478767
0.0077282301
0.0079751637
0.0082185572
0.0084581941
0.0086928303
0.0089210699
0.0091420028
0.0093557134
0.0095622505
0.0097606274
0.0099498329
0.010130882
0.010305456
0.010473608
0.010634224
0.010786127
0.010929994
2.5956704e-05
2.7754952e-05
3.024761e-05
3.2796932e-05
3.5572902e-05
3.8586142e-05
4.1844481e-05
4.5345085e-05
4.9059952e-05
5.2981719e-05
5.7446245e-05
6.2746224e-05
6.8566007e-05
7.4568116e-05
8.070828e-05
8.6993641e-05
9.3980433e-05
0.0001024176
0.00011131054
0.00012070354
0.00013076083
0.00014183795
0.0001537074
0.00016645745
0.0001802621
0.00019532543
0.00021167942
0.00022947369
0.00024854848
0.00026926202
0.00029161974
0.00031553382
0.00034157868
0.00036940159
0.00039962906
0.00043222461
0.00046725233
0.00050520474
0.00054592931
0.00058918934
0.00063555847
0.00068569072
0.00073968752
0.00079758887
0.00085952071
0.00092563073
0.00099628794
0.0010715919
0.0011518932
0.0012373502
0.0013279546
0.0014243098
0.0015263486
0.0016344951
0.0017490927
0.0018701605
0.0019975388
0.0021317435
0.0022729026
0.0024207637
0.0025755161
0.002737487
0.0029066934
0.0030831987
0.0032664209
0.0034566349
0.0036536463
0.003857336
0.0040671447
0.0042829093
0.0045046247
0.0047320538
0.0049651392
0.0052035026
0.0054466618
0.0056941009
0.0059449802
0.0061988914
0.0064546851
0.0067120599
0.0069700374
0.00722863
0.0074869921
0.0077448481
0.0080010611
0.0082548877
0.0085052848
0.0087517265
0.0089931764
0.0092288049
0.0094576858
0.0096789732
0.0098923603
0.010097338
0.010292966
0.010479118
0.010656581
0.010826276
0.010988667
0.011142958
2.7123824e-05
2.9029928e-05
3.1634305e-05
3.4299904e-05
3.7202004e-05
4.0352839e-05
4.3760058e-05
4.7420586e-05
5.130553e-05
5.5409629e-05
6.0094852e-05
6.5635768e-05
7.1713829e-05
7.797688e-05
8.438113e-05
9.0945775e-05
9.8315526e-05
0.0001071058
0.00011637204
0.00012618908
0.00013670987
0.00014831199
0.00016077401
0.0001741782
0.00018863734
0.00020436524
0.00022144383
0.00024002322
0.0002599517
0.00028158596
0.00030494034
0.00032993568
0.0003571297
0.0003861864
0.00041777573
0.00045185509
0.00048847187
0.00052808883
0.0005705603
0.00061571086
0.00066418387
0.00071658921
0.00077295963
0.00083337637
0.00089800705
0.00096699935
0.0010407368
0.0011193011
0.0012030332
0.0012921395
0.0013865926
0.0014869819
0.0015932519
0.0017058305
0.0018250815
0.0019510175
0.0020835333
0.0022231434
0.0023699056
0.0025235804
0.0026843346
0.002852382
0.0030276354
0.0032103133
0.0033999542
0.0035968322
0.0038008606
0.0040119514
0.0042295374
0.0044531689
0.0046825687
0.0049173969
0.0051576965
0.005403299
0.0056537931
0.0059087798
0.00616745
0.0064295264
0.006693801
0.006959661
0.0072258095
0.0074919867
0.0077575579
0.0080224967
0.0082859901
0.008547242
0.0088051813
0.0090592649
0.0093083489
0.0095513351
0.0097874687
0.01001621
0.010237279
0.010449753
0.010652297
0.010844706
0.011027539
0.011201337
0.011366686
2.8291974e-05
3.0306708e-05
3.3023005e-05
3.5805015e-05
3.8833157e-05
4.2121878e-05
4.5678118e-05
4.9498519e-05
5.3553335e-05
5.783989e-05
6.2749186e-05
6.8530844e-05
7.4866648e-05
8.1389376e-05
8.8055291e-05
9.4892692e-05
0.00010267217
0.00011180827
0.00012144016
0.00013166705
0.00014262651
0.00015475636
0.00016781179
0.00018188238
0.00019701366
0.00021341572
0.00023121492
0.00025057341
0.00027135663
0.0002939107
0.00031825702
0.00034434037
0.00037268616
0.00040296742
0.00043590968
0.0004714753
0.00050969151
0.00055098595
0.00059520988
0.00064223133
0.00069277852
0.00074746685
0.00080625653
0.00086917686
0.00093645041
0.0010082534
0.0010849946
0.0011667994
0.0012539088
0.001346567
0.0014447898
0.0015491247
0.0016595886
0.0017765515
0.0019003426
0.0020310201
0.0021683901
0.0023130057
0.0024650062
0.0026241533
0.0027906501
0.0029647249
0.0031461042
0.0033348904
0.0035306241
0.0037335401
0.0039435965
0.00416082
0.0043849178
0.0046154964
0.0048520915
0.005093955
0.0053408873
0.0055928267
0.0058494923
0.0061106246
0.0063753997
0.0066436494
0.006914475
0.0071873723
0.007460813
0.0077338653
0.0080055252
0.0082757513
0.0085442109
0.0088105005
0.0090736406
0.0093329931
0.0095876201
0.0098364776
0.010078423
0.010312475
0.010538679
0.010756909
0.01096567
0.011163576
0.011350468
0.011527054
0.011694551
2.9462317e-05
3.1586564e-05
3.4415127e-05
3.7313679e-05
4.0467952e-05
4.3895057e-05
4.7600585e-05
5.1580923e-05
5.5805587e-05
6.0274953e-05
6.5412211e-05
7.1434394e-05
7.8027394e-05
8.480873e-05
9.1734862e-05
9.8836293e-05
0.00010705532
0.00011653274
0.00012652278
0.00013714601
0.00014852705
0.00016119003
0.00017483223
0.00018956638
0.00020538569
0.00022247724
0.0002409961
0.00026112926
0.00028276988
0.00030624831
0.00033158784
0.00035875296
0.00038825095
0.00041976964
0.00045406519
0.00049109928
0.00053091234
0.00057388193
0.00061985358
0.00066874805
0.00072133788
0.00077827253
0.00083951518
0.00090500613
0.00097495596
0.0010495928
0.0011293184
0.0012143577
0.0013049146
0.0014011393
0.0015031158
0.0016113537
0.001725916
0.001847261
0.0019756476
0.0021111752
0.002253666
0.0024034509
0.0025606813
0.0027252141
0.0028972223
0.0030770274
0.0032644501
0.0034595474
0.0036618023
0.0038713345
0.0040879814
0.00431161
0.0045420581
0.0047792331
0.0050229424
0.005272305
0.0055266436
0.0057856273
0.0060489974
0.0063167321
0.0065880965
0.0068627243
0.0071397427
0.0074190341
0.0076995927
0.0079802675
0.0082593789
0.0085362494
0.0088105144
0.0090820766
0.0093503169
0.0096146871
0.0098742846
0.010128182
0.010375427
0.010614793
0.0108457
0.011068142
0.011281687
0.011485396
0.01167838
0.011860162
3.0636059e-05
3.2870803e-05
3.5812156e-05
3.882739e-05
4.2107988e-05
4.5674164e-05
4.9529385e-05
5.3669878e-05
5.8064588e-05
6.2717507e-05
6.8086834e-05
7.4349498e-05
8.1199136e-05
8.8238124e-05
9.5424215e-05
0.0001027798
0.00011146726
0.00012128534
0.00013162576
0.00014263389
0.00015443261
0.00016762715
0.0001818497
0.00019723279
0.0002137477
0.00023154419
0.00025079075
0.00027170276
0.00029419644
0.00031860436
0.00034494688
0.00037319339
0.00040383399
0.00043659255
0.00047227678
0.0005107847
0.00055218097
0.00059681889
0.00064453986
0.0006953454
0.000750005
0.00080912324
0.0008727338
0.00094077806
0.0010133895
0.0010908221
0.0011734717
0.0012616033
0.0013555314
0.0014553554
0.0015611231
0.0016733267
0.001791945
0.0019174738
0.0020502406
0.0021903082
0.0023376408
0.0024925857
0.0026550529
0.0028249219
0.0030023987
0.0031876803
0.0033805854
0.0035812665
0.003789292
0.0040047983
0.0042276474
0.0044574572
0.0046938541
0.0049367438
0.0051863022
0.0054420294
0.0057031009
0.005968701
0.0062381606
0.0065114971
0.0067884062
0.0070686948
0.007351189
0.0076354436
0.0079209086
0.0082070341
0.0084921003
0.0087746576
0.0090538417
0.0093296479
0.0096017764
0.0098698
0.01013298
0.010390533
0.010641526
0.01088479
0.011119621
0.011345488
0.011561792
0.011767932
0.011963534
3.1814442e-05
3.4160762e-05
3.7215618e-05
4.0347692e-05
4.3754981e-05
4.7461022e-05
5.1466483e-05
5.576752e-05
6.0332657e-05
6.5170416e-05
7.077567e-05
7.7279339e-05
8.4385083e-05
9.1680822e-05
9.912781e-05
0.00010672818
0.00011590833
0.00012606967
0.00013675446
0.00014813651
0.00016037275
0.00017409019
0.00018888123
0.00020488852
0.00022210232
0.00024061673
0.00026060061
0.00028229994
0.0003056503
0.00033098759
0.00035833975
0.00038768265
0.00041947292
0.00045345758
0.00049053629
0.00053052803
0.0005734992
0.00061979112
0.00066924139
0.00072196583
0.0007787614
0.00084011257
0.00090607075
0.00097667581
0.0010519861
0.001132239
0.0012178801
0.0013091438
0.0014063723
0.0015097078
0.0016192279
0.0017354274
0.0018582501
0.0019880846
0.0021253097
0.0022699973
0.0024220286
0.0025819196
0.0027496056
0.0029247662
0.0031077134
0.0032987327
0.0034974913
0.0037040177
0.0039178888
0.0041392768
0.0043682381
0.0046043933
0.0048471818
0.0050961558
0.0053514612
0.0056130384
0.0058805148
0.0061530647
0.0064294495
0.0067090319
0.0069914208
0.0072769827
0.0075650519
0.007854863
0.0081454943
0.0084367263
0.0087274739
0.0090160682
0.0093007431
0.009580982
0.0098568188
0.010128216
0.010394478
0.010654835
0.010908497
0.011154367
0.01139177
0.011620366
0.011839765
0.012049277
3.2998753e-05
3.5457815e-05
3.8627108e-05
4.1875843e-05
4.5410933e-05
4.9257556e-05
5.3413917e-05
5.7876049e-05
6.2612325e-05
6.7636779e-05
7.3481646e-05
8.0227509e-05
8.7588541e-05
9.5140186e-05
0.00010284985
0.0001106907
0.00012037306
0.0001308873
0.00014191687
0.00015366465
0.00016637806
0.00018061263
0.00019594701
0.00021254871
0.00023045719
0.00024969832
0.00027043152
0.0002929255
0.00031714496
0.00034341503
0.00037177753
0.00040222096
0.00043517778
0.00047039632
0.000508864
0.00055036507
0.00059492869
0.00064286219
0.00069402148
0.00074863479
0.00080755655
0.00087117149
0.00093945274
0.0010125183
0.0010904879
0.0011735577
0.0012621696
0.0013565993
0.0014571708
0.0015639649
0.0016770851
0.0017971221
0.0019240075
0.0020580419
0.0021995863
0.0023488326
0.002505615
0.0026703412
0.0028430909
0.0030234409
0.0032114484
0.0034075997
0.0036118126
0.0038239697
0.0040434547
0.0042703412
0.004504792
0.0047465671
0.0049952228
0.0052501034
0.0055109797
0.0057776599
0.0060500784
0.0063279643
0.0066103457
0.0068961508
0.0071841691
0.0074743399
0.007766508
0.0080604506
0.0083551213
0.0086500111
0.008944504
0.0092375035
0.0095269647
0.0098114015
0.010090357
0.010364104
0.010632521
0.010895019
0.0111506
0.011398055
0.01163684
0.011866593
0.012086851
3.419033e-05
3.6763377e-05
4.0048307e-05
4.3412989e-05
4.7078078e-05
5.1065691e-05
5.537379e-05
5.9997774e-05
6.4906082e-05
7.0119758e-05
7.6207798e-05
8.3197315e-05
9.0812767e-05
9.8619647e-05
0.0001065942
0.00011467929
0.00012485462
0.00013573605
0.00014712484
0.00015924245
0.00017246354
0.0001872192
0.00020305979
0.00022023219
0.00023882471
0.00025879659
0.00028029263
0.00030359157
0.0003286848
0.00035590001
0.00038528685
0.00041682365
0.00045095093
0.00048743341
0.00052729211
0.00057028953
0.00061645804
0.00066605511
0.00071894262
0.00077545071
0.00083648826
0.00090241356
0.0009730971
0.0010486221
0.0011292536
0.0012151957
0.0013067688
0.0014042635
0.0015081465
0.0016184943
0.0017352487
0.0018591135
0.001990128
0.0021284453
0.0022743181
0.0024279671
0.0025893467
0.0027588836
0.0029367178
0.003122506
0.0033159956
0.0035173807
0.0037268912
0.0039446713
0.0041699799
0.0044026218
0.0046427198
0.0048901027
0.0051444316
0.0054051124
0.0056718769
0.0059443513
0.0062222378
0.0065052525
0.0067928099
0.0070842399
0.0073782586
0.0076740941
0.007971158
0.008269444
0.0085683331
0.0088671963
0.0091653541
0.0094621435
0.0097558549
0.010044581
0.010327181
0.010603562
0.010873764
0.011137785
0.011395001
0.011644056
0.011884212
0.012115066
3.5390543e-05
3.8078902e-05
4.148096e-05
4.4960652e-05
4.8758143e-05
5.2887396e-05
5.7348272e-05
6.2135043e-05
6.7216446e-05
7.2622702e-05
7.8957491e-05
8.6192123e-05
9.4060989e-05
0.00010212254
0.00011036453
0.00011870324
0.00012935409
0.00014061339
0.0001523899
0.0001649013
0.00017863697
0.00019390415
0.00021022792
0.00022796296
0.00024722039
0.00026792081
0.00029018862
0.00031431457
0.00034028717
0.00036844672
0.00039887458
0.00043151323
0.00046681093
0.00050458046
0.00054585814
0.00059034369
0.00063808473
0.00068934101
0.00074398078
0.00080238976
0.00086551564
0.00093370758
0.0010067904
0.0010847819
0.0011679862
0.0012567598
0.0013514133
0.0014520103
0.0015590665
0.0016728991
0.0017933096
0.0019208615
0.0020558291
0.0021983952
0.002348692
0.0025068555
0.002672718
0.0028467132
0.0030291832