/*--------------------------------*- C++ -*----------------------------------*\
| =========                 |                                                 |
| \\      /  F ield         | OpenFOAM: The Open Source CFD Toolbox           |
|  \\    /   O peration     | Version:  2506                                  |
|   \\  /    A nd           | Website:  www.openfoam.com                      |
|    \\/     M anipulation  |                                                 |
\*---------------------------------------------------------------------------*/
FoamFile
{
    version     2.0;
    format      ascii;
    arch        "LSB;label=32;scalar=64";
    class       volVectorField;
    location    "0.0285";
    object      U;
}
// * * * * * * * * * * * * * * * * * * * * * * * * * * * * * * * * * * * * * //

dimensions      [0 1 -1 0 0 0 0];

internalField   nonuniform List<vector> 
13761
(
(29.837601 29.26264 0)
(28.999162 29.982083 1.9642277e-19)
(28.200989 30.672844 -4.3093931e-19)
(33.801211 23.84433 2.2140523e-19)
(32.665498 24.615073 2.4425295e-19)
(31.581084 25.373029 -2.0184147e-19)
(30.547928 26.116565 -2.2214673e-19)
(29.566301 26.845129 1.6287992e-19)
(28.63338 27.554381 0)
(27.74501 28.237755 0)
(26.898556 28.893963 5.3847752e-20)
(26.095309 29.52614 5.9096136e-20)
(36.772665 19.949854 8.1844883e-20)
(35.438398 20.693659 -9.0576435e-20)
(34.154218 21.436782 1.0024012e-19)
(32.921564 22.176195 -1.1061005e-19)
(31.739944 22.907773 -1.2209793e-19)
(30.608752 23.628678 -3.2399981e-23)
(29.527247 24.335979 1.4809911e-19)
(28.493648 25.025241 -8.1494758e-20)
(27.508239 25.694943 1.7902372e-19)
(26.571846 26.344334 -1.9652848e-19)
(25.681932 26.970844 0)
(24.835278 27.571559 1.1818348e-19)
(24.031321 28.147102 -2.5889577e-19)
(41.925889 15.705247 7.0910301e-23)
(40.399922 16.391628 0)
(38.904322 17.082893 -8.8409306e-23)
(37.44395 17.776816 -8.4780117e-23)
(36.026337 18.473265 2.4535614e-19)
(34.655166 19.170832 -9.0593803e-20)
(33.333287 19.867196 6.273287e-23)
(32.061707 20.560312 -5.526738e-20)
(30.839327 21.24627 0)
(29.663471 21.919568 0)
(28.534706 22.578181 1.481264e-19)
(27.45515 23.222971 -8.1483171e-20)
(26.424995 23.852061 -1.7905572e-19)
(25.440909 24.458467 1.9657534e-19)
(24.502302 25.040305 0)
(23.613404 25.602335 5.9079033e-20)
(22.773909 26.14804 2.5903701e-19)
(46.267421 12.463925 2.3107103e-19)
(44.645448 13.06482 -1.7229444e-19)
(43.034688 13.676559 9.6161435e-20)
(41.443315 14.29712 5.9314739e-23)
(39.876592 14.92537 0)
(38.343296 15.560062 0)
(36.848454 16.200825 0)
(35.397032 16.845412 -8.1703704e-20)
(33.990725 17.492116 -9.0595234e-20)
(32.632665 18.140327 1.0007993e-19)
(31.320567 18.785086 4.3480334e-23)
(30.052185 19.420321 -6.1034516e-20)
(28.829018 20.044606 2.0179915e-19)
(27.653792 20.65829 -1.4808368e-19)
(26.526104 21.257831 0)
(25.445009 21.838413 1.7908528e-19)
(24.411803 22.399341 -2.4580048e-19)
(23.430757 22.944724 5.3963435e-20)
(22.502367 23.474511 0)
(21.623021 23.985435 0)
(20.789433 24.474608 2.8373495e-19)
(50.872192 9.7315419 0)
(49.200205 10.240145 0)
(47.528375 10.763082 -6.8633036e-20)
(45.856467 11.298841 5.2047309e-23)
(44.193798 11.845949 0)
(42.544485 12.40337 -9.6102649e-20)
(40.919371 12.970195 -2.1431143e-19)
(39.324116 13.54651 5.9589156e-20)
(37.765311 14.130664 1.3266393e-19)
(36.24453 14.720206 0)
(34.765589 15.313798 0)
(33.328909 15.91022 1.80915e-19)
(31.934351 16.504799 -5.0046002e-20)
(30.579947 17.092621 -1.1053033e-19)
(29.268835 17.672398 6.0925477e-20)
(28.002466 18.242222 6.7245252e-20)
(26.782444 18.799684 0)
(25.611274 19.344116 -4.0749442e-20)
(24.491043 19.875336 0)
(23.422216 20.39146 9.8334969e-20)
(22.404568 20.890784 -5.3925933e-20)
(21.438788 21.373702 0)
(20.525692 21.842558 0)
(19.663641 22.295486 -3.5498928e-20)
(18.848224 22.729415 3.1059559e-19)
(55.690185 7.3783157 3.7886466e-20)
(54.023053 7.7819302 4.2811045e-20)
(52.338502 8.2016112 9.6503807e-20)
(50.644174 8.6361698 0)
(48.940688 9.0855255 0)
(47.237722 9.5476969 1.3705529e-19)
(45.537201 10.022207 -1.5359898e-19)
(43.850819 10.507556 -8.5935203e-20)
(42.182408 11.004317 9.5949861e-20)
(40.541888 11.512113 0)
(38.929387 12.02925 0)
(37.349439 12.553294 -6.6263298e-20)
(35.802867 13.083396 7.3624557e-20)
(34.291636 13.617038 -8.1656237e-20)
(32.815151 14.15064 2.6434413e-24)
(31.376648 14.682079 1.000139e-19)
(29.978194 15.209459 -2.2099752e-19)
(28.622379 15.729242 6.0988977e-20)
(27.311372 16.239986 -1.3443995e-19)
(26.051428 16.744182 0)
(24.843169 17.240081 2.0367891e-19)
(23.684695 17.721909 4.5123042e-23)
(22.575875 18.187676 -2.2124437e-19)
(21.520928 18.642237 0)
(20.521504 19.088084 -2.3671223e-19)
(19.573879 19.52018 2.9175824e-19)
(18.673922 19.931657 3.5479842e-20)
(17.821036 20.324331 0)
(17.016123 20.703932 -3.6104017e-19)
(60.434415 5.4592622 0)
(58.807438 5.7795023 -1.4729227e-19)
(57.156881 6.1137355 3.3368691e-20)
(55.47984 6.4627893 0)
(53.784617 6.8245537 -1.2806801e-19)
(52.071121 7.1992983 -1.4445484e-19)
(50.349764 7.5868008 5.4273747e-20)
(48.622294 7.9871332 6.1031632e-20)
(46.898338 8.3987691 0)
(45.180593 8.8216712 7.6693269e-20)
(43.479577 9.2559078 1.2874019e-19)
(41.795608 9.7013963 -4.7915356e-20)
(40.134985 10.155867 0)
(38.496861 10.618163 0)
(36.887526 11.087028 6.625854e-20)
(35.305221 11.559376 -1.4707646e-19)
(33.754647 12.032577 -4.0803248e-20)
(32.239427 12.506752 0)
(30.764185 12.979613 4.9977277e-20)
(29.329116 13.446537 -3.1509485e-23)
(27.938952 13.906882 6.0952009e-20)
(26.599102 14.363488 -1.3447493e-19)
(25.310977 14.814071 2.5913256e-19)
(24.070758 15.251859 -1.6291432e-19)
(22.880423 15.676082 -1.7914705e-19)
(21.744644 16.091886 1.7212858e-19)
(20.665112 16.500645 1.8892645e-19)
(19.636875 16.895553 -4.4390008e-19)
(18.657022 17.271733 5.1887045e-19)
(17.727957 17.632571 -5.6814493e-19)
(16.852551 17.984844 3.1083403e-19)
(16.028656 18.326889 -2.1255184e-20)
(15.249511 18.652017 0)
(65.066592 3.9743981 -3.5028166e-20)
(63.524961 4.2094862 3.9918675e-20)
(61.945507 4.4562245 9.1030178e-20)
(60.335445 4.7133574 2.5904066e-20)
(58.692845 4.981945 2.0580092e-19)
(57.026503 5.2612669 -3.3353675e-20)
(55.334787 5.5518157 3.7703895e-20)
(53.62759 5.853183 1.2791539e-19)
(51.904813 6.1666596 5.8852491e-23)
(50.176695 6.4914646 -2.1668045e-19)
(48.44305 6.8281307 -6.0921994e-20)
(46.713937 7.1755312 0)
(44.989886 7.5348028 0)
(43.278209 7.9040753 -4.2890387e-20)
(41.577482 8.2824984 4.7871193e-20)
(39.895875 8.6693257 5.3450058e-20)
(38.233203 9.0634845 -5.9485056e-20)
(36.594555 9.4615736 0)
(34.980755 9.8621687 0)
(33.401241 10.26618 1.2234071e-19)
(31.856909 10.671521 -9.0309927e-20)
(30.351006 11.073978 4.9992757e-20)
(28.885792 11.473016 5.5269065e-20)
(27.468646 11.870777 -1.2189177e-19)
(26.099428 12.26495 -1.6807722e-19)
(24.777372 12.650389 1.4802584e-19)
(23.503802 13.02651 -4.0737992e-20)
(22.284565 13.396991 1.7913368e-19)
(21.120023 13.761759 -1.2296781e-19)
(20.00764 14.115855 2.6982883e-20)
(18.945509 14.456483 8.8823896e-20)
(17.936908 14.786949 -4.8624914e-20)
(16.983389 15.110393 -2.8415881e-19)
(16.082671 15.424407 3.1095841e-19)
(15.229976 15.723223 -2.9756982e-19)
(14.42221 16.006658 -1.1637608e-20)
(69.400568 2.733868 1.3972424e-19)
(67.962995 2.8981266 -2.667168e-20)
(66.486536 3.0708957 1.5282183e-20)
(64.96553 3.2538704 -1.0481487e-19)
(63.409891 3.4468639 1.1962365e-19)
(61.816747 3.6512716 -9.0830408e-20)
(60.19324 3.866016 3.5368607e-23)
(58.538894 4.0919728 -1.4673093e-19)
(56.861495 4.3285559 6.6567255e-20)
(55.160467 4.5765065 0)
(53.444171 4.8348033 8.5158306e-20)
(51.711782 5.1038852 4.803888e-20)
(49.972463 5.3835223 1.3526523e-19)
(48.225559 5.6743872 -6.0839648e-20)
(46.479947 5.9751294 3.4131613e-20)
(44.733787 6.2849636 -7.656058e-20)
(42.995863 6.6023228 4.28549e-20)
(41.267052 6.9281429 -9.57149e-20)
(39.55569 7.2604505 1.6017634e-19)
(37.860209 7.5966359 -1.1894766e-19)
(36.189154 7.9357115 9.9228872e-20)
(34.546052 8.2788597 -7.3457842e-20)
(32.93778 8.6242471 0)
(31.36326 8.9688997 0)
(29.829384 9.3122351 9.992798e-20)
(28.339242 9.6550516 -5.5200907e-20)
(26.896989 9.9956319 6.0965512e-20)
(25.500894 10.330611 1.3300673e-23)
(24.155298 10.659511 3.700744e-20)
(22.862905 10.98381 -6.1096719e-20)
(21.625934 11.30296 6.7187305e-20)
(20.4416 11.613815 -7.3784037e-20)
(19.310214 11.914847 2.7002334e-20)
(18.232475 12.207289 0)
(17.209328 12.491887 1.4600131e-19)
(16.237853 12.766353 -1.4210199e-19)
(15.315855 13.028249 -1.9445615e-20)
(14.442573 13.277825 -2.1254443e-20)
(13.618634 13.518137 1.1615973e-20)
(12.842117 13.749141 0)
(74.650369 1.7023897 -1.3256025e-20)
(73.39115 1.8111966 -1.2233266e-19)
(72.086298 1.9267263 1.4085229e-19)
(70.733088 2.052221 8.0978394e-20)
(69.33757 2.1829852 1.1637414e-20)
(67.896931 2.3215959 -1.3326454e-19)
(66.418565 2.465868 1.5257086e-19)
(64.896754 2.618534 5.2332254e-20)
(63.340781 2.7786005 -7.962271e-20)
(61.748122 2.9468309 -2.2700815e-20)
(60.125185 3.1209526 -5.1653269e-20)
(58.471764 3.3035349 2.9294277e-20)
(56.793987 3.4922655 -1.3295965e-19)
(55.091084 3.6887991 0)
(53.370455 3.8919295 -8.5051239e-20)
(51.632323 4.1033518 -7.1989139e-20)
(49.885548 4.322381 2.7009752e-20)
(48.129381 4.5493079 -3.040995e-20)
(46.372151 4.7824606 6.8243669e-20)
(44.613998 5.0226807 8.9498944e-24)
(42.865328 5.2698208 0)
(41.125094 5.5230239 0)
(39.401066 5.7800096 -2.6669735e-20)
(37.693709 6.0404197 0)
(36.013388 6.3045913 6.6123464e-20)
(34.360042 6.5714599 0)
(32.739848 6.8389449 -9.2984612e-24)
(31.153408 7.1066624 2.2552502e-20)
(29.608712 7.3746073 4.9964665e-20)
(28.105351 7.6417577 -5.5189432e-20)
(26.647671 7.9064361 3.0475466e-20)
(25.235765 8.1683118 -5.0397999e-20)
(23.875339 8.4277782 1.8510409e-20)
(22.565505 8.684343 2.036286e-20)
(21.308127 8.936215 -4.4802387e-20)
(20.10156 9.1823693 9.8379311e-20)
(18.948358 9.422405 -1.349995e-19)
(17.847336 9.6561594 1.1842402e-19)
(16.798796 9.8820546 0)
(15.800894 10.099444 0)
(14.854702 10.308482 1.9439458e-20)
(13.959894 10.510338 0)
(13.115945 10.705035 1.8598185e-19)
(12.319448 10.891544 -2.0315906e-19)
(79.1905 0.9871905 6.6662555e-20)
(78.121235 1.0515126 -7.7205471e-20)
(77.004426 1.1200257 -9.9331668e-21)
(75.836918 1.1927169 -1.4552992e-23)
(74.622535 1.2674094 1.3235888e-20)
(73.360396 1.3471573 0)
(72.053624 1.4301058 7.0328145e-20)
(70.698839 1.5223443 4.0434688e-20)
(69.300442 1.6159139 -8.124077e-20)
(67.859247 1.7156391 -1.3300529e-20)
(66.378472 1.8186346 7.6203556e-20)
(64.853011 1.9275046 5.2273452e-20)
(63.29056 2.0413825 3.9767879e-20)
(61.691246 2.1622286 0)
(60.05946 2.2875641 3.8659043e-20)
(58.396864 2.4196237 -2.0018001e-23)
(56.708034 2.5569996 8.3006719e-20)
(54.993038 2.7009498 0)
(53.258192 2.851306 -2.1260502e-20)
(51.504867 3.0087783 4.794777e-20)
(49.740598 3.1732642 -5.4012165e-20)
(47.965726 3.3445834 -1.8928075e-23)
(46.188884 3.5224418 0)
(44.411254 3.7074042 3.822114e-20)
(42.640725 3.8973269 2.1391086e-20)
(40.877001 4.0922854 2.3913548e-20)
(39.129199 4.291161 -2.6650883e-20)
(37.399182 4.4947546 2.9711867e-20)
(35.695048 4.701801 -6.610083e-20)
(34.016222 4.9116588 -1.8359789e-20)
(32.370486 5.1227069 -6.1107998e-20)
(30.758661 5.3347128 4.5110901e-20)
(29.187908 5.5467242 -4.995657e-20)
(27.65744 5.7577308 5.5181888e-20)
(26.1737 5.9668887 4.5723778e-20)
(24.736424 6.1736 1.6828517e-20)
(23.351002 6.3769741 -9.2515316e-20)
(22.015813 6.5759155 9.1669981e-20)
(20.73538 6.769602 -1.1195067e-19)
(19.508605 6.9579331 -4.9207623e-20)
(18.339173 7.1407182 6.7495934e-20)
(17.225035 7.3182446 -5.9232861e-20)
(16.16828 7.4903211 6.4898583e-20)
(15.166672 7.6581733 -7.108894e-20)
(14.221289 7.8215788 9.7122185e-21)
(13.328962 7.9816504 8.5077751e-20)
(12.488262 8.1370784 5.8136619e-21)
(11.693996 8.2891266 0)
(10.945071 8.4360493 0)
(84.60639 0.40361018 -4.802732e-20)
(83.812163 0.4372018 -4.8941728e-20)
(82.972923 0.47233696 2.4415066e-20)
(82.092029 0.51382624 0)
(81.169231 0.55429822 5.4995619e-21)
(80.197852 0.59547853 -5.102988e-20)
(79.178018 0.63900958 -6.6572946e-20)
(78.107383 0.67738144 0)
(76.989704 0.7191526 3.9661426e-20)
(75.819602 0.7632754 5.7338738e-21)
(74.60302 0.81097948 8.596828e-24)
(73.338985 0.86337001 -3.8128605e-20)
(72.030041 0.91841001 -7.0253366e-20)
(70.672866 0.97747178 -4.0392781e-20)
(69.270781 1.0431353 5.802305e-21)
(67.827103 1.1088692 -3.323796e-20)
(66.340616 1.1777416 -6.0896325e-20)
(64.811396 1.2490848 -3.4807654e-20)
(63.244398 1.3288716 -3.9732619e-20)
(61.642282 1.411616 1.1328745e-20)
(60.006476 1.4996909 1.7873718e-23)
(58.341206 1.5921129 -2.9263244e-20)
(56.648845 1.6867502 4.9767891e-20)
(54.931464 1.7858206 9.3868171e-21)
(53.193198 1.8873893 -1.0623725e-20)
(51.437567 1.9951581 3.5947656e-20)
(49.670661 2.1051566 1.6565578e-23)
(47.89536 2.2214389 3.0363015e-20)
(46.117624 2.3391933 0)
(44.339907 2.4627356 0)
(42.568721 2.587112 -2.137985e-20)
(40.807153 2.7163844 2.3904791e-20)
(39.063056 2.8468963 -6.6632964e-20)
(37.338006 2.9810229 9.5495489e-24)
(35.639448 3.1161856 3.4364295e-24)
(33.968694 3.2537737 1.8352245e-20)
(32.333808 3.3915116 -2.0360519e-20)
(30.734725 3.5306928 1.1277844e-20)
(29.178628 3.6704626 0)
(27.665278 3.8118281 0)
(26.201765 3.9545254 -2.2847406e-20)
(24.786987 4.0990741 -2.5204561e-20)
(23.426732 4.2449192 3.7003239e-20)
(22.118138 4.3915518 -6.1107297e-20)
(20.865557 4.5381287 5.0378205e-20)
(19.664712 4.6834095 0)
(18.518252 4.8262047 -6.7479759e-21)
(17.42093 4.9645014 0)
(16.374245 5.0969714 -8.114659e-21)
(15.372616 5.2211007 7.5538421e-20)
(14.416714 5.3356287 -9.7097832e-21)
(13.501047 5.4381983 -1.7550664e-19)
(12.625913 5.5288732 -1.1640074e-20)
(11.786455 5.6060997 1.0161643e-19)
(10.982562 5.6698793 3.4681497e-21)
(89.983007 0.062589571 -3.8442554e-20)
(89.530907 0.091008128 -1.3846493e-20)
(89.042487 0.10892251 1.0129399e-20)
(88.519417 0.11602277 -2.3720475e-21)
(87.963821 0.11858178 5.5389672e-21)
(87.371993 0.12397599 6.1506265e-20)
(86.744972 0.13240493 -5.6710528e-20)
(86.069117 0.14517852 -1.3235709e-20)
(85.359034 0.15773327 3.6028943e-20)
(84.596032 0.17155836 -5.0991946e-20)
(83.800094 0.18655176 -3.4914392e-21)
(82.959352 0.20428585 2.8465036e-20)
(82.078736 0.22466942 -4.7252039e-21)
(81.160266 0.24746981 2.747733e-21)
(80.190273 0.2691557 3.5063266e-20)
(79.171188 0.29074934 -3.6983934e-21)
(78.100258 0.31005656 8.5633086e-21)
(76.983264 0.32846628 -5.6972012e-20)
(75.809242 0.34953882 5.7263934e-21)
(74.588822 0.36963643 -3.3032148e-21)
(73.322649 0.39421125 3.0486787e-20)
(72.016115 0.41802686 6.2676381e-24)
(70.658822 0.45008591 -2.0185348e-20)
(69.250371 0.47760276 2.0280162e-20)
(67.811262 0.51186717 9.978111e-21)
(66.323255 0.54115455 -1.521104e-20)
(64.794866 0.57555692 -3.9143169e-20)
(63.223068 0.60957455 2.4825056e-20)
(61.621321 0.64944541 7.5917633e-24)
(59.980212 0.68676613 0)
(58.315967 0.7290458 -7.3176312e-21)
(56.6208 0.76997884 -3.3182111e-20)
(54.903092 0.81229923 -9.4012349e-21)
(53.158944 0.85664754 3.1830837e-20)
(51.400291 0.90206311 -2.3950539e-20)
(49.627043 0.95287589 -6.7498154e-21)
(47.846664 1.002065 -1.517707e-20)
(46.059966 1.0575408 -8.518573e-21)
(44.274001 1.1106088 -4.7747538e-21)
(42.493273 1.170543 -1.06938e-20)
(40.722736 1.2278188 2.3887767e-20)
(38.966735 1.2909248 6.6690688e-21)
(37.228434 1.3518767 -1.4847049e-20)
(35.513797 1.4167065 2.0647294e-20)
(33.824807 1.4802898 4.5914454e-21)
(32.167032 1.5454671 -1.0176327e-20)
(30.540619 1.6099457 5.6390444e-21)
(28.950501 1.6746653 1.2486347e-20)
(27.396011 1.7390848 -2.7593512e-20)
(25.882154 1.8027904 3.4270843e-20)
(24.408 1.866677 -8.3900878e-21)
(22.979046 1.928646 -1.8501512e-20)
(21.593602 1.9903689 -7.6426151e-21)
(20.257584 2.0483697 3.6391197e-20)
(18.968871 2.1052575 8.0032271e-24)
(17.733614 2.1564326 -6.0755479e-20)
(16.549224 2.2050534 5.9231872e-20)
(15.422051 2.2461523 -2.4340121e-20)
(14.348364 2.2834251 3.3329114e-20)
(13.333869 2.3121173 -7.6591034e-20)
(12.371022 2.3369826 -3.7242264e-20)
(11.463813 2.3534845 9.8833144e-20)
(10.605855 2.3675184 -5.0819234e-20)
(9.8042834 2.3742329 -1.7392424e-21)
(96.666137 -8.7210704e-08 2.091436e-30)
(91.665015 -2.6991231e-07 2.2220005e-20)
(94.815816 -1.198102e-07 1.308787e-20)
(94.652133 -7.8252585e-08 1.5415907e-20)
(94.600948 -5.0880375e-09 0)
(94.586971 2.2968571e-08 -2.1360977e-20)
(94.541172 1.5052912e-06 1.2569531e-20)
(94.394914 -1.3147978e-06 0)
(94.025902 3.8215391e-05 0)
(93.366486 -2.6067867e-06 0)
(93.113805 0.0002037152 1.2062744e-20)
(93.785328 0.00016903177 2.8362945e-20)
(94.73684 0.0001973563 0)
(95.348997 -0.00012031988 0)
(95.043143 -0.00094583274 -1.1536224e-20)
(94.216699 -0.0011613552 2.7160409e-20)
(93.643258 -0.0025568752 -1.5983328e-20)
(94.153368 -0.0024501751 1.8787493e-20)
(94.461201 -0.0021734925 -4.8190534e-27)
(94.38801 -0.0035295511 -1.2992583e-20)
(94.252849 -0.011738997 1.5283931e-20)
(94.096935 -0.0086201445 2.940158e-25)
(94.104942 -0.00686286 0)
(94.031819 -0.015775543 2.4839915e-20)
(93.906356 -0.013625874 -1.4599644e-20)
(93.75807 -0.0032513053 0)
(93.633304 0.0053867619 0)
(93.513752 0.0079734972 2.3693528e-20)
(93.334959 0.02590775 1.3918898e-20)
(93.230515 0.017078118 1.6350023e-20)
(93.025317 0.01363078 -3.0943548e-25)
(92.846016 0.0096741749 -2.2549417e-20)
(92.589806 -0.0051162426 1.3236405e-20)
(92.366842 -0.0090288222 -2.0882611e-25)
(92.132847 -0.013408727 -1.286138e-25)
(91.803503 -0.0065042372 0)
(91.490234 -0.022039295 0)
(91.168339 -0.056700766 1.4703207e-20)
(90.800556 -0.076078086 -1.7233701e-20)
(90.388644 -0.070124749 -2.0192938e-20)
(89.97011 -0.052089403 1.182537e-20)
(89.524062 -0.03975175 -1.9075414e-25)
(89.040279 -0.034461933 -1.620164e-20)
(88.521474 -0.034538015 1.8951297e-20)
(87.966458 -0.0419428 -1.1078327e-20)
(87.376126 -0.050118038 -2.5890606e-20)
(86.748652 -0.059252512 1.5118271e-20)
(86.068688 -0.06556531 3.5290901e-20)
(85.361152 -0.066466016 0)
(84.590153 -0.068668847 1.1994788e-20)
(83.796047 -0.063373514 1.3970292e-20)
(82.957646 -0.061739011 0)
(82.07273 -0.051609867 0)
(81.1564 -0.050085508 0)
(80.187836 -0.052269394 1.7738573e-27)
(79.162006 -0.053605876 -7.0484002e-27)
(78.085404 -0.063314801 1.7122021e-20)
(76.975698 -0.072626222 9.9061297e-21)
(75.800786 -0.082305422 1.1449624e-20)
(74.583475 -0.08550987 0)
(73.322554 -0.085953111 0)
(72.01478 -0.087457271 1.754861e-20)
(70.669045 -0.09384016 0)
(69.248874 -0.086451354 0)
(67.817034 -0.086497769 1.3286618e-20)
(66.316571 -0.090695046 7.6066264e-21)
(64.801137 -0.097937924 8.6962432e-21)
(63.220261 -0.095788423 -1.9853382e-20)
(61.624868 -0.097251571 -3.7674592e-26)
(59.977369 -0.095179522 0)
(58.314063 -0.092880717 0)
(56.612085 -0.095414135 0)
(54.89514 -0.098396422 -9.3879632e-21)
(53.148457 -0.10380848 0)
(51.391734 -0.10259847 0)
(49.615205 -0.10603441 0)
(47.835987 -0.10370988 1.5171427e-20)
(46.04663 -0.10796973 8.517664e-21)
(44.263834 -0.10343584 1.9887627e-26)
(42.480616 -0.10575011 5.3435283e-21)
(40.713681 -0.10047444 5.9713684e-21)
(38.95575 -0.10293127 -6.6628807e-21)
(37.22205 -0.09808209 3.5382094e-27)
(35.507339 -0.099955107 -4.1293607e-21)
(33.8242 -0.094918931 3.4350124e-26)
(32.16956 -0.097021812 5.089728e-21)
(30.55457 -0.093391484 5.6395342e-21)
(28.976623 -0.096346665 -3.1204476e-21)
(27.446416 -0.093224415 -3.4490483e-21)
(25.960608 -0.09416557 3.021411e-26)
(24.529809 -0.088173166 4.1993502e-21)
(23.148897 -0.084528906 0)
(21.828337 -0.07569213 -2.5458206e-21)
(20.561443 -0.067686637 2.7992588e-21)
(19.357975 -0.056598003 0)
(18.210571 -0.044970331 0)
(17.127215 -0.032596502 -1.8510018e-21)
(16.100494 -0.020196144 0)
(15.136582 -0.0099810061 -9.739678e-27)
(14.227793 -0.001219272 -6.5306485e-27)
(13.379415 0.0027986701 0)
(12.581168 0.0015295915 1.4535235e-21)
(11.835041 -0.011029242 1.5879854e-21)
(11.134265 -0.027974918 -3.468081e-21)
(96.664752 0.067198622 -1.8922531e-20)
(91.665829 -0.055741138 -2.496621e-20)
(94.816001 0.012115493 3.6001809e-20)
(94.651919 0.0092523445 -5.397316e-20)
(94.600884 0.0081207609 -2.2695173e-21)
(94.586878 0.0077022134 3.7392978e-20)
(94.541006 0.0068701504 -1.2574232e-20)
(94.394582 0.0044107943 7.4007234e-21)
(94.025331 -0.0012887324 -8.7125389e-21)
(93.365905 -0.011133466 2.5556319e-21)
(93.114727 -0.014508211 -4.2239771e-20)
(93.787037 -0.010595849 3.9004338e-20)
(94.738442 -0.00093136228 0)
(95.349434 0.006262898 -2.4524259e-21)
(95.04239 -7.6201187e-05 2.884042e-21)
(94.214793 -0.0067496512 -1.0182e-20)
(93.644199 -0.0078069596 -3.9905423e-21)
(94.155814 -0.018011095 -1.8793238e-20)
(94.462276 -0.020329539 1.9336965e-20)
(94.388405 -0.022695727 5.5233275e-20)
(94.249525 -0.016835974 6.3064037e-20)
(94.09197 0.02268936 -2.0223948e-20)
(94.105778 0.031131257 0)
(94.034112 0.014754405 -5.9010988e-20)
(93.905219 -0.0010772317 1.0952758e-20)
(93.759588 -0.0058097487 3.432768e-20)
(93.629871 0.00038613732 4.0340798e-20)
(93.51167 -0.015683508 3.5551659e-20)
(93.342391 -0.009300166 0)
(93.228602 -0.011864236 -1.4310556e-20)
(93.028746 -0.044004088 -1.9208703e-20)
(92.841754 -0.039633328 8.4589717e-21)
(92.604905 -0.069093094 -9.9300108e-21)
(92.36599 -0.067974193 3.8850066e-20)
(92.12321 -0.085137754 -1.1397227e-20)
(91.818116 -0.094849231 -5.3483075e-21)
(91.497553 -0.1010899 4.7039149e-20)
(91.164501 -0.13896252 -7.3556241e-21)
(90.802868 -0.1823192 -1.9393504e-20)
(90.394903 -0.18782954 6.3119757e-20)
(89.967765 -0.17212538 4.1402456e-20)
(89.519019 -0.16403531 6.9259397e-21)
(89.04243 -0.17029496 -4.0528878e-21)
(88.527452 -0.18469939 -5.2132075e-20)
(87.970789 -0.20439965 8.3101233e-21)
(87.375036 -0.2241774 6.7980498e-20)
(86.743284 -0.24831033 -1.1340288e-20)
(86.068801 -0.26762773 -2.2060961e-20)
(85.361733 -0.28816389 0)
(84.601368 -0.30685351 3.2992041e-20)
(83.807145 -0.31747605 1.0482372e-20)
(82.968689 -0.33399698 -1.6263053e-20)
(82.08385 -0.34618266 2.3552422e-21)
(81.155688 -0.35807009 -3.8452395e-20)
(80.185551 -0.38261062 1.5936069e-20)
(79.158184 -0.40936253 -3.3267876e-20)
(78.080687 -0.43301942 -8.5628601e-21)
(76.968371 -0.46375246 3.716092e-20)
(75.801327 -0.49908738 -1.7178481e-20)
(74.590072 -0.52993373 6.6105249e-21)
(73.328952 -0.56049067 -7.6217912e-21)
(72.022264 -0.59495228 -8.7819899e-21)
(70.673008 -0.63582515 1.0092287e-20)
(69.270172 -0.67695896 4.3464028e-20)
(67.818598 -0.71091062 -9.9695071e-21)
(66.329351 -0.75723989 1.1409697e-20)
(64.802765 -0.80081317 -1.30438e-20)
(63.238499 -0.85150848 -2.9784016e-20)
(61.632103 -0.89485222 5.6527535e-21)
(59.997253 -0.94897652 6.4328995e-21)
(58.324255 -0.99729294 -7.3176509e-21)
(56.626207 -1.0550606 8.2875356e-21)
(54.905167 -1.1139417 1.8777915e-20)
(53.163236 -1.1768016 5.3098992e-21)
(51.409296 -1.241699 -2.9934306e-20)
(49.634003 -1.3055485 6.7497551e-21)
(47.860945 -1.3755877 -7.5775049e-21)
(46.070508 -1.4413814 -8.5136562e-21)
(44.295612 -1.5158498 -4.7799703e-21)
(42.506086 -1.5827959 -5.3552804e-21)
(40.743726 -1.6609411 1.7902345e-20)
(38.974568 -1.7305094 2.6646493e-20)
(37.241477 -1.8125285 7.4196941e-21)
(35.510657 -1.8843184 1.0034069e-24)
(33.821509 -1.969413 2.294548e-20)
(32.143076 -2.0425626 -2.545038e-20)
(30.511198 -2.1297537 2.2559311e-20)
(28.896628 -2.2025006 -9.3579088e-21)
(27.332105 -2.288694 -1.0346548e-20)
(25.789166 -2.3567099 3.8080302e-21)
(24.29801 -2.43695 2.1000965e-20)
(22.831743 -2.4959514 8.2368501e-24)
(21.418877 -2.5653289 -1.0180447e-20)
(20.035914 -2.6124114 0)
(18.708179 -2.6667905 6.1497465e-21)
(17.416682 -2.7013371 0)
(16.182731 -2.7407506 -3.5172904e-20)
(14.993356 -2.7627681 8.1062493e-21)
(13.865344 -2.7872433 3.3322603e-20)
(12.788505 -2.7965801 3.2829464e-20)
(11.775749 -2.8130637 -9.0419056e-20)
(10.827821 -2.8334831 4.5054483e-20)
(9.9454206 -2.8495926 1.000434e-19)
(9.1323319 -2.8706031 -1.6472092e-19)
(96.660601 0.13427482 -4.826186e-21)
(91.668273 -0.11141272 0)
(94.816553 0.024245403 -5.2415874e-20)
(94.651274 0.018487648 -8.1453527e-26)
(94.600694 0.016244119 -7.2686461e-20)
(94.586601 0.015376952 -4.2774277e-20)
(94.540508 0.013698258 -6.2939608e-21)
(94.393591 0.008780314 6.6650376e-20)
(94.023633 -0.0026633186 0)
(93.364204 -0.022305587 0)
(93.117554 -0.029221546 4.2282904e-20)
(93.792158 -0.021201273 -4.96841e-20)
(94.743168 -0.0019729134 4.169008e-21)
(95.350433 0.012727856 -4.9119205e-21)
(95.039748 0.00081086759 0)
(94.2087 -0.012775695 0)
(93.646714 -0.012925446 -3.9940066e-21)
(94.163208 -0.032676946 9.7708675e-24)
(94.465301 -0.038844566 9.40118e-20)
(94.386878 -0.042679022 -4.5526357e-20)
(94.238477 -0.022058613 -7.6491998e-21)
(94.081077 0.042114265 0)
(94.105185 0.056273205 -8.4611688e-20)
(94.037599 0.037833128 4.9740994e-20)
(93.908788 0.0076114566 -3.6542499e-21)
(93.762518 -0.0063212425 -9.8779204e-20)
(93.631314 -0.015185348 -3.5329062e-20)
(93.509928 -0.039777432 -1.4826326e-19)
(93.351618 -0.038434033 0)
(93.227492 -0.062324116 0)
(93.034752 -0.087251095 0)
(92.846498 -0.096179222 -5.6447573e-21)
(92.611005 -0.12709291 -1.0601571e-19)
(92.36841 -0.13491979 7.7749529e-21)
(92.119714 -0.15966242 7.3004357e-20)
(91.827597 -0.16890414 -9.0996507e-20)
(91.51333 -0.18465398 -4.3945799e-20)
(91.171002 -0.23474913 -7.3619531e-21)
(90.801937 -0.28137025 4.3132512e-20)
(90.396213 -0.29399009 4.0431621e-20)
(89.970572 -0.28886231 -1.420647e-19)
(89.521828 -0.29499924 -6.9321562e-21)
(89.046396 -0.31152608 7.298715e-20)
(88.531994 -0.33645371 3.7945378e-20)
(87.976914 -0.36848586 8.8724389e-20)
(87.381442 -0.40184175 -5.8321083e-20)
(86.749688 -0.43970697 -6.0470589e-24)
(86.076483 -0.47337651 -6.624566e-20)
(85.367828 -0.50555214 -7.7262744e-20)
(84.611429 -0.53917357 4.8027275e-20)
(83.817325 -0.56458328 6.9958583e-21)
(82.977191 -0.59896842 -8.1336645e-21)
(82.093827 -0.62662506 0)
(81.165681 -0.66123774 3.8472573e-20)
(80.193719 -0.70601765 -7.1679601e-24)
(79.170378 -0.75273894 3.698459e-20)
(78.098344 -0.80102092 -8.5746306e-21)
(76.984795 -0.85424015 -2.9751856e-20)
(75.819057 -0.91338474 -5.7337592e-21)
(74.610279 -0.96685 1.3229648e-20)
(73.349239 -1.0215087 1.0109109e-23)
(72.045297 -1.0782231 -1.7563574e-20)
(70.690198 -1.1464332 4.0377222e-20)
(69.294121 -1.2083697 -7.5375219e-20)
(67.842669 -1.2750809 5.3194121e-20)
(66.359612 -1.3472008 -6.8502062e-20)
(64.828138 -1.4266348 0)
(63.268024 -1.5061913 4.9674452e-20)
(61.66102 -1.5901966 2.2654676e-20)
(60.029255 -1.6772648 1.78666e-23)
(58.359637 -1.7681999 2.0064259e-23)
(56.666295 -1.8647113 -1.6582009e-20)
(54.950089 -1.9664876 1.8783784e-20)
(53.213245 -2.0743209 -4.2464469e-20)
(51.466949 -2.1842806 3.5947538e-20)
(49.701815 -2.299202 -2.6991107e-20)
(47.939795 -2.4163561 -1.5184488e-20)
(46.1653 -2.5384588 -3.4080923e-20)
(44.405457 -2.6628455 0)
(42.64081 -2.7905234 0)
(40.898938 -2.9203475 -2.3893143e-20)
(39.163382 -3.0529892 -1.3329645e-20)
(37.458041 -3.1881119 -4.4548145e-20)
(35.770768 -3.3254295 1.6521467e-20)
(34.119244 -3.4653533 -1.8354397e-20)
(32.496885 -3.6074851 -2.0369261e-20)
(30.915415 -3.7518127 4.5121244e-20)
(29.372303 -3.8993286 1.5505332e-23)
(27.873429 -4.0474629 -1.3788148e-20)
(26.420105 -4.200199 -1.5230046e-20)
(25.012366 -4.3516497 8.3960911e-21)
(23.654751 -4.509501 -1.8502702e-20)
(22.34152 -4.6631135 -1.0183931e-20)
(21.080899 -4.8235727 0)
(19.865126 -4.9757959 -6.1505033e-21)
(18.703852 -5.1311575 -1.3498381e-20)
(17.582626 -5.2716965 7.404075e-20)
(16.509506 -5.410847 -7.3015612e-20)
(15.470153 -5.5298046 0)
(14.473966 -5.642802 -7.2942804e-20)
(13.503633 -5.7252698 1.7549936e-19)
(12.565337 -5.7861339 -9.3005312e-20)
(11.658887 -5.8248312 0)
(10.787567 -5.8483108 0)
(96.653696 0.20110282 1.323875e-19)
(91.672347 -0.16693518 5.4435222e-21)
(94.817464 0.036396011 1.315687e-20)
(94.650193 0.027694345 5.4106373e-20)
(94.600384 0.024388348 7.2797781e-20)
(94.586146 0.023048299 0)
(94.539676 0.020495671 0)
(94.391933 0.013090743 -5.1914348e-20)
(94.020803 -0.0041317654 1.7005481e-23)
(93.361417 -0.033559066 -1.0266628e-20)
(93.122321 -0.043939577 9.6764641e-20)
(93.800668 -0.031492385 0)
(94.750969 -0.0028300637 -8.3508123e-21)
(95.35192 0.019343815 8.8480901e-20)
(95.035258 0.0017417599 0)
(94.198474 -0.019623791 -6.8208631e-21)
(93.65072 -0.017960709 5.3589394e-25)
(94.175417 -0.045355951 1.8847787e-20)
(94.470423 -0.056894834 -9.9696747e-20)
(94.383448 -0.063323649 0)
(94.222137 -0.028810439 -6.1300093e-20)
(94.067723 0.040095828 0)
(94.105219 0.057545205 1.694806e-19)
(94.041096 0.04487635 1.0583746e-19)
(93.914094 0.012356147 3.1152501e-25)
(93.767545 -0.01504151 6.0217671e-20)
(93.635487 -0.03103591 -1.0110184e-20)
(93.514866 -0.067873274 1.0690882e-19)
(93.360497 -0.077549087 -1.1862965e-19)
(93.227373 -0.10274647 8.1963501e-21)
(93.045994 -0.1423362 9.6283813e-21)
(92.84949 -0.14993073 -1.1303261e-20)
(92.620098 -0.18800823 1.0617253e-19)
(92.373403 -0.19884039 -6.2307537e-20)
(92.121403 -0.22840385 -7.3111838e-20)
(91.834893 -0.25018083 7.5046068e-20)
(91.52377 -0.27001058 1.2571382e-20)
(91.180883 -0.32357358 -7.3726062e-21)
(90.810672 -0.38267477 -1.2958721e-19)
(90.401082 -0.40593147 1.0125274e-20)
(89.972572 -0.40884908 8.2991088e-20)
(89.526223 -0.42187032 0)
(89.054055 -0.45006466 -6.4970736e-20)
(88.543097 -0.48618328 0)
(87.988109 -0.52940278 -8.8848593e-20)
(87.390861 -0.57408291 -6.4913175e-21)
(86.757689 -0.62525822 7.5747678e-21)
(86.086849 -0.67351268 7.0751706e-20)
(85.379245 -0.72374372 8.2521288e-20)
(84.625823 -0.77468867 -9.6182124e-20)
(83.831191 -0.81785317 1.120189e-19)
(82.99156 -0.87035597 -8.152145e-21)
(82.108589 -0.91842842 9.4695265e-21)
(81.17849 -0.97170791 0)
(80.206689 -1.0385873 1.0219831e-19)
(79.185661 -1.1116589 1.1109072e-19)
(78.114435 -1.1835484 8.5743355e-21)
(77.001105 -1.2643965 0)
(75.837238 -1.354372 9.177883e-20)
(74.630164 -1.44157 1.3252663e-20)
(73.371182 -1.5324832 -6.1053615e-20)
(72.069629 -1.6291932 -8.7892062e-20)
(70.716163 -1.7363296 5.054456e-20)
(69.326439 -1.8449972 3.4829322e-20)
(67.876697 -1.9524302 -1.0647077e-19)
(66.397752 -2.0690795 4.5703731e-20)
(64.866895 -2.1909491 8.7084343e-20)
(63.309634 -2.3193999 0)
(61.702089 -2.4496218 -4.5318944e-20)
(60.069712 -2.5871465 0)
(58.39768 -2.729465 -1.4652312e-20)
(56.700494 -2.8767986 3.3209446e-20)
(54.97858 -3.0312957 -6.7828869e-24)
(53.234965 -3.192233 6.3728105e-20)
(51.478218 -3.3610581 0)