/*--------------------------------*- C++ -*----------------------------------*\
| =========                 |                                                 |
| \\      /  F ield         | OpenFOAM: The Open Source CFD Toolbox           |
|  \\    /   O peration     | Version:  2506                                  |
|   \\  /    A nd           | Website:  www.openfoam.com                      |
|    \\/     M anipulation  |                                                 |
\*---------------------------------------------------------------------------*/
FoamFile
{
    version     2.0;
    format      ascii;
    arch        "LSB;label=32;scalar=64";
    class       volScalarField;
    location    "0.0345";
    object      Co;
}
// * * * * * * * * * * * * * * * * * * * * * * * * * * * * * * * * * * * * * //

dimensions      [0 0 0 0 0 0 0];

internalField   nonuniform List<scalar> 
13761
(
0.0015645014
0.0015643616
0.0015642237
0.0015640875
0.0015639534
0.0015638216
0.0015636919
0.0015635637
0.0016416103
0.0015634373
0.0016412951
0.0015633126
0.0016409861
0.0015631893
0.0016406835
0.0015630678
0.0016403871
0.0015629477
0.0016400966
0.0015628293
0.0016398125
0.0015627125
0.0016395367
0.0015625981
0.0017150898
0.001639267
0.0015624853
0.0017146118
0.0016390031
0.0015623741
0.0017141436
0.0016387452
0.0015622648
0.0017136848
0.0016384926
0.0015621567
0.0017132355
0.0016382458
0.0015620506
0.0017127954
0.0016380043
0.0015619457
0.0017123643
0.0016377681
0.0015618426
0.001784101
0.0017119423
0.0016375373
0.0015617409
0.0017835084
0.0017115292
0.0016373116
0.0015616406
0.001782934
0.0017111282
0.001637093
0.0015615425
0.0017823749
0.0017107375
0.0016368804
0.0015614461
0.0017818294
0.0017103557
0.0016366737
0.0015613517
0.0017812972
0.0017099829
0.0016364724
0.001561259
0.001780778
0.0017096187
0.0016362759
0.0017802717
0.0017092631
0.0016360846
0.0018447304
0.0017797781
0.0017089158
0.0016358982
0.0018440926
0.001779297
0.001708577
0.0016357168
0.0018434717
0.0017788282
0.0017082462
0.0016355398
0.0018428673
0.0017783715
0.0017079237
0.0016353679
0.0018422812
0.0017779283
0.0017076101
0.0016352012
0.0018417179
0.0017775019
0.0017073077
0.0016350409
0.0018411716
0.001777088
0.0017070138
0.0016348856
0.0018406418
0.0017766861
0.0017067278
0.0019007564
0.0018401279
0.001776296
0.0017064497
0.001900075
0.0018396301
0.0017759176
0.0017061794
0.0018994129
0.0018391479
0.0017755507
0.0017059169
0.0018987698
0.0018386811
0.0017751952
0.0017056618
0.0018981456
0.0018382297
0.0017748509
0.0017054143
0.0018975398
0.0018377934
0.0017745176
0.0017051741
0.0018969525
0.001837372
0.0017741954
0.0017049414
0.0019702299
0.0018963868
0.0018369681
0.001773886
0.0017047171
0.0019695536
0.001895847
0.0018365852
0.0017735921
0.0019689003
0.001895326
0.0018362175
0.0017733095
0.0019682692
0.0018948232
0.0018358647
0.0017730378
0.0019676601
0.0018943383
0.0018355264
0.0017727767
0.0019670726
0.0018938711
0.0018352026
0.0017725263
0.0019665066
0.0018934215
0.0018348931
0.0017722865
0.0020410532
0.0019659618
0.0018929892
0.0018345978
0.0017720571
0.0020404502
0.0019654379
0.0018925741
0.0018343164
0.0017718379
0.002039872
0.0019649347
0.001892176
0.0018340488
0.0017716289
0.0020393186
0.001964452
0.0018917947
0.001833795
0.0020387928
0.0019639925
0.0018914323
0.0018335566
0.0020383037
0.0019635635
0.001891095
0.0018333385
0.0020378403
0.001963156
0.0018907753
0.0018331347
0.0021062413
0.0020374014
0.0019627688
0.0018904723
0.0018329446
0.0021058236
0.0020369864
0.0019624017
0.0018901858
0.0018327679
0.0021054334
0.0020365953
0.0019620545
0.0018899157
0.0018326046
0.0021050701
0.0020362277
0.0019617269
0.0018896617
0.0018324545
0.0021047336
0.0020358835
0.0019614188
0.0018894237
0.0021044239
0.0020355625
0.0019611301
0.0018892017
0.0021041403
0.0020352643
0.0019608605
0.0018889954
0.0021581761
0.0021038829
0.002034989
0.0019606099
0.0018888048
0.0021578731
0.002103652
0.0020347368
0.0019603787
0.00188863
0.0021576168
0.0021034609
0.002034519
0.0019601762
0.0018884789
0.0021573975
0.0021033013
0.0020343286
0.0019599967
0.0018883467
0.0021572084
0.0021031673
0.0020341604
0.0019598359
0.0018882298
0.0021570489
0.0021030582
0.0020340141
0.0019596932
0.0018881279
0.002156919
0.002102974
0.0020338894
0.0019595687
0.0022257723
0.0021568185
0.0021029147
0.0020337865
0.0019594624
0.002225658
0.0021567469
0.0021028797
0.0020337048
0.0019593738
0.0022255753
0.0021567043
0.0021028693
0.0020336446
0.0019593033
0.0022255236
0.0021566903
0.0021028829
0.0020336053
0.0019592503
0.002225503
0.0021567048
0.0021029205
0.0020335871
0.0019592149
0.0022255135
0.0021567479
0.0021029823
0.00203359
0.0019591971
0.0022923147
0.0022255603
0.0021568239
0.002103072
0.0020336173
0.0019591998
0.0022924757
0.002225658
0.0021569459
0.002103201
0.0020336787
0.0019592311
0.0022926739
0.0022257885
0.0021570978
0.0021033552
0.0020337621
0.0022929069
0.0022259498
0.0021572778
0.0021035331
0.0020338664
0.0022931745
0.0022261417
0.0021574857
0.0021037346
0.0020339912
0.0022934764
0.0022263639
0.0021577212
0.0021039594
0.0020341366
0.0022938128
0.0022266166
0.0021579845
0.0021042075
0.0020343025
0.0023540112
0.0022941833
0.0022268995
0.0021582753
0.0021044788
0.0020344888
0.0023544693
0.0022945874
0.0022272123
0.0021585932
0.0021047731
0.0020346952
0.0023549651
0.0022950257
0.0022275553
0.0021589385
0.0021050904
0.0020349219
0.0023554982
0.0022954975
0.0022279281
0.0021593108
0.0021054306
0.0023560685
0.002296003
0.0022283308
0.0021597101
0.0021057936
0.0023566881
0.0022965529
0.0022287728
0.0021601449
0.0021061868
0.0024199525
0.0023573667
0.0022971561
0.0022292623
0.0021606222
0.0021066163
0.0024206957
0.002358082
0.0022977924
0.0022297812
0.0021611258
0.0021070682
0.0024214779
0.0023588335
0.0022984612
0.0022303291
0.0021616558
0.0021075423
0.0024222991
0.0023596209
0.0022991625
0.0022309058
0.0021622116
0.0021080383
0.0024231588
0.002360444
0.0022998959
0.0022315111
0.0021627934
0.0021085561
0.0024240573
0.0023613028
0.0023006616
0.0022321452
0.0021634009
0.0024893547
0.0024249944
0.0023621974
0.0023014594
0.0022328079
0.0021640342
0.0024904575
0.0024259702
0.0023631275
0.0023022894
0.0022334993
0.0021646931
0.0024916023
0.0024269844
0.0023640933
0.0023031514
0.0022342193
0.0021653777
0.0024927892
0.0024280372
0.0023650946
0.0023040454
0.0022349679
0.0021660879
0.0024940182
0.0024291286
0.0023661316
0.0023049715
0.0022357452
0.0021668238
0.0025548273
0.0024953043
0.0024302722
0.0023672164
0.0023059408
0.0022365609
0.0021675939
0.002556301
0.0024966621
0.0024314813
0.0023683613
0.0023069641
0.002237425
0.0021684069
0.0025578204
0.0024980621
0.002432729
0.0023695418
0.0023080194
0.0022383176
0.0025593847
0.0024995035
0.0024340147
0.0023707572
0.0023091061
0.0022392385
0.0025609933
0.0025009858
0.0024353377
0.0023720071
0.0023102238
0.002240187
0.0025626471
0.0025025096
0.0024366988
0.002373292
0.0023113729
0.0022411638
0.0026275216
0.0025643452
0.0025040743
0.0024380972
0.0023746112
0.0023125529
0.0022421685
0.0026294061
0.0025660883
0.0025056803
0.0024395335
0.0023759654
0.0023137643
0.0022432013
0.0026313388
0.0025678764
0.0025073279
0.0024410077
0.0023773545
0.002315007
0.0022442621
0.0026333194
0.0025697094
0.0025090167
0.0024425195
0.0023787781
0.0023162807
0.0022453511
0.0026353483
0.0025715876
0.002510747
0.0024440694
0.0023802368
0.0023175859
0.0026998096
0.0026374258
0.0025735112
0.0025125191
0.0024456574
0.0023817305
0.0023189224
0.0027021178
0.0026395609
0.0025754885
0.0025143407
0.0024472905
0.0023832656
0.002320296
0.0027045218
0.0026417851
0.0025775487
0.0025162383
0.0024489929
0.0023848639
0.0023217263
0.0027069825
0.0026440622
0.0025796581
0.0025181811
0.0024507366
0.0023865002
0.0023231905
0.0027094944
0.0026463871
0.0025818122
0.002520165
0.0024525177
0.0023881706
0.0023246854
0.0027738884
0.0027120581
0.0026487601
0.0025840114
0.0025221902
0.0024543365
0.0023898758
0.0023262112
0.0027766876
0.0027146733
0.0026511812
0.0025862554
0.0025242566
0.0024561927
0.0023916153
0.0027795421
0.0027173403
0.0026536505
0.0025885446
0.0025263644
0.0024580867
0.0023933893
0.0027824521
0.0027200594
0.0026561684
0.002590879
0.0025285137
0.0024600186
0.0023951981
0.0028491932
0.0027854183
0.0027228311
0.0026587353
0.0025932592
0.002530705
0.0024619885
0.0023970419
0.0028524236
0.0027884407
0.0027256555
0.002661351
0.0025956849
0.0025329381
0.0024639965
0.0023989204
0.0028557142
0.0027915193
0.0027285325
0.0026640158
0.0025981566
0.0025352133
0.0024660428
0.002400834
0.0028590657
0.0027946553
0.0027314634
0.0026667307
0.0026006748
0.0025375311
0.0024681278
0.002402783
0.0028624785
0.0027978487
0.0027344479
0.0026694954
0.0026032397
0.0025398917
0.0024702516
0.0024047676
0.0029290772
0.002865995
0.0028011389
0.002737523
0.002672344
0.0026058822
0.0025423236
0.0024724403
0.0029329012
0.0028695955
0.0028045079
0.0027406716
0.002675261
0.0026085883
0.0025448136
0.0024746816
0.0029367895
0.0028732564
0.0028079335
0.0027438732
0.0026782271
0.0026113402
0.0025473455
0.002476961
0.0029407423
0.0028769779
0.0028114157
0.0027471279
0.0026812425
0.0026141379
0.0025499194
0.0024792784
0.0030096301
0.0029447594
0.0028807598
0.0028149545
0.0027504356
0.0026843069
0.0026169814
0.0025525351
0.0024816338
0.0030139484
0.0029488419
0.0028846029
0.0028185507
0.002753797
0.0026874212
0.0026198711
0.0025551933
0.0024840275
0.0030183359
0.00295299
0.0028885076
0.0028222044
0.0027572122
0.0026905854
0.0026228074
0.0025578939
0.0024864597
0.0030227932
0.0029572043
0.0028924743
0.0028259162
0.0027606819
0.0026938001
0.0026257905
0.0025606374
0.0030929455
0.0030273209
0.0029614853
0.0028965036
0.0028296865
0.0027642063
0.0026970654
0.0026288206
0.002563424
0.0030978024
0.0030319196
0.0029658335
0.0029005958
0.0028335157
0.0027677858
0.0027003817
0.0026318982
0.0025662539
0.0031027343
0.0030365899
0.0029702496
0.0029047516
0.0028374043
0.0027714209
0.0027037496
0.0026350236
0.0025691274
0.0031077422
0.0030413326
0.002974734
0.0029089713
0.0028413526
0.002775112
0.0027071692
0.002638197
0.002572045
0.0031796238
0.0031128368
0.0030461579
0.0029792966
0.0029132643
0.0028453695
0.002778867
0.002710648
0.0026414252
0.0025750126
0.0031851462
0.0031180677
0.0030511121
0.0029839805
0.0029176707
0.002849492
0.0027827207
0.002714218
0.0026447377
0.0025780572
0.0031907579
0.0031233838
0.0030561473
0.0029887408
0.0029221486
0.0028536814
0.0027866367
0.0027178455
0.0026481034
0.0031964493
0.0031287762
0.0030612551
0.0029935697
0.0029266905
0.0028579304
0.0027906085
0.0027215247
0.002651517
0.0032701112
0.0032022196
0.0031342444
0.0030664348
0.0029984664
0.002931296
0.0028622388
0.0027946358
0.002725255
0.0026549777
0.0032762826
0.0032080712
0.0031397901
0.0030716884
0.0030034328
0.0029359664
0.0028666078
0.0027987198
0.0027290376
0.002658487
0.003282539
0.0032140041
0.0031454138
0.0030770159
0.0030084688
0.002940702
0.0028710376
0.0028028606
0.0027328727
0.0026620447
0.0032888815
0.0032200195
0.0031511164
0.0030824184
0.0030135755
0.0029455034
0.0028755288
0.0028070586
0.0027367606
0.0026656512
0.0033642034
0.0032953109
0.0032261183
0.0031568985
0.0030878963
0.0030187531
0.0029503712
0.0028800819
0.0028113145
0.0027407019
0.0026693069
0.0033710602
0.0033018288
0.0032323015
0.0031627614
0.0030934509
0.003024003
0.0029553065
0.002884698
0.0028156291
0.0027446973
0.0033780094
0.0033084355
0.0032385698
0.0031687055
0.0030990824
0.0030293252
0.0029603091
0.0028893768
0.0028200023
0.0027487468
0.0034552285
0.0033850527
0.0033151326
0.0032449244
0.003174732
0.003104792
0.0030347209
0.0029653804
0.0028941197
0.0028244353
0.0027528513
0.003462726
0.0033921919
0.0033219216
0.0032513669
0.0031808423
0.0031105812
0.0030401912
0.0029705212
0.0028989273
0.0028289286
0.0027570114
0.0034703441
0.003399447
0.0033288216
0.0032579152
0.0031870534
0.0031164653
0.0030457507
0.0029757454
0.0029038126
0.0028334943
0.0027612381
0.0035494383
0.0034781333
0.0034068655
0.0033358771
0.0032646112
0.0031934043
0.0031224815
0.003051434
0.0029810849
0.0029088052
0.0028381598
0.0027655568
0.0035577205
0.0034860272
0.0034143848
0.0033430291
0.0032713991
0.0031998428
0.0031285803
0.0030571948
0.0029864967
0.0029138651
0.0028428879
0.0035661052
0.0034940208
0.003422
0.003350273
0.0032782748
0.0032063648
0.0031347582
0.0030630296
0.0029919772
0.0029189891
0.0028476756
0.0036472728
0.0035745944
0.0035021151
0.0034297122
0.0033576097
0.0032852389
0.003212971
0.0031410155
0.0030689388
0.0029975272
0.0029241776
0.0028525234
0.0036562834
0.0035831894
0.0035103118
0.0034375227
0.0033650404
0.0032922926
0.0032196625
0.0031473534
0.0030749236
0.0030031474
0.0029294315
0.002857432
0.0036654043
0.0035918913
0.0035186118
0.0034454327
0.0033725665
0.0032994372
0.0032264402
0.0031537726
0.0030809843
0.0030088383
0.0029347512
0.0028624018
0.0037486453
0.0036746372
0.0036007019
0.0035270169
0.0034534435
0.0033801887
0.0033066734
0.0032333051
0.003160274
0.0030871221
0.0030146009
0.0029401377
0.0028674336
0.0037584366
0.0036839842
0.0036096231
0.0035355288
0.003461557
0.0033879091
0.0033140031
0.0032402588
0.0031668591
0.0030933381
0.0030204362
0.0029455917
0.0028725281
0.0038433714
0.0037683466
0.0036934465
0.0036186561
0.0035441486
0.0034697739
0.0033957282
0.0033214267
0.0032473017
0.0031735284
0.0030996327
0.0030263447
0.002951114
0.0038538749
0.003778377
0.0037030257
0.0036278022
0.0035528776
0.0034780956
0.0034036475
0.0033289456
0.003254435
0.0031802827
0.0031060067
0.0030323271
0.0029567047
0.0038645045
0.00378853
0.0037127243
0.0036370641
0.0035617182
0.0034865244
0.0034116688
0.0033365616
0.0032616604
0.0031871238
0.0031124618
0.0030383846
0.0029623656
0.0039516491
0.0038752622
0.0037988078
0.0037225438
0.003646443
0.0035706716
0.0034950613
0.0034197933
0.0033442757
0.0032689788
0.0031940523
0.0031189984
0.0030445181
0.0029680971
0.0039630607
0.0038861673
0.0038092286
0.0037325019
0.0036559556
0.0035797535
0.0035037211
0.0034280348
0.0033521009
0.0032764024
0.0032010796
0.0031256274
0.0030507373
0.0029739082
0.0040518776
0.0039746927
0.0038972848
0.0038198537
0.0037426564
0.0036656567
0.0035890158
0.0035125527
0.0034364392
0.0033600801
0.0032839715
0.0032082438
0.0031323838
0.0030570749
0.0029798294
0.0040641946
0.003986469
0.0039085425
0.0038306148
0.0037529426
0.0036754849
0.0035984001
0.0035215006
0.0034449545
0.0033681647
0.0032916401
0.0032155009
0.003139227
0.0030634933
0.0040766514
0.0039983815
0.0039199326
0.0038415046
0.0037633536
0.0036854335
0.0036079003
0.0035305597
0.0034535752
0.0033763492
0.0032994033
0.0032228472
0.0031461531
0.0030699883
0.0041677207
0.0040892511
0.0040104329
0.0039314578
0.0038525257
0.0037738919
0.0036955051
0.0036175186
0.0035397314
0.0034623033
0.0033846356
0.0033072628
0.0032302836
0.0031531632
0.0030765612
0.004181038
0.0041019941
0.0040226238
0.0039431187
0.0038636785
0.0037845577
0.0037056999
0.0036272554
0.0035490163
0.0034711389
0.003393024
0.0033152185
0.0032378103
0.0031602571
0.0030832119
0.0042735666
0.0041945059
0.0041148839
0.0040349575
0.0039549183
0.0038749661
0.0037953541
0.0037160206
0.0036371131
0.0035584166
0.0034800841
0.0034015162
0.0033232725
0.003245429
0.0031674366
0.0030899418
0.0042877917
0.004208127
0.0041279229
0.0040474363
0.0039668591
0.0038863906
0.0038062832
0.0037264693
0.0036470936
0.0035679342
0.0034891406
0.0034101139
0.0033314261
0.0032531409
0.0031747028
0.0030967522
0.0043817059
0.0043021763
0.004221904
0.0041411136
0.0040600625
0.0039789433
0.0038979543
0.003817347
0.0037370479
0.0036571986
0.0035775703
0.0034983099
0.0034188185
0.0033396804
0.0032609471
0.0031820566
0.0043968882
0.0043167236
0.0042358394
0.0041544585
0.0040728389
0.0039911731
0.0039096593
0.0038285474
0.0037477582
0.0036674301
0.0035873271
0.0035075934
0.0034276311
0.0033480367
0.0032688489
0.0031894992
0.0044920683
0.0044122397
0.0043314363
0.0042499362
0.0041679603
0.0040857677
0.0040035513
0.0039215082
0.0038398871
0.0037586025
0.0036777899
0.0035972063
0.0035169931
0.0034365537
0.0033564966
0.0032768474
0.0031970316
0.0045874382
0.0045082603
0.0044277638
0.0043463175
0.0042641971
0.0041816218
0.0040988518
0.0040160802
0.0039335032
0.003851368
0.0037695828
0.00368828
0.0036072094
0.0035265104
0.0034455877
0.0033650616
0.003284944
0.0032046551
0.0046045073
0.004524632
0.0044434637
0.0043613705
0.0042786254
0.0041954462
0.004112094
0.0040287627
0.003945647
0.0038629927
0.0037807015
0.0036989026
0.0036173385
0.0035361472
0.0034547346
0.0033737328
0.0032931401
0.0032123709
0.00470063
0.0046217679
0.0045411909
0.0044593464
0.0043766018
0.0042932272
0.0042094391
0.0041255
0.0040416042
0.0039579448
0.0038747661
0.0037919633
0.0037096622
0.0036275981
0.0035459073
0.0034639982
0.003382514
0.0033014385
0.0032201816
0.004796383
0.0047189053
0.0046393094
0.0045580214
0.0044754921
0.0043920872
0.0043080743
0.0042236686
0.0041391341
0.0040546654
0.0039704541
0.0038867427
0.0038034191
0.0037206066
0.0036380329
0.0035558331
0.003473418
0.0033914418
0.0033098741
0.004815649
0.0047374164
0.0046570796
0.0045750744
0.0044918539
0.0044077823
0.0043231245
0.0042380945
0.0041529582
0.0040679104
0.0039831404
0.0038988891
0.0038150382
0.0037317067
0.0036486153
0.0035658985
0.0034829695
0.0034004935
0.0033184251
0.0049116335
0.0048351158
0.0047561222
0.0046750393
0.0045923123
0.0045083962
0.0044236534
0.0043383457
0.0042526865
0.0041669436
0.0040813117
0.0039959781
0.0039111819
0.0038267973
0.0037429405
0.0036593249
0.0035760842
0.0034926347
0.0034096519
0.0033270753
0.0050066092
0.0049320718
0.0048547864
0.0047750252
0.0046931913
0.004609738
0.0045251218
0.0044397029
0.0043537404
0.0042674471
0.0041810925
0.0040948716
0.0040089691
0.0039236224
0.0038386985
0.0037543099
0.0036701633
0.0035863914
0.0035024143
0.0034189178
0.0033358257
0.0051003722
0.0050280265
0.0049527292
0.0048746681
0.0047941328
0.0047115424
0.0046273581
0.0045420371
0.004455937
0.0043693146
0.0042823819
0.0041954106
0.0041085955
0.0040221187
0.0039362158
0.0038507462
0.0037658191
0.0036811338
0.0035968236
0.0035123121
0.0034282946
0.0033446792
0.00512276
0.0050496719
0.004973605
0.0048947596
0.0048134437
0.0047300917
0.0046451718
0.0045591411
0.0044723549
0.0043850672
0.0042974898
0.0042098967
0.0041224822
0.0040354255
0.0039489606
0.0038629391
0.0037774669
0.0036922362
0.0036073804
0.003522327
0.0034377811
0.0052160684
0.0051453952
0.005071554
0.0049947076
0.0049150696
0.0048329664
0.0047488474
0.0046631868
0.0045764414
0.0044889638
0.0044010053
0.0043127777
0.0042245574
0.0041365383
0.0040488961
0.0039618629
0.003875283
0.0037892583
0.0037034745
0.0036180655
0.003532463
0.0034473813
0.0053077351
0.0052396844
0.0051682801
0.0050936746
0.0050160386
0.0049355995
0.0048527023
0.0047678108
0.0046814045
0.0045939392
0.0045057646
0.0044171298
0.0043282467
0.0042393937
0.0041507643
0.0040625306
0.0039749231
0.0038877782
0.0038011941
0.0037148495
0.0036288794
0.0035427205
0.0034570953
0.0053975705
0.0053323223
0.005263567
0.0051914198
0.0051160388
0.0050376026
0.0049563538
0.0048726559
0.0047869864
0.0046998293
0.0046116388
0.0045227617
0.0044334448
0.0043439003
0.0042544092
0.0041651638
0.0040763326
0.0039881443
0.0039004272
0.0038132764
0.0037263635
0.0036398245
0.0035531013
0.0034669248
0.0055441265
0.0054854231
0.0054231156
0.0053571951
0.0052877225
0.00521482
0.0051386518
0.005059405
0.0049773379
0.0048928325
0.0048063794
0.0047184659
0.0046295445
0.0045399592
0.0044499543
0.0043597427
0.0042696077
0.0041797404
0.0040903056
0.0040015298
0.0039132338
0.0038255083
0.0037380189
0.0036509032
0.003563608
0.0034768721
0.0056268664
0.0055711865
0.0055119083
0.0054489669
0.0053823601
0.0053121569
0.0052384864
0.005161519
0.005081451
0.0049985567
0.004913237
0.0048259943
0.0047373191
0.0046476611
0.0045573614
0.0044666624
0.0043757777
0.0042849929
0.0041944977
0.0041044527
0.0040150827
0.0039262003
0.0038378926
0.0037498185
0.0036621175
0.0035742423
0.003486939
0.005707456
0.0056547946
0.005598588
0.0055387193
0.0054751287
0.0054078211
0.0053368737
0.0052624224
0.0051846435
0.0051037434
0.0050200132
0.0049338722
0.0048458343
0.0047563916
0.0046659911
0.0045749709
0.0044835717
0.0043920077
0.004300567
0.0042094377
0.0041187758
0.0040288047
0.0039393285
0.0038504306
0.0037617635
0.003673469
0.0035850056
0.0058323674
0.0057859164
0.0057362271
0.0056830898
0.0056263396
0.0055658638
0.0055016085
0.0054335855
0.0053618798
0.0052866342
0.0052080314
0.0051262883
0.0050417133
0.0049547441
0.0048659048
0.0047756886
0.0046845395
0.0045927925
0.0045006867
0.0044084372
0.0043163345
0.0042245648
0.0041332791
0.0040426995
0.0039526219
0.0038631255
0.0037738568
0.0036849601
0.0035959001
0.0059060835
0.0058623516
0.0058155474
0.0057654327
0.0057117996
0.0056544863
0.0055933848
0.0055284465
0.0054596908
0.0053872108
0.0053111558
0.0052317147
0.005149116
0.005063686
0.0049758802
0.0048862322
0.0047952354
0.0047033301
0.0046108487
0.0045180286
0.0044250864
0.0043323144
0.0042398967
0.0041479794
0.0040567832
0.0039660954
0.0038759913
0.0037861115
0.0036966033
0.0036069377
0.0060167103
0.0059781628
0.0059370032
0.0058929602
0.0058457735
0.0057952044
0.0057410471
0.0056831437
0.0056213907
0.0055557449
0.0054862335
0.0054129574
0.0053360719
0.0052557733
0.0051723019
0.0050860026
0.004997348
0.00490688
0.0048150915
0.0047224191
0.0046291927
0.0045356478
0.0044420025
0.0043485512
0.0042554753
0.0041629161
0.0040710926
0.0039797838
0.0038890607
0.0037985584
0.003708427
0.0036181444
0.0061515576
0.0061191493
0.0060849148
0.0060485691
0.0060098273
0.0059684067
0.0059240323
0.0058764424
0.0058253984
0.0057706967
0.0057121836
0.0056497597
0.0055833882
0.0055131038
0.0054390153
0.0053612843
0.005280114
0.0051957579
0.0051085794
0.005019068
0.0049277731
0.004835186
0.0047417394
0.0046477605
0.0045534837
0.0044591281
0.0043649907
0.0042712497
0.0041780407
0.0040855819
0.0039936437
0.0039022926
0.0038111583
0.0037203947
0.0036294864
0.0062729641
0.0062445161
0.0062150098
0.0061841777
0.0061517445
0.0061174267
0.0060809356
0.0060419828
0.0060002827
0.0059555578
0.0059075448
0.0058560058
0.0058007403
0.005741598
0.0056784846
0.0056113696
0.0055402956
0.0054653787
0.005386787
0.0053047315
0.005219479
0.0051314123
0.0050410369
0.0049489082
0.0048555158
0.004761288
0.0046665496
0.0045715339
0.0044764615
0.0043816309
0.0042872176
0.0041933516
0.0041002496
0.0040076734
0.0039156854
0.0038239102
0.0037325051
0.0063868789
0.0063603061
0.0063334044
0.0063059211
0.0062775965
0.0062481644
0.0062173534
0.0061848842
0.0061504695
0.0061138173
0.0060746363
0.0060326382
0.0059875429
0.0059390863
0.0058870317
0.0058311819
0.0057713911
0.0057075693
0.0056396924
0.0055678116
0.0054920504
0.0054125827
0.005329628
0.0052434678
0.0051545038
0.0050632569
0.0049702877
0.004876083
0.004781067
0.004685562
0.0045898002
0.004494004
0.0043984735
0.0043033805
0.0042088493
0.0041150963
0.0040218738
0.0039292399
0.0038368144
0.0037447586
0.0065846447
0.0065549328
0.006526516
0.0064990821
0.0064723364
0.0064459936
0.0064197927
0.0063934739
0.0063667848
0.0063394693
0.006311264
0.0062818991
0.0062510994
0.0062185816
0.0061840554
0.0061472259
0.0061077987
0.0060654828
0.0060199964
0.0059710752
0.0059184844
0.0058620301
0.0058015703
0.0057370205
0.0056683636
0.0055956585
0.0055190361
0.0054386771
0.0053548093
0.0052677298
0.0051778593
0.0050857334
0.0049919167
0.0048968928
0.004801081
0.0047048019
0.004608287
0.0045117599
0.0044155223
0.0043197425
0.0042245385
0.0041301258
0.0040362481
0.0039429589
0.0038498736
0.0037571577
0.0069397727
0.0069166263
0.0068785949
0.0068356688
0.0067928946
0.006752342
0.0067145529
0.0066794207
0.0066466243
0.006615795
0.0065865685
0.0065586021
0.0065315829
0.006505216
0.0064792142
0.0064533145
0.0064272546
0.0064007794
0.0063736296
0.0063455383
0.0063162321
0.0062854324
0.0062528529
0.0062181998
0.0061811754
0.0061414829
0.0060988289
0.0060529304
0.0060035232
0.0059503746
0.0058932946
0.0058321455
0.0057668479
0.0056973919
0.0056238447
0.0055463444
0.0054650779
0.0053802831
0.0052922725
0.0052014864
0.005108474
0.0050138025
0.0049179518
0.0048213368
0.0047242762
0.0046270005
0.0045297351
0.0044327831
0.0043363084
0.0042404234
0.0041453426
0.0040508007
0.0039568468
0.0038630918
0.003769706
2.0780227e-06
7.0729176e-06
1.3671739e-05
2.1984165e-05
3.212356e-05
4.420631e-05
5.8344911e-05
7.4516246e-05
9.250286e-05
0.00011181304
0.00013174323
0.00015176822
0.000171572
0.00019094862
0.00020983521
0.00022821197
0.00024607917
0.00026348674
0.0002805391
0.00029717252
0.00031336951
0.0003292712
0.00034485294
0.00036012494
0.00037519821
0.00039001765
0.0004046843
0.00041919613
0.00043358414
0.0004478924
0.00046216634
0.00047643409
0.00049078626
0.00050519927
0.00051969427
0.00053437218
0.00054923992
0.00056437529
0.0005798237
0.00059565755
0.00061190594
0.00062868202
0.00064605688
0.00066414329
0.00068315293
0.0007032626
0.00072481614
0.00074838766
0.00077502648
0.00080716368
0.00085027534
0.00091168907
0.00099391265
0.0010997745
0.0012346248
0.0014061862
0.0016250913
0.0019055598
0.0022646826
0.0027177864
0.0032682545
0.003896898
0.0045624239
0.0052095011
0.0057847412
0.0062508564
0.0065921344
0.0068132069
0.0069333806
0.0069791061
0.0069768242
0.0069480972
0.0069076915
0.0068641631
0.0068216152
0.0067816069
0.0067444479
0.0067099421
0.0066777403
0.0066474659
0.0066187539
0.006591262
0.0065646774
0.0065387044
0.0065130547
0.006487463
0.006461665
0.0064354033
0.0064084153
0.0063804311
0.0063511739
0.0063203621
0.0062877063
0.0062529099
0.0062156727
0.0061756951
0.0061326821
0.0060863497
0.0060364345
0.0059827069
0.0059249799
0.0058631202
0.0057970544
0.0057267803
0.0056523729
0.0055739774
0.0054917875
0.0054060514
0.0053170985
0.0052253876
0.0051314806
0.0050359469
0.004939262
0.0048418362
0.0047439862
0.0046459421
0.0045479312
0.0044502572
0.0043530798
0.0042565052
0.0041607476
0.0040655324
0.0039709039
0.0038764694
0.0037824039
2.6580785e-06
8.9207335e-06
1.6992148e-05
2.6995581e-05
3.9057173e-05
5.3308343e-05
6.9861878e-05
8.8660522e-05
0.00010939865
0.00013144954
0.0001539787
0.00017639344
0.00019837132
0.00021973075
0.00024044402
0.00026052337
0.00027999523
0.0002989312
0.00031745541
0.00033551195
0.00035309134
0.00037034801
0.00038726131
0.00040384633
0.00042022289
0.00043633636
0.00045229536
0.00046810002
0.00048378541
0.00049939973
0.00051499287
0.00053059618
0.00054630693
0.00056210226
0.0005780067
0.00059412816
0.00061047632
0.00062713526
0.00064415539
0.00066161576
0.00067955055
0.00069808288
0.00071729267
0.00073730509
0.00075835131
0.00078062891
0.00080451618
0.00083064164
0.00086014644
0.00089563947
0.00094294946
0.0010098776
0.0010989111
0.0012127776
0.0013569672
0.0015395075
0.0017714642
0.0020674691
0.0024444695
0.0029161401
0.0034819801
0.0041180875
0.0047795872
0.0054100631
0.0059587654
0.0063929974
0.0067020422
0.0068946694
0.0069926927
0.0070232329
0.0070119038
0.0069786427
0.0069365117
0.0068927417
0.0068506104
0.0068112502
0.0067747864
0.006740955
0.0067093856
0.0066796979
0.0066515271
0.0066245316
0.0065983984
0.006572832
0.006547543
0.0065222645
0.0064967299
0.0064706794
0.0064438479
0.0064159622
0.0063867432
0.006355906
0.0063231584
0.0062882014
0.0062507322
0.0062104489
0.0061670553
0.0061202669
0.0060698215
0.0060154921
0.0059570962
0.0058945048
0.0058276502
0.0057565381
0.005681252
0.0056019438
0.0055188143
0.0054321227
0.0053422156
0.0052495708
0.0051547616
0.0050583581
0.004960831
0.0048625861
0.0047639389
0.0046651187
0.0045663543
0.0044679505
0.0043700624
0.0042727896
0.004176346
0.0040804477
0.0039851346
0.0038900103
3.2922834e-06
1.0934255e-05
2.0588418e-05
3.2400824e-05
4.6516148e-05
6.3075248e-05
8.2189673e-05
0.00010375827
0.00012737774
0.00015227655
0.00017748893
0.00020236124
0.00022657111
0.0002499653
0.0002725532
0.00029438015
0.00031549922
0.00033600471
0.00035604032
0.00037555869
0.00039455848
0.0004132076
0.00043148977
0.00044942517
0.00046714248
0.00048458776
0.00050187738
0.00051901401
0.00053603656
0.00055299772
0.00056995171
0.00058693344
0.00060404666
0.00062126951
0.00063862981
0.0006562426
0.0006741203
0.00069235337
0.00071099728
0.00073013785
0.00074981427
0.0007701597
0.00079126288
0.00081326133
0.00083640543
0.00086091325
0.00088719668
0.00091593684
0.000948363
0.00098725118
0.0010387634
0.0011111751
0.0012069887
0.0013288342
0.0014823542
0.001675901
0.0019209834
0.0022325932
0.0026273528
0.003116913
0.0036965934
0.0043378903
0.0049925812
0.0056040094
0.0061246056
0.0065265181
0.0068039725
0.0069695819
0.0070472418
0.0070643246
0.0070453365
0.0070084922
0.0069652048
0.0069215013
0.0068799476
0.0068413252
0.0068056137
0.0067724988
0.0067415965
0.0067125244
0.0066849187
0.0066584385
0.0066327716
0.0066076227
0.0065827013
0.0065577384
0.0065324664
0.0065066235
0.0064799417
0.0064521451
0.0064229517
0.0063920744
0.0063592187
0.0063240826
0.0062863611
0.0062457511
0.0062019546
0.0061546873
0.006103689
0.0060487357
0.0059896486
0.0059263034
0.0058586391
0.0057866693
0.0057104855
0.0056302467
0.0055461611
0.0054584998
0.005367627
0.005274039
0.0051783195
0.0050810384
0.0049826612
0.0048835892
0.0047841366
0.0046845322
0.0045850066
0.0044858652
0.0043872576
0.0042892777
0.004192139
0.0040955483
0.0039995403
0.0039037157
3.9751195e-06
1.3090757e-05
2.4431755e-05
3.815781e-05
5.4428689e-05
7.340427e-05
9.5193422e-05
0.00011965001
0.00014626124
0.00017410326
0.0002020784
0.00022947721
0.00025598282
0.000281472
0.00030599199
0.00032962154
0.00035244031
0.0003745654
0.00039616091
0.00041718762
0.00043765292
0.00045773848
0.00047743238
0.00049676025
0.00051585983
0.00053467815
0.00055333911
0.00057184819
0.0005902482
0.0006085966
0.00062695191
0.00064535279
0.0006639095
0.00068260137
0.00070145941
0.00072060615
0.00074005668
0.00075990786
0.00078022022
0.00080108635
0.00082255063
0.00084475606
0.00086780014
0.00089183263
0.0009171229
0.00094390902
0.00097263558
0.0010040347
0.0010394202
0.0010817251
0.0011374268
0.0012152775
0.0013178348
0.0014476334
0.0016104785
0.0018150645
0.0020733451
0.002400604
0.0028129308
0.0033195657
0.0039114027
0.0045554937
0.0052006371
0.0057907498
0.0062819438
0.0066513986
0.0068981637
0.0070383497
0.0070974875
0.0071028011
0.0070774472
0.0070378711
0.0069939199