/*--------------------------------*- C++ -*----------------------------------*\
| =========                 |                                                 |
| \\      /  F ield         | OpenFOAM: The Open Source CFD Toolbox           |
|  \\    /   O peration     | Version:  2506                                  |
|   \\  /    A nd           | Website:  www.openfoam.com                      |
|    \\/     M anipulation  |                                                 |
\*---------------------------------------------------------------------------*/
FoamFile
{
    version     2.0;
    format      ascii;
    arch        "LSB;label=32;scalar=64";
    class       volScalarField;
    location    "0.0175";
    object      Ma;
}
// * * * * * * * * * * * * * * * * * * * * * * * * * * * * * * * * * * * * * //

dimensions      [0 0 0 0 0 0 0];

internalField   nonuniform List<scalar> 
13763
(
0.31092928
0.31169066
0.31242817
0.31313822
0.31382367
0.31449458
0.31516888
0.31586703
0.31660997
0.31741697
0.31830403
0.31928548
0.32037442
0.32158415
0.32293037
0.32443083
0.3261051
0.32797305
0.33004742
0.33233657
0.33483305
0.33750176
0.3403477
0.34308971
0.34640291
0.34791701
0.35329106
0.35106352
0.36015079
0.35351778
0.35506002
0.35361917
0.34435071
0.34496988
0.33558492
0.33504373
0.32637346
0.32508249
0.31911016
0.31700822
0.3136806
0.31143967
0.3094878
0.30792595
0.30665041
0.3055994
0.30473069
0.30401243
0.31093063
0.31169256
0.31243059
0.3131411
0.31382695
0.3144982
0.31517278
0.31587117
0.31661431
0.31742148
0.31830866
0.31929017
0.32037911
0.32158875
0.32293479
0.32443499
0.32610896
0.32797659
0.33005072
0.33233978
0.33483643
0.3375056
0.34035247
0.34309542
0.3464109
0.34792415
0.35330437
0.35106997
0.36016852
0.35352268
0.35507994
0.35363159
0.34435258
0.34497916
0.33558405
0.33504892
0.32637
0.3250835
0.31910668
0.31700679
0.31367801
0.31143744
0.30948562
0.30792394
0.3066486
0.30559779
0.30472926
0.30401118
0.30341645
0.30294331
0.31093207
0.31169459
0.31243316
0.31314416
0.31383043
0.31450203
0.31517691
0.31587555
0.31661891
0.31742625
0.31831357
0.31929514
0.32038407
0.32159361
0.32293947
0.3244394
0.32611305
0.32798036
0.33005422
0.33234319
0.33484
0.33750967
0.34035752
0.34310146
0.34641933
0.34793171
0.35331845
0.35107681
0.36018732
0.35352788
0.35510115
0.35364483
0.34435455
0.34498915
0.33558316
0.33505458
0.32636637
0.32508466
0.31910303
0.31700533
0.31367531
0.31143512
0.30948334
0.30792184
0.30664669
0.30559609
0.30472776
0.30400985
0.30341529
0.30294228
0.30258305
0.31093352
0.31169666
0.31243581
0.31314733
0.31383405
0.31450602
0.31518122
0.31588013
0.31662372
0.31743125
0.3183187
0.31930035
0.32038927
0.32159872
0.32294438
0.32444403
0.32611734
0.32798431
0.33005789
0.33234675
0.33484373
0.33751391
0.34036277
0.34310776
0.34642812
0.34793966
0.35333307
0.35108418
0.36020675
0.35353373
0.35512298
0.35365895
0.34435687
0.34499959
0.33558247
0.33506041
0.32636281
0.3250858
0.31909938
0.31700376
0.31367253
0.31143269
0.30948096
0.30791965
0.30664471
0.30559431
0.30472618
0.30400847
0.30341407
0.30294121
0.30258213
0.30225986
0.30195582
0.31093499
0.31169878
0.31243855
0.31315062
0.31383782
0.31451018
0.31518572
0.31588493
0.31662876
0.31743649
0.31832409
0.31930582
0.32039474
0.32160408
0.32294954
0.3244489
0.32612185
0.32798846
0.33006175
0.33235049
0.33484764
0.33751835
0.34036828
0.34311438
0.34643732
0.34794805
0.35334831
0.35109206
0.36022696
0.35354009
0.35514564
0.35367379
0.34435947
0.34501043
0.3355819
0.33506642
0.32635922
0.32508691
0.31909564
0.31700207
0.31366964
0.31143014
0.30947848
0.30791736
0.30664263
0.30559245
0.30472453
0.30400701
0.30341279
0.30294009
0.30258116
0.302259
0.30195503
0.30189295
0.30222209
0.31093648
0.31170096
0.31244139
0.31315405
0.31384175
0.31451454
0.31519044
0.31588995
0.31663405
0.317442
0.31832976
0.31931158
0.3204005
0.32160974
0.322955
0.32445404
0.32612662
0.32799285
0.33006583
0.33235445
0.33485177
0.33752303
0.34037407
0.34312133
0.34644698
0.3479569
0.35336427
0.35110043
0.36024811
0.35354686
0.3551694
0.35368932
0.34436228
0.34502174
0.33558137
0.33507266
0.32635549
0.32508803
0.31909172
0.31700027
0.31366661
0.31142746
0.30947586
0.30791495
0.30664045
0.3055905
0.3047228
0.30400549
0.30341144
0.30293892
0.30258015
0.3022581
0.3019542
0.30189229
0.30222172
0.30242924
0.30184757
0.31093799
0.31170321
0.31244434
0.31315762
0.31384586
0.31451911
0.31519539
0.31589524
0.31663961
0.3174478
0.31833574
0.31931765
0.32040658
0.32161572
0.32296075
0.32445948
0.32613167
0.3279975
0.33007015
0.33235862
0.33485612
0.33752796
0.34038016
0.34312865
0.34645712
0.34796624
0.35338101
0.35110932
0.3602703
0.35355405
0.35519436
0.35370558
0.3443653
0.34503356
0.33558087
0.33507918
0.3263516
0.3250892
0.31908762
0.31699838
0.31366342
0.31142464
0.30947311
0.30791241
0.30663815
0.30558845
0.30472098
0.30400388
0.30341003
0.30293768
0.30257908
0.30225715
0.30195332
0.30189158
0.30222132
0.30242882
0.3018469
0.30064371
0.2995254
0.29890089
0.31093952
0.31170553
0.31244739
0.31316134
0.31385016
0.31452389
0.31520059
0.31590078
0.31664546
0.31745389
0.31834202
0.31932405
0.32041299
0.32162202
0.32296684
0.32446523
0.32613702
0.32800242
0.33007472
0.33236304
0.33486072
0.33753315
0.34038657
0.34313636
0.34646777
0.3479761
0.35339855
0.35111878
0.36029355
0.35356171
0.35522057
0.35372262
0.34436856
0.34504593
0.33558042
0.33508598
0.32634757
0.32509039
0.31908333
0.31699638
0.31366007
0.31142167
0.30947023
0.30790975
0.30663574
0.30558629
0.30471906
0.30400219
0.30340855
0.30293638
0.30257796
0.30225615
0.3019524
0.30189084
0.30222089
0.30242838
0.30184619
0.30064282
0.29952451
0.2989001
0.29874635
0.29892423
0.31094105
0.3117079
0.31245055
0.3131652
0.31385464
0.31452888
0.31520602
0.3159066
0.3166516
0.31746031
0.31834864
0.31933079
0.32041975
0.32162867
0.32297326
0.32447131
0.32614267
0.32800763
0.33007956
0.33236771
0.33486557
0.33753863
0.34039331
0.34314447
0.34647894
0.34798652
0.35341694
0.35112884
0.3603179
0.35356989
0.35524805
0.35374048
0.3443721
0.34505885
0.33558004
0.33509306
0.32634339
0.3250916
0.31907885
0.31699426
0.31365655
0.31141855
0.30946719
0.30790695
0.3066332
0.30558402
0.30471705
0.30400042
0.30340699
0.30293502
0.30257678
0.3022551
0.30195143
0.30189006
0.30222045
0.30242792
0.30184545
0.30064189
0.29952357
0.29889928
0.29874571
0.29892391
0.31094258
0.31171031
0.31245381
0.31316922
0.31385931
0.31453411
0.31521172
0.31591269
0.31665805
0.31746705
0.3183556
0.31933788
0.32042687
0.3216357
0.32298005
0.32447774
0.32614865
0.32801314
0.33008468
0.33237265
0.33487069
0.33754439
0.3404004
0.343153
0.34649067
0.34799752
0.35343619
0.35113955
0.36034338
0.35357863
0.35527685
0.3537592
0.34437593
0.34507234
0.33557974
0.33510044
0.32633907
0.32509284
0.31907418
0.31699202
0.31365287
0.31141527
0.309464
0.30790401
0.30663053
0.30558163
0.30471494
0.30399856
0.30340535
0.30293358
0.30257555
0.302254
0.30195041
0.30188925
0.30221999
0.30242744
0.30184467
0.30064091
0.29952259
0.29889842
0.29874504
0.29892358
0.3109441
0.31171278
0.31245717
0.31317338
0.31386417
0.31453956
0.31521768
0.31591909
0.31666482
0.31747413
0.31836293
0.31934536
0.32043438
0.32164311
0.32298722
0.32448454
0.32615498
0.32801899
0.3300901
0.33237788
0.33487609
0.33755047
0.34040785
0.34316198
0.34650298
0.34800914
0.35345635
0.35115096
0.36037006
0.35358797
0.35530706
0.35377881
0.34438009
0.34508644
0.33557954
0.33510812
0.32633461
0.32509409
0.31906931
0.31698964
0.313649
0.31141182
0.30946065
0.30790092
0.30662773
0.30557913
0.30471271
0.3039966
0.30340363
0.30293208
0.30257425
0.30225285
0.30194934
0.3018884
0.30221951
0.30242693
0.30184385
0.30063988
0.29952155
0.29889752
0.29874434
0.29892323
0.31094559
0.31171528
0.31246062
0.3131777
0.31386923
0.31454526
0.31522392
0.31592579
0.31667193
0.31748158
0.31837064
0.31935324
0.32044231
0.32165094
0.32299481
0.32449173
0.32616169
0.32802518
0.33009585
0.33238341
0.3348818
0.33755688
0.34041569
0.34317144
0.3465159
0.34802142
0.35347747
0.35116311
0.36039799
0.35359795
0.35533874
0.35379936
0.34438459
0.34510115
0.33557944
0.33511611
0.32632999
0.32509536
0.31906423
0.31698712
0.31364494
0.31140819
0.30945713
0.30789767
0.30662479
0.3055765
0.30471038
0.30399455
0.30340182
0.3029305
0.30257288
0.30225163
0.30194821
0.3018875
0.302219
0.30242639
0.30184299
0.30063879
0.29952047
0.29889657
0.29874361
0.29892286
0.31094704
0.3117178
0.31246416
0.31318216
0.3138745
0.3145512
0.31523044
0.31593282
0.31667939
0.31748941
0.31837875
0.31936153
0.32045066
0.3216592
0.32300282
0.32449935
0.3261688
0.32803174
0.33010194
0.33238928
0.33488784
0.33756363
0.34042395
0.34318139
0.34652946
0.3480344
0.35349958
0.35117606
0.36042721
0.35360862
0.35537195
0.35382088
0.34438946
0.34511652
0.33557945
0.33512441
0.32632523
0.32509663
0.31905893
0.31698445
0.31364068
0.31140437
0.30945343
0.30789425
0.3066217
0.30557373
0.30470793
0.30399239
0.30339992
0.30292884
0.30257145
0.30225035
0.30194703
0.30188657
0.30221847
0.30242582
0.30184208
0.30063765
0.29951933
0.29889557
0.29874284
0.29892248
0.31094843
0.31172033
0.31246779
0.31318677
0.31387996
0.31455739
0.31523726
0.31594018
0.31668721
0.31749763
0.31838729
0.31937028
0.32045948
0.32166793
0.3230113
0.32450741
0.32617633
0.32803871
0.3301084
0.33239549
0.33489422
0.33757076
0.34043263
0.34319187
0.34654369
0.34804811
0.35352274
0.35118986
0.36045779
0.35362004
0.35540679
0.35384342
0.34439475
0.34513255
0.3355796
0.33513305
0.32632032
0.32509791
0.3190534
0.31698162
0.31363622
0.31140036
0.30944954
0.30789066
0.30661845
0.30557082
0.30470535
0.30399012
0.30339793
0.30292709
0.30256994
0.30224901
0.30194579
0.30188559
0.30221792
0.30242523
0.30184112
0.30063645
0.29951813
0.29889452
0.29874203
0.29892207
0.31094974
0.31172286
0.31247148
0.31319151
0.31388562
0.31456384
0.31524438
0.31594788
0.31669542
0.31750627
0.31839627
0.31937949
0.32046878
0.32167715
0.32302027
0.32451595
0.32618432
0.3280461
0.33011527
0.33240207
0.33490098
0.33757828
0.34044177
0.3432029
0.34655863
0.34806261
0.35354699
0.35120457
0.36048979
0.35363225
0.35544331
0.35386703
0.34440047
0.34514928
0.3355799
0.33514203
0.32631526
0.3250992
0.31904764
0.31697861
0.31363153
0.31139613
0.30944544
0.30788689
0.30661503
0.30556777
0.30470264
0.30398773
0.30339583
0.30292526
0.30256836
0.30224759
0.30194448
0.30188456
0.30221734
0.3024246
0.30184012
0.30063519
0.29951687
0.29889343
0.29874118
0.29892164
0.31095094
0.31172536
0.31247523
0.31319639
0.31389149
0.31457054
0.31525181
0.31595594
0.31670403
0.31751535
0.31840572
0.31938919
0.3204786
0.3216869
0.32302976
0.324525
0.3261928
0.32805394
0.33012255
0.33240906
0.33490812
0.33758622
0.3404514
0.34321452
0.34657431
0.34807795
0.35357237
0.35122026
0.36052325
0.35364533
0.35548161
0.35389175
0.34440667
0.34516674
0.33558037
0.33515135
0.32631004
0.32510048
0.31904164
0.31697543
0.31362661
0.31139168
0.30944114
0.30788292
0.30661144
0.30556455
0.30469979
0.30398522
0.30339362
0.30292333
0.30256669
0.30224611
0.30194311
0.30188349
0.30221674
0.30242394
0.30183906
0.30063386
0.29951554
0.29889227
0.29874029
0.29892119
0.310952
0.31172782
0.31247901
0.31320139
0.31389754
0.3145775
0.31525955
0.31596436
0.31671305
0.31752488
0.31841566
0.31939942
0.32048895
0.3216972
0.3230398
0.3245346
0.32620179
0.32806228
0.3301303
0.33241647
0.33491569
0.33759461
0.34046153
0.34322677
0.34659076
0.34809418
0.35359895
0.351237
0.36055825
0.35365932
0.35552177
0.35391764
0.3444134
0.34518496
0.33558102
0.33516103
0.32630467
0.32510175
0.31903538
0.31697205
0.31362144
0.311387
0.30943662
0.30787875
0.30660766
0.30556118
0.3046968
0.30398259
0.30339131
0.30292131
0.30256495
0.30224454
0.30194166
0.30188236
0.3022161
0.30242325
0.30183795
0.30063247
0.29951415
0.29889106
0.29873936
0.29892072
0.31095289
0.3117302
0.31248282
0.31320649
0.31390379
0.31458473
0.31526762
0.31597317
0.3167225
0.31753488
0.31842612
0.31941019
0.32049988
0.32170808
0.32305043
0.32454477
0.32621135
0.32807115
0.33013853
0.33242435
0.33492371
0.33760346
0.3404722
0.34323967
0.34660804
0.34811134
0.35362676
0.35125485
0.36059485
0.35367431
0.3555639
0.35394473
0.34442068
0.34520396
0.33558189
0.33517107
0.32629915
0.325103
0.31902886
0.31696847
0.31361602
0.31138208
0.30943187
0.30787436
0.30660369
0.30555763
0.30469365
0.30397982
0.30338887
0.30291918
0.30256311
0.3022429
0.30194014
0.30188119
0.30221544
0.30242252
0.30183678
0.300631
0.29951269
0.29888979
0.29873838
0.29892023
0.31095357
0.31173247
0.31248662
0.31321169
0.31391022
0.31459221
0.31527602
0.31598236
0.31673239
0.31754538
0.31843711
0.31942154
0.32051141
0.32171959
0.32306169
0.32455556
0.3262215
0.32808058
0.3301473
0.33243272
0.33493221
0.33761282
0.34048345
0.34325326
0.34662616
0.34812951
0.35365588
0.35127391
0.36063311
0.35369036
0.35560808
0.35397309
0.34442857
0.34522378
0.33558298
0.33518149
0.32629348
0.32510423
0.31902207
0.31696466
0.31361033
0.3113769
0.30942687
0.30786975
0.30659951
0.30555389
0.30469034
0.3039769
0.30338631
0.30291695
0.30256118
0.30224117
0.30193855
0.30187996
0.30221475
0.30242175
0.30183554
0.30062946
0.29951116
0.29888846
0.29873736
0.29891971
0.31095398
0.31173459
0.31249038
0.31321695
0.31391681
0.31459994
0.31528474
0.31599195
0.31674274
0.31755639
0.31844866
0.31943349
0.32052357
0.32173175
0.32307361
0.32456701
0.32623229
0.32809061
0.33015662
0.33244162
0.33494122
0.33762272
0.34049529
0.34326758
0.34664519
0.34814874
0.35368635
0.35129426
0.3606731
0.35370756
0.35565442
0.35400276
0.34443712
0.34524444
0.33558434
0.33519229
0.32628766
0.32510542
0.319015
0.31696062
0.31360435
0.31137144
0.30942162
0.30786491
0.30659512
0.30554997
0.30468687
0.30397384
0.30338362
0.3029146
0.30255916
0.30223935
0.30193687
0.30187867
0.30221402
0.30242093
0.30183424
0.30062784
0.29950954
0.29888706
0.29873629
0.29891916
0.31095406
0.31173651
0.31249407
0.31322226
0.31392354
0.31460791
0.31529378
0.31600193
0.31675356
0.31756793
0.3184608
0.31944607
0.32053641
0.32174461
0.32308625
0.32457916
0.32624376
0.32810129
0.33016656
0.3324511
0.33495079
0.33763319
0.34050778
0.34328268
0.34666515
0.3481691
0.35371823
0.35131598
0.3607149
0.35372597
0.35570304
0.35403381
0.34444638
0.34526598
0.33558597
0.33520348
0.32628169
0.32510657
0.31900764
0.31695634
0.31359807
0.31136571
0.30941609
0.30785981
0.30659051
0.30554584
0.30468321
0.30397063
0.3033808
0.30291214
0.30255703
0.30223743
0.3019351
0.30187732
0.30221326
0.30242007
0.30183288
0.30062613
0.29950785
0.29888559
0.29873516
0.29891859
0.31095376
0.31173817
0.31249764
0.31322758
0.3139304
0.31461611
0.31530315
0.31601232
0.31676486
0.31758002
0.31847356
0.31945932
0.32054996
0.32175821
0.32309963
0.32459207
0.32625597
0.32811268
0.33017715
0.33246119
0.33496095
0.33764426
0.34052094
0.3432986
0.34668611
0.34819066
0.3537516
0.35133917
0.36075859
0.3537457
0.35575406
0.3540663
0.34445641
0.34528844
0.33558792
0.33521507
0.32627557
0.32510767
0.31899997
0.31695179
0.31359148
0.31135966
0.30941027
0.30785445
0.30658566
0.30554151
0.30467937
0.30396724
0.30337783
0.30290955
0.30255479
0.30223542
0.30193325
0.30187591
0.30221247
0.30241917
0.30183144
0.30062434
0.29950607
0.29888404
0.29873398
0.29891798
0.310953
0.31173952
0.31250103
0.31323285
0.31393736
0.31462452
0.31531283
0.31602312
0.31677664
0.31759268
0.31848694
0.31947327
0.32056425
0.32177259
0.32311382
0.32460577
0.32626896
0.32812481
0.33018846
0.33247194
0.33497175
0.33765599
0.34053482
0.34331539
0.34670811
0.34821349
0.35378652
0.35136394
0.36080423
0.35376684
0.3558076
0.35410027
0.34446728
0.34531186
0.33559021
0.33522707
0.3262693
0.3251087
0.31899199
0.31694695
0.31358456
0.31135331
0.30940416
0.30784881
0.30658055
0.30553695
0.30467533
0.30396369
0.3033747
0.30290683
0.30255244
0.3022333
0.3019313
0.30187444
0.30221164
0.30241821
0.30182992
0.30062245
0.2995042
0.29888242
0.29873274
0.29891734
0.31095167
0.31174046
0.31250418
0.31323804
0.31394437
0.31463311
0.31532281
0.31603432
0.31678893
0.31760592
0.31850099
0.31948794
0.32057932
0.32178779
0.32312885
0.32462033
0.32628279
0.32813776
0.33020052
0.33248342
0.33498323
0.33766842
0.34054947
0.3433331
0.3467312
0.34823769
0.35382306
0.3513904
0.36085192
0.35378948
0.3558638
0.35413579
0.34447904
0.34533626
0.33559288
0.33523949
0.3262629
0.32510966
0.31898369
0.31694182
0.31357728
0.31134661
0.30939773
0.30784288
0.30657518
0.30553215
0.30467108
0.30395995
0.30337142
0.30290397
0.30254996
0.30223107
0.30192926
0.30187291
0.30221077
0.3024172
0.30182832
0.30062047
0.29950223
0.29888072
0.29873145
0.29891667
0.31094967
0.31174091
0.31250701
0.31324309
0.31395138
0.31464185
0.31533306
0.31604591
0.31680171
0.31761975
0.31851571
0.31950337
0.32059522
0.32180386
0.32314479
0.32463581
0.32629752
0.32815158
0.33021341
0.33249566
0.33499546
0.3376816
0.34056492
0.34335178
0.34675543
0.34826332
0.35386129
0.35141865
0.36090174
0.35381373
0.3559228
0.35417293
0.34449177
0.3453617
0.33559596
0.33525233
0.32625635
0.32511053
0.31897505
0.31693637
0.31356964
0.31133957
0.30939096
0.30783664
0.30656954
0.3055271
0.30466661
0.30395602
0.30336797
0.30290097
0.30254736
0.30222872
0.3019271
0.3018713
0.30220986
0.30241613
0.30182664
0.30061839
0.29950017
0.29887894
0.29873009
0.29891597
0.31094688
0.31174075
0.31250943
0.3132479
0.31395834
0.31465069
0.31534356
0.31605788
0.31681498
0.31763419
0.31853114
0.31951959
0.32061198
0.32182086
0.32316169
0.32465227
0.32631323
0.32816633
0.33022719
0.33250875
0.33500848
0.33769557
0.34058123
0.3433715
0.34678087
0.34829049
0.35390128
0.35144884
0.36095378
0.3538397
0.35598477
0.35421175
0.34450555
0.34538821
0.33559949
0.33526561
0.32624967
0.32511129
0.31896605
0.31693059
0.31356161
0.31133215
0.30938384
0.30783008
0.3065636
0.3055218
0.30466192
0.30395189
0.30336434
0.30289781
0.30254463
0.30222625
0.30192484
0.30186963
0.3022089
0.30241501
0.30182487
0.30061619
0.299498
0.29887707
0.29872867
0.29891523
0.31094314
0.31173986
0.31251132
0.3132524
0.31396518
0.31465959
0.31535427
0.3160702
0.31682875
0.31764923
0.31854729
0.31953662
0.32062964
0.32183883
0.32317961
0.32466976
0.32632998
0.3281821
0.33024194
0.33252274
0.33502237
0.33771041
0.34059847
0.34339231
0.34680758
0.34831929
0.35394313
0.35148108
0.36100813
0.35386751
0.35604986
0.35425232
0.34452046
0.34541584
0.33560351
0.33527933
0.32624285
0.32511193
0.31895669
0.31692444
0.31355316
0.31132434
0.30937635
0.30782317
0.30655735
0.30551622
0.30465698
0.30394754
0.30336053
0.3028945
0.30254176
0.30222364
0.30192247
0.30186788
0.3022079
0.30241381
0.301823
0.30061389
0.29949572
0.2988751
0.29872717
0.29891444
0.31093828
0.31173807
0.31251256
0.31325646
0.3139718
0.31466847
0.31536515
0.31608285
0.31684299
0.31766489
0.31856417
0.3195545
0.32064825
0.32185782
0.32319861
0.32468837
0.32634784
0.32819897
0.33025773
0.33253772
0.33503719
0.33772617
0.34061667
0.34341429
0.34683561
0.34834982
0.35398692
0.35151553
0.36106489
0.35389729
0.35611826
0.3542947
0.34453658
0.34544463
0.33560807
0.3352935
0.3262359
0.32511243
0.31894695
0.31691791
0.31354428
0.31131611
0.30936846
0.30781591
0.30655077
0.30551034
0.30465178
0.30394297
0.30335652
0.30289101
0.30253874
0.3022209
0.30191998
0.30186606
0.30220686
0.30241255
0.30182104
0.30061146
0.29949333
0.29887304
0.29872561
0.29891362
0.31093209
0.31173521
0.31251297
0.31325996
0.3139781
0.31467724
0.31537612
0.31609578
0.31685767
0.31768115
0.3185818
0.31957326
0.32066783
0.32187788
0.32321875
0.32470816
0.3263669
0.32821701
0.33027466
0.33255377
0.33505302
0.33774293
0.34063592
0.3434375
0.34686505
0.3483822
0.35403274
0.35155232
0.36112418
0.35392916
0.35619015
0.35433897
0.34455402
0.34547465
0.3356132
0.33530813
0.32622883
0.32511278
0.31893681
0.31691098
0.31353494
0.31130745
0.30936017
0.30780826
0.30654386
0.30550417
0.30464632
0.30393816
0.3033523
0.30288735
0.30253556
0.30221802
0.30191736
0.30186416
0.30220576
0.30241121
0.30181896
0.30060891
0.29949082
0.29887088
0.29872397
0.29891275
0.31092433
0.31173105
0.31251238
0.31326273
0.31398393
0.31468581
0.31538711
0.31610894
0.31687278
0.317698
0.31860017
0.3195929
0.32068844
0.32189907
0.3232401
0.32472922
0.32638724
0.32823633
0.33029281
0.33257098
0.33506994
0.33776077
0.34065629
0.34346202
0.34689595
0.34841653
0.35408068
0.35159162
0.3611861
0.35396326
0.35626575
0.3543852
0.34457288
0.34550594
0.33561897
0.33532324
0.32622164
0.32511296
0.31892626
0.31690362
0.31352512
0.31129833
0.30935143
0.30780021
0.30653658
0.30549767
0.30464057
0.30393311
0.30334787
0.3028835
0.30253222
0.30221498
0.30191462
0.30186218
0.3022046
0.30240979
0.30181678
0.30060623
0.29948818
0.29886861
0.29872226
0.29891184
0.31091471
0.31172535
0.31251055
0.31326458
0.31398915
0.31469403
0.31539801
0.31612224
0.31688824
0.31771541
0.31861929
0.31961345
0.3207101
0.32192143
0.32326272
0.32475162
0.32640897
0.32825701
0.33031229
0.33258945
0.33508806
0.33777977
0.34067785
0.34348795
0.3469284
0.34845295
0.35413084
0.3516336
0.36125078
0.35399975
0.35634527
0.35443347
0.34459325
0.34553856
0.33562541
0.33533882
0.32621433
0.32511293
0.31891527
0.3168958
0.31351478
0.31128872
0.30934224
0.30779174
0.30652892
0.30549083
0.30463453
0.30392779
0.30334321
0.30287946
0.30252871
0.30221177
0.30191173
0.30186012
0.30220339
0.30240829
0.30181448
0.30060341
0.2994854
0.29886623
0.29872046
0.29891087
0.3109029
0.31171779
0.31250721
0.31326527
0.31399354
0.31470174
0.3154087
0.3161356
0.316904
0.31773333
0.31863913
0.31963491
0.32073284
0.32194503
0.3232867
0.32477545
0.32643217
0.32827919
0.33033321
0.33260929
0.33510748
0.33780003
0.34070069
0.34351535
0.34696249
0.34849159
0.35418335
0.35167843
0.36131833
0.35403876
0.35642896
0.35448385
0.34461525
0.34557257
0.3356326
0.33535489
0.32620691
0.32511269
0.31890383
0.3168875
0.3135039
0.3112786
0.30933256
0.30778283
0.30652085
0.30548364
0.30462817
0.3039222
0.30333831
0.30287521
0.30252501
0.3022084
0.30190871
0.30185797
0.30220212
0.30240669
0.30181206
0.30060045
0.29948249
0.29886373
0.29871858
0.29890985
0.31088849
0.31170801
0.31250204
0.31326451
0.31399687
0.31470875
0.31541901
0.31614888
0.31691997
0.31775173
0.31865967
0.31965729
0.32075668
0.32196989
0.32331208
0.32480081
0.32645696
0.32830296
0.3303557
0.33263064
0.33512831
0.33782166
0.3407249
0.34354435
0.34699829
0.34853258
0.35423829
0.35172629
0.3613889
0.35408047
0.35651706
0.35453642
0.34463901
0.34560805
0.33564058
0.33537145
0.32619938
0.32511221
0.31889191
0.31687869
0.31349245
0.31126794
0.30932236
0.30777344
0.30651236
0.30547607
0.30462148
0.30391632
0.30333316
0.30287074
0.30252112
0.30220485
0.30190555
0.30185573
0.30220078
0.302405
0.30180951
0.30059733
0.29947943
0.29886111
0.29871661
0.29890878
0.31087102
0.31169559
0.31249467
0.31326199
0.31399884
0.31471481
0.31542875
0.31616194
0.31693603
0.3177705
0.31868086
0.31968056
0.32078164
0.32199607
0.32333894
0.32482776
0.32648343
0.32832845
0.33037989
0.33265362
0.33515069
0.33784477
0.34075059
0.34357503
0.34703591
0.34857608
0.35429581
0.3517774
0.36146264
0.35412503
0.35660986
0.35459127
0.34466465
0.34564505
0.33564942
0.33538852
0.32619174
0.32511145
0.31887949
0.31686934
0.31348039
0.31125671
0.30931163
0.30776356
0.30650343
0.3054681
0.30461444
0.30391013
0.30332774
0.30286605
0.30251702
0.30220111
0.30190223
0.3018534
0.30219936
0.30240321
0.30180682
0.30059406
0.29947622
0.29885836
0.29871454
0.29890765
0.3108499
0.31168003
0.31248463
0.31325727
0.31399911
0.31471961
0.31543767
0.31617457
0.31695203
0.31778955
0.31870262
0.31970469
0.32080772
0.32202359
0.32336735
0.32485642
0.32651171
0.3283558
0.33040594
0.33267838
0.33517475
0.3378695
0.34077788
0.34360753
0.34707543
0.34862223
0.35435602
0.35183196
0.36153969
0.35417262
0.35670765
0.35464848
0.3446923
0.34568366
0.33565918
0.33540612
0.32618401
0.32511041
0.31886654
0.31685941
0.31346768
0.31124488
0.30930032
0.30775315
0.30649402
0.30545971
0.30460703
0.30390362
0.30332204
0.30286111
0.30251271
0.30219717
0.30189875
0.30185097
0.30219787
0.3024013
0.30180398
0.30059062
0.29947284
0.29885548
0.29871238
0.29890645
0.31082446
0.3116607
0.31247137
0.31324989
0.31399725
0.31472281
0.31544546
0.31618653
0.31696777
0.31780872
0.31872487
0.31972962
0.3208349
0.32205248
0.32339735
0.32488686
0.32654192
0.32838516
0.33043398
0.33270509
0.33520066
0.33789599
0.34080689
0.34364196
0.34711699
0.34867122
0.35441906
0.35189019
0.36162023
0.35422342
0.35681075
0.35470815
0.3447221
0.34572396
0.33566994
0.33542424
0.32617618
0.32510903
0.31885304
0.31684887
0.31345429
0.31123241
0.30928841
0.30774219
0.30648411
0.30545088
0.30459923
0.30389677
0.30331605
0.30285593
0.30250817
0.30219301
0.30189511
0.30184845
0.30219629
0.30239928
0.301801
0.30058701
0.2994693
0.29885245
0.29871012
0.29890519
0.31079386
0.31163687
0.31245424
0.31323925
0.31399273
0.31472394
0.31545175
0.31619751
0.31698301
0.31782784
0.31874747
0.31975528
0.32086314
0.32208274
0.32342899
0.32491918
0.32657418
0.32841667
0.33046421
0.33273394
0.3352286
0.33792441
0.34083777
0.34367847
0.34716068
0.34872321
0.35448508
0.35195233
0.36170445
0.35427761
0.35691951
0.35477036
0.34475421
0.34576604
0.33568177
0.33544291
0.32616826
0.32510731
0.31883894
0.31683769
0.31344018
0.31121926
0.30927585
0.30773065
0.30647368
0.30544159
0.30459103
0.30388956
0.30330975
0.30285047
0.30250339
0.30218864
0.3018913
0.30184582
0.30219462
0.30239713
0.30179786
0.30058321
0.29946558
0.29884928
0.29870774
0.29890386
0.31075705
0.31160766
0.31243245
0.31322465
0.31398495
0.31472247
0.31545607
0.31620712
0.31699744
0.31784665
0.31877023
0.31978153
0.32089238
0.32211436
0.32346232
0.32495345
0.3266086
0.32845049
0.3304968
0.3327651
0.33525875
0.33795495
0.34087068
0.34371722
0.34720666
0.34877839
0.35455423
0.35201862
0.36179253
0.3543354
0.35703428
0.35483522
0.34478878
0.34581
0.33569474
0.33546214
0.32616025
0.32510519
0.31882421
0.31682583
0.3134253
0.3112054
0.30926263
0.30771848
0.30646269
0.3054318
0.30458239
0.30388197
0.30330313
0.30284474
0.30249836
0.30218404
0.30188732
0.30184308
0.30219284
0.30239485
0.30179455
0.30057923
0.29946168
0.29884595
0.29870526
0.29890245
0.31071273
0.31157198
0.31240506
0.31320524
0.31397313
0.31471773
0.31545786
0.31621489
0.31701066
0.31786485
0.31879292
0.31980821
0.3209225
0.32214729
0.32349733
0.32498974
0.32664531
0.32848678
0.33053194
0.33279881
0.33529134
0.3379878
0.34090579
0.34375836
0.34725504
0.34883697
0.35462668
0.35208934
0.36188469
0.35439698
0.35715548
0.35490283
0.34482598
0.34585595
0.33570895
0.33548194
0.32615215
0.32510266
0.31880882
0.31681325
0.3134096
0.31119079
0.30924868
0.30770566
0.30645112
0.3054215
0.3045733
0.30387398
0.30329616
0.3028387
0.30249305
0.3021792
0.30188316
0.30184022
0.30219096
0.30239242
0.30179107
0.30057504
0.29945758
0.29884246
0.29870266
0.29890097
0.31065917
0.31152845
0.31237089
0.31318001
0.31395638
0.31470892
0.31545641
0.3162202
0.31702217
0.31788202
0.31881521
0.31983509
0.32095336
0.32218144
0.32353402
0.32502809
0.32668441
0.3285257
0.33056985
0.3328353
0.3353266
0.33802319
0.34094332
0.34380211
0.347306
0.34889917
0.35470258
0.35216475
0.36198118
0.35446256
0.35728351
0.35497331
0.34486596
0.345904
0.33572446
0.33550234
0.32614396
0.32509967
0.31879271
0.3167999
0.31339304
0.31117538
0.30923398
0.30769215
0.30643892
0.30541064
0.30456373
0.30386558
0.30328883
0.30283236
0.30248746
0.3021741
0.30187881
0.30183725
0.30218895
0.30238984
0.3017874
0.30057064
0.29945328
0.2988388
0.29869994
0.2988994
0.31059403
0.31147527
0.31232848
0.31314768
0.31393358
0.31469505
0.31545086
0.31622233
0.31703135
0.31789766
0.31883672
0.31986185
0.32098474
0.32221669
0.32357233
0.32506854
0.326726
0.32856742
0.33061074
0.33287481
0.33536481
0.33806139
0.34098349
0.34384865
0.34735971
0.34896521
0.35478214
0.35224515
0.36208223
0.35453235
0.35741882
0.35504678
0.34490892
0.34595427
0.33574138
0.33552335
0.32613567
0.32509618
0.31877584
0.31678575
0.31337557
0.31115912
0.30921848
0.30767791
0.30642607
0.30539922
0.30455366
0.30385674
0.30328112
0.30282568
0.30248157
0.30216874
0.30187428
0.30183414
0.30218682
0.3023871
0.30178355
0.30056603
0.29944877
0.29883496
0.29869708
0.29889775
0.31051394
0.31141003
0.31227595
0.3131067
0.31390337
0.31467492
0.31544015
0.31622035
0.31703741
0.31791111
0.31885689
0.31988808
0.32101632
0.32225283
0.32361215
0.32511106
0.32677016
0.32861209
0.33065483
0.33291761
0.33540625
0.33810268
0.34102655
0.34389824
0.34741635
0.34903534
0.35486555
0.35233084
0.36218813
0.35460659
0.3575619
0.35512337
0.34495503
0.34600691
0.33575979
0.33554498
0.32612729
0.32509217
0.31875816
0.31677073
0.31335712
0.31114197
0.30920214
0.30766289
0.30641253
0.30538718
0.30454304
0.30384742
0.30327301
0.30281866
0.30247536
0.30216311
0.30186954
0.30183089
0.30218454
0.3023842
0.3017795
0.30056119
0.29944403
0.29883094
0.29869409
0.298896
0.31041388
0.31132928
0.31221078
0.31305506
0.31386407
0.31464707
0.31542299
0.31621313
0.31703938
0.31792154
0.31887504
0.31991323
0.32104769
0.32228956
0.32365331
0.3251556
0.32681693
0.32865986
0.33070234
0.332964
0.33545123
0.33814737
0.34107278
0.34395114
0.34747615
0.34910984
0.35495301
0.35242215
0.36229917
0.3546855
0.35771325
0.35520322
0.3450045
0.34606205
0.33577979
0.33556728
0.32611881
0.32508757
0.31873961
0.31675481
0.31333764
0.31112386
0.30918489
0.30764706
0.30639826
0.30537449
0.30453187
0.30383762
0.30326448
0.30281126
0.30246881
0.30215719
0.3018646
0.3018275
0.3021821
0.30238111
0.30177524
0.30055611
0.29943906
0.29882671
0.29869096
0.29889415
0.31028597
0.3112278
0.31212934
0.31299008
0.31381351
0.31460966
0.31539776
0.31619925
0.31703601
0.3179279
0.3188903
0.31993658
0.32107829
0.32232648
0.32369555
0.32520202
0.32686629
0.32871083
0.3307535
0.33301427
0.33550012
0.33819582
0.34112253
0.34400764
0.34753934
0.34918899
0.35504477
0.35251942
0.36241568
0.35476934
0.35787341
0.35528649
0.34505755
0.34611986
0.33580148
0.33559025
0.32611021
0.32508237
0.31872011
0.31673793
0.31331706
0.31110475
0.30916669
0.30763036
0.30638321
0.30536113
0.30452009
0.3038273
0.3032555
0.30280347
0.3024619
0.30215099
0.30185944
0.30182394
0.30217949
0.30237784
0.30177076
0.30055078
0.29943384
0.29882229
0.29868769
0.2988922
0.31011737
0.31109728
0.31202615
0.31290792