/*--------------------------------*- C++ -*----------------------------------*\
| =========                 |                                                 |
| \\      /  F ield         | OpenFOAM: The Open Source CFD Toolbox           |
|  \\    /   O peration     | Version:  2506                                  |
|   \\  /    A nd           | Website:  www.openfoam.com                      |
|    \\/     M anipulation  |                                                 |
\*---------------------------------------------------------------------------*/
FoamFile
{
    version     2.0;
    format      ascii;
    arch        "LSB;label=32;scalar=64";
    class       volScalarField;
    location    "0.0075";
    object      Ma;
}
// * * * * * * * * * * * * * * * * * * * * * * * * * * * * * * * * * * * * * //

dimensions      [0 0 0 0 0 0 0];

internalField   nonuniform List<scalar> 
13763
(
0.36559284
0.36901933
0.37104304
0.37375173
0.3790711
0.38398181
0.38521247
0.38533527
0.38594709
0.38730964
0.39581559
0.39696667
0.40942484
0.40580124
0.38887259
0.39807467
0.38273905
0.3683692
0.37104064
0.36110646
0.3465104
0.34391393
0.33684075
0.32957239
0.32450884
0.32054257
0.31758235
0.3151987
0.31319898
0.31161025
0.3103641
0.30929216
0.30848042
0.30828462
0.30828247
0.30743735
0.30548087
0.30308708
0.30093176
0.29923076
0.29795667
0.29705884
0.29652052
0.29638495
0.29670171
0.29738219
0.2981794
0.29886384
0.3655908
0.36901606
0.37104225
0.373757
0.37908352
0.38399596
0.38522111
0.38534234
0.38595394
0.38732049
0.39583508
0.39698449
0.40945502
0.40582864
0.38888665
0.39810029
0.38273685
0.36837895
0.37105252
0.36110522
0.34650536
0.34391487
0.33683738
0.32957251
0.32450663
0.32053958
0.31757809
0.31519618
0.31319745
0.31160915
0.31036301
0.30929078
0.30847935
0.30828389
0.30828072
0.30743401
0.30547697
0.30308318
0.30092829
0.29922777
0.29795422
0.29705693
0.29651945
0.29638419
0.2967011
0.29738174
0.2981791
0.29886368
0.29930993
0.29951555
0.36558926
0.36901284
0.37104196
0.37376316
0.37909729
0.38401166
0.38523089
0.38535011
0.38596116
0.38733211
0.39585661
0.39700313
0.40948802
0.40585331
0.38890383
0.39813063
0.38273111
0.36838767
0.37107131
0.36110381
0.34649613
0.3439159
0.33683236
0.3295702
0.32450348
0.3205353
0.3175734
0.31519234
0.31319431
0.31160644
0.31036048
0.30928828
0.30847738
0.30828223
0.30827842
0.30743087
0.30547348
0.30307971
0.3009251
0.29922498
0.29795184
0.29705501
0.29651811
0.296383
0.29669995
0.29738089
0.29817855
0.2988634
0.29930979
0.29951549
0.29957709
0.36558816
0.36900953
0.37104197
0.37377004
0.37911243
0.38402846
0.38524078
0.38535755
0.38596818
0.38734363
0.39587822
0.39702271
0.40952478
0.40587693
0.38892317
0.39816459
0.38272143
0.36839485
0.37109299
0.36110199
0.34648292
0.34391628
0.33682563
0.32956577
0.32449957
0.32053036
0.31756846
0.31518729
0.31318976
0.31160238
0.3103568
0.30928482
0.30847461
0.30827984
0.30827575
0.3074279
0.30547031
0.30307649
0.3009221
0.29922225
0.29794948
0.2970531
0.29651644
0.29638146
0.29669872
0.29738003
0.29817802
0.29886314
0.29930968
0.29951544
0.29957708
0.2995899
0.29959199
0.36558735
0.36900583
0.37104211
0.37377738
0.37912853
0.38404684
0.38525214
0.38536584
0.38597607
0.38735626
0.39590212
0.39704333
0.40956366
0.40589944
0.3889449
0.39820272
0.38270994
0.36840192
0.37111707
0.36110032
0.34646654
0.34391651
0.33681733
0.32955935
0.32449514
0.32052559
0.31756331
0.31518132
0.31318418
0.31159735
0.31035231
0.30928077
0.30847131
0.30827697
0.30827285
0.30742498
0.30546724
0.30307338
0.30091913
0.29921952
0.29794708
0.29705109
0.29651457
0.29637967
0.29669755
0.29737927
0.29817759
0.29886296
0.29930961
0.29951541
0.29957707
0.29958989
0.29959199
0.29959227
0.29959231
0.3655868
0.36900165
0.37104215
0.37378496
0.3791456
0.38406589
0.38526333
0.38537365
0.38598388
0.38736889
0.39592592
0.39706515
0.40960558
0.40592326
0.38896766
0.39824306
0.38269661
0.36840854
0.37114207
0.36109839
0.34644802
0.34391585
0.33680802
0.32955203
0.32449021
0.32052128
0.3175579
0.31517476
0.31317793
0.31159181
0.3103474
0.30927634
0.30846766
0.30827389
0.30826999
0.30742206
0.30546414
0.30307016
0.30091605
0.29921666
0.29794458
0.29704893
0.29651249
0.29637774
0.29669643
0.29737858
0.29817722
0.29886283
0.29930956
0.29951539
0.29957707
0.29958989
0.29959199
0.29959227
0.29959231
0.29959231
0.29959231
0.36558649
0.36899681
0.37104209
0.37379267
0.37916329
0.38408649
0.3852763
0.38538282
0.38599281
0.38738308
0.39595246
0.39708811
0.40964871
0.40594778
0.38899201
0.39828619
0.38268353
0.36841595
0.37116825
0.36109642
0.34642802
0.34391494
0.33679798
0.32954431
0.32448525
0.3205174
0.31755218
0.31516774
0.31317139
0.31158603
0.31034232
0.3092718
0.30846387
0.30827075
0.30826721
0.30741901
0.30546083
0.30306674
0.30091276
0.29921364
0.2979419
0.29704656
0.2965103
0.29637582
0.29669533
0.29737791
0.29817688
0.29886271
0.29930951
0.29951537
0.29957706
0.29958989
0.29959198
0.29959227
0.29959231
0.29959231
0.29959231
0.29959231
0.29959231
0.29959231
0.36558655
0.36899139
0.37104182
0.37380052
0.37918196
0.38410747
0.38528873
0.38539142
0.38600143
0.38739723
0.39597884
0.39711258
0.4096948
0.40597505
0.38901678
0.39833033
0.38266992
0.36842351
0.37119547
0.36109418
0.34640745
0.34391351
0.33678792
0.3295369
0.32448058
0.32051349
0.31754601
0.3151605
0.31316474
0.3115803
0.31033725
0.3092672
0.30846003
0.30826774
0.30826452
0.30741578
0.30545726
0.30306303
0.30090921
0.2992104
0.29793905
0.29704402
0.29650803
0.29637398
0.2966942
0.29737722
0.29817651
0.29886258
0.29930945
0.29951535
0.29957706
0.29958989
0.29959198
0.29959227
0.29959231
0.29959231
0.29959231
0.29959231
0.29959231
0.29959231
0.29959231
0.29959231
0.36558701
0.36898527
0.37104146
0.37380852
0.37920126
0.38413029
0.38530333
0.38540176
0.38601146
0.38741333
0.39600848
0.39713822
0.40974191
0.40600354
0.38904315
0.39837664
0.3826574
0.36843217
0.37122398
0.36109184
0.34638639
0.3439118
0.33677747
0.3295302
0.32447619
0.32050872
0.31753934
0.31515312
0.31315817
0.3115746
0.31033222
0.30926263
0.30845619
0.30826479
0.30826177
0.30741232
0.30545337
0.30305898
0.30090537
0.29920693
0.29793599
0.29704132
0.29650567
0.29637232
0.29669302
0.29737647
0.2981761
0.2988624
0.29930937
0.29951532
0.29957705
0.29958989
0.29959198
0.29959227
0.29959231
0.29959231
0.29959231
0.29959231
0.29959231
0.29959231
0.29959231
0.29959231
0.36558802
0.3689786
0.37104083
0.37381672
0.3792219
0.38415342
0.38531693
0.38541114
0.38602085
0.38742915
0.3960379
0.39716573
0.40979263
0.40603506
0.3890701
0.3984237
0.3826444
0.36844152
0.37125256
0.36108936
0.34636544
0.34391014
0.3367671
0.32952399
0.32447209
0.32050295
0.31753219
0.31514572
0.31315159
0.31156898
0.3103272
0.30925803
0.30845241
0.30826191
0.30825884
0.30740858
0.30544913
0.30305464
0.30090125
0.29920324
0.29793273
0.29703847
0.29650337
0.29637074
0.29669175
0.29737565
0.29817563
0.29886218
0.29930927
0.29951528
0.29957704
0.29958989
0.29959198
0.29959227
0.29959231
0.29959231
0.29959231
0.29959231
0.29959231
0.29959231
0.29959231
0.29959231
0.36558964
0.3689712
0.37104015
0.3738251
0.37924316
0.38417891
0.38533331
0.38542267
0.38603193
0.38744731
0.39607106
0.39719433
0.40984451
0.40606759
0.38909915
0.39847326
0.3826323
0.36845224
0.37128383
0.36108754
0.34634397
0.34390854
0.33675616
0.32951824
0.32446768
0.32049657
0.31752467
0.31513829
0.31314506
0.31156324
0.31032211
0.30925337
0.30844857
0.30825896
0.30825557
0.30740456
0.30544458
0.30304999
0.30089688
0.29919928
0.29792926
0.29703552
0.29650097
0.29636901
0.29669037
0.29737473
0.2981751
0.29886193
0.29930916
0.29951524
0.29957703
0.29958989
0.29959198
0.29959227
0.29959231
0.29959231
0.29959231
0.29959231
0.29959231
0.29959231
0.29959231
0.29959231
0.36559199
0.3689632
0.37103899
0.37383373
0.37926623
0.38420466
0.38534816
0.38543276
0.38604192
0.38746487
0.39610394
0.39722528
0.40990088
0.40610308
0.38912916
0.39852406
0.38261913
0.36846388
0.37131577
0.36108545
0.34632234
0.3439072
0.33674544
0.329512
0.32446173
0.32048962
0.31751715
0.3151308
0.31313828
0.31155735
0.31031685
0.30924855
0.30844469
0.30825591
0.30825197
0.30740024
0.30543973
0.30304507
0.30089227
0.29919514
0.29792565
0.29703248
0.29649851
0.2963672
0.29668888
0.29737373
0.29817452
0.29886164
0.29930903
0.2995152
0.29957702
0.29958988
0.29959198
0.29959227
0.29959231
0.29959231
0.29959231
0.29959231
0.29959231
0.29959231
0.29959231
0.29959231
0.36559516
0.36895444
0.37103786
0.37384247
0.37928978
0.38423338
0.38536667
0.38544558
0.38605404
0.38748524
0.39614099
0.39725704
0.40995846
0.40613936
0.38916181
0.3985781
0.38260645
0.36847672
0.37134828
0.36108371
0.3462993
0.34390581
0.33673468
0.32950498
0.32445502
0.32048232
0.31750968
0.31512315
0.31313124
0.31155113
0.31031133
0.30924352
0.30844055
0.30825264
0.30824818
0.30739568
0.30543462
0.30303991
0.30088744
0.29919073
0.29792182
0.29702939
0.29649602
0.29636515
0.29668727
0.29737266
0.29817389
0.29886133
0.2993089
0.29951515
0.29957701
0.29958988
0.29959198
0.29959227
0.29959231
0.29959231
0.29959231
0.29959231
0.29959231
0.29959231
0.29959231
0.29959231
0.36559929
0.36894503
0.37103587
0.37385147
0.37931566
0.38426222
0.38538316
0.38545642
0.38606461
0.38750466
0.39617781
0.3972919
0.41002134
0.40617865
0.3891958
0.39863417
0.38259232
0.3684906
0.37138088
0.36108058
0.34627511
0.34390425
0.33672294
0.32949642
0.32444817
0.32047512
0.3175019
0.3151151
0.31312368
0.31154457
0.31030549
0.30923821
0.30843628
0.3082491
0.30824415
0.30739085
0.30542927
0.30303449
0.30088241
0.29918615
0.29791784
0.29702617
0.29649341
0.29636271
0.29668556
0.29737152
0.29817323
0.29886102
0.29930876
0.29951511
0.299577
0.29958988
0.29959198
0.29959227
0.29959231
0.29959231
0.29959231
0.29959231
0.29959231
0.29959231
0.29959231
0.29959231
0.36560449
0.36893484
0.37103401
0.37386035
0.37934171
0.3842946
0.38540427
0.38547071
0.38607796
0.38752753
0.39621918
0.39732706
0.4100853
0.40621882
0.38923278
0.39869412
0.38257859
0.368505
0.37141661
0.36107893
0.34624875
0.34390263
0.33671107
0.32948691
0.32444139
0.32046787
0.31749365
0.31510657
0.31311563
0.3115376
0.31029929
0.30923258
0.30843167
0.30824521
0.30823995
0.30738583
0.30542369
0.30302883
0.30087712
0.29918129
0.29791372
0.29702283
0.29649068
0.29636019
0.29668376
0.29737033
0.29817253
0.2988607
0.29930862
0.29951506
0.29957698
0.29958988
0.29959198
0.29959227
0.29959231
0.29959231
0.29959231
0.29959231
0.29959231
0.29959231
0.29959231
0.29959231
0.36561087
0.36892389
0.37103086
0.37386956
0.37937072
0.38432692
0.3854226
0.38548239
0.38608916
0.38754913
0.39626066
0.39736638
0.41015537
0.40626224
0.38927131
0.39875642
0.38256366
0.36852018
0.37145431
0.36107632
0.34622079
0.34390013
0.33669651
0.3294768
0.32443392
0.32046069
0.31748488
0.3150974
0.31310702
0.31153022
0.31029271
0.30922664
0.30842677
0.30824104
0.3082355
0.30738061
0.30541784
0.30302288
0.30087154
0.29917624
0.29790941
0.29701925
0.29648766
0.2963578
0.29668188
0.29736909
0.29817182
0.29886037
0.29930848
0.29951501
0.29957697
0.29958988
0.29959198
0.29959227
0.29959231
0.29959231
0.29959231
0.29959231
0.29959231
0.29959231
0.29959231
0.29959231
0.36561882
0.36891226
0.37102793
0.37387831
0.37939948
0.3843634
0.38544651
0.38549826
0.38610383
0.38757485
0.39630691
0.39740533
0.41022646
0.40630679
0.38931297
0.39882259
0.38254914
0.36853558
0.37149481
0.36107557
0.3461902
0.34389656
0.33668198
0.32946735
0.32442634
0.32045328
0.31747558
0.31508762
0.31309791
0.31152239
0.3102858
0.30922033
0.30842146
0.30823656
0.30823094
0.30737522
0.30541176
0.3030167
0.30086572
0.29917089
0.29790493
0.29701541
0.29648439
0.29635529
0.29667992
0.2973678
0.29817108
0.29886002
0.29930833
0.29951496
0.29957696
0.29958987
0.29959198
0.29959227
0.29959231
0.29959231
0.29959231
0.29959231
0.29959231
0.29959231
0.29959231
0.29959231
0.36562812
0.36889973
0.37102311
0.37388753
0.37943197
0.38439963
0.38546681
0.38551091
0.3861157
0.38759901
0.39635388
0.39744974
0.41030452
0.4063549
0.38935633
0.39889114
0.38253368
0.36855169
0.37153714
0.36107285
0.34615796
0.34389228
0.33666584
0.329458
0.32441854
0.32044505
0.31746542
0.31507725
0.31308837
0.31151411
0.31027842
0.30921365
0.30841582
0.30823183
0.30822621
0.30736954
0.30540533
0.30301018
0.30085954
0.29916532
0.29790014
0.2970114
0.29648091
0.29635252
0.29667787
0.29736646
0.29817031
0.29885966
0.29930817
0.29951491
0.29957695
0.29958987
0.29959198
0.29959227
0.29959231
0.29959231
0.29959231
0.29959231
0.29959231
0.29959231
0.29959231
0.29959231
0.36563972
0.36888686
0.37101881
0.37389585
0.3794637
0.38444077
0.38549379
0.38552834
0.38613157
0.38762789
0.39640575
0.397493
0.41038362
0.40640435
0.38940306
0.39896356
0.38251868
0.36856848
0.37158187
0.36107134
0.34612314
0.34388725
0.33665113
0.32944733
0.32441061
0.32043577
0.31745467
0.31506636
0.31307829
0.31150535
0.31027078
0.3092066
0.30840986
0.30822703
0.30822136
0.30736366
0.30539864
0.30300341
0.3008531
0.29915948
0.29789514
0.29700715
0.29647723
0.29634956
0.29667572
0.29736505
0.29816951
0.29885927
0.299308
0.29951485
0.29957693
0.29958987
0.29959198
0.29959227
0.29959231
0.29959231
0.29959231
0.29959231
0.29959231
0.29959231
0.29959231
0.29959231
0.36565277
0.36887287
0.37101152
0.37390487
0.37950037
0.38448142
0.38551637
0.38554201
0.38614408
0.38765488
0.39645914
0.39754313
0.41047056
0.40645781
0.38945192
0.39903866
0.38250295
0.36858656
0.37162885
0.36106878
0.34608639
0.34388214
0.33663666
0.32943573
0.32440187
0.32042614
0.31744328
0.31505506
0.31306775
0.31149611
0.31026261
0.30919918
0.30840358
0.30822205
0.30821628
0.30735747
0.30539158
0.30299623
0.30084621
0.29915331
0.29788985
0.29700267
0.29647351
0.29634653
0.29667348
0.29736357
0.29816867
0.29885886
0.29930782
0.29951479
0.29957692
0.29958987
0.29959198
0.29959227
0.29959231
0.29959231
0.29959231
0.29959231
0.29959231
0.29959231
0.29959231
0.29959231
0.36566891
0.36885901
0.37100541
0.37391217
0.37953521
0.38452785
0.38554667
0.385561
0.38616108
0.38768707
0.39651728
0.39759131
0.41055859
0.40651277
0.38950456
0.39911788
0.38248776
0.36860588
0.37167709
0.36106651
0.34604774
0.34387709
0.33662085
0.3294237
0.32439238
0.32041615
0.31743149
0.3150432
0.31305658
0.31148637
0.31025403
0.30919126
0.30839709
0.30821705
0.30821101
0.30735099
0.30538412
0.30298861
0.300839
0.29914685
0.29788422
0.29699791
0.29646969
0.29634338
0.29667112
0.29736202
0.29816777
0.29885843
0.29930763
0.29951473
0.29957691
0.29958986
0.29959198
0.29959227
0.29959231
0.29959231
0.29959231
0.29959231
0.29959231
0.29959231
0.29959231
0.29959231
0.36568711
0.36884394
0.37099532
0.37392083
0.37957666
0.38457356
0.38557193
0.38557589
0.38617421
0.38771718
0.39657816
0.397648
0.4106555
0.40657229
0.38955989
0.39920012
0.38247205
0.36862676
0.37172799
0.3610641
0.34600636
0.34387111
0.33660408
0.32941165
0.32438235
0.32040558
0.31741932
0.31503077
0.3130448
0.31147607
0.31024492
0.30918293
0.30839031
0.30821162
0.3082054
0.30734423
0.30537632
0.30298059
0.3008314
0.29913999
0.29787835
0.29699294
0.29646576
0.29634008
0.29666864
0.29736039
0.29816682
0.29885797
0.29930743
0.29951466
0.29957689
0.29958986
0.29959198
0.29959227
0.29959231
0.29959231
0.29959231
0.29959231
0.29959231
0.29959231
0.29959231
0.29959231
0.36571018
0.36882991
0.37098635
0.37392664
0.37961462
0.38462577
0.38560584
0.38559648
0.38619238
0.387753
0.39664323
0.39770198
0.4107534
0.40663349
0.38961946
0.39928685
0.38245696
0.36864891
0.37177979
0.361061
0.34596399
0.34386546
0.33658632
0.32939873
0.32437117
0.32039444
0.31740667
0.31501755
0.31303241
0.31146536
0.3102352
0.30917417
0.30838329
0.30820587
0.30819947
0.30733702
0.30536807
0.30297211
0.3008234
0.29913282
0.2978721
0.29698778
0.29646159
0.29633662
0.29666603
0.29735867
0.29816582
0.29885748
0.29930722
0.29951459
0.29957687
0.29958986
0.29959198
0.29959227
0.29959231
0.29959231
0.29959231
0.29959231
0.29959231
0.29959231
0.29959231
0.29959231
0.36573469
0.36881474
0.37097281
0.37393486
0.37966147
0.38467758
0.38563423
0.38561268
0.38620633
0.3877867
0.39671276
0.39776622
0.41086155
0.40669957
0.38968218
0.39937672
0.38244143
0.36867308
0.37183463
0.36105766
0.34591762
0.34385739
0.33656798
0.32938445
0.32435904
0.32038286
0.31739358
0.31500343
0.31301935
0.31145396
0.31022496
0.30916519
0.30837593
0.30819991
0.3081932
0.30732946
0.30535934
0.30296327
0.30081504
0.29912527
0.29786566
0.29698243
0.29645695
0.29633295
0.29666328
0.29735686
0.29816478
0.29885697
0.299307
0.29951452
0.29957686
0.29958985
0.29959198
0.29959227
0.29959231
0.29959231
0.29959231
0.29959231
0.29959231
0.29959231
0.29959231
0.29959231
0.36576519
0.36880168
0.37096055
0.37394017
0.37970088
0.38473576
0.38567204
0.38563505
0.38622567
0.38782645
0.39678548
0.39782709
0.41097038
0.40676784
0.38974976
0.39947151
0.38242738
0.36869735
0.37189018
0.36105401
0.34587011
0.34384788
0.33654845
0.32936991
0.32434656
0.32037084
0.31737953
0.31498856
0.31300561
0.31144203
0.31021419
0.30915564
0.3083682
0.30819367
0.30818647
0.30732146
0.30535006
0.30295389
0.30080624
0.29911744
0.29785891
0.29697691
0.29645205
0.29632909
0.29666038
0.29735494
0.29816368
0.29885644
0.29930676
0.29951444
0.29957684
0.29958985
0.29959198
0.29959227
0.29959231
0.29959231
0.29959231
0.29959231
0.29959231
0.29959231
0.29959231
0.29959231
0.36579701
0.36878806
0.37094304
0.37394825
0.37975362
0.38479482
0.38570412
0.38565263
0.38624019
0.38786436
0.39686558
0.39790013
0.41109136
0.4068408
0.38982053
0.39956959
0.38241319
0.3687248
0.37195003
0.36105048
0.34581856
0.34383795
0.33652855
0.32935403
0.3243336
0.3203578
0.31736481
0.31497278
0.31299127
0.31142937
0.31020304
0.30914564
0.30835996
0.30818717
0.30817944
0.30731291
0.30534034
0.302944
0.300797
0.29910919
0.29785177
0.29697101
0.29644711
0.29632504
0.29665733
0.29735293
0.29816253
0.29885588
0.29930652
0.29951436
0.29957682
0.29958985
0.29959198
0.29959227
0.29959231
0.29959231
0.29959231
0.29959231
0.29959231
0.29959231
0.29959231
0.29959231
0.36583595
0.36877723
0.37092522
0.37395182
0.37979468
0.38485944
0.38574627
0.38567694
0.38626068
0.38790804
0.39694684
0.39796847
0.41121271
0.406917
0.3898974
0.39967322
0.38240064
0.36875142
0.37201026
0.36104642
0.3457651
0.34382522
0.33650808
0.32933634
0.32431921
0.32034419
0.31734929
0.3149564
0.31297597
0.31141594
0.3101912
0.30913508
0.30835127
0.30818018
0.30817194
0.30730388
0.30533016
0.30293363
0.30078731
0.29910052
0.29784429
0.29696467
0.29644195
0.29632076
0.29665413
0.29735083
0.29816132
0.29885528
0.29930626
0.29951428
0.2995768
0.29958984
0.29959198
0.29959227
0.29959231
0.29959231
0.29959231
0.29959231
0.29959231
0.29959231
0.29959231
0.29959231
0.36587472
0.3687672
0.37090491
0.37395993
0.37985328
0.38492656
0.38578248
0.38569629
0.38627628
0.38795075
0.39703892
0.39805167
0.41134788
0.4069975
0.38997763
0.39978007
0.38238795
0.36878192
0.37207634
0.3610441
0.34570827
0.34381165
0.33648543
0.32931792
0.32430424
0.32032951
0.31733332
0.31493916
0.31296007
0.31140173
0.31017885
0.30912383
0.30834197
0.30817281
0.30816406
0.30729434
0.30531939
0.30292273
0.30077726
0.29909142
0.29783641
0.29695795
0.29643642
0.29631626
0.29665076
0.29734862
0.29816004
0.29885466
0.29930599
0.29951419
0.29957678
0.29958984
0.29959198
0.29959227
0.29959231
0.29959231
0.29959231
0.29959231
0.29959231
0.29959231
0.29959231
0.29959231
0.36592257
0.36876014
0.37088196
0.37396091
0.37989548
0.38499853
0.38582954
0.38572272
0.3862983
0.38799858
0.39712983
0.39812886
0.4114837
0.40708236
0.39006527
0.39989361
0.3823774
0.36881127
0.37214082
0.3610362
0.34564995
0.34379677
0.33645967
0.32929737
0.32428831
0.3203142
0.31731675
0.31492104
0.31294325
0.31138709
0.31016571
0.3091121
0.30833235
0.30816503
0.30815595
0.3072843
0.305308
0.30291121
0.30076663
0.29908176
0.29782821
0.29695085
0.29643058
0.29631153
0.29664723
0.29734631
0.29815871
0.298854
0.2993057
0.2995141
0.29957676
0.29958984
0.29959198
0.29959227
0.29959231
0.29959231
0.29959231
0.29959231
0.29959231
0.29959231
0.29959231
0.29959231
0.36597166
0.36875692
0.37085799
0.37396898
0.37996015
0.38507354
0.38587059
0.38574447
0.38631533
0.38804625
0.39723499
0.39822332
0.41163437
0.40717175
0.39015661
0.40000991
0.38236616
0.36884642
0.37221374
0.36103097
0.34558966
0.34377946
0.33643297
0.32927471
0.32427199
0.32029832
0.31729951
0.31490202
0.31292553
0.31137185
0.31015188
0.30909953
0.30832237
0.30815664
0.30814729
0.3072737
0.3052961
0.30289927
0.30075552
0.29907161
0.29781938
0.29694357
0.29642452
0.29630657
0.29664352
0.29734387
0.2981573
0.29885331
0.2993054
0.29951401
0.29957674
0.29958983
0.29959198
0.29959227
0.29959231
0.29959231
0.29959231
0.29959231
0.29959231
0.29959231
0.29959231
0.29959231
0.36603017
0.36875512
0.37082701
0.37396401
0.38000503
0.38515404
0.38592245
0.38577254
0.38633864
0.38809892
0.39733814
0.39831128
0.41178688
0.40726555
0.39025739
0.40013423
0.38235581
0.3688805
0.37228502
0.36102153
0.34552485
0.34376019
0.33640497
0.32925148
0.32425511
0.32028174
0.31728098
0.31488189
0.31290708
0.31135559
0.31013724
0.30908651
0.30831163
0.30814771
0.30813812
0.30726245
0.30528348
0.30288672
0.3007437
0.29906079
0.29781003
0.2969361
0.29641812
0.29630135
0.29663962
0.2973413
0.29815583
0.29885258
0.29930509
0.29951391
0.29957672
0.29958983
0.29959198
0.29959227
0.29959231
0.29959231
0.29959231
0.29959231
0.29959231
0.29959231
0.29959231
0.29959231
0.36609199
0.3687617
0.37079914
0.37396901
0.38007447
0.38523834
0.38597054
0.38579766
0.38635747
0.3881519
0.39745816
0.39841772
0.41195471
0.40736518
0.39036169
0.40026099
0.38234502
0.36892236
0.37236726
0.36101467
0.34545728
0.3437384
0.33637388
0.32922797
0.3242369
0.32026426
0.31726103
0.31486082
0.31288785
0.31133839
0.31012183
0.30907279
0.30830031
0.30813826
0.30812842
0.30725087
0.30527039
0.30287357
0.30073111
0.29904959
0.29780041
0.29692804
0.29641135
0.29629585
0.29663553
0.29733861
0.29815427
0.29885182
0.29930476
0.2995138
0.2995767
0.29958982
0.29959197
0.29959227
0.29959231
0.29959231
0.29959231
0.29959231
0.29959231
0.29959231
0.29959231
0.29959231
0.36615775
0.36876698
0.37076476
0.37395741
0.38012098
0.38532669
0.38602653
0.38582659
0.38638091
0.38820862
0.39757526
0.3985188
0.41212577
0.40746975
0.39047823
0.4003967
0.38233781
0.36895924
0.37244517
0.36100381
0.34538295
0.34371406
0.33634225
0.32920411
0.32421745
0.32024536
0.31723982
0.31483886
0.31286751
0.31132016
0.3101057
0.30905834
0.30828835
0.30812856
0.30811805
0.30723867
0.30525674
0.30285982
0.30071791
0.29903786
0.29779024
0.29691941
0.29640423
0.29629008
0.29663121
0.29733579
0.29815264
0.29885101
0.29930441
0.29951369
0.29957667
0.29958982
0.29959197
0.29959227
0.29959231
0.29959231
0.29959231
0.29959231
0.29959231
0.29959231
0.29959231
0.29959231
0.3662256
0.36878746
0.37073919
0.37395781
0.38018911
0.38541982
0.38608324
0.38585653
0.38640332
0.38826971
0.39771199
0.39863788
0.41231248
0.40757856
0.39059757
0.40053554
0.38233451
0.36900503
0.37253128
0.36099453
0.34530673
0.34368819
0.33630948
0.32917701
0.32419657
0.32022467
0.31721738
0.31481577
0.31284571
0.31130119
0.3100887
0.30904335
0.3082756
0.30811834
0.30810735
0.30722593
0.30524222
0.30284512
0.30070401
0.29902538
0.29777964
0.29691053
0.29639679
0.29628401
0.29662667
0.29733282
0.29815093
0.29885016
0.29930404
0.29951358
0.29957665
0.29958982
0.29959197
0.29959227
0.29959231
0.29959231
0.29959231
0.29959231
0.29959231
0.29959231
0.29959231
0.29959231
0.36628465
0.36880546
0.370709
0.37394048
0.3802373
0.38551553
0.38614233
0.38588566
0.38642594
0.38832983
0.39784574
0.39875395
0.41250336
0.40769696
0.39073201
0.40068242
0.38233598
0.36904084
0.37260936
0.36098163
0.34522393
0.34366094
0.33627305
0.3291493
0.32417357
0.32020308
0.31719383
0.31479106
0.31282317
0.31128108
0.31007093
0.30902718
0.30826226
0.30810738
0.30809596
0.30721268
0.30522704
0.30282946
0.30068956
0.29901233
0.29776853
0.29690122
0.29638896
0.29627763
0.29662191
0.2973297
0.29814913
0.29884927
0.29930365
0.29951346
0.29957662
0.29958981
0.29959197
0.29959227
0.29959231
0.29959231
0.29959231
0.29959231
0.29959231
0.29959231
0.29959231
0.29959231
0.36635962
0.36884415
0.37068934
0.37393383
0.38029858
0.38561388
0.38620922
0.38592287
0.38645365
0.3883989
0.39799826
0.39888709
0.41270991
0.40781535
0.39086917
0.40083335
0.3823447
0.36908893
0.3726996
0.36097129
0.34513638
0.34363228
0.33623457
0.3291207
0.32414833
0.32018075
0.31716877
0.31476536
0.31279934
0.31125999
0.310052
0.30901008
0.30824822
0.308096
0.30808414
0.30719851
0.30521104
0.30281291
0.30067433
0.29899855
0.29775657
0.29689133
0.29638072
0.29627091
0.2966169
0.29732642
0.29814724
0.29884834
0.29930325
0.29951333
0.29957659
0.29958981
0.29959197
0.29959227
0.29959231
0.29959231
0.29959231
0.29959231
0.29959231
0.29959231
0.29959231
0.29959231
0.36641521
0.36888118
0.37067203
0.37391121
0.38034756
0.38571587
0.38626947
0.38595173
0.38647553
0.38846497
0.39815336
0.39902124
0.41292299
0.40794643
0.39102302
0.4009912
0.38235769
0.36912752
0.3727809
0.36095667
0.34504636
0.34359965
0.3361945
0.32908791
0.32412144
0.32015653
0.31714296
0.31473837
0.31277432
0.31123783
0.31003223
0.30899215
0.30823375
0.30808387
0.30807215
0.30718363
0.30519394
0.30279571
0.30065825
0.29898418
0.29774405
0.29688095
0.29637206
0.29626384
0.29661164
0.29732297
0.29814526
0.29884735
0.29930282
0.2995132
0.29957656
0.2995898
0.29959197
0.29959227
0.29959231
0.29959231
0.29959231
0.29959231
0.29959231
0.29959231
0.29959231
0.29959231
0.36650282
0.36893657
0.37066451
0.37389689
0.38039923
0.38582459
0.38634844
0.38599523
0.3865066
0.38854056
0.39832523
0.39917328
0.41315141
0.4080777
0.39118257
0.40115549
0.38237955
0.36917991
0.37287455
0.3609455
0.34495239
0.34356365
0.33615045
0.3290526
0.32409356
0.32013054
0.31711535
0.31470978
0.31274792
0.31121429
0.31001133
0.30897336
0.30821846
0.30807128
0.30805936
0.30716805
0.30517567
0.30277777
0.30064134
0.29896908
0.29773106
0.29687008
0.29636295
0.29625643
0.29660611
0.29731935
0.29814318
0.29884632
0.29930238
0.29951306
0.29957653
0.2995898
0.29959197
0.29959227
0.29959231
0.29959231
0.29959231
0.29959231
0.29959231
0.29959231
0.29959231
0.29959231
0.36657111
0.3690068
0.37067299
0.37387195
0.3804497
0.38592246
0.38640817
0.38602395
0.38652602
0.38860935
0.39850262
0.39933095
0.41339116
0.40822155
0.39135802
0.40132335
0.38240334
0.36921932
0.37295175
0.36093246
0.34485139
0.34352533
0.33610116
0.32901639
0.32406337
0.32010191
0.3170859
0.31467961
0.31271979
0.31118961
0.30998892
0.30895396
0.30820204
0.30805823
0.30804577
0.30715134
0.30515662
0.30275883
0.30062352
0.29895288
0.29771733
0.29685862
0.29635334
0.29624862
0.2966003
0.29731555
0.29814099
0.29884523
0.29930191
0.29951292
0.2995765
0.29958979
0.29959197
0.29959227
0.29959231
0.29959231
0.29959231
0.29959231
0.29959231
0.29959231
0.29959231
0.29959231
0.36667591
0.36908115
0.37069098
0.37385632
0.38048963
0.3860344
0.38650659
0.38607938
0.38656523
0.3886953
0.39869753
0.39950319
0.41364732
0.40836371
0.39154573
0.40150442
0.38244325
0.36927561
0.37304845
0.36092608
0.34474521
0.34348196
0.33604973
0.32897806
0.3240293
0.32007112
0.31705515
0.31464755
0.31269037
0.31116337
0.30996582
0.30893324
0.3081851
0.30804435
0.30803144
0.30713338
0.30513689
0.30273882
0.30060489
0.29893597
0.29770283
0.29684654
0.29634325
0.2962404
0.29659419
0.29731155
0.29813869
0.29884409
0.29930142
0.29951277
0.29957647
0.29958979
0.29959197
0.29959227
0.29959231
0.29959231
0.29959231
0.29959231
0.29959231
0.29959231
0.29959231
0.29959231
0.36678869
0.36917743
0.37074098
0.37383874
0.38054357
0.38612885
0.38656944
0.386106
0.38657929
0.38876616
0.3989049
0.39968298
0.41391588
0.40852425
0.39174908
0.40168724
0.38248561
0.369313
0.37312707
0.36091807
0.34462946
0.34343333
0.33599373
0.32893613
0.32399336
0.32003933
0.31702276
0.31461376
0.31265898
0.31113553
0.30994158
0.3089113
0.30816708
0.30802992
0.30801597
0.30711469
0.30511607
0.30271765
0.30058511
0.29891837
0.29768763
0.29683383
0.29633264
0.29623176
0.29658777
0.29730735
0.29813628
0.29884289
0.29930091
0.29951262
0.29957644
0.29958978
0.29959197
0.29959227
0.29959231
0.29959231
0.29959231
0.29959231
0.29959231
0.29959231
0.29959231
0.29959231
0.36689855
0.36925773
0.37080032
0.37383614
0.38057282
0.38624014
0.38668496
0.38616876
0.38662203
0.38885575
0.39912523
0.39987703
0.41419674
0.40868458
0.39197196
0.40188795
0.38254593
0.36937977
0.37322694
0.36091074
0.34450889
0.34338018
0.33593226
0.32889004
0.32395475
0.32000676
0.31698837
0.31457807
0.31262588
0.31110627
0.30991564
0.30888834
0.30814787
0.30801456
0.30799936
0.3070954
0.30509402
0.30269546
0.30056414
0.29889969
0.29767164
0.29682049
0.29632147
0.29622267
0.29658102
0.29730293
0.29813375
0.29884163
0.29930037
0.29951245
0.2995764
0.29958977
0.29959197
0.29959227
0.29959231
0.29959231
0.29959231
0.29959231
0.29959231
0.29959231
0.29959231
0.29959231
0.36703982
0.36936534
0.37088295
0.37383677
0.38064604
0.38632029
0.3867518
0.38620079
0.38663787
0.38893331
0.39936135
0.40007648
0.41448853
0.40884557
0.39220548
0.40208619
0.38260341
0.36942679
0.37329865
0.36089842
0.34437509
0.34332464
0.33586878
0.32884021
0.32391258
0.31997243
0.31695135
0.31454067
0.31259102
0.31107549
0.30988834
0.30886371
0.30812796
0.30799774
0.30798227
0.30707504
0.30507064
0.3026721
0.30054231
0.29887998
0.29765481
0.29680648
0.29630972
0.29621312
0.29657393
0.29729829
0.29813109
0.29884031
0.2992998
0.29951228
0.29957637
0.29958977
0.29959197
0.29959227
0.29959231
0.29959231
0.29959231
0.29959231
0.29959231
0.29959231
0.29959231
0.29959231
0.36713798
0.36945792
0.37098258
0.37385998
0.38067279
0.38642925
0.38688229
0.3862751
0.38668793
0.38903258
0.39961205
0.40029925
0.41478954
0.40901207
0.39247077
0.40231169
0.38267958
0.36951614
0.3733989
0.36088385
0.34424576
0.34326484
0.33579757
0.32878677
0.32386784
0.31993499
0.31691266
0.31450126
0.31255411
0.31104299
0.30985925
0.30883788
0.30810668
0.30797993
0.30796469
0.30705339
0.30504606
0.30264731
0.30051938
0.2988593
0.29763713
0.29679171
0.29629736
0.29620306
0.29656648
0.29729341
0.2981283
0.29883893
0.29929921
0.29951211
0.29957633
0.29958976
0.29959197
0.29959227
0.29959231
0.29959231
0.29959231
0.29959231
0.29959231
0.29959231