/*--------------------------------*- C++ -*----------------------------------*\
| =========                 |                                                 |
| \\      /  F ield         | OpenFOAM: The Open Source CFD Toolbox           |
|  \\    /   O peration     | Version:  2506                                  |
|   \\  /    A nd           | Website:  www.openfoam.com                      |
|    \\/     M anipulation  |                                                 |
\*---------------------------------------------------------------------------*/
FoamFile
{
    version     2.0;
    format      ascii;
    arch        "LSB;label=32;scalar=64";
    class       volScalarField;
    location    "2.7";
    object      rho;
}
// * * * * * * * * * * * * * * * * * * * * * * * * * * * * * * * * * * * * * //

dimensions      [1 -3 0 0 0 0 0];

internalField   nonuniform List<scalar> 
1375
(
0.6521781
0.65730161
0.65547334
0.6584058
0.65158872
0.65640038
0.65539966
0.65880258
0.65689031
0.66002276
0.65935452
0.66127409
0.66121853
0.66180308
0.66241286
0.66270578
0.65133797
0.6572777
0.65427585
0.65858777
0.65709178
0.65959653
0.6592627
0.66065031
0.66087495
0.66168574
0.66204492
0.66247708
0.66252821
0.66310526
0.66366069
0.66371071
0.66415308
0.66412582
0.66429698
0.66450221
0.66463804
0.6647491
0.65215444
0.65653641
0.65446158
0.65793463
0.65646054
0.65912008
0.65945877
0.66066054
0.6601418
0.66127158
0.66175566
0.66236925
0.66310285
0.66302296
0.66302936
0.66342493
0.66374929
0.66401198
0.66419213
0.66441307
0.6645914
0.6647222
0.66485287
0.66496453
0.66508555
0.66515624
0.66524204
0.66531964
0.66539381
0.66545055
0.66549285
0.66553638
0.66557322
0.66560404
0.65226976
0.65568583
0.65486929
0.65775587
0.65646433
0.65897694
0.65866515
0.66052842
0.6602578
0.66123086
0.66157329
0.66193574
0.66266804
0.66275801
0.66284856
0.66340368
0.66353579
0.66392534
0.66414599
0.66433118
0.66452136
0.6646637
0.66480496
0.66491226
0.66500214
0.66510372
0.66522103
0.66531593
0.66539145
0.66544311
0.66548934
0.66553328
0.66556495
0.66559106
0.66562965
0.66566006
0.66566891
0.66568494
0.66570591
0.66572118
0.66573213
0.66574112
0.66575209
0.66576268
0.66576495
0.66577892
0.66577503
0.66579075
0.66580123
0.65221607
0.65640688
0.65468424
0.65716229
0.65700467
0.65890445
0.65806357
0.6600481
0.65999645
0.66116358
0.66124733
0.66163886
0.66194062
0.6624772
0.66304251
0.663346
0.66362252
0.66379665
0.6640357
0.66433074
0.66446107
0.66460564
0.66474687
0.664894
0.66501477
0.66509065
0.66518465
0.66527138
0.66536355
0.6654473
0.66548789
0.6655325
0.66556587
0.66560106
0.66562688
0.66564969
0.66566352
0.66568406
0.66570689
0.6657193
0.66573033
0.66574034
0.66574995
0.66576344
0.66576553
0.66577864
0.6657756
0.66579153
0.66580156
0.65247704
0.65639584
0.6547912
0.65718393
0.65620764
0.65879512
0.65879499
0.65955303
0.6594645
0.66085721
0.66082839
0.66161523
0.66194776
0.66240403
0.66286361
0.66314164
0.66357699
0.66378939
0.66390611
0.66415137
0.66442111
0.66458622
0.66473665
0.6648606
0.66500574
0.66511437
0.6651769
0.6652741
0.66534393
0.66541329
0.66547303
0.66552239
0.66556113
0.66559639
0.66563024
0.66564881
0.6656594
0.66568076
0.66570687
0.66572034
0.66573084
0.66574049
0.66574754
0.66575969
0.66576622
0.66578084
0.6657755
0.66578889
0.66580093
0.65338339
0.65558283
0.6550357
0.65711408
0.65657553
0.65845747
0.65834878
0.65953559
0.65926561
0.66063829
0.66068507
0.66157116
0.66204655
0.66245116
0.66279793
0.66305568
0.66327184
0.6636948
0.66397029
0.66406367
0.66432774
0.66451401
0.66469178
0.66484446
0.66495114
0.66507942
0.66517282
0.66528095
0.66535527
0.66540868
0.66547044
0.66551728
0.66555589
0.66558864
0.66562491
0.66564801
0.66565962
0.66568035
0.66570408
0.6657194
0.66572985
0.66574046
0.66574807
0.665758
0.66576432
0.66578142
0.66577636
0.66578827
0.66580118
0.65116433
0.65864216
0.6553296
0.65762411
0.65688772
0.65856825
0.65783172
0.65961038
0.65944459
0.66060008
0.66073891
0.66138863
0.66181378
0.66236907
0.66269878
0.66308773
0.66334386
0.66356672
0.66390957
0.66414013
0.66430652
0.6645375
0.66466982
0.66480202
0.66493529
0.66505041
0.665153
0.66526473
0.66535529
0.66541291
0.66547209
0.66552148
0.66555855
0.66558839
0.66562283
0.66564778
0.66566164
0.66568169
0.66570232
0.66571711
0.66572742
0.66573965
0.66574689
0.66575795
0.66576382
0.66578166
0.66577673
0.66579097
0.66579994
0.65450329
0.65343614
0.65536294
0.65757933
0.65704938
0.65835586
0.65807718
0.65986223
0.65954414
0.66050809
0.66078672
0.66126148
0.66171383
0.66225392
0.66253227
0.66293801
0.6633851
0.66359161
0.66381107
0.66407113
0.66428598
0.66452908
0.66470056
0.66479138
0.66494708
0.66506286
0.66515038
0.6652543
0.66533034
0.66540492
0.66546576
0.66552189
0.66556097
0.66559025
0.66562391
0.66564933
0.6656619
0.66568216
0.66570361
0.66571679
0.66572819
0.66573909
0.6657457
0.66575823
0.66576413
0.66578169
0.66577686
0.665795
0.6657965
0.65259785
0.65773231
0.65614001
0.65774689
0.65702795
0.65871429
0.65836521
0.6594976
0.65945201
0.66039807
0.66079323
0.66140668
0.66171551
0.66215091
0.66251581
0.66287077
0.66323298
0.66359531
0.66385019
0.66402865
0.66429291
0.66449941
0.66468023
0.66482615
0.66492715
0.66504722
0.66515831
0.66525392
0.6653321
0.66540344
0.66545784
0.66551346
0.6655598
0.66559024
0.66562529
0.66565077
0.66566282
0.66568174
0.66570463
0.66571757
0.66572908
0.66573993
0.66574577
0.66575825
0.66576426
0.66578104
0.66577659
0.66579705
0.66579274
0.65293924
0.65687475
0.65618409
0.65718612
0.65713143
0.65878394
0.65860701
0.65964074
0.65976665
0.66038656
0.6606053
0.66131656
0.66171096
0.66217896
0.66250595
0.66288337
0.66320978
0.66357334
0.6638224
0.6640518
0.66430699
0.66451252
0.66467232
0.66483033
0.66493871
0.66504451
0.6651624
0.66525864
0.66533731
0.66540802
0.66546086
0.66551519
0.66556298
0.66559117
0.66562658
0.6656523
0.66566471
0.66568174
0.66570564
0.66571907
0.66572882
0.6657406
0.66574678
0.6657584
0.66576397
0.66577991
0.66577584
0.66579642
0.66579188
0.65496503
0.65678275
0.65588205
0.65766201
0.65761561
0.65874601
0.6585091
0.65971115
0.65972037
0.66042155
0.66065035
0.66136697
0.66177505
0.66227493
0.66252544
0.66286303
0.66321523
0.66357876
0.66380668
0.66405556
0.66430518
0.66451489
0.66469091
0.66483156
0.66494511
0.66505616
0.6651716
0.66526444
0.66533834
0.66540805
0.66546459
0.66551773
0.66556597
0.66559425
0.66562808
0.66565359
0.66566739
0.66568324
0.66570664
0.66571981
0.66573029
0.66574116
0.66574718
0.66575858
0.66576339
0.66577846
0.66577492
0.66579438
0.66579554
0.65415096
0.65810453
0.6565738
0.65813498
0.65772613
0.65873754
0.65879098
0.65946395
0.65958611
0.66044787
0.66096422
0.66158577
0.66184608
0.66216833
0.66248486
0.66294021
0.66327182
0.66354191
0.66379614
0.66406959
0.66432638
0.66452806
0.66468569
0.66482908
0.6649618
0.66507662
0.66518096
0.6652699
0.66534313
0.66541018
0.66546803
0.66551888
0.66556764
0.66559776
0.66562965
0.66565477
0.66567063
0.66568459
0.66570775
0.66572104
0.66573148
0.66574238
0.66574804
0.66575862
0.66576297
0.66577667
0.665774
0.65501939
0.65728703
0.65668796
0.6580498
0.65789299
0.65869572
0.65895656
0.65973557
0.66008295
0.66091448
0.66095839
0.66150524
0.66182972
0.66221417
0.66259448
0.66299099
0.66330583
0.6635573
0.66381332
0.6641132
0.66437579
0.66454119
0.66468256
0.66484695
0.66498436
0.66509197
0.66519215
0.66527994
0.66535351
0.66541609
0.66547163
0.66552005
0.66557011
0.66560045
0.66563016
0.66565632
0.66567392
0.66568677
0.66570854
0.66572249
0.66573244
0.66574351
0.66574919
0.66575853
0.66576294
0.66577508
0.65466049
0.65880096
0.65700816
0.6583817
0.65818051
0.65924867
0.65946323
0.66015964
0.66017086
0.66064782
0.66089931
0.66158474
0.66202836
0.66232173
0.66266795
0.66302983
0.66331268
0.66356158
0.66386965
0.66419135
0.6643934
0.66454568
0.66471094
0.66487106
0.66499752
0.66510633
0.6652094
0.66529552
0.66536694
0.66542389
0.66547448
0.66552347
0.66557287
0.66560278
0.66563009
0.66565769
0.66567667
0.66568954
0.66570999
0.66572365
0.66573346
0.66574491
0.66575031
0.66575844
0.6657629
0.65585529
0.65746749
0.65761337
0.65919597
0.65890283
0.65972073
0.6595095
0.65998925
0.66015073
0.66076724
0.66134541
0.66191847
0.66195664
0.66244065
0.66279215
0.66308264
0.66331971
0.66365686
0.66398427
0.66421278
0.6643975
0.66458473
0.66474809
0.66488739
0.66501018
0.66512549
0.66522952
0.66531515
0.66538126
0.66543253
0.66547828
0.66552855
0.66557565
0.66560532
0.6656322
0.66565851
0.66567879
0.66569245
0.66571178
0.66572451
0.66573475
0.66574626
0.66575153
0.66575895
0.65615739
0.65812144
0.65860997
0.65938451
0.65928882
0.65973153
0.65968731
0.66032754
0.66069187
0.66149747
0.66162376
0.66175074
0.66206473
0.6626418
0.6629759
0.66311355
0.66345885
0.66380964
0.66401904
0.66422747
0.66446665
0.66464333
0.66477178
0.66490353
0.6650329
0.6651471
0.66524946
0.66533407
0.66539588
0.66544349
0.66548572
0.66553385
0.66557841
0.66560893
0.66563619
0.66565979
0.66568033
0.66569547
0.66571393
0.66572548
0.66573546
0.66574718
0.66575268
0.65601349
0.65963811
0.65838453
0.65963819
0.65914715
0.66007076
0.66038494
0.66119007
0.66128845
0.66157791
0.66150587
0.66199917
0.66249255
0.66286124
0.66295975
0.66331726
0.66366341
0.66385903
0.66403359
0.66433711
0.66456471
0.66467199
0.66479927
0.66493288
0.66506077
0.66517068
0.66526732
0.66535092
0.66541225
0.66545767
0.66549517
0.66553931
0.66558178
0.66561405
0.66564036
0.66566196
0.66568153
0.66569821
0.66571592
0.6657266
0.66573621
0.66574773
0.65632477
0.65949086
0.65878173
0.66005097
0.65965634
0.66094693
0.66084869
0.66127183
0.66125904
0.66157672
0.66197358
0.66254759
0.66274672
0.66285983
0.66316361
0.66356992
0.66373584
0.66386798
0.66420761
0.66447788
0.66458552
0.66471424
0.66484775
0.66497099
0.66509009
0.66519324
0.66528486
0.66536777
0.66542937
0.66547347
0.66550496
0.66554542
0.66558705
0.66561948
0.66564448
0.66566513
0.66568364
0.66570041
0.66571757
0.6657277
0.66573719
0.65774272
0.65943965
0.65993638
0.66024103
0.66032505
0.66096238
0.66074883
0.66131883
0.6616101
0.66216924
0.66252524
0.66274119
0.66274626
0.66308763
0.66349309
0.66371269
0.66375757
0.66409546
0.66439124
0.66448757
0.66463485
0.66479419
0.66489965
0.66501385
0.66512007
0.6652158
0.66530519
0.66538475
0.66544563
0.6654882
0.66551489
0.66555393
0.66559418
0.66562406
0.66564922
0.66566943
0.66568656
0.66570243
0.66571923
0.66572879
0.65627336
0.6616189
0.65951082
0.66090463
0.66086755
0.66127127
0.66129001
0.6619157
0.66217918
0.66262164
0.66264075
0.66275688
0.66305709
0.66347772
0.66367274
0.66374676
0.66401736
0.66432574
0.66441222
0.6645353
0.66475151
0.66486721
0.66494574
0.66506198
0.66515353
0.66524346
0.66532683
0.66540137
0.66545989
0.66550041
0.66552597
0.66556424
0.66560164
0.66562877
0.66565443
0.66567414
0.6656895
0.66570459
0.66572101
0.65945475
0.65934661
0.66029037
0.66133483
0.66125943
0.6618279
0.66201979
0.66246937
0.66243853
0.66261495
0.66277322
0.66313984
0.66346905
0.6636845
0.66373921
0.66398797
0.66428155
0.66438578
0.66446868
0.66470037
0.66485568
0.66490692
0.66500621
0.66511468
0.66519629
0.66527533
0.66534883
0.6654203
0.6654732
0.66551115
0.66553768
0.66557446
0.66560886
0.66563435
0.66565957
0.66567846
0.66569254
0.665707
0.65855934
0.66126108
0.66104603
0.66182463
0.66168046
0.66219015
0.66230176
0.66250527
0.66264232
0.66294947
0.66322064
0.66356899
0.66369987
0.66378522
0.66397872
0.66426697
0.66437344
0.66444231
0.66466629
0.6648407
0.66489334
0.66496989
0.66507515
0.66516767
0.66524498
0.66530804
0.66537467
0.66544168
0.66548653
0.66552265
0.66554861
0.66558401
0.6656168
0.66564065
0.6656643
0.66568249
0.66569599
0.66006352
0.66145307
0.66190241
0.66234747
0.66215782
0.66255024
0.66260262
0.66291189
0.66318334
0.66348637
0.6636533
0.66382209
0.66387739
0.66407586
0.66429084
0.66442311
0.66447005
0.66465466
0.66483707
0.66489403
0.66496188
0.66505706
0.66513706
0.6652226
0.66529208
0.66534321
0.66540532
0.66546351
0.66550249
0.66553546
0.66555808
0.66559327
0.665625
0.66564691
0.66566878
0.66568679
0.65996143
0.66238014
0.66225925
0.66288028
0.66278206
0.66317073
0.66326916
0.66355398
0.66370378
0.66389793
0.66398113
0.66411291
0.66421711
0.66440298
0.66453088
0.66458405
0.66469905
0.66486471
0.66492366
0.66498249
0.66507898
0.66513385
0.66519593
0.66527462
0.66533627
0.66538458
0.66543698
0.66548658
0.66552256
0.66555002
0.66556836
0.66560347
0.66563321
0.66565313
0.66567349
0.665691
0.6614017
0.66222086
0.6630032
0.66341597
0.66354681
0.6638337
0.66392483
0.66410338
0.66414787
0.66427708
0.66436196
0.66449064
0.66460313
0.66470385
0.66473319
0.66481449
0.66492827
0.66498338
0.66502258
0.66511014
0.66516593
0.66519731
0.66526175
0.66532126
0.66537863
0.66542316
0.66546526
0.66551094
0.66554353
0.66556558
0.66558037
0.66561363
0.6656411
0.6656597
0.66567871
0.66163971
0.66347504
0.66378142
0.66410405
0.66423107
0.66440716
0.6645012
0.66461873
0.66467316
0.66475868
0.6648133
0.66490132
0.66492736
0.66497348
0.66503678
0.66509279
0.6651422
0.66514606
0.66519216
0.66523533
0.66524371
0.6652777
0.6653305
0.66536936
0.66542113
0.66545841
0.66549389
0.66553467
0.66556358
0.66558234
0.66559309
0.66562376
0.66564888
0.66566622
0.6625685
0.66418868
0.66477707
0.66483444
0.66498281
0.66503016
0.6650866
0.66516729
0.66519745
0.66525133
0.6652639
0.66528029
0.6652889
0.66530143
0.66528088
0.66528715
0.66529761
0.66529401
0.66532255
0.66534141
0.66534347
0.66537368
0.66540209
0.66542296
0.66546193
0.66549463
0.66552468
0.66555735
0.66558353
0.66560013
0.66560649
0.66563444
0.66565721
0.66294558
0.66493625
0.66521648
0.66572571
0.6657412
0.66581569
0.66582881
0.66583329
0.66580394
0.665787
0.66574257
0.66570611
0.66563495
0.66562746
0.66561009
0.66556248
0.66549996
0.66547075
0.66545152
0.66542531
0.66542889
0.66545843
0.66547275
0.66548112
0.66550194
0.66553063
0.66555386
0.66557812
0.66560204
0.66561547
0.66561914
0.66472849
0.66605511
0.66672551
0.66668353
0.66671008
0.66662368
0.66652232
0.66644825
0.66633625
0.66624395
0.66614325
0.66607497
0.66597121
0.66587466
0.66579625
0.66572309
0.66569208
0.66566802
0.6656207
0.66557431
0.66554877
0.66553582
0.6655334
0.66554122
0.66555249
0.66557114
0.66558478
0.66560134
0.66561953
0.6656301
0.66578296
0.66724335
0.66762438
0.66790831
0.66771275
0.66755305
0.66736382
0.66717452
0.66697335
0.66679892
0.66664509
0.66647682
0.66634258
0.66620027
0.66598866
0.66587714
0.6657952
0.66573492
0.66569767
0.66567483
0.6656465
0.6656377
0.66561626
0.66559972
0.6655968
0.66560962
0.66561888
0.6656279
0.66563864
0.66850649
0.66874566
0.669296
0.66859796
0.66854463
0.66820919
0.66792066
0.6676717
0.66743973
0.66721615
0.66694877
0.66676059
0.66655044
0.66638
0.66628709
0.66616101
0.66602932
0.66590865
0.66581541
0.66574016
0.66568921
0.66568487
0.6656821
0.66567191
0.66565553
0.66565053
0.66564848
0.66562817
0.66585205
0.66631571
0.66583228
0.66615416
0.66665784
0.66766922
0.66910696
0.67030481
0.66669677
0.66697853
0.66751261
0.66842464
0.66961493
0.67041431
0.66691342
0.66715538
0.66771446
0.6685264
0.66961018
0.67009325
0.66693034
0.66713359
0.66766204
0.66837614
0.66923261
0.66956878
0.666931
0.66710294
0.66760649
0.66818858
0.66886866
0.66903404
0.66689322
0.66706768
0.66751261
0.66797219
0.66850281
0.66855697
0.66684399
0.66700218
0.66737447
0.66774123
0.66814876
0.668143
0.66685515
0.66723889
0.66750215
0.66781697
0.66777919
0.66670731
0.66711361
0.66727836
0.66751808
0.66745719
0.6667072
0.6669695
0.66708469
0.66725403
0.66718638
0.6666544
0.66678087
0.66692079
0.6669273
0.66699614
0.66662483
0.66660787
0.66671042
0.66669401
0.66680676
0.66658703
0.66654248
0.66657357
0.66661256
0.66644243
0.66644314
0.66644891
0.66645192
0.66643039
0.66625372
0.66634438
0.66633528
0.6662598
0.66617724
0.66621906
0.66625906
0.66610039
0.6661289
0.6661616
0.66611326
0.6660299
0.66606033
0.66597918
0.66598099
0.66597397
0.66589607
0.66591442
0.66591881
0.66588457
0.66590843
0.66582022
0.66585765
0.66573585
0.66579363
0.66571288
0.66574905
0.66571321
0.66569803
0.66568992
)
;

boundaryField
{
    Side
    {
        type            empty;
    }
    Inlet
    {
        type            calculated;
        value           nonuniform List<scalar> 9(0.66578365 0.66578269 0.66578152 0.66578086 0.66578055 0.66578029 0.66578 0.66577984 0.66577988);
    }
    Airfoil
    {
        type            calculated;
        value           nonuniform List<scalar> 
33
(
0.6521781
0.65158872
0.65133797
0.65215444
0.65226976
0.65221607
0.65247704
0.65338339
0.65116433
0.65450329
0.65259785
0.65293924
0.65496503
0.65415096
0.65501939
0.65466049
0.65585529
0.65615739
0.65601349
0.65632477
0.65774272
0.65627336
0.65945475
0.65855934
0.66006352
0.65996143
0.6614017
0.66163971
0.6625685
0.66294558
0.66472849
0.66578296
0.66850649
)
;
    }
    Outlet
    {
        type            calculated;
        value           nonuniform List<scalar> 0();
    }
    procBoundary1to0
    {
        type            processor;
        value           nonuniform List<scalar> 
53
(
0.65193229
0.65774441
0.65526945
0.65872612
0.65728286
0.65728286
0.66027797
0.65975129
0.66150283
0.66153073
0.66207838
0.6625899
0.66302126
0.66280994
0.66280994
0.66324337
0.66396355
0.66388777
0.66406677
0.66426927
0.66442838
0.66458919
0.66470984
0.66481565
0.66487819
0.66487819
0.66499741
0.66511539
0.66518536
0.66525301
0.66533735
0.66541013
0.66545901
0.66550195
0.66554735
0.66558598
0.66562062
0.66563572
0.66563572
0.66566149
0.66566615
0.66568283
0.66571017
0.66572374
0.66573489
0.66574211
0.6657504
0.6657613
0.66576731
0.66578033
0.66577235
0.66578685
0.66579987
)
;
    }
    procBoundary1to2
    {
        type            processor;
        value           nonuniform List<scalar> 
75
(
0.66579246
0.66579957
0.66579246
0.66577332
0.66577332
0.66577436
0.66577436
0.66576238
0.66576238
0.66575945
0.66575945
0.66575344
0.66575344
0.66574867
0.66574867
0.66573797
0.66573797
0.66572996
0.66572996
0.66572284
0.66572284
0.66570947
0.66570947
0.66569963
0.66569963
0.66570305
0.66569485
0.66569485
0.66568406
0.66568406
0.66567283
0.66564503
0.66567283
0.66566499
0.66564503
0.66563249
0.66563249
0.66564495
0.66565054
0.66564495
0.66565649
0.66565054
0.66568214
0.66569685
0.66580623
0.66667002
0.66691053
0.66695656
0.66694103
0.66690065
0.66688276
0.66684754
0.66684754
0.66684573
0.66672721
0.6666872
0.66664964
0.66652621
0.66640682
0.66632009
0.66632009
0.66621711
0.66612374
0.66612259
0.66612259
0.66601726
0.66592292
0.66587942
0.66587942
0.66585381
0.66581056
0.66572086
0.66572086
0.66570893
0.66568214
)
;
    }
    procBoundary1to8
    {
        type            processor;
        value           nonuniform List<scalar> 8(0.67013515 0.66561895 0.66580581 0.66715144 0.66630504 0.66715144 0.66864846 0.67013515);
    }
}


// ************************************************************************* //
