/*--------------------------------*- C++ -*----------------------------------*\
| =========                 |                                                 |
| \\      /  F ield         | OpenFOAM: The Open Source CFD Toolbox           |
|  \\    /   O peration     | Version:  2506                                  |
|   \\  /    A nd           | Website:  www.openfoam.com                      |
|    \\/     M anipulation  |                                                 |
\*---------------------------------------------------------------------------*/
FoamFile
{
    version     2.0;
    format      ascii;
    arch        "LSB;label=32;scalar=64";
    class       volScalarField;
    location    "2.4";
    object      alphat;
}
// * * * * * * * * * * * * * * * * * * * * * * * * * * * * * * * * * * * * * //

dimensions      [1 -1 -1 0 0 0 0];

internalField   nonuniform List<scalar> 
19257
(
0.13179133
0.13076261
0.130073
0.12958281
0.12920379
0.12890345
0.12865823
0.12845725
0.12828861
0.12814687
0.12802521
0.12791936
0.12782643
0.12774335
0.12767309
0.12761235
0.12755382
0.12750637
0.12745625
0.12741887
0.12738336
0.12734976
0.12732718
0.12730438
0.12728143
0.12727175
0.12727769
0.12728914
0.12730129
0.12736272
0.12743736
0.12754739
0.12023701
0.099704636
0.084938209
0.065861731
0.051227744
0.038699826
0.03566941
0.026350295
0.027094787
0.014990057
0.012018683
0.011437146
0.0071803161
0.005382401
0.006966396
0.0035252836
0.00048934821
0.13177521
0.13079703
0.1301329
0.12964814
0.12927041
0.12896991
0.12872337
0.12851953
0.12834568
0.12820089
0.12807611
0.12796822
0.12787432
0.12778641
0.12771627
0.12765196
0.12759013
0.12754239
0.12749198
0.12745155
0.12741584
0.12737874
0.1273556
0.12733336
0.1273118
0.12729962
0.12730565
0.12732121
0.12732935
0.12738574
0.12746152
0.12756312
0.12654937
0.097723642
0.077176466
0.066665422
0.056977999
0.044522534
0.036441832
0.026601632
0.021602823
0.016808626
0.01398381
0.012059562
0.0093106089
0.005884318
0.0051149865
0.0033862946
0.00047519703
0.13184969
0.13090041
0.13023207
0.12974386
0.12936255
0.12905724
0.12880537
0.12859588
0.12841706
0.12826696
0.12813825
0.12802671
0.12792777
0.12783786
0.12776343
0.127697
0.12763421
0.12758349
0.12753168
0.12748769
0.12745155
0.12741216
0.12738658
0.12736524
0.12734514
0.12733037
0.12733217
0.12734739
0.12736148
0.12740313
0.12748002
0.12757534
0.12675898
0.10050765
0.0835744
0.063608961
0.054029988
0.042387408
0.033041817
0.029908636
0.020259024
0.01529639
0.014241744
0.010549347
0.0084680251
0.0056939593
0.0054808992
0.0024649746
0.00047872256
0.1318881
0.13097818
0.13032008
0.12983563
0.12945296
0.12914479
0.12888943
0.12867445
0.12849176
0.12833753
0.12820285
0.12808721
0.12798407
0.12789305
0.12781318
0.12774714
0.12768042
0.12762605
0.12757341
0.12752641
0.12748917
0.12744881
0.12742074
0.12739787
0.12737632
0.1273634
0.12736128
0.12737333
0.12739639
0.12742824
0.12750281
0.1275873
0.12773787
0.10367121
0.084919894
0.068895103
0.0532362
0.044596849
0.034951044
0.025707582
0.022954623
0.019828153
0.011790454
0.010127658
0.0072107433
0.0053833015
0.0035725819
0.0025581623
0.00051059566
0.13193148
0.13106093
0.13041423
0.12993235
0.1295483
0.12923632
0.12897756
0.12875744
0.12857051
0.12841074
0.12827271
0.12815226
0.12804555
0.12795067
0.12786718
0.1277982
0.12772906
0.12767127
0.12761699
0.12756791
0.12752847
0.12748842
0.12745615
0.12743073
0.12741085
0.12739682
0.12739068
0.12740254
0.12743081
0.12745799
0.12751811
0.12760164
0.12774923
0.10494943
0.081989461
0.06932163
0.05573468
0.045731819
0.034611696
0.030838693
0.019852934
0.016289825
0.015991773
0.010312952
0.0077550904
0.0054180202
0.0042756031
0.0024602864
0.00051095675
0.13197211
0.1311397
0.13050805
0.13003026
0.1296474
0.12933149
0.12906919
0.12884439
0.1286528
0.12848803
0.12834585
0.12821942
0.12811182
0.12801153
0.12792421
0.12784976
0.12777981
0.12771833
0.12766403
0.12761332
0.12756847
0.12752878
0.12749362
0.12746637
0.12744748
0.1274314
0.1274236
0.12743198
0.12745996
0.12749138
0.12753489
0.12762655
0.12775932
0.11076445
0.088197
0.069835661
0.055373487
0.044503651
0.036913381
0.026197435
0.02590339
0.016565632
0.012241153
0.010130464
0.0073130634
0.0057663709
0.0035594628
0.0020404238
0.00055194343
0.13200905
0.13121625
0.13059993
0.13012866
0.12974751
0.12942857
0.1291624
0.12893425
0.1287379
0.12856942
0.12842217
0.12829176
0.12817936
0.12807536
0.12798389
0.12790478
0.12783371
0.12776859
0.12771354
0.12766023
0.12760913
0.12756955
0.12753404
0.12750572
0.12748502
0.12746905
0.12745862
0.12746274
0.12749094
0.1275242
0.12755795
0.12765291
0.12776345
0.10878754
0.08857049
0.070148163
0.05861489
0.045106558
0.036636855
0.028746602
0.0199015
0.01823043
0.013794386
0.010025092
0.0070783659
0.0046976696
0.0035666629
0.0021546823
0.00055929045
0.13204379
0.13129164
0.13069345
0.13022733
0.12984846
0.12952749
0.12925742
0.12902632
0.12882627
0.12865328
0.12850022
0.12836692
0.12824892
0.12814226
0.12804578
0.12796147
0.12788906
0.12782039
0.12776214
0.12770612
0.12765436
0.12761306
0.12757817
0.12754712
0.12752251
0.12750682
0.12749623
0.12749607
0.12751944
0.12755706
0.12759275
0.12767303
0.127772
0.11242226
0.09313723
0.072282199
0.057960588
0.045418079
0.037551176
0.029522378
0.023905644
0.017083353
0.01325873
0.0099100991
0.0074609412
0.0052143196
0.0036097866
0.0019915284
0.00059961974
0.13207644
0.13135921
0.13078063
0.13032355
0.12994747
0.12962721
0.12935344
0.12911954
0.12891615
0.12873833
0.12858097
0.12844287
0.12832014
0.12821055
0.128109
0.12801972
0.12794466
0.12787331
0.12781021
0.12775453
0.12770279
0.12765849
0.12762215
0.12758943
0.12756219
0.12754507
0.1275331
0.12753085
0.12755161
0.12759035
0.12763583
0.12768116
0.12779557
0.11452961
0.090521761
0.077139904
0.058067948
0.04949193
0.035553859
0.029940479
0.021805241
0.018264262
0.012834714
0.0099164044
0.0067845218
0.0050082276
0.0031701313
0.0019105383
0.00061819145
0.13210569
0.13142084
0.13086279
0.13041615
0.13004292
0.12972512
0.12944879
0.12921203
0.12900544
0.12882333
0.12866155
0.12851922
0.12839304
0.12827956
0.12817412
0.1280801
0.12800027
0.1279275
0.12786162
0.12780526
0.12775079
0.12770358
0.12766495
0.1276317
0.12760309
0.12758492
0.12757243
0.12756738
0.12758379
0.12762307
0.12767382
0.12769816
0.12783141
0.1192145
0.094135607
0.074708393
0.062145658
0.046945537
0.039085439
0.028907916
0.023217622
0.017109237
0.013952962
0.0098053501
0.0073109125
0.0047893396
0.0032695359
0.0019094493
0.00059384558
0.13213714
0.13148129
0.13094111
0.1305049
0.13013767
0.1298212
0.129544
0.12930378
0.12909473
0.12890749
0.12874139
0.12859478
0.12846496
0.12834813
0.12823969
0.1281421
0.12805762
0.12798261
0.12791373
0.12785494
0.12779916
0.12774872
0.12770817
0.12767502
0.12764516
0.12762459
0.12761155
0.12760525
0.12761729
0.12765451
0.12770689
0.12772619
0.12786537
0.11972012
0.097573712
0.076734202
0.061380175
0.049674029
0.039142198
0.030233145
0.023683374
0.017331828
0.013721392
0.0097140542
0.0070287559
0.0049575505
0.0029626448
0.0019640103
0.00062908625
0.13216631
0.13153893
0.13101834
0.13058879
0.13022872
0.12991338
0.12963695
0.12939389
0.12918115
0.12898885
0.12881963
0.12866887
0.12853468
0.1284148
0.12830386
0.12820259
0.12811378
0.12803604
0.12796429
0.1279023
0.12784615
0.12779449
0.12775163
0.12771679
0.12768617
0.12766344
0.12765007
0.12764304
0.12765006
0.12768315
0.12773469
0.12776354
0.12789011
0.12394001
0.098480243
0.079399316
0.062937928
0.049006135
0.039264943
0.030685338
0.023677167
0.018435532
0.012791675
0.010253354
0.0068580907
0.0047467909
0.0032560664
0.0016522178
0.0006209206
0.13219685
0.13159284
0.13108692
0.13066396
0.13031142
0.12999819
0.12972254
0.1294774
0.12926144
0.12906669
0.12889373
0.12873977
0.1286012
0.12847771
0.12836501
0.1282609
0.12816875
0.12808781
0.12801365
0.12794839
0.12789146
0.12783878
0.1277934
0.12775652
0.12772567
0.12770111
0.12768684
0.12768015
0.12768404
0.12771216
0.12776008
0.12781284
0.12788969
0.12693086
0.10053448
0.080568888
0.063563854
0.0516234
0.039116906
0.031061295
0.023222091
0.018419173
0.014016354
0.009996002
0.0073139268
0.0048143552
0.0028352925
0.0019642577
0.00064593756
0.13222543
0.13164139
0.13114714
0.13073459
0.13038602
0.13007668
0.12980105
0.12955436
0.1293358
0.12913786
0.12896127
0.12880466
0.1286629
0.12853637
0.12842185
0.12831522
0.1282206
0.12813681
0.12806035
0.12799158
0.12793309
0.1278801
0.12783264
0.12779394
0.12776297
0.1277372
0.12772137
0.12771486
0.12771709
0.12774012
0.12778462
0.1278485
0.12789616
0.12805268
0.10279332
0.081311353
0.064988441
0.05088037
0.040865851
0.03116247
0.024187322
0.017819368
0.013638649
0.0097620266
0.0070368146
0.0046066592
0.0031888802
0.0016451428
0.0006237696
0.13225484
0.13168601
0.1312026
0.13079731
0.13045169
0.13014719
0.12987102
0.12962428
0.12940253
0.12920126
0.12902173
0.12886217
0.12871781
0.12858905
0.12847308
0.12836459
0.12826723
0.12818058
0.12810246
0.12803113
0.12797026
0.12791711
0.12786837
0.12782794
0.12779663
0.12777028
0.12775249
0.12774555
0.12774695
0.1277652
0.12780531
0.12787571
0.12790706
0.1280774
0.10439241
0.082398158
0.065308234
0.051672695
0.040540656
0.031481226
0.024127687
0.018321387
0.013626812
0.010085403
0.0069193529
0.0049575901
0.0027555192
0.0017959141
0.00063911621
0.13228258
0.13172506
0.13124936
0.1308487
0.13050656
0.13020662
0.12993146
0.12968383
0.12945761
0.12925457
0.1290739
0.12891221
0.12876541
0.12863423
0.12851696
0.12840737
0.12830794
0.12821875
0.12813872
0.12806551
0.12800233
0.12794895
0.12789969
0.12785756
0.12782555
0.12779886
0.12777921
0.1277711
0.12777225
0.12778682
0.12782159
0.12789547
0.12791492
0.12809821
0.10625505
0.083833595
0.065919377
0.052327041
0.041028442
0.031741348
0.024232096
0.018543753
0.013764454
0.0099902586
0.0070504176
0.0045364956
0.0030034485
0.0017727368
0.00062994769
0.13230689
0.13175831
0.13128684
0.13089088
0.13055207
0.13025183
0.12997734
0.12973004
0.12950369
0.12929959
0.12911744
0.12895369
0.12880472
0.128671
0.12855169
0.12844045
0.12833938
0.12824916
0.12816807
0.1280935
0.12802811
0.12797429
0.12792533
0.12788205
0.1278491
0.12782217
0.12780167
0.12779263
0.12779374
0.12780581
0.1278351
0.12790929
0.12792018
0.1281154
0.10930403
0.085834119
0.067689832
0.053403947
0.042075252
0.032556397
0.024861889
0.018792173
0.014102691
0.010203142
0.0071261797
0.0047894457
0.0028871654
0.001710645
0.00062626318
0.13232552
0.13178358
0.13131553
0.13092283
0.13058564
0.13028458
0.13001037
0.12976047
0.12953673
0.12933372
0.12914926
0.12898377
0.12883362
0.12869813
0.12857683
0.12846392
0.12836129
0.12827024
0.12818898
0.12811391
0.12804682
0.12799224
0.12794384
0.12790028
0.12786681
0.12783972
0.12781886
0.12780905
0.12781026
0.12782132
0.12784626
0.12791823
0.12792573
0.12812959
0.11261224
0.088280601
0.069221044
0.054624178
0.042874562
0.033172173
0.025312693
0.019190337
0.014311211
0.010406485
0.0072666472
0.0048410114
0.0030078179
0.0018425445
0.00065198707
0.132337
0.13179934
0.13133302
0.13094184
0.13060546
0.13030455
0.13003189
0.12977926
0.12955378
0.12935182
0.1291677
0.12900078
0.12884958
0.1287135
0.12859103
0.12847723
0.12837424
0.12828303
0.12820148
0.12812593
0.12805782
0.12800258
0.12795453
0.12791108
0.12787758
0.12785106
0.12783077
0.1278209
0.12782295
0.1278355
0.12785928
0.12792966
0.12794143
0.1281511
0.11074217
0.086843827
0.067960792
0.053449046
0.041892444
0.032372975
0.024690583
0.018701765
0.013946855
0.010108786
0.0070449775
0.0046820742
0.0028934629
0.0017234823
0.00062883154
0.13234094
0.13180483
0.13133892
0.13094752
0.13061173
0.13031183
0.13003846
0.12978591
0.12955806
0.12935528
0.12917142
0.1290046
0.128853
0.12871693
0.12859452
0.12848081
0.12837807
0.12828701
0.12820491
0.1281287
0.12806018
0.12800505
0.12795711
0.12791371
0.12788026
0.12785471
0.12783526
0.1278251
0.12782763
0.12784223
0.1278659
0.12793492
0.12795276
0.12816524
0.10780235
0.084671857
0.066312325
0.052127953
0.040810761
0.031552279
0.024053312
0.018212561
0.013555633
0.0098027023
0.006805106
0.0044941053
0.0027355247
0.0016058308
0.00061168035
0.13233751
0.13180045
0.13133424
0.13094248
0.1306063
0.13030618
0.13003418
0.12978052
0.12955207
0.12934887
0.12916569
0.12899933
0.12884773
0.12871222
0.12859048
0.12847704
0.1283746
0.12828361
0.12820129
0.1281244
0.12805543
0.12799996
0.1279514
0.12790766
0.12787388
0.12784918
0.12783046
0.12781918
0.12782082
0.12783595
0.12785854
0.12792342
0.12793459
0.12814893
0.11074528
0.087073297
0.068164905
0.053518583
0.041905128
0.032351305
0.02470282
0.01870618
0.013945002
0.010124534
0.0070315524
0.0046866807
0.0028690543
0.0017168558
0.00062880243
0.13232614
0.13178544
0.13131729
0.13092464
0.13058627
0.13028483
0.1300109
0.12976372
0.1295333
0.12932845
0.12914656
0.12898147
0.12883098
0.1286969
0.12857577
0.12846272
0.1283612
0.12827075
0.12818891
0.12811225
0.12804392
0.12798854
0.12793971
0.12789653
0.12786326
0.12784008
0.12782252
0.12781058
0.12781187
0.12782787
0.12784888
0.12790924
0.12791484
0.12812928
0.11223207
0.088600927
0.069476201
0.054619663
0.04271829
0.033117959
0.0252586
0.019165044
0.014314985
0.010375714
0.0073145563
0.0048088248
0.0030955636
0.0018654371
0.00065042171
0.13230749
0.13176032
0.13128856
0.13089386
0.13055351
0.13025035
0.1299742
0.12972942
0.12950284
0.12929825
0.12911609
0.12895163
0.12880273
0.12867031
0.12854951
0.1284374
0.1283374
0.12824796
0.1281671
0.12809136
0.12802454
0.12796982
0.12792137
0.12787963
0.12784772
0.12782633
0.12780934
0.12779707
0.1277994
0.12781753
0.12783855
0.12789657
0.12790668
0.12811635
0.10914733
0.086129934
0.068025556
0.053305353
0.041913655
0.032241094
0.024727304
0.018938243
0.014129819
0.010180453
0.007085264
0.0048127833
0.0026992601
0.0016684434
0.00062489148
0.13228288
0.13172686
0.13125034
0.13085122
0.13050854
0.13020259
0.12992769
0.12968105
0.12945578
0.12925381
0.12907344
0.12891103
0.12876401
0.12863307
0.12851287
0.12840259
0.12830472
0.12821672
0.12813712
0.12806275
0.127998
0.12794386
0.1278962
0.12785607
0.12782576
0.12780579
0.1277882
0.12777579
0.12777972
0.12779987
0.12782129
0.12787815
0.12790058
0.12810052
0.10612404
0.084862937
0.066065595
0.052369156
0.040869022
0.031535738
0.024418163
0.018417054
0.01347657
0.010251516
0.0068595374
0.0045704567
0.0032887014
0.0018863342
0.00063854565
0.13225453
0.13168776
0.13120231
0.13079892
0.13045243
0.13014473
0.12986909
0.12962126
0.12939764
0.12919893
0.12902183
0.12886173
0.12871701
0.12858762
0.12846866
0.12836085
0.12826525
0.12817871
0.12810062
0.1280282
0.12796561
0.12791223
0.127866
0.12782719
0.12779848
0.12777932
0.12776028
0.12774854
0.12775446
0.12777593
0.12779788
0.12785406
0.12789451
0.12808169
0.10569698
0.082302862
0.066272294
0.051525812
0.040267243
0.031318144
0.023962569
0.017709648
0.014232479
0.0094739448
0.0074798029
0.0047187931
0.0025783367
0.0016301792
0.00062742611
0.13222497
0.13164289
0.13114693
0.13073763
0.13038624
0.13007667
0.12980047
0.12955303
0.12933195
0.12913666
0.12896278
0.12880408
0.12866178
0.12853433
0.12841786
0.12831291
0.12821964
0.12813499
0.12805917
0.12798887
0.12792796
0.12787572
0.12783098
0.1277933
0.12776675
0.12774802
0.12772761
0.12771774
0.12772592
0.12774771
0.1277704
0.12782508
0.12788801
0.1280594
0.10200905
0.083504856
0.063974036
0.051575979
0.039671469
0.031163417
0.023619649
0.019770765
0.012986298
0.010626817
0.0063572563
0.0047860123
0.0031978035
0.0018536652
0.00062953724
0.13219662
0.13159457
0.13108513
0.13066775
0.1303116
0.12999954
0.1297248
0.12947865
0.12925973
0.12906702
0.12889509
0.12873899
0.12859979
0.12847447
0.12836145
0.12825984
0.12816879
0.12808651
0.12801365
0.12794527
0.12788597
0.12783528
0.1277921
0.12775624
0.12773218
0.12771295
0.1276917
0.1276844
0.12769444
0.12771551
0.12773894
0.12779149
0.12788547
0.12532475
0.10289841
0.079356645
0.065156907
0.049732711
0.040368138
0.030121502
0.024983545
0.016134422
0.014549991
0.0096765862
0.0078276885
0.0043180018
0.0029881534
0.0018005229
0.0006392986
0.1321658
0.13154201
0.13101887
0.13059125
0.13023067
0.12991424
0.1296404
0.12939615
0.12918043
0.12899039
0.1288208
0.1286681
0.12853335
0.12841106
0.12830139
0.12820287
0.12811385
0.1280351
0.12796481
0.12789784
0.12784084
0.12779249
0.12775112
0.12771742
0.12769515
0.12767447
0.12765307
0.1276484
0.12765984
0.12767925
0.12770743
0.12774313
0.12789185
0.12473975
0.098548897
0.080196663
0.062571598
0.049974367
0.037973292
0.031099116
0.021864046
0.020189019
0.013366013
0.0095087936
0.006721447
0.0046370466
0.0029381903
0.001771059
0.00062939705
0.13213914
0.13148521
0.13094456
0.13050814
0.13014307
0.12982488
0.12954973
0.12930805
0.12909571
0.12890882
0.12874328
0.12859507
0.12846407
0.12834525
0.12823936
0.12814434
0.12805744
0.12798252
0.12791367
0.12784839
0.12779356
0.12774794
0.12770902
0.12767777
0.12765625
0.12763263
0.12761204
0.12761116
0.12762472
0.12764287
0.12767652
0.12770961
0.12787025
0.12046625
0.096812683
0.077608721
0.060800936
0.049713631
0.037809606
0.030456561
0.024872676
0.017254134
0.013018169
0.010221556
0.0066752654
0.005606518
0.0032369385
0.0018888488
0.00061562017
0.13211161
0.13142813
0.13086719
0.1304191
0.13004867
0.12972905
0.12945438
0.12921597
0.12900758
0.12882485
0.12866398
0.12852034
0.12839265
0.12827817
0.12817638
0.12808513
0.12800157
0.12793027
0.12786191
0.12779943
0.12774734
0.12770432
0.12766671
0.12763667
0.1276151
0.12758927
0.12757256
0.12757585
0.12758963
0.12760544
0.1276434
0.12768707
0.12783732
0.11720724
0.095066127
0.07560845
0.062299005
0.045969312
0.039396651
0.029221914
0.021528221
0.017240732
0.014324461
0.0098071832
0.0071037959
0.0041494902
0.0029212125
0.0019206094
0.00060974556
0.13208129
0.13136024
0.13078245
0.13032334
0.12994966
0.12963001
0.1293564
0.12912164
0.12891722
0.12873945
0.12858313
0.12844371
0.12832045
0.12821062
0.12811292
0.12802359
0.12794421
0.12787564
0.12780942
0.12774935
0.127701
0.12766026
0.1276251
0.12759623
0.12757435
0.12754628
0.12753357
0.12753949
0.12755269
0.12756809
0.12760916
0.12767697
0.12780018
0.11482593
0.093393836
0.073925095
0.058824446
0.047280114
0.037222161
0.027656039
0.022803697
0.019623633
0.011469886
0.009305478
0.0074109533
0.0053709046
0.0036595448
0.0019106347
0.00060625665
0.13204561
0.13128782
0.13069249
0.13022554
0.12984601
0.12952863
0.1292581
0.12902733
0.12882795
0.12865412
0.12850261
0.12836756
0.12824867
0.12814418
0.12805002
0.12796289
0.12788792
0.12782096
0.12775671
0.127699
0.12765418
0.12761457
0.12758187
0.12755673
0.12753327
0.12750432
0.12749688
0.12750383
0.12751555
0.12753232
0.12757116
0.12767112
0.1277749
0.11355138
0.090368999
0.073844102
0.056794149
0.048181656
0.034792299
0.030517413
0.025192114
0.015293035
0.013735023
0.011205396
0.0067441043
0.0049534599
0.0033257443
0.0020295915
0.00061069911
0.13200744
0.13121576
0.13060355
0.13012928
0.12974629
0.12942975
0.12916237
0.12893477
0.12873939
0.12857096
0.1284243
0.12829391
0.12818
0.12807975
0.12798765
0.12790505
0.12783456
0.12777041
0.12770866
0.12765342
0.1276103
0.12757288
0.12753912
0.12751479
0.12749172
0.12746604
0.12746217
0.12746845
0.12747855
0.12749727
0.12754204
0.12765364
0.12776122
0.11064749
0.087029249
0.071483683
0.06005174
0.043576483
0.037665628
0.027467311
0.020685367
0.017248252
0.013468033
0.0095736017
0.0060713196
0.0050292237
0.003805607
0.0022442428
0.00054570582
0.13197029
0.13114202
0.13051354
0.13003176
0.12964759
0.12933238
0.12906744
0.12884471
0.12865459
0.12849119
0.12834862
0.12822275
0.1281143
0.12801743
0.12792801
0.12784993
0.127783
0.12771947
0.12766122
0.12761082
0.12756896
0.12753337
0.12750021
0.12747606
0.12745054
0.1274276
0.12742914
0.12743415
0.12744326
0.12746537
0.12752238
0.12762425
0.127748
0.10528887
0.090890116
0.071319751
0.052408817
0.04495347
0.03550028
0.028382735
0.023469335
0.016687261
0.013640021
0.0091908182
0.0074212029
0.0050709293
0.0031557612
0.0021622164
0.00055933307
0.13193491
0.13106605
0.13042161
0.12993532
0.12955093
0.12923692
0.12897565
0.12875771
0.12857166
0.12841384
0.12827601
0.12815334
0.12805089
0.12795784
0.12787222
0.12779633
0.12773306
0.12767077
0.12761461
0.12756842
0.12752862
0.12749378
0.12746265
0.12743863
0.12741021
0.12739308
0.12739632
0.12740148
0.12741021
0.12743221
0.12751077
0.12759945
0.12718421
0.10719048
0.084547503
0.064499655
0.060655652
0.046420146
0.034286388
0.028796347
0.020914686
0.017162081
0.014601999
0.0091395809
0.0091996808
0.0047731466
0.0039675216
0.0023393407
0.00050734607
0.13189386
0.13098372
0.1303284
0.12983989
0.12945625
0.12914457
0.12888806
0.128674
0.12849375
0.12833936
0.12820596
0.12808703
0.12798918
0.12790029
0.12781824
0.12774643
0.12768496
0.12762489
0.12757209
0.12752792
0.12748913
0.1274563
0.12742715
0.12740465
0.12737393
0.12736205
0.1273617
0.127368
0.12737762
0.12740591
0.12749419
0.12757957
0.12772477
0.10428821
0.084181075
0.073463094
0.052212136
0.03985063
0.034646929
0.028425717
0.02265022
0.019996314
0.011769316
0.010647435
0.0056950181
0.0051631244
0.0043128921
0.0027363627
0.00049449119
0.13185616
0.13090831
0.1302407
0.12974808
0.12936634
0.12905723
0.12880546
0.12859567
0.12842048
0.12827078
0.1281402
0.12802664
0.12793161
0.12784529
0.12776731
0.12769967
0.1276385
0.12757991
0.12753184
0.12749021
0.12745065
0.1274184
0.12739231
0.12737009
0.12734121
0.12733427
0.12733313
0.1273364
0.12734803
0.12738466
0.12746825
0.12756257
0.12449977
0.10338414
0.080619702
0.064213396
0.054187705
0.045181882
0.037514693
0.025480622
0.021206895
0.016253928
0.013224001
0.010325214
0.0086498147
0.0045772853
0.00412928
0.0022642907
0.00049274727
0.13177822
0.13080424
0.13014112
0.12965294
0.12927525
0.12897094
0.12872378
0.1285202
0.12834888
0.1282049
0.12807763
0.12797023
0.12787816
0.1277923
0.12771714
0.12765479
0.12759411
0.12753787
0.12749151
0.1274521
0.12741569
0.12738367
0.12735903
0.12733336
0.12730899
0.12730717
0.12730422
0.12730368
0.12732076
0.1273698
0.12744398
0.12755136
0.12577285
0.10036498
0.083065641
0.0668222
0.04710587
0.038689875
0.0300661
0.027473874
0.025249748
0.016737164
0.015866866
0.011213125
0.0093652844
0.0068469748
0.0042408059
0.0029809462
0.00045826255
0.13179418
0.13076798
0.1300796
0.12958744
0.12920802
0.12890504
0.1286602
0.1284595
0.12829052
0.12814908
0.12802605
0.12792236
0.12783242
0.12774862
0.12767402
0.12761399
0.12755487
0.12750172
0.12745917
0.12741873
0.12738168
0.12735239
0.12733095
0.12730243
0.12727978
0.12727896
0.12727391
0.12727313
0.12729175
0.12734902
0.12742159
0.12753145
0.12620106
0.10124648
0.081343345
0.064271547
0.067777457
0.041838794
0.034603316
0.026478031
0.019857989
0.017037972
0.012288502
0.011548538
0.0092450186
0.0036832581
0.0053630734
0.0050714046
0.00049680842
0.0020024925
0.0075122812
0.014513095
0.016493159
0.041723581
0.032934272
0.039499739
0.050760609
0.055132961
0.064051443
0.066087154
0.089147781
0.09742692
0.12172427
0.12527482
0.12752072
0.12447179
0.12925282
0.12901299
0.12857975
0.12809935
0.12766577
0.12731124
0.12704005
0.12686069
0.12673371
0.12664832
0.12659602
0.12655849
0.12652753
0.12650128
0.12648498
0.1264794
0.12647
0.12647055
0.12647202
0.12647902
0.12649008
0.12650741
0.12653137
0.12656617
0.12661444
0.12668048
0.12677023
0.12689132
0.12706058
0.12729763
0.12765491
0.12802921
0.0017981069
0.01031955
0.016432682
0.030676933
0.031558214
0.053300622
0.058613726
0.062509652
0.071568854
0.078803925
0.1025279
0.09537558
0.1211231
0.10381894
0.11208079
0.1278591
0.12891793
0.12919302
0.12897708
0.12852067
0.12802566
0.127611
0.12727592
0.12702995
0.12686155
0.12674038
0.12666118
0.12661217
0.12657429
0.12654698
0.12652321
0.1265098
0.12650231
0.12649432
0.12649551
0.12649772
0.12650535
0.126517
0.126535
0.12655897
0.12659405
0.12664271
0.12670937
0.12679942
0.12692134
0.12709107
0.12732899
0.1276874
0.12807795
0.0017321806
0.01035384
0.01880628
0.028195567
0.046328933
0.036414231
0.041704381
0.051785647
0.053371094
0.058682201
0.064497757
0.048638308
0.064154547
0.12387868
0.12632247
0.12802648
0.12889787
0.12910196
0.12887723
0.12846555
0.127967
0.12757572
0.1272521
0.1270314
0.12686996
0.12675225
0.12667424
0.12662968
0.1265912
0.12656716
0.12654629
0.12653386
0.12652465
0.12651867
0.12651958
0.12652242
0.1265307
0.12654303
0.12656176
0.12658585
0.12662129
0.12667039
0.1267377
0.1268282
0.12695105
0.12712126
0.12736015
0.12771994
0.12811563
0.0016510411
0.010230075
0.018881276
0.032423426
0.032634671
0.060592517
0.060074891
0.072547909
0.081717258
0.093708702
0.083481079
0.090180539
0.099851229
0.054798876
0.12651852
0.12811003
0.12888744
0.12900978
0.12879062
0.12838155
0.1279099
0.12754192
0.12722966
0.12702814
0.12687353
0.12676245
0.12668361
0.12664538
0.12660785
0.12658603
0.12656885
0.12655604
0.12654718
0.12654288
0.12654306
0.12654657
0.12655563
0.12656864
0.12658823
0.12661267
0.12664855
0.12669824
0.12676613
0.1268574
0.12698125
0.12715223
0.12739229
0.12775373
0.12815888
0.0015876374
0.010283053
0.020192297
0.034084566
0.048659613
0.053096938
0.047573092
0.056301582
0.051787533
0.059130572
0.078017831
0.049422895
0.07393559
0.12464884
0.092177248
0.12811568
0.12883869
0.12893537
0.12869915
0.12829007
0.12784947
0.1275039
0.12721496
0.12702404
0.12687262
0.1267717
0.12669231
0.12665887
0.12662508
0.12660397
0.12658961
0.1265759
0.12656964
0.12656697
0.12656606
0.1265704
0.1265804
0.12659401
0.12661449
0.12663952
0.12667594
0.12672635
0.12679495
0.12688713
0.12701196
0.12718395
0.12742534
0.12778874
0.12820287
0.0015294004
0.010148334
0.02028612
0.034567162
0.04205733
0.062594378
0.05686331
0.065081669
0.062080869
0.083664443
0.084075116
0.11805658
0.10499915
0.064398043
0.11859215
0.12807443
0.12877585
0.12890172
0.12869486
0.12820862
0.12778366
0.12746064
0.12720324
0.12701949
0.12687039
0.12677815
0.12670223
0.1266708
0.12664118
0.12662065
0.12660888
0.12659436
0.12659161
0.12659096
0.12658889
0.1265941
0.12660511
0.12661933
0.12664064
0.12666653
0.12670359
0.12675486
0.12682429
0.12691747
0.12704339
0.12721653
0.12745949
0.12782511
0.12824896
0.0014680729
0.010204855
0.021230913
0.035696199
0.050381837
0.063077857
0.051814468
0.061397921
0.05257888
0.058808597
0.064687141
0.066888073
0.08172568
0.12483148
0.086112609
0.12012971
0.12870614
0.12883907
0.12864665
0.12816364
0.12774096
0.1274187
0.12718999
0.12701542
0.12687138
0.12678391
0.12671399
0.12668407
0.12665677
0.12663739
0.12662666
0.126614
0.12661264
0.12661433
0.12661191
0.12661783
0.12662982
0.12664474
0.12666681
0.12669376
0.1267316
0.12678379
0.12685415
0.12694848
0.12707568
0.12725006
0.12749481
0.12786285
0.12829691
0.0014075149
0.010041563
0.021255506
0.035893126
0.034457647
0.062933012
0.048113232
0.072955132
0.064574446
0.073821046
0.065139341
0.095874661
0.11055002
0.089356175
0.1163906
0.11775827
0.1286482
0.12873513
0.12854894
0.12814367
0.12773276
0.12740076
0.127179
0.12701054
0.12687657
0.12679209
0.12672588
0.12669826
0.12667258
0.12665475
0.12664206
0.12663542
0.12663324
0.12663696
0.12663517
0.12664179
0.12665455
0.12667029
0.12669313
0.12672127
0.12676003
0.12681322
0.12688463
0.12698014
0.12710892
0.12728465
0.12753132
0.12790206
0.12834698
0.0013514225
0.010067208
0.021732524
0.036399066
0.037865648
0.062922706
0.044162963
0.071575813
0.057248678
0.073039754
0.066715685
0.067128378
0.064983483
0.12481347
0.1266659
0.11795174
0.12215214
0.12866502
0.12843438
0.12809422
0.12772942
0.12740618
0.12717953
0.12700773
0.12688202
0.12680287
0.12673772
0.12671175
0.12668738
0.12667315
0.12665753
0.1266569
0.12665457
0.12665895
0.12665852
0.12666597
0.12667935
0.12669595
0.12671964
0.12674904
0.12678887
0.12684316
0.1269157
0.12701271
0.12714295
0.1273204
0.12756912
0.12794279
0.12839932
0.0013134295
0.0097990478
0.021427676
0.03630074
0.040346347
0.060238133
0.049926153
0.06486356
0.053451858
0.080629144
0.07440685
0.098179014
0.07405057
0.080793316
0.12665529
0.12782863
0.11568265
0.12864076
0.12837285
0.12804368
0.12770783
0.12741702
0.12718831
0.12700955
0.12688676
0.12681292
0.12675001
0.12672572
0.12669925
0.12669167
0.12667564
0.12667708
0.12667579
0.12668088
0.12668208
0.12669035
0.12670434
0.12672181
0.12674643
0.12677714
0.12681816
0.12687373
0.12694759
0.12704614
0.1271778
0.12735733
0.1276083
0.12798513
0.1284538
0.0012657413
0.0099073548
0.022031668
0.036827608
0.043486886
0.062440852
0.05130023
0.078345868
0.052863733
0.064478765
0.056734494
0.095503032
0.078150791
0.098313936
0.089084947
0.1278298
0.12835845
0.12856838
0.12833735
0.12803044
0.1276853
0.12740797
0.1271842
0.12700667
0.12689293
0.12682116
0.12676141
0.12674151
0.12671002
0.12670842
0.12669537
0.12669702
0.12669607
0.12670271
0.12670598
0.12671508
0.12672972
0.12674803
0.12677362
0.12680572
0.12684805
0.12690512
0.12698033
0.12708022
0.12721386
0.12739552
0.12764902
0.12802932
0.12851098
0.0012081364
0.0098022023
0.022193643
0.037190929
0.043487051
0.062292648
0.045241357
0.081179178
0.062268066
0.068951422
0.051493468
0.078957055
0.086403113
0.12026809
0.080988966
0.10731732
0.12832857
0.12842151
0.1282333
0.12797563
0.12767041
0.12738944
0.1271648
0.12699213
0.12689653
0.12682933
0.12677223
0.12675665
0.12672461
0.12672333
0.12671408
0.12671793
0.12671664
0.12672415
0.12672988
0.12674018
0.12675562
0.12677475
0.12680125
0.12683485
0.12687861
0.12693729
0.12701381
0.1271155
0.12725114
0.12743506
0.1276914
0.12807531
0.12857051
0.0011911012
0.0063676879
0.023489094
0.022597744
0.035878233
0.055022886
0.03644604
0.053339709
0.051285369
0.09119035
0.066893786
0.071226097
0.064956823
0.10500739
0.095074517
0.10242931
0.10997102
0.12837704
0.12811651
0.12787772
0.12761245
0.12736478
0.12714425
0.1269739
0.12689223
0.12683505
0.12678397
0.12676881
0.12674103
0.12674185
0.12673126
0.12673791
0.12673844
0.1267457
0.1267534
0.12676538
0.12678203
0.12680199
0.12682938
0.12686447
0.12690985
0.12697015
0.12704824
0.12715199
0.12728938
0.12747601
0.12773526
0.12812318
0.12863223
0.0012121099
0.009753575
0.016188198
0.018945758
0.044291469
0.040485571
0.045952998
0.040434328
0.041200937
0.054649099
0.064036719
0.081061088
0.070901193
0.077103723
0.094028431
0.1277276
0.11031238
0.10784514
0.12808505
0.12776214
0.127524
0.12730419
0.12712468
0.12696638
0.12688516
0.12683552
0.12679494
0.12677994
0.12675611